FOO
138240
    1MOL0     O    1   7.091   7.598   5.217 -0.0115 -0.2986 -0.2989
    1MOL0     C    2   7.053   7.635   5.329  0.1929  0.5676 -0.0459
    1MOL0     O    3   7.138   7.645   5.437  0.8785 -0.5024  0.0382
    1MOL0     C    4   7.265   7.627   5.411 -0.7298  0.6442  0.2497
    1MOL0     C    5   7.309   7.491   5.429  0.5329  0.3709 -1.0621
    1MOL0     C    6   7.439   7.457   5.400 -0.2678 -0.2454 -0.1236
    1MOL0     C    7   7.529   7.563   5.356  0.6687  0.0031  0.4004
    1MOL0     O    8   7.654   7.536   5.318  0.2487 -0.1109 -0.1621
    1MOL0     C    9   7.734   7.469   5.419  0.2194 -0.0895 -0.1879
    1MOL0     C   10   7.827   7.573   5.479 -0.2853  0.7628 -0.8645
    1MOL0     C   11   7.932   7.511   5.567 -0.5481  0.2886 -1.1597
    1MOL0     C   12   8.018   7.613   5.640  0.1872 -0.6160 -1.1632
    1MOL0     C   13   8.110   7.554   5.738 -0.9199 -0.1128 -0.2650
    1MOL0     C   14   8.044   7.524   5.876  0.0095 -0.7580 -0.0167
    1MOL0     C   15   8.154   7.533   5.990  0.2263  0.7996  0.2820
    1MOL0     C   16   8.103   7.460   6.108 -0.2611 -0.2427 -1.0264
    1MOL0     N   17   8.209   7.440   6.210  0.3158  0.5014  0.4678
    1MOL0     C   18   8.215   7.508   6.336 -0.0738  0.0329 -0.5406
    1MOL0     C   19   8.329   7.454   6.388 -0.0188 -0.6393 -0.6229
    1MOL0     C   20   8.373   7.481   6.526 -0.3475 -0.7782 -0.7096
    1MOL0     C   21   8.515   7.430   6.559 -0.2161  0.3399  0.3215
    1MOL0     C   22   8.592   7.524   6.658 -0.5603  0.7595  0.2791
    1MOL0     C   23   8.739   7.482   6.665  0.2617  0.9424 -0.9927
    1MOL0     O   24   8.825   7.588   6.654 -0.1548  0.3771  0.5243
    1MOL0     C   25   8.954   7.577   6.702  0.4344  1.0071  0.0131
    1MOL0     C   26   9.008   7.460   6.770 -0.4772 -1.3969 -0.1327
    1MOL0     C   27   9.139   7.465   6.806  0.3433  0.0192  0.3301
    1MOL0     C   28   9.228   7.572   6.783 -0.5225  0.8473 -0.2467
    1MOL0     C   29   9.370   7.564   6.810 -0.1903  0.6878 -0.3430
    1MOL0     O   30   9.424   7.440   6.844  0.6957 -0.1361  0.3250
    1MOL0     C   31   9.548   7.414   6.874  0.1785  0.8513 -0.3945
    1MOL0     C   32   9.643   7.518   6.904  0.0455  0.6229 -0.8452
    1MOL0     C   33   9.778   7.481   6.952  1.0039 -0.2545  1.0039
    1MOL0     C   34   9.814   7.350   6.953 -0.9505  0.2965  0.3455
    1MOL0     O   35   9.943   7.309   6.985 -0.3356 -0.6484  0.4387
    1MOL0     C   36  10.042   7.416   6.995  0.6911 -0.5007 -0.7746
    1MOL0     C   37  10.190   7.383   7.024  0.0777  0.3176  0.5005
    1MOL0     C   38  10.288   7.501   6.995  0.3578 -0.1387 -0.6179
    1MOL0     C   39  10.416   7.461   7.069 -0.3870 -0.1507  0.5194
    1MOL0     C   40  10.533   7.546   7.018  1.4077  0.5562  0.8605
    1MOL0     C   41  10.661   7.520   7.110 -0.3214  0.9868  0.6008
    1MOL0     C   42  10.783   7.596   7.054  0.9466 -0.6764 -0.3181
    1MOL0     C   43  10.905   7.586   7.155 -0.1478 -0.5223  0.6865
    1MOL0    Cl   44  11.014   7.736   7.141  0.1445  0.4205 -0.0652
    1MOL0     C   45   9.726   7.254   6.909 -0.2060 -0.1377 -0.7636
    1MOL0     C   46   9.592   7.284   6.877 -1.0934  1.2198  0.1487
    1MOL0     O   47   9.427   7.668   6.793 -0.3966  1.3109  0.3199
    1MOL0     C   48   9.167   7.683   6.714 -0.0744 -0.0699 -0.0332
    1MOL0     C   49   9.032   7.680   6.677 -0.2472 -0.2940 -0.3422
    1MOL0     N   50   8.390   7.374   6.288  0.8917 -0.3779  0.1532
    1MOL0     N   51   8.308   7.350   6.190 -0.3055  0.7693 -0.6113
    1MOL0     C   52   7.481   7.694   5.336 -1.0533  0.3438  0.6640
    1MOL0     C   53   7.351   7.726   5.361 -0.2860 -0.1824 -0.4021
    1MOL0     C   54   6.912   7.677   5.347  0.0495 -0.9925  0.6536
    1MOL0     C   55   6.871   7.765   5.453 -0.4306 -0.1850 -0.4461
    1MOL0     C   56   6.746   7.794   5.489 -0.7726 -0.8629 -0.0363
    1MOL0     C   57   6.644   7.739   5.418 -0.1237  0.4591 -0.1114
    1MOL0     O   58   6.509   7.758   5.457 -0.4835  0.4910  0.6907
    1MOL0     C   59   6.473   7.807   5.588  0.3734 -0.2328  0.5627
    1MOL0     C   60   6.326   7.830   5.591 -0.2561 -0.1791  0.4910
    1MOL0     C   61   6.285   7.870   5.730 -0.1921 -0.2792 -0.4943
    1MOL0     C   62   6.166   7.970   5.737  1.0379  0.2693  0.4025
    1MOL0     C   63   6.168   8.052   5.861 -1.1059  0.5218 -0.3152
    1MOL0     C   64   6.178   8.116   5.964 -0.4308  0.4958  0.2057
    1MOL0     C   65   6.671   7.656   5.306  0.1879 -0.3504 -0.7313
    1MOL0     C   66   6.804   7.633   5.269  0.0455  0.2260  0.7248
    1MOL0     C   67   6.809   7.558   5.143  0.2651 -0.7121  0.0741
    1MOL0     H   68   7.251   7.417   5.485 -1.3091  1.5180 -1.3849
    1MOL0     H   69   7.477   7.356   5.408 -0.3973 -0.4808 -1.9851
    1MOL0     H   70   7.677   7.425   5.501 -1.4029  3.3776  0.7553
    1MOL0     H   71   7.791   7.393   5.365 -1.0108  0.0108 -1.7088
    1MOL0     H   72   7.764   7.646   5.531  0.3797 -0.4558  1.8448
    1MOL0     H   73   7.889   7.627   5.406  1.7251  3.0612  2.2759
    1MOL0     H   74   7.993   7.442   5.507 -0.8347 -0.7434 -0.2866
    1MOL0     H   75   7.883   7.437   5.631 -0.1772  1.1124  0.0975
    1MOL0     H   76   8.087   7.663   5.572  3.2760 -2.1764  0.5769
    1MOL0     H   77   7.961   7.699   5.676  1.6665  2.0993 -4.6516
    1MOL0     H   78   8.163   7.467   5.700  0.0358 -0.1247  1.0124
    1MOL0     H   79   8.177   7.635   5.768 -4.5795  1.9856  3.4723
    1MOL0     H   80   7.959   7.588   5.901 -0.9304 -1.8920 -0.2118
    1MOL0     H   81   8.009   7.421   5.874 -0.4928 -0.5974  0.2231
    1MOL0     H   82   8.164   7.631   6.036  2.2685 -0.9665  4.0227
    1MOL0     H   83   8.247   7.498   5.944 -1.8335  1.3124 -5.0391
    1MOL0     H   84   8.026   7.524   6.151  2.0054  2.3484 -0.5289
    1MOL0     H   85   8.061   7.361   6.090 -0.5022 -0.3600  0.1245
    1MOL0     H   86   8.152   7.589   6.371 -0.3654  0.1998 -1.4333
    1MOL0     H   87   8.375   7.590   6.539 -1.0003 -0.9115  0.7452
    1MOL0     H   88   8.303   7.432   6.594  1.7012 -1.0063  1.3597
    1MOL0     H   89   8.506   7.335   6.612 -0.8886  0.5246  0.5487
    1MOL0     H   90   8.579   7.409   6.473  2.1810 -0.9606  2.2515
    1MOL0     H   91   8.541   7.512   6.754 -0.5828 -3.4462 -0.0917
    1MOL0     H   92   8.586   7.631   6.634 -0.1067  0.8464  0.5286
    1MOL0     H   93   8.769   7.418   6.581  4.1229 -0.0679  0.9366
    1MOL0     H   94   8.750   7.425   6.758 -2.8782 -0.6053 -1.4513
    1MOL0     H   95   8.942   7.376   6.785 -1.5745 -0.9013 -1.8609
    1MOL0     H   96   9.167   7.374   6.859 -2.2846 -0.7542  0.5364
    1MOL0     H   97   9.625   7.622   6.928  2.9420  1.2475 -1.0012
    1MOL0     H   98   9.848   7.563   6.968  1.6110 -0.2902 -1.1428
    1MOL0     H   99  10.037   7.465   6.897 -1.8383 -0.0001 -0.4621
    1MOL0     H  100  10.011   7.494   7.066 -0.0129  0.0871 -1.6989
    1MOL0     H  101  10.197   7.367   7.132  3.0595  0.5389  0.4267
    1MOL0     H  102  10.215   7.297   6.962  0.7630  2.4675 -2.4117
    1MOL0     H  103  10.291   7.513   6.887  2.0762 -2.7517 -0.9429
    1MOL0     H  104  10.252   7.592   7.044 -0.9313 -1.0652  0.2226
    1MOL0     H  105  10.431   7.353   7.054  0.7402 -0.4084  2.9694
    1MOL0     H  106  10.402   7.477   7.176  0.0237  2.5934  0.2194
    1MOL0     H  107  10.514   7.653   7.020 -0.0670  0.3050  1.9437
    1MOL0     H  108  10.549   7.520   6.913 -0.4532 -3.0525  1.2992
    1MOL0     H  109  10.634   7.557   7.210 -2.5644 -0.7292  0.7107
    1MOL0     H  110  10.700   7.419   7.123 -1.1276  0.6159  0.1935
    1MOL0     H  111  10.752   7.701   7.046 -1.7575 -1.4748 -1.4880
    1MOL0     H  112  10.819   7.559   6.957 -1.0928 -1.8635 -0.6794
    1MOL0     H  113  10.868   7.563   7.255  0.8823  0.6200  1.3521
    1MOL0     H  114  10.978   7.509   7.133 -1.0989 -0.7103 -2.3303
    1MOL0     H  115   9.765   7.153   6.920 -0.6809 -0.5277 -2.3647
    1MOL0     H  116   9.525   7.208   6.838 -0.6873  0.3246  1.1476
    1MOL0     H  117   9.229   7.768   6.688  1.3810 -1.9028 -3.2141
    1MOL0     H  118   8.992   7.769   6.629 -0.5745  0.0771  0.6131
    1MOL0     H  119   7.557   7.762   5.301 -1.3133 -0.1460 -0.9147
    1MOL0     H  120   7.303   7.822   5.343  0.6740  0.4510  0.3691
    1MOL0     H  121   6.941   7.807   5.525  1.4617 -0.2275 -2.1751
    1MOL0     H  122   6.726   7.858   5.575  0.0080 -2.5219  1.4253
    1MOL0     H  123   6.539   7.889   5.619  1.9314 -1.9504  2.1004
    1MOL0     H  124   6.496   7.729   5.662  0.3802  1.6206  2.6399
    1MOL0     H  125   6.279   7.736   5.560 -0.8865  0.4517 -0.5231
    1MOL0     H  126   6.297   7.901   5.514 -0.2441 -0.4695  0.2185
    1MOL0     H  127   6.366   7.931   5.773 -1.2973  2.5575 -2.1317
    1MOL0     H  128   6.261   7.782   5.790  2.3391  0.5197  1.8948
    1MOL0     H  129   6.183   8.033   5.650  2.8258  0.2124  0.6712
    1MOL0     H  130   6.069   7.919   5.737 -0.4427  2.8993 -0.8381
    1MOL0     H  131   6.218   8.162   6.052 -0.2271  0.3015  0.2167
    1MOL0     H  132   6.594   7.619   5.239 -1.2829  0.2320  0.5471
    1MOL0     H  133   6.822   7.630   5.062  0.8357 -0.4294  0.4119
    1MOL0     H  134   6.895   7.492   5.133 -1.6608 -3.0480 -2.4573
    1MOL0     H  135   6.720   7.499   5.118 -0.3959  0.4708 -0.4551
    2MOL0     O  136  10.303   8.416   9.978 -0.0497  0.6610  0.1789
    2MOL0     C  137  10.336   8.535   9.976  0.9002  0.9966  0.2574
    2MOL0     O  138  10.414   8.600  10.063 -0.0382 -0.2983 -0.0549
    2MOL0     C  139  10.497   8.527  10.141  0.3932 -0.6807 -0.0579
    2MOL0     C  140  10.524   8.588  10.264  0.7518  1.1769  0.8340
    2MOL0     C  141  10.593   8.518  10.363  0.8285  0.7550 -0.2921
    2MOL0     C  142  10.641   8.392  10.335  0.0209 -0.3139  0.1336
    2MOL0     O  143  10.715   8.340  10.442 -0.4054  0.5472  0.3100
    2MOL0     C  144  10.705   8.200  10.460  0.9438 -0.2635  0.5396
    2MOL0     C  145  10.614   8.170  10.587  0.2890 -0.1416 -0.5820
    2MOL0     C  146  10.653   8.243  10.712 -0.2615 -0.4832 -0.5759
    2MOL0     C  147  10.547   8.232  10.823 -0.7343 -0.2845  0.4879
    2MOL0     C  148  10.595   8.298  10.956  0.1061  0.5107 -0.2389
    2MOL0     C  149  10.687   8.216  11.044  0.0667 -0.6814  0.0307
    2MOL0     C  150  10.627   8.089  11.102  0.7027  0.1086 -0.8272
    2MOL0     C  151  10.514   8.110  11.200 -0.2161  0.1469 -0.4953
    2MOL0     N  152  10.557   8.206  11.308 -0.0946 -0.0342  0.6691
    2MOL0     C  153  10.488   8.321  11.321  0.0746 -1.2247 -0.2850
    2MOL0     C  154  10.557   8.392  11.420 -1.0608  0.0914 -1.0230
    2MOL0     C  155  10.536   8.531  11.467  0.0245 -0.7969 -0.1682
    2MOL0     C  156  10.489   8.633  11.361 -0.3947  0.1588  0.0202
    2MOL0     C  157  10.590   8.641  11.245  0.1511 -0.3457  0.7064
    2MOL0     C  158  10.595   8.785  11.186  0.2495 -0.1176  0.5740
    2MOL0     O  159  10.629   8.782  11.049 -0.4154 -0.2927 -0.3134
    2MOL0     C  160  10.758   8.800  11.012  0.6864 -0.5817 -0.1332
    2MOL0     C  161  10.825   8.693  10.961 -0.0745 -1.2463  0.7026
    2MOL0     C  162  10.955   8.715  10.904  0.5840  0.7295 -0.2016
    2MOL0     C  163  11.010   8.840  10.905 -0.1992  0.8681  0.4141
    2MOL0     C  164  11.151   8.862  10.857 -0.0497  0.3510 -0.3635
    2MOL0     O  165  11.200   8.986  10.847  0.1656  0.0476  0.0690
    2MOL0     C  166  11.319   8.997  10.790  0.6218 -0.5553  1.2702
    2MOL0     C  167  11.362   8.935  10.678  0.2565  0.1800  0.7551
    2MOL0     C  168  11.487   8.950  10.618 -0.2644 -0.4622  0.3010
    2MOL0     C  169  11.586   9.020  10.683 -0.7534  0.3976  1.2091
    2MOL0     O  170  11.709   9.009  10.609 -0.7974  0.1461 -0.5026
    2MOL0     C  171  11.825   9.060  10.671 -0.3635  0.7568 -0.2338
    2MOL0     C  172  11.954   9.051  10.585  0.4617 -0.4211 -0.1457
    2MOL0     C  173  12.068   9.137  10.634 -0.4179  0.7095  0.9444
    2MOL0     C  174  12.117   9.100  10.776 -0.9176 -0.4038  0.1730
    2MOL0     C  175  12.176   8.961  10.793 -0.2734  0.4938  0.1735
    2MOL0     C  176  12.258   8.946  10.919 -0.4099 -0.3071 -0.8566
    2MOL0     C  177  12.173   8.951  11.044 -0.2756  1.4016  0.0799
    2MOL0     C  178  12.260   8.989  11.165 -0.0180  1.1286  0.1892
    2MOL0    Cl  179  12.406   8.891  11.184 -0.1749  0.1511  0.2284
    2MOL0     C  180  11.542   9.101  10.789  0.9027 -0.9983  1.1019
    2MOL0     C  181  11.411   9.087  10.844  0.4246 -0.4266  0.3875
    2MOL0     O  182  11.215   8.760  10.844 -0.7930  0.2623  0.0112
    2MOL0     C  183  10.933   8.949  10.937 -0.0130 -0.4364  0.4960
    2MOL0     C  184  10.805   8.927  10.994 -0.6676 -0.1872 -0.0811
    2MOL0     N  185  10.661   8.308  11.457  0.5761  0.2548  0.5479
    2MOL0     N  186  10.651   8.197  11.402 -0.2120 -0.2477  0.3227
    2MOL0     C  187  10.624   8.335  10.209 -0.4289 -0.9320 -0.9604
    2MOL0     C  188  10.543   8.397  10.120 -1.4642  0.4330 -0.0492
    2MOL0     C  189  10.300   8.609   9.851 -0.9517 -0.3996  0.8850
    2MOL0     C  190  10.359   8.734   9.818 -0.1000  0.3954 -0.1637
    2MOL0     C  191  10.334   8.806   9.706  0.7801  0.0695  0.2922
    2MOL0     C  192  10.248   8.755   9.604 -0.1004 -0.3378 -0.6147
    2MOL0     O  193  10.217   8.823   9.490  0.3190  0.1163  0.2625
    2MOL0     C  194  10.262   8.957   9.482 -0.0182  1.1015  0.5435
    2MOL0     C  195  10.208   9.015   9.347 -0.7290 -0.0950  0.4587
    2MOL0     C  196  10.319   9.002   9.238  0.2007 -0.3819 -0.4128
    2MOL0     C  197  10.429   9.122   9.233  0.0664  0.0932  0.0469
    2MOL0     C  198  10.532   9.117   9.338 -0.3121  0.1943 -0.2229
    2MOL0     C  199  10.608   9.112   9.432  0.6257  0.2789 -0.1832
    2MOL0     C  200  10.183   8.632   9.630 -0.8559  0.4271 -0.3720
    2MOL0     C  201  10.215   8.553   9.744 -0.0822 -0.4553  0.2430
    2MOL0     C  202  10.154   8.414   9.741  0.0067  0.7057 -0.2794
    2MOL0     H  203  10.497   8.693  10.270 -2.6825  0.4960 -0.3292
    2MOL0     H  204  10.606   8.572  10.456 -2.7225  1.0850  0.1625
    2MOL0     H  205  10.652   8.150  10.379  0.5802  1.1159 -0.1133
    2MOL0     H  206  10.807   8.161  10.466  1.9981  2.4102  2.0417
    2MOL0     H  207  10.605   8.065  10.615  0.0284  0.1469  0.4736
    2MOL0     H  208  10.514   8.197  10.553  0.1816 -1.6224 -1.5060
    2MOL0     H  209  10.676   8.346  10.683 -1.2407 -0.6352 -1.9841
    2MOL0     H  210  10.748   8.212  10.756 -1.4222  0.0308  2.6381
    2MOL0     H  211  10.454   8.270  10.780 -0.2417  0.7528  0.2981
    2MOL0     H  212  10.518   8.128  10.840 -4.2359  0.3975 -0.4661
    2MOL0     H  213  10.663   8.379  10.930  1.1063 -0.1023  0.3928
    2MOL0     H  214  10.516   8.341  11.019  0.2785 -0.7091  0.8654
    2MOL0     H  215  10.756   8.194  10.962  1.5250  2.1439  0.3665
    2MOL0     H  216  10.736   8.282  11.116  1.7303 -0.7687 -0.9807
    2MOL0     H  217  10.712   8.044  11.154 -0.7987 -0.7410  1.0270
    2MOL0     H  218  10.592   8.024  11.021 -0.1637 -2.8856  1.7600
    2MOL0     H  219  10.424   8.150  11.152 -2.7521  0.4056  3.9542
    2MOL0     H  220  10.483   8.013  11.239  0.0563  0.5997  0.8990
    2MOL0     H  221  10.418   8.360  11.249 -0.8871 -3.4752 -0.6695
    2MOL0     H  222  10.463   8.539  11.548 -0.6342  1.0322 -0.8862
    2MOL0     H  223  10.626   8.560  11.522 -0.5093  0.1733  0.2306
    2MOL0     H  224  10.393   8.589  11.332  0.6723 -3.2363  1.1635
    2MOL0     H  225  10.460   8.734  11.390 -0.4493  1.0754 -2.9140
    2MOL0     H  226  10.551   8.572  11.169  0.2076  0.3648  0.0249
    2MOL0     H  227  10.688   8.614  11.287  0.4622 -0.4417 -0.0709
    2MOL0     H  228  10.658   8.849  11.248 -2.4988  1.7101  1.6395
    2MOL0     H  229  10.495   8.829  11.178  0.3659  0.1806  0.7525
    2MOL0     H  230  10.783   8.593  10.967 -0.5374 -1.1078 -0.0468
    2MOL0     H  231  11.005   8.628  10.862  0.9697  2.3179 -3.2632
    2MOL0     H  232  11.295   8.861  10.636 -0.0853  1.0606 -0.2830
    2MOL0     H  233  11.510   8.879  10.539 -1.1673 -0.8015  0.3336
    2MOL0     H  234  11.813   9.166  10.696  4.7909  1.4242  0.5622
    2MOL0     H  235  11.846   9.001  10.761 -1.1567  0.1863 -0.4117
    2MOL0     H  236  11.981   8.945  10.581 -0.2542 -0.5722 -2.3168
    2MOL0     H  237  11.948   9.072  10.478  0.3958  0.0592 -0.0520
    2MOL0     H  238  12.155   9.117  10.571 -0.0120 -1.7099  2.1407
    2MOL0     H  239  12.045   9.241  10.610 -0.8146  0.2412 -0.8095
    2MOL0     H  240  12.033   9.110  10.845 -1.8814 -0.3334 -0.9757
    2MOL0     H  241  12.197   9.171  10.798 -0.1642 -1.9995  3.1426
    2MOL0     H  242  12.233   8.925  10.706  2.2857  2.4147  0.9287
    2MOL0     H  243  12.096   8.886  10.796 -0.1280  0.3711  1.1659
    2MOL0     H  244  12.316   8.853  10.916  2.2492  1.1409  1.5858
    2MOL0     H  245  12.333   9.024  10.932 -1.2167  0.0229  3.2997
    2MOL0     H  246  12.125   8.855  11.063 -1.2566  1.9307  0.3284
    2MOL0     H  247  12.097   9.029  11.036 -1.2942  0.5891  1.4588
    2MOL0     H  248  12.288   9.094  11.147 -2.9055  1.6926 -1.7716
    2MOL0     H  249  12.206   8.977  11.259 -0.8773 -1.3579 -0.5440
    2MOL0     H  250  11.607   9.177  10.830 -3.4273  3.2568  0.9433
    2MOL0     H  251  11.371   9.150  10.923 -0.7242 -0.8150  0.1337
    2MOL0     H  252  10.963   9.053  10.932 -2.0633  0.1488 -1.2245
    2MOL0     H  253  10.747   9.017  11.015  1.6589  1.6898 -1.1476
    2MOL0     H  254  10.664   8.238  10.180  0.4174 -0.7629 -0.3785
    2MOL0     H  255  10.533   8.341  10.028  1.2963 -1.5513  0.7192
    2MOL0     H  256  10.443   8.774   9.875 -0.3240  1.7167 -0.7196
    2MOL0     H  257  10.388   8.898   9.688 -0.4389  0.3965 -2.1145
    2MOL0     H  258  10.371   8.966   9.486  0.1834 -1.1490  2.0719
    2MOL0     H  259  10.217   9.020   9.559 -0.5067  2.7171 -1.0087
    2MOL0     H  260  10.170   9.117   9.359 -1.2273 -0.1158 -0.7887
    2MOL0     H  261  10.123   8.952   9.320 -1.4896  1.2184 -0.3129
    2MOL0     H  262  10.262   9.005   9.144 -0.9847  2.0862  0.2975
    2MOL0     H  263  10.365   8.903   9.248  0.9616  0.0683  0.7182
    2MOL0     H  264  10.476   9.120   9.134 -1.9956  2.1012 -1.0765
    2MOL0     H  265  10.365   9.211   9.240 -1.0018 -0.7322  1.2577
    2MOL0     H  266  10.677   9.112   9.515  1.0392  1.2617 -0.5113
    2MOL0     H  267  10.107   8.599   9.560 -1.6311 -0.5594  0.8775
    2MOL0     H  268  10.089   8.415   9.653  3.2293  2.7210 -2.8696
    2MOL0     H  269  10.228   8.338   9.716 -0.3622  0.6205 -1.1728
    2MOL0     H  270  10.095   8.382   9.828  1.5565  0.3650  0.6751
    3MOL0     O  271   9.092   6.618   0.579 -0.7948  0.2431  0.2078
    3MOL0     C  272   9.043   6.506   0.594  0.0891  0.0160  0.4573
    3MOL0     O  273   9.104   6.402   0.653  0.2704 -0.0312 -0.2711
    3MOL0     C  274   9.241   6.400   0.673 -0.8994  0.0120 -0.4923
    3MOL0     C  275   9.305   6.499   0.755  0.7021 -0.1197 -0.1335
    3MOL0     C  276   9.438   6.497   0.786  0.0051  0.8049  0.1476
    3MOL0     C  277   9.518   6.395   0.737 -0.0228 -0.2643  0.3933
    3MOL0     O  278   9.651   6.396   0.759  0.1366 -0.5097  0.0081
    3MOL0     C  279   9.721   6.414   0.631  0.1604 -0.8363 -0.4072
    3MOL0     C  280   9.813   6.532   0.656  0.0868 -0.5394 -0.4255
    3MOL0     C  281   9.874   6.531   0.794  0.1176  0.3381 -0.0820
    3MOL0     C  282   9.958   6.655   0.822 -0.2358  0.1290  0.5593
    3MOL0     C  283  10.077   6.618   0.903 -0.0007  0.3412 -0.1591
    3MOL0     C  284  10.036   6.593   1.053 -0.3746  0.6841 -0.6976
    3MOL0     C  285  10.152   6.578   1.143 -0.4969  1.1529  0.5541
    3MOL0     C  286  10.144   6.466   1.256 -0.0579 -0.7849  0.1700
    3MOL0     N  287  10.275   6.458   1.322  0.1532  0.1443 -0.8391
    3MOL0     C  288  10.365   6.358   1.291  0.1405  0.1249 -0.4242
    3MOL0     C  289  10.447   6.357   1.400  0.8028  0.3750 -0.2855
    3MOL0     C  290  10.571   6.272   1.416 -0.0921 -0.2646  0.3533
    3MOL0     C  291  10.699   6.353   1.363 -0.0871 -0.0539  0.2744
    3MOL0     C  292  10.824   6.255   1.356  0.3811  0.2495 -0.9548
    3MOL0     C  293  10.950   6.325   1.313 -0.4686 -0.2927 -1.0980
    3MOL0     O  294  11.004   6.402   1.423  1.0353 -0.1370  0.3205
    3MOL0     C  295  11.084   6.354   1.515 -0.3828  0.9454 -0.6806
    3MOL0     C  296  11.159   6.444   1.598  0.7397  0.5934  0.4053
    3MOL0     C  297  11.268   6.400   1.677  0.3066 -0.3573  0.1313
    3MOL0     C  298  11.294   6.265   1.694  0.5339  1.3979 -0.6874
    3MOL0     C  299  11.385   6.214   1.795  0.7751  0.4723 -0.0079
    3MOL0     O  300  11.404   6.083   1.786  0.5367  0.6793 -0.2965
    3MOL0     C  301  11.474   6.022   1.891 -1.1018 -0.2221  0.5285
    3MOL0     C  302  11.605   6.063   1.908 -0.0048  0.2871  0.1079
    3MOL0     C  303  11.684   6.012   2.010  0.1637  1.6179 -0.3580
    3MOL0     C  304  11.628   5.920   2.100 -0.9517 -0.9814 -0.4062
    3MOL0     O  305  11.711   5.886   2.204 -0.6510  0.8707  0.1878
    3MOL0     C  306  11.720   5.745   2.219 -0.2131 -0.0748 -0.2846
    3MOL0     C  307  11.745   5.703   2.367  0.1117  0.3242  0.4915
    3MOL0     C  308  11.632   5.638   2.451 -0.2305  0.4038  0.1328
    3MOL0     C  309  11.505   5.715   2.450 -0.1733 -0.2358  0.3201
    3MOL0     C  310  11.455   5.715   2.601 -0.4948 -0.2097  0.1219
    3MOL0     C  311  11.324   5.787   2.607 -0.1478  0.2374  1.0366
    3MOL0     C  312  11.261   5.765   2.741 -0.3791 -0.0095  0.1632
    3MOL0     C  313  11.326   5.835   2.852  0.3607 -0.0522 -1.2041
    3MOL0    Cl  314  11.231   5.830   2.998  0.1775  0.0297 -0.1203
    3MOL0     C  315  11.496   5.876   2.087 -0.1510  0.2987 -0.3238
    3MOL0     C  316  11.421   5.928   1.979 -0.7333  0.2762  0.1742
    3MOL0     O  317  11.415   6.290   1.889 -0.0482 -0.3449  0.4037
    3MOL0     C  318  11.217   6.178   1.618  0.2071 -0.3990 -0.6280
    3MOL0     C  319  11.114   6.218   1.533  0.7176  0.0899 -0.7500
    3MOL0     N  320  10.414   6.470   1.478 -0.6938  0.1786  0.7062
    3MOL0     N  321  10.314   6.532   1.426  0.7284  0.6125  0.5560
    3MOL0     C  322   9.454   6.292   0.667 -0.5173  0.3686 -0.2186
    3MOL0     C  323   9.321   6.293   0.631 -0.9241  0.4804 -0.0293
    3MOL0     C  324   8.905   6.493   0.527 -0.2626 -0.9886  0.0146
    3MOL0     C  325   8.859   6.602   0.442 -0.2261  0.2673 -0.2551
    3MOL0     C  326   8.737   6.605   0.394 -1.0420 -0.5050  0.5184
    3MOL0     C  327   8.645   6.497   0.409 -0.1500 -1.3131  0.7045
    3MOL0     O  328   8.519   6.513   0.344 -0.8123  0.5280  0.2230
    3MOL0     C  329   8.432   6.401   0.357 -0.2426  0.6280 -0.3722
    3MOL0     C  330   8.287   6.431   0.328 -0.1253 -0.0016 -1.1522
    3MOL0     C  331   8.178   6.346   0.391  0.5784  0.1901 -0.2090
    3MOL0     C  332   8.178   6.195   0.342  0.5530 -0.2368 -0.5291
    3MOL0     C  333   8.123   6.201   0.208 -0.5077  0.2394 -0.0465
    3MOL0     C  334   8.086   6.207   0.090  0.7110 -0.5114 -0.5739
    3MOL0     C  335   8.684   6.386   0.485  0.2647 -0.6865  0.4427
    3MOL0     C  336   8.811   6.396   0.557  0.8486  0.3233  0.1500
    3MOL0     C  337   8.838   6.287   0.656 -0.4661  0.1885 -0.1593
    3MOL0     H  338   9.233   6.572   0.791  2.7313  1.5051  0.8316
    3MOL0     H  339   9.480   6.583   0.837 -0.6312  0.7419  0.7931
    3MOL0     H  340   9.764   6.321   0.594  1.4589  0.0712 -1.2549
    3MOL0     H  341   9.656   6.453   0.552  1.2886  2.3590  0.0932
    3MOL0     H  342   9.758   6.619   0.620  0.8363 -0.7206 -2.0835
    3MOL0     H  343   9.892   6.528   0.581  0.8187  0.4596  0.2584
    3MOL0     H  344   9.931   6.438   0.803  0.2416  0.4903  0.7178
    3MOL0     H  345   9.801   6.537   0.875  0.7779 -1.0888  0.6544
    3MOL0     H  346  10.005   6.689   0.729  0.9252 -1.3155  0.5946
    3MOL0     H  347   9.908   6.742   0.866  1.8421  1.3452  0.6502
    3MOL0     H  348  10.128   6.529   0.866 -0.0583  0.8021 -1.4109
    3MOL0     H  349  10.144   6.705   0.900  0.5834 -0.0981 -0.0027
    3MOL0     H  350   9.988   6.681   1.097 -0.6560 -1.0645  2.8203
    3MOL0     H  351   9.968   6.510   1.067  2.4043 -1.4233  1.3730
    3MOL0     H  352  10.154   6.674   1.196 -1.0345  0.8281  1.1776
    3MOL0     H  353  10.238   6.551   1.081 -1.0832 -3.3680  1.3574
    3MOL0     H  354  10.061   6.499   1.318 -0.8581  3.6232 -2.8338
    3MOL0     H  355  10.102   6.375   1.212 -2.7277  2.6310 -5.5630
    3MOL0     H  356  10.350   6.287   1.210  0.1249 -1.2304  0.7282
    3MOL0     H  357  10.572   6.230   1.517 -3.6235  2.4408  1.7474
    3MOL0     H  358  10.571   6.188   1.346  0.1028 -0.5812  0.7293
    3MOL0     H  359  10.670   6.387   1.263  0.5677  0.3593  0.2212
    3MOL0     H  360  10.724   6.442   1.420 -0.3463  0.7498 -0.8368
    3MOL0     H  361  10.804   6.169   1.292  0.4663 -0.6204  0.1607
    3MOL0     H  362  10.847   6.213   1.455 -0.4723 -0.4103 -1.0292
    3MOL0     H  363  10.924   6.403   1.242  0.5680 -0.0513 -1.2316
    3MOL0     H  364  11.035   6.268   1.276  1.3267  0.2481  1.8026
    3MOL0     H  365  11.148   6.550   1.582  1.2246  0.8047  1.3810
    3MOL0     H  366  11.322   6.481   1.724 -0.3778  0.2897 -0.1749
    3MOL0     H  367  11.642   6.143   1.845  1.2036 -1.5360 -1.6497
    3MOL0     H  368  11.789   6.035   2.019  0.4755 -0.1291  1.1219
    3MOL0     H  369  11.629   5.687   2.201 -2.2221  1.8745  2.6182
    3MOL0     H  370  11.802   5.705   2.159  0.4450  1.4568 -0.4741
    3MOL0     H  371  11.826   5.629   2.357 -0.8060 -0.5181 -1.1643
    3MOL0     H  372  11.790   5.785   2.423  2.7448  0.4007 -1.5425
    3MOL0     H  373  11.604   5.538   2.415 -0.2718  0.5243 -0.1767
    3MOL0     H  374  11.675   5.633   2.551 -1.1052 -0.0911  0.4881
    3MOL0     H  375  11.431   5.666   2.387  2.7980 -1.5069 -2.4404
    3MOL0     H  376  11.519   5.821   2.426  0.2507  0.5687  3.5692
    3MOL0     H  377  11.534   5.750   2.668  0.6979 -1.2240 -0.6970
    3MOL0     H  378  11.447   5.608   2.621  4.0345 -0.8583 -0.4569
    3MOL0     H  379  11.337   5.895   2.594  0.0898  0.1476  0.4711
    3MOL0     H  380  11.261   5.760   2.522  0.1817  2.3721  0.0394
    3MOL0     H  381  11.245   5.657   2.755  2.8616 -0.7493 -1.0332
    3MOL0     H  382  11.164   5.815   2.737  0.6387  2.3052  2.2575
    3MOL0     H  383  11.426   5.797   2.873  0.4883  1.1714  0.6277
    3MOL0     H  384  11.328   5.943   2.834 -0.6954  0.0682 -0.6898
    3MOL0     H  385  11.452   5.826   2.173  1.4151  2.1206  1.6667
    3MOL0     H  386  11.318   5.895   1.969 -0.0980 -1.3274 -1.8053
    3MOL0     H  387  11.219   6.071   1.636  1.3548  0.1698  3.8117
    3MOL0     H  388  11.051   6.144   1.485 -3.0806  2.7140 -0.2708
    3MOL0     H  389   9.526   6.223   0.622  2.7435  2.5549  1.2399
    3MOL0     H  390   9.281   6.211   0.572 -0.0011 -0.1148  0.1579
    3MOL0     H  391   8.925   6.686   0.420 -0.0988  0.4358  0.6924
    3MOL0     H  392   8.698   6.684   0.331 -0.1829 -0.3738  0.1460
    3MOL0     H  393   8.431   6.359   0.458 -1.0362 -0.2067 -0.7170
    3MOL0     H  394   8.472   6.323   0.292  1.6589 -0.1125  1.5418
    3MOL0     H  395   8.280   6.417   0.220 -0.8581 -3.7278 -0.7327
    3MOL0     H  396   8.268   6.534   0.359 -0.6615 -0.4824  0.2182
    3MOL0     H  397   8.079   6.386   0.369 -0.4232 -2.4363 -0.9076
    3MOL0     H  398   8.172   6.345   0.500  0.0498 -0.8314 -0.2358
    3MOL0     H  399   8.278   6.150   0.341  0.4587 -0.4398 -0.7572
    3MOL0     H  400   8.113   6.141   0.411  2.0085  0.0883  1.1873
    3MOL0     H  401   8.037   6.225  -0.003 -1.0237  0.1355  0.4217
    3MOL0     H  402   8.619   6.300   0.496  1.0008 -1.2769  0.2428
    3MOL0     H  403   8.865   6.327   0.754  3.1733  0.8665 -1.2890
    3MOL0     H  404   8.749   6.224   0.663 -1.4046  1.4951 -0.0086
    3MOL0     H  405   8.925   6.229   0.623  0.8783  1.6251  0.7466
    4MOL0     O  406   3.274   8.926   9.303  0.3588  0.4287  0.6685
    4MOL0     C  407   3.287   8.989   9.407 -0.5115  0.2033  0.9971
    4MOL0     O  408   3.406   9.045   9.448  0.1590  0.2630  0.3372
    4MOL0     C  409   3.515   9.034   9.374  0.0829 -0.0828  0.7291
    4MOL0     C  410   3.565   9.124   9.279  1.1371 -0.5039 -0.3455
    4MOL0     C  411   3.690   9.100   9.214  0.6892 -0.2809  0.5061
    4MOL0     C  412   3.757   8.980   9.247 -0.2209 -0.5985 -0.3614
    4MOL0     O  413   3.874   8.963   9.181 -0.2943  1.0148  0.7477
    4MOL0     C  414   3.935   8.833   9.185 -0.4974  0.5575 -0.7583
    4MOL0     C  415   4.078   8.835   9.129 -0.9891  0.1043  0.1402
    4MOL0     C  416   4.181   8.920   9.210  0.1127  0.1440  0.5586
    4MOL0     C  417   4.168   9.072   9.194 -0.0833 -0.4831 -0.6806
    4MOL0     C  418   4.190   9.155   9.318  0.0542  0.7106  0.1045
    4MOL0     C  419   4.255   9.286   9.270  0.4555 -0.4489  1.0364
    4MOL0     C  420   4.241   9.400   9.366 -0.8989  0.2099  1.1737
    4MOL0     C  421   4.333   9.384   9.490  0.6945 -0.4182 -0.2429
    4MOL0     N  422   4.469   9.432   9.485  0.6588 -1.2619  0.2381
    4MOL0     C  423   4.542   9.458   9.594 -0.5105 -0.2272  0.5012
    4MOL0     C  424   4.637   9.538   9.553  0.4215 -0.8414 -0.1447
    4MOL0     C  425   4.742   9.600   9.642  0.4430 -0.5881  0.7862
    4MOL0     C  426   4.887   9.604   9.591  0.4766 -0.0969  0.5085
    4MOL0     C  427   4.941   9.458   9.601  0.1257 -0.9071  0.4444
    4MOL0     C  428   5.094   9.468   9.620  0.5373  0.6348  0.6359
    4MOL0     O  429   5.152   9.332   9.613 -0.7203 -0.8781 -0.1528
    4MOL0     C  430   5.281   9.315   9.659  1.2841  0.3412 -0.2178
    4MOL0     C  431   5.362   9.413   9.708  1.1020 -0.6503 -0.0837
    4MOL0     C  432   5.484   9.384   9.762 -0.0054  0.5079 -0.8266
    4MOL0     C  433   5.535   9.256   9.772 -0.2007 -0.3839  0.2476
    4MOL0     C  434   5.661   9.214   9.832 -0.5077 -0.8113  0.5650
    4MOL0     O  435   5.735   9.319   9.897  0.9367  0.2025  0.5453
    4MOL0     C  436   5.855   9.313   9.953  0.0284  0.4139  0.3785
    4MOL0     C  437   5.921   9.428   9.949  0.2632 -0.9848 -0.8422
    4MOL0     C  438   6.046   9.446  10.020  0.9981 -0.4416  1.1375
    4MOL0     C  439   6.100   9.336  10.083 -0.2722  0.0680  0.5998
    4MOL0     O  440   6.225   9.335  10.146  0.0216  0.7109  0.8866
    4MOL0     C  441   6.336   9.296  10.067 -0.2573  0.6623 -0.0231
    4MOL0     C  442   6.431   9.202  10.145 -0.2276 -0.5575  0.8099
    4MOL0     C  443   6.561   9.170  10.059 -0.0351 -0.8237 -0.4048
    4MOL0     C  444   6.549   9.081   9.940 -0.7763  0.3671 -0.1359
    4MOL0     C  445   6.493   8.939   9.972 -0.3920 -1.0601  0.0692
    4MOL0     C  446   6.456   8.859   9.843  0.3702 -0.8300  0.0676
    4MOL0     C  447   6.573   8.852   9.753  0.0270 -0.3748  0.3037
    4MOL0     C  448   6.579   8.727   9.663  0.5759  0.1356  0.2099
    4MOL0    Cl  449   6.604   8.587   9.773 -0.6127  0.3219 -0.4282
    4MOL0     C  450   6.021   9.212  10.097  0.3034 -0.0732  0.4571
    4MOL0     C  451   5.900   9.203  10.029 -0.3487  0.0867 -0.4922
    4MOL0     O  452   5.709   9.098   9.815 -0.3539  0.8855  0.4589
    4MOL0     C  453   5.459   9.164   9.699  0.0879  0.0476 -0.5712
    4MOL0     C  454   5.337   9.196   9.633 -0.3980 -0.8767  0.0313
    4MOL0     N  455   4.612   9.563   9.422  0.9389 -0.1254  0.1629
    4MOL0     N  456   4.513   9.490   9.373  0.0023  0.2787 -0.6765
    4MOL0     C  457   3.702   8.887   9.334  1.1632 -0.8806  0.1788
    4MOL0     C  458   3.589   8.920   9.399  0.6610  0.5399 -1.2487
    4MOL0     C  459   3.170   9.034   9.488 -0.1794  0.0822  0.6048
    4MOL0     C  460   3.171   9.170   9.519  0.1699 -0.7979 -0.0574
    4MOL0     C  461   3.069   9.224   9.590 -1.1264  0.8065 -0.1997
    4MOL0     C  462   2.965   9.146   9.636 -0.0396  0.0929 -0.3369
    4MOL0     O  463   2.854   9.190   9.705 -0.0102  1.0029 -0.9511
    4MOL0     C  464   2.842   9.330   9.738  0.5164 -0.7049 -0.3964
    4MOL0     C  465   2.699   9.367   9.774 -0.0438 -0.2546  0.4768
    4MOL0     C  466   2.649   9.304   9.909  0.1168 -0.3883  0.1223
    4MOL0     C  467   2.497   9.325   9.925  0.0199  0.6074  0.3528
    4MOL0     C  468   2.449   9.271  10.052 -0.4742  0.0987  0.6102
    4MOL0     C  469   2.410   9.245  10.165 -1.0863  1.0988  0.1143
    4MOL0     C  470   2.960   9.015   9.603  0.6791 -0.7525 -0.4286
    4MOL0     C  471   3.056   8.955   9.524 -0.2221  0.2975  0.8109
    4MOL0     C  472   3.048   8.812   9.484 -0.7737 -0.2842 -0.1822
    4MOL0     H  473   3.501   9.208   9.257 -0.6574 -2.1138 -1.6889
    4MOL0     H  474   3.741   9.181   9.162  2.9777 -1.3659  0.9414
    4MOL0     H  475   3.954   8.794   9.285  1.3425 -1.8218 -1.9490
    4MOL0     H  476   3.874   8.763   9.127 -0.3547 -0.7095  0.5797
    4MOL0     H  477   4.077   8.876   9.027 -1.1840 -2.3329 -0.8943
    4MOL0     H  478   4.103   8.729   9.121 -1.5504  0.0617 -1.4232
    4MOL0     H  479   4.281   8.880   9.189 -0.3086 -0.9086  0.4970
    4MOL0     H  480   4.166   8.895   9.315 -0.1369 -1.0533  0.2573
    4MOL0     H  481   4.241   9.098   9.118 -1.3774 -0.9014 -2.1125
    4MOL0     H  482   4.069   9.093   9.153 -0.3617  0.5481  0.4651
    4MOL0     H  483   4.092   9.174   9.362 -1.1293 -2.3020 -0.9742
    4MOL0     H  484   4.247   9.097   9.390 -3.2454 -2.2040  0.6036
    4MOL0     H  485   4.359   9.262   9.242 -0.1930  0.0631 -2.1850
    4MOL0     H  486   4.203   9.324   9.182 -0.1501 -4.4459 -0.5168
    4MOL0     H  487   4.136   9.403   9.394 -1.3859  0.6007 -0.6173
    4MOL0     H  488   4.263   9.491   9.310 -0.5488 -0.1734  0.6691
    4MOL0     H  489   4.286   9.440   9.572  0.2678  1.3857 -1.6582
    4MOL0     H  490   4.338   9.278   9.519  1.4921 -0.4866 -0.6204
    4MOL0     H  491   4.531   9.420   9.695  3.9393 -4.0923 -0.1575
    4MOL0     H  492   4.710   9.697   9.680 -1.0649 -1.1656  1.0564
    4MOL0     H  493   4.741   9.542   9.735  2.7725 -3.1278 -0.6382
    4MOL0     H  494   4.891   9.655   9.495 -0.0328  0.2627  0.6731
    4MOL0     H  495   4.936   9.668   9.666  0.4790  0.4926  0.0057
    4MOL0     H  496   4.926   9.406   9.506  1.7356  1.6434 -1.3528
    4MOL0     H  497   4.896   9.410   9.688  1.0253 -2.3310  0.1594
    4MOL0     H  498   5.109   9.521   9.714 -0.7215  0.6984  0.8124
    4MOL0     H  499   5.138   9.525   9.537 -1.3151  1.0496 -0.1274
    4MOL0     H  500   5.331   9.515   9.687 -2.5790 -1.2392  1.6045
    4MOL0     H  501   5.541   9.469   9.799  1.6540  0.1503 -2.4164
    4MOL0     H  502   5.880   9.511   9.892  1.7440  1.4190  1.3519
    4MOL0     H  503   6.098   9.542  10.019 -2.2438  1.4604  0.9038
    4MOL0     H  504   6.299   9.247   9.976  1.3277  1.7388 -1.2952
    4MOL0     H  505   6.401   9.377  10.033  1.2306 -0.3684  0.2699
    4MOL0     H  506   6.473   9.250  10.233  4.0489 -1.5764 -0.4200
    4MOL0     H  507   6.373   9.114  10.176 -0.5687 -0.7845 -0.4191
    4MOL0     H  508   6.605   9.264  10.024 -0.9219 -1.4419 -3.5202
    4MOL0     H  509   6.630   9.115  10.123  0.8297  1.0736  0.3782
    4MOL0     H  510   6.652   9.068   9.904 -0.0378  0.5174  1.8014
    4MOL0     H  511   6.485   9.122   9.861  0.7040  2.4200 -0.3395
    4MOL0     H  512   6.398   8.961  10.023 -0.8576 -0.1027 -1.1362
    4MOL0     H  513   6.563   8.885  10.036  1.5092  0.9091 -0.2342
    4MOL0     H  514   6.425   8.757   9.868  0.0689 -1.2419 -1.8136
    4MOL0     H  515   6.370   8.907   9.795  0.5335 -2.1522 -1.6769
    4MOL0     H  516   6.669   8.850   9.805  0.5849  0.2688 -0.6470
    4MOL0     H  517   6.564   8.938   9.685  3.7600  0.6767  0.9124
    4MOL0     H  518   6.489   8.719   9.600 -0.1690  0.0610  1.2686
    4MOL0     H  519   6.667   8.724   9.597  1.6718 -2.7021  1.6302
    4MOL0     H  520   6.052   9.141  10.172  2.7846  3.9180  3.6798
    4MOL0     H  521   5.848   9.109  10.047  1.4975 -0.3480  3.9124
    4MOL0     H  522   5.505   9.067   9.688  1.4798  0.3076  2.0530
    4MOL0     H  523   5.279   9.120   9.582 -1.1024 -2.5578  3.0658
    4MOL0     H  524   3.751   8.792   9.356  3.2967 -0.8174 -3.5126
    4MOL0     H  525   3.552   8.847   9.470  0.9457 -0.2956 -1.9315
    4MOL0     H  526   3.253   9.233   9.489 -0.5748  0.7258  1.0110
    4MOL0     H  527   3.070   9.326   9.628  3.2490  0.6684  0.5115
    4MOL0     H  528   2.871   9.382   9.646 -1.8672  2.1540  0.3586
    4MOL0     H  529   2.913   9.362   9.815 -0.1100 -1.6857  0.6210
    4MOL0     H  530   2.626   9.347   9.696 -1.0358  2.2994  0.6313
    4MOL0     H  531   2.691   9.476   9.787  0.2586 -0.3156  1.2345
    4MOL0     H  532   2.706   9.357   9.986  0.6678  0.1609 -0.6479
    4MOL0     H  533   2.684   9.201   9.909  1.3118 -0.0540 -1.9579
    4MOL0     H  534   2.475   9.431   9.911 -0.5457  0.1204 -3.7553
    4MOL0     H  535   2.448   9.272   9.842 -3.8673  2.1204  1.5064
    4MOL0     H  536   2.383   9.206  10.261  0.9612 -1.2196 -0.1744
    4MOL0     H  537   2.883   8.952   9.646 -2.9535  1.0362 -3.6744
    4MOL0     H  538   3.139   8.770   9.527 -0.7657  0.6263  0.7276
    4MOL0     H  539   2.961   8.766   9.532 -0.5628  0.1844  0.6664
    4MOL0     H  540   3.043   8.805   9.375 -2.4640 -0.7023 -0.0966
    5MOL0     O  541   6.774  10.545   4.301 -0.6735 -0.3141 -0.3648
    5MOL0     C  542   6.659  10.531   4.254  0.6834  0.8785 -0.3167
    5MOL0     O  543   6.593  10.618   4.175 -0.1731  0.2652  0.7447
    5MOL0     C  544   6.662  10.730   4.134  0.8649 -0.9481  0.3795
    5MOL0     C  545   6.699  10.741   3.998  0.1133 -0.8700  0.9219
    5MOL0     C  546   6.791  10.844   3.966 -0.6450  0.1175 -0.9621
    5MOL0     C  547   6.830  10.943   4.058 -0.6898  1.1109 -0.5840
    5MOL0     O  548   6.903  11.056   4.018 -0.0083  0.7362  0.1881
    5MOL0     C  549   7.004  11.105   4.112 -0.1905  0.1863  0.2115
    5MOL0     C  550   7.108  11.179   4.034  0.4502 -0.0134 -1.3325
    5MOL0     C  551   7.174  11.291   4.105 -0.2436 -0.6740 -0.9163
    5MOL0     C  552   7.315  11.331   4.053 -0.2622  0.1438 -0.6015
    5MOL0     C  553   7.417  11.218   4.054 -0.1757 -0.6919  0.1927
    5MOL0     C  554   7.552  11.285   4.058 -0.3854  0.9750 -0.3496
    5MOL0     C  555   7.664  11.181   4.048  0.2025  0.1600 -0.8544
    5MOL0     C  556   7.636  11.080   3.941  0.3407 -0.0482  0.5085
    5MOL0     N  557   7.743  10.984   3.952 -0.2949  0.4279 -0.8992
    5MOL0     C  558   7.861  10.991   3.883 -0.6924  0.1475 -0.4619
    5MOL0     C  559   7.940  10.898   3.931  0.3434 -0.3302 -0.5886
    5MOL0     C  560   8.084  10.868   3.894 -0.0537 -0.4105  0.0063
    5MOL0     C  561   8.172  10.912   4.010  0.1219  0.7285 -0.6200
    5MOL0     C  562   8.322  10.921   3.981  0.3504 -0.5113  0.5044
    5MOL0     C  563   8.405  10.973   4.106 -0.8083 -0.1237  0.0949
    5MOL0     O  564   8.545  10.957   4.060 -0.1421 -0.0791 -0.2192
    5MOL0     C  565   8.603  10.833   4.040  0.9364 -0.1263  0.2696
    5MOL0     C  566   8.557  10.718   4.107  1.7146 -0.2368  0.0526
    5MOL0     C  567   8.630  10.596   4.088  0.5516  0.0822 -0.8243
    5MOL0     C  568   8.747  10.587   4.011 -0.1200  0.1607  0.0538
    5MOL0     C  569   8.827  10.466   3.999 -0.1578 -0.1464 -0.0172
    5MOL0     O  570   8.952  10.487   3.956 -0.2360  0.1470 -0.4130
    5MOL0     C  571   9.020  10.368   3.925 -0.3874  1.1427 -0.1419
    5MOL0     C  572   8.977  10.273   3.827  0.7159 -0.3708  0.1957
    5MOL0     C  573   9.065  10.170   3.802  0.3872 -0.4584  0.6272
    5MOL0     C  574   9.194  10.159   3.861  1.2481  0.2001  0.2303
    5MOL0     O  575   9.264  10.045   3.841  0.5318 -0.0627 -0.4353
    5MOL0     C  576   9.381  10.060   3.765 -0.1369 -0.2492  0.9362
    5MOL0     C  577   9.442   9.918   3.750 -0.3033  0.3686 -0.6756
    5MOL0     C  578   9.518   9.846   3.868  0.2190 -0.5352 -0.2563
    5MOL0     C  579   9.620   9.943   3.931  0.2571 -0.2611  0.5461
    5MOL0     C  580   9.707   9.876   4.032 -0.0140  0.4359 -0.9552
    5MOL0     C  581   9.809   9.774   3.965  0.8898  0.4852  0.1914
    5MOL0     C  582   9.829   9.647   4.051  0.0931  0.2522  0.7895
    5MOL0     C  583   9.957   9.565   4.015  0.8818  0.4713  0.7283
    5MOL0    Cl  584  10.105   9.667   4.022  0.0330  0.0974 -0.1388
    5MOL0     C  585   9.237  10.248   3.959  0.0350  0.4018  0.1633
    5MOL0     C  586   9.147  10.355   3.993  0.4031  0.4860  0.5177
    5MOL0     O  587   8.765  10.357   4.006  0.6156 -0.2203 -0.1885
    5MOL0     C  588   8.795  10.706   3.952  0.1493  0.4034 -0.3342
    5MOL0     C  589   8.726  10.824   3.962 -1.0695  0.3253 -0.2458
    5MOL0     N  590   7.861  10.828   4.029 -0.5361 -0.2393 -0.0019
    5MOL0     N  591   7.749  10.894   4.047 -0.1170  0.1550 -0.1682
    5MOL0     C  592   6.782  10.942   4.190 -0.1522  0.1594  0.3853
    5MOL0     C  593   6.697  10.832   4.229  0.2491 -0.0751  0.3594
    5MOL0     C  594   6.581  10.404   4.282 -0.2488 -0.2138 -0.2792
    5MOL0     C  595   6.442  10.415   4.270 -0.3703  0.0069 -0.1690
    5MOL0     C  596   6.358  10.308   4.301  0.7363 -0.0728 -0.6646
    5MOL0     C  597   6.414  10.182   4.339  0.4216 -0.7052  0.1569
    5MOL0     O  598   6.340  10.064   4.357 -0.4939 -0.8403  0.2660
    5MOL0     C  599   6.210  10.057   4.303 -0.2384 -0.0468 -0.4734
    5MOL0     C  600   6.201  10.064   4.146  0.1049 -0.7271  0.7646
    5MOL0     C  601   6.085  10.005   4.080  0.1217  0.1665  0.6632
    5MOL0     C  602   5.955  10.025   4.148 -0.4403  0.0627 -0.2599
    5MOL0     C  603   5.835  10.010   4.058 -0.1377 -0.7677  0.1451
    5MOL0     C  604   5.733   9.988   3.994 -0.0637 -0.0659  0.0624
    5MOL0     C  605   6.547  10.164   4.339 -0.6721 -0.7746 -0.3335
    5MOL0     C  606   6.630  10.273   4.317 -0.3452 -0.3481 -0.4207
    5MOL0     C  607   6.780  10.242   4.316  0.4825  1.4637 -0.1077
    5MOL0     H  608   6.660  10.678   3.919 -1.1969  2.7268 -1.5257
    5MOL0     H  609   6.831  10.850   3.865 -1.0550 -2.3464 -1.3205
    5MOL0     H  610   6.947  11.168   4.181 -1.0526  0.0504 -0.3535
    5MOL0     H  611   7.040  11.022   4.174 -0.0556 -1.5629 -2.0539
    5MOL0     H  612   7.074  11.222   3.939 -1.1607  3.6930  0.6768
    5MOL0     H  613   7.178  11.101   4.004  1.9457  0.6620  0.2174
    5MOL0     H  614   7.196  11.257   4.207 -2.2890  1.7953  0.4849
    5MOL0     H  615   7.102  11.374   4.108 -0.7978 -1.1540 -0.7563
    5MOL0     H  616   7.299  11.355   3.947 -2.6619  1.2733 -0.0382
    5MOL0     H  617   7.351  11.416   4.111 -1.8920 -0.5813  1.6359
    5MOL0     H  618   7.403  11.156   4.144  2.6275 -2.0184 -0.1806
    5MOL0     H  619   7.394  11.154   3.968 -1.7208  1.0547 -0.7540
    5MOL0     H  620   7.548  11.348   3.969 -0.7331 -1.2871 -2.0451
    5MOL0     H  621   7.571  11.344   4.148 -1.5067 -1.5179  1.6503
    5MOL0     H  622   7.697  11.140   4.144  1.2592 -1.5730 -1.8992
    5MOL0     H  623   7.753  11.240   4.027  0.2952  1.1705  1.8838
    5MOL0     H  624   7.547  11.020   3.958 -1.7890  1.4775 -3.7338
    5MOL0     H  625   7.646  11.124   3.842  2.4222 -0.6681  0.3915
    5MOL0     H  626   7.862  11.059   3.798  1.3168 -0.0638 -0.6619
    5MOL0     H  627   8.097  10.763   3.869  0.6876  0.1059 -2.0013
    5MOL0     H  628   8.112  10.922   3.803 -0.0573 -1.3258 -0.5415
    5MOL0     H  629   8.138  11.006   4.055  0.0506 -0.5268  2.1567
    5MOL0     H  630   8.148  10.850   4.097  1.9669  1.7630  0.6946
    5MOL0     H  631   8.336  10.991   3.899  1.7621 -1.2606  0.0576
    5MOL0     H  632   8.361  10.823   3.950  0.9617 -0.0623 -0.1661
    5MOL0     H  633   8.369  10.919   4.194 -0.0409  0.4055  0.7490
    5MOL0     H  634   8.378  11.077   4.123 -1.6212 -0.4556  0.9230
    5MOL0     H  635   8.471  10.727   4.173  0.4226  0.3295 -1.6400
    5MOL0     H  636   8.597  10.507   4.142  1.6560 -1.0503 -1.9606
    5MOL0     H  637   8.883  10.284   3.773  1.7940  2.2791 -1.3335
    5MOL0     H  638   9.044  10.091   3.731  0.1677  0.1194  0.0408
    5MOL0     H  639   9.344  10.097   3.669 -1.4426  1.9646  2.2280
    5MOL0     H  640   9.455  10.129   3.805  1.0965 -0.2632 -1.1783
    5MOL0     H  641   9.365   9.854   3.707  0.3146 -0.3988 -0.6531
    5MOL0     H  642   9.518   9.928   3.673 -1.1325  0.9017 -1.4456
    5MOL0     H  643   9.444   9.823   3.946 -0.2644  3.9944  0.9675
    5MOL0     H  644   9.569   9.759   3.827 -0.2003  0.5497 -3.4009
    5MOL0     H  645   9.564  10.023   3.978 -2.3730 -1.0189 -1.0969
    5MOL0     H  646   9.679   9.988   3.851 -1.4526  1.2548  0.0790
    5MOL0     H  647   9.641   9.832   4.107  3.0412 -0.4276  1.3929
    5MOL0     H  648   9.765   9.953   4.085  3.0338 -1.2352 -1.6232
    5MOL0     H  649   9.769   9.747   3.867 -1.4041  1.9283  0.6598
    5MOL0     H  650   9.903   9.824   3.938  1.5689 -1.7295 -1.9858
    5MOL0     H  651   9.746   9.577   4.044  0.8781 -0.6106 -0.1580
    5MOL0     H  652   9.819   9.677   4.156 -0.4118  1.7393  0.3454
    5MOL0     H  653   9.944   9.477   4.079 -0.5160  0.3428  0.3160
    5MOL0     H  654   9.952   9.532   3.910  0.2208 -1.1420  1.2315
    5MOL0     H  655   9.336  10.238   4.002  1.4238  0.8537 -2.6705
    5MOL0     H  656   9.179  10.430   4.065  1.7001  1.9592 -1.4627
    5MOL0     H  657   8.887  10.702   3.894 -0.1217  0.7719 -0.7961
    5MOL0     H  658   8.764  10.920   3.928 -0.5364  1.4565  3.1377
    5MOL0     H  659   6.817  11.014   4.264  1.6601 -0.2138 -0.0623
    5MOL0     H  660   6.677  10.814   4.334  3.2482  0.6728  1.1422
    5MOL0     H  661   6.398  10.511   4.245  1.1940  0.7295 -0.2378
    5MOL0     H  662   6.250  10.317   4.298  0.6135 -0.4959  1.1856
    5MOL0     H  663   6.136  10.128   4.341 -2.2347 -1.4077 -1.6584
    5MOL0     H  664   6.179   9.960   4.343 -2.1860  1.4247  1.8912
    5MOL0     H  665   6.290  10.023   4.097  0.4839  2.4787 -1.5533
    5MOL0     H  666   6.191  10.172   4.130  0.5396 -0.9239 -0.9978
    5MOL0     H  667   6.106   9.899   4.062 -1.0159  0.0177  0.1278
    5MOL0     H  668   6.079  10.038   3.975  4.1149 -2.7813 -0.7654
    5MOL0     H  669   5.932   9.961   4.233 -0.6004 -1.2811 -1.2949
    5MOL0     H  670   5.956  10.130   4.179  0.3433  0.5887 -1.9650
    5MOL0     H  671   5.637   9.990   3.947  0.9807  3.3779 -2.2956
    5MOL0     H  672   6.595  10.067   4.341 -0.9896 -0.9255  0.1955
    5MOL0     H  673   6.797  10.166   4.239 -1.1418 -0.4708  1.3418
    5MOL0     H  674   6.847  10.326   4.293  4.2766 -1.5999 -1.4640
    5MOL0     H  675   6.807  10.200   4.413  0.2245 -1.0515 -1.0533
    6MOL0     O  676   8.469   9.345  10.277  0.2834  0.3230 -0.5049
    6MOL0     C  677   8.511   9.256  10.351 -0.3300  0.3090 -0.2959
    6MOL0     O  678   8.636   9.245  10.405  0.5447 -0.8279  0.2219
    6MOL0     C  679   8.731   9.336  10.368  0.3217 -0.5390 -0.7606
    6MOL0     C  680   8.711   9.476  10.375  0.2166  0.5981  0.6325
    6MOL0     C  681   8.821   9.567  10.358 -0.0857  0.8442 -0.6820
    6MOL0     C  682   8.945   9.515  10.320  0.2983  0.4280  0.1851
    6MOL0     O  683   9.057   9.594  10.311  0.1905  0.1441  0.5100
    6MOL0     C  684   9.053   9.710  10.228  0.3482 -0.5856 -0.1426
    6MOL0     C  685   9.046   9.840  10.317 -0.0158  0.0611  0.5688
    6MOL0     C  686   9.185   9.847  10.393  0.0785  0.6972  0.5700
    6MOL0     C  687   9.207   9.979  10.458 -0.3238 -0.2843 -0.7290
    6MOL0     C  688   9.322   9.978  10.551  0.7362  0.0732  0.0586
    6MOL0     C  689   9.335  10.108  10.641  0.2807 -0.3617  0.4221
    6MOL0     C  690   9.440  10.090  10.763 -0.5726 -0.5695 -1.3482
    6MOL0     C  691   9.523   9.970  10.771  0.0183 -0.1167  0.7100
    6MOL0     N  692   9.620   9.973  10.874 -0.4789  0.4529  0.7968
    6MOL0     C  693   9.576   9.951  11.000  0.4046  0.3861 -0.5781
    6MOL0     C  694   9.688   9.936  11.077 -0.4265 -0.0256 -0.0856
    6MOL0     C  695   9.719   9.913  11.216 -0.1650  0.1103 -0.8403
    6MOL0     C  696   9.837  10.005  11.273  0.4964 -0.0443  0.5987
    6MOL0     C  697   9.896   9.959  11.409  0.0786 -0.2859 -0.2677
    6MOL0     C  698  10.001  10.056  11.462 -0.3819 -0.3024  0.5712
    6MOL0     O  699  10.133  10.014  11.413 -0.3232 -0.1029  0.1294
    6MOL0     C  700  10.212   9.954  11.506  0.0376  0.1339 -0.2163
    6MOL0     C  701  10.231   9.818  11.483  0.4319 -0.4486  0.2488
    6MOL0     C  702  10.305   9.741  11.580  0.1581  0.3495 -0.5385
    6MOL0     C  703  10.369   9.808  11.689 -0.9691  0.9856  0.7020
    6MOL0     C  704  10.456   9.730  11.787  0.7266 -0.2548  0.1541
    6MOL0     O  705  10.437   9.595  11.803  0.0769 -1.1566 -0.6123
    6MOL0     C  706  10.498   9.538  11.915 -0.8074 -0.9195  0.3987
    6MOL0     C  707  10.641   9.538  11.930  1.1837  0.0864 -0.4604
    6MOL0     C  708  10.692   9.460  12.036  0.4307  0.6801  0.2037
    6MOL0     C  709  10.609   9.381  12.122 -0.2148  0.3296 -0.2030
    6MOL0     O  710  10.665   9.320  12.236  0.2581  0.6837  0.1494
    6MOL0     C  711  10.804   9.330  12.283 -0.9004  0.1998  0.1629
    6MOL0     C  712  10.903   9.238  12.208 -0.6388 -0.7732 -0.1700
    6MOL0     C  713  11.047   9.284  12.217 -0.3861 -0.3577  0.5415
    6MOL0     C  714  11.154   9.177  12.190 -0.0347 -0.2484  0.2481
    6MOL0     C  715  11.304   9.229  12.219  0.3695 -0.2465  0.1087
    6MOL0     C  716  11.417   9.117  12.203  0.3326 -0.2485 -0.3760
    6MOL0     C  717  11.561   9.162  12.211 -0.5349  0.2906 -1.0663
    6MOL0     C  718  11.653   9.032  12.190 -0.3871 -0.7687 -0.3638
    6MOL0    Cl  719  11.672   8.996  12.012 -0.4899  0.2752 -0.1328
    6MOL0     C  720  10.472   9.370  12.101 -0.4206 -0.7442 -0.2343
    6MOL0     C  721  10.419   9.452  11.997  0.2273  0.2390 -0.4284
    6MOL0     O  722  10.538   9.802  11.849 -0.0143  0.0315 -0.1810
    6MOL0     C  723  10.345   9.943  11.712 -0.2270  0.4393 -0.0263
    6MOL0     C  724  10.267  10.016  11.624  0.0892  0.3368  0.1767
    6MOL0     N  725   9.800   9.951  10.982  0.6724 -0.3524 -0.0614
    6MOL0     N  726   9.756   9.976  10.861  0.2902  0.5059 -0.1648
    6MOL0     C  727   8.955   9.381  10.306 -0.1888  0.1444 -0.6423
    6MOL0     C  728   8.854   9.293  10.323  0.3796  0.4672 -0.6591
    6MOL0     C  729   8.424   9.139  10.384  0.4986  0.0345 -0.1964
    6MOL0     C  730   8.470   9.007  10.373  0.4120  0.5489  0.4736
    6MOL0     C  731   8.381   8.902  10.396 -0.0199  0.7500 -0.2837
    6MOL0     C  732   8.251   8.922  10.429  0.1219 -0.0630 -0.4994
    6MOL0     O  733   8.161   8.821  10.448  0.1793  0.2992  0.1658
    6MOL0     C  734   8.045   8.823  10.355  0.2139  0.1887  0.7038
    6MOL0     C  735   7.961   8.702  10.375  0.9407 -0.2868  0.7932
    6MOL0     C  736   8.034   8.569  10.339  0.9337 -1.0456 -0.2563
    6MOL0     C  737   7.945   8.446  10.374 -0.0535 -0.4624  0.4955
    6MOL0     C  738   7.832   8.444  10.279 -0.8737  0.1917  0.7327
    6MOL0     C  739   7.734   8.439  10.215 -0.3839 -0.1197 -0.4080
    6MOL0     C  740   8.211   9.052  10.450 -0.2954  0.0156 -0.0327
    6MOL0     C  741   8.294   9.162  10.425  0.4908  0.2114 -0.6671
    6MOL0     C  742   8.224   9.291  10.426  0.0310 -0.3642  0.3188
    6MOL0     H  743   8.617   9.516  10.413  0.5257  0.4734  1.5717
    6MOL0     H  744   8.800   9.673  10.356 -0.8604  0.6962 -2.6787
    6MOL0     H  745   9.139   9.712  10.161 -1.0426  1.7492 -2.0087
    6MOL0     H  746   8.956   9.726  10.180 -0.1000 -0.7393  0.6884
    6MOL0     H  747   8.970   9.826  10.394 -0.7155 -2.4328 -0.4697
    6MOL0     H  748   9.029   9.934  10.265 -2.4826 -0.5700  0.1477
    6MOL0     H  749   9.264   9.819  10.322 -0.1973 -4.1501  1.8691
    6MOL0     H  750   9.191   9.771  10.471  1.4986  1.1038  0.8891
    6MOL0     H  751   9.207  10.062  10.386  0.2619 -0.4882 -0.9724
    6MOL0     H  752   9.112   9.997  10.510 -0.3784  3.5701 -1.8827
    6MOL0     H  753   9.312   9.896  10.622  1.9347  0.1474  0.3211
    6MOL0     H  754   9.414   9.968  10.492  1.9003 -3.6182  2.1925
    6MOL0     H  755   9.365  10.180  10.565 -1.1676 -1.1592 -0.9751
    6MOL0     H  756   9.237  10.137  10.680 -0.8756  0.0437 -2.5440
    6MOL0     H  757   9.389  10.113  10.857  0.2379  0.7525 -1.2047
    6MOL0     H  758   9.521  10.163  10.755  1.3422 -2.6018 -1.6441
    6MOL0     H  759   9.459   9.884  10.793  0.0797 -0.6098 -0.8773
    6MOL0     H  760   9.569   9.961  10.672 -0.0904  0.5388  0.5921
    6MOL0     H  761   9.474   9.951  11.037  0.8165  2.5816  0.7533
    6MOL0     H  762   9.638   9.910  11.290  0.3878 -1.3176 -0.2470
    6MOL0     H  763   9.769   9.816  11.229  2.2559  1.4247  0.3847
    6MOL0     H  764   9.918   9.999  11.200  0.0166  2.4226 -0.2473
    6MOL0     H  765   9.804  10.109  11.269  1.4163  0.2894 -3.8909
    6MOL0     H  766   9.926   9.854  11.406 -2.0784 -1.1157  2.5289
    6MOL0     H  767   9.821   9.966  11.488 -0.2323 -3.5200 -0.1652
    6MOL0     H  768   9.999  10.050  11.572 -0.6540  1.6810  0.7004
    6MOL0     H  769   9.986  10.158  11.428 -0.5793 -0.7593 -0.7390
    6MOL0     H  770  10.176   9.778  11.398  1.4570 -0.7342 -0.3064
    6MOL0     H  771  10.323   9.635  11.567  0.3237  0.2430  0.4841
    6MOL0     H  772  10.711   9.600  11.875  2.6567  2.6049  3.7814
    6MOL0     H  773  10.800   9.460  12.054  0.5835 -1.3961 -0.4989
    6MOL0     H  774  10.835   9.434  12.272 -0.9793  0.3364  1.1556
    6MOL0     H  775  10.806   9.323  12.392  0.5413  0.6390  0.1815
    6MOL0     H  776  10.898   9.134  12.241  0.1114 -1.2862 -1.6223
    6MOL0     H  777  10.864   9.244  12.106 -1.3887 -0.0113  0.1493
    6MOL0     H  778  11.063   9.356  12.135 -0.2797 -0.2507  0.6564
    6MOL0     H  779  11.065   9.321  12.318 -1.8408 -1.0720  1.0859
    6MOL0     H  780  11.139   9.136  12.089  0.2340 -0.5918  0.3456
    6MOL0     H  781  11.142   9.093  12.259 -2.2936  0.0609  0.3264
    6MOL0     H  782  11.308   9.258  12.324  1.6754 -2.0219  0.6054
    6MOL0     H  783  11.331   9.316  12.159  5.3380 -1.2455  0.4807
    6MOL0     H  784  11.399   9.053  12.290 -2.1705 -1.0178 -1.3774
    6MOL0     H  785  11.410   9.060  12.111  1.2847  1.2168 -1.4006
    6MOL0     H  786  11.582   9.210  12.307 -1.4706 -2.2424  0.4989
    6MOL0     H  787  11.587   9.230  12.130 -0.2873 -0.5449 -1.7046
    6MOL0     H  788  11.754   9.054  12.227 -0.7173  3.7009 -1.4681
    6MOL0     H  789  11.616   8.940  12.236  0.2451 -0.2210  1.3098
    6MOL0     H  790  10.397   9.315  12.156 -3.6073  1.1496 -2.3243
    6MOL0     H  791  10.315   9.444  11.966 -1.0114  0.4891  3.2386
    6MOL0     H  792  10.388   9.995  11.797 -0.1857  1.4148 -0.6248
    6MOL0     H  793  10.262  10.124  11.630 -1.5561  0.3599 -1.0629
    6MOL0     H  794   9.052   9.345  10.276  2.2058  1.9892  3.8722
    6MOL0     H  795   8.866   9.185  10.326 -1.2259  0.2928  1.0183
    6MOL0     H  796   8.569   8.979  10.337 -0.1234  0.1819 -0.7579
    6MOL0     H  797   8.402   8.797  10.378  0.6431  0.3946  2.2051
    6MOL0     H  798   8.084   8.803  10.255  0.5643 -0.2796  0.9314
    6MOL0     H  799   7.990   8.917  10.347  1.1996  0.6320 -1.5529
    6MOL0     H  800   7.874   8.709  10.309  2.2252  2.1519 -0.7757
    6MOL0     H  801   7.929   8.689  10.479 -0.9644 -2.1547  0.0432
    6MOL0     H  802   8.121   8.556  10.404 -0.1135  0.5973  1.5933
    6MOL0     H  803   8.063   8.582  10.234  4.0013  2.5254  0.7965
    6MOL0     H  804   8.001   8.353  10.366  0.7832  0.0969 -0.3760
    6MOL0     H  805   7.900   8.441  10.474 -2.8165 -0.4387 -0.6615
    6MOL0     H  806   7.639   8.451  10.166 -0.8168 -0.9680  0.1912
    6MOL0     H  807   8.106   9.056  10.476  0.4035  0.2608  3.1783
    6MOL0     H  808   8.260   9.358  10.505 -0.6256 -0.2023  0.4895
    6MOL0     H  809   8.244   9.343  10.332 -1.6967  0.9866  0.6350
    6MOL0     H  810   8.115   9.289  10.426  0.0242 -0.0233  0.0193
    7MOL0     O  811   7.422   4.580   2.193  0.8775 -0.7082  0.3203
    7MOL0     C  812   7.476   4.496   2.124 -0.3042 -0.1461  0.0295
    7MOL0     O  813   7.402   4.403   2.045 -0.4798  0.1517  0.8950
    7MOL0     C  814   7.265   4.410   2.027 -0.6702  0.2279  0.7353
    7MOL0     C  815   7.208   4.367   1.907 -0.1078 -0.6604 -0.6293
    7MOL0     C  816   7.074   4.371   1.873  0.7611  0.5373 -0.0364
    7MOL0     C  817   6.987   4.400   1.977  0.6162 -0.7968 -0.0751
    7MOL0     O  818   6.855   4.392   1.950 -0.3543  0.2372 -0.1228
    7MOL0     C  819   6.796   4.287   2.029  0.6224  0.0156 -0.9299
    7MOL0     C  820   6.695   4.343   2.133 -0.4209 -0.0220  0.5676
    7MOL0     C  821   6.572   4.402   2.064  0.6966 -0.2160 -0.0807
    7MOL0     C  822   6.459   4.380   2.166  0.4284  0.0602 -0.4802
    7MOL0     C  823   6.318   4.396   2.117 -0.3545  0.5595  0.2126
    7MOL0     C  824   6.280   4.542   2.108  0.7303 -0.2325  1.0513
    7MOL0     C  825   6.131   4.550   2.092  0.1165  0.2589 -0.4649
    7MOL0     C  826   6.083   4.695   2.085  0.2994 -0.0683  0.5961
    7MOL0     N  827   5.935   4.699   2.072  0.1177 -0.0278  0.1787
    7MOL0     C  828   5.848   4.644   2.162 -0.7617 -0.7139  0.7951
    7MOL0     C  829   5.732   4.629   2.086  0.3758  0.8156  0.5523
    7MOL0     C  830   5.599   4.570   2.136  0.3624  0.7452 -0.2412
    7MOL0     C  831   5.609   4.464   2.245 -1.0767 -0.4433  0.3249
    7MOL0     C  832   5.549   4.503   2.387  0.6831 -1.1159  0.0518
    7MOL0     C  833   5.629   4.442   2.503  0.0812 -0.3920  0.2207
    7MOL0     O  834   5.767   4.470   2.484  0.2814  0.1624 -0.4765
    7MOL0     C  835   5.829   4.584   2.535  0.4320  0.0002  0.2094
    7MOL0     C  836   5.772   4.675   2.629  0.9056  0.1098 -0.2578
    7MOL0     C  837   5.849   4.775   2.677  0.3994  0.1570 -0.2923
    7MOL0     C  838   5.977   4.797   2.637  0.2228  0.0014 -0.0253
    7MOL0     C  839   6.075   4.903   2.680 -0.1030 -0.6043  0.0696
    7MOL0     O  840   6.211   4.894   2.650 -0.0546  0.0796 -0.9034
    7MOL0     C  841   6.301   4.996   2.670 -0.4284 -0.6819 -0.7362
    7MOL0     C  842   6.278   5.136   2.642 -0.0656 -0.9563 -0.3250
    7MOL0     C  843   6.363   5.238   2.683 -0.4648  0.1286 -0.0266
    7MOL0     C  844   6.475   5.197   2.758 -0.2892 -0.0790 -0.2857
    7MOL0     O  845   6.572   5.286   2.802 -0.1580  0.2439  0.0001
    7MOL0     C  846   6.610   5.403   2.726 -0.3291  1.3116 -1.1171
    7MOL0     C  847   6.682   5.373   2.590  0.4126  0.2147 -0.7173
    7MOL0     C  848   6.818   5.308   2.600 -0.4387 -0.6867  0.9041
    7MOL0     C  849   6.868   5.253   2.474 -1.4204  0.0778 -0.2819
    7MOL0     C  850   7.008   5.193   2.499 -0.2536  0.0520  0.0521
    7MOL0     C  851   7.124   5.297   2.522 -0.2943  0.3459 -1.1880
    7MOL0     C  852   7.243   5.209   2.496 -0.0363 -0.2314  0.5783
    7MOL0     C  853   7.369   5.283   2.555  0.9969  1.0258  0.6708
    7MOL0    Cl  854   7.414   5.442   2.482  0.0438  0.2003 -0.1707
    7MOL0     C  855   6.510   5.065   2.788  0.0243 -0.3102 -0.4287
    7MOL0     C  856   6.424   4.965   2.738  0.7072 -0.3705 -0.1025
    7MOL0     O  857   6.026   4.987   2.749  0.5625 -0.5459  0.8600
    7MOL0     C  858   6.031   4.717   2.543  0.0255 -0.6408 -0.0391
    7MOL0     C  859   5.961   4.605   2.500 -0.0449  0.8575 -0.0661
    7MOL0     N  860   5.758   4.667   1.948  0.4359 -0.2833  0.2503
    7MOL0     N  861   5.881   4.710   1.948  0.3786  0.3376  0.8742
    7MOL0     C  862   7.043   4.427   2.097  0.2153  0.0115 -0.9596
    7MOL0     C  863   7.181   4.441   2.126  0.4738  0.4418 -0.3118
    7MOL0     C  864   7.628   4.481   2.124 -0.0404 -0.2432  0.0195
    7MOL0     C  865   7.678   4.372   2.055  0.3749  1.1856 -0.3368
    7MOL0     C  866   7.817   4.359   2.040 -0.1766  0.1832  0.0208
    7MOL0     C  867   7.909   4.451   2.101  0.1780  0.5145 -0.0728
    7MOL0     O  868   8.043   4.427   2.087  0.6877  0.2760 -0.7889
    7MOL0     C  869   8.147   4.504   2.151  1.5159  1.4624  0.0208
    7MOL0     C  870   8.199   4.449   2.287 -0.1481  0.4996 -0.1499
    7MOL0     C  871   8.331   4.373   2.274 -0.0555  0.1459 -0.9201
    7MOL0     C  872   8.403   4.341   2.407 -0.2062 -0.5731  0.3863
    7MOL0     C  873   8.320   4.255   2.493 -0.2586 -0.1837 -0.0878
    7MOL0     C  874   8.251   4.177   2.546  0.4340 -0.3761  0.4222
    7MOL0     C  875   7.854   4.556   2.166 -0.6060  0.3637 -0.2050
    7MOL0     C  876   7.718   4.583   2.181  0.6189  0.7454  0.1778
    7MOL0     C  877   7.675   4.702   2.253  0.2380 -0.0206  0.2619
    7MOL0     H  878   7.278   4.330   1.832 -1.2714 -1.3775 -1.4018
    7MOL0     H  879   7.041   4.338   1.775  2.1093  0.9131 -0.6446
    7MOL0     H  880   6.732   4.227   1.964 -2.4176 -0.2508  2.0266
    7MOL0     H  881   6.869   4.226   2.083 -2.1233 -0.9348  2.0162
    7MOL0     H  882   6.736   4.419   2.200 -2.1762  2.2577 -0.7647
    7MOL0     H  883   6.681   4.250   2.189  1.8877 -0.4016  0.5905
    7MOL0     H  884   6.556   4.351   1.969 -1.5113 -2.5488  1.3904
    7MOL0     H  885   6.585   4.508   2.042  2.6172 -0.6361 -1.1729
    7MOL0     H  886   6.468   4.278   2.205 -1.6149 -0.9874 -2.4775
    7MOL0     H  887   6.473   4.437   2.258 -2.9341 -0.4780  0.5299
    7MOL0     H  888   6.299   4.339   2.026  1.5836  1.3379 -0.7388
    7MOL0     H  889   6.274   4.348   2.205  2.5195 -0.5190  1.1854
    7MOL0     H  890   6.314   4.591   2.199  2.0264  1.3754 -0.2334
    7MOL0     H  891   6.323   4.583   2.016 -1.4413 -1.2485 -0.5087
    7MOL0     H  892   6.089   4.493   2.175 -1.3027  2.1602  0.1974
    7MOL0     H  893   6.098   4.505   1.998  1.8347  0.3333 -1.1372
    7MOL0     H  894   6.103   4.747   2.179 -5.3347  2.7828  0.6597
    7MOL0     H  895   6.138   4.757   2.014 -0.3138  2.7292  2.3822
    7MOL0     H  896   5.879   4.635   2.265 -1.5250 -1.9959  0.9373
    7MOL0     H  897   5.531   4.643   2.180  0.9370 -2.2603  7.0288
    7MOL0     H  898   5.539   4.532   2.052 -1.2167 -1.8257  1.8620
    7MOL0     H  899   5.557   4.378   2.201  0.4717 -0.1250 -2.3966
    7MOL0     H  900   5.712   4.429   2.259 -1.9234 -2.7410  1.3931
    7MOL0     H  901   5.445   4.472   2.378 -0.1019  1.3472 -0.1159
    7MOL0     H  902   5.542   4.610   2.409 -0.9432 -0.4143 -3.2697
    7MOL0     H  903   5.604   4.336   2.515  0.0144 -0.2374  1.6232
    7MOL0     H  904   5.590   4.482   2.597 -1.0009  1.4604 -0.9774
    7MOL0     H  905   5.678   4.646   2.676  1.3815 -1.7609 -0.3969
    7MOL0     H  906   5.824   4.845   2.756 -0.8631 -0.9762  0.3613
    7MOL0     H  907   6.186   5.159   2.589  0.9191  1.4391 -1.1171
    7MOL0     H  908   6.346   5.341   2.652 -0.8638 -0.4724 -1.9139
    7MOL0     H  909   6.525   5.468   2.707 -1.8372 -0.6980 -1.4992
    7MOL0     H  910   6.690   5.454   2.781  2.8001 -4.1453  0.0960
    7MOL0     H  911   6.608   5.312   2.536  1.9656 -0.4219 -2.1950
    7MOL0     H  912   6.700   5.466   2.536  0.4884  0.8891  0.4442
    7MOL0     H  913   6.885   5.368   2.662 -0.6508  2.1350 -1.3823
    7MOL0     H  914   6.818   5.212   2.653  4.6271 -1.6819 -0.3311
    7MOL0     H  915   6.870   5.327   2.393  0.5710 -0.5990 -0.9111
    7MOL0     H  916   6.805   5.169   2.444 -1.2105  0.7892 -3.0920
    7MOL0     H  917   7.037   5.142   2.407  2.7002  2.0008 -0.2296
    7MOL0     H  918   7.009   5.127   2.587  0.0740 -1.0437 -0.7514
    7MOL0     H  919   7.109   5.379   2.452 -1.8842 -0.3073 -1.6328
    7MOL0     H  920   7.118   5.339   2.623 -1.9114  1.6701 -1.7869
    7MOL0     H  921   7.248   5.174   2.393  0.6645  3.2623 -0.6899
    7MOL0     H  922   7.237   5.123   2.564  0.9863 -0.2254  0.6935
    7MOL0     H  923   7.349   5.288   2.663  0.4052 -1.1582  0.7272
    7MOL0     H  924   7.452   5.212   2.560  2.1722  2.4052  1.2072
    7MOL0     H  925   6.591   5.037   2.855 -0.3508 -1.1489 -0.3054
    7MOL0     H  926   6.438   4.860   2.761  2.2525  0.0545  1.0084
    7MOL0     H  927   6.128   4.738   2.501  0.8166 -0.9125  1.5954
    7MOL0     H  928   6.012   4.538   2.433  2.4386  1.0201  1.5272
    7MOL0     H  929   6.966   4.452   2.170 -1.5166  0.2213 -2.7701
    7MOL0     H  930   7.209   4.470   2.227 -1.5840 -0.0681  0.4618
    7MOL0     H  931   7.609   4.309   2.000 -2.6858  2.1418  2.1239
    7MOL0     H  932   7.862   4.291   1.969  1.0056  3.2545 -2.3896
    7MOL0     H  933   8.127   4.612   2.152  1.1389  1.4697  3.4860
    7MOL0     H  934   8.228   4.502   2.077  0.3014  0.0920 -1.3404
    7MOL0     H  935   8.127   4.386   2.339  0.3612 -0.3589 -0.4727
    7MOL0     H  936   8.221   4.541   2.343  1.9821 -1.1126  1.8327
    7MOL0     H  937   8.406   4.424   2.213  0.1406  2.2554  0.9501
    7MOL0     H  938   8.316   4.281   2.217  2.0104 -1.0886  0.4079
    7MOL0     H  939   8.498   4.292   2.384  1.6030  2.5717  0.6178
    7MOL0     H  940   8.430   4.431   2.464  0.1452 -0.6385  0.3252
    7MOL0     H  941   8.192   4.091   2.572 -0.2224 -0.7007 -1.9018
    7MOL0     H  942   7.929   4.623   2.206  0.2045 -1.6261  1.8852
    7MOL0     H  943   7.761   4.769   2.267  0.3402  0.5194 -2.4348
    7MOL0     H  944   7.601   4.760   2.198  1.8019 -0.7402 -2.8582
    7MOL0     H  945   7.639   4.679   2.354  3.9912 -2.8721  1.1892
    8MOL0     O  946   9.659   5.638   3.482  0.2547  0.4483 -0.4047
    8MOL0     C  947   9.609   5.546   3.420 -0.0812  0.0447  0.0468
    8MOL0     O  948   9.664   5.424   3.402 -0.0408  0.6299 -0.0343
    8MOL0     C  949   9.785   5.390   3.465  0.6418  0.4999  0.3075
    8MOL0     C  950   9.908   5.430   3.408  0.2090 -0.4181 -0.0810
    8MOL0     C  951  10.027   5.396   3.465 -0.2919  0.1739 -0.5252
    8MOL0     C  952  10.030   5.334   3.591 -0.5726 -0.0394  0.6390
    8MOL0     O  953  10.158   5.315   3.644  0.1824  0.6337  0.3488
    8MOL0     C  954  10.185   5.206   3.737 -0.8293 -0.9895 -0.5553
    8MOL0     C  955  10.325   5.233   3.796  0.0824  1.5431 -0.2994
    8MOL0     C  956  10.355   5.136   3.912 -0.0766 -0.2302 -0.8915
    8MOL0     C  957  10.277   5.170   4.039 -0.0516  0.0035  0.0367
    8MOL0     C  958  10.307   5.086   4.161 -0.9835 -0.0908  0.5329
    8MOL0     C  959  10.443   5.119   4.239  0.3840 -0.2829 -0.1112
    8MOL0     C  960  10.478   5.026   4.352  0.3580  0.4012 -1.1118
    8MOL0     C  961  10.426   4.884   4.352  0.4570  0.8581  0.1100
    8MOL0     N  962  10.471   4.799   4.467  0.1081 -0.2793 -0.0989
    8MOL0     C  963  10.602   4.792   4.506 -0.1561 -1.1297  0.5798
    8MOL0     C  964  10.600   4.720   4.623 -0.0208  0.1106 -0.4511
    8MOL0     C  965  10.727   4.697   4.721 -1.0820  0.3143  0.2531
    8MOL0     C  966  10.747   4.543   4.732  0.2746  0.5985 -0.4404
    8MOL0     C  967  10.891   4.504   4.736  0.2310 -0.9630 -0.2620
    8MOL0     C  968  10.963   4.524   4.868 -0.2838 -0.1239 -0.4477
    8MOL0     O  969  11.098   4.468   4.866  0.8416 -0.1128  0.0313
    8MOL0     C  970  11.184   4.488   4.973 -0.0021  0.1096  0.1780
    8MOL0     C  971  11.310   4.422   4.968 -0.0021  0.4301 -0.7314
    8MOL0     C  972  11.402   4.432   5.078 -0.2627  0.1685 -0.5463
    8MOL0     C  973  11.366   4.493   5.192 -0.2467  0.4268 -0.2270
    8MOL0     C  974  11.450   4.485   5.321 -0.5743  0.3393 -0.2736
    8MOL0     O  975  11.408   4.565   5.423 -0.5823  0.2159 -0.6011
    8MOL0     C  976  11.478   4.573   5.536 -0.1734 -1.1217  0.2653
    8MOL0     C  977  11.435   4.518   5.652  0.4261  0.3536 -0.3223
    8MOL0     C  978  11.509   4.527   5.768 -0.4177  0.3555 -0.4628
    8MOL0     C  979  11.626   4.605   5.770 -0.4871 -0.9550 -0.1973
    8MOL0     O  980  11.701   4.594   5.882 -0.5197  0.0719  0.7421
    8MOL0     C  981  11.825   4.673   5.895  0.0449  0.7701  0.9956
    8MOL0     C  982  11.900   4.655   6.026  0.5263  0.8963 -0.0641
    8MOL0     C  983  11.897   4.505   6.059 -0.5360 -0.7324  0.2625
    8MOL0     C  984  11.947   4.409   5.945  0.0777 -0.5864 -0.5650
    8MOL0     C  985  11.961   4.261   5.998  0.1903 -0.0176 -1.1335
    8MOL0     C  986  12.006   4.155   5.895  1.0053 -0.4746 -1.0851
    8MOL0     C  987  11.895   4.128   5.793  0.2945  0.4370  0.5348
    8MOL0     C  988  11.922   3.981   5.747 -0.7832  0.5581 -0.3416
    8MOL0    Cl  989  11.802   3.918   5.646  0.2409 -0.7783  0.0990
    8MOL0     C  990  11.665   4.672   5.655  0.5616  0.8810  0.0362
    8MOL0     C  991  11.591   4.650   5.535 -0.0739  0.3432 -0.5576
    8MOL0     O  992  11.541   4.402   5.322  1.0939 -0.9637  0.5588
    8MOL0     C  993  11.242   4.563   5.201 -0.2016 -0.2666 -0.4899
    8MOL0     C  994  11.160   4.564   5.084  0.0221 -0.8652 -0.3405
    8MOL0     N  995  10.474   4.681   4.648  0.0741 -0.1547  0.2682
    8MOL0     N  996  10.398   4.723   4.553 -0.6325 -0.6828 -0.2170
    8MOL0     C  997   9.907   5.299   3.655  0.3341  0.1319  0.2378
    8MOL0     C  998   9.786   5.326   3.594 -0.7471  0.0039 -0.0968
    8MOL0     C  999   9.480   5.571   3.346 -0.3067 -1.0514  0.4957
    8MOL0     C 1000   9.413   5.450   3.299  0.2028 -0.5647  0.4851
    8MOL0     C 1001   9.301   5.465   3.220 -0.4224  0.6393 -0.4384
    8MOL0     C 1002   9.251   5.596   3.188 -0.4470  0.4873  0.2177
    8MOL0     O 1003   9.144   5.623   3.105  0.7745  0.4121 -0.0095
    8MOL0     C 1004   9.055   5.510   3.078 -0.1618  0.1753  0.7077
    8MOL0     C 1005   8.942   5.561   2.998  0.1383  0.0096  0.7313
    8MOL0     C 1006   8.842   5.647   3.088 -0.3748 -0.3953  0.4023
    8MOL0     C 1007   8.761   5.579   3.202  0.1692 -0.7043  0.0129
    8MOL0     C 1008   8.676   5.475   3.135 -0.6779 -0.6699 -0.3595
    8MOL0     C 1009   8.603   5.382   3.101 -0.4361  0.1517 -0.2985
    8MOL0     C 1010   9.315   5.707   3.225 -0.4041 -0.2046  0.5571
    8MOL0     C 1011   9.430   5.698   3.305 -0.2408  0.0550 -0.6484
    8MOL0     C 1012   9.504   5.833   3.338  0.3807  0.1773  0.6519
    8MOL0     H 1013   9.910   5.474   3.309  1.9683 -0.8024 -0.2481
    8MOL0     H 1014  10.126   5.416   3.425  0.4857 -3.2976 -0.7008
    8MOL0     H 1015  10.108   5.214   3.814  0.8095 -1.8736  1.2711
    8MOL0     H 1016  10.174   5.108   3.689 -3.9885 -2.0877  2.0519
    8MOL0     H 1017  10.347   5.335   3.829  0.0014  1.2225  0.7780
    8MOL0     H 1018  10.389   5.196   3.716 -0.2265 -1.7157  0.7867
    8MOL0     H 1019  10.460   5.139   3.943 -0.3169  1.8331 -0.0965
    8MOL0     H 1020  10.328   5.032   3.889  0.4287 -0.1737 -1.7948
    8MOL0     H 1021  10.297   5.275   4.062  0.8261 -0.6276  2.5396
    8MOL0     H 1022  10.169   5.166   4.021 -0.2805 -2.3928  1.4667
    8MOL0     H 1023  10.228   5.096   4.236  0.5170 -0.6119  2.2683
    8MOL0     H 1024  10.303   4.981   4.132  4.0262  0.0549 -1.7158
    8MOL0     H 1025  10.520   5.127   4.162 -0.6897  1.7171 -1.0440
    8MOL0     H 1026  10.429   5.218   4.286 -0.2177  0.2259 -1.3308
    8MOL0     H 1027  10.432   5.073   4.440  1.7589  1.3403 -0.8376
    8MOL0     H 1028  10.585   5.035   4.371  0.4780  0.6368 -1.8953
    8MOL0     H 1029  10.316   4.886   4.359  0.3410 -1.5376 -0.4401
    8MOL0     H 1030  10.459   4.837   4.260 -1.2193  1.1080 -0.6590
    8MOL0     H 1031  10.688   4.832   4.452 -1.9328  0.0362 -1.5440
    8MOL0     H 1032  10.814   4.742   4.672  0.0089 -1.1948  0.7371
    8MOL0     H 1033  10.707   4.745   4.817 -1.5688  1.3798 -0.3652
    8MOL0     H 1034  10.695   4.492   4.814 -0.9420 -0.4942 -1.8478
    8MOL0     H 1035  10.705   4.502   4.640 -1.5072  1.2837  0.0414
    8MOL0     H 1036  10.935   4.566   4.657 -1.8017 -0.1294 -0.8108
    8MOL0     H 1037  10.904   4.398   4.713  1.2548 -0.8168 -0.4160
    8MOL0     H 1038  10.909   4.473   4.949 -0.0803 -1.9378 -1.3872
    8MOL0     H 1039  10.956   4.632   4.883 -2.4962 -0.0102 -1.8469
    8MOL0     H 1040  11.337   4.373   4.875 -1.3220 -0.8292 -0.4936
    8MOL0     H 1041  11.497   4.380   5.066 -0.4051  0.1787 -1.8937
    8MOL0     H 1042  11.340   4.465   5.657 -0.1369  1.3965  0.2862
    8MOL0     H 1043  11.487   4.465   5.855 -1.5802  0.1236 -0.9011
    8MOL0     H 1044  11.891   4.662   5.809 -0.5048  0.9900  0.5423
    8MOL0     H 1045  11.803   4.780   5.889  3.1447  1.4132 -1.2637
    8MOL0     H 1046  12.005   4.685   6.023  0.7093  0.2912  0.0840
    8MOL0     H 1047  11.852   4.702   6.112  0.9159 -0.7272  1.0841
    8MOL0     H 1048  11.973   4.499   6.137  2.6037  0.2693 -2.4777
    8MOL0     H 1049  11.797   4.477   6.095 -0.2731  0.3075  1.9005
    8MOL0     H 1050  12.041   4.452   5.908 -2.0607  2.7964 -2.6553
    8MOL0     H 1051  11.892   4.420   5.851  1.9435  0.3960 -1.6047
    8MOL0     H 1052  11.860   4.234   6.030  0.8001 -0.5637  0.3969
    8MOL0     H 1053  12.019   4.267   6.090 -0.2013 -1.4179 -0.7812
    8MOL0     H 1054  12.088   4.192   5.832 -1.0198  3.9039 -1.4979
    8MOL0     H 1055  12.045   4.069   5.950 -1.9808 -1.6845 -0.6742
    8MOL0     H 1056  11.890   4.200   5.711 -1.0908 -1.2351 -0.9472
    8MOL0     H 1057  11.796   4.131   5.840 -0.9094  1.8428 -1.8476
    8MOL0     H 1058  12.017   3.974   5.692 -0.5426  1.2900 -0.0426
    8MOL0     H 1059  11.935   3.922   5.838  3.4342  2.6174  0.6643
    8MOL0     H 1060  11.757   4.729   5.649  0.2386  1.3954 -0.1039
    8MOL0     H 1061  11.633   4.704   5.450  0.6868  2.0585  0.8500
    8MOL0     H 1062  11.213   4.610   5.294  2.5227  1.1396 -0.2365
    8MOL0     H 1063  11.066   4.618   5.084  1.2307  1.8128 -5.0445
    8MOL0     H 1064   9.900   5.257   3.755 -1.5441 -4.1531 -1.4323
    8MOL0     H 1065   9.690   5.297   3.637 -2.0459  2.6873 -0.9844
    8MOL0     H 1066   9.458   5.352   3.307  0.6509 -0.4957 -0.8982
    8MOL0     H 1067   9.261   5.378   3.170  1.0351  0.7889 -1.9830
    8MOL0     H 1068   9.010   5.480   3.173  0.2648 -0.6066  0.6715
    8MOL0     H 1069   9.101   5.421   3.035 -1.7803 -1.0814  1.4603
    8MOL0     H 1070   8.888   5.481   2.946  0.9978 -1.1186  1.5388
    8MOL0     H 1071   8.969   5.632   2.919 -3.0563 -2.8347 -3.3711
    8MOL0     H 1072   8.768   5.689   3.019 -1.5827 -3.3910 -0.2673
    8MOL0     H 1073   8.893   5.727   3.143 -2.2388 -0.0797  1.7987
    8MOL0     H 1074   8.829   5.540   3.277  0.0827 -3.3034 -1.1504
    8MOL0     H 1075   8.700   5.654   3.253  2.1832  1.7109 -0.8751
    8MOL0     H 1076   8.528   5.310   3.075 -1.2752  0.8871  0.0196
    8MOL0     H 1077   9.281   5.801   3.182  4.3396  1.5602  0.1107
    8MOL0     H 1078   9.476   5.906   3.261  1.1076 -0.1134  0.1004
    8MOL0     H 1079   9.484   5.869   3.439  1.6705  1.3018  0.5419
    8MOL0     H 1080   9.610   5.811   3.329  0.0252 -2.0080  1.1504
    9MOL0     O 1081   8.049   7.131   8.602 -1.4879  0.0442  0.4599
    9MOL0     C 1082   8.073   7.049   8.690  0.2530  0.2221 -0.8277
    9MOL0     O 1083   8.004   6.931   8.709  0.1440 -0.4023 -0.1715
    9MOL0     C 1084   7.886   6.907   8.631 -0.5246 -0.2295 -0.8966
    9MOL0     C 1085   7.769   6.972   8.663 -1.1980 -0.6330  0.0419
    9MOL0     C 1086   7.645   6.957   8.595  0.5007  0.3119 -0.0369
    9MOL0     C 1087   7.641   6.864   8.496 -0.5219  0.8729  0.0783
    9MOL0     O 1088   7.517   6.854   8.442  0.1163  0.0030 -0.0326
    9MOL0     C 1089   7.494   6.719   8.396  0.1587 -0.0228  0.9999
    9MOL0     C 1090   7.488   6.730   8.237 -0.8759 -0.1392 -0.7838
    9MOL0     C 1091   7.420   6.602   8.186 -0.3551 -0.1850  0.8925
    9MOL0     C 1092   7.407   6.635   8.041  0.7067 -0.7694 -0.0980
    9MOL0     C 1093   7.338   6.526   7.955  0.8429  0.4366  1.0354
    9MOL0     C 1094   7.390   6.388   7.982 -0.1036  1.1218 -0.0018
    9MOL0     C 1095   7.338   6.268   7.896 -0.3424 -1.4373 -0.7796
    9MOL0     C 1096   7.397   6.125   7.926 -0.7771 -0.4209 -0.3345
    9MOL0     N 1097   7.371   6.067   8.058 -0.0429  0.5796  0.4981
    9MOL0     C 1098   7.258   6.015   8.095  0.5141  0.1689 -0.5577
    9MOL0     C 1099   7.272   5.999   8.228  0.3207 -0.2836 -0.2257
    9MOL0     C 1100   7.158   5.947   8.320 -0.0647 -0.6904 -1.4645
    9MOL0     C 1101   7.063   6.065   8.364  0.5512  0.6142  0.5821
    9MOL0     C 1102   6.974   6.012   8.478 -0.8237  0.0610  1.0038
    9MOL0     C 1103   6.858   6.106   8.510 -0.4383 -0.5810 -0.0673
    9MOL0     O 1104   6.788   6.050   8.627  0.0700 -0.2006  0.0559
    9MOL0     C 1105   6.669   6.116   8.673 -0.2105 -0.2262 -0.0249
    9MOL0     C 1106   6.574   6.039   8.738  0.3444  0.1858 -0.3556
    9MOL0     C 1107   6.448   6.099   8.772 -0.0787  0.3030 -0.5001
    9MOL0     C 1108   6.417   6.232   8.738 -1.1386 -0.2408  0.5166
    9MOL0     C 1109   6.283   6.295   8.755 -0.2753  0.4527 -0.2835
    9MOL0     O 1110   6.180   6.212   8.768  0.0844  0.2817 -0.1353
    9MOL0     C 1111   6.052   6.263   8.768  0.2444  1.5184  0.5621
    9MOL0     C 1112   5.999   6.323   8.653  0.4337 -0.2014  0.7181
    9MOL0     C 1113   5.865   6.365   8.646  0.3209 -0.7415 -0.5040
    9MOL0     C 1114   5.774   6.365   8.762 -0.4725 -0.1229  0.3734
    9MOL0     O 1115   5.648   6.416   8.763  0.3511 -0.1365  0.6679
    9MOL0     C 1116   5.575   6.405   8.639  0.2581 -0.0239  0.2162
    9MOL0     C 1117   5.444   6.474   8.678 -0.5797 -0.4646 -0.5051
    9MOL0     C 1118   5.386   6.555   8.556  0.8302 -0.9337  1.0405
    9MOL0     C 1119   5.237   6.599   8.579  0.5721 -0.3575  0.5241
    9MOL0     C 1120   5.188   6.706   8.477 -0.1655  0.4046  0.3347
    9MOL0     C 1121   5.159   6.633   8.334  0.6598  0.6469 -0.3598
    9MOL0     C 1122   5.071   6.713   8.232  0.5467  1.0494 -0.7724
    9MOL0     C 1123   4.937   6.631   8.205 -0.3366  0.1111 -0.4077
    9MOL0    Cl 1124   4.839   6.643   8.351  0.0604  0.1811  0.3387
    9MOL0     C 1125   5.834   6.307   8.872  0.7373 -0.3472  0.0358
    9MOL0     C 1126   5.969   6.256   8.881 -0.1545 -0.2599  0.3953
    9MOL0     O 1127   6.274   6.417   8.754 -0.6033 -0.5685 -0.7318
    9MOL0     C 1128   6.522   6.305   8.682  0.6300  0.4862 -0.0781
    9MOL0     C 1129   6.639   6.252   8.647 -0.5522 -0.3065  0.0345
    9MOL0     N 1130   7.389   6.048   8.263  0.6833 -0.2079 -0.3342
    9MOL0     N 1131   7.452   6.092   8.164  0.2240 -0.1605  0.4177
    9MOL0     C 1132   7.762   6.806   8.451  0.6909 -0.2610 -0.5824
    9MOL0     C 1133   7.883   6.832   8.515 -0.0221 -0.0469 -0.5303
    9MOL0     C 1134   8.186   7.081   8.799  1.3908  0.1261 -0.6129
    9MOL0     C 1135   8.212   6.977   8.896 -0.0125  0.2119  0.6851
    9MOL0     C 1136   8.309   6.996   8.998  0.1394 -0.5000 -0.7967
    9MOL0     C 1137   8.388   7.114   9.006 -0.4155  0.5454  0.1489
    9MOL0     O 1138   8.486   7.131   9.097 -0.0306  0.0798  0.2186
    9MOL0     C 1139   8.547   7.028   9.176 -0.5196  0.5181  0.6105
    9MOL0     C 1140   8.596   7.084   9.308  0.1746 -0.7063 -0.3967
    9MOL0     C 1141   8.687   6.994   9.387  0.5442  0.3192 -0.3995
    9MOL0     C 1142   8.610   6.889   9.479 -0.0580  0.4590 -0.0909
    9MOL0     C 1143   8.552   6.784   9.406 -0.1037 -0.0356  0.0170
    9MOL0     C 1144   8.533   6.683   9.338 -0.1806  0.2930  0.3113
    9MOL0     C 1145   8.364   7.209   8.910 -0.5596  0.6665  0.1741
    9MOL0     C 1146   8.263   7.197   8.811 -0.3472  0.0406 -0.2636
    9MOL0     C 1147   8.250   7.316   8.724 -0.0688 -0.0125 -0.0089
    9MOL0     H 1148   7.779   7.033   8.752 -0.1259  0.7878 -1.0048
    9MOL0     H 1149   7.547   6.994   8.626  0.7105 -0.4731  1.6085
    9MOL0     H 1150   7.563   6.638   8.420 -0.1785 -0.4876  0.4366
    9MOL0     H 1151   7.399   6.685   8.439 -0.6436 -0.2633 -0.8603
    9MOL0     H 1152   7.589   6.747   8.200 -0.4370 -1.0988 -0.0492
    9MOL0     H 1153   7.435   6.824   8.215 -0.3516 -0.1657 -2.2161
    9MOL0     H 1154   7.320   6.581   8.224  0.4872 -2.4263  2.0103
    9MOL0     H 1155   7.487   6.517   8.199  1.7900  1.3005  0.2845
    9MOL0     H 1156   7.336   6.718   8.033 -1.5781 -2.7850 -2.1185
    9MOL0     H 1157   7.497   6.669   7.989 -1.2868  1.5062 -2.3964
    9MOL0     H 1158   7.229   6.531   7.965  0.3709 -3.7824  0.1442
    9MOL0     H 1159   7.362   6.542   7.849 -1.5841 -0.8246  0.2183
    9MOL0     H 1160   7.500   6.387   7.976  0.1497 -0.1450  2.9549
    9MOL0     H 1161   7.361   6.365   8.085 -0.4690 -0.6467 -0.4611
    9MOL0     H 1162   7.345   6.294   7.790  0.2568  1.9201 -0.0368
    9MOL0     H 1163   7.230   6.259   7.916 -0.1018 -0.5482  1.1088
    9MOL0     H 1164   7.366   6.045   7.858  2.3948 -1.7170 -0.4513
    9MOL0     H 1165   7.506   6.135   7.924 -0.9552  2.4389  0.0958
    9MOL0     H 1166   7.167   5.988   8.041 -0.6942  0.7339  1.1084
    9MOL0     H 1167   7.114   5.859   8.271  0.2521 -2.2568  0.8963
    9MOL0     H 1168   7.199   5.897   8.408 -1.2325 -1.4837 -1.3414
    9MOL0     H 1169   7.114   6.155   8.398  0.4396 -0.4609  3.9619
    9MOL0     H 1170   7.005   6.092   8.275  1.8881  0.2665 -0.4370
    9MOL0     H 1171   7.031   6.000   8.571 -1.3803  0.4496  1.4066
    9MOL0     H 1172   6.937   5.916   8.441 -0.1823  1.1173 -2.7397
    9MOL0     H 1173   6.789   6.118   8.426 -0.3540  0.4876  0.0011
    9MOL0     H 1174   6.887   6.211   8.522 -1.2339 -0.1473 -1.6527
    9MOL0     H 1175   6.585   5.941   8.783  0.5838  0.9927  1.4510
    9MOL0     H 1176   6.375   6.034   8.819 -0.1346  0.7638  0.0711
    9MOL0     H 1177   6.071   6.339   8.574 -2.3387  0.4153 -1.8508
    9MOL0     H 1178   5.822   6.402   8.553 -0.7798  0.6910  0.5365
    9MOL0     H 1179   5.624   6.474   8.570 -1.8666  2.9156  1.4029
    9MOL0     H 1180   5.563   6.302   8.605 -0.3570  0.0766  0.1089
    9MOL0     H 1181   5.369   6.401   8.711 -0.6691  0.2651  0.9680
    9MOL0     H 1182   5.462   6.538   8.764  3.0196 -1.5475 -0.3213
    9MOL0     H 1183   5.443   6.646   8.532 -0.5991 -0.0502  0.8481
    9MOL0     H 1184   5.383   6.503   8.460 -3.1968 -1.4576  1.2872
    9MOL0     H 1185   5.239   6.651   8.675  1.0416 -0.4167  0.5464
    9MOL0     H 1186   5.161   6.520   8.586  0.7739 -0.8213 -1.6260
    9MOL0     H 1187   5.267   6.781   8.467 -0.3762  0.8635  1.8891
    9MOL0     H 1188   5.093   6.750   8.509 -0.9591 -0.4142 -0.8054
    9MOL0     H 1189   5.254   6.622   8.281  0.1116  1.1315 -1.4663
    9MOL0     H 1190   5.126   6.530   8.345 -2.2864  1.2725 -2.3094
    9MOL0     H 1191   5.119   6.709   8.134  0.9318  2.8329 -0.7027
    9MOL0     H 1192   5.053   6.816   8.266 -0.2673 -0.2647  3.3892
    9MOL0     H 1193   4.875   6.671   8.124  0.8430  4.6848  0.6385
    9MOL0     H 1194   4.970   6.529   8.183  2.0569  0.1402  2.4982
    9MOL0     H 1195   5.778   6.296   8.964  0.2059 -2.2919 -0.4708
    9MOL0     H 1196   5.994   6.197   8.968  0.6274 -0.8659 -0.2173
    9MOL0     H 1197   6.499   6.409   8.660  0.6511  0.8137  1.3332
    9MOL0     H 1198   6.709   6.315   8.594 -0.7134 -1.0016 -1.0243
    9MOL0     H 1199   7.761   6.742   8.363  1.1936 -1.5292  0.3080
    9MOL0     H 1200   7.969   6.777   8.478  0.2761 -1.7446  2.3770
    9MOL0     H 1201   8.160   6.882   8.893 -1.5706  0.8792  3.1135
    9MOL0     H 1202   8.316   6.916   9.071  0.3104  1.9106  1.9974
    9MOL0     H 1203   8.633   6.990   9.121 -1.2745 -0.6456  0.2062
    9MOL0     H 1204   8.472   6.952   9.202 -1.9532  1.5179 -0.4520
    9MOL0     H 1205   8.522   7.127   9.376  1.1208 -1.4078  1.1320
    9MOL0     H 1206   8.661   7.166   9.276 -1.6621  0.2359 -1.9234
    9MOL0     H 1207   8.757   7.059   9.440  2.0387  0.3546 -2.3032
    9MOL0     H 1208   8.753   6.940   9.318  0.1964  1.4791 -1.6687
    9MOL0     H 1209   8.681   6.857   9.555 -1.9537  1.2999  2.1643
    9MOL0     H 1210   8.527   6.934   9.535 -2.2910  0.1787 -2.9018
    9MOL0     H 1211   8.522   6.596   9.275 -3.5080 -0.3146  1.5183
    9MOL0     H 1212   8.437   7.289   8.902  0.8074 -0.5645 -0.0742
    9MOL0     H 1213   8.224   7.291   8.621 -2.1784  1.2734  0.1561
    9MOL0     H 1214   8.168   7.379   8.759 -1.0866  0.9025 -3.6273
    9MOL0     H 1215   8.346   7.367   8.717 -0.4042  1.0204  2.0175
   10MOL0     O 1216   0.934   8.202   7.334  0.0122  0.2826 -0.0733
   10MOL0     C 1217   0.964   8.094   7.395 -0.1127  0.9327  0.8702
   10MOL0     O 1218   0.874   8.011   7.445 -0.1327  0.1912  0.2220
   10MOL0     C 1219   0.761   8.059   7.512  0.6026  0.1779  0.2154
   10MOL0     C 1220   0.744   8.020   7.645 -0.0133 -0.4161 -0.4638
   10MOL0     C 1221   0.625   8.046   7.722  0.9105  0.5819  0.1545
   10MOL0     C 1222   0.523   8.116   7.655  0.4314  0.7937  0.0153
   10MOL0     O 1223   0.407   8.157   7.708 -0.4845 -0.0440  0.8294
   10MOL0     C 1224   0.340   8.072   7.799 -0.6057 -0.2971 -0.5333
   10MOL0     C 1225   0.271   7.955   7.729 -0.1215  0.6375  0.1425
   10MOL0     C 1226   0.189   7.998   7.615  1.0667  0.2061 -0.1767
   10MOL0     C 1227   0.125   7.870   7.547 -0.2137  0.3494 -0.0762
   10MOL0     C 1228   0.037   7.910   7.427 -0.2153 -0.0535  0.7957
   10MOL0     C 1229  -0.063   8.026   7.452 -1.1661 -0.3190 -0.2603
   10MOL0     C 1230  -0.148   8.072   7.329  0.2940 -0.3368 -0.3236
   10MOL0     C 1231  -0.074   8.142   7.223 -0.1925  0.2454  0.3656
   10MOL0     N 1232  -0.012   8.266   7.273  0.1273  0.2841  0.7834
   10MOL0     C 1233   0.118   8.271   7.332  0.1326  0.0369 -0.3077
   10MOL0     C 1234   0.134   8.402   7.357  0.1196 -0.0082 -0.1152
   10MOL0     C 1235   0.268   8.473   7.386 -0.0297 -0.0890 -0.7338
   10MOL0     C 1236   0.269   8.611   7.457  1.2436 -0.8621  0.2309
   10MOL0     C 1237   0.377   8.635   7.569  0.5918  1.0077  0.1398
   10MOL0     C 1238   0.519   8.595   7.531  0.1582  0.7419  0.6532
   10MOL0     O 1239   0.552   8.643   7.403 -0.2622  0.8192 -0.0068
   10MOL0     C 1240   0.680   8.629   7.357 -0.3516 -0.4318 -0.7283
   10MOL0     C 1241   0.772   8.531   7.407  0.4830  0.7724 -0.2585
   10MOL0     C 1242   0.884   8.512   7.342  0.3002 -0.1775  0.1500
   10MOL0     C 1243   0.920   8.575   7.223 -0.8771  0.6277  0.1066
   10MOL0     C 1244   1.049   8.529   7.168  0.4724  0.6392  0.4145
   10MOL0     O 1245   1.132   8.445   7.242  0.0728  0.3204  0.2337
   10MOL0     C 1246   1.245   8.395   7.180  0.2208 -0.3729 -0.5355
   10MOL0     C 1247   1.356   8.486   7.135  0.0739  0.5712 -0.1030
   10MOL0     C 1248   1.482   8.435   7.095  1.0541 -0.0338  0.1278
   10MOL0     C 1249   1.497   8.290   7.074 -0.7348 -0.9079  0.1303
   10MOL0     O 1250   1.623   8.251   7.029  0.2033  0.1500  0.5293
   10MOL0     C 1251   1.636   8.116   6.976 -1.1386  0.3953 -0.8102
   10MOL0     C 1252   1.781   8.078   6.998 -0.6467 -0.9331  0.2864
   10MOL0     C 1253   1.893   8.152   6.914 -0.2981  0.1485 -0.1529
   10MOL0     C 1254   2.028   8.095   6.963  0.0370 -0.2060 -0.2835
   10MOL0     C 1255   2.147   8.163   6.898 -0.3023  0.1347 -0.0874
   10MOL0     C 1256   2.165   8.313   6.922 -0.6102  0.3601  0.4290
   10MOL0     C 1257   2.304   8.348   6.850 -0.0046 -0.4972 -0.6040
   10MOL0     C 1258   2.404   8.336   6.962 -0.5788  0.5784 -0.2032
   10MOL0    Cl 1259   2.573   8.391   6.946 -0.0823  0.4555  0.6762
   10MOL0     C 1260   1.382   8.207   7.100 -1.5842 -0.0647  0.4526
   10MOL0     C 1261   1.262   8.261   7.154  0.8693 -0.5522  0.2510
   10MOL0     O 1262   1.075   8.592   7.065 -0.2294  0.3847  0.3704
   10MOL0     C 1263   0.834   8.673   7.167 -0.2827 -0.4211 -0.6714
   10MOL0     C 1264   0.707   8.696   7.236 -0.4153 -0.0541  0.0500
   10MOL0     N 1265   0.021   8.479   7.309  0.1042 -0.1822  0.2642
   10MOL0     N 1266  -0.055   8.395   7.244 -0.1675  0.6682 -0.4036
   10MOL0     C 1267   0.549   8.166   7.523 -0.5614  0.9005  0.1178
   10MOL0     C 1268   0.667   8.137   7.452 -0.2339  0.2409 -0.2236
   10MOL0     C 1269   1.112   8.061   7.402  0.8935  0.2327  0.5020
   10MOL0     C 1270   1.169   7.950   7.341  0.5662 -0.0362 -0.9611
   10MOL0     C 1271   1.300   7.922   7.352  0.1680  0.2339 -0.3703
   10MOL0     C 1272   1.377   8.004   7.425 -0.2182 -0.5673  0.1448
   10MOL0     O 1273   1.514   8.007   7.444 -0.3926  0.6775 -0.4548
   10MOL0     C 1274   1.599   7.921   7.373 -0.3125 -0.6858  0.2776
   10MOL0     C 1275   1.736   7.991   7.372 -0.3758 -0.2400  0.1536
   10MOL0     C 1276   1.814   7.976   7.497 -0.1945  0.7906 -0.8844
   10MOL0     C 1277   1.960   8.037   7.489  0.2736  0.1218 -0.8437
   10MOL0     C 1278   2.044   7.965   7.390  0.1714  0.5482  0.6862
   10MOL0     C 1279   2.124   7.903   7.331  0.0967  0.0763 -0.2654
   10MOL0     C 1280   1.323   8.112   7.489 -1.4032 -0.7208 -1.0668
   10MOL0     C 1281   1.194   8.145   7.484  0.0747  0.6602  0.0995
   10MOL0     C 1282   1.151   8.260   7.563  1.2753 -0.1445 -0.1501
   10MOL0     H 1283   0.818   7.957   7.693  0.7040 -3.0534 -4.5769
   10MOL0     H 1284   0.632   8.039   7.830  1.9987  0.8514  0.1136
   10MOL0     H 1285   0.410   8.032   7.874 -1.7440  0.6095  1.0757
   10MOL0     H 1286   0.268   8.127   7.860  0.3285  3.2112 -2.3476
   10MOL0     H 1287   0.230   7.878   7.795  0.3216 -1.6150 -2.0561
   10MOL0     H 1288   0.344   7.886   7.686 -1.5794  0.8421 -2.9557
   10MOL0     H 1289   0.243   8.053   7.537 -0.5856  0.2820 -1.3104
   10MOL0     H 1290   0.109   8.058   7.658  2.2986  1.9121 -0.1486
   10MOL0     H 1291   0.203   7.802   7.512 -2.0656 -3.4630  2.4205
   10MOL0     H 1292   0.071   7.816   7.625  2.4778  2.7629  3.8143
   10MOL0     H 1293   0.106   7.941   7.348 -0.2999  0.5293  0.9450
   10MOL0     H 1294  -0.018   7.826   7.381  1.7196 -1.0914  0.2640
   10MOL0     H 1295  -0.136   7.982   7.521 -0.7125  0.8620  1.0076
   10MOL0     H 1296  -0.022   8.113   7.504  0.5828 -2.3987  2.1612
   10MOL0     H 1297  -0.217   8.148   7.367  1.6577  0.4651  0.6432
   10MOL0     H 1298  -0.207   7.985   7.299 -1.9582  1.2338 -0.6953
   10MOL0     H 1299   0.007   8.077   7.189  0.0375  1.4576 -1.5195
   10MOL0     H 1300  -0.138   8.156   7.136 -0.4248 -0.8041  0.3488
   10MOL0     H 1301   0.184   8.186   7.340 -1.8112 -1.3800  1.9081
   10MOL0     H 1302   0.328   8.402   7.445  1.3691 -0.8532 -2.9271
   10MOL0     H 1303   0.332   8.479   7.298  1.8532  0.1778  0.5728
   10MOL0     H 1304   0.281   8.694   7.387 -1.9286 -1.6003 -1.4311
   10MOL0     H 1305   0.169   8.623   7.500  0.9224 -2.7008  0.0658
   10MOL0     H 1306   0.352   8.570   7.653  1.1911  0.2388 -0.2622
   10MOL0     H 1307   0.370   8.740   7.598 -0.4172  0.5621  1.6411
   10MOL0     H 1308   0.536   8.488   7.539  1.4554  0.9408  0.8350
   10MOL0     H 1309   0.589   8.642   7.600 -0.5858  0.7070  1.4514
   10MOL0     H 1310   0.749   8.458   7.483  2.0999  0.1014 -0.3711
   10MOL0     H 1311   0.929   8.425   7.390 -0.2066 -0.1350  0.7157
   10MOL0     H 1312   1.353   8.591   7.162 -1.0676  1.0093 -1.8106
   10MOL0     H 1313   1.567   8.499   7.077  0.3416  0.9123  0.0730
   10MOL0     H 1314   1.579   8.041   7.034  0.3407 -1.4325 -1.6264
   10MOL0     H 1315   1.599   8.100   6.875 -1.7774  0.0750 -0.5352
   10MOL0     H 1316   1.804   8.104   7.102  2.7634 -0.2114 -0.5128
   10MOL0     H 1317   1.786   7.969   6.999  0.7121 -0.8910  1.2018
   10MOL0     H 1318   1.879   8.133   6.807 -0.3124 -1.0528  0.0450
   10MOL0     H 1319   1.881   8.258   6.937  0.4939  0.0872  0.5679
   10MOL0     H 1320   2.031   7.989   6.938  0.7738  0.2274 -2.2626
   10MOL0     H 1321   2.027   8.103   7.072 -0.5040  1.7034 -0.3922
   10MOL0     H 1322   2.119   8.149   6.793  1.4932  2.3138 -0.9275
   10MOL0     H 1323   2.225   8.093   6.929 -1.8159 -1.0714  1.1957
   10MOL0     H 1324   2.088   8.373   6.873  0.5214  0.9381 -0.6898
   10MOL0     H 1325   2.162   8.345   7.026 -0.4664  0.8106  0.2948
   10MOL0     H 1326   2.303   8.450   6.811 -4.5198  0.9370  2.4181
   10MOL0     H 1327   2.336   8.285   6.766  0.3656  0.3037 -1.0770
   10MOL0     H 1328   2.366   8.390   7.050  1.1515  3.3305 -1.0100
   10MOL0     H 1329   2.404   8.233   6.997 -1.1491  0.5560 -0.2546
   10MOL0     H 1330   1.384   8.099   7.103 -0.3169 -0.0917 -0.4841
   10MOL0     H 1331   1.181   8.202   7.195  0.5903 -0.6470 -0.4238
   10MOL0     H 1332   0.865   8.730   7.081  0.9710  3.4318  2.0636
   10MOL0     H 1333   0.635   8.769   7.200  0.5548  0.7023 -0.4039
   10MOL0     H 1334   0.466   8.219   7.476 -3.2780 -4.9166 -2.7509
   10MOL0     H 1335   0.681   8.162   7.347  2.1656  0.6539  0.1298
   10MOL0     H 1336   1.091   7.892   7.294 -1.5357  2.0481 -0.2413
   10MOL0     H 1337   1.339   7.831   7.306  1.0793  1.0650 -1.3037
   10MOL0     H 1338   1.578   7.908   7.267 -1.3894  2.3285  0.0325
   10MOL0     H 1339   1.607   7.822   7.419  1.1824 -1.0521 -0.7121
   10MOL0     H 1340   1.725   8.096   7.347  1.9967 -0.6060 -3.0095
   10MOL0     H 1341   1.796   7.953   7.289  0.5088  1.1234  0.1472
   10MOL0     H 1342   1.826   7.870   7.519 -4.8351  0.2806  0.2047
   10MOL0     H 1343   1.760   8.019   7.583  2.2477 -2.3475  2.5513
   10MOL0     H 1344   1.951   8.142   7.462 -0.0832  0.0446 -1.0337
   10MOL0     H 1345   2.006   8.027   7.588 -0.2111  1.3690 -0.4774
   10MOL0     H 1346   2.194   7.850   7.269  0.1226  1.3704 -1.3860
   10MOL0     H 1347   1.389   8.178   7.544 -2.0740 -0.8658 -0.0652
   10MOL0     H 1348   1.195   8.244   7.662 -0.1294  0.2551  0.5635
   10MOL0     H 1349   1.178   8.362   7.535 -2.0949  0.6398 -0.9962
   10MOL0     H 1350   1.042   8.251   7.559  1.3356 -0.5074 -3.3404
   11MOL0     O 1351   7.150   9.562   0.476  0.6611  0.0401  0.6864
   11MOL0     C 1352   7.094   9.457   0.463  0.2120  0.0392 -0.4573
   11MOL0     O 1353   7.163   9.341   0.486  0.3205  0.3027  0.0811
   11MOL0     C 1354   7.286   9.340   0.556  0.7187  0.3301 -0.2217
   11MOL0     C 1355   7.405   9.333   0.485 -0.1942  0.7243 -0.1715
   11MOL0     C 1356   7.527   9.299   0.555 -0.4430  0.4627  0.8582
   11MOL0     C 1357   7.532   9.275   0.690  0.6518 -0.2426 -0.0051
   11MOL0     O 1358   7.656   9.247   0.751 -0.1879 -0.6260 -0.4941
   11MOL0     C 1359   7.781   9.313   0.716 -0.2044  0.3677 -0.7840
   11MOL0     C 1360   7.816   9.419   0.824 -0.4134 -0.0027  0.2174
   11MOL0     C 1361   7.751   9.556   0.801  0.2490 -0.5392 -0.3234
   11MOL0     C 1362   7.790   9.665   0.891 -0.2257  0.3690 -0.1720
   11MOL0     C 1363   7.712   9.795   0.859 -0.0289  0.1840 -0.1433
   11MOL0     C 1364   7.776   9.912   0.925  0.0346 -0.0462 -0.0773
   11MOL0     C 1365   7.715  10.044   0.879 -0.9844  0.0388  0.3698
   11MOL0     C 1366   7.746  10.173   0.961 -0.0863  0.0467  0.1132
   11MOL0     N 1367   7.680  10.299   0.918 -0.3954  0.4270  0.4566
   11MOL0     C 1368   7.557  10.341   0.944 -0.1651 -0.0666 -1.2096
   11MOL0     C 1369   7.552  10.474   0.911 -0.3369 -0.5221 -0.3910
   11MOL0     C 1370   7.444  10.577   0.924 -0.2631  0.4084  0.6164
   11MOL0     C 1371   7.418  10.644   0.787  0.7065 -0.3132 -0.3737
   11MOL0     C 1372   7.493  10.781   0.801 -0.1041 -0.6157  0.4939
   11MOL0     C 1373   7.464  10.850   0.665  0.1083  0.1959  0.7577
   11MOL0     O 1374   7.368  10.951   0.680 -0.3387 -0.7556  0.8098
   11MOL0     C 1375   7.275  10.989   0.587 -0.0010 -0.6900 -0.2739
   11MOL0     C 1376   7.182  11.082   0.619  0.9741 -0.1243  0.3239
   11MOL0     C 1377   7.087  11.137   0.533 -0.4933 -0.3490 -0.4844
   11MOL0     C 1378   7.076  11.081   0.395  0.2560  0.5420  0.7548
   11MOL0     C 1379   6.972  11.133   0.304 -0.5597 -0.3567  0.2991
   11MOL0     O 1380   6.907  11.250   0.342 -0.1030 -0.3286  0.2861
   11MOL0     C 1381   6.815  11.324   0.266 -0.5976 -0.1268 -0.6482
   11MOL0     C 1382   6.774  11.291   0.138 -0.0901 -0.3265 -0.3435
   11MOL0     C 1383   6.665  11.359   0.079  0.3159 -0.6642 -0.9938
   11MOL0     C 1384   6.611  11.474   0.142 -0.1018 -0.2176 -0.2128
   11MOL0     O 1385   6.507  11.546   0.079  0.5136 -0.1417 -0.0470
   11MOL0     C 1386   6.388  11.471   0.047 -0.2474 -0.6168  0.0040
   11MOL0     C 1387   6.278  11.565  -0.011  0.2432 -0.2141 -0.0123
   11MOL0     C 1388   6.185  11.477  -0.102  0.4273  0.3228 -0.6872
   11MOL0     C 1389   6.042  11.534  -0.091  1.6445  0.5492  0.0577
   11MOL0     C 1390   6.021  11.649  -0.179  0.1112 -0.1772 -0.3626
   11MOL0     C 1391   5.894  11.718  -0.133 -0.3645  0.5096  1.1875
   11MOL0     C 1392   5.870  11.841  -0.228  0.7270  0.9545  1.0167
   11MOL0     C 1393   5.735  11.911  -0.199 -0.4760  0.4179 -0.4566
   11MOL0    Cl 1394   5.604  11.785  -0.220 -0.5025 -0.0289 -0.2662
   11MOL0     C 1395   6.669  11.513   0.260  0.5931 -0.9079  0.1173
   11MOL0     C 1396   6.767  11.444   0.327 -0.4902 -0.1418 -0.7533
   11MOL0     O 1397   6.964  11.078   0.198  1.0455  0.4690  0.1148
   11MOL0     C 1398   7.183  10.989   0.359  1.0276 -0.2033  0.2655
   11MOL0     C 1399   7.273  10.947   0.453 -0.3119  0.0959 -0.4947
   11MOL0     N 1400   7.677  10.516   0.867 -0.0188  0.0188  0.3857
   11MOL0     N 1401   7.743  10.403   0.855 -0.3752 -0.2238 -0.6863
   11MOL0     C 1402   7.412   9.285   0.762  0.2283  0.3380 -0.8796
   11MOL0     C 1403   7.292   9.321   0.699 -0.0792  0.7509 -0.1370
   11MOL0     C 1404   6.947   9.455   0.417  0.6502  0.6312  0.5296
   11MOL0     C 1405   6.862   9.383   0.494  0.2776 -0.8512 -0.3499
   11MOL0     C 1406   6.723   9.395   0.465  0.6984  0.0885  0.7236
   11MOL0     C 1407   6.685   9.466   0.343 -0.7719 -0.3285  0.3302
   11MOL0     O 1408   6.549   9.464   0.321  0.1370  0.0235 -0.5559
   11MOL0     C 1409   6.501   9.513   0.199 -0.0065  0.4484  0.8464
   11MOL0     C 1410   6.346   9.529   0.200 -0.4156  0.1084 -0.0189
   11MOL0     C 1411   6.292   9.578   0.064 -0.2773  0.4441 -0.6571
   11MOL0     C 1412   6.141   9.580   0.078  0.4831  0.3000  0.3130
   11MOL0     C 1413   6.082   9.660  -0.035  0.0304 -0.1545 -0.1526
   11MOL0     C 1414   6.029   9.716  -0.130  0.8004 -0.0766 -0.7182
   11MOL0     C 1415   6.776   9.536   0.265 -0.5055 -0.7194 -0.9679
   11MOL0     C 1416   6.909   9.518   0.297 -0.7179 -0.0443 -0.3422
   11MOL0     C 1417   7.015   9.585   0.210 -0.5849  0.1362 -0.4531
   11MOL0     H 1418   7.388   9.349   0.379 -2.0718 -1.9454 -0.3599
   11MOL0     H 1419   7.621   9.305   0.500 -1.8769 -2.3662 -2.2328
   11MOL0     H 1420   7.865   9.243   0.709  0.0539  0.6936 -0.9824
   11MOL0     H 1421   7.768   9.363   0.620  0.1558  3.1170  0.4984
   11MOL0     H 1422   7.923   9.438   0.829 -0.2454 -0.9098  4.7281
   11MOL0     H 1423   7.786   9.389   0.925  0.9348 -0.3609  0.5319
   11MOL0     H 1424   7.642   9.552   0.815  0.1133  0.8197 -0.8649
   11MOL0     H 1425   7.773   9.580   0.697 -3.1480 -2.4864 -1.6430
   11MOL0     H 1426   7.774   9.632   0.993  0.8552  0.7103  0.1253
   11MOL0     H 1427   7.897   9.685   0.880 -0.0964 -0.5766 -0.7738
   11MOL0     H 1428   7.721   9.821   0.753 -0.7659 -0.0535 -0.2684
   11MOL0     H 1429   7.610   9.786   0.898 -0.1908  0.9774 -0.3732
   11MOL0     H 1430   7.776   9.907   1.035 -1.8215  3.1658  0.2026
   11MOL0     H 1431   7.877   9.928   0.888  1.3174 -4.9101  0.5404
   11MOL0     H 1432   7.606  10.034   0.878 -1.0893  0.8456 -1.8457
   11MOL0     H 1433   7.756  10.062   0.779 -0.5262 -3.9768 -0.3221
   11MOL0     H 1434   7.739  10.151   1.068  2.4034 -0.2933  0.2641
   11MOL0     H 1435   7.855  10.179   0.958 -0.0871  2.3113  1.9880
   11MOL0     H 1436   7.472  10.282   0.974 -1.5658 -0.2218 -5.0394
   11MOL0     H 1437   7.355  10.523   0.957  0.2519 -1.9126 -1.5095
   11MOL0     H 1438   7.466  10.655   0.998 -1.8410  2.4789 -0.9809
   11MOL0     H 1439   7.459  10.589   0.702  1.9660  2.1816 -1.5052
   11MOL0     H 1440   7.310  10.660   0.788  1.0075  2.3590  1.3776
   11MOL0     H 1441   7.600  10.771   0.819  0.4460  0.2127 -1.9396
   11MOL0     H 1442   7.452  10.834   0.888  0.6299  0.1628  0.3759
   11MOL0     H 1443   7.416  10.782   0.594  0.5981  2.9580 -2.5221
   11MOL0     H 1444   7.561  10.885   0.627 -1.1646  2.3949 -0.6866
   11MOL0     H 1445   7.170  11.117   0.721 -2.9037 -2.6153  0.9388
   11MOL0     H 1446   7.022  11.218   0.566 -1.0840  0.9377 -4.3034
   11MOL0     H 1447   6.811  11.211   0.074  1.3453  0.7576 -0.9216
   11MOL0     H 1448   6.651  11.334  -0.026  3.5811 -4.6451 -0.7336
   11MOL0     H 1449   6.421  11.399  -0.029  3.2859  2.1995 -1.4052
   11MOL0     H 1450   6.351  11.426   0.139 -1.4784 -1.9423 -1.0818
   11MOL0     H 1451   6.232  11.612   0.076  3.8278  1.6992  1.0482
   11MOL0     H 1452   6.316  11.651  -0.066 -2.4194  1.7828  1.0221
   11MOL0     H 1453   6.218  11.481  -0.206 -2.3209 -0.4166 -1.6623
   11MOL0     H 1454   6.186  11.373  -0.070 -1.4015  0.2745 -0.6591
   11MOL0     H 1455   6.014  11.561   0.011 -0.0197 -0.9442  0.0329
   11MOL0     H 1456   5.977  11.455  -0.129  1.2702  0.8422  0.0765
   11MOL0     H 1457   6.011  11.604  -0.279 -2.4763  1.7472 -1.0754
   11MOL0     H 1458   6.109  11.714  -0.169  0.4062 -0.8850  2.4363
   11MOL0     H 1459   5.812  11.646  -0.141 -0.4263  0.6811  0.1982
   11MOL0     H 1460   5.906  11.755  -0.031 -1.8176 -0.0727  1.5929
   11MOL0     H 1461   5.869  11.793  -0.326  0.3594 -0.1656  1.5472
   11MOL0     H 1462   5.950  11.916  -0.220  2.4284 -0.9323  3.0177
   11MOL0     H 1463   5.730  11.947  -0.096  0.4695 -0.4824 -0.0896
   11MOL0     H 1464   5.711  11.999  -0.260 -0.6056 -1.1917 -2.8845
   11MOL0     H 1465   6.637  11.610   0.295 -1.4729 -1.7784  0.7757
   11MOL0     H 1466   6.804  11.458   0.428 -2.0443 -2.4141  0.1823
   11MOL0     H 1467   7.192  10.940   0.262 -1.1015  0.7625 -0.4905
   11MOL0     H 1468   7.354  10.883   0.418  1.8754  2.4998 -0.1608
   11MOL0     H 1469   7.430   9.274   0.869  0.6182 -0.0333 -0.9798
   11MOL0     H 1470   7.200   9.322   0.757  0.4414 -0.7010  0.7769
   11MOL0     H 1471   6.896   9.321   0.576 -0.1455  0.5713  0.9444
   11MOL0     H 1472   6.641   9.347   0.516  0.4044 -1.3808 -1.0150
   11MOL0     H 1473   6.523   9.437   0.123 -0.6145 -0.7006  1.7877
   11MOL0     H 1474   6.549   9.606   0.169  1.1584 -0.1044  0.9339
   11MOL0     H 1475   6.313   9.605   0.271  1.0852  0.9236 -0.1469
   11MOL0     H 1476   6.302   9.430   0.216 -2.9861  1.5775  2.9757
   11MOL0     H 1477   6.318   9.506  -0.014  0.9916  1.0762 -0.8388
   11MOL0     H 1478   6.335   9.678   0.048  3.2738 -0.8703 -0.1974
   11MOL0     H 1479   6.091   9.484   0.066 -0.2928  1.0074 -3.1674
   11MOL0     H 1480   6.102   9.638   0.162 -1.7617 -0.5429 -0.0722
   11MOL0     H 1481   5.978   9.758  -0.215 -1.3596 -2.6843 -0.8776
   11MOL0     H 1482   6.752   9.596   0.178 -3.0850  1.2448  0.9189
   11MOL0     H 1483   7.053   9.669   0.268  0.8400 -0.4209 -0.5292
   11MOL0     H 1484   7.102   9.525   0.181 -0.6791 -0.2363  0.0087
   11MOL0     H 1485   6.966   9.636   0.127 -0.5385  2.5726  0.9342
   12MOL0     O 1486   6.118  10.508   5.026 -0.3729 -0.4836  0.4684
   12MOL0     C 1487   6.162  10.544   4.917  0.5682 -0.2652 -0.1333
   12MOL0     O 1488   6.089  10.569   4.801 -0.1043 -1.0406  0.2188
   12MOL0     C 1489   5.951  10.545   4.795  0.0509  0.1234 -0.6439
   12MOL0     C 1490   5.879  10.446   4.862 -0.6855 -0.7566  0.5150
   12MOL0     C 1491   5.742  10.424   4.861  0.2888 -0.5931  1.2445
   12MOL0     C 1492   5.662  10.506   4.780  0.7629 -0.2915  0.0039
   12MOL0     O 1493   5.526  10.499   4.772  0.0285 -1.0177 -0.3418
   12MOL0     C 1494   5.469  10.426   4.879 -0.6849 -0.0901  0.1361
   12MOL0     C 1495   5.312  10.446   4.884 -0.7076 -0.2369  0.4433
   12MOL0     C 1496   5.245  10.368   4.770  0.8203 -0.2459 -0.2335
   12MOL0     C 1497   5.093  10.412   4.774 -0.0613 -0.1034 -0.1419
   12MOL0     C 1498   5.001  10.378   4.656  0.3529  0.3489 -0.1907
   12MOL0     C 1499   4.948  10.230   4.663 -0.3004  0.3159 -0.1750
   12MOL0     C 1500   4.843  10.200   4.554 -0.8622 -0.1782  0.3742
   12MOL0     C 1501   4.781  10.066   4.576  0.4261  0.1923  0.4363
   12MOL0     N 1502   4.898   9.975   4.585  0.6821 -0.7130 -0.7330
   12MOL0     C 1503   4.987   9.948   4.483  0.6764  0.2492 -0.2548
   12MOL0     C 1504   5.079   9.866   4.538 -0.3689  0.1306 -0.0707
   12MOL0     C 1505   5.201   9.804   4.481  1.2181  0.1245  0.2843
   12MOL0     C 1506   5.261   9.888   4.371 -0.1107 -0.2192 -0.1683
   12MOL0     C 1507   5.295  10.030   4.407  0.6008 -0.7291  0.0312
   12MOL0     C 1508   5.399  10.098   4.315  0.6866  0.3412 -0.5781
   12MOL0     O 1509   5.450  10.203   4.396  0.1214  0.6426  1.0715
   12MOL0     C 1510   5.570  10.261   4.348  0.9479 -1.0270  0.6081
   12MOL0     C 1511   5.623  10.248   4.218  1.8080 -0.1304 -0.1727
   12MOL0     C 1512   5.746  10.307   4.193  0.1246  0.5834  0.3433
   12MOL0     C 1513   5.814  10.383   4.292 -0.0691 -0.0739 -0.0086
   12MOL0     C 1514   5.924  10.472   4.252  0.2833 -0.2480 -0.6272
   12MOL0     O 1515   5.929  10.515   4.123 -0.6604 -0.5056  0.1907
   12MOL0     C 1516   6.026  10.594   4.075  0.2128 -0.7704 -0.8890
   12MOL0     C 1517   6.141  10.541   4.031  0.6022  0.4049  0.0622
   12MOL0     C 1518   6.238  10.619   3.970 -0.6460 -0.1685 -0.7205
   12MOL0     C 1519   6.206  10.756   3.944  0.5815 -0.7514 -0.1956
   12MOL0     O 1520   6.281  10.830   3.866 -0.2451  1.0785  0.4780
   12MOL0     C 1521   6.370  10.921   3.928  0.0661  0.5111 -0.9176
   12MOL0     C 1522   6.473  10.965   3.829 -0.2876  0.6442  0.0473
   12MOL0     C 1523   6.411  11.021   3.697  0.5753 -0.0092 -0.4445
   12MOL0     C 1524   6.301  11.125   3.735  0.3793 -0.3823  0.8059
   12MOL0     C 1525   6.274  11.227   3.629  0.3020  0.4863  0.0672
   12MOL0     C 1526   6.199  11.180   3.500 -0.3242  0.4001 -0.2467
   12MOL0     C 1527   6.057  11.130   3.527  0.8135  0.5546 -0.0286
   12MOL0     C 1528   5.974  11.136   3.402  0.3484 -0.7107 -0.0735
   12MOL0    Cl 1529   5.827  11.035   3.437 -0.2018  0.0412 -0.3115
   12MOL0     C 1530   6.095  10.813   4.003 -0.0173 -0.2091  0.3960
   12MOL0     C 1531   6.000  10.736   4.067 -0.5287 -0.8107 -1.1346
   12MOL0     O 1532   6.000  10.501   4.337  0.2740 -0.3489 -0.7502
   12MOL0     C 1533   5.754  10.388   4.417 -0.0560 -0.1238  0.6772
   12MOL0     C 1534   5.635  10.328   4.443 -0.4099 -0.9566 -0.1524
   12MOL0     N 1535   5.055   9.844   4.674 -0.3976 -0.5179  0.1494
   12MOL0     N 1536   4.944   9.914   4.695  0.8956  1.0014 -0.8508
   12MOL0     C 1537   5.733  10.595   4.697 -1.1414  0.6036 -1.2178
   12MOL0     C 1538   5.871  10.617   4.709 -0.1575 -0.6473  0.0575
   12MOL0     C 1539   6.313  10.553   4.913 -0.0371  0.7587  0.4606
   12MOL0     C 1540   6.377  10.596   5.025  0.1268  0.3384  0.0958
   12MOL0     C 1541   6.511  10.599   5.033 -1.1574  0.8189 -0.1409
   12MOL0     C 1542   6.590  10.550   4.923  0.0771  0.2558  0.2523
   12MOL0     O 1543   6.727  10.532   4.917 -0.7608 -0.0819 -0.1313
   12MOL0     C 1544   6.795  10.556   5.041 -0.1345  1.0708 -0.1299
   12MOL0     C 1545   6.941  10.537   5.023 -0.1491  0.3463  0.0337
   12MOL0     C 1546   6.993  10.685   4.979 -0.3658  0.0165 -0.0637
   12MOL0     C 1547   7.140  10.700   4.941 -0.4689  0.2670 -0.7920
   12MOL0     C 1548   7.229  10.681   5.056  0.5834  0.4948 -0.0431
   12MOL0     C 1549   7.296  10.680   5.153 -0.1358 -0.6326  0.0094
   12MOL0     C 1550   6.528  10.531   4.803 -0.5717 -0.7634  0.2639
   12MOL0     C 1551   6.386  10.516   4.798  0.4832 -0.3369 -0.2393
   12MOL0     C 1552   6.329  10.451   4.666  0.0920 -0.7074  0.3177
   12MOL0     H 1553   5.936  10.392   4.937  0.5664  0.0346  0.1678
   12MOL0     H 1554   5.722  10.342   4.930  2.1482 -0.4206  2.0326
   12MOL0     H 1555   5.491  10.321   4.855  1.6672  0.5164 -0.6742
   12MOL0     H 1556   5.501  10.465   4.976 -1.7251  0.0271  0.4452
   12MOL0     H 1557   5.294  10.553   4.875 -1.1484 -0.4903 -3.1396
   12MOL0     H 1558   5.272  10.407   4.978 -1.2230 -0.6529  0.0580
   12MOL0     H 1559   5.248  10.259   4.781 -1.7850 -0.4701 -0.9898
   12MOL0     H 1560   5.283  10.385   4.669  0.0174  4.4831  0.0385
   12MOL0     H 1561   5.045  10.366   4.861 -1.1757 -0.9437 -1.1802
   12MOL0     H 1562   5.091  10.520   4.790 -0.0822 -0.4601  2.8021
   12MOL0     H 1563   4.919  10.450   4.648  0.5291  0.3887 -2.2381
   12MOL0     H 1564   5.054  10.395   4.562 -0.5468  1.1289 -0.5777
   12MOL0     H 1565   5.038  10.167   4.654 -1.1405 -1.6708  3.3199
   12MOL0     H 1566   4.906  10.211   4.762  1.2171 -0.5947  0.3438
   12MOL0     H 1567   4.895  10.210   4.458 -2.2932  1.2380 -0.3062
   12MOL0     H 1568   4.762  10.273   4.556 -0.2325  0.5662 -0.3955
   12MOL0     H 1569   4.724  10.071   4.670  2.0389 -1.0786  1.5379
   12MOL0     H 1570   4.721  10.040   4.489 -0.6313  0.8967  0.9304
   12MOL0     H 1571   4.981   9.990   4.383  1.6507  1.7120  0.2645
   12MOL0     H 1572   5.269   9.795   4.567  1.2135  1.2136  0.4233
   12MOL0     H 1573   5.170   9.705   4.448  1.7480  0.3416 -0.9424
   12MOL0     H 1574   5.354   9.832   4.357 -1.2591 -1.7077 -2.4993
   12MOL0     H 1575   5.196   9.871   4.284 -2.5618 -0.9525  1.6901
   12MOL0     H 1576   5.333  10.034   4.509  0.7658 -3.2058  0.1253
   12MOL0     H 1577   5.204  10.090   4.402  0.1301 -1.4418  0.0553
   12MOL0     H 1578   5.360  10.137   4.221  0.8706 -0.5095 -1.0112
   12MOL0     H 1579   5.484  10.033   4.295  0.0505 -0.5083 -0.5482
   12MOL0     H 1580   5.569  10.190   4.143  0.0779 -2.4333  2.6700
   12MOL0     H 1581   5.781  10.303   4.090 -0.3305 -2.7280  0.2217
   12MOL0     H 1582   6.169  10.440   4.057 -0.8877 -0.0632 -0.0717
   12MOL0     H 1583   6.327  10.578   3.923 -1.8016 -1.5240 -1.8405
   12MOL0     H 1584   6.319  11.009   3.970  0.6037 -0.3669  1.7808
   12MOL0     H 1585   6.421  10.876   4.014  0.0856  1.9750 -0.1257
   12MOL0     H 1586   6.536  11.039   3.878 -0.2907  0.3210  0.5525
   12MOL0     H 1587   6.539  10.885   3.794  0.3022  1.2790 -0.3090
   12MOL0     H 1588   6.485  11.071   3.634 -0.6841  1.4662 -0.7940
   12MOL0     H 1589   6.377  10.941   3.630  0.7256  0.2136 -0.7853
   12MOL0     H 1590   6.344  11.184   3.817  3.3592  2.0348 -2.2327
   12MOL0     H 1591   6.206  11.072   3.749 -0.8940  0.8725 -2.2690
   12MOL0     H 1592   6.370  11.271   3.597  0.0678  0.4922 -0.6340
   12MOL0     H 1593   6.209  11.301   3.677 -0.2748 -0.8545  1.4352
   12MOL0     H 1594   6.214  11.261   3.428  2.5665 -0.0413 -0.2564
   12MOL0     H 1595   6.258  11.095   3.463  1.3577  1.0069  0.9128
   12MOL0     H 1596   6.001  11.194   3.596 -0.0569  0.8819 -1.0001
   12MOL0     H 1597   6.055  11.026   3.561 -0.3166 -1.3670 -5.1035
   12MOL0     H 1598   5.947  11.239   3.375  0.4938 -0.7186 -0.2529
   12MOL0     H 1599   6.032  11.091   3.321  0.4771  1.6816 -1.4155
   12MOL0     H 1600   6.080  10.918   3.978 -0.6495  0.5796  3.6570
   12MOL0     H 1601   5.908  10.780   4.103 -0.4043 -1.4680  0.0320
   12MOL0     H 1602   5.816  10.426   4.497 -0.2022  1.7794 -0.0653
   12MOL0     H 1603   5.587  10.339   4.540 -0.7274  0.8703 -0.4654
   12MOL0     H 1604   5.671  10.651   4.627 -0.5198  3.2148  0.1970
   12MOL0     H 1605   5.902  10.708   4.659 -2.1903  2.2522  3.5487
   12MOL0     H 1606   6.316  10.623   5.111  0.6598  1.1938  0.2230
   12MOL0     H 1607   6.563  10.629   5.123  1.0240 -0.3022 -0.9400
   12MOL0     H 1608   6.753  10.471   5.097 -2.9244  1.8044 -0.9371
   12MOL0     H 1609   6.762  10.654   5.077 -3.6321  0.4611 -1.2922
   12MOL0     H 1610   6.956  10.464   4.943  0.9890 -0.0390  0.5886
   12MOL0     H 1611   6.979  10.499   5.118 -0.6688 -0.0214  0.0983
   12MOL0     H 1612   6.986  10.759   5.059  1.9721  0.3250 -0.0707
   12MOL0     H 1613   6.941  10.717   4.888 -0.6774 -0.2390  0.0270
   12MOL0     H 1614   7.159  10.626   4.863 -1.5716 -0.1494 -0.6937
   12MOL0     H 1615   7.148  10.801   4.901 -1.0471  1.9516  2.9685
   12MOL0     H 1616   7.354  10.682   5.243 -0.6018 -0.4933  0.3065
   12MOL0     H 1617   6.587  10.495   4.718 -1.5351 -0.7666 -0.4144
   12MOL0     H 1618   6.233  10.401   4.681  0.5962 -1.3824  1.4164
   12MOL0     H 1619   6.313  10.534   4.596  0.0510 -2.5194 -1.9442
   12MOL0     H 1620   6.403  10.385   4.619 -1.3301 -0.6113 -2.2920
   13MOL0     O 1621   3.299   1.972   4.169  0.1632  0.7633  0.4431
   13MOL0     C 1622   3.342   1.996   4.058 -0.4044 -0.4861  0.2644
   13MOL0     O 1623   3.473   1.998   4.014  0.4102  0.5894  0.2418
   13MOL0     C 1624   3.577   2.026   4.102  0.4188  0.0938  0.3195
   13MOL0     C 1625   3.572   2.038   4.244  0.5669 -0.2618  0.1080
   13MOL0     C 1626   3.684   2.075   4.316 -0.5058  0.0059  0.2299
   13MOL0     C 1627   3.803   2.104   4.256 -1.2772 -0.1084 -0.5002
   13MOL0     O 1628   3.904   2.137   4.350 -1.2431  1.2851 -0.0766
   13MOL0     C 1629   4.037   2.120   4.299 -0.4066  0.5709 -0.4018
   13MOL0     C 1630   4.130   2.187   4.401  0.1013 -0.2716  0.0478
   13MOL0     C 1631   4.273   2.222   4.342  0.3528 -0.1035  0.5925
   13MOL0     C 1632   4.339   2.097   4.266 -0.5639 -0.1210 -0.3849
   13MOL0     C 1633   4.490   2.119   4.248 -0.7863 -0.4982 -0.1359
   13MOL0     C 1634   4.526   2.249   4.178 -0.8080 -0.0336 -0.1285
   13MOL0     C 1635   4.492   2.255   4.032  0.2631 -0.4239 -0.0858
   13MOL0     C 1636   4.545   2.143   3.945  0.0645 -0.1296  0.6680
   13MOL0     N 1637   4.482   2.151   3.809 -0.1137  0.2657  0.1421
   13MOL0     C 1638   4.492   2.249   3.711 -0.4766 -0.2848 -0.7345
   13MOL0     C 1639   4.450   2.198   3.590 -0.2637 -0.4585  0.5609
   13MOL0     C 1640   4.450   2.272   3.462 -0.7816 -0.4479 -0.0145
   13MOL0     C 1641   4.606   2.265   3.415 -0.4155 -0.4842 -0.6008
   13MOL0     C 1642   4.641   2.401   3.335  0.0360 -0.2294 -0.1247
   13MOL0     C 1643   4.668   2.523   3.429 -0.1349  0.0088  0.1526
   13MOL0     O 1644   4.747   2.501   3.554  0.2190  0.7916  0.0495
   13MOL0     C 1645   4.880   2.472   3.549  0.1871  0.0300 -0.3727
   13MOL0     C 1646   4.933   2.444   3.680  0.8966  1.1861  0.4590
   13MOL0     C 1647   5.073   2.437   3.697  0.6530  0.2709  0.1858
   13MOL0     C 1648   5.154   2.432   3.583  0.1265 -0.1788  1.3100
   13MOL0     C 1649   5.295   2.414   3.603 -0.3709  0.3767  0.1152
   13MOL0     O 1650   5.338   2.406   3.738 -0.0392  0.5300 -0.2537
   13MOL0     C 1651   5.476   2.377   3.755  0.3252 -0.1053  0.1945
   13MOL0     C 1652   5.513   2.266   3.840  0.3035 -0.9404 -0.5530
   13MOL0     C 1653   5.644   2.255   3.892 -0.2998 -0.1088  0.4266
   13MOL0     C 1654   5.741   2.340   3.847 -0.3465 -0.5097  0.4079
   13MOL0     O 1655   5.867   2.325   3.899 -0.5164  0.0509 -0.2486
   13MOL0     C 1656   5.981   2.364   3.821  0.1137  0.2838  0.1674
   13MOL0     C 1657   6.114   2.301   3.880  0.2165  0.0564  0.4303
   13MOL0     C 1658   6.149   2.380   4.003  0.1529 -0.1624  0.2888
   13MOL0     C 1659   6.282   2.332   4.074  0.6890 -0.2581  0.6448
   13MOL0     C 1660   6.336   2.438   4.171 -0.5067 -0.1737 -0.4678
   13MOL0     C 1661   6.449   2.390   4.256 -0.7340 -0.7663 -0.6571
   13MOL0     C 1662   6.591   2.410   4.212  1.0745  0.9292 -0.0825
   13MOL0     C 1663   6.684   2.362   4.315 -0.8467 -0.0389  0.4757
   13MOL0    Cl 1664   6.853   2.361   4.246 -0.0653  0.2811 -0.0821
   13MOL0     C 1665   5.713   2.432   3.744 -0.5097  0.2322 -0.9131
   13MOL0     C 1666   5.584   2.443   3.694  0.6308 -0.9230  0.5228
   13MOL0     O 1667   5.371   2.404   3.502 -0.3661 -0.0367  0.1169
   13MOL0     C 1668   5.104   2.466   3.457  0.0074 -0.2096  0.8980
   13MOL0     C 1669   4.966   2.488   3.434 -0.4303  0.2350 -0.5482
   13MOL0     N 1670   4.399   2.073   3.619  0.2204 -0.0747  0.2348
   13MOL0     N 1671   4.427   2.049   3.746 -0.7533  1.1992  0.0581
   13MOL0     C 1672   3.815   2.087   4.118  0.4042  1.1348  0.2475
   13MOL0     C 1673   3.703   2.053   4.042  0.6798  0.4855  0.5741
   13MOL0     C 1674   3.242   2.020   3.954 -0.8610  0.8486  0.5126
   13MOL0     C 1675   3.277   1.995   3.818 -0.0380  0.3655  0.5343
   13MOL0     C 1676   3.185   2.009   3.710  0.3081 -0.0304  0.0822
   13MOL0     C 1677   3.055   2.041   3.734 -0.0357 -0.1355  0.0888
   13MOL0     O 1678   2.964   2.045   3.620  0.4837 -0.1846  0.2323
   13MOL0     C 1679   2.857   2.136   3.642  0.8693  0.7694  1.3732
   13MOL0     C 1680   2.722   2.082   3.637  1.4258  0.4372  0.7574
   13MOL0     C 1681   2.670   2.042   3.495 -0.4885  0.4190  0.6314
   13MOL0     C 1682   2.534   1.972   3.508 -0.5780 -0.5070  0.6199
   13MOL0     C 1683   2.429   2.052   3.573 -0.0898 -0.1908 -0.0128
   13MOL0     C 1684   2.342   2.120   3.623  0.2856 -0.8733  0.0673
   13MOL0     C 1685   3.022   2.065   3.868  0.2394  0.0390 -0.3375
   13MOL0     C 1686   3.110   2.057   3.974 -0.2987  0.0586  0.2495
   13MOL0     C 1687   3.054   2.085   4.112  0.0117  0.2836 -0.0079
   13MOL0     H 1688   3.477   2.031   4.297  1.7685 -1.5763  2.2180
   13MOL0     H 1689   3.671   2.096   4.422 -1.2067 -1.0917  0.3826
   13MOL0     H 1690   4.057   2.014   4.283  3.1765  1.2408 -1.1500
   13MOL0     H 1691   4.055   2.176   4.206 -2.8030  0.4610 -1.0121
   13MOL0     H 1692   4.152   2.124   4.488  1.5036  0.2748  0.1206
   13MOL0     H 1693   4.088   2.281   4.439 -2.3368 -0.3822 -2.0894
   13MOL0     H 1694   4.344   2.250   4.420  2.1359 -0.0491 -0.9727
   13MOL0     H 1695   4.263   2.307   4.274 -0.4922 -1.8655 -1.5945
   13MOL0     H 1696   4.321   2.011   4.331  2.9002 -3.1515 -3.0049
   13MOL0     H 1697   4.279   2.067   4.180 -1.1232  0.2160 -0.1217
   13MOL0     H 1698   4.533   2.131   4.348  0.1897 -0.9900 -0.4860
   13MOL0     H 1699   4.544   2.032   4.210  0.3040  0.1744 -0.1553
   13MOL0     H 1700   4.481   2.337   4.225 -2.0053 -0.9364  0.4476
   13MOL0     H 1701   4.633   2.251   4.199 -0.8244 -1.9705  0.2391
   13MOL0     H 1702   4.516   2.354   3.992  0.2936 -0.2072  0.4623
   13MOL0     H 1703   4.384   2.248   4.046  0.4388 -2.4288  0.6553
   13MOL0     H 1704   4.653   2.160   3.942  0.1631  0.4593  3.9473
   13MOL0     H 1705   4.522   2.044   3.985  1.2276 -1.6446 -2.0938
   13MOL0     H 1706   4.531   2.350   3.715  0.1770 -0.4937 -1.5262
   13MOL0     H 1707   4.383   2.231   3.386 -0.0714  1.0584 -1.5099
   13MOL0     H 1708   4.410   2.374   3.468 -2.3496 -0.9288 -1.3661
   13MOL0     H 1709   4.678   2.266   3.498 -0.0674  1.3529 -0.8948
   13MOL0     H 1710   4.632   2.176   3.356 -0.3854  0.1647 -1.5843
   13MOL0     H 1711   4.560   2.410   3.263 -0.8174 -0.9540  0.7075
   13MOL0     H 1712   4.736   2.375   3.288  0.8787  1.0748  0.7885
   13MOL0     H 1713   4.572   2.568   3.457 -0.3399 -0.2376 -0.1500
   13MOL0     H 1714   4.739   2.590   3.379 -1.4427 -0.6398 -2.7340
   13MOL0     H 1715   4.865   2.450   3.765  1.2734 -1.0013  0.9689
   13MOL0     H 1716   5.118   2.428   3.795  1.2652  0.5726 -0.0569
   13MOL0     H 1717   5.431   2.203   3.873 -1.2618  1.0356 -0.4271
   13MOL0     H 1718   5.663   2.191   3.978  2.7294 -2.7400 -1.9225
   13MOL0     H 1719   5.964   2.322   3.721  1.6000  1.7778 -0.7580
   13MOL0     H 1720   5.987   2.472   3.804 -1.1471  0.2312 -0.8009
   13MOL0     H 1721   6.100   2.198   3.915  1.1110 -0.4005 -0.5098
   13MOL0     H 1722   6.195   2.300   3.807 -0.4565  1.2021 -0.3727
   13MOL0     H 1723   6.176   2.482   3.973 -0.0219  0.1565  1.1839
   13MOL0     H 1724   6.072   2.386   4.080  0.5781  0.9664  0.6443
   13MOL0     H 1725   6.350   2.327   3.989 -0.0816 -1.7634  0.0601
   13MOL0     H 1726   6.264   2.234   4.120 -5.7961 -0.6575 -1.5948
   13MOL0     H 1727   6.250   2.457   4.235  0.8315  0.1704  1.3166
   13MOL0     H 1728   6.363   2.536   4.129  0.1837  0.7194  1.8998
   13MOL0     H 1729   6.451   2.452   4.346 -1.8892 -3.0806  1.0712
   13MOL0     H 1730   6.439   2.289   4.296 -2.7236  0.6697  2.9070
   13MOL0     H 1731   6.610   2.515   4.189  0.9778  1.3306  1.5448
   13MOL0     H 1732   6.609   2.350   4.122  1.7465 -1.1204  1.3602
   13MOL0     H 1733   6.690   2.422   4.406 -3.5559 -1.5849  1.7918
   13MOL0     H 1734   6.654   2.261   4.343 -0.4412 -1.0763 -2.5197
   13MOL0     H 1735   5.797   2.496   3.721  1.8565 -2.3259  0.1065
   13MOL0     H 1736   5.556   2.516   3.618 -0.8465  2.1001  3.6841
   13MOL0     H 1737   5.183   2.492   3.387  0.7739 -0.4817  1.6421
   13MOL0     H 1738   4.929   2.534   3.342 -2.2724 -1.3815 -0.6834
   13MOL0     H 1739   3.901   2.080   4.052 -0.5668  2.7984 -1.2654
   13MOL0     H 1740   3.707   2.044   3.934  1.5944  0.5913  0.5943
   13MOL0     H 1741   3.374   1.963   3.783  0.1625  1.4172  0.0736
   13MOL0     H 1742   3.217   1.991   3.608  0.4392 -2.5858  0.5147
   13MOL0     H 1743   2.873   2.216   3.569 -3.0404  0.4843 -0.0266
   13MOL0     H 1744   2.860   2.184   3.741  1.5888  1.7692  0.8820
   13MOL0     H 1745   2.647   2.143   3.687  0.1060  3.4403 -4.2097
   13MOL0     H 1746   2.729   1.983   3.682  1.6010 -0.8893 -1.9978
   13MOL0     H 1747   2.738   1.970   3.449  0.3373 -0.1162  2.6040
   13MOL0     H 1748   2.653   2.124   3.424  0.0316 -1.7023 -2.1237
   13MOL0     H 1749   2.494   1.952   3.409  1.9157 -1.2675 -0.3242
   13MOL0     H 1750   2.551   1.880   3.566  2.1748  0.0463  0.8285
   13MOL0     H 1751   2.265   2.184   3.662  1.2057 -0.5420  1.3863
   13MOL0     H 1752   2.915   2.064   3.888 -0.3057 -2.3850 -2.8114
   13MOL0     H 1753   2.956   2.132   4.108  1.1810  3.1376  1.9411
   13MOL0     H 1754   3.035   1.992   4.168  2.0451  0.8692  1.7875
   13MOL0     H 1755   3.120   2.149   4.172  2.3678 -2.0412  0.0822
   14MOL0     O 1756   4.336   8.072  11.033  0.2780  0.9512 -0.4272
   14MOL0     C 1757   4.374   7.994  10.945  0.8442 -0.4807 -0.8775
   14MOL0     O 1758   4.315   7.873  10.912  0.1935 -0.2537  0.5360
   14MOL0     C 1759   4.208   7.821  10.980 -0.2720 -0.0761  0.0418
   14MOL0     C 1760   4.191   7.822  11.120 -0.2130  0.8572 -0.2027
   14MOL0     C 1761   4.076   7.778  11.177  0.7121  0.1201 -0.5026
   14MOL0     C 1762   3.964   7.738  11.098  0.9970 -0.2258 -0.5863
   14MOL0     O 1763   3.834   7.720  11.132  0.2251  0.5133  0.2482
   14MOL0     C 1764   3.805   7.744  11.269 -0.7246  0.8366  0.2120
   14MOL0     C 1765   3.676   7.679  11.309  0.1388  0.7566 -0.0927
   14MOL0     C 1766   3.688   7.525  11.339  0.2643  0.1956  0.0722
   14MOL0     C 1767   3.556   7.463  11.388 -1.4931  0.0456 -0.0539
   14MOL0     C 1768   3.565   7.311  11.407 -0.3356  0.1652  0.7647
   14MOL0     C 1769   3.429   7.243  11.446 -0.0355  0.3371 -0.5165
   14MOL0     C 1770   3.435   7.091  11.457  0.0091  0.5700 -0.5426
   14MOL0     C 1771   3.294   7.032  11.471 -0.1194  0.1017  0.2105
   14MOL0     N 1772   3.294   6.887  11.450  0.4538 -0.1389  0.0103
   14MOL0     C 1773   3.245   6.820  11.344 -0.1775  0.0079  0.1592
   14MOL0     C 1774   3.252   6.692  11.381  0.4244  0.2379  0.2051
   14MOL0     C 1775   3.222   6.566  11.297  0.5038 -0.5313  0.5244
   14MOL0     C 1776   3.076   6.569  11.233 -0.7443  0.5008  0.4091
   14MOL0     C 1777   3.025   6.435  11.169 -0.3175 -0.2858 -0.5102
   14MOL0     C 1778   2.879   6.432  11.129  0.3612 -0.3600  0.5032
   14MOL0     O 1779   2.870   6.504  11.003 -0.3798 -0.6131 -0.0551
   14MOL0     C 1780   2.747   6.494  10.932 -0.3122 -0.8659 -0.1654
   14MOL0     C 1781   2.635   6.444  10.990 -0.5985 -0.4040 -0.0932
   14MOL0     C 1782   2.511   6.461  10.922 -0.3392 -0.5440 -0.7916
   14MOL0     C 1783   2.503   6.514  10.793  0.8228  0.3168  0.7954
   14MOL0     C 1784   2.369   6.528  10.725 -0.1730 -0.5733 -0.7775
   14MOL0     O 1785   2.263   6.547  10.815  0.5250 -0.1880  0.5545
   14MOL0     C 1786   2.140   6.536  10.748  0.8426 -0.8790 -0.1889
   14MOL0     C 1787   2.089   6.428  10.674 -0.4726  0.0366 -0.5302
   14MOL0     C 1788   1.965   6.429  10.618  0.0890 -0.6464 -0.3615
   14MOL0     C 1789   1.879   6.538  10.628 -0.3250  0.2739 -0.7473
   14MOL0     O 1790   1.754   6.544  10.571 -0.2356 -0.1764 -0.1701
   14MOL0     C 1791   1.696   6.444  10.485 -0.4516 -0.2480  0.8914
   14MOL0     C 1792   1.561   6.483  10.435 -1.5374 -0.0649 -0.5402
   14MOL0     C 1793   1.563   6.588  10.330  0.3285 -0.0013 -0.6171
   14MOL0     C 1794   1.417   6.610  10.287  0.4609 -0.5457  0.5157
   14MOL0     C 1795   1.418   6.741  10.211 -0.4761 -0.0754  0.3519
   14MOL0     C 1796   1.282   6.768  10.145  0.3300  0.5584 -0.0140
   14MOL0     C 1797   1.295   6.771   9.995 -0.1870  0.2002 -0.1590
   14MOL0     C 1798   1.159   6.780   9.925 -0.4563  0.6557  0.1031
   14MOL0    Cl 1799   1.175   6.754   9.753 -0.3791  0.0661  0.0149
   14MOL0     C 1800   1.933   6.654  10.687 -0.2079 -0.1032 -0.6783
   14MOL0     C 1801   2.056   6.654  10.749 -0.2192  0.5644 -0.0617
   14MOL0     O 1802   2.360   6.536  10.601  0.3357  0.7206 -0.3132
   14MOL0     C 1803   2.626   6.565  10.734  0.9005  0.5757 -0.0892
   14MOL0     C 1804   2.747   6.560  10.809 -0.5738 -0.0401 -0.2271
   14MOL0     N 1805   3.302   6.679  11.504  1.0128 -0.4219 -0.6849
   14MOL0     N 1806   3.332   6.796  11.546  0.3968 -1.1069  0.5860
   14MOL0     C 1807   3.986   7.730  10.960  0.4798 -0.2587  0.4340
   14MOL0     C 1808   4.099   7.779  10.901  0.1334 -0.2557 -0.2557
   14MOL0     C 1809   4.501   8.030  10.877 -0.1180 -0.5217 -0.1018
   14MOL0     C 1810   4.559   7.931  10.800  0.2444  1.0094  0.3994
   14MOL0     C 1811   4.675   7.941  10.735  0.1345  0.4740  0.1705
   14MOL0     C 1812   4.754   8.056  10.766 -0.1391  0.1247 -0.3062
   14MOL0     O 1813   4.889   8.060  10.730 -0.1943 -0.5547  0.4391
   14MOL0     C 1814   4.955   7.955  10.661  0.7968 -0.5005  0.7500
   14MOL0     C 1815   5.083   8.002  10.606 -0.1988 -0.4823  0.6846
   14MOL0     C 1816   5.204   8.017  10.715 -0.6458  0.5250  0.5475
   14MOL0     C 1817   5.336   8.080  10.657 -0.9633  0.0840 -0.1773
   14MOL0     C 1818   5.316   8.230  10.637  0.0670  0.4078  0.2152
   14MOL0     C 1819   5.298   8.351  10.629  0.2643 -0.7590 -0.5781
   14MOL0     C 1820   4.707   8.161  10.844  0.5120  0.1365  0.2772
   14MOL0     C 1821   4.579   8.144  10.900  0.2503 -0.4375 -0.5619
   14MOL0     C 1822   4.532   8.255  11.000 -0.0485 -0.6293  0.4259
   14MOL0     H 1823   4.269   7.861  11.185 -0.9780  1.9471  0.0891
   14MOL0     H 1824   4.066   7.777  11.285 -1.1119 -1.4957 -0.6170
   14MOL0     H 1825   3.879   7.706  11.341  0.1302  1.2652 -0.4170
   14MOL0     H 1826   3.803   7.851  11.291  0.9189  0.9837 -0.2314
   14MOL0     H 1827   3.605   7.701  11.228  0.3581  3.2547  0.3130
   14MOL0     H 1828   3.650   7.725  11.405 -3.4092  1.1800 -1.0960
   14MOL0     H 1829   3.768   7.529  11.413  1.3469 -0.5100 -1.0217
   14MOL0     H 1830   3.716   7.473  11.247  2.5098 -1.8374  1.7988
   14MOL0     H 1831   3.526   7.517  11.478  3.5218  1.4784  1.0902
   14MOL0     H 1832   3.501   7.486  11.296 -0.2011 -0.8719 -1.1002
   14MOL0     H 1833   3.588   7.270  11.308 -0.4948  1.2498  0.2593
   14MOL0     H 1834   3.644   7.278  11.475  0.2191  3.3699  1.8401
   14MOL0     H 1835   3.392   7.294  11.536  1.5817  0.5443  0.0706
   14MOL0     H 1836   3.355   7.267  11.369  1.4624 -1.7237 -2.7679
   14MOL0     H 1837   3.499   7.060  11.540 -0.7240  0.6008  0.0513
   14MOL0     H 1838   3.464   7.053  11.358  0.8431  0.2473 -0.1825
   14MOL0     H 1839   3.261   7.057  11.573  0.2144  1.7562 -0.0574
   14MOL0     H 1840   3.221   7.078  11.404 -1.1535  3.0388  3.0763
   14MOL0     H 1841   3.216   6.864  11.249 -3.3037  3.3678  2.3840
   14MOL0     H 1842   3.289   6.561  11.211 -2.4088  0.5964 -1.9877
   14MOL0     H 1843   3.229   6.482  11.366 -2.9871  1.0157  3.0851
   14MOL0     H 1844   2.992   6.596  11.296 -0.4618  3.0236 -0.2049
   14MOL0     H 1845   3.095   6.634  11.147 -0.9851  0.0841  0.0372
   14MOL0     H 1846   3.027   6.364  11.252 -0.8760  0.5606  0.2539
   14MOL0     H 1847   3.090   6.404  11.086  1.6403  0.1992  0.7683
   14MOL0     H 1848   2.803   6.460  11.202  2.1294  1.6211  1.7164
   14MOL0     H 1849   2.855   6.332  11.091  1.2313  0.2523 -1.8178
   14MOL0     H 1850   2.631   6.402  11.090 -0.6328  3.1785  1.5460
   14MOL0     H 1851   2.427   6.425  10.981  0.8261  0.1160  1.3731
   14MOL0     H 1852   2.163   6.352  10.653  1.6940  1.0771  2.5050
   14MOL0     H 1853   1.935   6.338  10.566  0.4135 -0.7035 -0.4557
   14MOL0     H 1854   1.767   6.425  10.403 -1.0877 -1.0857  0.5338
   14MOL0     H 1855   1.689   6.349  10.539 -1.1988  0.6254  2.3936
   14MOL0     H 1856   1.506   6.394  10.402 -3.9753  0.6356  1.3466
   14MOL0     H 1857   1.502   6.516  10.521 -1.9102 -0.4209 -0.6529
   14MOL0     H 1858   1.601   6.675  10.385  0.5900 -0.4884 -0.0207
   14MOL0     H 1859   1.631   6.560  10.249  1.7415 -0.6746  0.7608
   14MOL0     H 1860   1.350   6.616  10.373  1.3121  1.3435  1.1074
   14MOL0     H 1861   1.397   6.524  10.223 -1.3370 -0.2306  0.6042
   14MOL0     H 1862   1.487   6.733  10.126 -0.3609 -1.7646  0.5553
   14MOL0     H 1863   1.446   6.826  10.273 -1.8330  0.6758 -0.0396
   14MOL0     H 1864   1.214   6.695  10.188  2.7097 -0.5190  2.2505
   14MOL0     H 1865   1.252   6.864  10.189  0.5745  1.1480 -1.0851
   14MOL0     H 1866   1.339   6.676   9.962  0.8834  0.9003 -0.8134
   14MOL0     H 1867   1.362   6.854   9.972  0.8610  0.6081  3.5961
   14MOL0     H 1868   1.090   6.709   9.971 -1.6091  0.6485 -1.5288
   14MOL0     H 1869   1.116   6.879   9.943  1.4662  1.9768 -1.9856
   14MOL0     H 1870   1.876   6.747  10.688  1.4345  0.9411 -1.2112
   14MOL0     H 1871   2.105   6.741  10.791  1.4427  0.6199 -1.9919
   14MOL0     H 1872   2.626   6.611  10.636  2.2403  3.6620  1.2323
   14MOL0     H 1873   2.838   6.593  10.760 -0.7101  0.4329 -0.1642
   14MOL0     H 1874   3.906   7.695  10.894 -1.5004  1.7175  1.6527
   14MOL0     H 1875   4.115   7.771  10.794  0.9781  5.0469 -0.8172
   14MOL0     H 1876   4.504   7.837  10.795  2.7653 -0.6257  1.5749
   14MOL0     H 1877   4.712   7.863  10.669  0.8735  1.5576 -0.7285
   14MOL0     H 1878   4.895   7.925  10.575 -1.6168 -1.6155  2.6667
   14MOL0     H 1879   4.973   7.870  10.729 -0.2438  1.7437  4.1254
   14MOL0     H 1880   5.074   8.098  10.554 -5.3795  0.1062  2.0830
   14MOL0     H 1881   5.124   7.929  10.536  0.5771  0.0193  0.6058
   14MOL0     H 1882   5.227   7.918  10.757  0.9557  0.3747 -0.5784
   14MOL0     H 1883   5.160   8.070  10.800  0.4840 -0.0798  1.5275
   14MOL0     H 1884   5.415   8.070  10.733 -1.0224  0.3780 -0.0757
   14MOL0     H 1885   5.381   8.031  10.570  3.0927  3.0737 -0.0745
   14MOL0     H 1886   5.313   8.456  10.619  1.8354 -0.6847  1.7863
   14MOL0     H 1887   4.773   8.245  10.866  0.8609 -0.8112  3.3157
   14MOL0     H 1888   4.426   8.270  10.975 -0.6570 -1.0181  2.6037
   14MOL0     H 1889   4.549   8.217  11.101 -2.7999 -0.6667  0.9523
   14MOL0     H 1890   4.573   8.356  10.989 -0.2615 -0.7795 -2.9280
   15MOL0     O 1891   5.517  11.366   4.742  0.6008  0.0403  0.5937
   15MOL0     C 1892   5.469  11.456   4.674 -0.3109 -0.1245  0.0420
   15MOL0     O 1893   5.528  11.573   4.628  0.0214  0.1257  0.0532
   15MOL0     C 1894   5.665  11.567   4.605  0.3938 -0.1139 -0.1440
   15MOL0     C 1895   5.747  11.459   4.570 -0.3345  0.1219 -0.2186
   15MOL0     C 1896   5.884  11.461   4.578  0.1194  0.1773  0.3169
   15MOL0     C 1897   5.954  11.582   4.616 -0.5923  1.0821  0.3626
   15MOL0     O 1898   6.089  11.602   4.617 -0.4505  0.1057  0.3757
   15MOL0     C 1899   6.173  11.485   4.582 -0.0625 -0.6020  0.8965
   15MOL0     C 1900   6.320  11.513   4.615  0.9547 -0.6510 -0.3741
   15MOL0     C 1901   6.401  11.388   4.608 -0.3718 -0.0362 -0.6254
   15MOL0     C 1902   6.553  11.419   4.612  0.0552 -0.6856 -0.4205
   15MOL0     C 1903   6.640  11.314   4.545  0.3228 -0.2944  0.3961
   15MOL0     C 1904   6.787  11.370   4.539  0.5316  0.0014  1.0394
   15MOL0     C 1905   6.872  11.311   4.428 -0.1270 -0.0995 -0.8237
   15MOL0     C 1906   7.016  11.348   4.429 -0.3898 -0.2186  0.4384
   15MOL0     N 1907   7.090  11.237   4.490  0.3136  0.5916 -0.5235
   15MOL0     C 1908   7.126  11.221   4.623  0.4098  0.4346 -0.3306
   15MOL0     C 1909   7.234  11.136   4.621 -0.1610  0.5153 -1.0857
   15MOL0     C 1910   7.308  11.061   4.730  0.5334  0.0590 -0.1057
   15MOL0     C 1911   7.399  11.172   4.794  0.1587 -0.4877  0.2147
   15MOL0     C 1912   7.502  11.091   4.882  0.0933 -0.1271 -0.1644
   15MOL0     C 1913   7.616  11.026   4.805  0.7358  0.0758 -0.6718
   15MOL0     O 1914   7.685  10.951   4.903 -0.5929  0.0407 -0.1494
   15MOL0     C 1915   7.792  10.999   4.971 -0.3286  0.0299 -0.5150
   15MOL0     C 1916   7.875  10.905   5.044  0.5029  0.3206  0.1152
   15MOL0     C 1917   7.989  10.949   5.111 -0.1637  0.2505 -0.0659
   15MOL0     C 1918   8.018  11.081   5.121  0.1988 -1.1189  0.7206
   15MOL0     C 1919   8.136  11.128   5.190  0.8509 -0.9544  1.0114
   15MOL0     O 1920   8.129  11.256   5.229 -0.0012  1.2047 -0.5630
   15MOL0     C 1921   8.224  11.333   5.289 -1.1687 -0.8925  0.4543
   15MOL0     C 1922   8.365  11.316   5.274 -0.1088  0.5162 -0.2247
   15MOL0     C 1923   8.455  11.403   5.338 -0.2668 -0.1267  0.2773
   15MOL0     C 1924   8.410  11.521   5.398  0.2874  0.4442 -0.1049
   15MOL0     O 1925   8.505  11.605   5.438 -0.4947  0.4051  0.2069
   15MOL0     C 1926   8.472  11.714   5.522 -0.2948  0.7148 -0.4412
   15MOL0     C 1927   8.596  11.795   5.565  0.3097 -0.2225  0.2528
   15MOL0     C 1928   8.684  11.705   5.660  0.0063 -0.7284  0.3647
   15MOL0     C 1929   8.776  11.783   5.761  0.0004  0.1315 -0.4095
   15MOL0     C 1930   8.855  11.686   5.844 -0.6880 -1.6133  0.5031
   15MOL0     C 1931   8.950  11.762   5.942  0.2406 -0.4406 -0.1757
   15MOL0     C 1932   9.038  11.662   6.012 -0.1311 -0.5280  0.0929
   15MOL0     C 1933   9.128  11.735   6.115  0.3660  0.4532  0.0340
   15MOL0    Cl 1934   9.239  11.851   6.032  0.0775  0.0940 -0.3894
   15MOL0     C 1935   8.273  11.532   5.421  0.6075 -0.3781 -0.3640
   15MOL0     C 1936   8.181  11.441   5.365  1.1541  0.7209 -0.2566
   15MOL0     O 1937   8.233  11.054   5.202 -0.1956 -0.0540  0.0262
   15MOL0     C 1938   7.943  11.177   5.050  0.4047  1.0109  0.1333
   15MOL0     C 1939   7.834  11.134   4.971 -0.0145  0.3924 -0.7475
   15MOL0     N 1940   7.268  11.104   4.497  0.5940 -1.0119  0.3281
   15MOL0     N 1941   7.186  11.164   4.419  0.0292  0.3413  0.2560
   15MOL0     C 1942   5.871  11.690   4.650 -0.4057 -1.2069 -0.3866
   15MOL0     C 1943   5.734  11.690   4.653  0.5358  0.1095  0.7764
   15MOL0     C 1944   5.328  11.458   4.663 -0.1443  0.1059  0.2893
   15MOL0     C 1945   5.269  11.558   4.737  0.5497 -0.8510 -0.1561
   15MOL0     C 1946   5.127  11.573   4.732  0.0125 -0.3298 -0.1044
   15MOL0     C 1947   5.049  11.482   4.666  0.2829 -0.4298 -1.0891
   15MOL0     O 1948   4.920  11.483   4.705  0.5945 -1.0434 -0.1136
   15MOL0     C 1949   4.812  11.441   4.618 -0.3174  0.1023  0.1444
   15MOL0     C 1950   4.758  11.301   4.655 -0.7952  0.2558 -0.0544
   15MOL0     C 1951   4.755  11.291   4.804 -0.0787  0.5987  0.3650
   15MOL0     C 1952   4.652  11.380   4.879 -0.6604 -0.5354  0.2164
   15MOL0     C 1953   4.662  11.368   5.020 -0.0607  0.0676  0.0657
   15MOL0     C 1954   4.667  11.339   5.140 -0.8090  0.1510 -1.0267
   15MOL0     C 1955   5.105  11.387   4.589  0.2093 -0.2626  0.4273
   15MOL0     C 1956   5.246  11.368   4.587  0.6840  0.6046  0.1986
   15MOL0     C 1957   5.293  11.251   4.508 -0.1784  0.0864  0.7960
   15MOL0     H 1958   5.694  11.369   4.541 -0.3375  0.0613 -0.0278
   15MOL0     H 1959   5.942  11.371   4.560 -1.3262 -1.0223  1.3794
   15MOL0     H 1960   6.153  11.401   4.650  2.3464 -0.4837  1.8277
   15MOL0     H 1961   6.172  11.459   4.476  1.5563  0.1894  0.6708
   15MOL0     H 1962   6.309  11.575   4.704  1.5880  1.1386 -1.4879
   15MOL0     H 1963   6.358  11.578   4.536 -3.2203  2.5549 -0.0630
   15MOL0     H 1964   6.375  11.310   4.536  1.9902 -0.6410 -0.9379
   15MOL0     H 1965   6.375  11.339   4.703  1.7567  2.5455  1.4655
   15MOL0     H 1966   6.568  11.520   4.572  0.2675 -1.1978 -1.6496
   15MOL0     H 1967   6.575  11.426   4.719  0.7989  1.2593 -0.6572
   15MOL0     H 1968   6.639  11.210   4.577  0.1643  0.2702  2.3971
   15MOL0     H 1969   6.596  11.310   4.445  0.6590 -4.1234  0.2629
   15MOL0     H 1970   6.779  11.477   4.519 -0.2089 -0.2748 -0.2577
   15MOL0     H 1971   6.841  11.351   4.632  0.0241 -2.0169  0.9735
   15MOL0     H 1972   6.822  11.339   4.334 -0.6523  0.5505 -0.3640
   15MOL0     H 1973   6.874  11.202   4.435 -0.0434 -0.0094  0.6812
   15MOL0     H 1974   7.050  11.369   4.327 -1.6078  1.2014  0.2848
   15MOL0     H 1975   7.028  11.439   4.488  1.2453  0.2171 -0.5099
   15MOL0     H 1976   7.077  11.266   4.709  1.0102  2.3460 -0.9241
   15MOL0     H 1977   7.244  11.012   4.804  0.7775 -2.0998 -1.2563
   15MOL0     H 1978   7.361  10.978   4.683  0.4704 -0.3225  0.4802
   15MOL0     H 1979   7.447  11.227   4.713 -1.0044 -1.6804 -1.3455
   15MOL0     H 1980   7.345  11.244   4.855 -1.1401  0.4013 -1.8913
   15MOL0     H 1981   7.446  11.011   4.931 -0.6952  0.8505  0.5804
   15MOL0     H 1982   7.540  11.161   4.956 -0.3825  1.3856 -1.2885
   15MOL0     H 1983   7.683  11.085   4.742  3.5860 -1.2232  0.9447
   15MOL0     H 1984   7.563  10.951   4.745  0.1028  1.3879 -1.8251
   15MOL0     H 1985   7.860  10.797   5.039 -0.3769  0.4148  0.5818
   15MOL0     H 1986   8.053  10.880   5.165 -0.6134 -0.1093  0.0233
   15MOL0     H 1987   8.403  11.249   5.198  2.0088  1.8831 -0.4311
   15MOL0     H 1988   8.560  11.374   5.340 -0.2377 -0.0066  1.5065
   15MOL0     H 1989   8.411  11.775   5.455  0.6337  1.1987 -0.8612
   15MOL0     H 1990   8.407  11.677   5.602 -1.1174 -2.9968 -2.5966
   15MOL0     H 1991   8.643  11.839   5.477 -0.1685 -0.1330  0.0377
   15MOL0     H 1992   8.554  11.880   5.620 -4.6531 -1.4365 -1.1261
   15MOL0     H 1993   8.618  11.636   5.713 -1.1825 -1.2736 -1.7287
   15MOL0     H 1994   8.752  11.650   5.595  0.1695 -2.1569  1.6722
   15MOL0     H 1995   8.718  11.857   5.819  0.0504 -1.6001  2.0137
   15MOL0     H 1996   8.842  11.843   5.698 -0.2345  0.1580 -0.6283
   15MOL0     H 1997   8.902  11.607   5.785  0.1678 -1.4509  0.9488
   15MOL0     H 1998   8.774  11.641   5.902 -0.2617  0.8814  3.2953
   15MOL0     H 1999   9.008  11.832   5.882 -1.2313  0.3790 -0.7068
   15MOL0     H 2000   8.893  11.807   6.023  1.0637 -1.2628  0.8921
   15MOL0     H 2001   9.101  11.615   5.936 -1.2586  1.2098 -1.9918
   15MOL0     H 2002   8.980  11.589   6.069  2.1064 -0.5295  2.5681
   15MOL0     H 2003   9.053  11.784   6.178 -0.2743  0.3253 -0.6150
   15MOL0     H 2004   9.172  11.658   6.179 -0.1028 -1.7555 -2.1847
   15MOL0     H 2005   8.232  11.610   5.485  1.0150  0.5429 -1.2035
   15MOL0     H 2006   8.079  11.454   5.401  1.8171 -2.3433  3.3336
   15MOL0     H 2007   7.965  11.283   5.058  0.1018  1.2861 -2.1854
   15MOL0     H 2008   7.766  11.203   4.921 -0.5890 -0.1264 -0.6909
   15MOL0     H 2009   5.934  11.777   4.661 -1.0531 -0.5410 -1.6494
   15MOL0     H 2010   5.689  11.785   4.679  1.2738  0.1137  2.1423
   15MOL0     H 2011   5.336  11.619   4.798  0.7976  1.1182 -2.2903
   15MOL0     H 2012   5.073  11.633   4.805  3.9184  2.3863  0.8904
   15MOL0     H 2013   4.834  11.439   4.511 -2.4818  2.4013 -0.4621
   15MOL0     H 2014   4.741  11.525   4.627  0.6010  0.7055  2.4577
   15MOL0     H 2015   4.817  11.217   4.619 -2.9164 -0.3862 -2.2398
   15MOL0     H 2016   4.655  11.289   4.621 -0.5214 -0.5479 -0.6313
   15MOL0     H 2017   4.858  11.297   4.840  1.8603 -0.3020 -4.3028
   15MOL0     H 2018   4.728  11.186   4.823  1.8592  0.4035  2.5188
   15MOL0     H 2019   4.657  11.486   4.852 -1.8249 -0.8612 -1.4785
   15MOL0     H 2020   4.551  11.346   4.852  0.2621 -3.6040  0.2919
   15MOL0     H 2021   4.660  11.289   5.235  1.0524 -0.7544 -1.3271
   15MOL0     H 2022   5.052  11.324   4.518 -0.1391  0.8545 -0.3337
   15MOL0     H 2023   5.281  11.164   4.573  1.4025 -1.9731 -1.4904
   15MOL0     H 2024   5.255  11.235   4.407  1.5687 -2.1725  0.4044
   15MOL0     H 2025   5.400  11.264   4.490 -0.6940  1.2747 -1.7454
   16MOL0     O 2026   3.221   1.192   3.594  0.2934 -0.3865  0.2853
   16MOL0     C 2027   3.316   1.253   3.645  0.1281  0.6932 -0.0978
   16MOL0     O 2028   3.425   1.310   3.576 -0.3952 -0.4467 -0.1174
   16MOL0     C 2029   3.456   1.265   3.454 -0.7646  0.1673  0.8438
   16MOL0     C 2030   3.537   1.145   3.437  0.4994  0.0655  0.2391
   16MOL0     C 2031   3.588   1.113   3.312  0.1816 -0.7906  0.0608
   16MOL0     C 2032   3.548   1.186   3.197 -0.5940 -0.0637  0.7669
   16MOL0     O 2033   3.573   1.146   3.067  0.1053  0.0649 -0.3255
   16MOL0     C 2034   3.712   1.142   3.032 -0.0121 -0.4734  0.2015
   16MOL0     C 2035   3.784   1.269   2.974 -0.0967  0.7362 -0.3129
   16MOL0     C 2036   3.802   1.380   3.085 -0.5485 -0.0210 -0.1735
   16MOL0     C 2037   3.940   1.363   3.147  1.4176 -0.9840  0.4153
   16MOL0     C 2038   3.970   1.481   3.237  0.2643  0.0179  0.2105
   16MOL0     C 2039   3.901   1.482   3.372 -0.7903 -0.2996  0.3463
   16MOL0     C 2040   3.916   1.351   3.458 -0.2329  0.1456 -0.6881
   16MOL0     C 2041   3.853   1.377   3.592  0.2306  0.2123  0.3541
   16MOL0     N 2042   3.848   1.273   3.695 -0.0561  0.5835  0.5475
   16MOL0     C 2043   3.831   1.136   3.667  1.1202  0.4143  0.1647
   16MOL0     C 2044   3.839   1.081   3.790  0.3244  0.4929  0.0909
   16MOL0     C 2045   3.817   0.932   3.820 -0.3395  0.5343 -0.4537
   16MOL0     C 2046   3.679   0.889   3.864  0.1120 -0.0198 -0.8166
   16MOL0     C 2047   3.668   0.740   3.891  0.3879  0.5320 -0.9461
   16MOL0     C 2048   3.532   0.709   3.930  0.0931  0.7312 -0.0813
   16MOL0     O 2049   3.530   0.567   3.950  0.5693 -0.3199 -0.4866
   16MOL0     C 2050   3.417   0.519   4.015  0.2068 -0.1620 -0.4538
   16MOL0     C 2051   3.424   0.385   4.052  0.6039 -0.5781 -0.5833
   16MOL0     C 2052   3.315   0.315   4.105 -1.1599 -0.6126  0.6481
   16MOL0     C 2053   3.197   0.380   4.126 -0.1655 -0.4252  0.1733
   16MOL0     C 2054   3.070   0.308   4.179  0.2011 -0.2160 -0.0278
   16MOL0     O 2055   2.966   0.386   4.216  0.5297 -0.0485  0.7564
   16MOL0     C 2056   2.856   0.343   4.276  0.4802  0.4004 -0.8134
   16MOL0     C 2057   2.771   0.242   4.237  0.0858 -0.0128  0.4395
   16MOL0     C 2058   2.663   0.211   4.325 -0.3382  0.7873 -1.3998
   16MOL0     C 2059   2.634   0.286   4.437 -0.5512  0.5142 -0.0906
   16MOL0     O 2060   2.520   0.258   4.509 -0.4038  0.3425 -0.0225
   16MOL0     C 2061   2.451   0.370   4.576 -0.1116  0.2641 -0.5930
   16MOL0     C 2062   2.352   0.299   4.666  0.8871  0.3496 -0.1898
   16MOL0     C 2063   2.281   0.386   4.780  0.2528 -0.5551 -0.0335
   16MOL0     C 2064   2.165   0.477   4.729  0.7516  0.0756 -0.1171
   16MOL0     C 2065   2.132   0.589   4.825 -0.4414  0.4193 -0.6987
   16MOL0     C 2066   2.059   0.538   4.950  0.3874  0.1297  1.5263
   16MOL0     C 2067   2.024   0.661   5.033 -0.1618  0.2176  0.4778
   16MOL0     C 2068   1.915   0.639   5.138  0.2205  0.3446  0.1305
   16MOL0    Cl 2069   1.765   0.593   5.070  0.1854  0.0911  0.1184
   16MOL0     C 2070   2.726   0.384   4.476  0.5599  0.7338 -0.5477
   16MOL0     C 2071   2.826   0.420   4.390  0.9218  0.8928  0.4262
   16MOL0     O 2072   3.087   0.193   4.217 -0.3560  0.1379  0.2556
   16MOL0     C 2073   3.194   0.523   4.100 -0.2133  0.0096 -0.1653
   16MOL0     C 2074   3.305   0.593   4.057  0.4238  0.8617  0.7430
   16MOL0     N 2075   3.848   1.184   3.885  0.3044 -0.4694  0.1916
   16MOL0     N 2076   3.867   1.292   3.826 -0.2001 -0.0437 -0.1383
   16MOL0     C 2077   3.467   1.302   3.221 -0.4902  0.1356  0.6379
   16MOL0     C 2078   3.423   1.345   3.346  0.3428 -0.3780  0.1624
   16MOL0     C 2079   3.318   1.261   3.796 -0.3667 -0.5307 -0.9257
   16MOL0     C 2080   3.453   1.263   3.863  0.5685 -0.1316 -0.0548
   16MOL0     C 2081   3.463   1.246   4.006  0.1499  0.9349  0.9807
   16MOL0     C 2082   3.345   1.231   4.074  0.7638  0.2834 -1.5495
   16MOL0     O 2083   3.341   1.211   4.204  0.4599  0.8193 -0.0687
   16MOL0     C 2084   3.387   1.315   4.293 -0.2476 -0.4437  0.6724
   16MOL0     C 2085   3.384   1.278   4.440  0.6966  0.3492 -0.9509
   16MOL0     C 2086   3.469   1.154   4.462  0.2099 -1.1451  0.0370
   16MOL0     C 2087   3.480   1.110   4.605 -0.1553 -0.8500  0.1901
   16MOL0     C 2088   3.353   1.067   4.660 -0.0083  0.4899 -0.2017
   16MOL0     C 2089   3.259   1.021   4.723  1.0102  0.4947  0.2487
   16MOL0     C 2090   3.220   1.235   4.014  0.0879 -0.2132  0.1633
   16MOL0     C 2091   3.204   1.257   3.879 -0.4558 -0.1149  0.7579
   16MOL0     C 2092   3.057   1.253   3.823 -0.6191  0.1492 -0.2857
   16MOL0     H 2093   3.564   1.098   3.531  0.7258  0.8417  0.5745
   16MOL0     H 2094   3.654   1.027   3.312 -1.2832 -1.9548  0.2434
   16MOL0     H 2095   3.771   1.096   3.112 -2.3520 -1.9524  1.2029
   16MOL0     H 2096   3.724   1.076   2.946  1.2136  0.5506 -0.4457
   16MOL0     H 2097   3.725   1.309   2.891  0.5817 -0.2074 -1.2713
   16MOL0     H 2098   3.884   1.240   2.942  0.2181 -0.9675  1.9490
   16MOL0     H 2099   3.727   1.369   3.164  0.3855 -1.5645  0.5704
   16MOL0     H 2100   3.788   1.481   3.046  0.1677  1.1812  2.4918
   16MOL0     H 2101   3.945   1.269   3.204 -2.8595 -2.0243 -0.5345
   16MOL0     H 2102   4.022   1.352   3.076  0.5548  1.4183 -1.0430
   16MOL0     H 2103   4.076   1.476   3.264  0.5001 -1.6376 -0.8729
   16MOL0     H 2104   3.957   1.575   3.183  2.1757  0.8899  1.1450
   16MOL0     H 2105   3.952   1.558   3.432  0.1951 -1.2177  0.6969
   16MOL0     H 2106   3.794   1.505   3.373 -0.7030  0.3119  2.7564
   16MOL0     H 2107   4.020   1.316   3.461 -0.5731 -0.9417 -1.0964
   16MOL0     H 2108   3.846   1.277   3.418 -1.1916  0.8263 -0.2996
   16MOL0     H 2109   3.896   1.465   3.641  0.2979  0.0852  0.5266
   16MOL0     H 2110   3.751   1.413   3.578 -0.1711  0.0756  2.4684
   16MOL0     H 2111   3.833   1.088   3.570  1.6385 -0.4842  0.6057
   16MOL0     H 2112   3.843   0.874   3.731  0.0679  0.0511 -0.0252
   16MOL0     H 2113   3.884   0.900   3.901  0.8162 -0.4214 -1.7397
   16MOL0     H 2114   3.659   0.943   3.957  0.8862 -0.8119 -0.1694
   16MOL0     H 2115   3.605   0.924   3.791  1.6796  1.3697 -1.8280
   16MOL0     H 2116   3.739   0.712   3.969 -0.5323  3.7300  1.2406
   16MOL0     H 2117   3.697   0.691   3.798  2.1516 -0.7409  0.1967
   16MOL0     H 2118   3.470   0.740   3.846 -0.6095 -0.4160 -0.0036
   16MOL0     H 2119   3.510   0.765   4.022 -0.5035 -2.8810  2.1789
   16MOL0     H 2120   3.514   0.329   4.026  1.0727  0.3501 -0.9938
   16MOL0     H 2121   3.308   0.210   4.132 -2.9398 -0.4418  0.9914
   16MOL0     H 2122   2.788   0.185   4.147  1.0280 -2.9102  2.3165
   16MOL0     H 2123   2.606   0.121   4.307  1.5484 -0.7341 -0.1462
   16MOL0     H 2124   2.523   0.416   4.645  0.0748 -4.2289  2.6111
   16MOL0     H 2125   2.404   0.429   4.497  0.8172 -1.5429 -2.5860
   16MOL0     H 2126   2.281   0.255   4.596  1.5120 -1.7924  0.4263
   16MOL0     H 2127   2.400   0.217   4.722 -0.0809  1.6947  2.8142
   16MOL0     H 2128   2.228   0.315   4.844  0.3358  0.6639  1.4424
   16MOL0     H 2129   2.361   0.442   4.828  0.4068  0.9744 -1.9454
   16MOL0     H 2130   2.071   0.422   4.720  1.3494 -1.3532  1.8929
   16MOL0     H 2131   2.183   0.513   4.627 -0.8172 -1.9922 -1.1854
   16MOL0     H 2132   2.072   0.672   4.787  1.5504  3.3676  2.1018
   16MOL0     H 2133   2.224   0.641   4.853  0.9914 -2.7912  1.2014
   16MOL0     H 2134   1.966   0.497   4.910  0.1181  2.3105 -0.2758
   16MOL0     H 2135   2.111   0.459   5.006 -0.7750 -1.9163 -0.1352
   16MOL0     H 2136   2.004   0.750   4.974 -1.4128 -0.2948  0.0998
   16MOL0     H 2137   2.115   0.680   5.091 -1.2379  1.7612  1.7364
   16MOL0     H 2138   1.946   0.557   5.205 -1.6768 -0.0166  0.6148
   16MOL0     H 2139   1.901   0.730   5.197 -4.1113  1.9395 -2.8569
   16MOL0     H 2140   2.714   0.448   4.563 -0.8357 -0.2645  0.0297
   16MOL0     H 2141   2.894   0.501   4.412  0.6640  1.0966  0.4749
   16MOL0     H 2142   3.109   0.580   4.139 -0.8735  0.1815 -1.7768
   16MOL0     H 2143   3.298   0.701   4.047  3.0242  0.9329 -1.4608
   16MOL0     H 2144   3.443   1.362   3.134  0.3010 -2.1180 -1.2513
   16MOL0     H 2145   3.366   1.436   3.359  1.4824  0.5068 -0.8281
   16MOL0     H 2146   3.538   1.284   3.800  1.0669  0.2694  0.7399
   16MOL0     H 2147   3.557   1.240   4.061  1.1018 -1.5222 -0.7267
   16MOL0     H 2148   3.328   1.407   4.280  1.3402  0.4512 -0.6281
   16MOL0     H 2149   3.488   1.338   4.259 -0.8885 -2.2902 -2.9902
   16MOL0     H 2150   3.279   1.264   4.469  1.2685  1.8163  2.3288
   16MOL0     H 2151   3.418   1.363   4.500  0.4231 -1.1640  1.4827
   16MOL0     H 2152   3.569   1.170   4.422  0.0034 -1.4513 -0.6039
   16MOL0     H 2153   3.428   1.068   4.409  0.4720 -1.7558  0.7964
   16MOL0     H 2154   3.558   1.033   4.606  0.3192 -0.3874 -0.4202
   16MOL0     H 2155   3.529   1.197   4.650  0.8065 -0.9227 -0.6889
   16MOL0     H 2156   3.183   0.973   4.782  2.1751 -0.2994  1.1592
   16MOL0     H 2157   3.129   1.221   4.073  0.0880  1.0083  0.4706
   16MOL0     H 2158   3.035   1.168   3.759  0.2215  0.1020 -0.5251
   16MOL0     H 2159   2.981   1.264   3.901  0.4205  0.3061  0.7382
   16MOL0     H 2160   3.039   1.343   3.764 -0.0857 -0.2853 -1.1350
   17MOL0     O 2161   7.906   1.974   9.582 -0.2292 -0.1159  0.2853
   17MOL0     C 2162   7.860   1.891   9.656 -0.5378  0.6210 -0.4720
   17MOL0     O 2163   7.925   1.792   9.717 -0.3918  0.0422 -0.1898
   17MOL0     C 2164   8.059   1.795   9.722 -1.1244  0.1839  0.4826
   17MOL0     C 2165   8.124   1.871   9.830  0.6648 -0.2904 -0.6007
   17MOL0     C 2166   8.264   1.874   9.841  0.1199  0.2719  0.4219
   17MOL0     C 2167   8.338   1.814   9.738 -0.4178  0.0919 -0.4353
   17MOL0     O 2168   8.472   1.801   9.722 -0.2768  0.0767  0.3977
   17MOL0     C 2169   8.551   1.833   9.830 -0.4113  0.1275  0.0474
   17MOL0     C 2170   8.697   1.860   9.781  0.8523 -0.2563  0.2968
   17MOL0     C 2171   8.781   1.900   9.896 -0.7588  0.2776  0.0560
   17MOL0     C 2172   8.910   1.971   9.850 -1.4359 -0.8955  1.1306
   17MOL0     C 2173   9.014   1.867   9.787  0.0736 -0.8300 -0.3805
   17MOL0     C 2174   9.143   1.936   9.751  1.1757 -0.3655 -0.2810
   17MOL0     C 2175   9.246   1.833   9.721  0.3910  0.6093  0.3230
   17MOL0     C 2176   9.387   1.891   9.694 -0.2207 -0.6157 -0.3261
   17MOL0     N 2177   9.484   1.780   9.712 -0.2207  0.7519 -0.1508
   17MOL0     C 2178   9.572   1.762   9.812  0.7396  0.6761  0.1823
   17MOL0     C 2179   9.609   1.634   9.800  0.5874 -0.1259 -0.2290
   17MOL0     C 2180   9.705   1.546   9.884  0.2468 -0.2032 -0.1478
   17MOL0     C 2181   9.681   1.559  10.036  0.3095  0.5529  0.3205
   17MOL0     C 2182   9.735   1.432  10.101  0.8045 -0.1268 -0.5359
   17MOL0     C 2183   9.712   1.445  10.255 -0.6064  0.3436 -0.4049
   17MOL0     O 2184   9.570   1.440  10.274  0.2792 -0.3017 -0.4805
   17MOL0     C 2185   9.528   1.441  10.410  0.0999 -0.9768 -0.9993
   17MOL0     C 2186   9.392   1.435  10.432 -0.0896  0.4440  0.4217
   17MOL0     C 2187   9.346   1.432  10.563 -0.3119 -0.3948 -0.0279
   17MOL0     C 2188   9.436   1.437  10.677  0.5160  0.4635  0.1313
   17MOL0     C 2189   9.380   1.411  10.807 -0.1507 -0.3927  0.0366
   17MOL0     O 2190   9.464   1.375  10.907  0.1593  0.0523  0.1171
   17MOL0     C 2191   9.428   1.333  11.033  0.6389  0.1831  0.2829
   17MOL0     C 2192   9.515   1.249  11.095 -0.5200  0.0666 -0.1951
   17MOL0     C 2193   9.500   1.210  11.226  0.0398 -0.2167 -0.7286
   17MOL0     C 2194   9.393   1.264  11.298  0.6358 -0.8419  0.7294
   17MOL0     O 2195   9.359   1.232  11.429 -0.3498  0.0863 -0.0455
   17MOL0     C 2196   9.380   1.092  11.465 -0.7751  0.5549  0.4262
   17MOL0     C 2197   9.306   1.071  11.598  0.3594  0.0289  0.9190
   17MOL0     C 2198   9.150   1.060  11.569  0.0468 -0.6186  0.8602
   17MOL0     C 2199   9.060   1.094  11.688 -0.0061  0.3611 -0.6186
   17MOL0     C 2200   8.917   1.140  11.648  0.1336 -0.8485  0.0802
   17MOL0     C 2201   8.825   1.138  11.767  0.0106  0.2168  0.1128
   17MOL0     C 2202   8.685   1.190  11.718  0.7851 -0.1469  0.0098
   17MOL0     C 2203   8.592   1.210  11.835 -0.1435 -0.1262 -0.3707
   17MOL0    Cl 2204   8.527   1.060  11.921  0.0839  0.3018 -0.0104
   17MOL0     C 2205   9.305   1.353  11.234  0.2943 -0.5530  0.7306
   17MOL0     C 2206   9.321   1.383  11.100  0.2209 -0.9149 -0.0049
   17MOL0     O 2207   9.257   1.415  10.817 -0.7628  0.2751 -0.2287
   17MOL0     C 2208   9.572   1.443  10.648 -0.5785 -0.8435  0.7747
   17MOL0     C 2209   9.627   1.449  10.522 -0.4410  0.5281 -0.1152
   17MOL0     N 2210   9.556   1.580   9.676 -0.4529  1.0480 -1.4584
   17MOL0     N 2211   9.488   1.677   9.628  0.1321  1.0196  0.2076
   17MOL0     C 2212   8.272   1.759   9.627 -0.2350 -1.2624  0.7241
   17MOL0     C 2213   8.135   1.738   9.628 -0.0503 -0.8301 -0.0545
   17MOL0     C 2214   7.715   1.877   9.684  0.7792 -0.7562 -0.1234
   17MOL0     C 2215   7.668   1.800   9.794  0.4539  0.3797 -0.5346
   17MOL0     C 2216   7.526   1.788   9.824  0.1805  0.2014 -0.1244
   17MOL0     C 2217   7.435   1.855   9.744 -0.3000  0.3775 -0.3869
   17MOL0     O 2218   7.297   1.844   9.780 -0.1616  0.3471 -0.5029
   17MOL0     C 2219   7.197   1.909   9.706  0.2324  0.4341  0.1125
   17MOL0     C 2220   7.184   2.056   9.739 -0.1429 -0.6348 -0.4032
   17MOL0     C 2221   7.094   2.067   9.866  0.4595 -0.4874  0.3921
   17MOL0     C 2222   7.095   2.206   9.917  0.2050 -0.6765  0.5632
   17MOL0     C 2223   7.007   2.222  10.038 -0.1714 -0.2001 -1.0073
   17MOL0     C 2224   6.940   2.256  10.132  0.4653 -1.1411  0.2290
   17MOL0     C 2225   7.479   1.945   9.639  1.0685 -0.7338 -0.0339
   17MOL0     C 2226   7.618   1.944   9.601 -0.4920 -0.4117 -0.9303
   17MOL0     C 2227   7.631   2.012   9.473  0.6918 -0.8177 -0.1359
   17MOL0     H 2228   8.061   1.922   9.902  2.0812 -1.3049  1.4571
   17MOL0     H 2229   8.317   1.911   9.928  0.9124  0.7693 -0.2469
   17MOL0     H 2230   8.512   1.925   9.874 -1.3464  0.2145 -0.9199
   17MOL0     H 2231   8.569   1.741   9.887  1.1325  0.5304  0.2522
   17MOL0     H 2232   8.699   1.935   9.701  0.2311 -0.5157  0.0270
   17MOL0     H 2233   8.736   1.768   9.736  1.9036 -1.6656  3.7596
   17MOL0     H 2234   8.791   1.811   9.959 -1.8054  0.3838  0.4023
   17MOL0     H 2235   8.714   1.966   9.952 -0.6048  0.8454 -0.4149
   17MOL0     H 2236   8.883   2.050   9.780 -2.5826  0.7160  3.2723
   17MOL0     H 2237   8.959   2.023   9.933  1.0047 -0.9220 -0.2260
   17MOL0     H 2238   9.026   1.784   9.858 -3.1973 -0.1007  1.2472
   17MOL0     H 2239   8.974   1.814   9.700  0.0714 -3.9411  1.3455
   17MOL0     H 2240   9.129   2.007   9.669 -0.1760  0.3590  0.5489
   17MOL0     H 2241   9.172   2.006   9.830  1.5835  1.4917 -1.9918
   17MOL0     H 2242   9.206   1.785   9.632 -1.0769  0.9108  0.7854
   17MOL0     H 2243   9.256   1.765   9.806 -1.5016 -0.8658 -0.5706
   17MOL0     H 2244   9.393   1.937   9.595 -1.7585  2.1022  0.7233
   17MOL0     H 2245   9.404   1.973   9.765  3.3365 -4.2169  3.5626
   17MOL0     H 2246   9.610   1.837   9.882  2.6256 -1.8304  2.0677
   17MOL0     H 2247   9.693   1.441   9.854 -0.8623 -0.1542  0.0630
   17MOL0     H 2248   9.804   1.587   9.864 -0.7945  1.8830 -1.3271
   17MOL0     H 2249   9.728   1.652  10.070 -1.5836  1.0597  1.7608
   17MOL0     H 2250   9.576   1.584  10.057  0.6626  1.0523  1.5880
   17MOL0     H 2251   9.842   1.420  10.082  1.1088  0.0487  0.9128
   17MOL0     H 2252   9.677   1.343  10.073 -0.0436  0.4953 -0.8069
   17MOL0     H 2253   9.749   1.544  10.284  0.4501 -0.6389  1.8017
   17MOL0     H 2254   9.763   1.369  10.314  1.3185  1.5916 -0.3828
   17MOL0     H 2255   9.332   1.433  10.341  1.4954  2.2828 -0.7306
   17MOL0     H 2256   9.238   1.429  10.580 -0.1254 -0.4060  1.2500
   17MOL0     H 2257   9.604   1.213  11.043 -0.0159  1.9670 -0.7273
   17MOL0     H 2258   9.559   1.131  11.270  0.7240 -0.0095 -1.2646
   17MOL0     H 2259   9.343   1.023  11.388 -0.2368  2.2763 -1.4521
   17MOL0     H 2260   9.489   1.088  11.480 -0.5722  0.0212 -0.9940
   17MOL0     H 2261   9.333   0.969  11.629  1.3011 -1.2507 -3.4094
   17MOL0     H 2262   9.340   1.147  11.669  0.8671 -1.0918  1.9188
   17MOL0     H 2263   9.131   1.127  11.484 -0.5859 -1.6420  0.1703
   17MOL0     H 2264   9.121   0.959  11.540 -0.1880 -0.5848  0.9744
   17MOL0     H 2265   9.098   1.178  11.746 -0.6431  0.6109 -0.5467
   17MOL0     H 2266   9.060   1.008  11.755  2.8135  0.5263 -0.3178
   17MOL0     H 2267   8.883   1.068  11.573  0.5117  0.7903 -1.7094
   17MOL0     H 2268   8.914   1.234  11.593  0.8758 -0.3002  0.9376
   17MOL0     H 2269   8.819   1.046  11.826 -0.2839  0.2154  0.0839
   17MOL0     H 2270   8.868   1.213  11.835  1.0142  2.4675 -2.7831
   17MOL0     H 2271   8.629   1.130  11.646  1.1332 -1.2616  0.6303
   17MOL0     H 2272   8.700   1.283  11.663 -0.4143 -1.4945 -2.8152
   17MOL0     H 2273   8.648   1.265  11.912 -1.7374 -0.6373  1.2422
   17MOL0     H 2274   8.499   1.264  11.817  0.3502  1.5268  1.5526
   17MOL0     H 2275   9.224   1.407  11.282 -0.6912  0.7495 -2.1625
   17MOL0     H 2276   9.259   1.453  11.046  0.6891  1.3043  2.1247
   17MOL0     H 2277   9.640   1.447  10.732  1.9594 -1.8230 -1.0898
   17MOL0     H 2278   9.730   1.475  10.501 -0.2379  1.1428  1.4997
   17MOL0     H 2279   8.324   1.720   9.539  2.6250  2.5212  0.4638
   17MOL0     H 2280   8.077   1.699   9.545  1.2510  3.0343 -3.1207
   17MOL0     H 2281   7.729   1.723   9.839 -0.1083 -0.8876 -1.8354
   17MOL0     H 2282   7.496   1.723   9.905  0.1992  0.9980  0.5400
   17MOL0     H 2283   7.097   1.866   9.721  1.9435 -4.9171 -1.5053
   17MOL0     H 2284   7.205   1.884   9.600 -1.0542  1.9092 -0.3773
   17MOL0     H 2285   7.125   2.109   9.663 -0.9197 -2.8738 -1.4590
   17MOL0     H 2286   7.276   2.111   9.756 -1.2101  0.6525  1.5883
   17MOL0     H 2287   7.114   1.991   9.943 -1.2986 -1.6604 -0.2497
   17MOL0     H 2288   6.993   2.039   9.835  0.2980 -1.1810  1.4642
   17MOL0     H 2289   7.200   2.230   9.939  0.6668 -2.4629  0.5075
   17MOL0     H 2290   7.054   2.275   9.844  0.4620  0.1042  1.1337
   17MOL0     H 2291   6.876   2.278  10.214 -0.4789 -2.2979 -0.1625
   17MOL0     H 2292   7.406   2.006   9.588 -0.1026 -3.1149 -1.3540
   17MOL0     H 2293   7.664   1.936   9.401  0.6843  1.6549 -2.9718
   17MOL0     H 2294   7.532   2.040   9.435  1.1079 -3.8682 -4.1349
   17MOL0     H 2295   7.699   2.098   9.471 -0.2761 -0.0507 -1.4964
   18MOL0     O 2296   8.551   4.241   3.927 -0.0218 -0.4215  0.0158
   18MOL0     C 2297   8.559   4.184   4.032 -0.4994  0.2432 -0.5806
   18MOL0     O 2298   8.677   4.133   4.095  0.5576  0.2396 -0.1073
   18MOL0     C 2299   8.795   4.162   4.039 -0.2385  1.0405  0.2400
   18MOL0     C 2300   8.856   4.292   4.072  0.1117 -0.0658  0.3022
   18MOL0     C 2301   8.986   4.312   4.026  0.4385 -0.2313 -0.2393
   18MOL0     C 2302   9.057   4.230   3.957 -0.1152  0.9198 -0.4634
   18MOL0     O 2303   9.184   4.260   3.912  0.1257 -0.3669  0.3378
   18MOL0     C 2304   9.263   4.158   3.850  0.3509 -0.9656  0.4829
   18MOL0     C 2305   9.316   4.060   3.947 -0.4181 -0.0140  0.5642
   18MOL0     C 2306   9.400   4.125   4.060 -0.6710  0.0225  0.6496
   18MOL0     C 2307   9.466   4.020   4.147  0.3069 -0.1049 -0.0880
   18MOL0     C 2308   9.379   3.979   4.271 -0.1206  0.0068 -0.5192
   18MOL0     C 2309   9.452   3.892   4.359  0.7505  0.3377 -0.2891
   18MOL0     C 2310   9.362   3.842   4.473 -0.1430 -0.5259 -0.5074
   18MOL0     C 2311   9.444   3.823   4.598 -0.5282 -0.6321 -0.4629
   18MOL0     N 2312   9.355   3.773   4.711 -0.2915  0.6334  0.1996
   18MOL0     C 2313   9.339   3.640   4.748 -1.0986 -0.0544  0.2762
   18MOL0     C 2314   9.212   3.640   4.809 -0.1146  0.4357 -0.4004
   18MOL0     C 2315   9.150   3.520   4.888 -0.4291  0.1997  0.2881
   18MOL0     C 2316   9.079   3.419   4.799  0.1812  0.0976  0.4982
   18MOL0     C 2317   8.962   3.482   4.724 -0.0464  0.1102 -0.1138
   18MOL0     C 2318   8.822   3.490   4.781 -0.3118 -0.0521  0.1857
   18MOL0     O 2319   8.730   3.523   4.678 -0.2327 -0.6213  0.2253
   18MOL0     C 2320   8.595   3.538   4.716 -0.2296 -0.0301  0.0020
   18MOL0     C 2321   8.498   3.538   4.612  1.0610 -0.3710 -0.8733
   18MOL0     C 2322   8.361   3.538   4.635 -0.6837 -0.4459 -0.4962
   18MOL0     C 2323   8.309   3.544   4.765 -0.3440 -0.8721 -0.4159
   18MOL0     C 2324   8.170   3.537   4.787  0.3617 -1.4249 -1.1026
   18MOL0     O 2325   8.112   3.624   4.884 -0.7540  0.3142 -0.7034
   18MOL0     C 2326   7.976   3.623   4.903 -0.4103  0.1940 -0.1597
   18MOL0     C 2327   7.887   3.669   4.811  0.0227 -0.5406 -0.0611
   18MOL0     C 2328   7.753   3.676   4.844 -0.5226 -0.2905 -0.4879
   18MOL0     C 2329   7.705   3.638   4.973  0.1344 -0.4750 -1.1244
   18MOL0     O 2330   7.571   3.646   4.995 -0.2382  0.3056 -0.6780
   18MOL0     C 2331   7.523   3.641   5.132  0.3538  0.5110 -0.3387
   18MOL0     C 2332   7.379   3.683   5.147 -0.1738  0.7596 -0.3688
   18MOL0     C 2333   7.283   3.564   5.111 -0.0956 -0.8396 -0.8546
   18MOL0     C 2334   7.258   3.552   4.964 -1.0916 -0.2172 -0.1810
   18MOL0     C 2335   7.126   3.485   4.947  0.1806 -0.5432  0.5705
   18MOL0     C 2336   7.083   3.461   4.800 -0.4868 -0.2021  0.1856
   18MOL0     C 2337   6.942   3.409   4.799  0.8073 -0.0518 -0.9742
   18MOL0     C 2338   6.881   3.413   4.655  0.0763 -0.3895 -0.9125
   18MOL0    Cl 2339   6.756   3.291   4.640  0.1067  0.8501  0.2835
   18MOL0     C 2340   7.805   3.604   5.067  0.1278  0.2563 -0.8638
   18MOL0     C 2341   7.940   3.594   5.029  0.3439  0.4161  0.7748
   18MOL0     O 2342   8.106   3.470   4.706  0.9344 -0.1607  0.5821
   18MOL0     C 2343   8.408   3.550   4.870 -0.5548 -0.1586  0.1223
   18MOL0     C 2344   8.546   3.552   4.843  0.5711 -0.1663  0.4992
   18MOL0     N 2345   9.166   3.769   4.832 -0.2129  0.7408  0.3577
   18MOL0     N 2346   9.256   3.841   4.768 -0.4499  0.0442 -0.2619
   18MOL0     C 2347   9.003   4.099   3.934  1.0878  0.2967 -0.2206
   18MOL0     C 2348   8.879   4.066   3.981  0.3368  0.6236  0.6412
   18MOL0     C 2349   8.436   4.162   4.110 -0.2961 -0.6744 -0.4912
   18MOL0     C 2350   8.447   4.171   4.249 -0.6198 -0.4417  0.0819
   18MOL0     C 2351   8.334   4.143   4.327 -0.5601  0.2834 -0.6769
   18MOL0     C 2352   8.214   4.103   4.271  0.5623 -0.3896 -0.3098
   18MOL0     O 2353   8.111   4.047   4.345 -0.3184 -0.0326  0.0926
   18MOL0     C 2354   8.129   4.009   4.482 -0.3192  0.3728  0.8046
   18MOL0     C 2355   8.005   3.928   4.533  0.8372 -0.9919  0.0564
   18MOL0     C 2356   7.867   3.990   4.544  0.2034 -1.4247 -0.9241
   18MOL0     C 2357   7.838   4.052   4.681  0.5222  1.0761 -0.4064
   18MOL0     C 2358   7.929   4.168   4.714 -0.0330 -1.1332  0.4354
   18MOL0     C 2359   7.979   4.278   4.735 -0.3733  0.9608  0.6241
   18MOL0     C 2360   8.207   4.086   4.136  0.1824  0.1900  0.6409
   18MOL0     C 2361   8.322   4.114   4.059  0.4478  0.9426  0.5363
   18MOL0     C 2362   8.313   4.088   3.909  0.0155  0.3772  0.5771
   18MOL0     H 2363   8.799   4.374   4.114 -0.4666 -0.6965  0.7776
   18MOL0     H 2364   9.037   4.406   4.048  2.4118 -1.0599 -1.0404
   18MOL0     H 2365   9.207   4.109   3.770  0.4186  1.6973 -1.3248
   18MOL0     H 2366   9.346   4.202   3.794 -1.8759  1.7683 -0.9436
   18MOL0     H 2367   9.367   3.980   3.894 -0.6246 -1.1587  2.0360
   18MOL0     H 2368   9.232   4.012   3.998  0.0542 -0.2760  1.1053
   18MOL0     H 2369   9.362   4.209   4.119  2.1265  1.8116  0.0816
   18MOL0     H 2370   9.479   4.187   4.018 -1.3756  1.6649  1.6206
   18MOL0     H 2371   9.488   3.926   4.095  0.4907 -0.8122  1.2053
   18MOL0     H 2372   9.551   4.059   4.204 -0.3005 -2.6860  2.8768
   18MOL0     H 2373   9.344   4.069   4.322 -1.1800 -2.0759  2.7304
   18MOL0     H 2374   9.290   3.931   4.231  0.5779 -3.0194  1.2545
   18MOL0     H 2375   9.484   3.800   4.308 -0.5053  0.8515 -2.0701
   18MOL0     H 2376   9.539   3.936   4.408  1.6178 -1.8305  0.2621
   18MOL0     H 2377   9.307   3.752   4.441  0.0248 -1.0736  0.6985
   18MOL0     H 2378   9.276   3.910   4.481 -1.2461 -1.9740  0.4836
   18MOL0     H 2379   9.532   3.760   4.580  1.8418  3.0324 -3.2467
   18MOL0     H 2380   9.487   3.919   4.625  1.2175 -0.9434 -1.9395
   18MOL0     H 2381   9.405   3.554   4.740  0.0239  0.7289  0.8485
   18MOL0     H 2382   9.224   3.460   4.942 -3.3546 -1.3865  2.8473
   18MOL0     H 2383   9.074   3.550   4.961 -2.2738 -2.4867 -0.4055
   18MOL0     H 2384   9.149   3.364   4.736 -0.8109  0.0411 -0.5974
   18MOL0     H 2385   9.047   3.338   4.866  0.8869 -0.3484  0.2973
   18MOL0     H 2386   8.950   3.429   4.629  0.1886 -0.8235  0.3729
   18MOL0     H 2387   8.986   3.584   4.693 -1.4760 -0.0234 -1.8485
   18MOL0     H 2388   8.809   3.553   4.870 -2.8491 -2.4033  1.6641
   18MOL0     H 2389   8.800   3.390   4.821 -0.1749 -0.2006 -0.1082
   18MOL0     H 2390   8.531   3.534   4.508  1.8015 -0.0194 -0.6552
   18MOL0     H 2391   8.299   3.534   4.546 -0.0670  1.2139 -1.0317
   18MOL0     H 2392   7.920   3.699   4.712  0.5630  0.4427  0.3997
   18MOL0     H 2393   7.695   3.712   4.760  1.1448  1.7838 -0.8362
   18MOL0     H 2394   7.525   3.534   5.157  2.0533  0.2590 -1.4308
   18MOL0     H 2395   7.583   3.693   5.208 -0.0614  0.8951 -0.2683
   18MOL0     H 2396   7.353   3.725   5.244 -1.6112 -1.7057  0.3960
   18MOL0     H 2397   7.356   3.772   5.089 -0.6411  1.7569  1.2889
   18MOL0     H 2398   7.315   3.469   5.155  0.7018  0.1014  0.7043
   18MOL0     H 2399   7.194   3.591   5.169  2.1639  0.2390  2.4212
   18MOL0     H 2400   7.333   3.480   4.928 -2.1497 -0.6073 -1.6885
   18MOL0     H 2401   7.263   3.652   4.919 -0.9992 -0.4501 -0.7002
   18MOL0     H 2402   7.044   3.544   4.990 -0.3563 -0.2429 -0.8025
   18MOL0     H 2403   7.134   3.400   5.014  1.2499 -1.3724 -0.5522
   18MOL0     H 2404   7.088   3.556   4.746 -0.3198 -0.5677 -0.4469
   18MOL0     H 2405   7.153   3.393   4.751 -0.1095  1.1274 -1.2064
   18MOL0     H 2406   6.871   3.458   4.868  2.0639  0.4689 -0.0080
   18MOL0     H 2407   6.946   3.305   4.833 -2.5604 -0.8118 -2.4551
   18MOL0     H 2408   6.846   3.515   4.636 -0.1862  0.1945  2.2575
   18MOL0     H 2409   6.958   3.383   4.583  0.6728  1.0892 -0.9305
   18MOL0     H 2410   7.782   3.573   5.169  1.9273 -0.9376 -0.7603
   18MOL0     H 2411   8.010   3.536   5.088 -1.5257 -1.8336  0.9041
   18MOL0     H 2412   8.373   3.559   4.973  0.9722 -0.4757  0.7044
   18MOL0     H 2413   8.611   3.539   4.929  1.0886 -1.1463 -0.0269
   18MOL0     H 2414   9.058   4.015   3.893 -1.3691 -1.6871  0.3313
   18MOL0     H 2415   8.840   3.965   3.969  0.2125  0.7070  0.3396
   18MOL0     H 2416   8.542   4.198   4.295 -1.0192  0.8451  0.1805
   18MOL0     H 2417   8.334   4.140   4.436  2.7108  1.4441 -0.5476
   18MOL0     H 2418   8.141   4.103   4.535 -0.1870  0.0854  1.2852
   18MOL0     H 2419   8.222   3.954   4.502 -0.3906  0.4516  1.3628
   18MOL0     H 2420   8.032   3.887   4.631  0.2722  0.7168  0.9812
   18MOL0     H 2421   7.986   3.833   4.483  0.3595 -1.7259  1.5514
   18MOL0     H 2422   7.786   3.921   4.520 -1.1361 -0.0865 -0.3911
   18MOL0     H 2423   7.865   4.068   4.467  0.6629  0.4633  0.8902
   18MOL0     H 2424   7.737   4.092   4.684 -0.2528 -0.8344  0.3838
   18MOL0     H 2425   7.828   3.982   4.764 -2.6095  4.4700  2.4168
   18MOL0     H 2426   8.023   4.376   4.739  1.4429  0.2942 -0.9659
   18MOL0     H 2427   8.125   4.044   4.078  2.1158  0.4495 -2.5574
   18MOL0     H 2428   8.406   4.041   3.877 -1.7773 -2.9860 -0.1630
   18MOL0     H 2429   8.227   4.033   3.870  0.4491 -1.2525  1.8046
   18MOL0     H 2430   8.290   4.182   3.859 -0.7721  0.2108  0.6034
   19MOL0     O 2431   2.613   5.437   9.052  0.3430  0.4844 -0.2413
   19MOL0     C 2432   2.666   5.520   9.123 -0.3819  0.1135 -0.1192
   19MOL0     O 2433   2.780   5.583   9.099  1.1716  0.2871 -0.6729
   19MOL0     C 2434   2.825   5.569   8.967  0.5261  0.5245 -0.7147
   19MOL0     C 2435   2.761   5.636   8.862  0.1552  0.3808  0.3781
   19MOL0     C 2436   2.821   5.643   8.736 -0.4649  1.2508  1.0114
   19MOL0     C 2437   2.942   5.581   8.713  0.1491  0.1339 -0.0633
   19MOL0     O 2438   2.987   5.606   8.585  0.1234  0.1151 -0.0387
   19MOL0     C 2439   3.052   5.502   8.511  0.6941 -0.4303  0.6001
   19MOL0     C 2440   3.040   5.551   8.360 -0.7431  0.2241  0.2016
   19MOL0     C 2441   3.147   5.486   8.264  0.1625  0.0152  0.2941
   19MOL0     C 2442   3.157   5.557   8.123  0.8438 -0.0245  0.4488
   19MOL0     C 2443   3.019   5.553   8.043  1.0458 -0.1760  0.6405
   19MOL0     C 2444   3.013   5.651   7.935  0.2136  0.4460 -0.7321
   19MOL0     C 2445   3.125   5.642   7.830  0.4083 -0.1288 -0.3364
   19MOL0     C 2446   3.096   5.730   7.705  0.1446  0.7629  0.7973
   19MOL0     N 2447   3.199   5.830   7.680 -0.3474  0.0446  0.5956
   19MOL0     C 2448   3.232   5.933   7.767  0.1306  0.2424 -0.0391
   19MOL0     C 2449   3.343   5.988   7.715 -0.4386  0.5951  0.4340
   19MOL0     C 2450   3.417   6.102   7.764 -0.3807  0.3170 -0.5828
   19MOL0     C 2451   3.431   6.213   7.660  0.5144 -0.5854  0.4959
   19MOL0     C 2452   3.522   6.327   7.711 -0.5246  0.5393 -0.1244
   19MOL0     C 2453   3.667   6.283   7.742  0.3599  0.4798 -0.1175
   19MOL0     O 2454   3.732   6.230   7.627 -0.2651 -1.3384  0.1621
   19MOL0     C 2455   3.871   6.225   7.642 -0.7633 -0.2028 -0.5825
   19MOL0     C 2456   3.946   6.271   7.535  0.4381 -0.6373 -0.2598
   19MOL0     C 2457   4.085   6.283   7.534 -0.7532  0.1717  0.1491
   19MOL0     C 2458   4.160   6.236   7.642  0.7843  0.0549 -0.1539
   19MOL0     C 2459   4.303   6.236   7.647  0.0139  0.5018  0.3350
   19MOL0     O 2460   4.373   6.127   7.699  0.2848 -0.4512 -0.2150
   19MOL0     C 2461   4.518   6.129   7.704  0.5303  0.4607  0.8288
   19MOL0     C 2462   4.571   6.064   7.818  0.0419 -0.0027  1.0101
   19MOL0     C 2463   4.713   6.044   7.826  0.2356 -0.2705  0.3013
   19MOL0     C 2464   4.800   6.088   7.722  0.0477  0.1142 -0.3940
   19MOL0     O 2465   4.936   6.090   7.751 -0.4324  0.2893  0.3726
   19MOL0     C 2466   5.033   6.078   7.638 -0.0414  0.4477  0.0446
   19MOL0     C 2467   5.157   6.000   7.678  1.0455 -0.6482  0.2743
   19MOL0     C 2468   5.261   6.092   7.755  0.0387  0.4401 -0.2076
   19MOL0     C 2469   5.393   6.021   7.761 -0.4452 -0.4619 -0.3123
   19MOL0     C 2470   5.506   6.105   7.826  1.0185 -0.3487 -0.8289
   19MOL0     C 2471   5.503   6.099   7.978 -0.6846  0.5267 -0.0083
   19MOL0     C 2472   5.627   6.154   8.052  0.0268 -0.3846 -0.2218
   19MOL0     C 2473   5.583   6.232   8.170 -0.2316  0.3729  0.1214
   19MOL0    Cl 2474   5.730   6.267   8.271  0.3651 -0.1152 -0.0517
   19MOL0     C 2475   4.740   6.164   7.614  0.6500 -0.2350 -0.3891
   19MOL0     C 2476   4.602   6.183   7.602  0.0845 -0.5585 -0.4184
   19MOL0     O 2477   4.360   6.336   7.600  0.2490  0.7334  0.7031
   19MOL0     C 2478   4.081   6.200   7.758  0.2984 -0.5186  0.3225
   19MOL0     C 2479   3.939   6.195   7.761  0.5619 -0.3640 -0.2053
   19MOL0     N 2480   3.383   5.915   7.601 -0.5296 -0.1574 -0.9236
   19MOL0     N 2481   3.303   5.815   7.591 -0.0800  0.1030  0.3442
   19MOL0     C 2482   3.006   5.505   8.809 -0.4123 -0.3421 -0.1427
   19MOL0     C 2483   2.953   5.506   8.941  0.7829  0.7552 -0.1758
   19MOL0     C 2484   2.611   5.549   9.253 -0.7416 -0.4269 -0.8407
   19MOL0     C 2485   2.661   5.490   9.366 -0.0206  0.2778 -0.0368
   19MOL0     C 2486   2.603   5.518   9.492 -0.0212 -0.0199  0.2008
   19MOL0     C 2487   2.507   5.615   9.510 -0.9074  0.5193  0.2800
   19MOL0     O 2488   2.490   5.637   9.644 -0.0251 -0.5339  0.2376
   19MOL0     C 2489   2.419   5.761   9.669  0.5429 -0.5158  0.0160
   19MOL0     C 2490   2.268   5.732   9.660  0.6193 -0.2246 -0.2348
   19MOL0     C 2491   2.189   5.835   9.594  0.0095  0.2823  0.4231
   19MOL0     C 2492   2.040   5.798   9.585 -0.7167 -0.7053 -0.5984
   19MOL0     C 2493   1.952   5.906   9.552  0.1405 -0.7250  0.3542
   19MOL0     C 2494   1.895   6.013   9.531 -0.1482  0.7012 -0.3832
   19MOL0     C 2495   2.452   5.677   9.394 -1.1114  0.8521 -0.5615
   19MOL0     C 2496   2.497   5.632   9.269 -0.6676 -1.0356 -0.1039
   19MOL0     C 2497   2.423   5.685   9.151 -0.0494 -0.8620 -0.2227
   19MOL0     H 2498   2.663   5.680   8.877  0.0209 -0.0194  0.7122
   19MOL0     H 2499   2.771   5.696   8.656 -0.0348  2.5385  1.5812
   19MOL0     H 2500   3.156   5.505   8.544  0.6209 -2.1181  1.0856
   19MOL0     H 2501   3.014   5.403   8.537  1.0463 -0.5499  0.6641
   19MOL0     H 2502   3.061   5.657   8.346 -0.0624 -0.2301 -2.6456
   19MOL0     H 2503   2.937   5.537   8.326 -1.2333 -2.6716  2.3949
   19MOL0     H 2504   3.126   5.380   8.244  0.5504  0.2303 -1.3795
   19MOL0     H 2505   3.248   5.480   8.305  0.2977 -4.7611 -0.0739
   19MOL0     H 2506   3.177   5.664   8.140 -1.7815  0.2959  2.0379
   19MOL0     H 2507   3.234   5.518   8.056 -0.6754 -2.4915  0.0381
   19MOL0     H 2508   2.991   5.455   8.004  1.2972  1.2580 -3.5725
   19MOL0     H 2509   2.943   5.583   8.116 -0.5810 -1.2069 -0.5557
   19MOL0     H 2510   2.915   5.638   7.888 -1.0492 -1.5628  2.1519
   19MOL0     H 2511   3.009   5.759   7.955 -0.0851  0.6826 -1.9937
   19MOL0     H 2512   3.151   5.540   7.802  1.0062 -0.5513  1.5726
   19MOL0     H 2513   3.214   5.687   7.876  1.1470 -0.3389 -1.5246
   19MOL0     H 2514   3.093   5.672   7.612  3.4480 -0.3119  1.2272
   19MOL0     H 2515   2.999   5.781   7.701 -1.5829 -2.3031  0.8943
   19MOL0     H 2516   3.175   5.963   7.854  2.8251  2.1751  1.2155
   19MOL0     H 2517   3.386   6.133   7.864  2.3888 -0.6699  0.6941
   19MOL0     H 2518   3.517   6.058   7.777 -1.3975 -1.5718  1.6160
   19MOL0     H 2519   3.468   6.173   7.565  0.3383  2.0018 -0.7359
   19MOL0     H 2520   3.333   6.257   7.641  0.1526 -2.4405 -2.5331
   19MOL0     H 2521   3.484   6.377   7.801  1.0594  2.7666 -0.6113
   19MOL0     H 2522   3.524   6.401   7.631  1.8902 -1.6376 -2.2933
   19MOL0     H 2523   3.656   6.201   7.813 -1.1461 -0.2895 -1.1928
   19MOL0     H 2524   3.720   6.368   7.786  2.0978 -0.7985  0.3336
   19MOL0     H 2525   3.896   6.304   7.444 -0.7066  0.0275  0.5805
   19MOL0     H 2526   4.133   6.340   7.455  0.8491 -1.2091  0.0698
   19MOL0     H 2527   4.508   6.025   7.898  1.1393 -3.4637  0.3303
   19MOL0     H 2528   4.750   5.992   7.914 -0.3849 -0.8777  0.2095
   19MOL0     H 2529   4.986   6.039   7.547 -2.1810 -0.2599  1.3930
   19MOL0     H 2530   5.059   6.180   7.607 -1.3829  1.4330  1.9644
   19MOL0     H 2531   5.141   5.903   7.726  0.6056  0.6214  2.8429
   19MOL0     H 2532   5.203   5.975   7.582 -1.3979 -2.4381 -0.5463
   19MOL0     H 2533   5.267   6.186   7.699  2.0862  1.2145  1.1913
   19MOL0     H 2534   5.239   6.110   7.861  1.5925  2.0473 -0.1070
   19MOL0     H 2535   5.430   6.003   7.659 -1.5082  0.4274 -0.8810
   19MOL0     H 2536   5.378   5.926   7.812  0.5561 -0.7192 -0.4867
   19MOL0     H 2537   5.511   6.210   7.797  1.9145 -0.7994 -2.3778
   19MOL0     H 2538   5.599   6.054   7.798  0.9343 -1.9660  1.4728
   19MOL0     H 2539   5.407   6.143   8.008 -1.7021 -2.0886  0.9055
   19MOL0     H 2540   5.499   5.995   8.011  0.9080  0.6486  0.6423
   19MOL0     H 2541   5.700   6.214   7.996  2.3607 -1.8879  1.0472
   19MOL0     H 2542   5.685   6.066   8.083  2.5221  2.1100  2.8416
   19MOL0     H 2543   5.537   6.329   8.149  0.4730  1.6181  3.6165
   19MOL0     H 2544   5.495   6.186   8.215 -1.2691  1.2197 -0.9653
   19MOL0     H 2545   4.812   6.202   7.542  0.2364 -2.6950 -2.2297
   19MOL0     H 2546   4.562   6.241   7.519  0.5462 -0.2408 -0.4244
   19MOL0     H 2547   4.138   6.164   7.844  0.3268  0.8169  0.8764
   19MOL0     H 2548   3.882   6.162   7.848  0.2040 -1.3496 -0.8023
   19MOL0     H 2549   3.091   5.443   8.783 -1.3105 -1.0379 -1.5821
   19MOL0     H 2550   3.006   5.455   9.021 -0.8996 -0.2092  0.3902
   19MOL0     H 2551   2.740   5.416   9.358 -2.1523 -1.9850 -2.4274
   19MOL0     H 2552   2.655   5.466   9.572  3.0724 -2.1927 -2.9182
   19MOL0     H 2553   2.456   5.838   9.600 -1.8902  0.7423 -0.0156
   19MOL0     H 2554   2.441   5.792   9.771 -2.1690  1.1124  0.2157
   19MOL0     H 2555   2.224   5.713   9.758  0.7315  0.6341 -0.0173
   19MOL0     H 2556   2.249   5.639   9.604  0.5689  1.1132 -2.5974
   19MOL0     H 2557   2.233   5.864   9.498 -0.9888  0.3136 -0.0362
   19MOL0     H 2558   2.186   5.930   9.649  1.0139  1.0671 -0.8019
   19MOL0     H 2559   2.027   5.724   9.506 -0.2851 -2.9967  1.3411
   19MOL0     H 2560   2.017   5.752   9.682 -1.9584 -0.4053 -0.7473
   19MOL0     H 2561   1.853   6.111   9.524 -2.5591  0.0505  2.6021
   19MOL0     H 2562   2.370   5.749   9.398 -2.4063 -0.6173  1.9636
   19MOL0     H 2563   2.430   5.616   9.065  1.6041  0.4641 -1.2153
   19MOL0     H 2564   2.319   5.713   9.168 -0.4557  0.8888 -4.4226
   19MOL0     H 2565   2.477   5.773   9.114 -3.0574  0.2632 -2.3390
   20MOL0     O 2566   3.887   1.657   5.458 -0.0097 -0.0218  0.2718
   20MOL0     C 2567   3.845   1.698   5.564 -0.0329  0.5642  0.2017
   20MOL0     O 2568   3.908   1.749   5.666 -0.4969 -0.5435  0.4611
   20MOL0     C 2569   4.030   1.813   5.648  0.1041  0.1068  0.0411
   20MOL0     C 2570   4.127   1.811   5.750 -0.5425  0.2560 -0.0560
   20MOL0     C 2571   4.248   1.893   5.742  0.6631 -0.3212 -0.3617
   20MOL0     C 2572   4.256   1.989   5.643  0.6028  0.0462  0.3847
   20MOL0     O 2573   4.357   2.075   5.623  0.1291  0.4463 -0.5352
   20MOL0     C 2574   4.381   2.170   5.727 -0.9025  0.3437 -0.6917
   20MOL0     C 2575   4.474   2.275   5.684  0.5384 -0.3257 -0.4459
   20MOL0     C 2576   4.611   2.222   5.668 -0.1780 -0.0179 -0.3748
   20MOL0     C 2577   4.707   2.319   5.601 -0.2123 -0.3540  0.1625
   20MOL0     C 2578   4.756   2.277   5.460 -1.0701  0.7502 -0.4624
   20MOL0     C 2579   4.633   2.254   5.369  0.6831  0.3448 -0.1786
   20MOL0     C 2580   4.685   2.237   5.226  0.2068  0.3693  0.1162
   20MOL0     C 2581   4.784   2.123   5.215 -1.0792  0.7046  0.4525
   20MOL0     N 2582   4.836   2.102   5.076  0.2820  0.7308  0.2128
   20MOL0     C 2583   4.920   2.181   5.003 -0.4180  0.7084  0.1025
   20MOL0     C 2584   4.986   2.101   4.915 -0.3143  0.5373 -1.0230
   20MOL0     C 2585   5.083   2.145   4.815 -0.0789 -0.3772  0.3431
   20MOL0     C 2586   5.227   2.119   4.856  0.2598 -0.4153  0.2348
   20MOL0     C 2587   5.326   2.129   4.739 -0.1086 -0.4126  0.2703
   20MOL0     C 2588   5.465   2.119   4.798  1.3816  0.2276  0.4710
   20MOL0     O 2589   5.494   2.244   4.873  0.3987  0.0152  0.1957
   20MOL0     C 2590   5.620   2.272   4.910 -0.8044 -0.3440 -0.0077
   20MOL0     C 2591   5.716   2.178   4.959  0.1566 -1.1977 -0.3208
   20MOL0     C 2592   5.838   2.218   5.007  1.1956 -1.0948  0.0754
   20MOL0     C 2593   5.876   2.349   4.996 -0.4342  0.9192 -0.0638
   20MOL0     C 2594   6.003   2.388   5.056  0.3239  0.0381 -0.3280
   20MOL0     O 2595   6.031   2.341   5.182  0.6467  0.1303 -0.5688
   20MOL0     C 2596   6.121   2.393   5.273  0.3597  0.3480  0.2467
   20MOL0     C 2597   6.162   2.529   5.274 -0.0572  1.0018 -0.5565
   20MOL0     C 2598   6.265   2.564   5.373  0.8040 -0.1003 -0.3057
   20MOL0     C 2599   6.316   2.471   5.466 -0.2816  1.2183  0.2473
   20MOL0     O 2600   6.404   2.502   5.570 -0.6233 -0.5015 -0.1627
   20MOL0     C 2601   6.392   2.633   5.626  0.7149 -0.1840 -0.0529
   20MOL0     C 2602   6.463   2.638   5.756  0.0909  0.6772 -0.8761
   20MOL0     C 2603   6.441   2.770   5.828  0.4945  1.4355  0.3895
   20MOL0     C 2604   6.551   2.873   5.784  0.4999  0.1425 -0.3188
   20MOL0     C 2605   6.536   3.003   5.857 -0.4752 -0.1173 -0.8948
   20MOL0     C 2606   6.417   3.077   5.814 -0.1441  0.1519  0.4942
   20MOL0     C 2607   6.401   3.224   5.865 -0.4721  0.1047 -0.3185
   20MOL0     C 2608   6.251   3.254   5.898  0.5619  0.1683  0.2744
   20MOL0    Cl 2609   6.145   3.219   5.763  0.0349  0.2044 -0.0666
   20MOL0     C 2610   6.267   2.341   5.462  0.1269 -0.2054  0.2214
   20MOL0     C 2611   6.173   2.297   5.368 -0.1533 -0.0485  0.3017
   20MOL0     O 2612   6.072   2.465   4.988  0.3373  0.0001 -0.3662
   20MOL0     C 2613   5.785   2.447   4.943 -0.1511  0.7398  0.2627
   20MOL0     C 2614   5.658   2.403   4.895 -0.2410 -0.5568  0.0243
   20MOL0     N 2615   4.929   1.975   4.926 -0.1051  1.1039 -0.4138
   20MOL0     N 2616   4.851   1.974   5.033  0.4965  0.5721 -0.0661
   20MOL0     C 2617   4.161   1.991   5.542  0.2812 -0.4601 -0.4621
   20MOL0     C 2618   4.046   1.907   5.545  0.2609  0.3349  0.0702
   20MOL0     C 2619   3.703   1.661   5.593 -0.0680 -0.6505 -0.2680
   20MOL0     C 2620   3.663   1.662   5.727 -0.1865  0.5566  0.2912
   20MOL0     C 2621   3.534   1.629   5.757 -0.3604 -0.5776 -0.0830
   20MOL0     C 2622   3.429   1.614   5.665 -0.8981  0.5361 -0.0737
   20MOL0     O 2623   3.303   1.585   5.703  0.0165 -0.3145 -0.0546
   20MOL0     C 2624   3.299   1.444   5.724  1.0624 -0.3688 -0.1762
   20MOL0     C 2625   3.156   1.390   5.737 -1.1360 -0.1981 -0.5591
   20MOL0     C 2626   3.090   1.423   5.868  0.1094  0.0300 -0.4633
   20MOL0     C 2627   2.947   1.374   5.883  0.7309 -0.0707 -0.0696
   20MOL0     C 2628   2.860   1.405   5.770 -0.0627  1.0397 -0.5143
   20MOL0     C 2629   2.783   1.431   5.682 -0.3134 -0.1059  0.1810
   20MOL0     C 2630   3.466   1.614   5.526 -0.1156 -0.0717 -0.5186
   20MOL0     C 2631   3.605   1.635   5.494  0.4387  0.3188  0.0875
   20MOL0     C 2632   3.643   1.661   5.352  0.8603 -0.0502  0.2081
   20MOL0     H 2633   4.115   1.741   5.832  0.3969  0.7703  0.5413
   20MOL0     H 2634   4.322   1.892   5.821 -0.3560 -2.6134  0.6452
   20MOL0     H 2635   4.294   2.223   5.766  0.6846  0.2953  3.4422
   20MOL0     H 2636   4.411   2.116   5.817 -2.9480 -1.0645 -0.7890
   20MOL0     H 2637   4.474   2.367   5.744 -0.4469 -0.0023 -0.9324
   20MOL0     H 2638   4.426   2.304   5.591 -1.6063  1.4130  1.0854
   20MOL0     H 2639   4.609   2.124   5.620 -0.8729 -0.4761  0.5470
   20MOL0     H 2640   4.634   2.200   5.773  0.6104 -1.7645 -0.8570
   20MOL0     H 2641   4.664   2.419   5.606 -1.5797 -0.9524  1.1315
   20MOL0     H 2642   4.806   2.327   5.648  0.3400  4.0701 -1.3217
   20MOL0     H 2643   4.822   2.352   5.416  1.6783 -0.1760  1.7450
   20MOL0     H 2644   4.819   2.189   5.479  0.1653  1.8553  0.7796
   20MOL0     H 2645   4.578   2.167   5.407 -0.5249  2.1282  2.3869
   20MOL0     H 2646   4.562   2.337   5.369 -0.1329 -0.3347 -0.7627
   20MOL0     H 2647   4.725   2.329   5.183 -5.9033  2.5659 -1.9190
   20MOL0     H 2648   4.599   2.206   5.166  1.6550 -4.7286  0.1522
   20MOL0     H 2649   4.872   2.154   5.271 -0.2121  0.5564 -0.7856
   20MOL0     H 2650   4.734   2.036   5.257 -1.9772  0.9476 -0.0711
   20MOL0     H 2651   4.933   2.288   5.009 -0.6419  0.7246  0.2822
   20MOL0     H 2652   5.058   2.083   4.729 -0.9286  1.2550 -0.6152
   20MOL0     H 2653   5.063   2.248   4.784  2.6185  0.0086 -0.4491
   20MOL0     H 2654   5.261   2.182   4.938  2.9622  1.5406 -2.1799
   20MOL0     H 2655   5.229   2.017   4.898 -3.5324 -0.7340 -0.0516
   20MOL0     H 2656   5.317   2.225   4.686 -3.5946 -0.9263 -0.3028
   20MOL0     H 2657   5.306   2.051   4.665 -1.2286  0.9725 -0.9506
   20MOL0     H 2658   5.539   2.116   4.718  0.4515  1.4178 -0.4651
   20MOL0     H 2659   5.478   2.026   4.855  1.7641 -0.0850 -0.1168
   20MOL0     H 2660   5.707   2.070   4.971  0.0227 -1.0088  1.5463
   20MOL0     H 2661   5.911   2.144   5.037  0.0406 -2.0292  0.6767
   20MOL0     H 2662   6.126   2.597   5.198  1.3011  0.1939 -1.9848
   20MOL0     H 2663   6.290   2.667   5.393 -0.4982 -0.0803  1.4936
   20MOL0     H 2664   6.418   2.718   5.561  1.7590 -0.3389  0.1374
   20MOL0     H 2665   6.285   2.647   5.642  1.0205  3.9701 -0.4608
   20MOL0     H 2666   6.426   2.564   5.827 -0.4542 -0.0600 -1.9114
   20MOL0     H 2667   6.569   2.615   5.740 -0.2010 -1.7586  0.2089
   20MOL0     H 2668   6.342   2.810   5.807 -0.7763 -1.9625 -0.8369
   20MOL0     H 2669   6.457   2.753   5.935 -1.9084  1.5121  0.8103
   20MOL0     H 2670   6.529   2.887   5.678 -0.7192 -1.1074 -0.2511
   20MOL0     H 2671   6.649   2.828   5.804  0.2411 -0.2877  0.0050
   20MOL0     H 2672   6.623   3.066   5.837  0.7626 -1.2437  0.6437
   20MOL0     H 2673   6.522   2.984   5.964 -1.0673 -2.9259 -1.3938
   20MOL0     H 2674   6.420   3.089   5.706  0.9727 -2.0016  0.2389
   20MOL0     H 2675   6.330   3.026   5.856 -0.1789  0.2819  0.5819
   20MOL0     H 2676   6.440   3.293   5.790  2.7911  0.2943  1.3684
   20MOL0     H 2677   6.467   3.231   5.952  0.8523  2.2650 -1.4169
   20MOL0     H 2678   6.221   3.182   5.975  2.1209 -1.9031 -0.9567
   20MOL0     H 2679   6.238   3.354   5.940 -1.2259 -0.2296  0.7543
   20MOL0     H 2680   6.303   2.264   5.530 -0.2367 -1.9483 -1.5022
   20MOL0     H 2681   6.152   2.193   5.347  0.2324  0.3342 -2.3433
   20MOL0     H 2682   5.820   2.549   4.953  2.4362 -0.1753  1.3774
   20MOL0     H 2683   5.590   2.478   4.856 -1.0709 -1.9302 -1.2579
   20MOL0     H 2684   4.156   2.072   5.470  1.2854  0.8034  0.8563
   20MOL0     H 2685   3.963   1.916   5.475 -0.1050  1.2089  0.6009
   20MOL0     H 2686   3.724   1.689   5.813 -1.8710  0.7831  1.4621
   20MOL0     H 2687   3.510   1.635   5.863 -0.3682  0.8714 -0.1496
   20MOL0     H 2688   3.360   1.414   5.810  3.9409 -0.4161 -2.1087
   20MOL0     H 2689   3.348   1.388   5.645 -0.5397 -1.7561 -0.2354
   20MOL0     H 2690   3.154   1.281   5.725  1.0657 -0.1201 -2.3202
   20MOL0     H 2691   3.092   1.435   5.659  0.7241  3.2455 -0.2949
   20MOL0     H 2692   3.094   1.533   5.874  4.7694  0.0090  0.1754
   20MOL0     H 2693   3.169   1.392   5.937  0.7285 -0.6063 -1.4441
   20MOL0     H 2694   2.926   1.270   5.913 -2.8097  0.5888  0.1977
   20MOL0     H 2695   2.903   1.431   5.965 -3.4811 -2.0583 -0.6563
   20MOL0     H 2696   2.716   1.445   5.600  1.9024  1.8071 -1.4352
   20MOL0     H 2697   3.385   1.606   5.453  0.0734 -1.7223 -0.6006
   20MOL0     H 2698   3.700   1.580   5.306 -0.6504 -0.4379 -1.0590
   20MOL0     H 2699   3.555   1.664   5.288  0.3357  1.9754  0.9670
   20MOL0     H 2700   3.695   1.756   5.340  1.4447 -0.5921 -1.8888
   21MOL0     O 2701  10.617   2.673  10.953 -0.3551  0.0240 -0.2805
   21MOL0     C 2702  10.543   2.574  10.924  0.0484 -0.2679  0.0026
   21MOL0     O 2703  10.584   2.447  10.930 -0.3337  1.0223  0.8105
   21MOL0     C 2704  10.711   2.404  10.959 -0.1538 -0.0866 -0.6639
   21MOL0     C 2705  10.717   2.277  11.001  0.1755 -0.5888 -0.2620
   21MOL0     C 2706  10.834   2.221  11.048  0.1287 -1.4982 -0.0232
   21MOL0     C 2707  10.951   2.292  11.071  1.5873 -0.1909  0.2276
   21MOL0     O 2708  11.055   2.227  11.133  0.1696 -0.1714  0.2870
   21MOL0     C 2709  11.188   2.266  11.100 -0.5870  0.0835  0.5257
   21MOL0     C 2710  11.275   2.158  11.157 -1.5088 -0.2085  0.7113
   21MOL0     C 2711  11.423   2.154  11.104  0.6795  0.3575 -0.0331
   21MOL0     C 2712  11.436   2.144  10.946 -0.6605  1.1439 -0.0909
   21MOL0     C 2713  11.577   2.127  10.885  0.2856  0.5330 -0.0143
   21MOL0     C 2714  11.643   1.988  10.928 -0.8422  0.4441  0.8938
   21MOL0     C 2715  11.786   1.983  10.859  0.0081 -0.3934 -0.3376
   21MOL0     C 2716  11.787   1.945  10.712 -0.5525  0.3236 -0.0493
   21MOL0     N 2717  11.897   1.859  10.664  0.3126  0.5230 -1.1194
   21MOL0     C 2718  11.931   1.737  10.707  0.0978  0.6501 -0.6741
   21MOL0     C 2719  12.028   1.702  10.611 -0.1569 -1.2375 -0.7453
   21MOL0     C 2720  12.119   1.587  10.626 -0.9442  0.7105  0.4870
   21MOL0     C 2721  12.141   1.513  10.491  0.4281 -0.8687  0.7579
   21MOL0     C 2722  12.231   1.388  10.498  0.1387 -0.6247  0.2585
   21MOL0     C 2723  12.385   1.407  10.524 -0.1522 -0.2600 -0.7340
   21MOL0     O 2724  12.417   1.383  10.661  0.3259  0.1287 -0.5174
   21MOL0     C 2725  12.534   1.446  10.711 -0.0281  1.5841  1.0337
   21MOL0     C 2726  12.644   1.369  10.754 -0.6634  0.8604  0.0712
   21MOL0     C 2727  12.748   1.438  10.823  0.4426 -0.1530  0.1639
   21MOL0     C 2728  12.742   1.575  10.841  0.3047  0.2701  0.1611
   21MOL0     C 2729  12.850   1.631  10.915 -0.2990 -0.4279 -0.3772
   21MOL0     O 2730  12.886   1.747  10.862  0.0799  0.1899 -0.3343
   21MOL0     C 2731  12.981   1.833  10.924 -0.9198 -0.3043  0.1281
   21MOL0     C 2732  13.015   1.845  11.062 -0.3288 -0.0821 -0.4785
   21MOL0     C 2733  13.113   1.946  11.108  0.6403  0.0751 -0.0439
   21MOL0     C 2734  13.166   2.035  11.020 -0.5005 -1.6271 -0.1743
   21MOL0     O 2735  13.262   2.123  11.057 -0.1836 -0.1435  0.8259
   21MOL0     C 2736  13.234   2.259  11.030 -0.1137 -0.0986 -0.0149
   21MOL0     C 2737  13.353   2.344  11.041  0.3096 -1.2993 -0.1202
   21MOL0     C 2738  13.481   2.286  10.976  0.2488  0.0839  0.3266
   21MOL0     C 2739  13.588   2.398  10.981 -0.0457 -1.4299  0.2414
   21MOL0     C 2740  13.645   2.421  11.125  0.6466  0.2693  0.4549
   21MOL0     C 2741  13.711   2.552  11.142  0.4007 -0.5278  0.6196
   21MOL0     C 2742  13.792   2.549  11.279  0.0539  0.3804  0.2319
   21MOL0     C 2743  13.824   2.681  11.338  0.6655  0.1921  0.1622
   21MOL0    Cl 2744  13.673   2.739  11.427 -0.2234  0.3397 -0.2980
   21MOL0     C 2745  13.126   2.024  10.889 -0.2751  0.4522 -0.0054
   21MOL0     C 2746  13.027   1.937  10.846 -0.5049 -0.0997  0.5685
   21MOL0     O 2747  12.911   1.561  10.995  0.5466 -0.1723  0.3887
   21MOL0     C 2748  12.629   1.649  10.801  0.2535  0.8020 -0.2724
   21MOL0     C 2749  12.529   1.583  10.733  0.3371 -0.2760  0.2123
   21MOL0     N 2750  12.043   1.811  10.520  0.7180  0.1322 -0.0594
   21MOL0     N 2751  11.957   1.903  10.553  0.0631  0.8647 -0.0309
   21MOL0     C 2752  10.949   2.422  11.017  0.3555  0.7558  0.3485
   21MOL0     C 2753  10.832   2.474  10.954 -0.1476 -0.0538 -0.7027
   21MOL0     C 2754  10.405   2.599  10.882  0.5994 -0.6781 -0.6583
   21MOL0     C 2755  10.342   2.715  10.931 -0.2088  0.8700 -0.0791
   21MOL0     C 2756  10.204   2.730  10.928 -0.0428  0.2713 -0.7805
   21MOL0     C 2757  10.123   2.642  10.862 -0.5670 -0.2183  0.0769
   21MOL0     O 2758   9.987   2.632  10.845 -1.1615 -0.3996 -0.4759
   21MOL0     C 2759   9.913   2.726  10.920 -0.1105  0.0956 -0.0977
   21MOL0     C 2760   9.768   2.719  10.875 -0.2284 -0.2070 -0.9326
   21MOL0     C 2761   9.686   2.809  10.974  0.3328  0.4669  0.2506
   21MOL0     C 2762   9.583   2.720  11.048  0.1036  0.1173 -0.1189
   21MOL0     C 2763   9.640   2.666  11.173  0.1665 -0.7562 -0.7594
   21MOL0     C 2764   9.703   2.639  11.275 -0.9058 -1.1294 -0.0914
   21MOL0     C 2765  10.190   2.538  10.797 -0.2193  0.3415 -0.3600
   21MOL0     C 2766  10.326   2.506  10.817  0.7438  0.4348  0.5330
   21MOL0     C 2767  10.368   2.377  10.754 -0.7072  0.1765 -0.4776
   21MOL0     H 2768  10.628   2.216  11.001  1.7762 -3.0605 -0.8738
   21MOL0     H 2769  10.829   2.117  11.080  1.6564 -0.8564  2.5945
   21MOL0     H 2770  11.206   2.275  10.992  1.3404  1.9950  0.9435
   21MOL0     H 2771  11.214   2.370  11.123  0.0316  0.6398 -2.3068
   21MOL0     H 2772  11.236   2.059  11.133 -1.5301  0.0894 -0.5615
   21MOL0     H 2773  11.284   2.164  11.265 -0.5914 -1.4576  0.7246
   21MOL0     H 2774  11.469   2.068  11.153  2.7905  1.1961 -0.4345
   21MOL0     H 2775  11.484   2.237  11.140 -1.8833  0.6154  4.4999
   21MOL0     H 2776  11.372   2.063  10.911  3.1967 -2.8382  1.0927
   21MOL0     H 2777  11.398   2.232  10.895  1.3085  1.7924 -0.5216
   21MOL0     H 2778  11.559   2.131  10.777 -3.2074 -2.5985  0.2733
   21MOL0     H 2779  11.638   2.208  10.927 -0.6635  0.3441  1.7778
   21MOL0     H 2780  11.657   1.983  11.036  0.4527  1.4194  0.7999
   21MOL0     H 2781  11.588   1.900  10.892  3.6466 -0.4933 -5.3942
   21MOL0     H 2782  11.855   1.918  10.914 -0.1403  1.7367  2.5951
   21MOL0     H 2783  11.825   2.084  10.874 -2.4892  0.6126 -0.0661
   21MOL0     H 2784  11.700   1.879  10.701  0.4211 -1.1754  0.8203
   21MOL0     H 2785  11.776   2.033  10.648  0.5006  0.1640 -0.4785
   21MOL0     H 2786  11.900   1.679  10.793  0.1050 -1.2225 -1.8804
   21MOL0     H 2787  12.215   1.619  10.668  0.4000 -1.2631 -0.9208
   21MOL0     H 2788  12.081   1.521  10.704 -3.1070  1.5522  0.2186
   21MOL0     H 2789  12.039   1.490  10.457 -0.7789  2.0661  2.0862
   21MOL0     H 2790  12.175   1.586  10.418 -4.1322  0.7346 -0.0753
   21MOL0     H 2791  12.224   1.345  10.398  0.8901 -0.1720  0.0003
   21MOL0     H 2792  12.183   1.323  10.571 -2.4806  0.2158 -0.6317
   21MOL0     H 2793  12.427   1.504  10.494  1.1445 -0.6465 -0.2170
   21MOL0     H 2794  12.437   1.335  10.460  1.3155 -0.0293  0.1651
   21MOL0     H 2795  12.639   1.261  10.747  0.7188  0.8419 -1.4225
   21MOL0     H 2796  12.826   1.380  10.871  0.0961 -1.4234 -0.7527
   21MOL0     H 2797  12.977   1.782  11.142 -1.8826  3.0234  1.4143
   21MOL0     H 2798  13.138   1.951  11.213  0.4060 -1.3995  0.1078
   21MOL0     H 2799  13.195   2.265  10.928  1.8467 -1.3056 -0.8875
   21MOL0     H 2800  13.160   2.302  11.098  2.6571  2.4733  1.6399
   21MOL0     H 2801  13.332   2.442  10.996  1.4552 -0.2810  1.4839
   21MOL0     H 2802  13.382   2.354  11.146  1.1806 -4.3931  0.0343
   21MOL0     H 2803  13.505   2.191  11.026 -0.0050  0.5461  1.3640
   21MOL0     H 2804  13.461   2.279  10.869 -1.3763  0.2967  0.5818
   21MOL0     H 2805  13.553   2.494  10.944  3.6987  0.0998  0.2242
   21MOL0     H 2806  13.667   2.378  10.908 -1.4361  0.8129 -1.9999
   21MOL0     H 2807  13.725   2.349  11.145  0.5545 -1.1308 -3.3207
   21MOL0     H 2808  13.574   2.411  11.207 -1.8660 -0.3858 -1.6601
   21MOL0     H 2809  13.771   2.556  11.050 -1.8703 -2.9805 -1.0995
   21MOL0     H 2810  13.634   2.628  11.151  0.5827 -0.5726  3.2770
   21MOL0     H 2811  13.887   2.495  11.264  0.6651  0.5567  2.9473
   21MOL0     H 2812  13.739   2.496  11.358  0.6788  1.4568  1.4020
   21MOL0     H 2813  13.893   2.672  11.423  1.4884  0.1120 -0.4994
   21MOL0     H 2814  13.855   2.749  11.258  0.7232 -2.0830 -1.8566
   21MOL0     H 2815  13.175   2.080  10.810 -2.4041 -1.2994 -2.7948
   21MOL0     H 2816  12.995   1.941  10.743  0.7123  2.2535  0.2186
   21MOL0     H 2817  12.629   1.757  10.814 -3.4467  1.0593 -1.2429
   21MOL0     H 2818  12.445   1.644  10.701  0.9613  1.0018  0.9283
   21MOL0     H 2819  11.038   2.484  11.011  1.0939 -0.2921  0.2606
   21MOL0     H 2820  10.826   2.580  10.930 -1.0868 -0.0780 -0.6408
   21MOL0     H 2821  10.395   2.792  10.986 -3.2505  1.8682  1.7206
   21MOL0     H 2822  10.155   2.816  10.973  0.0500 -1.0341  2.0227
   21MOL0     H 2823   9.956   2.825  10.903 -0.5729  0.4949  0.9487
   21MOL0     H 2824   9.922   2.696  11.025 -0.7392 -0.7676 -0.2804
   21MOL0     H 2825   9.726   2.618  10.874  0.7256 -0.6595  0.6658
   21MOL0     H 2826   9.752   2.770  10.780 -2.2287 -2.1382 -1.7270
   21MOL0     H 2827   9.638   2.884  10.911 -1.5026 -1.2269 -0.4717
   21MOL0     H 2828   9.745   2.869  11.044 -1.1447  3.2014 -0.7094
   21MOL0     H 2829   9.496   2.778  11.080 -0.0263  0.4514 -1.0514
   21MOL0     H 2830   9.547   2.642  10.979 -2.6136  1.1796 -0.0262
   21MOL0     H 2831   9.750   2.630  11.370 -0.0590 -1.1093 -0.4970
   21MOL0     H 2832  10.126   2.477  10.734  0.4928 -0.3108 -0.4761
   21MOL0     H 2833  10.291   2.333  10.689  0.6407 -1.3101 -1.1389
   21MOL0     H 2834  10.461   2.386  10.698 -0.4612  2.1105  0.1547
   21MOL0     H 2835  10.382   2.305  10.835  2.3910 -3.6438 -3.9547
   22MOL0     O 2836   5.175   0.599   6.435  0.3637 -0.4714  0.2958
   22MOL0     C 2837   5.102   0.554   6.527 -0.2185  0.1081  1.4463
   22MOL0     O 2838   5.145   0.517   6.646 -0.8198 -0.3111 -0.1622
   22MOL0     C 2839   5.276   0.525   6.683 -0.3669 -0.6235 -0.0280
   22MOL0     C 2840   5.373   0.422   6.668  0.8343 -0.3338  0.2152
   22MOL0     C 2841   5.505   0.426   6.711 -0.1170 -0.4893 -0.2601
   22MOL0     C 2842   5.540   0.539   6.788  0.4279  0.0285  0.2258
   22MOL0     O 2843   5.657   0.554   6.847 -0.3211 -0.0965 -0.3215
   22MOL0     C 2844   5.776   0.553   6.765  0.2180  0.7636  0.1719
   22MOL0     C 2845   5.899   0.488   6.816 -1.2431  0.8036  0.1906
   22MOL0     C 2846   5.892   0.343   6.864 -0.8090 -0.6511 -0.0284
   22MOL0     C 2847   6.011   0.297   6.958  0.1513 -0.4745 -0.0006
   22MOL0     C 2848   6.004   0.145   6.971  0.7139 -1.1507  0.1504
   22MOL0     C 2849   6.104   0.078   7.069  0.7445 -0.4601 -0.2660
   22MOL0     C 2850   6.242   0.058   7.005  0.3953 -0.8214  0.6737
   22MOL0     C 2851   6.347  -0.012   7.110 -0.2546 -0.2395 -0.1353
   22MOL0     N 2852   6.388  -0.145   7.068 -0.0661  0.4125 -0.6968
   22MOL0     C 2853   6.306  -0.254   7.071  0.1033  0.2531 -0.0845
   22MOL0     C 2854   6.377  -0.365   7.047 -0.3560 -0.4669  0.2420
   22MOL0     C 2855   6.334  -0.507   7.039 -0.1941  0.9167  0.0012
   22MOL0     C 2856   6.272  -0.555   6.905 -0.3117  0.3795  0.5728
   22MOL0     C 2857   6.224  -0.700   6.881 -1.0800 -0.1006 -1.0384
   22MOL0     C 2858   6.112  -0.753   6.972 -0.0799  0.0142  0.0615
   22MOL0     O 2859   6.012  -0.649   6.975 -0.1938 -0.0356 -0.4488
   22MOL0     C 2860   5.898  -0.657   6.897 -0.5112 -0.0625 -1.0471
   22MOL0     C 2861   5.896  -0.737   6.777  0.7853 -0.0886 -0.2028
   22MOL0     C 2862   5.790  -0.735   6.692 -0.3125 -1.7147  0.2526
   22MOL0     C 2863   5.672  -0.654   6.717 -0.2700  0.3982 -0.0860
   22MOL0     C 2864   5.551  -0.652   6.637  0.6603 -0.0705  0.3477
   22MOL0     O 2865   5.549  -0.733   6.533 -0.0456  0.2838  0.0335
   22MOL0     C 2866   5.450  -0.720   6.442  0.3112 -0.0996 -0.0697
   22MOL0     C 2867   5.318  -0.748   6.473  0.1588 -0.4134 -0.2932
   22MOL0     C 2868   5.220  -0.735   6.371  0.0069  0.2515 -0.8868
   22MOL0     C 2869   5.251  -0.717   6.239 -0.4643  0.1355  0.2404
   22MOL0     O 2870   5.173  -0.730   6.133  0.1119  0.0980 -0.9026
   22MOL0     C 2871   5.030  -0.722   6.157  0.4896 -0.7439  0.0844
   22MOL0     C 2872   4.950  -0.688   6.027 -0.3121 -0.9898 -0.5023
   22MOL0     C 2873   4.967  -0.803   5.925 -0.1605  0.3666 -0.3432
   22MOL0     C 2874   4.900  -0.767   5.790  0.3823 -0.3507 -0.0466
   22MOL0     C 2875   4.860  -0.892   5.706  0.6745 -0.3552  0.1592
   22MOL0     C 2876   4.797  -0.844   5.571  0.8781 -0.8409  0.2886
   22MOL0     C 2877   4.764  -0.974   5.479 -0.7914  0.1155 -1.0946
   22MOL0     C 2878   4.681  -0.920   5.357  0.2964  0.7655 -0.2210
   22MOL0    Cl 2879   4.523  -0.866   5.408 -0.0966  0.1604 -0.0029
   22MOL0     C 2880   5.381  -0.690   6.214  0.0888 -0.4128 -0.2938
   22MOL0     C 2881   5.484  -0.689   6.310  0.2478 -1.0567 -0.2491
   22MOL0     O 2882   5.448  -0.585   6.670  0.1915 -0.3219 -0.3383
   22MOL0     C 2883   5.678  -0.572   6.834  0.0094  0.1713  0.0759
   22MOL0     C 2884   5.790  -0.573   6.921 -0.4349 -0.3025  0.1001
   22MOL0     N 2885   6.515  -0.319   7.040  1.2126  0.3254 -0.1245
   22MOL0     N 2886   6.515  -0.193   7.049 -0.3140 -0.4303 -0.1263
   22MOL0     C 2887   5.453   0.647   6.794 -0.3402  0.5277 -0.8670
   22MOL0     C 2888   5.326   0.647   6.739  0.3104  0.1503  1.1957
   22MOL0     C 2889   4.960   0.539   6.487  0.5861  0.3319 -0.7685
   22MOL0     C 2890   4.861   0.559   6.591 -0.0751 -0.6896  0.0092
   22MOL0     C 2891   4.729   0.552   6.573 -0.1582  0.2664 -0.0655
   22MOL0     C 2892   4.676   0.513   6.447 -0.1784 -1.3404 -1.0853
   22MOL0     O 2893   4.543   0.494   6.406 -0.0576 -0.6798 -0.1856
   22MOL0     C 2894   4.442   0.489   6.503 -0.4351 -1.9060 -0.7739
   22MOL0     C 2895   4.304   0.494   6.427 -0.4143 -0.1655 -0.2301
   22MOL0     C 2896   4.276   0.395   6.310 -0.1765  0.8458  0.6006
   22MOL0     C 2897   4.255   0.250   6.363  0.3588 -0.7485 -0.0364
   22MOL0     C 2898   4.233   0.183   6.234  0.0579  0.2664  0.3317
   22MOL0     C 2899   4.215   0.136   6.125  0.2452  0.5719 -0.9612
   22MOL0     C 2900   4.771   0.488   6.350  0.2060 -0.0856 -0.0851
   22MOL0     C 2901   4.909   0.502   6.360 -1.0193  0.2764  0.9840
   22MOL0     C 2902   4.995   0.465   6.246  0.3755 -0.2702  0.2575
   22MOL0     H 2903   5.331   0.334   6.621 -0.6473 -0.4572  1.7069
   22MOL0     H 2904   5.577   0.348   6.689  0.2070  0.3903 -2.6481
   22MOL0     H 2905   5.753   0.507   6.669  2.1814 -0.3441  0.1799
   22MOL0     H 2906   5.799   0.657   6.738  1.8794  0.0368 -1.4469
   22MOL0     H 2907   5.930   0.554   6.898 -0.8352  0.8660 -0.0107
   22MOL0     H 2908   5.982   0.500   6.746  0.1746 -1.2429  1.4161
   22MOL0     H 2909   5.872   0.275   6.781  0.3737 -2.2344  0.9130
   22MOL0     H 2910   5.803   0.341   6.927  0.3551  1.8305  1.8787
   22MOL0     H 2911   6.103   0.326   6.907  1.6764 -0.6803  2.4753
   22MOL0     H 2912   6.007   0.351   7.053 -0.7256  0.8796 -0.7742
   22MOL0     H 2913   5.902   0.119   7.002  0.5167  0.9199  1.4769
   22MOL0     H 2914   6.023   0.098   6.874 -0.8398  0.4397 -0.9812
   22MOL0     H 2915   6.110   0.123   7.168  1.3518 -0.2998 -0.3703
   22MOL0     H 2916   6.069  -0.024   7.088  3.2312 -1.8835 -2.4654
   22MOL0     H 2917   6.280   0.157   6.979  2.2991 -1.7228 -0.1789
   22MOL0     H 2918   6.231   0.005   6.909 -1.7805  0.3890  0.1837
   22MOL0     H 2919   6.430   0.056   7.133 -0.5230 -0.7792  2.6768
   22MOL0     H 2920   6.315  -0.018   7.214 -0.3003 -0.0880 -0.1397
   22MOL0     H 2921   6.198  -0.250   7.079  0.2417  2.9108  1.6377
   22MOL0     H 2922   6.419  -0.573   7.058 -1.3168  0.3727  4.2257
   22MOL0     H 2923   6.264  -0.532   7.119  0.0249  0.8091  0.1604
   22MOL0     H 2924   6.181  -0.495   6.895 -0.6152 -0.0688  0.5778
   22MOL0     H 2925   6.331  -0.528   6.817  1.4102  0.6396  1.7584
   22MOL0     H 2926   6.314  -0.761   6.894  0.3667  1.9709 -0.8460
   22MOL0     H 2927   6.194  -0.701   6.776 -0.8428 -0.6777 -1.1025
   22MOL0     H 2928   6.154  -0.763   7.073  1.3059 -2.0094 -0.6626
   22MOL0     H 2929   6.086  -0.857   6.948  2.9279 -0.8496  0.2087
   22MOL0     H 2930   5.982  -0.800   6.758  0.3502 -0.8907  0.4088
   22MOL0     H 2931   5.797  -0.785   6.596 -2.5830  0.0854 -0.9418
   22MOL0     H 2932   5.285  -0.772   6.574  2.2396 -1.4646  0.1897
   22MOL0     H 2933   5.119  -0.751   6.408 -0.2902 -1.1114 -2.1831
   22MOL0     H 2934   4.979  -0.811   6.194 -2.5887  1.8382  2.5996
   22MOL0     H 2935   5.016  -0.649   6.238  2.0432 -3.2168  2.7845
   22MOL0     H 2936   4.842  -0.683   6.042 -0.0370  1.8108  1.2442
   22MOL0     H 2937   4.987  -0.598   5.977  2.6811 -1.6863  0.2222
   22MOL0     H 2938   5.072  -0.823   5.904  0.8199 -0.1198  4.1881
   22MOL0     H 2939   4.919  -0.891   5.969  1.0893 -0.0782  0.1711
   22MOL0     H 2940   4.970  -0.711   5.729  1.1572 -1.5886 -0.3394
   22MOL0     H 2941   4.808  -0.710   5.805 -0.1207 -1.1634  0.0711
   22MOL0     H 2942   4.790  -0.956   5.760  1.5443 -1.3459  0.1455
   22MOL0     H 2943   4.952  -0.944   5.677  0.6165 -0.4389  0.1280
   22MOL0     H 2944   4.704  -0.790   5.594  2.2221  2.4073 -1.1925
   22MOL0     H 2945   4.870  -0.777   5.526  0.8437 -0.3368  0.9702
   22MOL0     H 2946   4.707  -1.048   5.536  2.2434 -0.6326  1.2906
   22MOL0     H 2947   4.855  -1.031   5.456  0.4944  1.2527  0.8812
   22MOL0     H 2948   4.738  -0.838   5.312  1.1304  1.2887  1.6952
   22MOL0     H 2949   4.656  -0.998   5.284 -1.8521  0.1322  1.1142
   22MOL0     H 2950   5.407  -0.682   6.109 -1.4081 -1.8700 -0.8302
   22MOL0     H 2951   5.580  -0.674   6.262 -0.9275  5.5396 -1.5971
   22MOL0     H 2952   5.603  -0.498   6.858 -2.2510 -1.3250 -1.8482
   22MOL0     H 2953   5.787  -0.514   7.012  0.9659  1.0801 -0.6927
   22MOL0     H 2954   5.477   0.738   6.846  1.5847  0.4993 -1.6189
   22MOL0     H 2955   5.275   0.743   6.737  1.7166  1.1167 -4.0131
   22MOL0     H 2956   4.898   0.597   6.686  3.6338  1.9948 -2.2387
   22MOL0     H 2957   4.655   0.563   6.652  2.3499 -1.7025  2.8289
   22MOL0     H 2958   4.458   0.583   6.558  0.6451 -1.5422 -1.6556
   22MOL0     H 2959   4.444   0.396   6.559  0.8881 -2.1966 -1.2636
   22MOL0     H 2960   4.294   0.587   6.371 -3.9739  0.0591  0.5079
   22MOL0     H 2961   4.228   0.491   6.506  1.4101 -0.5511  1.6023
   22MOL0     H 2962   4.366   0.407   6.248  2.3364 -2.6319  3.1711
   22MOL0     H 2963   4.191   0.414   6.245  2.2478 -4.7598 -5.2306
   22MOL0     H 2964   4.341   0.210   6.417 -0.2999 -0.7822  0.9998
   22MOL0     H 2965   4.167   0.246   6.428 -0.4539 -0.1173 -1.0606
   22MOL0     H 2966   4.203   0.099   6.025  0.3782  3.3226 -2.0971
   22MOL0     H 2967   4.726   0.446   6.261 -1.4535 -0.0948  0.7052
   22MOL0     H 2968   5.088   0.414   6.274  0.7022  0.1178 -0.0925
   22MOL0     H 2969   4.955   0.390   6.178  0.6079  0.9543 -1.3112
   22MOL0     H 2970   5.013   0.560   6.194 -0.4724  0.4198  1.2055
   23MOL0     O 2971   4.088   8.920   4.686  0.1194 -0.2358 -0.0407
   23MOL0     C 2972   3.997   9.007   4.702  0.9759  0.7924  0.9762
   23MOL0     O 2973   3.990   9.110   4.790  0.1534  0.0865 -0.3404
   23MOL0     C 2974   4.104   9.145   4.862  0.6372  0.3327  0.3241
   23MOL0     C 2975   4.101   9.137   5.001  0.5229  1.0229 -0.2265
   23MOL0     C 2976   4.227   9.139   5.078  0.5953 -0.2874 -0.3641
   23MOL0     C 2977   4.351   9.159   5.017 -0.3812  0.1327  0.4550
   23MOL0     O 2978   4.474   9.166   5.086  0.0810  0.9164 -0.2490
   23MOL0     C 2979   4.483   9.099   5.216  0.0838  0.2265  0.1763
   23MOL0     C 2980   4.624   9.106   5.276 -0.3048  0.1081 -1.0679
   23MOL0     C 2981   4.641   9.261   5.307  0.5628 -0.4275 -0.0405
   23MOL0     C 2982   4.751   9.270   5.412 -0.9589 -0.4840  0.1713
   23MOL0     C 2983   4.803   9.412   5.448 -0.4964 -0.0449  0.5261
   23MOL0     C 2984   4.957   9.416   5.469  0.5627  0.0196  0.8385
   23MOL0     C 2985   5.002   9.558   5.481 -0.3712  0.0164  0.0362
   23MOL0     C 2986   5.035   9.616   5.619 -0.2023  0.2877 -0.2116
   23MOL0     N 2987   5.040   9.762   5.615  0.8885  0.3818  0.1522
   23MOL0     C 2988   4.954   9.841   5.683  0.1287 -0.3754  0.5665
   23MOL0     C 2989   4.973   9.967   5.634  0.1947  0.3776 -0.6137
   23MOL0     C 2990   4.884  10.086   5.672  0.1153 -1.1579  0.8371
   23MOL0     C 2991   4.948  10.178   5.775  0.4179 -0.7888  0.1847
   23MOL0     C 2992   4.990  10.105   5.898 -0.4155 -0.5443  0.6929
   23MOL0     C 2993   5.001  10.199   6.024  0.2608  0.0590  0.1633
   23MOL0     O 2994   5.096  10.294   5.996  0.1769 -0.1573  0.5520
   23MOL0     C 2995   5.207  10.290   6.064  0.1271 -0.5917  0.0397
   23MOL0     C 2996   5.197  10.343   6.194  0.2091  0.6601  0.2689
   23MOL0     C 2997   5.312  10.337   6.277 -0.7951 -0.8168  0.9555
   23MOL0     C 2998   5.433  10.293   6.216  0.2685  0.3430 -0.3369
   23MOL0     C 2999   5.556  10.297   6.294 -0.5782 -0.0245 -0.8523
   23MOL0     O 3000   5.544  10.333   6.429  1.1571 -0.0134 -0.1582
   23MOL0     C 3001   5.622  10.275   6.524 -0.8828 -0.0294  0.0498
   23MOL0     C 3002   5.713  10.163   6.503  0.2728 -0.0666  0.2358
   23MOL0     C 3003   5.803  10.119   6.607  0.0792  0.3971 -0.1956
   23MOL0     C 3004   5.822  10.192   6.726 -0.4709  0.5938  0.2490
   23MOL0     O 3005   5.917  10.140   6.818 -0.4585  0.0819 -0.1700
   23MOL0     C 3006   5.967  10.231   6.919  0.0769  0.0102  0.2195
   23MOL0     C 3007   6.047  10.158   7.012  0.2982  0.5113 -0.3722
   23MOL0     C 3008   6.176  10.102   6.941 -0.2666  0.1918 -0.2721
   23MOL0     C 3009   6.267  10.037   7.042 -0.4859  0.2451 -0.0492
   23MOL0     C 3010   6.385   9.968   6.966 -0.4416 -0.1292  0.4030
   23MOL0     C 3011   6.492   9.899   7.057 -0.1009  0.3235 -0.0816
   23MOL0     C 3012   6.596   9.816   6.985  0.2990  0.5431 -0.3066
   23MOL0     C 3013   6.671   9.734   7.090 -0.9384 -0.3193 -0.3720
   23MOL0    Cl 3014   6.788   9.842   7.171  0.2509 -0.5424 -0.1170
   23MOL0     C 3015   5.731  10.294   6.754  0.2977 -0.3183 -0.6853
   23MOL0     C 3016   5.627  10.332   6.660  1.1811 -0.8587 -0.1119
   23MOL0     O 3017   5.659  10.262   6.242  0.0692  0.3490 -0.1054
   23MOL0     C 3018   5.437  10.253   6.079  0.2008 -0.4110 -0.0768
   23MOL0     C 3019   5.327  10.245   6.007  0.2456 -0.2260  0.7044
   23MOL0     N 3020   5.078   9.961   5.544 -0.9688 -0.8474 -0.7396
   23MOL0     N 3021   5.107   9.838   5.529  0.4285 -0.8219 -0.4048
   23MOL0     C 3022   4.348   9.175   4.876  0.6274  0.2790 -1.0085
   23MOL0     C 3023   4.229   9.158   4.801 -0.3165 -0.7103  0.2210
   23MOL0     C 3024   3.881   8.993   4.602  0.9115  1.1275  0.3113
   23MOL0     C 3025   3.779   9.089   4.614  0.0369 -0.1664 -0.9181
   23MOL0     C 3026   3.661   9.082   4.535 -0.6843  0.5303 -0.1587
   23MOL0     C 3027   3.637   8.964   4.458 -0.6291 -0.1718 -0.2858
   23MOL0     O 3028   3.534   8.954   4.365 -0.2837  0.3519  0.6136
   23MOL0     C 3029   3.417   9.037   4.392  0.3450 -0.4158  0.6651
   23MOL0     C 3030   3.299   8.991   4.306  0.4565 -0.1650 -0.5545
   23MOL0     C 3031   3.343   8.971   4.164  0.0772 -0.2447 -0.3699
   23MOL0     C 3032   3.221   8.950   4.072  0.5237 -0.2544 -0.8805
   23MOL0     C 3033   3.160   9.069   4.022  0.2355 -0.8998 -0.5836
   23MOL0     C 3034   3.113   9.167   3.972  0.5117 -0.3024  0.3204
   23MOL0     C 3035   3.734   8.873   4.460 -0.4880 -0.1108 -0.4130
   23MOL0     C 3036   3.855   8.877   4.529 -0.2994 -0.2290 -0.3894
   23MOL0     C 3037   3.925   8.745   4.553 -0.1344 -0.1306 -0.1949
   23MOL0     H 3038   4.002   9.114   5.042  0.4121  0.9590 -0.5322
   23MOL0     H 3039   4.216   9.114   5.183 -1.0905 -3.7870 -1.2029
   23MOL0     H 3040   4.425   9.151   5.293  0.4282  2.1348 -0.7950
   23MOL0     H 3041   4.444   8.997   5.207 -2.0113  1.1882 -3.6036
   23MOL0     H 3042   4.708   9.078   5.210  1.9916  1.8950  0.8978
   23MOL0     H 3043   4.626   9.049   5.369 -3.1723  1.6813  0.0647
   23MOL0     H 3044   4.547   9.304   5.343  0.6846 -1.6441  1.8649
   23MOL0     H 3045   4.677   9.303   5.212  3.8249  0.7774  1.5579
   23MOL0     H 3046   4.720   9.226   5.507  0.1006  0.2533  0.8870
   23MOL0     H 3047   4.836   9.207   5.385 -1.1430 -0.6690  0.0229
   23MOL0     H 3048   4.768   9.483   5.372 -1.0931 -0.6628  0.2190
   23MOL0     H 3049   4.758   9.438   5.544 -2.2928  0.5288 -0.4168
   23MOL0     H 3050   4.984   9.358   5.559  1.1778 -0.4390  0.3713
   23MOL0     H 3051   5.013   9.373   5.386  1.8623  1.4094  0.9481
   23MOL0     H 3052   4.928   9.627   5.439  1.6577  0.1556 -3.8060
   23MOL0     H 3053   5.093   9.575   5.422 -1.7247  0.1216 -2.1427
   23MOL0     H 3054   4.954   9.585   5.686  1.9770 -1.9779  1.5911
   23MOL0     H 3055   5.128   9.575   5.660 -0.1038  0.2589 -0.4588
   23MOL0     H 3056   4.881   9.807   5.756  0.2333 -0.3078  0.7027
   23MOL0     H 3057   4.862  10.137   5.577  1.9736 -1.7584  0.0360
   23MOL0     H 3058   4.794  10.036   5.708 -0.4036 -2.6700 -2.2082
   23MOL0     H 3059   5.022  10.237   5.720 -2.7123  0.0309 -3.7001
   23MOL0     H 3060   4.873  10.248   5.814 -1.4159 -3.0649  0.9781
   23MOL0     H 3061   5.085  10.058   5.872 -1.1756 -0.6804 -2.1226
   23MOL0     H 3062   4.917  10.028   5.925 -0.7583  0.0618  1.5818
   23MOL0     H 3063   5.019  10.136   6.111  0.6762 -0.9638 -0.6446
   23MOL0     H 3064   4.904  10.250   6.036 -1.5093 -2.3713 -2.4374
   23MOL0     H 3065   5.101  10.379   6.230 -1.2792  0.1726 -2.8969
   23MOL0     H 3066   5.310  10.382   6.376  0.0194  0.9484  0.2183
   23MOL0     H 3067   5.719  10.115   6.406  0.3995  1.4906 -0.5592
   23MOL0     H 3068   5.871  10.035   6.590 -3.0501 -2.1897 -0.9647
   23MOL0     H 3069   6.024  10.305   6.862 -0.1275 -1.1243 -1.5312
   23MOL0     H 3070   5.886  10.290   6.963 -0.0445  3.0077 -3.4444
   23MOL0     H 3071   6.076  10.231   7.088 -0.2704  2.3722 -1.8896
   23MOL0     H 3072   5.998  10.075   7.065  0.5971 -1.0635 -2.4170
   23MOL0     H 3073   6.153  10.027   6.864  2.1826  0.2709 -1.1698
   23MOL0     H 3074   6.219  10.183   6.882 -1.6391 -0.0363 -1.6554
   23MOL0     H 3075   6.221   9.962   7.107  2.8737 -1.7681  0.2517
   23MOL0     H 3076   6.299  10.111   7.116 -3.6572  0.1535  1.6176
   23MOL0     H 3077   6.440  10.038   6.903 -2.1706  2.6878  1.8176
   23MOL0     H 3078   6.339   9.895   6.898  0.3483  0.3437 -0.6629
   23MOL0     H 3079   6.550   9.972   7.113 -0.3181 -2.6467  4.5302
   23MOL0     H 3080   6.445   9.836   7.133  4.3326 -4.4816 -0.8257
   23MOL0     H 3081   6.668   9.873   6.924  0.6379 -1.2291 -1.6258
   23MOL0     H 3082   6.543   9.738   6.930 -0.7134  0.7086  0.4128
   23MOL0     H 3083   6.607   9.684   7.164  0.3674 -0.2099  0.8773
   23MOL0     H 3084   6.726   9.650   7.047  0.7719 -0.6353  2.1934
   23MOL0     H 3085   5.729  10.335   6.854  0.4725 -0.1947 -0.7337
   23MOL0     H 3086   5.550  10.401   6.694 -0.1145 -0.0788 -4.1034
   23MOL0     H 3087   5.533  10.224   6.037 -0.8743 -3.4736 -0.6647
   23MOL0     H 3088   5.323  10.205   5.906 -0.7708 -0.5216  0.8485
   23MOL0     H 3089   4.443   9.207   4.833  0.5289  3.8586  1.0331
   23MOL0     H 3090   4.229   9.143   4.694  1.2286  0.6017 -0.0054
   23MOL0     H 3091   3.795   9.180   4.672 -0.7095  0.4225 -1.6151
   23MOL0     H 3092   3.593   9.166   4.544  1.8509  2.6214  0.6234
   23MOL0     H 3093   3.440   9.137   4.356  3.8683 -1.4736 -0.4787
   23MOL0     H 3094   3.402   9.040   4.500  0.2392 -1.4598  0.6899
   23MOL0     H 3095   3.222   9.065   4.329  2.2800  1.7901 -0.4414
   23MOL0     H 3096   3.265   8.891   4.333 -1.7184  0.8070  0.5749
   23MOL0     H 3097   3.399   8.878   4.159 -2.4356 -1.7992 -1.2913
   23MOL0     H 3098   3.410   9.055   4.139  0.4789  0.3507  2.3282
   23MOL0     H 3099   3.264   8.886   3.994  0.7748 -0.7949 -0.3039
   23MOL0     H 3100   3.147   8.886   4.120  1.0052  0.9944  1.7042
   23MOL0     H 3101   3.074   9.248   3.913 -1.7073  0.3608  2.5308
   23MOL0     H 3102   3.703   8.778   4.417 -0.8354 -0.6016  0.8645
   23MOL0     H 3103   4.024   8.750   4.509 -0.7881  2.3686 -1.5560
   23MOL0     H 3104   3.936   8.727   4.660  1.9973 -3.3725 -0.8103
   23MOL0     H 3105   3.866   8.661   4.514  2.4293 -1.7155 -0.9093
   24MOL0     O 3106   9.197   5.483   8.223  0.4576 -0.5046 -0.5229
   24MOL0     C 3107   9.183   5.536   8.112 -0.1251  0.8767  0.4252
   24MOL0     O 3108   9.290   5.568   8.021  0.5111  0.1464 -0.3829
   24MOL0     C 3109   9.421   5.542   8.054  0.8908 -0.3431  1.1324
   24MOL0     C 3110   9.507   5.654   8.057  0.7595  0.0228  0.2907
   24MOL0     C 3111   9.640   5.631   8.087  0.4329 -0.2711  0.2454
   24MOL0     C 3112   9.692   5.503   8.109  0.1157  0.3659  0.1565
   24MOL0     O 3113   9.826   5.498   8.126  0.5339 -0.1333 -0.6494
   24MOL0     C 3114   9.891   5.363   8.126 -0.8348  0.3211 -0.2141
   24MOL0     C 3115   9.888   5.302   7.990  0.1119  0.7474 -0.5407
   24MOL0     C 3116   9.936   5.393   7.886 -0.1656 -0.4449 -0.1352
   24MOL0     C 3117   9.952   5.327   7.745  0.5609  0.4062  0.4876
   24MOL0     C 3118   9.936   5.434   7.633 -0.5677 -0.1702  0.1637
   24MOL0     C 3119   9.799   5.434   7.571 -0.8900  0.5064 -0.4347
   24MOL0     C 3120   9.667   5.419   7.658  0.7064 -0.8650  0.1996
   24MOL0     C 3121   9.545   5.396   7.572  0.6834  0.4474 -0.0104
   24MOL0     N 3122   9.488   5.267   7.593  0.6816 -0.5817 -0.2990
   24MOL0     C 3123   9.426   5.225   7.710 -0.6929 -0.1831 -0.5670
   24MOL0     C 3124   9.413   5.091   7.695 -0.0476 -0.3902  1.2964
   24MOL0     C 3125   9.332   5.007   7.793 -0.0770 -0.5324  0.3028
   24MOL0     C 3126   9.412   4.934   7.904  0.3774  0.5677  1.2317
   24MOL0     C 3127   9.434   5.029   8.010 -0.7689  0.6548  0.3833
   24MOL0     C 3128   9.512   4.982   8.132  0.0411 -0.4481 -0.3320
   24MOL0     O 3129   9.649   4.980   8.100 -0.0157  0.1019  0.1065
   24MOL0     C 3130   9.745   4.990   8.206 -0.5675 -0.5054  0.6549
   24MOL0     C 3131   9.876   4.999   8.154 -0.4817 -0.0045  0.5067
   24MOL0     C 3132   9.976   5.022   8.252  0.2200  1.0447  0.2416
   24MOL0     C 3133   9.948   5.030   8.391 -0.0778  0.7325 -0.0895
   24MOL0     C 3134  10.051   5.034   8.502  0.0111  0.6194  1.2104
   24MOL0     O 3135  10.003   5.054   8.628 -0.3402 -0.0163 -0.3035
   24MOL0     C 3136  10.097   5.025   8.723 -0.6717  1.4252 -0.0242
   24MOL0     C 3137  10.201   5.105   8.763  0.4169 -0.2920 -0.1950
   24MOL0     C 3138  10.291   5.067   8.864  0.2488  0.9893  0.7932
   24MOL0     C 3139  10.284   4.940   8.917 -0.0279  0.6675 -0.3059
   24MOL0     O 3140  10.358   4.888   9.022 -0.2939  0.2030  0.3087
   24MOL0     C 3141  10.438   4.987   9.083 -0.1441 -0.2736 -0.3887
   24MOL0     C 3142  10.505   4.932   9.216  0.3589  0.0848 -0.2849
   24MOL0     C 3143  10.605   5.040   9.267 -1.0294  1.4402  0.2012
   24MOL0     C 3144  10.700   4.999   9.379 -0.4910  0.4207 -0.1111
   24MOL0     C 3145  10.768   5.107   9.452  0.6326  0.0742 -0.0872
   24MOL0     C 3146  10.806   5.078   9.605 -0.2724 -0.0969  0.8795
   24MOL0     C 3147  10.934   4.986   9.606  0.1792 -0.1438  0.1919
   24MOL0     C 3148  11.059   5.073   9.629  0.3766  0.4625 -0.6628
   24MOL0    Cl 3149  11.087   5.199   9.512  0.2796  0.0172  0.2536
   24MOL0     C 3150  10.188   4.850   8.866 -0.1073 -0.6601 -0.6004
   24MOL0     C 3151  10.091   4.899   8.775  0.4821  0.1550  0.1025
   24MOL0     O 3152  10.169   5.037   8.467  0.1349  0.7421 -0.6151
   24MOL0     C 3153   9.816   5.020   8.431 -1.4734 -0.4088 -0.1506
   24MOL0     C 3154   9.714   4.998   8.340 -0.2746 -0.7319 -0.5792
   24MOL0     N 3155   9.464   5.060   7.568 -0.7728 -0.0184 -0.1502
   24MOL0     N 3156   9.516   5.164   7.516  0.4610  0.6815  0.0679
   24MOL0     C 3157   9.597   5.392   8.103  0.5910 -0.3368 -0.2962
   24MOL0     C 3158   9.460   5.409   8.073 -0.6778 -0.6651 -0.8824
   24MOL0     C 3159   9.042   5.586   8.081  0.5610  0.9468  0.1944
   24MOL0     C 3160   8.925   5.529   8.152 -0.3292  0.3715  0.3878
   24MOL0     C 3161   8.800   5.592   8.136  0.4317 -0.4218  0.1800
   24MOL0     C 3162   8.774   5.702   8.051  0.9808 -0.1091  0.7366
   24MOL0     O 3163   8.658   5.764   8.025 -0.3724 -0.0725  0.8042
   24MOL0     C 3164   8.536   5.704   8.086 -0.1160 -0.5704  0.2218
   24MOL0     C 3165   8.403   5.773   8.046  0.0405  0.1855  0.0292
   24MOL0     C 3166   8.429   5.921   8.081  0.4403 -1.0015  0.2153
   24MOL0     C 3167   8.292   6.005   8.099  0.4257  0.2512  0.4702
   24MOL0     C 3168   8.339   6.132   8.163 -0.1030 -0.0710  0.0191
   24MOL0     C 3169   8.398   6.241   8.194 -0.0107  0.5414  0.3935
   24MOL0     C 3170   8.884   5.753   7.993  0.3985  0.0141  0.0558
   24MOL0     C 3171   9.014   5.701   8.003  0.4517 -0.2586  0.7554
   24MOL0     C 3172   9.107   5.788   7.928  0.0325  0.2533 -1.3660
   24MOL0     H 3173   9.478   5.755   8.032 -1.4232 -0.4672  0.6187
   24MOL0     H 3174   9.702   5.719   8.104 -0.7490  0.1900  2.5967
   24MOL0     H 3175   9.998   5.373   8.143 -0.3460  1.0560 -3.2317
   24MOL0     H 3176   9.843   5.291   8.193 -1.1169  2.5195  2.1217
   24MOL0     H 3177   9.788   5.270   7.959 -0.6518  0.7632  1.7609
   24MOL0     H 3178   9.947   5.210   7.992 -2.7053 -1.2187 -0.8766
   24MOL0     H 3179  10.036   5.429   7.913  0.2279 -2.2331  0.9256
   24MOL0     H 3180   9.868   5.479   7.875 -1.4744 -0.9447  2.9177
   24MOL0     H 3181  10.050   5.280   7.730  0.0794 -1.4047  2.4595
   24MOL0     H 3182   9.868   5.259   7.729  1.7525 -0.6515 -1.8420
   24MOL0     H 3183   9.961   5.536   7.662 -0.4664  0.0738 -0.7633
   24MOL0     H 3184  10.003   5.409   7.550  2.0802  2.9145  1.1645
   24MOL0     H 3185   9.788   5.520   7.503 -0.7152 -0.2172 -1.3965
   24MOL0     H 3186   9.786   5.341   7.516 -2.0755  0.7158 -0.5333
   24MOL0     H 3187   9.650   5.511   7.714  3.0697  2.6044 -4.1232
   24MOL0     H 3188   9.675   5.339   7.733  3.1807 -1.1995 -0.3362
   24MOL0     H 3189   9.467   5.470   7.592 -1.8429 -1.5518 -1.7754
   24MOL0     H 3190   9.570   5.407   7.466  1.6243 -1.7652 -0.0662
   24MOL0     H 3191   9.397   5.288   7.793  2.1759  0.0344  0.3811
   24MOL0     H 3192   9.255   5.061   7.848  1.5097  1.3421  0.7729
   24MOL0     H 3193   9.288   4.927   7.733  1.1324  0.7341 -2.4964
   24MOL0     H 3194   9.357   4.846   7.937  0.0585  1.1611  2.3032
   24MOL0     H 3195   9.502   4.893   7.857 -0.8240 -0.6717 -0.0988
   24MOL0     H 3196   9.334   5.061   8.040 -1.9741 -2.2784 -0.1356
   24MOL0     H 3197   9.489   5.117   7.974 -0.1801  0.1654  0.0567
   24MOL0     H 3198   9.476   4.889   8.176 -1.1168  1.7633  3.9610
   24MOL0     H 3199   9.496   5.061   8.206 -0.6238 -0.9380  0.0533
   24MOL0     H 3200   9.906   4.997   8.050  3.1973 -0.3181  1.4292
   24MOL0     H 3201  10.072   5.044   8.205  0.8018 -1.2876  0.1875
   24MOL0     H 3202  10.194   5.208   8.727 -1.8308  0.7343  2.7616
   24MOL0     H 3203  10.375   5.132   8.887  0.7985  0.1158  1.3212
   24MOL0     H 3204  10.512   5.017   9.008 -1.0440  0.3639 -1.0487
   24MOL0     H 3205  10.381   5.078   9.106 -1.8052 -0.9455 -1.6519
   24MOL0     H 3206  10.435   4.908   9.297 -0.5440  0.9899 -0.7748
   24MOL0     H 3207  10.565   4.843   9.192 -1.9331 -0.8841 -2.9450
   24MOL0     H 3208  10.659   5.081   9.181  0.7812  1.3166  1.2219
   24MOL0     H 3209  10.550   5.129   9.299 -1.5876  1.4501 -0.7396
   24MOL0     H 3210  10.778   4.929   9.346  0.4932  0.1609  2.5437
   24MOL0     H 3211  10.636   4.942   9.447 -0.1773  1.0294  0.7114
   24MOL0     H 3212  10.692   5.186   9.455  0.3321 -0.2062 -0.2094
   24MOL0     H 3213  10.854   5.141   9.395 -0.0337 -0.8000 -1.6752
   24MOL0     H 3214  10.820   5.172   9.659 -0.3498  1.2767 -1.3689
   24MOL0     H 3215  10.717   5.027   9.644 -1.0674 -2.0143 -2.9795
   24MOL0     H 3216  10.945   4.935   9.510  2.1573  0.7013 -0.0866
   24MOL0     H 3217  10.923   4.917   9.690  0.0550 -0.8765 -0.4197
   24MOL0     H 3218  11.046   5.111   9.731  1.9167  0.2820 -0.3801
   24MOL0     H 3219  11.148   5.011   9.630  0.0078 -0.1390 -2.0092
   24MOL0     H 3220  10.191   4.756   8.919  2.7693 -0.3123  0.0358
   24MOL0     H 3221  10.016   4.826   8.745  2.4767 -1.8176 -0.3497
   24MOL0     H 3222   9.791   5.028   8.536 -3.0076 -1.0308 -0.4360
   24MOL0     H 3223   9.620   4.994   8.395  0.5815 -0.7405  0.9555
   24MOL0     H 3224   9.632   5.295   8.136 -1.1350  0.0191  2.9628
   24MOL0     H 3225   9.391   5.327   8.056 -0.0724 -2.0446  2.5504
   24MOL0     H 3226   8.931   5.424   8.181 -1.1664 -0.2085 -1.4216
   24MOL0     H 3227   8.723   5.528   8.176 -0.4869  0.7587  0.3652
   24MOL0     H 3228   8.554   5.708   8.193  0.5698 -1.8993  0.1851
   24MOL0     H 3229   8.542   5.597   8.062  1.6616 -0.5015  0.2239
   24MOL0     H 3230   8.323   5.733   8.108  0.8424 -1.9124 -0.2280
   24MOL0     H 3231   8.377   5.766   7.940 -1.2999 -2.0215  0.4418
   24MOL0     H 3232   8.493   5.974   8.009  2.2493 -1.6103  1.2982
   24MOL0     H 3233   8.481   5.928   8.177  3.1041  0.5136 -1.2267
   24MOL0     H 3234   8.239   6.033   8.007  1.8713  1.1194 -0.1335
   24MOL0     H 3235   8.227   5.948   8.166 -2.4354  0.8027 -1.6487
   24MOL0     H 3236   8.449   6.328   8.229  1.0850 -0.6507  1.9073
   24MOL0     H 3237   8.859   5.848   7.948  1.0342  0.4644  0.6411
   24MOL0     H 3238   9.134   5.747   7.829 -1.3600  0.6353 -1.9256
   24MOL0     H 3239   9.069   5.883   7.891  0.6288  0.6999 -0.8467
   24MOL0     H 3240   9.179   5.813   8.006 -2.8469  0.8815  1.2733
   25MOL0     O 3241   8.039   3.781   4.105 -0.4824 -0.2172  1.2653
   25MOL0     C 3242   8.075   3.713   4.197 -0.1949 -0.0210  0.4021
   25MOL0     O 3243   8.200   3.667   4.218 -0.1123 -0.5638  0.3376
   25MOL0     C 3244   8.304   3.694   4.128 -0.0292 -0.1740 -0.6246
   25MOL0     C 3245   8.299   3.655   3.995  0.3498  0.5697 -0.0775
   25MOL0     C 3246   8.395   3.704   3.908 -0.9324 -0.0754  0.2393
   25MOL0     C 3247   8.513   3.768   3.951  0.1590  0.3791 -0.2114
   25MOL0     O 3248   8.617   3.815   3.875 -0.1859  0.9201  0.4817
   25MOL0     C 3249   8.598   3.811   3.737 -0.2263  0.4026 -0.6576
   25MOL0     C 3250   8.711   3.907   3.682 -0.0261  0.0652  0.5392
   25MOL0     C 3251   8.855   3.851   3.698  0.2673  0.3154 -0.1602
   25MOL0     C 3252   8.955   3.932   3.608 -0.7990  1.0215 -0.4215
   25MOL0     C 3253   9.085   3.862   3.601 -0.7149 -0.3655 -1.0404
   25MOL0     C 3254   9.088   3.729   3.524  1.4717 -0.0694  0.4941
   25MOL0     C 3255   9.226   3.671   3.512  0.9039  0.2277  0.1116
   25MOL0     C 3256   9.218   3.534   3.465 -0.0386  0.3664  0.1742
   25MOL0     N 3257   9.340   3.477   3.420 -0.0051  0.1893 -0.0307
   25MOL0     C 3258   9.397   3.490   3.298 -0.2288 -0.6462 -0.3208
   25MOL0     C 3259   9.507   3.406   3.305  0.0689 -0.6545 -0.0761
   25MOL0     C 3260   9.596   3.381   3.192  0.1993  0.5664 -0.1821
   25MOL0     C 3261   9.701   3.501   3.178  0.1354  0.5449 -0.0682
   25MOL0     C 3262   9.796   3.522   3.302  0.2809  0.6678 -0.3426
   25MOL0     C 3263   9.897   3.404   3.318  0.0553  0.4236  0.0438
   25MOL0     O 3264   9.979   3.403   3.197 -0.2350  0.5004  0.7143
   25MOL0     C 3265  10.090   3.483   3.170 -0.2479 -0.0511 -0.0049
   25MOL0     C 3266  10.140   3.584   3.258 -0.3483 -0.1104  0.3508
   25MOL0     C 3267  10.239   3.671   3.223  0.5896  0.7881 -0.1138
   25MOL0     C 3268  10.314   3.653   3.109  0.4522 -0.3440 -0.1312
   25MOL0     C 3269  10.426   3.738   3.067  0.9413  0.0299 -1.3673
   25MOL0     O 3270  10.465   3.733   2.949  1.1223  0.6946 -0.3895
   25MOL0     C 3271  10.583   3.785   2.908 -0.6515 -0.6576 -0.8388
   25MOL0     C 3272  10.700   3.781   2.987 -0.7515 -0.6873  0.1014
   25MOL0     C 3273  10.822   3.841   2.934 -0.5863  0.8877 -0.1412
   25MOL0     C 3274  10.827   3.888   2.806 -0.6333 -0.5212  0.2220
   25MOL0     O 3275  10.942   3.941   2.748  1.2826 -1.1936  0.8303
   25MOL0     C 3276  10.993   4.044   2.833 -0.7950  0.6504 -0.4046
   25MOL0     C 3277  11.138   4.013   2.871  0.5141  0.2681 -0.8275
   25MOL0     C 3278  11.247   4.017   2.760  0.2064 -0.5135  0.9050
   25MOL0     C 3279  11.391   3.972   2.805  0.6246 -0.0883  0.0404
   25MOL0     C 3280  11.466   3.917   2.682 -0.5224  0.3843  0.4628
   25MOL0     C 3281  11.618   3.894   2.720  1.0419 -0.2443  0.5565
   25MOL0     C 3282  11.714   3.934   2.613  0.0591 -0.1629 -0.4953
   25MOL0     C 3283  11.690   3.836   2.496 -0.2831  0.5843  0.3990
   25MOL0    Cl 3284  11.799   3.864   2.365 -0.0769 -0.1045  0.8315
   25MOL0     C 3285  10.708   3.899   2.731  0.2761 -0.2487  0.3531
   25MOL0     C 3286  10.594   3.840   2.783  0.4814 -0.2311 -0.6664
   25MOL0     O 3287  10.466   3.813   3.157 -0.3005 -0.7804 -0.3946
   25MOL0     C 3288  10.269   3.549   3.022 -0.0963  0.1123  0.2003
   25MOL0     C 3289  10.164   3.463   3.057 -0.3085 -0.2598  0.2528
   25MOL0     N 3290   9.520   3.364   3.439 -0.6644  0.0945  0.5143
   25MOL0     N 3291   9.429   3.429   3.503 -0.0692  1.0794 -0.3705
   25MOL0     C 3292   8.519   3.806   4.086  0.2141  0.5630  0.3330
   25MOL0     C 3293   8.417   3.769   4.171  0.0174  0.3182 -1.2496
   25MOL0     C 3294   7.969   3.648   4.293  0.2821 -0.6239 -0.1350
   25MOL0     C 3295   8.003   3.543   4.383 -0.3249 -0.5599  0.2946
   25MOL0     C 3296   7.908   3.476   4.458 -0.0431  0.5546 -0.0172
   25MOL0     C 3297   7.777   3.528   4.465  0.1204  0.3823 -0.7276
   25MOL0     O 3298   7.684   3.473   4.546  0.8608 -0.6468  0.2513
   25MOL0     C 3299   7.710   3.387   4.655 -0.4286  0.7113 -0.6876
   25MOL0     C 3300   7.581   3.355   4.732 -0.3046  0.1658 -0.0131
   25MOL0     C 3301   7.591   3.251   4.839  0.3803  0.8896 -0.4911
   25MOL0     C 3302   7.662   3.300   4.971  0.7131  0.2805  0.4928
   25MOL0     C 3303   7.688   3.201   5.072  0.0297  1.0519  0.9839
   25MOL0     C 3304   7.708   3.118   5.161 -0.2899  0.1878 -0.4651
   25MOL0     C 3305   7.742   3.630   4.383  0.8649 -0.5404  0.0805
   25MOL0     C 3306   7.835   3.691   4.294  0.4507 -0.5221  0.3562
   25MOL0     C 3307   7.775   3.798   4.216  0.2069  0.8883  0.0894
   25MOL0     H 3308   8.228   3.586   3.951  2.4826 -0.2990 -2.3579
   25MOL0     H 3309   8.377   3.683   3.803  0.4413 -2.8229  0.4452
   25MOL0     H 3310   8.616   3.716   3.686  2.3918  2.0838 -3.2176
   25MOL0     H 3311   8.498   3.848   3.714  0.6081  1.4445 -2.9101
   25MOL0     H 3312   8.694   4.001   3.736  0.0180  1.7109 -2.1414
   25MOL0     H 3313   8.688   3.946   3.583 -1.6757  0.2767  0.9634
   25MOL0     H 3314   8.855   3.748   3.660  2.9285  0.3614 -0.4575
   25MOL0     H 3315   8.890   3.850   3.802 -1.9333  0.2447  0.6385
   25MOL0     H 3316   8.928   3.955   3.505  0.6660 -1.2917 -1.3998
   25MOL0     H 3317   8.970   4.031   3.652 -1.6048  0.0679  2.2275
   25MOL0     H 3318   9.157   3.929   3.553  2.6065 -0.3516  3.3051
   25MOL0     H 3319   9.115   3.844   3.705 -0.6749 -2.2876 -1.3460
   25MOL0     H 3320   9.029   3.657   3.581  0.7823  1.7495  2.1585
   25MOL0     H 3321   9.060   3.754   3.421 -0.5509  0.0872  1.0516
   25MOL0     H 3322   9.289   3.676   3.600  4.1503 -1.8036 -1.9004
   25MOL0     H 3323   9.274   3.734   3.436  0.0101  0.1659 -0.5366
   25MOL0     H 3324   9.205   3.464   3.548  4.9678 -3.3333 -1.6181
   25MOL0     H 3325   9.147   3.521   3.384 -1.4951  1.7692  1.1639
   25MOL0     H 3326   9.373   3.541   3.205  0.6260  3.3386  1.4367
   25MOL0     H 3327   9.653   3.290   3.210  2.3677  1.3426 -2.4863
   25MOL0     H 3328   9.552   3.363   3.093  3.6784  3.9156 -2.6313
   25MOL0     H 3329   9.763   3.488   3.089  1.2925  1.0485  0.6405
   25MOL0     H 3330   9.633   3.586   3.160 -0.6930  0.0117  0.4608
   25MOL0     H 3331   9.732   3.524   3.391 -1.9467  2.4269 -1.8767
   25MOL0     H 3332   9.856   3.612   3.291 -1.5621  1.6457 -4.3731
   25MOL0     H 3333   9.836   3.315   3.337 -0.3695  0.8319  0.6513
   25MOL0     H 3334   9.950   3.421   3.412  0.1547  1.3758 -0.1746
   25MOL0     H 3335  10.085   3.602   3.350  0.7509 -0.6224  1.1214
   25MOL0     H 3336  10.260   3.751   3.294 -1.8743  1.6184 -0.2083
   25MOL0     H 3337  10.707   3.734   3.084  2.8462 -1.8478 -0.5625
   25MOL0     H 3338  10.915   3.829   2.990 -1.5058  1.7235  1.6308
   25MOL0     H 3339  10.986   4.139   2.779  0.3124  2.0009  1.6854
   25MOL0     H 3340  10.943   4.048   2.930  1.9586 -1.1199  1.2367
   25MOL0     H 3341  11.171   4.080   2.952 -0.7185 -1.2192  1.0023
   25MOL0     H 3342  11.132   3.915   2.919 -0.5741 -0.1994 -1.8611
   25MOL0     H 3343  11.218   3.944   2.682 -1.5526 -1.2527  2.1693
   25MOL0     H 3344  11.243   4.121   2.726 -3.1420  0.0061  2.4162
   25MOL0     H 3345  11.389   3.902   2.889  0.0880  0.1910  0.2701
   25MOL0     H 3346  11.450   4.055   2.845  2.4973 -0.9484 -0.8129
   25MOL0     H 3347  11.455   3.986   2.598  0.7091  1.3013  1.0196
   25MOL0     H 3348  11.421   3.820   2.661  0.9543 -0.5008  1.2120
   25MOL0     H 3349  11.653   3.935   2.815  3.6465 -1.2226  0.0898
   25MOL0     H 3350  11.623   3.785   2.734 -2.7332 -0.3564  2.3849
   25MOL0     H 3351  11.815   3.937   2.656 -0.7751 -1.4009  1.7163
   25MOL0     H 3352  11.701   4.040   2.587  0.2895  0.7354  2.6522
   25MOL0     H 3353  11.721   3.737   2.533  1.9683  0.3010 -2.0048
   25MOL0     H 3354  11.587   3.844   2.461 -0.8511 -1.0501  1.5301
   25MOL0     H 3355  10.698   3.963   2.644 -2.3812  1.4252  1.7700
   25MOL0     H 3356  10.503   3.837   2.724  0.0477 -2.2166  0.0300
   25MOL0     H 3357  10.323   3.539   2.928  0.2417 -2.7548  0.6098
   25MOL0     H 3358  10.141   3.382   2.988 -2.4438 -0.7318  1.4267
   25MOL0     H 3359   8.600   3.866   4.127 -2.1934  3.0402  1.8018
   25MOL0     H 3360   8.413   3.804   4.274 -1.1620 -1.9966 -0.4357
   25MOL0     H 3361   8.106   3.508   4.389  0.5768  2.0998  2.1221
   25MOL0     H 3362   7.956   3.395   4.511  1.1547 -0.2023 -2.1087
   25MOL0     H 3363   7.787   3.418   4.726  0.0767 -0.1326 -0.8635
   25MOL0     H 3364   7.746   3.290   4.621  0.5774  0.2728  1.4661
   25MOL0     H 3365   7.504   3.317   4.664 -1.8246 -0.4289  1.9264
   25MOL0     H 3366   7.547   3.445   4.783 -0.2096 -0.3316  0.9729
   25MOL0     H 3367   7.638   3.160   4.802 -0.9469 -0.4845  1.0271
   25MOL0     H 3368   7.494   3.217   4.877  1.9026 -1.5644  1.5113
   25MOL0     H 3369   7.745   3.370   4.955  0.1682  0.9330  0.4673
   25MOL0     H 3370   7.592   3.369   5.020 -2.1383 -2.0162 -0.0498
   25MOL0     H 3371   7.726   3.043   5.236 -2.7592 -0.0970 -0.0855
   25MOL0     H 3372   7.636   3.653   4.375  0.1862 -3.4786 -0.5665
   25MOL0     H 3373   7.724   3.755   4.129 -0.8636  0.7624  0.7585
   25MOL0     H 3374   7.698   3.850   4.274 -1.7207 -3.0988  1.4600
   25MOL0     H 3375   7.836   3.876   4.169 -2.4518  2.3783 -1.1764
   26MOL0     O 3376   7.976   9.316  11.098 -1.0751 -0.3438  0.3160
   26MOL0     C 3377   7.975   9.397  11.190  0.2649  0.2573  0.6694
   26MOL0     O 3378   7.860   9.457  11.247  0.4909  0.5553  0.2913
   26MOL0     C 3379   7.743   9.434  11.192  0.0400 -0.5582  0.1310
   26MOL0     C 3380   7.689   9.529  11.105 -1.1528  0.0702  0.5816
   26MOL0     C 3381   7.558   9.505  11.051  0.8882  0.1850 -0.0345
   26MOL0     C 3382   7.487   9.383  11.069 -0.2033  0.8830 -0.0979
   26MOL0     O 3383   7.368   9.358  11.010  0.3372 -0.1973 -0.3324
   26MOL0     C 3384   7.290   9.459  10.946 -0.1782 -0.2889 -0.0636
   26MOL0     C 3385   7.143   9.407  10.956  0.5122 -0.3067 -0.7825
   26MOL0     C 3386   7.049   9.512  10.883  0.7129 -0.5682 -0.2748
   26MOL0     C 3387   6.913   9.443  10.867 -0.6678 -0.4284 -0.2126
   26MOL0     C 3388   6.812   9.533  10.788 -0.0303  0.2624 -0.0301
   26MOL0     C 3389   6.798   9.678  10.840  0.3259  0.8543  0.7048
   26MOL0     C 3390   6.655   9.727  10.804  0.2910 -0.1972 -0.2343
   26MOL0     C 3391   6.637   9.752  10.647 -0.4463  1.2432 -0.4915
   26MOL0     N 3392   6.490   9.742  10.614  0.2144  0.1211 -0.3249
   26MOL0     C 3393   6.414   9.625  10.606  0.1130 -0.3919  0.0244
   26MOL0     C 3394   6.318   9.658  10.520 -0.0583  0.5660  0.6967
   26MOL0     C 3395   6.201   9.579  10.458 -1.4172 -0.4095  1.1141
   26MOL0     C 3396   6.091   9.557  10.556 -0.3390 -0.3730 -0.8681
   26MOL0     C 3397   6.117   9.455  10.669 -0.2904 -1.0871  0.2298
   26MOL0     C 3398   5.981   9.422  10.733  0.5742 -0.9912  0.3761
   26MOL0     O 3399   5.945   9.527  10.822  0.2219  0.4392  0.1555
   26MOL0     C 3400   5.816   9.521  10.872 -0.4474  0.5699  0.0650
   26MOL0     C 3401   5.721   9.427  10.828  0.3597 -0.1400 -0.1259
   26MOL0     C 3402   5.591   9.435  10.883  0.0804 -0.4179  0.0191
   26MOL0     C 3403   5.557   9.531  10.974  0.1524 -0.5483  0.8166
   26MOL0     C 3404   5.422   9.552  11.023 -1.1504 -0.3887  0.3568
   26MOL0     O 3405   5.329   9.456  10.983  0.2595 -0.4697 -0.6562
   26MOL0     C 3406   5.197   9.496  10.981 -0.1339  0.2687 -0.7008
   26MOL0     C 3407   5.137   9.526  10.853  0.5351  1.4068 -0.4033
   26MOL0     C 3408   5.007   9.560  10.852 -0.7281 -0.6796 -0.4969
   26MOL0     C 3409   4.925   9.563  10.962  0.2277  0.3884  0.4772
   26MOL0     O 3410   4.790   9.592  10.955 -0.0235 -1.1546 -0.4972
   26MOL0     C 3411   4.719   9.470  10.932 -0.4038  0.0360 -0.2798
   26MOL0     C 3412   4.577   9.487  10.998 -0.6057 -0.5384  0.9426
   26MOL0     C 3413   4.592   9.506  11.150 -0.3040 -0.7299 -0.0516
   26MOL0     C 3414   4.463   9.572  11.212 -0.0884  0.4611  0.7811
   26MOL0     C 3415   4.488   9.625  11.347  0.2425 -0.7095  1.0174
   26MOL0     C 3416   4.526   9.514  11.454 -0.8587 -0.0440  0.0941
   26MOL0     C 3417   4.504   9.553  11.596 -0.0586 -0.0792 -0.6694
   26MOL0     C 3418   4.549   9.694  11.648 -0.0287  0.3777 -0.0174
   26MOL0    Cl 3419   4.723   9.728  11.605  0.0695 -0.4042 -0.0992
   26MOL0     C 3420   4.979   9.532  11.090  1.2217  1.1079  0.4655
   26MOL0     C 3421   5.118   9.502  11.100 -1.1449 -0.4589  1.0441
   26MOL0     O 3422   5.393   9.651  11.089  0.0471  0.5447  0.1092
   26MOL0     C 3423   5.652   9.623  11.012  0.0017 -1.2671  0.1520
   26MOL0     C 3424   5.778   9.610  10.964 -0.0858 -1.0521  0.5884
   26MOL0     N 3425   6.324   9.790  10.496  1.0315  0.4205  0.4784
   26MOL0     N 3426   6.428   9.842  10.551  0.5054 -0.2177  0.2848
   26MOL0     C 3427   7.553   9.289  11.148  0.2476 -0.0714  0.6166
   26MOL0     C 3428   7.679   9.315  11.212 -0.0309  0.5553  0.0653
   26MOL0     C 3429   8.102   9.440  11.236 -0.5731  0.3338 -0.0145
   26MOL0     C 3430   8.212   9.435  11.145 -0.6757 -0.1939  0.1815
   26MOL0     C 3431   8.335   9.486  11.190  0.4514 -0.7181 -0.1548
   26MOL0     C 3432   8.358   9.524  11.326 -0.0194 -0.7224 -0.7358
   26MOL0     O 3433   8.489   9.554  11.366 -0.7077  0.3466  0.7460
   26MOL0     C 3434   8.504   9.618  11.489 -0.2230 -0.5617  0.7813
   26MOL0     C 3435   8.647   9.662  11.508 -0.6659  1.0277 -0.1555
   26MOL0     C 3436   8.681   9.775  11.420 -0.5860  1.3188 -0.8171
   26MOL0     C 3437   8.751   9.734  11.288  1.4677 -0.5148 -0.5181
   26MOL0     C 3438   8.761   9.863  11.206 -0.4266 -0.3112  0.7295
   26MOL0     C 3439   8.744   9.954  11.127  0.0565 -0.5692  0.4245
   26MOL0     C 3440   8.245   9.504  11.411 -0.6993  0.3501 -0.3439
   26MOL0     C 3441   8.126   9.460  11.371  0.2864 -0.4975 -0.6934
   26MOL0     C 3442   8.018   9.447  11.476 -0.6020  0.3624  0.6276
   26MOL0     H 3443   7.731   9.622  11.068  1.0643 -2.7769 -5.3739
   26MOL0     H 3444   7.510   9.583  10.993 -1.3923 -0.2173  1.1895
   26MOL0     H 3445   7.308   9.560  10.985  2.3579 -0.1115 -1.4660
   26MOL0     H 3446   7.315   9.479  10.841 -1.7046  1.7327 -0.0942
   26MOL0     H 3447   7.103   9.375  11.053  1.9587 -4.0416 -1.2277
   26MOL0     H 3448   7.147   9.316  10.895  1.0745 -0.5627 -0.3690
   26MOL0     H 3449   7.087   9.532  10.782  2.1630 -1.6035  0.0280
   26MOL0     H 3450   7.047   9.603  10.943  1.1383 -0.2972 -0.6652
   26MOL0     H 3451   6.920   9.345  10.819 -0.1822  1.1383 -3.6395
   26MOL0     H 3452   6.871   9.423  10.966  0.8010 -2.9395 -0.0085
   26MOL0     H 3453   6.835   9.523  10.681 -1.0910  0.4068 -0.2834
   26MOL0     H 3454   6.715   9.482  10.791  0.1588 -0.3198 -2.1842
   26MOL0     H 3455   6.808   9.676  10.949  2.9894  2.4451  0.5715
   26MOL0     H 3456   6.874   9.738  10.790 -0.3865  4.1237  3.2397
   26MOL0     H 3457   6.636   9.828  10.841  0.7953 -0.1394 -0.1300
   26MOL0     H 3458   6.594   9.651  10.854  2.4885 -0.0811  2.9583
   26MOL0     H 3459   6.689   9.840  10.608 -0.4617  1.0321 -1.0055
   26MOL0     H 3460   6.677   9.667  10.590  0.7652  1.4468  0.0316
   26MOL0     H 3461   6.439   9.529  10.650  4.4852 -0.0467 -1.1929
   26MOL0     H 3462   6.166   9.639  10.374  1.3227 -0.5593 -0.2539
   26MOL0     H 3463   6.225   9.482  10.414  0.1966  1.0820 -1.5980
   26MOL0     H 3464   6.066   9.653  10.602  1.2053 -0.8184  1.0095
   26MOL0     H 3465   6.003   9.528  10.497  0.1731 -0.7502 -1.4693
   26MOL0     H 3466   6.190   9.498  10.739  1.2310 -1.0568 -1.3103
   26MOL0     H 3467   6.159   9.362  10.630  4.1286 -0.3811  2.6743
   26MOL0     H 3468   5.985   9.328  10.788 -1.6496 -0.2070  2.0254
   26MOL0     H 3469   5.909   9.426  10.651 -1.5468  0.6434  2.1975
   26MOL0     H 3470   5.750   9.341  10.768  0.2742 -0.7066  0.6252
   26MOL0     H 3471   5.532   9.357  10.835 -0.2365 -1.2196  1.6340
   26MOL0     H 3472   5.192   9.529  10.759  1.2838 -0.8632 -0.0959
   26MOL0     H 3473   4.948   9.577  10.763 -0.8959 -0.4522 -0.3469
   26MOL0     H 3474   4.710   9.440  10.827  0.9650 -2.4656  0.2455
   26MOL0     H 3475   4.768   9.385  10.981  0.3252  0.1165 -0.8542
   26MOL0     H 3476   4.517   9.561  10.944  0.0617 -1.3765 -1.0400
   26MOL0     H 3477   4.513   9.400  10.981 -2.2002  0.7714 -0.1473
   26MOL0     H 3478   4.613   9.411  11.199  0.3951 -2.0954 -2.7895
   26MOL0     H 3479   4.670   9.579  11.173  1.3123 -2.4496  0.1092
   26MOL0     H 3480   4.389   9.491  11.218 -0.0543  0.2048 -1.3874
   26MOL0     H 3481   4.427   9.651  11.145  0.1706 -1.3514 -1.6447
   26MOL0     H 3482   4.394   9.672  11.378 -0.1324  0.3812 -1.5853
   26MOL0     H 3483   4.571   9.696  11.335  1.6462 -2.5657 -1.0986
   26MOL0     H 3484   4.476   9.420  11.431 -0.3896  0.3464 -2.8734
   26MOL0     H 3485   4.632   9.491  11.443 -0.7644  0.1688  0.5052
   26MOL0     H 3486   4.552   9.471  11.651 -0.5550 -0.5999 -0.9992
   26MOL0     H 3487   4.402   9.527  11.624  0.5013 -2.5776 -0.7362
   26MOL0     H 3488   4.476   9.769  11.616 -1.4095 -2.7376 -5.6740
   26MOL0     H 3489   4.555   9.689  11.757  1.1774 -1.8183 -0.1310
   26MOL0     H 3490   4.922   9.529  11.183 -0.5204  0.3375 -0.5939
   26MOL0     H 3491   5.156   9.491  11.201  0.7546 -1.3068  0.2720
   26MOL0     H 3492   5.617   9.701  11.078  0.6498 -1.2544  0.4939
   26MOL0     H 3493   5.857   9.680  10.988 -2.8521  2.6868 -0.2912
   26MOL0     H 3494   7.522   9.186  11.162  0.3497 -0.3678 -1.0942
   26MOL0     H 3495   7.715   9.232  11.273  0.3990  1.2819  0.8216
   26MOL0     H 3496   8.207   9.399  11.042  1.2247  1.3245 -0.4967
   26MOL0     H 3497   8.410   9.476  11.112  0.4617  1.9729 -0.6169
   26MOL0     H 3498   8.469   9.544  11.561 -1.9137 -1.5510 -0.9646
   26MOL0     H 3499   8.434   9.703  11.490 -1.2570 -1.3801  0.5083
   26MOL0     H 3500   8.718   9.579  11.504  0.5408  1.9925  0.3750
   26MOL0     H 3501   8.650   9.693  11.613 -1.7111  0.0847  0.1724
   26MOL0     H 3502   8.742   9.846  11.476 -3.3959  3.8141 -0.6707
   26MOL0     H 3503   8.593   9.839  11.407 -0.7314  2.2031  3.3775
   26MOL0     H 3504   8.850   9.687  11.290  1.4711 -0.4960  0.7876
   26MOL0     H 3505   8.686   9.667  11.232 -0.1080 -1.0261  1.7968
   26MOL0     H 3506   8.726  10.032  11.056  2.1518 -1.7377 -1.5135
   26MOL0     H 3507   8.243   9.530  11.516 -0.0186  1.1526 -0.5212
   26MOL0     H 3508   8.063   9.419  11.572  0.0246  0.3956  0.3450
   26MOL0     H 3509   7.966   9.542  11.494  1.6846  2.1856 -1.6086
   26MOL0     H 3510   7.955   9.361  11.454 -0.5571  0.2344  0.9951
   27MOL0     O 3511   2.453   5.985   2.017 -0.4215 -0.1272  0.7347
   27MOL0     C 3512   2.426   5.871   1.990  0.0741 -0.5022  0.2061
   27MOL0     O 3513   2.501   5.786   1.914 -0.0892  0.9007 -0.6840
   27MOL0     C 3514   2.613   5.812   1.833 -0.4078  0.0466  0.3197
   27MOL0     C 3515   2.650   5.942   1.799 -0.1284  0.0748  0.3186
   27MOL0     C 3516   2.762   5.971   1.720 -0.6566 -0.0241  0.1935
   27MOL0     C 3517   2.847   5.867   1.680 -0.1070 -1.0180 -0.1126
   27MOL0     O 3518   2.952   5.888   1.597 -0.0396  0.2395 -0.0214
   27MOL0     C 3519   2.930   5.930   1.458 -0.2351  0.2333  0.1015
   27MOL0     C 3520   3.040   5.897   1.354 -0.2891 -0.1328 -0.2310
   27MOL0     C 3521   3.162   5.996   1.359  0.1164 -0.3206  0.1915
   27MOL0     C 3522   3.265   5.941   1.267 -0.7298 -0.0720 -0.6082
   27MOL0     C 3523   3.391   6.028   1.245  0.7161  0.2559  0.0114
   27MOL0     C 3524   3.464   6.068   1.383 -0.1631  0.4034 -0.4773
   27MOL0     C 3525   3.491   5.959   1.487 -0.5702 -0.0300  0.3184
   27MOL0     C 3526   3.625   5.898   1.459  0.0364 -0.0041 -0.2386
   27MOL0     N 3527   3.664   5.794   1.560  1.3453  0.3998  0.8081
   27MOL0     C 3528   3.707   5.802   1.682  0.3990  0.2200  0.1000
   27MOL0     C 3529   3.730   5.684   1.729  0.5790 -0.1473 -0.5897
   27MOL0     C 3530   3.773   5.655   1.876 -0.1445  0.2723  0.3540
   27MOL0     C 3531   3.660   5.582   1.950 -0.1452 -0.4975 -0.3661
   27MOL0     C 3532   3.546   5.681   1.967 -0.8736  0.0545  0.3371
   27MOL0     C 3533   3.432   5.635   2.052 -1.0271 -0.2959 -0.4661
   27MOL0     O 3534   3.328   5.733   2.056  0.2372 -0.3808 -0.1520
   27MOL0     C 3535   3.201   5.671   2.075  0.1631  0.3182 -1.0116
   27MOL0     C 3536   3.184   5.554   2.153  0.0148 -0.8005 -0.0302
   27MOL0     C 3537   3.056   5.510   2.184  0.4646 -0.0445  1.1672
   27MOL0     C 3538   2.943   5.561   2.123 -0.4084 -0.2198 -0.3634
   27MOL0     C 3539   2.807   5.507   2.147  0.2539  0.5182  0.2143
   27MOL0     O 3540   2.769   5.497   2.276  1.0043  0.5505  0.5136
   27MOL0     C 3541   2.636   5.439   2.294  0.6220 -0.0926 -0.5757
   27MOL0     C 3542   2.614   5.328   2.368 -0.3761  0.1151 -0.2333
   27MOL0     C 3543   2.478   5.291   2.396  0.3823  1.4123 -1.0033
   27MOL0     C 3544   2.375   5.364   2.348 -0.5778 -0.1998 -0.2652
   27MOL0     O 3545   2.245   5.336   2.382  0.2226 -0.5598 -0.0640
   27MOL0     C 3546   2.151   5.350   2.274  0.3545  0.1645  0.6099
   27MOL0     C 3547   2.022   5.274   2.299  0.7243 -0.3793  0.5921
   27MOL0     C 3548   1.928   5.324   2.419  0.4259  0.2947  0.7692
   27MOL0     C 3549   1.801   5.238   2.443  0.7452 -0.7794  1.1893
   27MOL0     C 3550   1.691   5.308   2.525  0.0417  0.3023  0.1864
   27MOL0     C 3551   1.734   5.312   2.679  0.4306  0.1183 -0.2587
   27MOL0     C 3552   1.617   5.347   2.770  0.8824  0.4926 -0.6619
   27MOL0     C 3553   1.511   5.229   2.787  0.5767 -0.8116  0.0985
   27MOL0    Cl 3554   1.378   5.311   2.877  0.4096  0.2896 -0.3917
   27MOL0     C 3555   2.397   5.482   2.274 -0.9887 -0.2500 -0.9550
   27MOL0     C 3556   2.529   5.519   2.246  0.4438  0.4727 -0.1349
   27MOL0     O 3557   2.740   5.482   2.048 -0.0081  0.7481 -0.7027
   27MOL0     C 3558   2.965   5.667   2.036  0.0455 -0.3007 -0.0415
   27MOL0     C 3559   3.087   5.732   2.019  0.2667  0.0894 -0.0077
   27MOL0     N 3560   3.710   5.596   1.618  0.3409  0.0442 -0.5444
   27MOL0     N 3561   3.683   5.670   1.520  0.9405  0.4943 -0.5351
   27MOL0     C 3562   2.819   5.735   1.724 -0.1218  0.5827 -0.5765
   27MOL0     C 3563   2.699   5.709   1.785 -0.1666  0.2899 -0.2819
   27MOL0     C 3564   2.310   5.800   2.045  0.1158 -0.7848  0.3033
   27MOL0     C 3565   2.281   5.671   2.000 -0.8097  0.3906 -0.8929
   27MOL0     C 3566   2.157   5.614   2.015 -0.3564  0.3537 -0.4613
   27MOL0     C 3567   2.064   5.660   2.106 -0.5565  0.9255 -0.4238
   27MOL0     O 3568   1.954   5.586   2.140  0.3559 -0.3431 -0.3585
   27MOL0     C 3569   1.869   5.561   2.026  0.3167  0.3821 -0.0512
   27MOL0     C 3570   1.724   5.551   2.076  0.9343 -0.3226 -0.1578
   27MOL0     C 3571   1.666   5.678   2.136 -0.3119 -0.3979 -0.3456
   27MOL0     C 3572   1.661   5.796   2.039  0.3725 -0.0171  0.9769
   27MOL0     C 3573   1.750   5.907   2.088 -0.1730 -0.0664  0.6276
   27MOL0     C 3574   1.832   5.987   2.116  0.5835 -0.2196  0.0957
   27MOL0     C 3575   2.104   5.782   2.177 -0.5731 -0.0149 -0.3613
   27MOL0     C 3576   2.219   5.858   2.138  0.8195  0.4389  0.2344
   27MOL0     C 3577   2.213   6.002   2.188 -0.8662 -1.2182 -0.2375
   27MOL0     H 3578   2.580   6.023   1.818 -1.4485 -0.1488 -2.9558
   27MOL0     H 3579   2.794   6.073   1.700 -0.7724  0.3374  1.7550
   27MOL0     H 3580   2.844   5.878   1.417  0.5132 -1.5632  0.7164
   27MOL0     H 3581   2.923   6.039   1.461 -0.4571  0.1998  2.0528
   27MOL0     H 3582   2.999   5.895   1.253  1.6522  4.4371 -1.3570
   27MOL0     H 3583   3.076   5.795   1.371  1.0187 -0.0425 -2.1527
   27MOL0     H 3584   3.196   6.000   1.463  1.3905  0.8129 -0.2404
   27MOL0     H 3585   3.145   6.098   1.322  2.3571 -0.3067 -0.9910
   27MOL0     H 3586   3.298   5.840   1.295 -0.7036 -1.0718 -3.8541
   27MOL0     H 3587   3.212   5.927   1.173 -0.3275  2.4376 -1.2792
   27MOL0     H 3588   3.469   5.986   1.180  1.3493 -0.6149  1.2838
   27MOL0     H 3589   3.355   6.117   1.194  1.8675  2.2429  2.4395
   27MOL0     H 3590   3.555   6.124   1.361 -0.9929  2.7901  1.6363
   27MOL0     H 3591   3.399   6.142   1.431  2.9974  1.8412  1.9758
   27MOL0     H 3592   3.415   5.880   1.487 -0.6887  0.0805 -0.5724
   27MOL0     H 3593   3.507   6.014   1.580 -0.2742  3.5723 -1.7181
   27MOL0     H 3594   3.603   5.843   1.367 -2.5608  0.6752 -0.1291
   27MOL0     H 3595   3.701   5.977   1.461 -1.3903  1.4356  2.0141
   27MOL0     H 3596   3.711   5.897   1.734  0.1367  1.9038 -2.7476
   27MOL0     H 3597   3.854   5.581   1.870 -0.5103 -0.1400  0.4723
   27MOL0     H 3598   3.817   5.741   1.927  1.5894  0.4910 -1.3897
   27MOL0     H 3599   3.622   5.505   1.882 -0.7869 -0.0365 -0.5439
   27MOL0     H 3600   3.706   5.544   2.041  0.0356 -2.2230 -1.1233
   27MOL0     H 3601   3.508   5.713   1.870  2.2016  2.1484 -0.3194
   27MOL0     H 3602   3.586   5.771   2.014  0.0103  0.2189 -0.6918
   27MOL0     H 3603   3.462   5.616   2.155  1.2125 -1.1326 -1.2026
   27MOL0     H 3604   3.391   5.546   2.004 -4.0645  1.5056 -1.4716
   27MOL0     H 3605   3.263   5.512   2.214 -0.8014  0.2487  1.8217
   27MOL0     H 3606   3.044   5.431   2.257 -0.4523 -0.7606  0.2834
   27MOL0     H 3607   2.699   5.272   2.405  0.7475  2.7608  1.4153
   27MOL0     H 3608   2.442   5.206   2.453 -0.5870  2.1616 -0.4566
   27MOL0     H 3609   2.129   5.456   2.258  3.0096  0.4373 -2.2630
   27MOL0     H 3610   2.195   5.310   2.182  0.5448 -1.0283  1.2087
   27MOL0     H 3611   1.970   5.252   2.206 -3.7479  0.6332  2.5718
   27MOL0     H 3612   2.053   5.178   2.340 -0.5214 -0.3180  1.7758
   27MOL0     H 3613   1.985   5.329   2.513 -0.3452  0.3664  1.2376
   27MOL0     H 3614   1.894   5.424   2.392  1.7646  0.1320 -1.8581
   27MOL0     H 3615   1.832   5.143   2.485  1.2824 -0.7221  0.9237
   27MOL0     H 3616   1.768   5.225   2.339  0.6214 -2.9680  1.4549
   27MOL0     H 3617   1.613   5.233   2.511 -0.4240  0.5907  1.1544
   27MOL0     H 3618   1.659   5.397   2.470 -0.5950 -0.4579 -0.7133
   27MOL0     H 3619   1.761   5.212   2.715  0.3099  0.7361  1.6172
   27MOL0     H 3620   1.813   5.387   2.690 -1.0935  1.7199  0.2354
   27MOL0     H 3621   1.578   5.441   2.729  1.6586  0.8017 -0.7029
   27MOL0     H 3622   1.658   5.358   2.871 -0.4674 -0.9743  0.0884
   27MOL0     H 3623   1.473   5.191   2.692  0.4882  0.8909 -0.5911
   27MOL0     H 3624   1.550   5.142   2.841  0.9401 -0.1043  1.0072
   27MOL0     H 3625   2.312   5.543   2.245 -2.8074 -0.9783  2.2732
   27MOL0     H 3626   2.558   5.607   2.190  0.7213  1.8429  2.0676
   27MOL0     H 3627   2.879   5.695   1.977  1.2803  2.3305 -0.7168
   27MOL0     H 3628   3.089   5.827   1.967  2.7611 -0.8126 -1.7405
   27MOL0     H 3629   2.884   5.658   1.685 -0.3228 -0.5978  1.2793
   27MOL0     H 3630   2.663   5.610   1.810  0.2626  0.7261  2.4320
   27MOL0     H 3631   2.353   5.607   1.950  2.0289  4.1714 -2.0487
   27MOL0     H 3632   2.133   5.514   1.980  1.7549 -1.1582  2.0760
   27MOL0     H 3633   1.891   5.467   1.974 -1.5090 -0.5668  0.7824
   27MOL0     H 3634   1.890   5.639   1.952  4.6494  0.1233  0.6790
   27MOL0     H 3635   1.734   5.478   2.157 -0.3980  0.1860  0.4949
   27MOL0     H 3636   1.662   5.503   2.000  0.9000 -3.5664  1.7094
   27MOL0     H 3637   1.727   5.705   2.223 -1.0647 -1.6830  0.6161
   27MOL0     H 3638   1.566   5.647   2.168 -0.5490  1.6630  1.0927
   27MOL0     H 3639   1.691   5.773   1.936 -2.9705 -2.8044  0.4224
   27MOL0     H 3640   1.558   5.828   2.020  0.5748 -0.8379 -1.9098
   27MOL0     H 3641   1.913   6.054   2.134  0.3736 -0.4928  2.5307
   27MOL0     H 3642   2.054   5.826   2.262  3.0223 -0.7422  2.3774
   27MOL0     H 3643   2.141   6.017   2.268 -0.2802  1.7833 -0.1513
   27MOL0     H 3644   2.311   6.042   2.217 -0.1456 -0.7757 -2.9771
   27MOL0     H 3645   2.180   6.053   2.097  0.6297 -1.5331 -0.9865
   28MOL0     O 3646   7.716   8.621   0.686 -0.0077 -0.9001 -0.0541
   28MOL0     C 3647   7.764   8.618   0.803  0.4970 -0.8017 -0.0300
   28MOL0     O 3648   7.853   8.528   0.853  0.0106  0.5323  0.3060
   28MOL0     C 3649   7.881   8.406   0.787  0.3724 -0.0316 -0.3613
   28MOL0     C 3650   7.983   8.338   0.840  0.0495  0.2293  0.3944
   28MOL0     C 3651   8.011   8.207   0.802  0.2167  0.7475 -0.4807
   28MOL0     C 3652   7.947   8.143   0.694  0.4776 -0.6637 -0.4321
   28MOL0     O 3653   7.978   8.019   0.649  0.6083 -0.1139  0.0217
   28MOL0     C 3654   8.029   7.910   0.738  0.0714  0.0787  0.6770
   28MOL0     C 3655   7.911   7.873   0.818 -1.5471 -0.1539 -0.1914
   28MOL0     C 3656   7.921   7.773   0.936  1.0856  0.5236 -0.7265
   28MOL0     C 3657   8.017   7.819   1.051  0.6320  0.2446 -0.0526
   28MOL0     C 3658   7.976   7.755   1.184 -0.8387  0.6151  0.4643
   28MOL0     C 3659   8.068   7.798   1.299 -0.2780 -0.1186 -0.0864
   28MOL0     C 3660   8.038   7.709   1.425 -0.4647  0.4835 -0.6522
   28MOL0     C 3661   8.052   7.786   1.549  0.0965  0.2791 -0.2409
   28MOL0     N 3662   7.985   7.729   1.673  0.0680  0.1889  0.0671
   28MOL0     C 3663   8.000   7.598   1.699 -0.1649  0.2412 -0.2644
   28MOL0     C 3664   7.895   7.565   1.785 -1.4416 -0.4129 -0.2063
   28MOL0     C 3665   7.863   7.423   1.825 -0.7478 -0.5340 -0.9022
   28MOL0     C 3666   7.735   7.368   1.755  0.3717  0.0773  0.7778
   28MOL0     C 3667   7.774   7.288   1.639 -0.5135  0.3247  0.0991
   28MOL0     C 3668   7.653   7.231   1.565  1.1923 -0.6707 -0.4712
   28MOL0     O 3669   7.561   7.148   1.655  0.3648 -1.4354 -0.1063
   28MOL0     C 3670   7.438   7.113   1.602 -0.2149  0.7240  1.7146
   28MOL0     C 3671   7.394   7.139   1.472  1.0093 -0.2391  0.2004
   28MOL0     C 3672   7.269   7.098   1.434 -0.6219 -0.1521  0.3009
   28MOL0     C 3673   7.188   7.025   1.520  0.2544  1.0261 -0.0527
   28MOL0     C 3674   7.066   6.976   1.469  0.1691 -0.7310  0.1078
   28MOL0     O 3675   7.007   6.878   1.550  0.2206 -0.3741  0.2494
   28MOL0     C 3676   6.903   6.810   1.500  0.0868 -0.8886 -0.0765
   28MOL0     C 3677   6.794   6.790   1.584  0.3222  0.0627 -0.3258
   28MOL0     C 3678   6.690   6.707   1.550  0.0989 -0.6719 -0.1302
   28MOL0     C 3679   6.684   6.655   1.421  0.5362 -0.5315  1.1325
   28MOL0     O 3680   6.579   6.593   1.366 -0.8499  0.0520 -0.7237
   28MOL0     C 3681   6.445   6.624   1.402 -0.4498  1.3390 -0.9565
   28MOL0     C 3682   6.359   6.530   1.318  0.0951 -0.7849  0.1002
   28MOL0     C 3683   6.415   6.384   1.302 -0.5474 -0.7305 -0.4926
   28MOL0     C 3684   6.425   6.315   1.447  0.0482 -0.0804  0.4842
   28MOL0     C 3685   6.409   6.167   1.442  0.3073  0.8445 -0.0814
   28MOL0     C 3686   6.406   6.086   1.573 -1.1932  0.5234  0.5762
   28MOL0     C 3687   6.369   5.947   1.545  0.1401  1.5873  0.9285
   28MOL0     C 3688   6.345   5.858   1.660 -0.1124  0.5026  0.3373
   28MOL0    Cl 3689   6.265   5.710   1.614 -0.1508  0.1640 -0.1457
   28MOL0     C 3690   6.789   6.671   1.329  0.0983 -0.5870 -0.9332
   28MOL0     C 3691   6.906   6.743   1.376  0.4911 -1.2586 -0.4243
   28MOL0     O 3692   7.030   7.015   1.355  0.4367 -0.4300  0.4514
   28MOL0     C 3693   7.233   7.015   1.658  0.0709  0.4347  0.4937
   28MOL0     C 3694   7.354   7.054   1.702 -0.2420 -0.8849  0.7459
   28MOL0     N 3695   7.826   7.681   1.814  0.7410  0.7551 -0.7090
   28MOL0     N 3696   7.883   7.782   1.753 -0.5395  0.6025 -0.0555
   28MOL0     C 3697   7.839   8.212   0.640  0.2558 -0.3463 -0.6409
   28MOL0     C 3698   7.804   8.344   0.683 -0.0490 -1.0114 -0.3398
   28MOL0     C 3699   7.742   8.740   0.896  0.3590  0.6682 -0.5900
   28MOL0     C 3700   7.779   8.731   1.029  0.5628  0.8431  0.7172
   28MOL0     C 3701   7.750   8.822   1.129  0.2397 -0.7906  0.6434
   28MOL0     C 3702   7.696   8.936   1.094 -0.4003  0.0095  0.0542
   28MOL0     O 3703   7.653   9.031   1.192  0.5372 -0.3913  0.3029
   28MOL0     C 3704   7.647   9.164   1.150 -0.3491  0.6427  0.3783
   28MOL0     C 3705   7.612   9.255   1.258  0.4294 -0.6110 -0.2995
   28MOL0     C 3706   7.565   9.392   1.198 -0.3011  0.0871  0.5942
   28MOL0     C 3707   7.595   9.503   1.307  1.0043 -0.3002  0.8280
   28MOL0     C 3708   7.567   9.636   1.242  0.2730 -0.2724  0.2215
   28MOL0     C 3709   7.530   9.736   1.183  0.1401  0.7809  0.1366
   28MOL0     C 3710   7.673   8.962   0.952  0.5942 -0.1988 -0.5672
   28MOL0     C 3711   7.701   8.872   0.857 -0.6214 -0.0375  0.5588
   28MOL0     C 3712   7.681   8.915   0.712  0.1754  0.2003 -0.1861
   28MOL0     H 3713   8.042   8.383   0.920 -2.5248  0.8521  2.0685
   28MOL0     H 3714   8.087   8.162   0.864  0.7366  0.4215 -1.3331
   28MOL0     H 3715   8.073   7.829   0.680  2.2619  1.3426  0.4711
   28MOL0     H 3716   8.112   7.937   0.804  0.2797  2.5092 -0.4730
   28MOL0     H 3717   7.825   7.844   0.756  0.4394  1.0674 -3.8346
   28MOL0     H 3718   7.884   7.967   0.867 -2.9087 -1.6730  2.2000
   28MOL0     H 3719   7.936   7.666   0.918  2.9515  0.6785 -0.3374
   28MOL0     H 3720   7.821   7.766   0.981  1.4009 -0.1598 -0.0979
   28MOL0     H 3721   8.122   7.809   1.024  1.1663  1.8373  1.2787
   28MOL0     H 3722   7.995   7.926   1.056  0.3448  0.3366 -2.4453
   28MOL0     H 3723   7.872   7.779   1.206 -0.5513  2.3154  0.1567
   28MOL0     H 3724   7.981   7.646   1.175 -2.0787  0.6496 -0.8784
   28MOL0     H 3725   8.176   7.798   1.280 -0.1146 -0.7347  0.7955
   28MOL0     H 3726   8.028   7.896   1.328 -1.5823 -1.5099  3.3593
   28MOL0     H 3727   8.104   7.622   1.416 -1.0636  0.0093 -0.5260
   28MOL0     H 3728   7.930   7.693   1.417 -1.4112  4.3821  1.7613
   28MOL0     H 3729   8.158   7.797   1.572  1.5591  0.4531 -5.6413
   28MOL0     H 3730   8.010   7.886   1.535 -0.2973 -0.1672 -2.7837
   28MOL0     H 3731   8.036   7.522   1.631 -2.0956 -0.6983 -0.3174
   28MOL0     H 3732   7.937   7.346   1.801  0.0319 -0.3632  0.8242
   28MOL0     H 3733   7.843   7.428   1.932 -1.1054  1.6079 -1.0170
   28MOL0     H 3734   7.683   7.297   1.821 -1.6763 -0.7256 -1.5299
   28MOL0     H 3735   7.673   7.453   1.723  1.1813  1.2921  2.2721
   28MOL0     H 3736   7.833   7.203   1.675  1.0140  0.7705 -1.2358
   28MOL0     H 3737   7.835   7.338   1.563 -1.8256 -2.4975 -3.0483
   28MOL0     H 3738   7.695   7.181   1.478  2.4197 -2.0774  0.8764
   28MOL0     H 3739   7.610   7.324   1.526 -2.1564 -0.7134  2.5909
   28MOL0     H 3740   7.459   7.176   1.393 -0.4602 -0.6669 -1.2899
   28MOL0     H 3741   7.241   7.105   1.329 -0.4115 -0.1009  0.2465
   28MOL0     H 3742   6.812   6.838   1.680  3.5276 -2.2149  0.3726
   28MOL0     H 3743   6.615   6.682   1.625  0.1163  0.7134  0.3817
   28MOL0     H 3744   6.422   6.594   1.505 -1.0643 -0.4513 -1.5611
   28MOL0     H 3745   6.417   6.727   1.380 -2.9658  0.5501 -1.8123
   28MOL0     H 3746   6.262   6.538   1.370  0.9375  2.8828  1.4496
   28MOL0     H 3747   6.353   6.577   1.219  2.8183  0.0286  0.2511
   28MOL0     H 3748   6.347   6.335   1.231  0.7242 -3.1376 -0.1307
   28MOL0     H 3749   6.517   6.377   1.264  0.3960 -3.0627  2.1785
   28MOL0     H 3750   6.351   6.346   1.521  0.5420  0.9958  0.5505
   28MOL0     H 3751   6.523   6.337   1.491 -1.0612  1.4672  2.3204
   28MOL0     H 3752   6.499   6.126   1.395  1.4327  0.9298  1.9126
   28MOL0     H 3753   6.319   6.147   1.382 -0.0669  3.6712 -0.5685
   28MOL0     H 3754   6.502   6.070   1.622 -0.0782  0.2415 -1.5776
   28MOL0     H 3755   6.337   6.127   1.647  1.0779  1.2347  2.4299
   28MOL0     H 3756   6.433   5.907   1.465 -2.9584  3.4812 -2.8794
   28MOL0     H 3757   6.273   5.944   1.493  1.0228 -2.9075 -0.9349
   28MOL0     H 3758   6.439   5.833   1.710 -0.8323 -1.4687  0.8129
   28MOL0     H 3759   6.276   5.918   1.721 -0.0957  1.5496 -0.6370
   28MOL0     H 3760   6.789   6.628   1.229  1.3193 -1.2506 -0.6771
   28MOL0     H 3761   6.990   6.754   1.308  0.2239 -2.0695 -0.9018
   28MOL0     H 3762   7.175   6.954   1.727  1.3531  1.6606  2.7763
   28MOL0     H 3763   7.397   7.039   1.800  1.9530  2.1220  0.4006
   28MOL0     H 3764   7.785   8.167   0.557  1.8774  0.0444 -1.9581
   28MOL0     H 3765   7.725   8.402   0.637  0.1368  0.0548  0.6450
   28MOL0     H 3766   7.831   8.646   1.072 -1.0984  0.7912  2.7866
   28MOL0     H 3767   7.779   8.806   1.233  1.1410 -0.0941  0.5127
   28MOL0     H 3768   7.559   9.169   1.085  1.1324  2.8952 -1.6056
   28MOL0     H 3769   7.729   9.198   1.086  0.3844 -2.9308 -0.8329
   28MOL0     H 3770   7.697   9.268   1.326  1.1283 -0.1816 -1.2512
   28MOL0     H 3771   7.528   9.220   1.319  0.5660  1.9164  1.4607
   28MOL0     H 3772   7.459   9.405   1.177 -0.0582  1.8734  0.2827
   28MOL0     H 3773   7.627   9.424   1.113 -1.1310 -3.2345 -1.4398
   28MOL0     H 3774   7.540   9.489   1.400 -1.6811 -3.1707 -0.9902
   28MOL0     H 3775   7.701   9.505   1.334  1.3705 -1.1392 -0.4503
   28MOL0     H 3776   7.493   9.818   1.124 -2.6279 -0.9371 -0.7165
   28MOL0     H 3777   7.628   9.058   0.929 -0.9263 -0.8380 -0.3376
   28MOL0     H 3778   7.781   8.897   0.670 -0.9489 -5.3338 -1.3010
   28MOL0     H 3779   7.620   8.841   0.660 -0.7843  1.2500 -0.5994
   28MOL0     H 3780   7.647   9.018   0.698  0.8303  0.3691 -0.5903
   29MOL0     O 3781   1.993   1.163   4.534 -0.2774 -0.7298  0.0942
   29MOL0     C 3782   2.107   1.120   4.515 -0.1612 -0.7405 -0.8649
   29MOL0     O 3783   2.123   1.005   4.440 -0.5156 -0.3705  0.4216
   29MOL0     C 3784   2.016   0.939   4.386 -0.8955 -0.1661  0.5484
   29MOL0     C 3785   2.047   0.862   4.273 -0.6903  0.1510  0.4068
   29MOL0     C 3786   1.951   0.775   4.225 -0.1788 -0.1307  0.8142
   29MOL0     C 3787   1.825   0.771   4.281 -0.3223 -0.5053  0.1770
   29MOL0     O 3788   1.739   0.689   4.227  0.7272 -0.2124 -0.2016
   29MOL0     C 3789   1.627   0.758   4.162  0.7910 -0.1439  0.3292
   29MOL0     C 3790   1.561   0.668   4.060  0.3628  0.0748  0.3060
   29MOL0     C 3791   1.417   0.722   4.036  0.2380  0.0736  0.7966
   29MOL0     C 3792   1.334   0.616   3.961  0.3662  0.4338  0.6691
   29MOL0     C 3793   1.195   0.680   3.935  0.0587  0.3784  0.0528
   29MOL0     C 3794   1.117   0.706   4.067  0.8222  0.5936  1.0236
   29MOL0     C 3795   0.962   0.721   4.049 -0.4747  0.9108 -0.1727
   29MOL0     C 3796   0.924   0.823   3.947  0.1406 -1.0414 -0.4422
   29MOL0     N 3797   0.951   0.957   4.000  0.7374  0.3605 -0.4512
   29MOL0     C 3798   0.899   1.012   4.122  0.9438  0.2570  0.0174
   29MOL0     C 3799   0.975   1.129   4.129  0.0952 -1.5373  0.2025
   29MOL0     C 3800   0.965   1.231   4.242 -0.1203  0.0722  0.0345
   29MOL0     C 3801   0.932   1.375   4.204  0.5404  0.1524  0.6863
   29MOL0     C 3802   0.978   1.484   4.306 -0.0711  1.3089  0.7780
   29MOL0     C 3803   1.127   1.530   4.265  0.0636 -0.2765  0.1086
   29MOL0     O 3804   1.198   1.429   4.192 -0.6846 -0.4183 -0.4027
   29MOL0     C 3805   1.326   1.463   4.140  0.6847  0.5048  0.1945
   29MOL0     C 3806   1.380   1.594   4.135  0.6063 -0.9783  0.8592
   29MOL0     C 3807   1.498   1.621   4.069  0.0492 -0.2336  0.1831
   29MOL0     C 3808   1.580   1.510   4.029  0.4085 -0.9758 -0.7123
   29MOL0     C 3809   1.710   1.549   3.971 -0.7147 -0.2116 -0.7816
   29MOL0     O 3810   1.764   1.452   3.890 -0.8680 -0.8810 -0.7251
   29MOL0     C 3811   1.879   1.482   3.822 -0.4074  0.5742  0.3928
   29MOL0     C 3812   1.989   1.526   3.888 -0.9691 -0.2612  0.3892
   29MOL0     C 3813   2.121   1.509   3.835  1.2174 -0.5121  0.4163
   29MOL0     C 3814   2.137   1.474   3.707  0.3325 -0.3383  0.0306
   29MOL0     O 3815   2.264   1.464   3.655 -0.0269  0.1025 -0.2136
   29MOL0     C 3816   2.377   1.455   3.741  0.5258  0.1265 -0.0381
   29MOL0     C 3817   2.508   1.431   3.666 -0.3433  0.8194  0.0772
   29MOL0     C 3818   2.542   1.555   3.578 -0.1846  0.3182  0.4383
   29MOL0     C 3819   2.681   1.547   3.532 -0.0545 -0.1467  0.9362
   29MOL0     C 3820   2.714   1.661   3.434 -0.2301 -0.0957  0.4341
   29MOL0     C 3821   2.861   1.636   3.380  0.6101  0.8363 -0.1749
   29MOL0     C 3822   2.917   1.764   3.312 -0.0612 -0.3280 -0.3996
   29MOL0     C 3823   3.042   1.747   3.223 -0.1668  0.3088  0.4741
   29MOL0    Cl 3824   3.195   1.773   3.316 -0.4211 -0.1784  0.2760
   29MOL0     C 3825   2.027   1.430   3.631 -0.2129  0.1968 -0.1461
   29MOL0     C 3826   1.897   1.437   3.687 -0.1599  0.1399  0.0859
   29MOL0     O 3827   1.763   1.657   3.993 -0.0884 -0.1888  0.1474
   29MOL0     C 3828   1.527   1.383   4.029  0.3041  0.0497 -0.1548
   29MOL0     C 3829   1.396   1.357   4.080  0.0071 -0.3974  0.0433
   29MOL0     N 3830   1.062   1.139   4.020  0.0565 -0.5895 -0.4975
   29MOL0     N 3831   1.044   1.036   3.940 -0.2183  0.1407  0.8900
   29MOL0     C 3832   1.801   0.844   4.391 -0.3228  0.4963 -0.5169
   29MOL0     C 3833   1.895   0.926   4.445 -0.3311 -0.1472 -0.0998
   29MOL0     C 3834   2.223   1.170   4.604  0.0171  0.1783 -1.0306
   29MOL0     C 3835   2.344   1.090   4.595  0.4283 -0.5008 -0.4076
   29MOL0     C 3836   2.449   1.112   4.674 -0.3203 -0.2557  0.2036
   29MOL0     C 3837   2.452   1.225   4.766 -0.5413  0.6573  0.2046
   29MOL0     O 3838   2.560   1.246   4.835  0.2399  0.1745  1.1911
   29MOL0     C 3839   2.605   1.365   4.900 -0.2135 -0.6339  0.1587
   29MOL0     C 3840   2.609   1.487   4.800 -0.4655  0.3005 -0.7522
   29MOL0     C 3841   2.666   1.612   4.868 -1.1437 -0.2487  0.7048
   29MOL0     C 3842   2.706   1.726   4.769  1.0168 -0.8073 -0.2416
   29MOL0     C 3843   2.784   1.696   4.650  0.0115 -0.0987  0.7094
   29MOL0     C 3844   2.824   1.646   4.541 -0.4108 -0.5313 -0.7279
   29MOL0     C 3845   2.349   1.316   4.759 -0.8911 -0.6678 -0.3336
   29MOL0     C 3846   2.232   1.282   4.689 -0.4323  0.4262 -1.1905
   29MOL0     C 3847   2.106   1.364   4.709  0.6865 -0.3192  0.1247
   29MOL0     H 3848   2.146   0.864   4.230 -2.2489 -1.6853 -3.8602
   29MOL0     H 3849   1.973   0.708   4.142  0.6030  0.7367  0.3055
   29MOL0     H 3850   1.555   0.787   4.239 -1.0304 -3.1877 -0.0257
   29MOL0     H 3851   1.660   0.847   4.108 -0.6065  1.2101  1.6213
   29MOL0     H 3852   1.558   0.561   4.085 -2.4005  0.1035  0.3869
   29MOL0     H 3853   1.607   0.666   3.961 -0.0183  2.5848  0.0174
   29MOL0     H 3854   1.411   0.819   3.987  1.3387  1.2297  2.8178
   29MOL0     H 3855   1.378   0.734   4.138 -1.1700  1.4602  0.1456
   29MOL0     H 3856   1.375   0.614   3.860 -0.1810  2.8074  0.3446
   29MOL0     H 3857   1.336   0.516   4.005  2.8363 -1.3332 -2.9816
   29MOL0     H 3858   1.197   0.772   3.876  0.1696 -0.8681 -1.9938
   29MOL0     H 3859   1.144   0.609   3.869  1.1925  1.4268 -2.0216
   29MOL0     H 3860   1.131   0.620   4.133 -2.8368 -1.5706 -0.6421
   29MOL0     H 3861   1.167   0.788   4.118  3.9083 -1.0289  0.8615
   29MOL0     H 3862   0.913   0.729   4.146  2.1936  0.6397  1.3109
   29MOL0     H 3863   0.923   0.623   4.020  2.6987 -0.5002 -0.0853
   29MOL0     H 3864   0.969   0.810   3.849  1.0424  1.8137 -0.4933
   29MOL0     H 3865   0.817   0.818   3.924 -0.7705 -0.1536  2.9881
   29MOL0     H 3866   0.817   0.966   4.177 -3.0583  2.0694 -3.8217
   29MOL0     H 3867   0.889   1.195   4.313  1.8450 -3.2945  0.6614
   29MOL0     H 3868   1.065   1.223   4.285  0.8967  0.0214 -2.1828
   29MOL0     H 3869   0.973   1.384   4.103 -0.3544 -0.2105  0.2755
   29MOL0     H 3870   0.823   1.384   4.201  0.6242  1.0406 -1.9868
   29MOL0     H 3871   0.981   1.451   4.410 -0.1135  1.0323  0.6924
   29MOL0     H 3872   0.911   1.570   4.297  0.6311  1.8114  0.2270
   29MOL0     H 3873   1.180   1.553   4.358 -0.3140 -1.2772  0.5818
   29MOL0     H 3874   1.114   1.618   4.201 -1.1838 -0.6750 -0.2129
   29MOL0     H 3875   1.330   1.684   4.170  1.5615 -0.4761  0.9654
   29MOL0     H 3876   1.547   1.715   4.047 -6.6649  3.5150 -1.3759
   29MOL0     H 3877   1.988   1.574   3.986  2.5752 -0.7544  0.7855
   29MOL0     H 3878   2.203   1.547   3.896  0.4718  1.7488  0.0871
   29MOL0     H 3879   2.403   1.544   3.799  2.5891 -1.6460  1.9584
   29MOL0     H 3880   2.361   1.376   3.816  2.2728  0.2742  0.5385
   29MOL0     H 3881   2.584   1.404   3.740 -1.6229 -2.2390  0.4160
   29MOL0     H 3882   2.487   1.356   3.589  1.5874  0.1807  0.1086
   29MOL0     H 3883   2.467   1.553   3.499 -2.6849  0.1867  2.6820
   29MOL0     H 3884   2.520   1.647   3.632 -2.0903 -1.0287  2.1201
   29MOL0     H 3885   2.690   1.449   3.484 -2.7259  0.6596 -1.4989
   29MOL0     H 3886   2.744   1.557   3.621  4.1701  0.9642 -1.8710
   29MOL0     H 3887   2.709   1.752   3.495  0.0274 -0.6439  1.2937
   29MOL0     H 3888   2.640   1.668   3.354 -0.6344 -1.5164  0.6518
   29MOL0     H 3889   2.915   1.611   3.471 -0.7838 -3.5028 -0.3126
   29MOL0     H 3890   2.859   1.547   3.316 -0.0709  2.2584 -2.2372
   29MOL0     H 3891   2.950   1.826   3.396 -0.5782 -4.7544  3.5366
   29MOL0     H 3892   2.844   1.807   3.244  0.9099  0.9108 -0.6848
   29MOL0     H 3893   3.025   1.654   3.168  2.4473 -1.3717  2.3091
   29MOL0     H 3894   3.050   1.830   3.153 -1.7448  1.4380  1.5470
   29MOL0     H 3895   2.056   1.399   3.531 -0.0594 -3.9201  0.9954
   29MOL0     H 3896   1.810   1.405   3.631  1.0833 -4.8810  0.6154
   29MOL0     H 3897   1.594   1.307   3.990 -2.0712 -2.5576  0.5437
   29MOL0     H 3898   1.348   1.259   4.083 -2.7025  0.8159 -0.8251
   29MOL0     H 3899   1.703   0.828   4.436  0.5509 -1.2046  0.9055
   29MOL0     H 3900   1.858   0.962   4.541 -0.8257 -2.1211  0.5002
   29MOL0     H 3901   2.340   1.012   4.520 -0.6580 -2.8235  1.8974
   29MOL0     H 3902   2.536   1.048   4.673 -1.2645 -1.6343  1.6263
   29MOL0     H 3903   2.707   1.339   4.929  0.0607  1.5905  1.3579
   29MOL0     H 3904   2.537   1.382   4.984 -0.1136  0.4144  0.0328
   29MOL0     H 3905   2.509   1.521   4.772 -0.9342  1.2918  1.8393
   29MOL0     H 3906   2.680   1.466   4.719  0.9863  1.1893  0.2251
   29MOL0     H 3907   2.751   1.584   4.931 -1.1669 -1.4236  0.2414
   29MOL0     H 3908   2.603   1.647   4.951  0.3896 -1.1406  2.3274
   29MOL0     H 3909   2.618   1.778   4.732  1.7128  0.7744  0.2271
   29MOL0     H 3910   2.752   1.809   4.823 -1.2906 -0.3360  1.1215
   29MOL0     H 3911   2.856   1.597   4.451  0.6836 -2.3001  0.5598
   29MOL0     H 3912   2.351   1.411   4.814  0.1213 -1.3331  0.8352
   29MOL0     H 3913   2.038   1.305   4.771 -0.4283  1.0107  0.2111
   29MOL0     H 3914   2.128   1.453   4.768  1.6810 -1.7717  2.0945
   29MOL0     H 3915   2.070   1.391   4.610  3.7999 -0.6255 -1.2083
   30MOL0     O 3916   0.529   7.556   3.463 -0.0167  0.1264 -0.6257
   30MOL0     C 3917   0.552   7.516   3.348 -0.5790 -1.0170  0.2170
   30MOL0     O 3918   0.672   7.454   3.304 -0.1021  1.0006  0.7069
   30MOL0     C 3919   0.767   7.401   3.390  0.1660  0.0025 -0.3867
   30MOL0     C 3920   0.726   7.307   3.482  0.3261  0.2447  0.6408
   30MOL0     C 3921   0.827   7.227   3.537  0.6352 -0.1647 -0.3455
   30MOL0     C 3922   0.963   7.255   3.513  0.0416  0.3023 -0.2684
   30MOL0     O 3923   1.068   7.176   3.564  0.3959 -0.2693 -0.0733
   30MOL0     C 3924   1.047   7.033   3.566 -0.2893  0.0855 -1.0952
   30MOL0     C 3925   1.180   6.957   3.597 -0.4916  0.7501 -0.2560
   30MOL0     C 3926   1.174   6.818   3.524 -0.0422 -0.2846  0.4301
   30MOL0     C 3927   1.295   6.729   3.537  0.1441  0.2563 -0.2790
   30MOL0     C 3928   1.389   6.762   3.417  0.1780  0.3013 -0.3322
   30MOL0     C 3929   1.517   6.679   3.441 -0.4696 -0.0635  0.2497
   30MOL0     C 3930   1.615   6.695   3.319 -0.5184  0.3467  0.0905
   30MOL0     C 3931   1.624   6.569   3.228  1.1033  0.1406  0.4755
   30MOL0     N 3932   1.719   6.592   3.123 -0.1636  1.0619 -0.5316
   30MOL0     C 3933   1.843   6.540   3.108 -0.2403 -1.2181 -0.4871
   30MOL0     C 3934   1.882   6.567   2.982  0.5753 -0.0943 -0.3326
   30MOL0     C 3935   2.015   6.535   2.928 -0.1335 -0.4379 -0.4091
   30MOL0     C 3936   2.130   6.630   2.977  0.0516 -0.5491 -0.0907
   30MOL0     C 3937   2.257   6.628   2.886 -0.5361  0.0274 -0.3048
   30MOL0     C 3938   2.360   6.728   2.931 -0.4593  0.0986 -0.1023
   30MOL0     O 3939   2.478   6.703   2.856 -0.9856  0.3006  0.0615
   30MOL0     C 3940   2.577   6.784   2.901 -0.4222 -0.1736  0.4781
   30MOL0     C 3941   2.593   6.914   2.861 -0.0756  0.2492 -0.0768
   30MOL0     C 3942   2.711   6.989   2.895  0.5944  0.1837 -0.4959
   30MOL0     C 3943   2.802   6.930   2.983 -0.3303  0.2955  0.1042
   30MOL0     C 3944   2.924   6.991   3.029  0.3361 -0.0968  0.1722
   30MOL0     O 3945   2.940   7.122   3.004  0.3678 -0.1638 -0.2278
   30MOL0     C 3946   3.060   7.179   3.032 -0.8128  0.9022  1.2882
   30MOL0     C 3947   3.097   7.276   2.934  0.2900 -0.2372  0.4648
   30MOL0     C 3948   3.220   7.335   2.945 -0.0334 -0.8967 -0.0831
   30MOL0     C 3949   3.314   7.301   3.043 -0.2304  1.0427  0.6974
   30MOL0     O 3950   3.426   7.376   3.044 -0.4318  0.1868 -0.3814
   30MOL0     C 3951   3.491   7.399   3.175  0.1551 -0.6723 -0.8961
   30MOL0     C 3952   3.611   7.313   3.187 -0.3860 -0.7527 -0.2107
   30MOL0     C 3953   3.716   7.370   3.096 -0.2387  0.4260 -0.1664
   30MOL0     C 3954   3.853   7.305   3.112  0.1367  0.2754 -0.1445
   30MOL0     C 3955   3.955   7.375   3.023  0.5376  0.6980  0.4592
   30MOL0     C 3956   4.109   7.371   3.054 -0.6590 -1.5039 -0.1490
   30MOL0     C 3957   4.196   7.455   2.957  0.4231 -0.8061  0.9114
   30MOL0     C 3958   4.326   7.390   2.924 -0.1818 -0.1887 -0.6205
   30MOL0    Cl 3959   4.383   7.438   2.754  0.4895  0.0596 -0.2304
   30MOL0     C 3960   3.275   7.199   3.130 -0.4896  0.0629  0.7302
   30MOL0     C 3961   3.153   7.140   3.126  0.3368  0.2461 -0.2594
   30MOL0     O 3962   3.004   6.911   3.075 -0.2434  0.1709 -0.6891
   30MOL0     C 3963   2.775   6.800   3.031  0.3882  0.7700 -0.1368
   30MOL0     C 3964   2.668   6.734   2.988 -0.0633 -0.2591 -0.7328
   30MOL0     N 3965   1.776   6.629   2.926 -0.6206 -0.5430  0.0532
   30MOL0     N 3966   1.680   6.642   3.002 -0.0011 -0.3115  1.0022
   30MOL0     C 3967   0.994   7.366   3.440 -0.2313  0.0127  0.4467
   30MOL0     C 3968   0.898   7.438   3.372  0.2712 -1.3870  0.2016
   30MOL0     C 3969   0.443   7.539   3.249 -0.0421 -0.2352 -0.0961
   30MOL0     C 3970   0.476   7.498   3.115 -0.5823 -0.6963  1.1507
   30MOL0     C 3971   0.397   7.525   3.008  0.1932  0.3319  0.0459
   30MOL0     C 3972   0.273   7.580   3.029 -0.4026 -0.1944 -0.2543
   30MOL0     O 3973   0.190   7.611   2.914 -0.5666  0.2200 -0.0526
   30MOL0     C 3974   0.049   7.582   2.932  0.3309 -0.1379 -0.1736
   30MOL0     C 3975  -0.007   7.584   2.799  0.0912  0.2553  0.5257
   30MOL0     C 3976  -0.156   7.545   2.791 -0.2537  0.1741  0.7879
   30MOL0     C 3977  -0.191   7.405   2.830 -0.4182 -0.3105 -0.6176
   30MOL0     C 3978  -0.130   7.300   2.741  0.3712 -0.5307  0.3969
   30MOL0     C 3979  -0.084   7.218   2.668  0.6224 -0.1946  0.7437
   30MOL0     C 3980   0.234   7.623   3.154 -0.0472  0.4050 -0.8818
   30MOL0     C 3981   0.313   7.593   3.265  0.4085 -0.0389 -0.1251
   30MOL0     C 3982   0.258   7.628   3.405  0.0296 -0.7327  0.1947
   30MOL0     H 3983   0.624   7.271   3.490  0.2900  0.1905 -0.0581
   30MOL0     H 3984   0.799   7.143   3.601 -1.2524 -0.4560 -1.4823
   30MOL0     H 3985   0.971   7.002   3.639  1.8476  0.1559  1.3095
   30MOL0     H 3986   1.013   6.993   3.471 -2.8063  1.7765 -0.9964
   30MOL0     H 3987   1.201   6.955   3.705 -1.7282  2.5586  0.0582
   30MOL0     H 3988   1.258   7.023   3.557 -0.0698  0.3755 -0.0579
   30MOL0     H 3989   1.149   6.826   3.418 -1.9799  0.6393  0.9296
   30MOL0     H 3990   1.085   6.772   3.566 -0.7480  1.0727  0.4609
   30MOL0     H 3991   1.348   6.763   3.626  3.9554  3.1073 -3.2566
   30MOL0     H 3992   1.275   6.622   3.531  0.6177  0.0793  1.0353
   30MOL0     H 3993   1.340   6.723   3.327 -0.6426 -2.5934  1.2596
   30MOL0     H 3994   1.418   6.868   3.407  0.1700  0.3008 -0.3660
   30MOL0     H 3995   1.557   6.719   3.535  0.9056  0.6475 -0.6136
   30MOL0     H 3996   1.494   6.575   3.466  1.1518  0.6618  6.5436
   30MOL0     H 3997   1.715   6.711   3.360 -0.4272  1.7597 -0.6254
   30MOL0     H 3998   1.586   6.781   3.258  0.6937 -0.9951 -2.5693
   30MOL0     H 3999   1.654   6.479   3.283  0.8817 -0.1251  0.1671
   30MOL0     H 4000   1.522   6.555   3.189  0.5932 -0.3905  1.9489
   30MOL0     H 4001   1.899   6.485   3.184 -1.5049  1.1118  2.3195
   30MOL0     H 4002   2.037   6.433   2.959 -1.8864 -1.4286 -2.2369
   30MOL0     H 4003   2.016   6.523   2.819 -2.3397 -1.6604 -0.3357
   30MOL0     H 4004   2.089   6.730   2.964 -1.0696 -0.8382  1.0429
   30MOL0     H 4005   2.158   6.609   3.080  0.4832  3.0245  0.6237
   30MOL0     H 4006   2.228   6.664   2.786 -0.3957  3.3899  0.7292
   30MOL0     H 4007   2.303   6.530   2.874 -1.8059 -0.6604  0.3289
   30MOL0     H 4008   2.375   6.726   3.040  1.1928  0.7396 -0.2903
   30MOL0     H 4009   2.313   6.826   2.919 -0.0938  0.0362 -2.4278
   30MOL0     H 4010   2.518   6.943   2.788  1.7379 -0.1089 -2.1996
   30MOL0     H 4011   2.722   7.092   2.863 -0.2127  1.0550  1.8371
   30MOL0     H 4012   3.028   7.304   2.855 -0.2763  2.0503  1.6760
   30MOL0     H 4013   3.245   7.410   2.871 -1.2548 -1.2724 -0.9116
   30MOL0     H 4014   3.518   7.503   3.197 -1.1625 -0.8684  2.0308
   30MOL0     H 4015   3.422   7.369   3.254  1.6046  3.6313  2.3846
   30MOL0     H 4016   3.637   7.327   3.293 -0.2814  0.4149 -0.3711
   30MOL0     H 4017   3.593   7.205   3.186 -0.5641 -0.7217 -0.7789
   30MOL0     H 4018   3.686   7.362   2.991  0.8865  0.8646 -0.5382
   30MOL0     H 4019   3.734   7.474   3.127  0.8341  0.2773 -0.2417
   30MOL0     H 4020   3.850   7.197   3.102 -0.6681  0.2361  0.4434
   30MOL0     H 4021   3.889   7.309   3.215  2.9413 -1.3573 -0.9596
   30MOL0     H 4022   3.941   7.484   3.016  2.7346  1.0587  1.1756
   30MOL0     H 4023   3.946   7.322   2.927  2.0854 -0.7051  1.0571
   30MOL0     H 4024   4.120   7.409   3.156 -1.5539 -1.0204 -0.2187
   30MOL0     H 4025   4.128   7.264   3.044  1.8620 -0.9918 -1.7331
   30MOL0     H 4026   4.221   7.554   2.996  0.6677  0.5110 -2.2617
   30MOL0     H 4027   4.150   7.464   2.858  0.8979 -2.5177  0.4867
   30MOL0     H 4028   4.398   7.419   3.001 -0.5397  2.0386 -1.0688
   30MOL0     H 4029   4.321   7.281   2.921 -0.3988 -0.2154  0.4385
   30MOL0     H 4030   3.335   7.166   3.214 -0.8012 -1.9523  0.2159
   30MOL0     H 4031   3.128   7.070   3.205 -1.3047  0.8571 -0.2059
   30MOL0     H 4032   2.839   6.750   3.104 -0.8909  2.5826  2.3669
   30MOL0     H 4033   2.654   6.636   3.033  0.2339  1.9226  4.8920
   30MOL0     H 4034   1.098   7.390   3.418 -0.7222  1.8372 -0.0946
   30MOL0     H 4035   0.924   7.516   3.301 -5.0489  0.8413  0.2047
   30MOL0     H 4036   0.569   7.450   3.086  0.4933  0.5323  2.4293
   30MOL0     H 4037   0.437   7.516   2.907  0.9162 -0.3949  0.3862
   30MOL0     H 4038  -0.005   7.649   3.000  2.2452  2.1979 -0.8095
   30MOL0     H 4039   0.025   7.480   2.962 -2.2348  0.1623 -0.9561
   30MOL0     H 4040   0.056   7.516   2.743 -1.9976 -1.7129  0.4304
   30MOL0     H 4041   0.007   7.688   2.768  0.8714  0.0129  0.0549
   30MOL0     H 4042  -0.198   7.570   2.693  3.5900 -0.3488 -1.2035
   30MOL0     H 4043  -0.204   7.615   2.859  0.2065 -0.3028  1.6221
   30MOL0     H 4044  -0.161   7.388   2.934  3.7066 -0.4870 -1.6808
   30MOL0     H 4045  -0.299   7.385   2.836 -0.1937 -1.5524 -0.3575
   30MOL0     H 4046  -0.054   7.140   2.601 -0.1686 -1.9480  2.3336
   30MOL0     H 4047   0.136   7.666   3.168 -0.7205 -1.1463 -0.6521
   30MOL0     H 4048   0.285   7.729   3.439  0.8766 -0.4533 -1.2381
   30MOL0     H 4049   0.149   7.621   3.397  0.0571 -0.6955 -0.2371
   30MOL0     H 4050   0.284   7.568   3.493 -1.3487  0.8431  1.7812
   31MOL0     O 4051   0.562   4.311   3.820  0.0613  0.8268  0.5088
   31MOL0     C 4052   0.471   4.295   3.736  0.1526  0.5562 -0.8104
   31MOL0     O 4053   0.477   4.331   3.604 -0.8108  0.3740 -0.5331
   31MOL0     C 4054   0.599   4.350   3.547 -0.4945 -1.0152  0.0414
   31MOL0     C 4055   0.651   4.259   3.459  0.1912  0.3414 -0.2761
   31MOL0     C 4056   0.774   4.287   3.389  0.4625  0.2321 -0.4308
   31MOL0     C 4057   0.848   4.400   3.409  0.0640  0.1366 -0.3993
   31MOL0     O 4058   0.964   4.421   3.338  0.0798 -0.0586  0.2479
   31MOL0     C 4059   1.074   4.463   3.414 -0.1146 -0.1597 -0.0483
   31MOL0     C 4060   1.106   4.384   3.537 -0.7050 -0.3455  0.3249
   31MOL0     C 4061   1.241   4.418   3.595  0.2621  0.9577 -0.8050
   31MOL0     C 4062   1.251   4.561   3.659 -0.0230  0.9546  0.5193
   31MOL0     C 4063   1.399   4.598   3.667  0.0392 -0.7803 -0.5280
   31MOL0     C 4064   1.411   4.742   3.737 -0.7207 -0.0016 -0.5609
   31MOL0     C 4065   1.560   4.793   3.766 -0.8972  0.1385  0.0432
   31MOL0     C 4066   1.644   4.811   3.635  0.1074 -0.2372 -0.4296
   31MOL0     N 4067   1.615   4.938   3.573 -0.5645  0.0886 -0.3709
   31MOL0     C 4068   1.526   4.990   3.482  0.4673  0.8962  0.4777
   31MOL0     C 4069   1.578   5.107   3.436 -0.0309 -0.2095 -1.1776
   31MOL0     C 4070   1.526   5.194   3.322 -0.2418  0.4796  0.1015
   31MOL0     C 4071   1.572   5.154   3.178  0.9377 -0.8312  0.0613
   31MOL0     C 4072   1.721   5.149   3.146 -0.6927  0.7628 -0.5252
   31MOL0     C 4073   1.819   5.245   3.203  1.4513  0.9392  0.2279
   31MOL0     O 4074   1.948   5.187   3.216  0.6202 -0.7719  0.1486
   31MOL0     C 4075   2.060   5.262   3.217 -0.3892 -0.1470 -0.2826
   31MOL0     C 4076   2.183   5.196   3.232  0.0246  0.4264  1.4179
   31MOL0     C 4077   2.302   5.270   3.235  0.2607  0.0525  0.4641
   31MOL0     C 4078   2.310   5.407   3.204  1.6219  0.6690  0.2766
   31MOL0     C 4079   2.437   5.479   3.172 -0.2397  0.1795  0.2534
   31MOL0     O 4080   2.542   5.395   3.166  0.0461  0.4095  0.1596
   31MOL0     C 4081   2.663   5.435   3.123  0.1282  0.1743  1.1431
   31MOL0     C 4082   2.675   5.505   2.999 -0.1044 -0.3730  0.0803
   31MOL0     C 4083   2.809   5.530   2.945 -0.6285 -0.0557  0.0384
   31MOL0     C 4084   2.922   5.497   3.021 -0.0622  0.4648 -0.1357
   31MOL0     O 4085   3.042   5.531   2.970  0.1820 -0.2098 -0.0493
   31MOL0     C 4086   3.135   5.571   3.066 -0.6360  0.3581 -0.1040
   31MOL0     C 4087   3.247   5.677   3.014  0.0635 -0.3205 -1.4832
   31MOL0     C 4088   3.348   5.688   3.129  0.8528 -0.1562  0.7840
   31MOL0     C 4089   3.451   5.781   3.072  0.1618  0.0406 -0.4939
   31MOL0     C 4090   3.583   5.776   3.145  0.2789 -0.1403  0.8978
   31MOL0     C 4091   3.678   5.874   3.081 -0.1287  0.9485  1.1098
   31MOL0     C 4092   3.809   5.893   3.162 -0.4879  0.2444  0.1501
   31MOL0     C 4093   3.941   5.842   3.093  1.1240  0.2125  0.3521
   31MOL0    Cl 4094   3.917   5.674   3.041  0.0816  0.3309  0.3988
   31MOL0     C 4095   2.905   5.422   3.145  0.2506 -0.6401 -0.2768
   31MOL0     C 4096   2.776   5.390   3.188 -0.4650 -0.0500 -0.5283
   31MOL0     O 4097   2.436   5.596   3.146 -0.6220 -0.3575  0.6979
   31MOL0     C 4098   2.188   5.473   3.199 -0.2288  0.2542 -0.4947
   31MOL0     C 4099   2.068   5.399   3.208  0.3439  0.5014 -0.5700
   31MOL0     N 4100   1.699   5.128   3.501  1.3798  0.4322  0.2041
   31MOL0     N 4101   1.714   5.030   3.578 -0.7924  0.5601  0.0832
   31MOL0     C 4102   0.786   4.500   3.480 -0.2616  0.1358 -0.4422
   31MOL0     C 4103   0.676   4.467   3.561 -1.0858 -0.5099 -0.2244
   31MOL0     C 4104   0.350   4.224   3.796  0.4319  0.5948  0.2738
   31MOL0     C 4105   0.384   4.138   3.909 -0.1706 -0.4077  0.1255
   31MOL0     C 4106   0.292   4.089   3.993  0.1515  0.3649  0.1219
   31MOL0     C 4107   0.151   4.103   3.963 -0.6646 -1.5326 -0.1690
   31MOL0     O 4108   0.064   4.047   4.051 -0.2923 -0.1726 -0.8381
   31MOL0     C 4109  -0.072   4.089   4.049  0.4318 -1.1825 -0.4961
   31MOL0     C 4110  -0.164   4.003   3.959  0.6853 -0.0502  0.1061
   31MOL0     C 4111  -0.309   4.003   4.009 -0.5176 -0.0812  0.0708
   31MOL0     C 4112  -0.392   3.887   3.954 -0.5977 -0.2661 -0.3203
   31MOL0     C 4113  -0.405   3.895   3.814  0.7009  1.1781  0.1635
   31MOL0     C 4114  -0.442   3.900   3.700 -0.0779 -0.6825 -0.3245
   31MOL0     C 4115   0.118   4.163   3.846 -0.0468 -0.2416 -1.0709
   31MOL0     C 4116   0.214   4.221   3.761  0.1923 -0.3028  0.5530
   31MOL0     C 4117   0.168   4.298   3.642  0.3812 -0.2557 -0.0211
   31MOL0     H 4118   0.592   4.173   3.429 -2.6442  1.9983  0.1787
   31MOL0     H 4119   0.802   4.206   3.323  1.6874  1.5590 -1.6200
   31MOL0     H 4120   1.164   4.469   3.352  0.6570  1.1407  1.1196
   31MOL0     H 4121   1.063   4.564   3.456 -0.1146 -1.0198  2.1703
   31MOL0     H 4122   1.100   4.277   3.513 -0.2859 -0.4876  0.8396
   31MOL0     H 4123   1.022   4.405   3.604 -1.7604 -1.0789 -0.7264
   31MOL0     H 4124   1.318   4.402   3.519  0.5588 -2.9433  0.1048
   31MOL0     H 4125   1.268   4.348   3.675 -1.4927 -0.3287 -1.2819
   31MOL0     H 4126   1.206   4.630   3.587  1.2152  0.4446 -0.7913
   31MOL0     H 4127   1.193   4.573   3.752 -1.4938  1.0649 -0.3838
   31MOL0     H 4128   1.456   4.525   3.725 -1.7460 -0.2022  2.1009
   31MOL0     H 4129   1.435   4.598   3.563  0.8780 -0.2901 -0.2439
   31MOL0     H 4130   1.375   4.824   3.673  2.6559  0.8449 -1.5597
   31MOL0     H 4131   1.353   4.734   3.830 -2.0506  1.9522 -1.1488
   31MOL0     H 4132   1.625   4.732   3.831  4.1320  3.9994 -0.7110
   31MOL0     H 4133   1.563   4.886   3.823  0.5421  0.0060  0.2382
   31MOL0     H 4134   1.748   4.798   3.668 -0.4866 -0.8371  1.3040
   31MOL0     H 4135   1.622   4.741   3.554 -0.4719  1.5690 -1.9030
   31MOL0     H 4136   1.445   4.925   3.451  2.4298 -2.0448  1.1516
   31MOL0     H 4137   1.417   5.199   3.316 -0.2669  1.4426  0.9683
   31MOL0     H 4138   1.566   5.290   3.356 -0.5824  0.4977  0.4680
   31MOL0     H 4139   1.529   5.056   3.154  1.0555 -1.3616  1.9088
   31MOL0     H 4140   1.526   5.224   3.108  1.7995  0.1533  0.4556
   31MOL0     H 4141   1.742   5.138   3.039 -1.5835 -1.0954 -0.5530
   31MOL0     H 4142   1.754   5.053   3.186  1.3552  1.2887 -0.8618
   31MOL0     H 4143   1.784   5.277   3.302  1.7808 -0.1289  0.7060
   31MOL0     H 4144   1.815   5.335   3.141  0.4543  0.3334 -0.6208
   31MOL0     H 4145   2.175   5.088   3.233 -0.4606  0.4545  2.6161
   31MOL0     H 4146   2.389   5.209   3.256  1.0465  0.7404 -0.7061
   31MOL0     H 4147   2.587   5.532   2.941  1.9707 -0.1254 -3.2294
   31MOL0     H 4148   2.808   5.582   2.849  0.3981 -2.7046 -1.5060
   31MOL0     H 4149   3.079   5.632   3.138 -2.1790  2.1688 -2.6879
   31MOL0     H 4150   3.188   5.491   3.120 -2.1562 -0.0309  0.8654
   31MOL0     H 4151   3.293   5.632   2.925  0.7312  4.8110 -4.0832
   31MOL0     H 4152   3.194   5.771   2.999  2.0747  1.0605 -0.4608
   31MOL0     H 4153   3.302   5.726   3.221 -1.7509 -1.2902  0.0367
   31MOL0     H 4154   3.398   5.591   3.141  2.4276  0.4878 -0.2628
   31MOL0     H 4155   3.403   5.877   3.091  1.5404  0.8095 -0.7709
   31MOL0     H 4156   3.465   5.778   2.964  0.9318  1.9530 -0.4862
   31MOL0     H 4157   3.613   5.671   3.134  2.6885  0.2667  2.6823
   31MOL0     H 4158   3.572   5.800   3.251  2.8271 -0.5358  1.3044
   31MOL0     H 4159   3.697   5.842   2.978  1.4189  1.2926  1.2626
   31MOL0     H 4160   3.629   5.970   3.060 -1.3582  0.9321  3.5360
   31MOL0     H 4161   3.799   5.840   3.257  2.6650  1.8250  1.5262
   31MOL0     H 4162   3.824   5.998   3.185  2.3354 -0.3365  1.3670
   31MOL0     H 4163   3.963   5.914   3.013 -1.7869  1.6856  0.7131
   31MOL0     H 4164   4.024   5.844   3.163  0.0066 -0.0254  1.7184
   31MOL0     H 4165   2.980   5.404   3.221 -1.4985 -1.2383  1.3892
   31MOL0     H 4166   2.768   5.339   3.284 -1.0844 -2.0853 -1.6006
   31MOL0     H 4167   2.192   5.580   3.178  2.2844  0.5805  1.1669
   31MOL0     H 4168   1.974   5.454   3.219  0.3897  0.2997  1.1872
   31MOL0     H 4169   0.838   4.595   3.486  2.3904 -1.2565  0.5710
   31MOL0     H 4170   0.632   4.541   3.627  1.7719  2.7592 -1.6333
   31MOL0     H 4171   0.488   4.126   3.937 -0.7149  0.1185  2.6682
   31MOL0     H 4172   0.303   4.023   4.079 -0.4136  0.4230  0.2395
   31MOL0     H 4173  -0.080   4.191   4.012 -0.2185 -1.0749 -0.0766
   31MOL0     H 4174  -0.105   4.102   4.153  0.8794  1.1329 -0.5936
   31MOL0     H 4175  -0.135   3.898   3.944 -0.0327 -0.4844  1.5789
   31MOL0     H 4176  -0.165   4.056   3.863 -1.8408  0.2417  0.2343
   31MOL0     H 4177  -0.360   4.099   3.994 -0.8553  0.2190  2.6042
   31MOL0     H 4178  -0.306   3.992   4.118 -0.8564  0.1754  0.1078
   31MOL0     H 4179  -0.350   3.787   3.970 -2.0723 -0.6319  1.4746
   31MOL0     H 4180  -0.494   3.892   3.990 -1.8837  2.1802 -3.6806
   31MOL0     H 4181  -0.466   3.900   3.595  1.4640  1.3267 -0.7379
   31MOL0     H 4182   0.018   4.198   3.823  0.4342  0.9415 -1.4362
   31MOL0     H 4183   0.061   4.281   3.627  0.1766  0.5535  0.4745
   31MOL0     H 4184   0.194   4.404   3.654  2.1584 -0.7822  1.1863
   31MOL0     H 4185   0.217   4.251   3.556  0.8623 -0.9906  0.6299
   32MOL0     O 4186   1.001   5.894   5.620  0.4527 -0.3431  0.0391
   32MOL0     C 4187   1.048   5.928   5.725  0.0971  0.4325 -0.9357
   32MOL0     O 4188   1.161   6.004   5.751  0.7235 -0.1697 -0.1488
   32MOL0     C 4189   1.232   6.065   5.653  1.0212  0.2810 -1.1037
   32MOL0     C 4190   1.286   6.190   5.686  0.2420  0.1972  0.0427
   32MOL0     C 4191   1.386   6.242   5.598 -0.4350 -0.0524 -0.2075
   32MOL0     C 4192   1.404   6.182   5.473 -0.0365  0.2741 -0.2030
   32MOL0     O 4193   1.486   6.234   5.373 -0.1771  0.7689 -0.3182
   32MOL0     C 4194   1.462   6.373   5.346 -0.0013  0.3590  0.6618
   32MOL0     C 4195   1.533   6.397   5.214  0.3471  0.5426  0.5395
   32MOL0     C 4196   1.681   6.351   5.202 -0.0336 -0.7074 -0.0909
   32MOL0     C 4197   1.742   6.329   5.060  0.0731 -0.5141  0.3024
   32MOL0     C 4198   1.728   6.453   4.971 -0.1944  0.1143 -0.2103
   32MOL0     C 4199   1.826   6.568   5.007  0.1841 -1.1217 -0.1587
   32MOL0     C 4200   1.829   6.678   4.904 -0.2498 -0.1457 -0.0343
   32MOL0     C 4201   1.917   6.801   4.930 -0.8448 -0.1321 -0.8148
   32MOL0     N 4202   2.043   6.779   4.860 -1.1407 -0.8700  0.6628
   32MOL0     C 4203   2.130   6.673   4.875 -0.6456  0.2655 -0.6152
   32MOL0     C 4204   2.221   6.687   4.776  0.4750 -0.1812  0.3492
   32MOL0     C 4205   2.333   6.600   4.738  0.1618 -0.8045 -0.9931
   32MOL0     C 4206   2.466   6.678   4.725  0.0700  0.3853  0.3118
   32MOL0     C 4207   2.582   6.588   4.687 -0.3304  0.2357 -0.1074
   32MOL0     C 4208   2.719   6.649   4.723 -0.4486 -0.1201 -0.2820
   32MOL0     O 4209   2.739   6.666   4.864 -0.4151 -0.3450  0.0282
   32MOL0     C 4210   2.855   6.730   4.902 -0.5956 -0.0913  0.2647
   32MOL0     C 4211   2.863   6.753   5.038 -0.0225  0.0739  0.4702
   32MOL0     C 4212   2.985   6.810   5.093 -0.4926 -0.4216 -0.3939
   32MOL0     C 4213   3.092   6.843   5.005 -0.9893  0.0090 -0.5405
   32MOL0     C 4214   3.229   6.879   5.060 -0.3520 -0.7634  0.1512
   32MOL0     O 4215   3.236   6.917   5.187  0.2423  0.6304  0.0730
   32MOL0     C 4216   3.358   6.923   5.255 -0.7794  0.4450 -0.7787
   32MOL0     C 4217   3.366   6.899   5.392  0.2096  0.7567 -0.3003
   32MOL0     C 4218   3.488   6.920   5.461  1.3524 -0.5592 -0.8457
   32MOL0     C 4219   3.609   6.960   5.401  0.3609 -1.2416 -0.6402
   32MOL0     O 4220   3.719   6.987   5.477 -1.0498 -0.5813 -0.0716
   32MOL0     C 4221   3.846   6.941   5.428 -1.2009 -0.8398  0.5803
   32MOL0     C 4222   3.961   6.967   5.515 -0.0734  0.5855 -0.5766
   32MOL0     C 4223   3.954   6.900   5.652 -1.1168 -0.6589 -0.1017
   32MOL0     C 4224   4.095   6.888   5.724 -0.3723 -0.5800  0.3703
   32MOL0     C 4225   4.090   6.816   5.859  0.0560 -0.3329 -0.1693
   32MOL0     C 4226   4.079   6.658   5.844  0.6332  0.2583 -0.0877
   32MOL0     C 4227   4.086   6.571   5.970 -0.4405 -0.4449 -0.0259
   32MOL0     C 4228   3.952   6.562   6.045 -0.5403 -0.0479  0.1878
   32MOL0    Cl 4229   3.823   6.497   5.938  0.0435  0.1170  0.0307
   32MOL0     C 4230   3.601   6.973   5.261 -0.4250 -0.2963  0.4845
   32MOL0     C 4231   3.483   6.961   5.192 -0.3414  1.0343 -0.6170
   32MOL0     O 4232   3.323   6.875   4.979 -0.0863 -0.1428 -0.0523
   32MOL0     C 4233   3.075   6.825   4.869  0.6950 -0.5670 -0.7054
   32MOL0     C 4234   2.959   6.775   4.817  0.6526  0.5308 -0.5594
   32MOL0     N 4235   2.193   6.803   4.707  0.4833 -0.8119 -0.3801
   32MOL0     N 4236   2.087   6.854   4.753  0.3124 -0.0007  0.5475
   32MOL0     C 4237   1.343   6.068   5.432  0.1499  0.6963  0.1271
   32MOL0     C 4238   1.257   6.000   5.530  0.8627 -0.1624  1.1100
   32MOL0     C 4239   0.996   5.853   5.839  0.3126  0.9364  0.3859
   32MOL0     C 4240   0.954   5.724   5.830 -0.4175  0.3229  0.1830
   32MOL0     C 4241   0.911   5.646   5.942  1.1538 -0.8879  0.5377
   32MOL0     C 4242   0.896   5.705   6.068  0.5210  0.8980  0.3559
   32MOL0     O 4243   0.844   5.624   6.167  0.0995  0.5393  0.3959
   32MOL0     C 4244   0.857   5.674   6.300  0.2991  1.2677 -0.6159
   32MOL0     C 4245   0.995   5.685   6.358 -0.5693 -0.1863  0.5922
   32MOL0     C 4246   1.001   5.786   6.478  0.1090  0.6021  0.3808
   32MOL0     C 4247   0.980   5.715   6.613  0.4438  0.3814 -0.1934
   32MOL0     C 4248   0.983   5.814   6.731 -0.5711 -0.5462  0.1397
   32MOL0     C 4249   0.982   5.908   6.812  0.5314 -0.7754  0.4067
   32MOL0     C 4250   0.920   5.846   6.072 -0.1825  0.7017 -0.3379
   32MOL0     C 4251   0.971   5.922   5.958 -0.0139 -0.1265  0.1488
   32MOL0     C 4252   1.002   6.065   5.985  0.2969 -0.3339 -0.5132
   32MOL0     H 4253   1.283   6.250   5.777 -0.7208  0.5388 -0.2097
   32MOL0     H 4254   1.427   6.338   5.625 -1.3211  0.7842 -1.7035
   32MOL0     H 4255   1.353   6.374   5.354 -0.1129  1.2568 -0.5996
   32MOL0     H 4256   1.518   6.434   5.418  0.0793  2.7373 -1.2722
   32MOL0     H 4257   1.526   6.505   5.193 -1.5781 -0.2637 -4.4694
   32MOL0     H 4258   1.464   6.359   5.138  0.9902  2.4925 -1.1287
   32MOL0     H 4259   1.691   6.258   5.259  2.5626 -0.6813 -0.3898
   32MOL0     H 4260   1.744   6.420   5.258 -0.8704 -2.1034  2.7249
   32MOL0     H 4261   1.846   6.297   5.071  0.7221  0.5065 -2.1374
   32MOL0     H 4262   1.680   6.254   5.010 -1.2426  0.6316  0.1293
   32MOL0     H 4263   1.746   6.420   4.868  0.1628  0.6575 -0.3313
   32MOL0     H 4264   1.629   6.500   4.964 -0.8443 -1.0858  0.6893
   32MOL0     H 4265   1.799   6.612   5.104  0.3183 -2.2961  0.4322
   32MOL0     H 4266   1.926   6.531   5.032  0.6789  0.1133 -0.2094
   32MOL0     H 4267   1.730   6.724   4.895 -0.4014 -0.8302 -2.3159
   32MOL0     H 4268   1.839   6.639   4.803 -3.1270 -1.6165  0.1561
   32MOL0     H 4269   1.869   6.893   4.895 -2.4447 -1.0808 -1.1965
   32MOL0     H 4270   1.926   6.802   5.039 -2.2671 -2.9648 -0.5935
   32MOL0     H 4271   2.120   6.588   4.941 -1.5466  0.8768  0.0609
   32MOL0     H 4272   2.333   6.514   4.806 -3.7683  0.8057  1.3786
   32MOL0     H 4273   2.304   6.571   4.636  0.4708  0.7772 -1.5629
   32MOL0     H 4274   2.455   6.756   4.649 -0.2472  0.7671  0.7435
   32MOL0     H 4275   2.486   6.729   4.820  0.5918  1.9331 -0.6012
   32MOL0     H 4276   2.588   6.547   4.586  0.5809 -0.3317  0.1681
   32MOL0     H 4277   2.570   6.493   4.738  1.6813  0.2980  0.5546
   32MOL0     H 4278   2.726   6.748   4.675 -1.0571 -0.4348 -1.0356
   32MOL0     H 4279   2.792   6.583   4.676  0.6587  2.1656 -2.0028
   32MOL0     H 4280   2.780   6.732   5.105 -0.5317  0.8736  0.1162
   32MOL0     H 4281   2.983   6.828   5.200 -1.6385  3.3340 -0.9219
   32MOL0     H 4282   3.286   6.853   5.449 -0.9088  3.3137  0.3200
   32MOL0     H 4283   3.482   6.917   5.569  2.6937 -0.6977 -0.7621
   32MOL0     H 4284   3.847   6.833   5.409  0.6667 -0.8243  0.4066
   32MOL0     H 4285   3.877   6.981   5.331 -2.9240 -0.1002  0.3082
   32MOL0     H 4286   4.049   6.927   5.464  0.7002 -0.9173  1.7474
   32MOL0     H 4287   3.987   7.073   5.527  5.9204 -0.4247 -1.4156
   32MOL0     H 4288   3.889   6.959   5.717 -0.2881  0.3283 -0.1364
   32MOL0     H 4289   3.907   6.802   5.640  0.0969 -1.2773  0.0363
   32MOL0     H 4290   4.127   6.992   5.730  2.6294 -1.2570 -1.6330
   32MOL0     H 4291   4.170   6.833   5.666 -3.3699 -3.0787 -1.4964
   32MOL0     H 4292   4.003   6.861   5.906 -2.1114 -2.6357 -1.7377
   32MOL0     H 4293   4.179   6.836   5.921 -1.3849  3.2164  0.9679
   32MOL0     H 4294   3.985   6.630   5.795  2.0465 -2.3440 -1.5261
   32MOL0     H 4295   4.165   6.623   5.787  0.8242  1.7039 -0.7053
   32MOL0     H 4296   4.158   6.617   6.037  1.6386  0.0265 -2.4326
   32MOL0     H 4297   4.125   6.469   5.956  3.4429  0.8024  0.4693
   32MOL0     H 4298   3.953   6.501   6.136 -0.2589  0.8325  0.7919
   32MOL0     H 4299   3.928   6.664   6.077  0.1685 -0.0784  0.8481
   32MOL0     H 4300   3.684   7.012   5.202 -2.5177 -1.0332 -3.2988
   32MOL0     H 4301   3.495   6.990   5.088 -0.3213 -3.3394 -2.0450
   32MOL0     H 4302   3.151   6.861   4.801  3.5042 -0.6908  2.1474
   32MOL0     H 4303   2.942   6.761   4.710  1.5152 -1.2906 -0.4930
   32MOL0     H 4304   1.357   6.020   5.336 -0.6038 -0.7202  0.7009
   32MOL0     H 4305   1.230   5.896   5.513 -1.2227  0.0261  2.8915
   32MOL0     H 4306   0.956   5.668   5.737  0.8336  0.6500  0.0046
   32MOL0     H 4307   0.899   5.538   5.935  1.2302 -0.8212 -0.8135
   32MOL0     H 4308   0.794   5.615   6.366  1.6082  0.4877 -0.0160
   32MOL0     H 4309   0.806   5.771   6.309 -0.2776  0.9788 -0.7630
   32MOL0     H 4310   1.065   5.715   6.279 -1.0084  1.3771  0.7773
   32MOL0     H 4311   1.034   5.585   6.381 -0.2300 -0.2220 -0.0964
   32MOL0     H 4312   0.925   5.864   6.469  0.4867  1.4750  3.5516
   32MOL0     H 4313   1.104   5.821   6.472 -0.0512  0.8911 -1.1069
   32MOL0     H 4314   0.890   5.654   6.609  1.0145 -0.4650 -0.2698
   32MOL0     H 4315   1.056   5.638   6.628 -0.2887 -1.0206 -3.0003
   32MOL0     H 4316   0.965   5.987   6.883 -1.6983  1.3176 -2.2506
   32MOL0     H 4317   0.896   5.896   6.165 -2.2529  1.3303 -1.1686
   32MOL0     H 4318   0.972   6.130   5.902 -0.5955  0.9039  0.7168
   32MOL0     H 4319   0.954   6.107   6.074 -1.1471  0.9672 -1.8586
   32MOL0     H 4320   1.109   6.080   6.001  0.1783 -0.1044  0.0863
   33MOL0     O 4321   0.459   1.537   3.630  0.1767  0.2888 -0.3642
   33MOL0     C 4322   0.454   1.466   3.534 -0.2127  0.3645 -0.0825
   33MOL0     O 4323   0.561   1.441   3.454 -0.4058  0.3806  0.0873
   33MOL0     C 4324   0.671   1.522   3.462 -1.1099 -0.0165  0.5965
   33MOL0     C 4325   0.699   1.633   3.539  0.7563 -0.1032 -0.6540
   33MOL0     C 4326   0.828   1.692   3.538 -0.0727  0.0786 -0.2209
   33MOL0     C 4327   0.927   1.648   3.460 -0.6874  0.2290 -0.2601
   33MOL0     O 4328   1.047   1.700   3.463  0.4559 -0.0566  0.1897
   33MOL0     C 4329   1.075   1.780   3.346 -0.0600  0.2226  0.2556
   33MOL0     C 4330   1.205   1.719   3.277  0.4740  0.0896  0.6118
   33MOL0     C 4331   1.326   1.706   3.361  0.0098  0.0181  0.9410
   33MOL0     C 4332   1.425   1.622   3.291 -0.0924 -0.1572 -0.2539
   33MOL0     C 4333   1.524   1.698   3.216 -0.0186 -1.0829  0.8896
   33MOL0     C 4334   1.601   1.605   3.122 -1.0431  0.3062 -0.8097
   33MOL0     C 4335   1.697   1.678   3.032 -0.7066  0.3703 -1.1808
   33MOL0     C 4336   1.770   1.576   2.937  0.9253  1.5696 -0.5670
   33MOL0     N 4337   1.866   1.634   2.853 -0.5002 -0.7938 -0.6682
   33MOL0     C 4338   1.997   1.681   2.877 -0.8288  0.3432  0.5438
   33MOL0     C 4339   2.035   1.712   2.749  0.5432  0.0670  0.0413
   33MOL0     C 4340   2.168   1.781   2.713 -0.2224 -0.0794 -0.0514
   33MOL0     C 4341   2.254   1.694   2.620  0.7988 -0.0538  0.5713
   33MOL0     C 4342   2.391   1.764   2.600 -0.1593 -0.3489 -0.2422
   33MOL0     C 4343   2.465   1.743   2.462  0.0323  0.8349  0.6929
   33MOL0     O 4344   2.607   1.765   2.463 -0.8122  0.6435 -0.0632
   33MOL0     C 4345   2.684   1.646   2.477  0.4246 -0.3289  0.4664
   33MOL0     C 4346   2.699   1.553   2.369 -0.3242  0.0495 -0.0183
   33MOL0     C 4347   2.769   1.431   2.380 -0.6643  0.1502  0.6547
   33MOL0     C 4348   2.839   1.399   2.502  0.1344 -0.1946 -0.3143
   33MOL0     C 4349   2.922   1.282   2.531 -0.4599  0.4742  0.7097
   33MOL0     O 4350   2.933   1.197   2.423 -0.0505 -0.7677 -0.5504
   33MOL0     C 4351   3.021   1.090   2.417 -0.1992 -0.9619 -0.0562
   33MOL0     C 4352   3.155   1.101   2.479  0.8528 -0.3805  0.3192
   33MOL0     C 4353   3.249   1.000   2.456  0.4049  1.2230 -0.2150
   33MOL0     C 4354   3.210   0.885   2.387  0.3860  0.5821 -0.7769
   33MOL0     O 4355   3.307   0.785   2.393 -0.5189 -1.1087 -0.4125
   33MOL0     C 4356   3.275   0.685   2.479 -0.2918 -0.3351  0.5553
   33MOL0     C 4357   3.360   0.565   2.456  0.4595 -0.6074 -0.7799
   33MOL0     C 4358   3.503   0.606   2.473 -0.3665 -0.6327  0.4798
   33MOL0     C 4359   3.581   0.481   2.442  0.3482 -0.5223 -0.0319
   33MOL0     C 4360   3.738   0.516   2.433 -0.0406  1.4106  0.0325
   33MOL0     C 4361   3.828   0.392   2.436 -0.4525  1.0580 -0.2280
   33MOL0     C 4362   3.800   0.281   2.331  0.6397 -0.9789  0.7586
   33MOL0     C 4363   3.796   0.330   2.184 -0.4501  0.5112 -0.5477
   33MOL0    Cl 4364   3.941   0.427   2.142 -0.2644  0.2639 -0.0273
   33MOL0     C 4365   3.085   0.869   2.329 -0.3344 -0.2058  1.0157
   33MOL0     C 4366   2.996   0.973   2.345  0.2989  0.2401  0.6915
   33MOL0     O 4367   2.972   1.270   2.641  0.0079  0.2521 -0.3103
   33MOL0     C 4368   2.820   1.496   2.604  0.8938 -0.0980 -0.0994
   33MOL0     C 4369   2.737   1.608   2.601 -0.9502 -0.6453  0.3125
   33MOL0     N 4370   1.928   1.695   2.659 -0.3092 -0.3132 -0.3115
   33MOL0     N 4371   1.843   1.632   2.715  0.0164  0.0830 -0.3379
   33MOL0     C 4372   0.905   1.536   3.378  0.1330  0.3118 -0.1995
   33MOL0     C 4373   0.778   1.466   3.390 -1.2352 -0.0321 -0.3950
   33MOL0     C 4374   0.329   1.396   3.498 -0.0445  0.1496 -0.2350
   33MOL0     C 4375   0.314   1.345   3.370 -0.5881 -0.1924  0.3130
   33MOL0     C 4376   0.212   1.270   3.327  0.2788 -0.4441 -0.5834
   33MOL0     C 4377   0.103   1.248   3.409 -0.3784  0.3401  0.9281
   33MOL0     O 4378  -0.013   1.177   3.377 -0.2988  0.4869 -0.1949
   33MOL0     C 4379  -0.035   1.130   3.247 -0.1198  0.2939 -0.1827
   33MOL0     C 4380  -0.179   1.144   3.214  0.3115 -0.3269  0.3029
   33MOL0     C 4381  -0.200   1.148   3.061 -0.0889  0.5800 -0.6594
   33MOL0     C 4382  -0.331   1.202   3.025  0.5392  0.3820 -0.5961
   33MOL0     C 4383  -0.446   1.133   3.090  0.2483  0.5367 -0.5649
   33MOL0     C 4384  -0.545   1.078   3.134  0.2900  0.1787 -0.1842
   33MOL0     C 4385   0.112   1.306   3.540 -0.1529  0.5500 -0.1765
   33MOL0     C 4386   0.224   1.378   3.589 -0.0029  0.7569 -0.4317
   33MOL0     C 4387   0.208   1.438   3.723  0.8479  0.2213 -0.3719
   33MOL0     H 4388   0.616   1.684   3.587 -0.0212 -1.6063 -0.3436
   33MOL0     H 4389   0.856   1.775   3.602  0.8842 -1.8203  1.9747
   33MOL0     H 4390   0.985   1.783   3.283 -0.8580  1.8129  1.3704
   33MOL0     H 4391   1.088   1.885   3.376 -0.7650  0.2845  0.3674
   33MOL0     H 4392   1.227   1.784   3.191  0.6542 -0.3870  0.2929
   33MOL0     H 4393   1.186   1.627   3.221  0.8871  1.4310 -1.8916
   33MOL0     H 4394   1.311   1.658   3.459  4.9571  2.7497  3.4070
   33MOL0     H 4395   1.354   1.808   3.388 -0.2541 -0.1554  1.9368
   33MOL0     H 4396   1.480   1.558   3.361 -0.1513 -0.5978 -0.6126
   33MOL0     H 4397   1.371   1.551   3.228 -0.0192 -1.5624  1.2036
   33MOL0     H 4398   1.467   1.762   3.147  0.3956 -2.3441 -0.6798
   33MOL0     H 4399   1.594   1.749   3.282  1.1861  1.3874 -2.0639
   33MOL0     H 4400   1.645   1.522   3.177  0.4496  0.6504 -1.4266
   33MOL0     H 4401   1.529   1.556   3.055 -1.3561  0.3160 -0.4839
   33MOL0     H 4402   1.775   1.723   3.094 -3.2040  1.1131  1.6851
   33MOL0     H 4403   1.648   1.761   2.981 -2.4702  1.9984  2.7059
   33MOL0     H 4404   1.814   1.497   2.998  1.7537  1.5622 -1.1577
   33MOL0     H 4405   1.699   1.523   2.874  0.5782 -0.8094  1.6736
   33MOL0     H 4406   2.057   1.694   2.966 -2.4547  1.8023  1.4729
   33MOL0     H 4407   2.154   1.873   2.656 -0.1645  0.1226  0.2584
   33MOL0     H 4408   2.223   1.806   2.804  1.5966  2.2356 -1.6572
   33MOL0     H 4409   2.257   1.598   2.672 -3.1358 -1.6538 -1.6786
   33MOL0     H 4410   2.201   1.684   2.524  2.3857 -1.1812 -0.2290
   33MOL0     H 4411   2.466   1.735   2.675  0.4131  0.2673 -0.5648
   33MOL0     H 4412   2.387   1.873   2.603  0.9757 -0.3136  0.6875
   33MOL0     H 4413   2.415   1.804   2.386 -0.5330 -1.5527 -0.9688
   33MOL0     H 4414   2.437   1.646   2.420 -0.3204  1.7311 -1.3001
   33MOL0     H 4415   2.661   1.581   2.271 -0.2412 -0.3900 -0.1780
   33MOL0     H 4416   2.780   1.378   2.286 -0.0297 -2.3620  2.0623
   33MOL0     H 4417   3.198   1.185   2.532  0.8411 -0.3134  0.2221
   33MOL0     H 4418   3.345   0.996   2.507 -1.4394 -1.3671  3.5565
   33MOL0     H 4419   3.284   0.725   2.580  4.6386  2.5592 -0.7168
   33MOL0     H 4420   3.171   0.652   2.467 -0.5884  0.9771 -0.9421
   33MOL0     H 4421   3.332   0.484   2.523  1.5186 -0.9809 -0.7770
   33MOL0     H 4422   3.342   0.538   2.351  4.2011  2.2926 -2.4056
   33MOL0     H 4423   3.534   0.683   2.402 -2.3850 -1.1826 -1.0978
   33MOL0     H 4424   3.524   0.643   2.574 -4.4696  1.7961  0.7090
   33MOL0     H 4425   3.562   0.434   2.345 -1.6865 -0.0134  0.0752
   33MOL0     H 4426   3.560   0.415   2.527  0.6983  1.5558  1.7649
   33MOL0     H 4427   3.769   0.585   2.512  3.0453  1.7485 -1.3228
   33MOL0     H 4428   3.755   0.581   2.347 -0.6568  2.2975  0.5703
   33MOL0     H 4429   3.931   0.429   2.436 -0.3001  0.6572  0.5179
   33MOL0     H 4430   3.813   0.358   2.539 -2.2992  2.0757 -0.1170
   33MOL0     H 4431   3.707   0.226   2.351  0.2180 -0.1798  1.0404
   33MOL0     H 4432   3.884   0.211   2.325  0.7352 -0.8140  0.0154
   33MOL0     H 4433   3.786   0.240   2.124 -0.8773 -1.3457  2.1261
   33MOL0     H 4434   3.714   0.401   2.167  1.8213  3.9543  1.5579
   33MOL0     H 4435   3.068   0.780   2.269 -3.6317  1.4608 -0.8311
   33MOL0     H 4436   2.898   0.956   2.300 -0.7729  2.3887  2.0612
   33MOL0     H 4437   2.873   1.484   2.698 -0.4039  0.7087  0.7668
   33MOL0     H 4438   2.711   1.665   2.690 -0.6987  1.7231 -1.0335
   33MOL0     H 4439   0.984   1.504   3.310  0.0804  1.4835 -0.8490
   33MOL0     H 4440   0.764   1.375   3.332 -0.2074 -0.7044  0.3808
   33MOL0     H 4441   0.390   1.359   3.294  0.5752 -0.4668  1.4045
   33MOL0     H 4442   0.220   1.223   3.230  1.0698 -2.0885  0.2419
   33MOL0     H 4443  -0.003   1.026   3.237  0.2605  0.1353  2.1077
   33MOL0     H 4444   0.023   1.204   3.191  1.7581  0.2046  1.5733
   33MOL0     H 4445  -0.203   1.239   3.262  0.3571 -1.4356  2.6744
   33MOL0     H 4446  -0.246   1.078   3.271 -0.5416 -0.0358 -0.3381
   33MOL0     H 4447  -0.197   1.046   3.022  2.2813  0.1253  0.5238
   33MOL0     H 4448  -0.114   1.196   3.014  1.9484 -0.5241  1.7160
   33MOL0     H 4449  -0.337   1.311   3.035 -1.5636  0.1072  2.4981
   33MOL0     H 4450  -0.340   1.190   2.917  1.0563 -0.3935 -0.5552
   33MOL0     H 4451  -0.626   1.045   3.196  1.7668  2.8689  3.5644
   33MOL0     H 4452   0.036   1.286   3.615  1.8909 -2.8980  1.1971
   33MOL0     H 4453   0.101   1.441   3.748  0.8481  1.1148 -0.4481
   33MOL0     H 4454   0.248   1.373   3.801 -1.9747  2.7680  3.6087
   33MOL0     H 4455   0.254   1.537   3.724  2.3050 -0.2542 -4.0375
   34MOL0     O 4456  10.087   3.072   1.030  0.1694 -0.0636  0.6769
   34MOL0     C 4457  10.123   2.960   1.058 -0.4114 -0.3285  0.1093
   34MOL0     O 4458  10.048   2.863   1.111 -0.2838  0.1473  0.1283
   34MOL0     C 4459   9.917   2.911   1.149 -0.1504  0.5915 -0.0494
   34MOL0     C 4460   9.912   2.998   1.254 -0.8994  0.2523 -0.5168
   34MOL0     C 4461   9.788   3.053   1.293 -0.6127  0.0707  0.1667
   34MOL0     C 4462   9.665   3.033   1.219  0.5325 -0.4197 -0.8157
   34MOL0     O 4463   9.548   3.073   1.281 -0.3767 -0.2683 -0.2719
   34MOL0     C 4464   9.426   3.047   1.217 -0.0276  0.0937  0.0989
   34MOL0     C 4465   9.307   3.118   1.273  0.2003  0.5592 -0.1990
   34MOL0     C 4466   9.267   3.070   1.411  0.0651  0.1250 -0.2286
   34MOL0     C 4467   9.166   2.951   1.399  0.5151 -0.3637 -0.3019
   34MOL0     C 4468   9.116   2.893   1.536  0.2714  0.0376  0.0360
   34MOL0     C 4469   8.992   2.802   1.508 -0.5555  0.6157 -0.2096
   34MOL0     C 4470   8.943   2.745   1.643 -0.1551  0.2016 -0.1757
   34MOL0     C 4471   8.923   2.845   1.758  0.2900 -0.4842  0.3097
   34MOL0     N 4472   8.845   2.788   1.874  0.5550 -0.4099  0.4583
   34MOL0     C 4473   8.738   2.852   1.919 -0.4283 -0.4660  0.4638
   34MOL0     C 4474   8.732   2.814   2.047  0.5511 -0.6658 -0.2557
   34MOL0     C 4475   8.610   2.846   2.141 -0.0663 -0.0905  0.6966
   34MOL0     C 4476   8.660   2.887   2.278  0.1179  0.3532  0.1175
   34MOL0     C 4477   8.540   2.937   2.367  0.4818 -0.0355  0.5935
   34MOL0     C 4478   8.581   2.983   2.505  0.2046  0.2688 -0.2566
   34MOL0     O 4479   8.631   3.111   2.535  0.1015  0.3316 -0.2604
   34MOL0     C 4480   8.748   3.150   2.480 -1.0239 -0.3145  0.3398
   34MOL0     C 4481   8.865   3.077   2.466 -0.1923  0.2034 -0.2281
   34MOL0     C 4482   8.974   3.126   2.383  0.1019  0.3242  0.0811
   34MOL0     C 4483   8.976   3.255   2.341 -0.4768  0.9967 -0.3204
   34MOL0     C 4484   9.094   3.323   2.282  0.5225  0.2684  0.2135
   34MOL0     O 4485   9.082   3.453   2.259 -0.9419  0.2650  0.3804
   34MOL0     C 4486   9.181   3.532   2.215  1.6508  0.1002 -0.8161
   34MOL0     C 4487   9.164   3.625   2.105  0.0903  0.1753  0.2663
   34MOL0     C 4488   9.263   3.687   2.051 -1.4245 -0.4674  0.5794
   34MOL0     C 4489   9.393   3.675   2.105  1.3659 -0.1537 -0.1709
   34MOL0     O 4490   9.471   3.768   2.058 -0.0111 -0.3842 -0.5201
   34MOL0     C 4491   9.579   3.821   2.129 -0.1064  0.5590 -0.1218
   34MOL0     C 4492   9.707   3.763   2.072 -0.2977  0.8407 -0.5020
   34MOL0     C 4493   9.793   3.720   2.198 -0.0261 -0.3639 -0.2064
   34MOL0     C 4494   9.853   3.843   2.267  0.7945 -0.0821 -0.0049
   34MOL0     C 4495   9.932   3.817   2.402  0.1961  0.0092  0.5054
   34MOL0     C 4496  10.049   3.725   2.368  0.3381 -0.1896 -0.7017
   34MOL0     C 4497  10.120   3.676   2.495 -0.1339 -0.2002 -0.4170
   34MOL0     C 4498  10.240   3.590   2.447  0.7035 -0.3578 -0.0359
   34MOL0    Cl 4499  10.315   3.526   2.595 -0.3000  0.3203  0.1288
   34MOL0     C 4500   9.414   3.585   2.212 -0.3617  1.1172  0.3777
   34MOL0     C 4501   9.305   3.522   2.270  0.2763 -0.2054  0.1686
   34MOL0     O 4502   9.185   3.257   2.245 -0.1035  0.2620 -0.0023
   34MOL0     C 4503   8.861   3.335   2.359 -0.4457 -0.2517  0.7790
   34MOL0     C 4504   8.752   3.280   2.423  0.4370 -0.6572  0.0988
   34MOL0     N 4505   8.825   2.717   2.065  0.6364 -0.9066 -0.0983
   34MOL0     N 4506   8.893   2.700   1.963  0.6448  0.3754 -0.2225
   34MOL0     C 4507   9.680   2.946   1.112 -0.4342  0.8477 -0.5390
   34MOL0     C 4508   9.801   2.886   1.076 -0.2699 -0.6921 -1.0351
   34MOL0     C 4509  10.258   2.916   1.023  0.3902 -0.9326  0.2379
   34MOL0     C 4510  10.277   2.813   0.934 -0.7207 -0.2928  0.2715
   34MOL0     C 4511  10.414   2.790   0.892 -0.2044  0.3151 -1.1062
   34MOL0     C 4512  10.523   2.863   0.947 -0.4031  0.2442  0.2433
   34MOL0     O 4513  10.657   2.848   0.916 -0.0136 -0.4393 -0.7501
   34MOL0     C 4514  10.693   2.816   0.786 -1.2282  0.7888 -1.0017
   34MOL0     C 4515  10.710   2.939   0.695  0.2399  0.1876 -0.1854
   34MOL0     C 4516  10.839   3.013   0.723 -1.0283 -0.3217 -0.5746
   34MOL0     C 4517  10.801   3.159   0.734 -0.1615  0.0592  0.7306
   34MOL0     C 4518  10.921   3.249   0.730 -0.0314  0.0817 -0.0605
   34MOL0     C 4519  11.018   3.321   0.740 -0.2058  0.3312  0.3666
   34MOL0     C 4520  10.489   2.956   1.043 -0.0172  0.6152  0.2499
   34MOL0     C 4521  10.359   2.981   1.086  0.2144 -0.4923 -0.1200
   34MOL0     C 4522  10.339   3.061   1.223  0.3732 -0.3755 -0.5935
   34MOL0     H 4523   9.993   3.012   1.324 -1.1221  3.4699 -0.7628
   34MOL0     H 4524   9.786   3.103   1.390 -1.5283 -0.6517  0.5433
   34MOL0     H 4525   9.426   3.086   1.115  1.8148 -0.3720 -0.1208
   34MOL0     H 4526   9.394   2.943   1.216 -2.8025  0.8670  0.6480
   34MOL0     H 4527   9.233   3.116   1.192  1.3019 -2.9262 -1.3112
   34MOL0     H 4528   9.337   3.224   1.276 -2.7098  1.4445  0.0580
   34MOL0     H 4529   9.238   3.159   1.468 -0.3269 -0.6552  0.8376
   34MOL0     H 4530   9.349   3.021   1.463 -1.2465 -0.5228  1.3313
   34MOL0     H 4531   9.088   2.978   1.328  1.1696 -0.3432 -1.0296
   34MOL0     H 4532   9.219   2.868   1.350  0.9050  0.1836 -0.8248
   34MOL0     H 4533   9.207   2.850   1.578  1.5782  0.9290 -1.7430
   34MOL0     H 4534   9.082   2.977   1.597 -0.7256 -0.7168  0.5424
   34MOL0     H 4535   8.914   2.858   1.456 -0.8096  0.6817  0.2291
   34MOL0     H 4536   9.025   2.726   1.437 -2.7623  0.6085 -1.2880
   34MOL0     H 4537   9.011   2.666   1.677  0.7747  0.8745 -0.4687
   34MOL0     H 4538   8.849   2.700   1.610  1.4547 -1.3941 -2.9003
   34MOL0     H 4539   9.025   2.851   1.797  1.3933 -0.8545 -2.3435
   34MOL0     H 4540   8.883   2.941   1.724  2.2097  0.0242 -0.6453
   34MOL0     H 4541   8.675   2.929   1.876  2.5458  1.4490 -0.7415
   34MOL0     H 4542   8.556   2.933   2.106  1.0661  0.3475 -0.0081
   34MOL0     H 4543   8.548   2.756   2.146 -3.8301  2.3630  2.1691
   34MOL0     H 4544   8.713   2.807   2.329 -0.5587 -1.3008 -1.6561
   34MOL0     H 4545   8.727   2.972   2.265  1.6013 -0.6707  0.8509
   34MOL0     H 4546   8.467   2.856   2.367  0.7367 -0.2993 -1.1913
   34MOL0     H 4547   8.482   3.019   2.323 -0.3323 -1.1532 -0.4668
   34MOL0     H 4548   8.639   2.905   2.555  0.6444 -0.0898 -1.2991
   34MOL0     H 4549   8.486   2.979   2.560  0.4746 -1.3536  0.1466
   34MOL0     H 4550   8.875   2.975   2.500  0.1035  0.7205  1.3201
   34MOL0     H 4551   9.065   3.069   2.366 -1.0305 -2.9984  3.7428
   34MOL0     H 4552   9.067   3.647   2.062  0.7517 -0.7359 -1.7670
   34MOL0     H 4553   9.238   3.760   1.975  2.9616  1.4901  0.7228
   34MOL0     H 4554   9.592   3.927   2.107  1.4074  0.6987  1.2004
   34MOL0     H 4555   9.572   3.812   2.238  0.6409 -0.5659 -0.1427
   34MOL0     H 4556   9.684   3.668   2.025 -0.7580  0.8655 -0.3327
   34MOL0     H 4557   9.762   3.830   2.005  4.1064 -2.1297 -0.2795
   34MOL0     H 4558   9.736   3.656   2.267 -1.4586 -0.4705 -1.4146
   34MOL0     H 4559   9.869   3.654   2.155  0.5611  0.8434 -1.0781
   34MOL0     H 4560   9.780   3.920   2.292  1.0575 -0.3142  1.6129
   34MOL0     H 4561   9.914   3.880   2.185  0.2340 -0.1054 -0.4391
   34MOL0     H 4562   9.876   3.760   2.477  1.6768 -3.9600 -1.1322
   34MOL0     H 4563   9.973   3.909   2.444  0.0135  1.7601 -2.7726
   34MOL0     H 4564  10.002   3.638   2.319  1.2688  0.0903 -2.1646
   34MOL0     H 4565  10.121   3.765   2.296  1.0961 -3.4743 -1.9655
   34MOL0     H 4566  10.049   3.614   2.550 -0.4860 -0.4974 -1.1972
   34MOL0     H 4567  10.157   3.755   2.561  1.5744 -1.2288 -0.0828
   34MOL0     H 4568  10.233   3.513   2.370  3.0419  0.0800 -0.7792
   34MOL0     H 4569  10.315   3.658   2.405  0.1444  2.3589  2.9678
   34MOL0     H 4570   9.510   3.559   2.254 -2.0455 -5.6250  1.1223
   34MOL0     H 4571   9.326   3.455   2.353 -0.6927 -1.3839 -0.5307
   34MOL0     H 4572   8.851   3.429   2.306 -1.0316 -1.2784 -1.0149
   34MOL0     H 4573   8.665   3.343   2.431  1.0352  0.1510  0.3851
   34MOL0     H 4574   9.593   2.900   1.064  1.4123 -2.3380 -1.1388
   34MOL0     H 4575   9.803   2.825   0.986  0.6479 -2.3004  0.0060
   34MOL0     H 4576  10.196   2.750   0.899 -0.4840 -0.1344 -0.5770
   34MOL0     H 4577  10.439   2.717   0.815  2.3216 -1.3183  1.0911
   34MOL0     H 4578  10.625   2.741   0.744 -0.9282  0.9076 -1.7044
   34MOL0     H 4579  10.792   2.769   0.782 -0.0177  3.1688 -1.0803
   34MOL0     H 4580  10.625   3.005   0.718  1.0758  1.6318 -1.0889
   34MOL0     H 4581  10.699   2.915   0.589 -0.2704  2.3011 -0.6705
   34MOL0     H 4582  10.909   2.994   0.641  0.9220 -1.3966  1.2330
   34MOL0     H 4583  10.888   2.981   0.815 -1.8794 -0.4407 -0.1583
   34MOL0     H 4584  10.745   3.179   0.642 -0.0369 -1.2686  0.3520
   34MOL0     H 4585  10.749   3.166   0.830  0.6839  0.5548  1.1711
   34MOL0     H 4586  11.099   3.390   0.730  1.0544 -0.9876  1.0045
   34MOL0     H 4587  10.566   3.001   1.105 -0.8849  2.0317  0.3355
   34MOL0     H 4588  10.283   3.005   1.299  3.1011 -1.2086  0.9587
   34MOL0     H 4589  10.435   3.090   1.267 -0.8148  1.3752  0.9957
   34MOL0     H 4590  10.271   3.145   1.208  2.2039  2.0028  2.9800
   35MOL0     O 4591   4.163   1.492   6.048 -0.0384  0.2110 -0.7113
   35MOL0     C 4592   4.128   1.589   6.119  0.0565  0.4374 -0.6027
   35MOL0     O 4593   4.214   1.655   6.210  1.3714 -0.5780 -0.3137
   35MOL0     C 4594   4.349   1.634   6.187 -0.3727  0.5754 -0.3781
   35MOL0     C 4595   4.412   1.694   6.080  0.2122  0.0329  0.3299
   35MOL0     C 4596   4.540   1.657   6.049  0.4531  0.5632 -1.2400
   35MOL0     C 4597   4.616   1.562   6.122 -0.1478  0.3038  0.5936
   35MOL0     O 4598   4.739   1.516   6.089  0.4011  0.1807 -0.2726
   35MOL0     C 4599   4.762   1.494   5.946  0.0182  0.1092  0.1541
   35MOL0     C 4600   4.909   1.452   5.928 -0.2630  0.3695  0.3285
   35MOL0     C 4601   4.948   1.334   6.007 -0.2068  0.1914 -0.3587
   35MOL0     C 4602   5.064   1.247   5.969 -0.6730 -0.3205  0.2313
   35MOL0     C 4603   5.046   1.110   6.036  0.6067 -0.4113  0.0282
   35MOL0     C 4604   5.138   1.005   5.978  0.3027  0.7757 -0.0933
   35MOL0     C 4605   5.136   0.865   6.058 -0.5389 -1.0014 -0.1616
   35MOL0     C 4606   5.239   0.765   6.013 -0.1828  0.2683 -0.0110
   35MOL0     N 4607   5.365   0.807   6.084 -0.0035  0.5852  0.6059
   35MOL0     C 4608   5.396   0.760   6.207  0.6697 -0.1827  0.8778
   35MOL0     C 4609   5.527   0.770   6.220 -0.8641  0.0245 -0.0087
   35MOL0     C 4610   5.612   0.730   6.343 -0.0878  0.6523  1.2686
   35MOL0     C 4611   5.666   0.848   6.426  0.3670  0.6520  0.6880
   35MOL0     C 4612   5.790   0.912   6.352 -0.4403 -0.9948 -1.3740
   35MOL0     C 4613   5.849   0.994   6.460  0.0210  0.5514  0.6144
   35MOL0     O 4614   5.921   0.902   6.541  0.2888  0.0468 -0.3493
   35MOL0     C 4615   6.001   0.965   6.631 -0.2711 -0.6995  0.7967
   35MOL0     C 4616   6.096   0.887   6.687 -0.6584  0.6165 -0.8512
   35MOL0     C 4617   6.205   0.942   6.761  0.2553 -0.3570 -1.2158
   35MOL0     C 4618   6.209   1.072   6.800 -0.0254  0.2458 -0.1788
   35MOL0     C 4619   6.315   1.129   6.892 -0.0371 -0.3145  0.0950
   35MOL0     O 4620   6.323   1.268   6.913 -0.0997  0.8790 -0.5447
   35MOL0     C 4621   6.445   1.302   6.972  0.1800 -0.6924  0.0901
   35MOL0     C 4622   6.463   1.307   7.110  0.0008  0.7291 -0.2350
   35MOL0     C 4623   6.585   1.346   7.166  0.0561  0.2025 -0.9779
   35MOL0     C 4624   6.687   1.386   7.081 -0.3077 -0.0437  0.2954
   35MOL0     O 4625   6.797   1.439   7.139  0.1808  0.5076 -0.4883
   35MOL0     C 4626   6.790   1.538   7.245  0.3543  0.2267  1.9417
   35MOL0     C 4627   6.894   1.649   7.212  0.0103  0.3670 -0.1193
   35MOL0     C 4628   7.037   1.585   7.222  0.2418  0.3439  0.4124
   35MOL0     C 4629   7.146   1.685   7.255 -0.9267 -0.0944  0.5355
   35MOL0     C 4630   7.290   1.645   7.205 -1.5853 -0.1256 -0.1487
   35MOL0     C 4631   7.330   1.498   7.265 -0.0298 -0.0547  0.7706
   35MOL0     C 4632   7.477   1.465   7.243 -0.1832  0.5246 -0.1013
   35MOL0     C 4633   7.577   1.567   7.291  0.3299  0.0498 -0.0183
   35MOL0    Cl 4634   7.603   1.691   7.168 -0.1362  0.2355  0.4614
   35MOL0     C 4635   6.677   1.371   6.944  0.4908  0.8618  0.3664
   35MOL0     C 4636   6.549   1.340   6.891  0.5327 -0.3893 -0.2962
   35MOL0     O 4637   6.387   1.045   6.941 -0.3554 -0.4880 -0.8949
   35MOL0     C 4638   6.100   1.152   6.748 -0.3221 -0.5562 -0.6662
   35MOL0     C 4639   6.003   1.102   6.669 -0.3768 -0.6733  0.3678
   35MOL0     N 4640   5.580   0.824   6.101 -0.0068 -0.5586 -0.0880
   35MOL0     N 4641   5.481   0.840   6.021 -0.0431  0.0616  1.1416
   35MOL0     C 4642   4.545   1.507   6.233  0.1087 -0.2967  0.4339
   35MOL0     C 4643   4.412   1.541   6.264  0.0949  0.1190  0.5301
   35MOL0     C 4644   3.983   1.624   6.106 -0.6103 -0.1323  0.3217
   35MOL0     C 4645   3.893   1.519   6.077  0.1169  0.4076  0.4871
   35MOL0     C 4646   3.752   1.541   6.088  0.0184  0.6503 -0.4513
   35MOL0     C 4647   3.714   1.674   6.115  0.3001 -0.5879 -0.1600
   35MOL0     O 4648   3.577   1.713   6.116 -0.1561  0.2096  0.8999
   35MOL0     C 4649   3.476   1.617   6.157  0.7931  0.3257 -0.4069
   35MOL0     C 4650   3.363   1.705   6.192  0.0958  0.4726  0.6478
   35MOL0     C 4651   3.234   1.629   6.199  0.6810 -0.1428 -0.1537
   35MOL0     C 4652   3.107   1.709   6.151 -0.3349 -0.7431  0.6573
   35MOL0     C 4653   2.979   1.654   6.186  0.7772 -1.0028  0.3394
   35MOL0     C 4654   2.871   1.597   6.208  0.3343  0.5899  0.4308
   35MOL0     C 4655   3.805   1.777   6.112  0.4166 -0.0541 -0.2220
   35MOL0     C 4656   3.939   1.755   6.110  0.0868 -0.6401 -0.4098
   35MOL0     C 4657   4.025   1.884   6.138  0.4913  0.5735 -0.1219
   35MOL0     H 4658   4.359   1.768   6.021 -1.1528 -0.8091  0.4338
   35MOL0     H 4659   4.583   1.706   5.962 -0.3356 -1.4257 -2.8264
   35MOL0     H 4660   4.701   1.410   5.911 -1.9853  0.7869  1.7965
   35MOL0     H 4661   4.743   1.581   5.883 -0.6968  0.3897  0.7426
   35MOL0     H 4662   4.976   1.532   5.962 -0.5237  0.7969 -0.1372
   35MOL0     H 4663   4.918   1.437   5.820 -1.4289  1.3097  0.0750
   35MOL0     H 4664   4.863   1.266   6.023 -1.6013  2.6076  4.2858
   35MOL0     H 4665   4.968   1.353   6.113 -0.4561  0.2085 -0.3127
   35MOL0     H 4666   5.066   1.238   5.861 -1.6393 -1.6306  0.3118
   35MOL0     H 4667   5.160   1.294   5.996 -0.1466  1.1883 -3.6467
   35MOL0     H 4668   5.080   1.120   6.139 -0.0356 -4.4572  0.8016
   35MOL0     H 4669   4.943   1.071   6.032  0.4328  0.0625 -0.1522
   35MOL0     H 4670   5.098   0.982   5.879 -2.8064  1.4585  0.8675
   35MOL0     H 4671   5.241   1.040   5.975  0.2990  0.9120 -3.9859
   35MOL0     H 4672   5.037   0.820   6.040 -1.9058 -0.2814  4.2536
   35MOL0     H 4673   5.141   0.876   6.167 -0.6148 -2.0845 -0.0371
   35MOL0     H 4674   5.208   0.666   6.048 -0.3464  0.3936  0.2021
   35MOL0     H 4675   5.253   0.763   5.904 -3.2522  0.0947 -0.5092
   35MOL0     H 4676   5.315   0.733   6.275 -0.3984 -1.3312 -0.7513
   35MOL0     H 4677   5.562   0.655   6.404  0.7411 -0.2765  0.8378
   35MOL0     H 4678   5.700   0.679   6.302 -2.1329 -1.5801 -0.6313
   35MOL0     H 4679   5.591   0.924   6.449  2.8940  3.7401 -0.5703
   35MOL0     H 4680   5.701   0.802   6.519  0.9236 -0.1681  0.0928
   35MOL0     H 4681   5.754   0.977   6.272  2.2404  1.4980 -0.7637
   35MOL0     H 4682   5.852   0.840   6.300 -1.6557 -1.4734 -2.1961
   35MOL0     H 4683   5.779   1.048   6.524 -1.0508 -0.9771  0.7625
   35MOL0     H 4684   5.926   1.057   6.414 -1.7103  0.4193 -2.7555
   35MOL0     H 4685   6.097   0.780   6.667 -0.0672  0.1283  1.4481
   35MOL0     H 4686   6.284   0.874   6.791  1.1918  1.3478  0.3284
   35MOL0     H 4687   6.387   1.292   7.186  0.0069 -1.0442 -0.5316
   35MOL0     H 4688   6.592   1.348   7.274 -1.2272 -0.1942 -0.8679
   35MOL0     H 4689   6.684   1.566   7.251 -0.1829 -1.3697  0.6394
   35MOL0     H 4690   6.832   1.498   7.337  0.7009 -2.7335  0.6148
   35MOL0     H 4691   6.887   1.691   7.111  0.1177  0.2574 -0.1734
   35MOL0     H 4692   6.883   1.727   7.287  0.2604  0.5167 -0.2384
   35MOL0     H 4693   7.049   1.502   7.292  1.8946  0.5594  0.4196
   35MOL0     H 4694   7.055   1.543   7.122 -0.9137  0.5693  0.0941
   35MOL0     H 4695   7.152   1.694   7.363  0.5151  0.4914  0.4282
   35MOL0     H 4696   7.102   1.776   7.213 -1.9619 -1.5984 -1.9196
   35MOL0     H 4697   7.349   1.729   7.241  0.9095 -0.9728 -1.9739
   35MOL0     H 4698   7.295   1.651   7.096  1.2646  1.7910 -0.0083
   35MOL0     H 4699   7.307   1.505   7.372 -0.9259 -2.2922  0.7764
   35MOL0     H 4700   7.270   1.421   7.217  0.0121 -1.7818  3.3036
   35MOL0     H 4701   7.499   1.435   7.140  1.6150  0.4635  0.2636
   35MOL0     H 4702   7.486   1.381   7.313 -2.1723 -1.2171 -1.7887
   35MOL0     H 4703   7.551   1.618   7.385  1.7698  1.7573 -0.4795
   35MOL0     H 4704   7.680   1.531   7.299  0.9575  1.0012 -2.7275
   35MOL0     H 4705   6.758   1.395   6.875  0.0518 -1.7470 -1.1931
   35MOL0     H 4706   6.532   1.339   6.784 -2.3151  3.2703 -0.1035
   35MOL0     H 4707   6.100   1.253   6.788 -0.2407 -1.8329  2.9245
   35MOL0     H 4708   5.923   1.163   6.629  1.3535 -1.1131 -4.4730
   35MOL0     H 4709   4.598   1.439   6.300  1.1104  0.0303  0.0040
   35MOL0     H 4710   4.363   1.493   6.348  1.7797 -1.5649  0.6081
   35MOL0     H 4711   3.927   1.422   6.044  0.9545  0.2887  1.6409
   35MOL0     H 4712   3.677   1.463   6.079  1.0087 -0.3884  0.0473
   35MOL0     H 4713   3.507   1.555   6.241 -0.4809  0.8685  0.4940
   35MOL0     H 4714   3.442   1.552   6.075 -3.8097  1.0657  0.6490
   35MOL0     H 4715   3.345   1.781   6.115 -2.4606  0.0470  0.7201
   35MOL0     H 4716   3.378   1.765   6.282 -0.3060  1.7235 -0.0833
   35MOL0     H 4717   3.230   1.618   6.308  2.4138 -4.5643 -0.3291
   35MOL0     H 4718   3.235   1.531   6.151  0.5213 -0.2319  0.0211
   35MOL0     H 4719   3.116   1.811   6.191  2.1976 -0.0076 -1.4695
   35MOL0     H 4720   3.109   1.712   6.042  3.3450  0.2583  0.6232
   35MOL0     H 4721   2.779   1.545   6.227 -0.5229  1.5024 -1.0345
   35MOL0     H 4722   3.768   1.879   6.114 -2.4644 -0.8936 -3.0364
   35MOL0     H 4723   3.992   1.934   6.230  3.7446  1.8346  0.5101
   35MOL0     H 4724   4.130   1.862   6.159 -0.4744 -1.2587  3.6912
   35MOL0     H 4725   4.029   1.956   6.056 -2.3043  0.8614 -0.0925
   36MOL0     O 4726   5.356   8.915   4.278 -1.0077 -0.4592  0.2320
   36MOL0     C 4727   5.343   9.019   4.216  0.0222 -0.2114  1.0102
   36MOL0     O 4728   5.442   9.107   4.187  0.0343 -0.3472 -0.6875
   36MOL0     C 4729   5.562   9.104   4.249 -0.7697 -0.1630 -0.1525
   36MOL0     C 4730   5.621   9.014   4.344 -0.0553  0.4952  0.4311
   36MOL0     C 4731   5.741   9.047   4.414 -0.6314 -0.3289  0.3563
   36MOL0     C 4732   5.814   9.162   4.381 -0.9194 -0.2808  0.0186
   36MOL0     O 4733   5.930   9.207   4.436 -0.1371 -0.2235  0.2698
   36MOL0     C 4734   6.018   9.109   4.506  0.2837  0.0269  0.6882
   36MOL0     C 4735   6.162   9.138   4.496 -0.0252 -0.0466 -0.6059
   36MOL0     C 4736   6.260   9.030   4.553 -0.1053 -0.7255  0.2457
   36MOL0     C 4737   6.412   9.052   4.545  0.1348 -0.8585 -0.4465
   36MOL0     C 4738   6.448   9.092   4.403 -1.0865  0.1898  0.6381
   36MOL0     C 4739   6.600   9.078   4.371 -1.0260  0.2482  0.1343
   36MOL0     C 4740   6.703   9.168   4.443  0.4110  0.8556  0.9202
   36MOL0     C 4741   6.854   9.128   4.426 -0.1522 -0.6885  0.1185
   36MOL0     N 4742   6.938   9.242   4.464  0.0615 -0.2018  0.1460
   36MOL0     C 4743   7.056   9.217   4.528 -0.5532 -0.0405  0.2413
   36MOL0     C 4744   7.124   9.333   4.543 -0.1980 -0.1207 -0.5026
   36MOL0     C 4745   7.255   9.366   4.614  0.5075  0.2738 -0.5690
   36MOL0     C 4746   7.362   9.408   4.517 -1.0694  0.8400 -0.1863
   36MOL0     C 4747   7.425   9.300   4.418  0.8260  0.4268 -0.2520
   36MOL0     C 4748   7.506   9.196   4.476 -0.5267  0.7662  0.1246
   36MOL0     O 4749   7.541   9.089   4.382  0.0521 -1.4698  0.1331
   36MOL0     C 4750   7.425   9.042   4.311 -0.7621  0.1195  0.1811
   36MOL0     C 4751   7.307   8.998   4.387  0.1197  0.1695 -0.0536
   36MOL0     C 4752   7.189   8.971   4.318  0.3758  0.0850 -0.1650
   36MOL0     C 4753   7.197   8.978   4.174  0.0278  0.2477  0.3394
   36MOL0     C 4754   7.077   8.950   4.091  0.0538 -0.1013  0.2138
   36MOL0     O 4755   6.954   8.958   4.149 -0.4131  0.4899 -0.2843
   36MOL0     C 4756   6.847   8.898   4.080 -0.8069 -1.4310 -0.5729
   36MOL0     C 4757   6.754   8.978   4.013  0.8957 -0.4845 -0.0668
   36MOL0     C 4758   6.644   8.922   3.951  0.1577 -0.2729 -0.7117
   36MOL0     C 4759   6.623   8.782   3.954 -0.6843  0.3353  0.0468
   36MOL0     O 4760   6.528   8.723   3.872  0.5124  0.5263 -0.2722
   36MOL0     C 4761   6.405   8.789   3.894  0.2062  0.2100 -0.1416
   36MOL0     C 4762   6.283   8.688   3.900  0.3407  0.0198  0.7792
   36MOL0     C 4763   6.258   8.662   4.052  1.0374 -1.2087  0.2545
   36MOL0     C 4764   6.226   8.509   4.073 -0.2705 -0.5257  0.3488
   36MOL0     C 4765   6.194   8.479   4.211  1.0435 -1.0960  0.0505
   36MOL0     C 4766   6.042   8.501   4.260  0.3793  1.1672 -0.2811
   36MOL0     C 4767   6.005   8.419   4.379 -0.5395 -0.4661 -0.0116
   36MOL0     C 4768   5.942   8.294   4.333  0.4130  0.1987  0.1113
   36MOL0    Cl 4769   6.066   8.168   4.306 -0.1052  0.0251  0.5774
   36MOL0     C 4770   6.711   8.704   4.026 -0.1423  0.7106 -0.7547
   36MOL0     C 4771   6.824   8.760   4.087 -1.1552  0.1713 -0.1545
   36MOL0     O 4772   7.095   8.890   3.982  0.0642 -0.4072 -1.2066
   36MOL0     C 4773   7.310   9.029   4.105 -0.9622 -0.6221  1.0905
   36MOL0     C 4774   7.425   9.047   4.174  0.2749 -1.0590  0.4115
   36MOL0     N 4775   7.045   9.419   4.477  0.0994 -0.0558  0.3425
   36MOL0     N 4776   6.931   9.371   4.432 -0.1043  0.3978  0.0017
   36MOL0     C 4777   5.757   9.248   4.289 -0.3472 -0.0469 -0.6381
   36MOL0     C 4778   5.638   9.226   4.229 -0.1718  0.2472 -0.3924
   36MOL0     C 4779   5.212   9.055   4.156  0.4242 -0.0014  1.0128
   36MOL0     C 4780   5.192   9.170   4.076  0.7262 -0.5254  0.7889
   36MOL0     C 4781   5.062   9.207   4.029  0.2749 -0.4819  0.7161
   36MOL0     C 4782   4.954   9.128   4.039  0.2340 -0.4303  0.1406
   36MOL0     O 4783   4.839   9.161   3.985  0.4623 -0.2612  0.1849
   36MOL0     C 4784   4.823   9.257   3.883 -1.0377  0.2772 -0.5212
   36MOL0     C 4785   4.678   9.262   3.840 -0.2558 -0.0862 -0.1962
   36MOL0     C 4786   4.645   9.123   3.778  0.0413  0.2029 -0.1956
   36MOL0     C 4787   4.493   9.105   3.751  0.0202  0.1353  0.6109
   36MOL0     C 4788   4.452   9.184   3.632 -0.3990  0.8364 -0.0970
   36MOL0     C 4789   4.406   9.242   3.528  0.3491 -0.6285 -0.4859
   36MOL0     C 4790   4.965   9.014   4.119 -0.6785 -0.0072  0.5206
   36MOL0     C 4791   5.089   8.982   4.177 -0.6401  0.1412 -0.9595
   36MOL0     C 4792   5.078   8.876   4.285 -0.0028  1.1368  0.1299
   36MOL0     H 4793   5.584   8.915   4.367  0.3614  0.1275 -0.4210
   36MOL0     H 4794   5.785   8.983   4.490  1.4154 -0.5068 -0.8971
   36MOL0     H 4795   5.996   9.088   4.611  1.6063  0.1185  1.0006
   36MOL0     H 4796   6.008   9.020   4.443  1.5978  0.7679 -0.6336
   36MOL0     H 4797   6.177   9.236   4.543 -1.4588  0.3676 -0.9502
   36MOL0     H 4798   6.182   9.159   4.391 -1.1468 -0.4899 -0.9270
   36MOL0     H 4799   6.242   8.932   4.509  3.4766 -2.2233  1.7623
   36MOL0     H 4800   6.230   9.019   4.658  1.2734 -1.7873  0.5563
   36MOL0     H 4801   6.438   9.140   4.604 -0.2586 -1.1313  0.1487
   36MOL0     H 4802   6.463   8.965   4.588 -1.1952 -2.5352 -2.1023
   36MOL0     H 4803   6.393   9.029   4.332 -0.7074  1.0080 -0.4159
   36MOL0     H 4804   6.424   9.196   4.379  1.6477  1.2637  2.1905
   36MOL0     H 4805   6.630   8.975   4.390  1.6436  1.1236  1.1325
   36MOL0     H 4806   6.615   9.086   4.263  0.1177  2.0274  0.3877
   36MOL0     H 4807   6.677   9.155   4.549 -1.1445 -0.8033  0.3861
   36MOL0     H 4808   6.682   9.269   4.409 -3.0681 -0.2659 -0.7177
   36MOL0     H 4809   6.873   9.041   4.489  3.0420  0.9126  1.6044
   36MOL0     H 4810   6.862   9.109   4.319  0.1517  0.2514 -0.0353
   36MOL0     H 4811   7.079   9.117   4.563 -1.5902 -0.1257  0.7379
   36MOL0     H 4812   7.234   9.447   4.683 -2.1911 -0.2540 -0.6387
   36MOL0     H 4813   7.292   9.279   4.668  1.6939  1.2278  0.1901
   36MOL0     H 4814   7.316   9.490   4.460 -1.5872  0.2784 -0.5831
   36MOL0     H 4815   7.442   9.461   4.570 -0.5112  1.1854 -1.3541
   36MOL0     H 4816   7.490   9.346   4.342  2.4343  0.2293  0.9409
   36MOL0     H 4817   7.340   9.253   4.367 -0.1091 -3.3659  4.1850
   36MOL0     H 4818   7.445   9.151   4.555 -2.4907  1.6190 -0.8609
   36MOL0     H 4819   7.596   9.238   4.522  1.4276 -0.9208 -1.9289
   36MOL0     H 4820   7.302   8.989   4.495  0.0679  2.2591  0.1544
   36MOL0     H 4821   7.089   8.952   4.353 -1.5951  0.5176 -4.8845
   36MOL0     H 4822   6.769   9.085   4.005  2.9621 -0.5966  1.2889
   36MOL0     H 4823   6.566   8.985   3.909 -1.8769  0.8053  4.0758
   36MOL0     H 4824   6.406   8.852   3.983 -0.7846  1.4826 -0.9898
   36MOL0     H 4825   6.386   8.856   3.809 -1.0883 -1.2193 -1.0367
   36MOL0     H 4826   6.194   8.719   3.844  0.8776 -0.1947 -0.2125
   36MOL0     H 4827   6.311   8.590   3.860  1.6418 -0.1215  1.9505
   36MOL0     H 4828   6.340   8.701   4.113 -0.7058  2.6404  0.4253
   36MOL0     H 4829   6.174   8.726   4.079  0.1757 -1.0991 -2.3610
   36MOL0     H 4830   6.320   8.456   4.055 -0.4390 -0.7674  0.1751
   36MOL0     H 4831   6.150   8.467   4.006  1.2450  0.3174 -2.0234
   36MOL0     H 4832   6.265   8.523   4.281  0.5866 -1.4163  0.7343
   36MOL0     H 4833   6.207   8.370   4.212 -2.6914 -1.6996 -0.0620
   36MOL0     H 4834   6.034   8.607   4.287 -1.4720  0.3578  2.8652
   36MOL0     H 4835   5.973   8.477   4.178 -0.2359  1.4920  0.1313
   36MOL0     H 4836   5.922   8.464   4.436 -3.2477 -3.8493 -0.8975
   36MOL0     H 4837   6.093   8.404   4.442 -0.8666 -0.7536  0.3874
   36MOL0     H 4838   5.879   8.247   4.410  0.8815 -3.3913 -1.5150
   36MOL0     H 4839   5.889   8.305   4.238 -0.3677 -0.5559  0.4467
   36MOL0     H 4840   6.705   8.595   4.022  2.3177  0.5335 -0.9838
   36MOL0     H 4841   6.907   8.700   4.125  0.5998  0.6194 -3.0127
   36MOL0     H 4842   7.310   9.043   3.997  0.5385 -3.0150  0.6912
   36MOL0     H 4843   7.512   9.079   4.117  0.0936 -1.2040  0.0528
   36MOL0     H 4844   5.812   9.336   4.256 -1.4561  0.3140 -1.5548
   36MOL0     H 4845   5.600   9.302   4.161 -2.2735 -0.9102 -0.5778
   36MOL0     H 4846   5.283   9.227   4.064  1.9157 -2.6445 -0.9737
   36MOL0     H 4847   5.048   9.308   3.990 -2.5706 -0.5795  1.2490
   36MOL0     H 4848   4.888   9.240   3.797 -0.2736 -1.2473  0.3176
   36MOL0     H 4849   4.867   9.350   3.918  0.4073  0.9340 -3.7547
   36MOL0     H 4850   4.659   9.331   3.757 -3.3703 -1.0392 -0.3918
   36MOL0     H 4851   4.615   9.289   3.925 -0.7711  0.8041 -0.8393
   36MOL0     H 4852   4.676   9.041   3.844 -1.5675  1.3027  2.0577
   36MOL0     H 4853   4.704   9.119   3.686  0.6968  0.9784  0.1696
   36MOL0     H 4854   4.477   9.000   3.723 -1.2924  0.5734 -0.3730
   36MOL0     H 4855   4.440   9.126   3.845  0.6477 -2.3992  1.6098
   36MOL0     H 4856   4.353   9.284   3.445 -0.5257 -1.5771 -0.4199
   36MOL0     H 4857   4.878   8.954   4.144 -0.6367 -0.3992 -0.2326
   36MOL0     H 4858   5.122   8.782   4.252  1.0195  1.5975  0.1419
   36MOL0     H 4859   5.127   8.896   4.381 -0.1702 -1.2749  0.7919
   36MOL0     H 4860   4.973   8.854   4.309  0.1261 -1.0139 -1.0311
   37MOL0     O 4861  10.527   6.124   2.089 -0.0307 -0.2557 -1.0195
   37MOL0     C 4862  10.430   6.181   2.036 -0.3010 -0.0795 -0.2938
   37MOL0     O 4863  10.361   6.288   2.096 -0.5889  0.5298 -0.1195
   37MOL0     C 4864  10.362   6.270   2.232  0.3957  0.4692 -0.6237
   37MOL0     C 4865  10.450   6.332   2.324  0.3127  0.7941  0.6270
   37MOL0     C 4866  10.456   6.297   2.459 -0.5001  0.3368  0.0168
   37MOL0     C 4867  10.376   6.192   2.508  0.6374 -0.2724 -0.2255
   37MOL0     O 4868  10.383   6.152   2.638  0.0821 -0.4267  0.6600
   37MOL0     C 4869  10.475   6.050   2.651 -0.5757 -0.1579  0.1000
   37MOL0     C 4870  10.498   5.998   2.797 -0.3259  0.4945  0.0536
   37MOL0     C 4871  10.545   6.108   2.891 -0.3803  0.2139 -0.1619
   37MOL0     C 4872  10.437   6.204   2.944  1.1882  0.3309 -0.0513
   37MOL0     C 4873  10.503   6.309   3.026  0.0709 -0.0024 -0.3355
   37MOL0     C 4874  10.410   6.411   3.092  1.1502 -0.3731 -0.0604
   37MOL0     C 4875  10.475   6.541   3.132 -0.2701  0.5440  0.2838
   37MOL0     C 4876  10.465   6.643   3.012  0.1093  0.0844 -0.0910
   37MOL0     N 4877  10.336   6.707   2.988  0.0593 -0.2399  0.8867
   37MOL0     C 4878  10.312   6.797   2.882 -0.7499 -0.1849  0.0346
   37MOL0     C 4879  10.187   6.825   2.894  0.6699  0.0540  1.3258
   37MOL0     C 4880  10.106   6.898   2.781 -0.6729 -0.5355  0.4794
   37MOL0     C 4881   9.975   6.835   2.757  0.4564 -0.0780 -0.1598
   37MOL0     C 4882   9.974   6.720   2.661 -0.0932 -0.1038  1.1285
   37MOL0     C 4883  10.012   6.588   2.722 -0.4558  0.7669 -0.8086
   37MOL0     O 4884   9.982   6.475   2.640  0.1692  0.1843 -0.5627
   37MOL0     C 4885  10.016   6.351   2.700 -0.3308  0.4070  0.0521
   37MOL0     C 4886  10.074   6.328   2.824  0.7712 -0.5550  0.1074
   37MOL0     C 4887  10.114   6.202   2.866 -0.0316 -0.8191  0.0619
   37MOL0     C 4888  10.085   6.085   2.789  0.1724  0.2136 -0.4772
   37MOL0     C 4889  10.115   5.952   2.831 -0.1227 -0.0169 -0.1642
   37MOL0     O 4890  10.104   5.850   2.735  0.4042  0.2801  1.0047
   37MOL0     C 4891  10.181   5.741   2.719 -0.1632 -0.3423  0.5291
   37MOL0     C 4892  10.176   5.696   2.584  0.7777  0.0292  0.1674
   37MOL0     C 4893  10.245   5.579   2.555  0.0504 -0.5320  0.0958
   37MOL0     C 4894  10.316   5.501   2.656 -0.9690  0.0527  0.8344
   37MOL0     O 4895  10.394   5.392   2.625 -0.7744 -0.1961  0.3869
   37MOL0     C 4896  10.394   5.331   2.499  0.0565 -1.0732  0.2460
   37MOL0     C 4897  10.500   5.213   2.501  0.1628 -0.3720 -0.0239
   37MOL0     C 4898  10.649   5.247   2.487  0.5160  0.1999 -0.5875
   37MOL0     C 4899  10.728   5.114   2.517 -0.2212 -0.1063 -0.2224
   37MOL0     C 4900  10.871   5.104   2.464  0.1129 -0.8279 -0.4191
   37MOL0     C 4901  10.926   4.965   2.493 -0.2749  0.1654  0.0462
   37MOL0     C 4902  11.069   4.932   2.432 -0.4562  0.5864 -0.9766
   37MOL0     C 4903  11.166   4.998   2.522 -0.4152 -1.2655 -0.3872
   37MOL0    Cl 4904  11.345   4.990   2.465 -0.1384  0.1101 -0.1809
   37MOL0     C 4905  10.320   5.552   2.789 -0.2052 -0.4001  0.3778
   37MOL0     C 4906  10.253   5.673   2.818  0.3415 -0.4342 -0.0511
   37MOL0     O 4907  10.168   5.933   2.939 -0.1932  0.1765 -0.5594
   37MOL0     C 4908  10.027   6.109   2.658 -0.0733  0.2298 -1.3654
   37MOL0     C 4909  10.008   6.239   2.612  0.3492  0.0147  0.1728
   37MOL0     N 4910  10.135   6.766   3.005  0.1714  0.3630  0.3298
   37MOL0     N 4911  10.217   6.677   3.052 -0.6111 -0.1651 -0.2703
   37MOL0     C 4912  10.294   6.129   2.416  1.1318  0.7463  0.0104
   37MOL0     C 4913  10.282   6.167   2.285  0.0267  0.9225 -0.2815
   37MOL0     C 4914  10.394   6.137   1.905 -0.6518  0.7556  1.2058
   37MOL0     C 4915  10.285   6.204   1.845  0.4184 -0.4192  0.5683
   37MOL0     C 4916  10.241   6.181   1.718 -0.6178 -0.9014  0.1993
   37MOL0     C 4917  10.305   6.095   1.630  0.6325 -0.8953  0.5364
   37MOL0     O 4918  10.269   6.049   1.502 -0.0701  0.2693 -0.0242
   37MOL0     C 4919  10.142   6.080   1.455  0.6955 -0.2119 -0.0497
   37MOL0     C 4920  10.021   6.000   1.516  0.5288 -0.5337 -0.3741
   37MOL0     C 4921   9.880   6.048   1.476 -0.4410  0.1595  0.2272
   37MOL0     C 4922   9.849   6.049   1.334  0.7134 -0.5907 -1.1672
   37MOL0     C 4923   9.829   5.925   1.284 -0.8099  0.0280  1.2249
   37MOL0     C 4924   9.810   5.817   1.229  1.1109  0.3228  0.9880
   37MOL0     C 4925  10.417   6.030   1.692  0.5172  0.2668  0.3268
   37MOL0     C 4926  10.464   6.048   1.822 -0.1024  0.3204 -0.0112
   37MOL0     C 4927  10.578   5.962   1.861 -0.1362 -0.0939  1.2526
   37MOL0     H 4928  10.518   6.411   2.291 -1.0219  1.6066 -0.2788
   37MOL0     H 4929  10.531   6.347   2.519  1.3649 -0.3502 -1.6051
   37MOL0     H 4930  10.445   5.958   2.600  0.3314 -0.0578 -0.6497
   37MOL0     H 4931  10.576   6.077   2.618 -0.8226 -2.1976 -2.6890
   37MOL0     H 4932  10.569   5.914   2.795 -1.6319 -0.6239 -1.3242
   37MOL0     H 4933  10.404   5.972   2.845  0.2181 -1.8963 -0.0534
   37MOL0     H 4934  10.624   6.170   2.848  0.1996 -0.1711  0.3384
   37MOL0     H 4935  10.603   6.054   2.966 -0.9336 -3.2194 -1.9896
   37MOL0     H 4936  10.384   6.251   2.861  2.9343  2.2007 -0.1971
   37MOL0     H 4937  10.363   6.149   3.002  0.0759  1.6691 -0.1440
   37MOL0     H 4938  10.571   6.262   3.099  1.8346 -0.4994 -2.1815
   37MOL0     H 4939  10.567   6.366   2.958  1.8414 -1.2732  0.1848
   37MOL0     H 4940  10.325   6.434   3.027 -0.1695  0.9516  2.0039
   37MOL0     H 4941  10.375   6.369   3.187  1.6355  2.7469  1.6202
   37MOL0     H 4942  10.580   6.517   3.153 -0.1760 -0.4067 -1.1831
   37MOL0     H 4943  10.429   6.584   3.222  2.0014  1.2339  1.1879
   37MOL0     H 4944  10.546   6.716   3.023  1.7146 -1.5638 -0.3714
   37MOL0     H 4945  10.490   6.588   2.921 -1.5348 -0.2481 -0.3789
   37MOL0     H 4946  10.384   6.839   2.813  1.3092  0.9123  2.6551
   37MOL0     H 4947  10.095   7.002   2.814  2.1902  0.1563 -0.4236
   37MOL0     H 4948  10.166   6.898   2.690  0.5282  1.1055  1.2232
   37MOL0     H 4949   9.908   6.808   2.839 -0.1471 -1.9044 -1.2033
   37MOL0     H 4950   9.925   6.914   2.701 -0.6383 -0.9103 -0.3779
   37MOL0     H 4951  10.042   6.722   2.575 -1.2841  0.6880  0.1653
   37MOL0     H 4952   9.876   6.711   2.614  0.1308 -0.7188  0.7743
   37MOL0     H 4953   9.951   6.575   2.812 -0.1787 -0.0430 -0.7239
   37MOL0     H 4954  10.112   6.588   2.765 -0.9006  2.1888  0.2973
   37MOL0     H 4955  10.082   6.417   2.885 -0.9890 -1.2726  1.5084
   37MOL0     H 4956  10.175   6.195   2.956  1.2585  1.8760 -0.5122
   37MOL0     H 4957  10.127   5.753   2.507  2.8757  2.2583  0.3605
   37MOL0     H 4958  10.255   5.550   2.451  0.8705  0.0997 -0.0130
   37MOL0     H 4959  10.295   5.294   2.473 -0.6505  0.2059  1.0559
   37MOL0     H 4960  10.431   5.405   2.427  0.9041 -2.6298 -1.0017
   37MOL0     H 4961  10.502   5.163   2.598 -0.0674  1.6674  1.1099
   37MOL0     H 4962  10.477   5.141   2.423  2.7999  0.3114 -1.5363
   37MOL0     H 4963  10.676   5.287   2.389 -1.7227  0.2635 -1.2442
   37MOL0     H 4964  10.668   5.326   2.561 -2.4956  0.2854  0.2674
   37MOL0     H 4965  10.675   5.029   2.472  2.2993 -0.9490 -1.7999
   37MOL0     H 4966  10.730   5.107   2.626  2.1581 -0.3277 -0.2307
   37MOL0     H 4967  10.930   5.183   2.511  0.1333 -0.8759 -0.3632
   37MOL0     H 4968  10.882   5.111   2.355 -3.5711  0.7192 -0.8472
   37MOL0     H 4969  10.940   4.944   2.600  2.1831 -0.2665 -0.3177
   37MOL0     H 4970  10.855   4.899   2.442 -1.5553  1.7789 -0.3095
   37MOL0     H 4971  11.084   4.968   2.329  0.2552  0.2824 -0.9854
   37MOL0     H 4972  11.099   4.827   2.434  1.8357  1.1826  2.2463
   37MOL0     H 4973  11.148   5.105   2.528  0.7558 -1.0730  0.0192
   37MOL0     H 4974  11.165   4.969   2.627  0.5581  2.8725  0.9202
   37MOL0     H 4975  10.389   5.494   2.851 -0.2925 -0.8912  0.0241
   37MOL0     H 4976  10.255   5.706   2.921  4.1956  4.6692 -1.3722
   37MOL0     H 4977  10.000   6.022   2.599  0.4459 -2.4005  1.9656
   37MOL0     H 4978   9.986   6.253   2.506 -0.2177 -0.7058  0.1875
   37MOL0     H 4979  10.235   6.044   2.448  1.6762 -0.4942 -2.1229
   37MOL0     H 4980  10.216   6.102   2.228 -0.8219  1.3163  0.2234
   37MOL0     H 4981  10.230   6.273   1.908  2.7525  0.0615  2.2146
   37MOL0     H 4982  10.165   6.249   1.680  1.2078 -0.0134 -2.1226
   37MOL0     H 4983  10.142   6.070   1.346  1.6369 -0.9131  0.0053
   37MOL0     H 4984  10.124   6.187   1.472  1.2433 -0.6923  5.5931
   37MOL0     H 4985  10.036   5.990   1.624  1.4800 -0.2260 -0.4641
   37MOL0     H 4986  10.013   5.898   1.479 -2.9462 -0.4051 -0.3582
   37MOL0     H 4987   9.869   6.142   1.532  0.4853 -0.0536  0.7996
   37MOL0     H 4988   9.810   5.980   1.527 -3.0178  2.1987 -0.3598
   37MOL0     H 4989   9.751   6.097   1.334  2.1802  2.6874 -2.3147
   37MOL0     H 4990   9.917   6.105   1.269 -2.1166  4.2657 -0.3613
   37MOL0     H 4991   9.800   5.723   1.178  2.6059  0.9540 -0.5944
   37MOL0     H 4992  10.470   5.958   1.630  0.3484  0.2575  0.1906
   37MOL0     H 4993  10.629   5.927   1.771 -1.4337 -1.4121  0.9960
   37MOL0     H 4994  10.651   6.021   1.917 -0.4265  2.2955 -0.6891
   37MOL0     H 4995  10.542   5.871   1.909  2.9093 -1.8260  0.5273
   38MOL0     O 4996   0.969   8.128   3.250  0.1219 -0.1170 -0.0869
   38MOL0     C 4997   0.944   8.029   3.185  0.8481 -0.3580  0.1890
   38MOL0     O 4998   0.877   7.924   3.224  0.0365  0.2725 -0.0136
   38MOL0     C 4999   0.807   7.933   3.336  0.3046 -1.1982 -0.0796
   38MOL0     C 5000   0.689   8.005   3.348  0.1996 -0.6843 -0.2502
   38MOL0     C 5001   0.626   8.005   3.474 -0.5684  0.4979 -0.0686
   38MOL0     C 5002   0.667   7.920   3.576 -0.7237  0.1326 -0.0060
   38MOL0     O 5003   0.587   7.930   3.684  0.1267 -0.5403  0.6317
   38MOL0     C 5004   0.598   7.846   3.790  1.1412 -0.7531  0.5555
   38MOL0     C 5005   0.477   7.862   3.877  0.4754  0.2319 -0.3996
   38MOL0     C 5006   0.352   7.810   3.797 -0.3400 -0.7184 -1.0673
   38MOL0     C 5007   0.242   7.825   3.903 -0.3149  0.6224  0.2984
   38MOL0     C 5008   0.106   7.770   3.849 -0.3078 -1.2536 -0.7272
   38MOL0     C 5009   0.002   7.802   3.953 -0.6830 -0.2716 -0.0226
   38MOL0     C 5010  -0.113   7.712   3.925 -0.3992  0.1169  0.5169
   38MOL0     C 5011  -0.254   7.782   3.934 -0.9322  1.0244  0.4411
   38MOL0     N 5012  -0.381   7.712   3.907  0.3087  0.5650 -1.1821
   38MOL0     C 5013  -0.461   7.721   3.795 -0.0302 -0.0946 -0.9512
   38MOL0     C 5014  -0.556   7.629   3.809 -0.5312  0.9797 -0.2307
   38MOL0     C 5015  -0.646   7.598   3.690 -0.4854 -0.2950  0.1546
   38MOL0     C 5016  -0.783   7.636   3.749  0.4874  0.2510  0.0683
   38MOL0     C 5017  -0.813   7.795   3.747 -0.0170  0.1925  0.4139
   38MOL0     C 5018  -0.833   7.830   3.601 -0.2284  0.8151  0.5564
   38MOL0     O 5019  -0.829   7.975   3.599  0.5001 -0.4340 -0.3839
   38MOL0     C 5020  -0.748   8.040   3.510 -0.6971  0.3330  0.4860
   38MOL0     C 5021  -0.803   8.139   3.431 -0.3995 -0.0414  0.5544
   38MOL0     C 5022  -0.727   8.214   3.349 -0.7103 -0.1361  0.4517
   38MOL0     C 5023  -0.591   8.180   3.337  0.4637  0.4492  0.0186
   38MOL0     C 5024  -0.495   8.237   3.233 -0.2544 -0.3579  0.2039
   38MOL0     O 5025  -0.523   8.354   3.183  0.1433 -0.7415 -0.3932
   38MOL0     C 5026  -0.476   8.404   3.063 -0.2663  0.2527 -0.3936
   38MOL0     C 5027  -0.499   8.543   3.058  0.2394  0.3135  0.2564
   38MOL0     C 5028  -0.475   8.600   2.936 -0.6632  0.6694  0.0869
   38MOL0     C 5029  -0.422   8.525   2.822 -0.8443 -0.4079 -0.2679
   38MOL0     O 5030  -0.396   8.576   2.696  0.5994  0.0276 -0.2377
   38MOL0     C 5031  -0.467   8.697   2.654 -0.3226 -0.4719 -0.4363
   38MOL0     C 5032  -0.418   8.737   2.516  0.0323 -0.5614  0.2144
   38MOL0     C 5033  -0.464   8.643   2.404 -0.0200 -0.2255  0.0773
   38MOL0     C 5034  -0.400   8.664   2.266 -0.9360 -0.2320 -0.7612
   38MOL0     C 5035  -0.438   8.552   2.170 -0.1187  0.2330 -0.8222
   38MOL0     C 5036  -0.406   8.578   2.033 -0.3930  0.3100  1.0883
   38MOL0     C 5037  -0.266   8.602   1.994  0.0806  0.2250 -0.4235
   38MOL0     C 5038  -0.232   8.644   1.855 -1.2723  0.4508  0.4164
   38MOL0    Cl 5039  -0.299   8.803   1.808 -0.2956  0.0256  0.1432
   38MOL0     C 5040  -0.389   8.392   2.843 -1.3096  0.3083  0.2385
   38MOL0     C 5041  -0.406   8.330   2.960 -0.4854 -0.5190 -0.7539
   38MOL0     O 5042  -0.398   8.170   3.203 -0.3086  0.5917 -0.5395
   38MOL0     C 5043  -0.535   8.091   3.427  0.0253 -0.2763 -0.2190
   38MOL0     C 5044  -0.613   8.031   3.521  0.7520 -0.6325 -1.1468
   38MOL0     N 5045  -0.542   7.575   3.934 -0.0195  0.7878 -0.3643
   38MOL0     N 5046  -0.440   7.623   3.992 -0.7960  0.8914 -0.4155
   38MOL0     C 5047   0.768   7.821   3.553 -0.2004 -0.4604  0.4951
   38MOL0     C 5048   0.838   7.834   3.429  0.5246  0.7138  0.1124
   38MOL0     C 5049   1.005   8.015   3.049  0.7025  0.1866 -0.6290
   38MOL0     C 5050   0.921   7.984   2.940  0.3124  0.6757  0.2490
   38MOL0     C 5051   0.955   7.983   2.804 -0.9029 -0.6132 -0.2507
   38MOL0     C 5052   1.089   8.015   2.778 -0.1004 -1.1875 -0.8551
   38MOL0     O 5053   1.138   8.061   2.656  0.3988 -0.5712  0.3505
   38MOL0     C 5054   1.037   8.095   2.549  0.2007  0.4289  0.1956
   38MOL0     C 5055   1.097   8.154   2.426 -0.2220  0.7113 -0.2978
   38MOL0     C 5056   0.987   8.180   2.319  0.7328 -0.8025 -0.7270
   38MOL0     C 5057   1.042   8.241   2.188  0.2612  0.2177 -0.0005
   38MOL0     C 5058   1.144   8.161   2.127 -0.1206  0.5997 -0.1849
   38MOL0     C 5059   1.223   8.081   2.082 -0.2021  0.1050 -0.6658
   38MOL0     C 5060   1.173   8.047   2.884 -0.1426  0.1817  0.0640
   38MOL0     C 5061   1.138   8.056   3.018  0.2703  0.0664 -0.6711
   38MOL0     C 5062   1.233   8.091   3.126 -0.9215  0.9994  0.2251
   38MOL0     H 5063   0.665   8.078   3.271  1.4289  1.7851  1.5633
   38MOL0     H 5064   0.539   8.069   3.491  1.3858  2.7242  2.1819
   38MOL0     H 5065   0.609   7.743   3.753  2.2734 -0.1235 -0.9748
   38MOL0     H 5066   0.684   7.869   3.853  0.4412  1.5245  0.7518
   38MOL0     H 5067   0.477   7.965   3.913  1.0497 -0.5465  2.0765
   38MOL0     H 5068   0.491   7.805   3.970  1.3686  1.6152  0.3644
   38MOL0     H 5069   0.359   7.705   3.765 -0.3865 -0.1445 -3.0959
   38MOL0     H 5070   0.331   7.869   3.707 -0.7848  0.4379 -0.2232
   38MOL0     H 5071   0.264   7.761   3.989 -0.1501 -0.1405 -0.3035
   38MOL0     H 5072   0.228   7.930   3.931  1.6248  1.1338 -0.5374
   38MOL0     H 5073   0.074   7.816   3.755  3.1229 -1.0233 -1.9529
   38MOL0     H 5074   0.123   7.663   3.832  0.5145 -1.3260  0.4261
   38MOL0     H 5075   0.048   7.782   4.051 -0.0099 -2.2974 -0.6977
   38MOL0     H 5076  -0.023   7.908   3.950  2.2858  0.5053 -0.4656
   38MOL0     H 5077  -0.109   7.627   3.994  1.7024 -2.8906 -2.9350
   38MOL0     H 5078  -0.096   7.674   3.824 -0.3931 -2.4317  1.3885
   38MOL0     H 5079  -0.261   7.820   4.037 -1.8905 -0.2998  0.8917
   38MOL0     H 5080  -0.258   7.862   3.860  1.7836  4.0849  3.2640
   38MOL0     H 5081  -0.440   7.794   3.717 -0.4196  0.1561 -0.8229
   38MOL0     H 5082  -0.629   7.660   3.601 -1.9866  0.0063  0.0452
   38MOL0     H 5083  -0.649   7.493   3.659 -2.0125 -1.0707  2.6469
   38MOL0     H 5084  -0.860   7.596   3.682 -0.1637  1.9919 -0.2759
   38MOL0     H 5085  -0.811   7.584   3.841 -2.8406  0.1810 -0.8701
   38MOL0     H 5086  -0.741   7.864   3.791 -1.2585  2.0413 -0.3666
   38MOL0     H 5087  -0.902   7.805   3.809 -0.0599 -0.1699  0.4160
   38MOL0     H 5088  -0.932   7.797   3.567  0.0428  0.8781 -0.3144
   38MOL0     H 5089  -0.756   7.796   3.531  0.1140 -0.5170  1.5488
   38MOL0     H 5090  -0.911   8.143   3.442 -0.6409 -1.3942 -0.9131
   38MOL0     H 5091  -0.776   8.290   3.290  0.6290  2.2183  2.2176
   38MOL0     H 5092  -0.552   8.588   3.141  0.6156 -3.1671  2.6362
   38MOL0     H 5093  -0.494   8.707   2.925 -2.8699  0.2380 -0.7063
   38MOL0     H 5094  -0.571   8.666   2.642 -1.4434  2.2669  1.3021
   38MOL0     H 5095  -0.471   8.779   2.726  0.4503 -0.2134 -0.6788
   38MOL0     H 5096  -0.451   8.838   2.490  0.2838 -0.5760 -0.1839
   38MOL0     H 5097  -0.309   8.735   2.518  0.1546  0.2814 -2.2080
   38MOL0     H 5098  -0.448   8.539   2.432 -0.9459 -0.9198 -1.8501
   38MOL0     H 5099  -0.573   8.650   2.395  0.0973 -0.2569 -1.5870
   38MOL0     H 5100  -0.291   8.666   2.276 -0.6650  4.0977 -2.1641
   38MOL0     H 5101  -0.428   8.764   2.230  2.4522  0.8453 -0.8468
   38MOL0     H 5102  -0.546   8.544   2.185 -0.1649  2.5627  0.6631
   38MOL0     H 5103  -0.385   8.463   2.205 -0.7744 -0.1522 -0.7882
   38MOL0     H 5104  -0.434   8.496   1.966  1.3575  0.0354  0.6473
   38MOL0     H 5105  -0.468   8.662   2.000 -2.4674 -0.9834  1.5216
   38MOL0     H 5106  -0.214   8.506   2.005  0.5779  0.4969 -0.3980
   38MOL0     H 5107  -0.224   8.668   2.071  1.2223 -0.4954 -0.4047
   38MOL0     H 5108  -0.123   8.646   1.853 -1.0636 -3.1551  1.4072
   38MOL0     H 5109  -0.266   8.568   1.784  0.6703 -0.4007  0.3578
   38MOL0     H 5110  -0.323   8.350   2.767 -1.1538  0.2609  0.3974
   38MOL0     H 5111  -0.369   8.230   2.978 -0.9917 -0.6703 -0.5348
   38MOL0     H 5112  -0.427   8.076   3.429  0.2984  1.4835 -0.1763
   38MOL0     H 5113  -0.562   7.956   3.581  0.9298 -0.2702 -0.8369
   38MOL0     H 5114   0.788   7.737   3.619  1.4365 -2.1487 -1.9842
   38MOL0     H 5115   0.912   7.762   3.397 -0.3389 -0.2503  0.2425
   38MOL0     H 5116   0.820   7.959   2.970  1.0864  0.1052  2.5282
   38MOL0     H 5117   0.879   7.965   2.729 -2.6488  2.1728  0.6861
   38MOL0     H 5118   0.972   8.168   2.599  1.4370 -0.4317  3.2571
   38MOL0     H 5119   0.986   8.001   2.524  1.2962  0.1377 -1.0135
   38MOL0     H 5120   1.180   8.090   2.393  1.4609  2.9216 -0.5884
   38MOL0     H 5121   1.140   8.253   2.440  2.3822 -0.1186 -1.7273
   38MOL0     H 5122   0.926   8.254   2.372 -0.3452 -0.0260 -2.9074
   38MOL0     H 5123   0.926   8.092   2.298 -0.3075 -0.6472  1.3849
   38MOL0     H 5124   0.957   8.257   2.121 -1.3690 -1.4965  1.5500
   38MOL0     H 5125   1.083   8.341   2.204  3.4931 -0.5631 -2.3048
   38MOL0     H 5126   1.283   7.994   2.063  0.0396  0.2450 -0.5416
   38MOL0     H 5127   1.271   8.073   2.847 -0.7429  1.1661 -0.8960
   38MOL0     H 5128   1.220   8.192   3.165  0.8362  0.6895  1.7711
   38MOL0     H 5129   1.213   8.024   3.209 -1.8299  0.0299 -0.7410
   38MOL0     H 5130   1.336   8.064   3.100  0.3104  0.7513  4.5779
   39MOL0     O 5131   6.002   2.474   2.573  0.3671  0.2625 -0.8366
   39MOL0     C 5132   5.978   2.356   2.545  0.5641  0.6555 -1.1099
   39MOL0     O 5133   6.057   2.249   2.565  0.4164 -0.1965  0.0277
   39MOL0     C 5134   6.186   2.265   2.611 -0.4754 -0.2222  1.6068
   39MOL0     C 5135   6.295   2.216   2.537 -0.3589 -0.2790 -0.0395
   39MOL0     C 5136   6.428   2.251   2.575  0.1668 -0.4112  0.5537
   39MOL0     C 5137   6.456   2.333   2.681  0.0854 -0.4396  0.5659
   39MOL0     O 5138   6.588   2.354   2.713 -0.1549  0.3277  0.5641
   39MOL0     C 5139   6.621   2.458   2.811 -0.3855  0.1341  0.8468
   39MOL0     C 5140   6.780   2.456   2.811 -0.0594  0.2173  0.5176
   39MOL0     C 5141   6.848   2.491   2.674  0.1183  0.4471 -0.1169
   39MOL0     C 5142   6.998   2.477   2.675  0.9193  0.7300 -0.3447
   39MOL0     C 5143   7.074   2.501   2.806  0.0753 -0.5551 -0.1969
   39MOL0     C 5144   7.226   2.461   2.779  0.0054 -0.6023  0.5703
   39MOL0     C 5145   7.318   2.505   2.901  0.1454  0.5490 -1.1127
   39MOL0     C 5146   7.302   2.660   2.912  0.1947 -0.3116  0.3161
   39MOL0     N 5147   7.419   2.710   2.984 -0.6384  0.0871 -0.1790
   39MOL0     C 5148   7.419   2.755   3.115 -0.3817 -0.4116  0.2904
   39MOL0     C 5149   7.534   2.819   3.120  0.5986  0.5675  0.5421
   39MOL0     C 5150   7.615   2.894   3.223  0.0372 -0.6051 -0.3316
   39MOL0     C 5151   7.546   3.032   3.261 -0.1383  0.4515  0.1904
   39MOL0     C 5152   7.637   3.111   3.357  0.8617 -0.4919 -0.4437
   39MOL0     C 5153   7.751   3.179   3.289  0.0609 -0.7302 -0.6112
   39MOL0     O 5154   7.822   3.272   3.376 -0.1971  0.4389  0.4748
   39MOL0     C 5155   7.916   3.336   3.305 -0.4568  0.2143  0.0892
   39MOL0     C 5156   7.922   3.467   3.333  0.0145  1.7331  0.0861
   39MOL0     C 5157   8.011   3.556   3.262 -0.4706 -0.0466 -0.6793
   39MOL0     C 5158   8.102   3.501   3.173 -0.7737 -0.4009  0.2487
   39MOL0     C 5159   8.176   3.595   3.086  0.1713  0.4047 -0.7043
   39MOL0     O 5160   8.289   3.545   3.030  0.2867 -0.1489  0.3231
   39MOL0     C 5161   8.352   3.604   2.925  0.2796 -0.1394  0.8679
   39MOL0     C 5162   8.490   3.584   2.920 -0.5472 -1.0076  0.1580
   39MOL0     C 5163   8.570   3.636   2.815 -0.2185  0.2010  0.4407
   39MOL0     C 5164   8.515   3.707   2.711 -0.3068  0.2589  0.1727
   39MOL0     O 5165   8.606   3.730   2.617  0.1412  0.2787 -0.6965
   39MOL0     C 5166   8.547   3.754   2.494  0.0111 -0.1428  0.1805
   39MOL0     C 5167   8.650   3.730   2.383  0.4414 -0.3913  0.4627
   39MOL0     C 5168   8.757   3.844   2.396  0.6744 -0.7772 -1.0789
   39MOL0     C 5169   8.856   3.854   2.292  0.8883 -0.6216 -0.4771
   39MOL0     C 5170   8.956   3.966   2.322  0.4884 -0.2163  0.3439
   39MOL0     C 5171   9.099   3.920   2.270 -0.0927  0.0330  0.1861
   39MOL0     C 5172   9.193   4.045   2.274  0.4293  0.4596  0.3495
   39MOL0     C 5173   9.334   4.005   2.253 -0.6656  0.0936  0.0502
   39MOL0    Cl 5174   9.448   4.140   2.263 -0.4896  0.1927 -0.1515
   39MOL0     C 5175   8.371   3.740   2.727 -0.1025  0.6496  0.5220
   39MOL0     C 5176   8.296   3.689   2.833 -0.1256  0.7871 -0.1316
   39MOL0     O 5177   8.120   3.705   3.066  0.2379  0.5587  0.1193
   39MOL0     C 5178   8.101   3.367   3.154  0.7681  0.3119 -0.3704
   39MOL0     C 5179   7.999   3.282   3.208  0.9320 -1.5699  0.6661
   39MOL0     N 5180   7.603   2.815   2.995  0.0532 -0.3728 -1.2038
   39MOL0     N 5181   7.527   2.751   2.911  0.3782  0.1459 -0.3955
   39MOL0     C 5182   6.345   2.373   2.765 -0.2722 -0.8180  0.3407
   39MOL0     C 5183   6.210   2.338   2.730  0.1597 -1.1797 -0.5806
   39MOL0     C 5184   5.844   2.318   2.502  0.0326  0.4613  0.3156
   39MOL0     C 5185   5.793   2.190   2.542  0.0139  1.1369  0.3555
   39MOL0     C 5186   5.663   2.144   2.517 -0.6124  0.1773  0.1216
   39MOL0     C 5187   5.573   2.229   2.437 -0.3418  0.3701  0.0901
   39MOL0     O 5188   5.446   2.199   2.407  0.2210  0.5399 -0.0137
   39MOL0     C 5189   5.355   2.215   2.516  0.0691 -0.2007 -0.4760
   39MOL0     C 5190   5.318   2.358   2.565  0.5560 -0.2684  0.2466
   39MOL0     C 5191   5.280   2.449   2.445 -0.8113 -0.1978  0.2146
   39MOL0     C 5192   5.169   2.398   2.356 -0.5012  0.5353  0.1524
   39MOL0     C 5193   5.051   2.372   2.438  0.6786  0.2774  0.8417
   39MOL0     C 5194   4.963   2.336   2.502 -0.3730 -0.2100 -0.1694
   39MOL0     C 5195   5.620   2.357   2.397 -0.5242  0.4630 -0.4617
   39MOL0     C 5196   5.751   2.395   2.425 -0.9679 -0.0376 -1.3553
   39MOL0     C 5197   5.800   2.535   2.375  0.9799  0.1965  1.0981
   39MOL0     H 5198   6.274   2.155   2.451  0.0162 -2.1982  1.1783
   39MOL0     H 5199   6.507   2.218   2.509  0.0715 -0.7223  0.5923
   39MOL0     H 5200   6.587   2.558   2.784  1.5603  0.8579  0.9108
   39MOL0     H 5201   6.599   2.434   2.916  4.8687 -0.9948  1.9888
   39MOL0     H 5202   6.812   2.353   2.833  3.4776  1.1780  0.3899
   39MOL0     H 5203   6.821   2.515   2.893 -0.0380  3.0080 -1.3834
   39MOL0     H 5204   6.825   2.597   2.663 -0.8929  0.0835 -2.0364
   39MOL0     H 5205   6.800   2.424   2.601 -0.4942  1.1364 -0.3584
   39MOL0     H 5206   7.022   2.374   2.645 -2.1961 -1.7014  4.2974
   39MOL0     H 5207   7.038   2.537   2.593  0.7834 -1.6383 -2.2593
   39MOL0     H 5208   7.056   2.603   2.842  1.1569  0.0960 -1.3828
   39MOL0     H 5209   7.043   2.435   2.887  2.7300  0.6707  1.9684
   39MOL0     H 5210   7.249   2.354   2.772  3.2785  0.0307 -0.1574
   39MOL0     H 5211   7.259   2.505   2.684 -0.3073 -1.1979  0.1764
   39MOL0     H 5212   7.422   2.485   2.876  1.1664 -2.7013  4.1460
   39MOL0     H 5213   7.289   2.451   2.992  2.6033 -1.6290 -1.5085
   39MOL0     H 5214   7.304   2.707   2.813  2.3026 -2.1126 -0.5737
   39MOL0     H 5215   7.208   2.682   2.965  1.7221 -0.2784  3.2616
   39MOL0     H 5216   7.341   2.752   3.190 -0.3289 -0.3451  0.3479
   39MOL0     H 5217   7.630   2.830   3.311 -3.4715 -0.7278  0.3191
   39MOL0     H 5218   7.718   2.911   3.190 -1.0013  2.2146 -2.5121
   39MOL0     H 5219   7.522   3.089   3.171 -2.1251  1.1307  1.1053
   39MOL0     H 5220   7.452   3.020   3.315  0.5822 -1.9038  1.0655
   39MOL0     H 5221   7.676   3.052   3.440  2.5324 -1.2435 -1.7018
   39MOL0     H 5222   7.569   3.186   3.397 -0.0657 -1.8527  0.5943
   39MOL0     H 5223   7.707   3.240   3.209 -0.2229 -0.1830 -0.0422
   39MOL0     H 5224   7.813   3.102   3.241  1.9093 -1.0034  1.9924
   39MOL0     H 5225   7.853   3.507   3.408  1.5417  2.1747  1.3200
   39MOL0     H 5226   8.003   3.663   3.280  1.9421 -0.1623  1.7648
   39MOL0     H 5227   8.522   3.529   3.008 -3.1729  0.6051  2.2533
   39MOL0     H 5228   8.671   3.597   2.802  0.6622  0.9941  3.8378
   39MOL0     H 5229   8.468   3.679   2.481 -0.2935 -0.7053  3.9998
   39MOL0     H 5230   8.505   3.854   2.482  0.2934 -0.2445 -2.0346
   39MOL0     H 5231   8.702   3.634   2.383  1.0924 -0.0429  0.1687
   39MOL0     H 5232   8.609   3.746   2.283 -0.4297  0.5290  0.9514
   39MOL0     H 5233   8.711   3.940   2.419  4.0782  0.5228  1.1333
   39MOL0     H 5234   8.821   3.817   2.481  1.4385 -0.4976 -1.5622
   39MOL0     H 5235   8.807   3.888   2.200  1.1385 -0.7466 -0.6584
   39MOL0     H 5236   8.906   3.757   2.279  1.7208 -0.2661 -0.0157
   39MOL0     H 5237   8.973   3.968   2.430  0.6932 -1.0833  0.3290
   39MOL0     H 5238   8.911   4.059   2.287 -1.9970 -1.4121  0.1179
   39MOL0     H 5239   9.131   3.837   2.332  2.8393  1.6351  1.0002
   39MOL0     H 5240   9.087   3.881   2.168 -0.1802  4.6490 -1.8582
   39MOL0     H 5241   9.186   4.101   2.368  2.3361  3.8784 -1.3524
   39MOL0     H 5242   9.176   4.109   2.187  2.8876  0.7658  0.0348
   39MOL0     H 5243   9.357   3.921   2.319  0.6810  0.9889  0.7640
   39MOL0     H 5244   9.342   3.968   2.150  0.1039  1.4539 -0.4126
   39MOL0     H 5245   8.329   3.809   2.654  3.1188 -0.8453 -3.1395
   39MOL0     H 5246   8.187   3.693   2.836 -0.2518 -1.5413  1.6419
   39MOL0     H 5247   8.162   3.329   3.073  2.9820  2.3409  0.2239
   39MOL0     H 5248   7.988   3.189   3.153 -2.7362 -1.2406  0.6450
   39MOL0     H 5249   6.361   2.438   2.850 -0.4877  0.5911 -0.6656
   39MOL0     H 5250   6.129   2.379   2.788  0.6080  2.3967 -2.2032
   39MOL0     H 5251   5.841   2.103   2.585 -0.8866 -0.0501 -0.9442
   39MOL0     H 5252   5.627   2.047   2.550 -1.3002 -0.3257 -1.9641
   39MOL0     H 5253   5.397   2.159   2.600  3.1948  3.0827  0.4254
   39MOL0     H 5254   5.259   2.170   2.490  1.5068 -1.7105 -3.7215
   39MOL0     H 5255   5.386   2.407   2.635  0.4244 -1.5086  1.2775
   39MOL0     H 5256   5.223   2.349   2.621 -2.2057  1.2306 -3.7543
   39MOL0     H 5257   5.369   2.466   2.384  0.1224 -1.2125  1.2412
   39MOL0     H 5258   5.260   2.552   2.480  1.4139  0.0488  0.9072
   39MOL0     H 5259   5.145   2.461   2.271 -3.2067  2.5383  2.2267
   39MOL0     H 5260   5.185   2.293   2.328 -3.8960 -0.4173  1.2616
   39MOL0     H 5261   4.882   2.298   2.561 -1.0156  1.1229 -0.1427
   39MOL0     H 5262   5.553   2.415   2.334 -1.2633  0.7538  0.5619
   39MOL0     H 5263   5.808   2.609   2.455 -0.7655 -0.5083  1.9894
   39MOL0     H 5264   5.894   2.524   2.321  0.3156  0.7287 -0.1967
   39MOL0     H 5265   5.727   2.580   2.307  0.7941  0.8327  1.6994
   40MOL0     O 5266   9.557  10.224   1.679 -0.1293 -0.1851 -0.1836
   40MOL0     C 5267   9.513  10.117   1.629  0.0301 -0.2578  0.6236
   40MOL0     O 5268   9.565   9.995   1.646  0.0754  0.1101 -0.1962
   40MOL0     C 5269   9.642   9.979   1.754 -0.0913 -0.8342  0.4608
   40MOL0     C 5270   9.783   9.948   1.742  0.6743  0.4788  0.2552
   40MOL0     C 5271   9.852   9.906   1.846  0.0234  0.0680 -0.2863
   40MOL0     C 5272   9.791   9.897   1.972 -0.1148 -0.0893 -0.1146
   40MOL0     O 5273   9.880   9.871   2.075 -0.1968 -0.3638 -0.3495
   40MOL0     C 5274   9.823   9.841   2.204  0.9872  0.1675 -0.4833
   40MOL0     C 5275   9.903   9.770   2.311  0.3061  0.4529  0.1547
   40MOL0     C 5276  10.046   9.841   2.328  0.2142  0.3596 -0.1139
   40MOL0     C 5277  10.160   9.741   2.337 -0.4671 -0.0677  0.3192
   40MOL0     C 5278  10.292   9.814   2.393 -0.0607  0.0281 -0.5143
   40MOL0     C 5279  10.417   9.729   2.355  1.5204  0.0541 -0.3042
   40MOL0     C 5280  10.542   9.807   2.387 -0.0678  0.2048 -0.0406
   40MOL0     C 5281  10.672   9.733   2.364  0.9066  0.3374 -0.6134
   40MOL0     N 5282  10.786   9.808   2.420 -0.3584  0.7832 -0.1186
   40MOL0     C 5283  10.853   9.906   2.344  0.8903  0.5228 -0.0186
   40MOL0     C 5284  10.974   9.921   2.402  0.0723 -0.2067  0.0217
   40MOL0     C 5285  11.084   9.993   2.337 -0.0571 -0.0996  0.2936
   40MOL0     C 5286  11.228   9.961   2.384 -0.8776  0.0623  0.0107
   40MOL0     C 5287  11.330  10.017   2.292 -0.1733  0.4196 -0.5817
   40MOL0     C 5288  11.470   9.960   2.327  0.1192  0.4064  1.0110
   40MOL0     O 5289  11.476   9.817   2.301  0.8599  0.1114 -0.0450
   40MOL0     C 5290  11.594   9.763   2.323 -1.0680 -0.2031 -0.6659
   40MOL0     C 5291  11.683   9.796   2.430  0.8526  0.6752  0.9071
   40MOL0     C 5292  11.808   9.736   2.430 -0.3246  0.2728  0.0176
   40MOL0     C 5293  11.843   9.635   2.344 -0.8678  0.4128  1.0746
   40MOL0     C 5294  11.983   9.581   2.341 -0.3398  0.2205 -0.7180
   40MOL0     O 5295  12.004   9.448   2.295  0.5725  0.0642  0.2825
   40MOL0     C 5296  12.125   9.388   2.291 -0.1789  0.2678  0.0812
   40MOL0     C 5297  12.121   9.255   2.250 -0.7719  0.0848  0.2358
   40MOL0     C 5298  12.234   9.182   2.231 -0.6654  0.6046 -0.6712
   40MOL0     C 5299  12.361   9.227   2.260 -0.3616  0.4478  0.5618
   40MOL0     O 5300  12.482   9.157   2.234  0.4280  0.9039 -0.6958
   40MOL0     C 5301  12.482   9.031   2.166  0.1813 -0.1077  0.5852
   40MOL0     C 5302  12.619   8.991   2.122 -0.2339 -0.0377 -0.3281
   40MOL0     C 5303  12.604   8.876   2.031 -0.1244  0.6444  0.4339
   40MOL0     C 5304  12.674   8.750   2.088  0.3312  0.4825 -0.5923
   40MOL0     C 5305  12.706   8.644   1.984  0.6191 -0.0952 -1.1336
   40MOL0     C 5306  12.820   8.553   2.035  0.1752 -0.1071 -0.1211
   40MOL0     C 5307  12.856   8.450   1.930 -0.6112  0.2103 -0.1895
   40MOL0     C 5308  13.003   8.409   1.934 -1.2863 -0.4539 -0.0645
   40MOL0    Cl 5309  13.051   8.322   2.094 -0.2368  0.0061  0.6131
   40MOL0     C 5310  12.374   9.364   2.299  0.5993  0.5494 -1.0032
   40MOL0     C 5311  12.253   9.437   2.320 -0.4923 -0.0944  0.3276
   40MOL0     O 5312  12.075   9.667   2.372 -0.2682  0.4547 -0.1131
   40MOL0     C 5313  11.746   9.587   2.244 -0.2046  0.9260 -0.4424
   40MOL0     C 5314  11.622   9.652   2.240  0.6203  0.0154 -0.2320
   40MOL0     N 5315  10.983   9.841   2.519  0.4942  0.9313  0.5426
   40MOL0     N 5316  10.874   9.769   2.526 -0.2260 -0.3311  0.5080
   40MOL0     C 5317   9.659   9.926   1.984  0.3943 -0.0239 -0.2529
   40MOL0     C 5318   9.578   9.973   1.876  0.6979  1.1976 -0.3178
   40MOL0     C 5319   9.393  10.129   1.546  0.3872 -0.6790  0.3181
   40MOL0     C 5320   9.290  10.047   1.576  0.3597  0.8150 -0.0019
   40MOL0     C 5321   9.174  10.037   1.499 -0.6117  0.7232  0.2104
   40MOL0     C 5322   9.159  10.114   1.394 -0.6167 -0.2435 -0.1257
   40MOL0     O 5323   9.048  10.116   1.312 -0.6155 -0.3665 -0.2262
   40MOL0     C 5324   8.940  10.215   1.341 -0.3786  0.2444 -0.1432
   40MOL0     C 5325   8.873  10.195   1.480  0.7614  0.1032 -0.0642
   40MOL0     C 5326   8.807  10.058   1.488 -0.0195 -0.5326  0.3642
   40MOL0     C 5327   8.715  10.033   1.612  0.4700  0.2135  0.0810
   40MOL0     C 5328   8.787  10.047   1.747 -0.3799 -0.4137 -0.9223
   40MOL0     C 5329   8.852  10.046   1.844 -0.3717 -0.1982  0.1249
   40MOL0     C 5330   9.254  10.218   1.372 -0.0890 -0.1702 -0.1126
   40MOL0     C 5331   9.379  10.227   1.440  0.8268  1.5494 -0.1375
   40MOL0     C 5332   9.496  10.316   1.389  0.5937  0.0589  0.3065
   40MOL0     H 5333   9.820   9.963   1.641 -1.8668 -0.4663 -0.8933
   40MOL0     H 5334   9.959   9.901   1.829  0.2616 -0.9608  1.3442
   40MOL0     H 5335   9.797   9.938   2.247 -1.2463 -0.0803 -1.1714
   40MOL0     H 5336   9.737   9.774   2.196  1.2683 -0.3461  0.6262
   40MOL0     H 5337   9.935   9.674   2.268  1.3590 -0.2934  2.4145
   40MOL0     H 5338   9.850   9.740   2.402  2.9561  0.5690  1.8526
   40MOL0     H 5339  10.040   9.902   2.419 -1.8421 -0.0964  0.1201
   40MOL0     H 5340  10.074   9.913   2.251  3.1214 -0.6581 -0.1050
   40MOL0     H 5341  10.134   9.665   2.411  0.1230  1.2020  1.8987
   40MOL0     H 5342  10.168   9.703   2.235  0.1421 -2.0307  1.0626
   40MOL0     H 5343  10.299   9.919   2.364 -0.6207  0.2753  0.2096
   40MOL0     H 5344  10.284   9.811   2.502 -2.5041  0.3850 -0.6219
   40MOL0     H 5345  10.403   9.633   2.405 -0.9826  0.9772  0.9411
   40MOL0     H 5346  10.420   9.698   2.250  0.3473 -0.0368 -0.3309
   40MOL0     H 5347  10.534   9.856   2.485 -0.2503  0.4966 -0.2017
   40MOL0     H 5348  10.537   9.894   2.321 -1.8834 -0.5582 -0.9893
   40MOL0     H 5349  10.665   9.633   2.409 -0.2170  0.0841 -1.3178
   40MOL0     H 5350  10.679   9.705   2.259  0.6975 -0.9288 -0.3070
   40MOL0     H 5351  10.829   9.955   2.250  1.8628  2.3644  0.6577
   40MOL0     H 5352  11.084   9.975   2.229 -1.5806 -1.8406  0.5474
   40MOL0     H 5353  11.067  10.098   2.363 -1.1931 -0.8612  3.0098
   40MOL0     H 5354  11.237  10.002   2.485  0.5219 -1.3244  0.4773
   40MOL0     H 5355  11.234   9.852   2.390 -1.0129  0.0472 -0.1102
   40MOL0     H 5356  11.328  10.126   2.300 -1.2084  0.4804 -1.2982
   40MOL0     H 5357  11.312   9.994   2.186 -1.7926  2.5336 -0.8428
   40MOL0     H 5358  11.501   9.981   2.430 -0.5956  0.1036  1.2937
   40MOL0     H 5359  11.541  10.021   2.270 -0.1717 -1.1219 -1.1474
   40MOL0     H 5360  11.658   9.870   2.505 -2.1032 -0.1682  0.8890
   40MOL0     H 5361  11.888   9.769   2.496 -0.3356 -0.0637  0.2020
   40MOL0     H 5362  12.032   9.194   2.250 -0.0637 -1.0568  2.4299
   40MOL0     H 5363  12.215   9.080   2.200 -1.7759 -0.2750  2.5300
   40MOL0     H 5364  12.441   8.949   2.226  0.3087 -1.2933 -0.8771
   40MOL0     H 5365  12.416   9.038   2.079  0.4908  3.2377  0.5004
   40MOL0     H 5366  12.671   9.077   2.079  1.4979 -1.7845 -1.9557
   40MOL0     H 5367  12.668   8.969   2.218  2.6824  2.3701 -1.0949
   40MOL0     H 5368  12.500   8.854   2.008  0.5157 -1.3798 -0.8820
   40MOL0     H 5369  12.642   8.890   1.929 -3.3707 -0.9252 -1.1471
   40MOL0     H 5370  12.610   8.710   2.167  1.8483  0.8422  0.8734
   40MOL0     H 5371  12.764   8.783   2.141  0.1438  1.7100 -1.0014
   40MOL0     H 5372  12.742   8.712   1.906  1.4453  1.9404  0.8963
   40MOL0     H 5373  12.620   8.590   1.944  2.5326 -1.5954 -3.5758
   40MOL0     H 5374  12.906   8.613   2.065 -0.0505 -0.8704  2.3272
   40MOL0     H 5375  12.780   8.493   2.118  1.7595  1.1101  1.5980
   40MOL0     H 5376  12.823   8.497   1.837  0.8143  1.0928 -0.2790
   40MOL0     H 5377  12.795   8.362   1.951 -0.3526  0.3796  1.4049
   40MOL0     H 5378  13.023   8.338   1.853  1.7017 -1.7138  1.5914
   40MOL0     H 5379  13.073   8.491   1.916 -3.1957  0.8795 -1.8687
   40MOL0     H 5380  12.457   9.428   2.329 -1.4486  3.7231 -1.6155
   40MOL0     H 5381  12.265   9.542   2.344  0.3346  0.1518 -1.0474
   40MOL0     H 5382  11.777   9.515   2.168  0.5886  2.8502 -2.0318
   40MOL0     H 5383  11.541   9.624   2.174  0.4846 -0.2574  0.0450
   40MOL0     H 5384   9.602   9.918   2.076 -1.7267  4.4405 -0.8922
   40MOL0     H 5385   9.473   9.999   1.883  0.6196  0.8200 -0.0457
   40MOL0     H 5386   9.300   9.972   1.654  1.7308 -2.0568 -2.7192
   40MOL0     H 5387   9.106   9.959   1.530 -1.3088  0.4865 -1.7654
   40MOL0     H 5388   8.872  10.195   1.258  0.3284  0.0457 -0.6873
   40MOL0     H 5389   8.973  10.319   1.331  1.2343 -0.0580  1.4471
   40MOL0     H 5390   8.780  10.252   1.486  0.9157  0.2018  4.3688
   40MOL0     H 5391   8.926  10.208   1.574 -0.6316 -1.3857  0.9751
   40MOL0     H 5392   8.886   9.983   1.496  0.1442 -0.2289  1.6865
   40MOL0     H 5393   8.744  10.033   1.401 -2.1214  0.0260  1.6497
   40MOL0     H 5394   8.639  10.109   1.595  1.2375  0.6301 -1.6228
   40MOL0     H 5395   8.661   9.938   1.610 -0.0074  0.4603  0.7395
   40MOL0     H 5396   8.910  10.057   1.934  0.7827 -0.8562 -0.5042
   40MOL0     H 5397   9.252  10.280   1.282  1.2056 -0.0891 -0.0950
   40MOL0     H 5398   9.459  10.369   1.301 -1.3497  0.2831  1.2165
   40MOL0     H 5399   9.523  10.398   1.457 -0.0404  0.5960 -0.0819
   40MOL0     H 5400   9.584  10.257   1.362  0.9931  0.4366  0.7495
   41MOL0     O 5401   7.723   1.338   2.045 -0.4417 -0.1139 -0.7482
   41MOL0     C 5402   7.655   1.274   1.963 -0.5366  0.2358 -0.2704
   41MOL0     O 5403   7.691   1.255   1.827 -0.4965 -0.6082  0.2040
   41MOL0     C 5404   7.817   1.303   1.794 -0.0975 -0.1344  0.8507
   41MOL0     C 5405   7.832   1.441   1.772 -0.4278  0.5079  0.3955
   41MOL0     C 5406   7.955   1.499   1.732 -0.0972 -0.0609  0.5955
   41MOL0     C 5407   8.068   1.419   1.716 -0.2399 -0.7125  0.1160
   41MOL0     O 5408   8.182   1.474   1.673  0.7349 -0.3213 -0.1532
   41MOL0     C 5409   8.290   1.393   1.611  0.1765  0.2667 -0.0259
   41MOL0     C 5410   8.406   1.475   1.544  0.3996  0.4369 -0.0968
   41MOL0     C 5411   8.502   1.381   1.464 -0.1318 -0.0995 -0.4234
   41MOL0     C 5412   8.598   1.468   1.382 -0.5033 -0.3751 -0.3221
   41MOL0     C 5413   8.714   1.366   1.325  0.1191 -0.7754  0.2087
   41MOL0     C 5414   8.845   1.435   1.298 -0.3366  0.0672 -0.0837
   41MOL0     C 5415   8.941   1.341   1.218 -0.5880 -0.1191 -0.8748
   41MOL0     C 5416   9.084   1.387   1.208  0.8374 -0.6402 -0.1454
   41MOL0     N 5417   9.158   1.274   1.144  0.7595 -0.0135 -0.7826
   41MOL0     C 5418   9.209   1.178   1.211 -0.0969  0.1092  0.5319
   41MOL0     C 5419   9.235   1.077   1.122  0.4435  0.3836  0.5752
   41MOL0     C 5420   9.314   0.945   1.153 -0.5428 -0.9486 -0.3123
   41MOL0     C 5421   9.253   0.818   1.071 -0.2585 -0.1244  0.0341
   41MOL0     C 5422   9.271   0.826   0.920  0.6889  0.0986 -0.1633
   41MOL0     C 5423   9.408   0.866   0.873 -0.0274 -0.1183  0.2035
   41MOL0     O 5424   9.500   0.777   0.939  0.5182  0.6332  0.7529
   41MOL0     C 5425   9.602   0.707   0.873 -0.5279 -1.4414  0.1538
   41MOL0     C 5426   9.651   0.590   0.927  0.1406  0.0824 -0.5176
   41MOL0     C 5427   9.754   0.515   0.868 -0.9388 -1.3087 -0.1074
   41MOL0     C 5428   9.817   0.569   0.756  0.4839 -1.1414  1.3714
   41MOL0     C 5429   9.944   0.506   0.718 -1.3069  0.0140 -0.0631
   41MOL0     O 5430  10.048   0.513   0.800 -0.1302  0.6036  0.1863
   41MOL0     C 5431  10.147   0.417   0.770 -0.8542 -0.7631  0.2505
   41MOL0     C 5432  10.265   0.482   0.740  0.4211  0.5181 -0.9225
   41MOL0     C 5433  10.370   0.400   0.704 -1.3218 -0.3508 -0.3472
   41MOL0     C 5434  10.370   0.262   0.705 -0.2065  0.1666 -0.3101
   41MOL0     O 5435  10.473   0.174   0.675 -0.5522  0.1648  0.0781
   41MOL0     C 5436  10.597   0.193   0.748  0.6511  0.3530  0.9438
   41MOL0     C 5437  10.696   0.070   0.746  0.5442 -0.3979  0.7221
   41MOL0     C 5438  10.832   0.101   0.802  0.5573  0.2019 -0.0146
   41MOL0     C 5439  10.925  -0.022   0.781  0.4998 -0.0309  0.5530
   41MOL0     C 5440  11.066  -0.013   0.842  0.1764  0.1595 -0.1195
   41MOL0     C 5441  11.149   0.115   0.800  0.8017 -0.5450 -0.3606
   41MOL0     C 5442  11.295   0.093   0.803 -2.0112  0.1393 -0.1296
   41MOL0     C 5443  11.356   0.103   0.942 -0.6879  0.1347 -0.6721
   41MOL0    Cl 5444  11.528   0.038   0.936 -0.1861 -0.0407 -0.0079
   41MOL0     C 5445  10.244   0.202   0.734  0.3059  0.3402 -0.5697
   41MOL0     C 5446  10.134   0.279   0.767  0.2913  0.2736  0.3430
   41MOL0     O 5447   9.944   0.449   0.604 -0.4226 -0.8803  0.1866
   41MOL0     C 5448   9.776   0.699   0.701 -0.0352  0.1154 -0.5708
   41MOL0     C 5449   9.663   0.759   0.760 -0.7591 -0.3162 -0.4304
   41MOL0     N 5450   9.209   1.124   0.997 -0.2876 -0.0801  0.5238
   41MOL0     N 5451   9.148   1.232   1.015 -0.2304 -0.2706 -0.1565
   41MOL0     C 5452   8.055   1.276   1.733  0.6390  0.9346  0.4268
   41MOL0     C 5453   7.931   1.224   1.771  1.1554 -0.2059 -0.4404
   41MOL0     C 5454   7.520   1.225   1.999  0.3961  0.1460 -0.6354
   41MOL0     C 5455   7.445   1.160   1.892  0.4040 -0.4235  0.1088
   41MOL0     C 5456   7.325   1.090   1.927 -1.4838 -0.1677 -0.3725
   41MOL0     C 5457   7.283   1.080   2.065  0.6637  0.7675  0.3692
   41MOL0     O 5458   7.182   0.994   2.105 -0.3813 -0.4518  0.2833
   41MOL0     C 5459   7.054   0.994   2.033  0.5107 -0.3534 -0.2743
   41MOL0     C 5460   7.043   0.856   1.959  0.1600 -1.1409  0.0167
   41MOL0     C 5461   6.893   0.830   1.897  0.2163 -0.3721  0.3042
   41MOL0     C 5462   6.863   0.952   1.808  0.4220 -0.1547  0.3875
   41MOL0     C 5463   6.743   0.932   1.714 -0.2938 -0.4246  0.4840
   41MOL0     C 5464   6.655   0.896   1.639  0.1963  0.2558 -0.3191
   41MOL0     C 5465   7.339   1.156   2.165 -0.4173 -0.3865  0.3024
   41MOL0     C 5466   7.458   1.226   2.133  0.7011 -0.2671  0.4870
   41MOL0     C 5467   7.520   1.289   2.250  0.3437 -0.6925 -0.5188
   41MOL0     H 5468   7.738   1.494   1.760 -2.0608 -2.1047  0.8197
   41MOL0     H 5469   7.952   1.603   1.698 -1.0932 -0.2716 -0.0132
   41MOL0     H 5470   8.331   1.314   1.674 -1.0255  1.6373  2.6547
   41MOL0     H 5471   8.240   1.345   1.527 -0.2805 -0.0267  0.4032
   41MOL0     H 5472   8.451   1.537   1.621 -0.6926 -0.4493  1.3024
   41MOL0     H 5473   8.351   1.542   1.477  0.4397  1.4194  0.8316
   41MOL0     H 5474   8.439   1.321   1.398 -0.3148 -0.8577  0.4283
   41MOL0     H 5475   8.553   1.314   1.534 -2.2114 -1.4419 -0.1086
   41MOL0     H 5476   8.566   1.517   1.290  0.9133 -0.6618 -1.0035
   41MOL0     H 5477   8.654   1.545   1.436  0.5565 -1.6730  0.4947
   41MOL0     H 5478   8.728   1.290   1.402 -1.8231  0.3506  1.7731
   41MOL0     H 5479   8.679   1.316   1.234  0.0336  0.9668 -0.7662
   41MOL0     H 5480   8.816   1.516   1.231  0.7335  1.6197  1.2547
   41MOL0     H 5481   8.878   1.467   1.397 -0.0300 -1.7763  0.4414
   41MOL0     H 5482   8.923   1.333   1.110  0.8938  0.0114 -1.1401
   41MOL0     H 5483   8.933   1.240   1.258 -2.1235 -0.5472 -2.1353
   41MOL0     H 5484   9.084   1.476   1.144 -1.1354  0.0677  0.7350
   41MOL0     H 5485   9.113   1.404   1.312 -0.8636  0.7003  0.1669
   41MOL0     H 5486   9.222   1.189   1.319 -1.1914  1.7043  0.5470
   41MOL0     H 5487   9.420   0.968   1.141 -1.0807  2.1149 -0.1414
   41MOL0     H 5488   9.306   0.927   1.260 -1.6754  2.6823  0.3588
   41MOL0     H 5489   9.303   0.731   1.113 -2.2745 -1.1023  0.5679
   41MOL0     H 5490   9.147   0.789   1.075 -0.1186 -0.6680 -0.2177
   41MOL0     H 5491   9.189   0.889   0.883 -1.6397 -0.9122  2.8516
   41MOL0     H 5492   9.258   0.730   0.869  0.9640  1.0171 -2.0510
   41MOL0     H 5493   9.434   0.969   0.899  0.3649  0.7018 -3.0573
   41MOL0     H 5494   9.416   0.862   0.764  1.6380  3.7495  0.0409
   41MOL0     H 5495   9.600   0.563   1.019  0.6949 -1.8581 -0.7390
   41MOL0     H 5496   9.784   0.425   0.920  2.3825  0.4381  1.3031
   41MOL0     H 5497  10.279   0.587   0.719  2.1367  0.6287  0.5945
   41MOL0     H 5498  10.460   0.449   0.667 -0.9940 -0.7232 -0.0537
   41MOL0     H 5499  10.643   0.271   0.687  1.2401 -1.9845 -1.8596
   41MOL0     H 5500  10.577   0.225   0.850 -2.5675  0.5134  0.3455
   41MOL0     H 5501  10.651  -0.015   0.798  1.9053 -1.2030  0.6405
   41MOL0     H 5502  10.712   0.051   0.639 -1.0175 -0.8535  0.5504
   41MOL0     H 5503  10.861   0.202   0.771  0.3946  1.6591  4.0055
   41MOL0     H 5504  10.811   0.104   0.909  0.3129  0.0847 -0.0586
   41MOL0     H 5505  10.930  -0.048   0.675 -1.9332 -2.4707  0.9121
   41MOL0     H 5506  10.880  -0.111   0.827 -2.4611  1.7496  1.4183
   41MOL0     H 5507  11.119  -0.099   0.799  0.6768  0.7585 -0.7285
   41MOL0     H 5508  11.055  -0.024   0.950 -0.7250  2.1114  0.0357
   41MOL0     H 5509  11.109   0.140   0.701 -0.5235  1.9997  0.7377
   41MOL0     H 5510  11.125   0.189   0.876  0.3980  1.7551 -2.5933
   41MOL0     H 5511  11.349   0.163   0.737 -1.8350 -0.7560 -0.9612
   41MOL0     H 5512  11.325  -0.005   0.766  0.4715  0.8470 -0.1728
   41MOL0     H 5513  11.345   0.209   0.969 -1.8568 -0.2053  0.2726
   41MOL0     H 5514  11.300   0.047   1.018  3.5527  0.2048  2.9190
   41MOL0     H 5515  10.232   0.095   0.718  1.7016  0.2657 -1.2071
   41MOL0     H 5516  10.044   0.228   0.801 -0.2735  0.9960 -0.0424
   41MOL0     H 5517   9.832   0.745   0.620 -1.2054  1.6975 -0.5332
   41MOL0     H 5518   9.636   0.856   0.718 -1.3330  0.0755  0.7947
   41MOL0     H 5519   8.143   1.218   1.705  2.3398  2.6486  1.9938
   41MOL0     H 5520   7.923   1.116   1.784 -0.1427 -0.5944 -3.6612
   41MOL0     H 5521   7.482   1.157   1.790 -0.6454 -0.4682 -0.2865
   41MOL0     H 5522   7.288   1.023   1.850  0.7145  0.3917 -2.0233
   41MOL0     H 5523   7.041   1.075   1.960  1.5263 -1.2148 -1.4659
   41MOL0     H 5524   6.973   1.000   2.106  1.8109 -0.3103  1.2057
   41MOL0     H 5525   7.044   0.776   2.032 -1.4435 -0.5949  0.6736
   41MOL0     H 5526   7.118   0.848   1.880  0.2133 -0.4165 -0.0126
   41MOL0     H 5527   6.819   0.832   1.977 -1.3438  0.3045 -1.0840
   41MOL0     H 5528   6.888   0.733   1.846  2.5532  0.0469 -0.8553
   41MOL0     H 5529   6.846   1.043   1.866  0.1519  1.6119 -2.2434
   41MOL0     H 5530   6.956   0.970   1.753  1.0954 -0.9670  1.2431
   41MOL0     H 5531   6.575   0.865   1.574 -0.3237 -0.4055  0.6182
   41MOL0     H 5532   7.300   1.173   2.265 -0.2710  0.4894  0.2187
   41MOL0     H 5533   7.437   1.331   2.307 -0.1296 -2.3530  0.0625
   41MOL0     H 5534   7.583   1.224   2.311  1.4647 -0.4029 -1.3327
   41MOL0     H 5535   7.578   1.378   2.224 -0.0676  0.4167  2.0816
   42MOL0     O 5536   9.662   9.667   4.401  0.5139  0.3219 -0.5865
   42MOL0     C 5537   9.566   9.648   4.482  0.8230  0.4406  0.4772
   42MOL0     O 5538   9.548   9.537   4.553  0.4999 -0.4328  0.6525
   42MOL0     C 5539   9.646   9.464   4.591  0.1644 -0.1104 -0.4784
   42MOL0     C 5540   9.730   9.388   4.509  0.7720  0.7071 -0.3027
   42MOL0     C 5541   9.838   9.312   4.569  0.3447 -0.7215 -0.7623
   42MOL0     C 5542   9.859   9.295   4.708 -0.8450 -0.5110 -0.0937
   42MOL0     O 5543   9.969   9.226   4.754 -0.7606 -0.5626  0.0469
   42MOL0     C 5544   9.990   9.205   4.897 -0.4927 -0.1458  0.5267
   42MOL0     C 5545  10.071   9.315   4.962 -0.7123  0.3498 -0.1075
   42MOL0     C 5546  10.220   9.311   4.907  0.3743 -0.1103  0.0208
   42MOL0     C 5547  10.324   9.398   4.983  0.4523 -0.5871 -0.0060
   42MOL0     C 5548  10.463   9.406   4.912  0.8444 -0.3311  0.3043
   42MOL0     C 5549  10.578   9.449   5.000 -1.0801  0.4473  0.1009
   42MOL0     C 5550  10.704   9.431   4.915 -0.3606 -0.2682 -0.2025
   42MOL0     C 5551  10.824   9.476   5.001  0.1931 -0.3682 -0.1639
   42MOL0     N 5552  10.959   9.457   4.936 -0.2021  0.5939  0.0572
   42MOL0     C 5553  10.999   9.340   4.864  0.4843 -0.2410  0.1397
   42MOL0     C 5554  11.136   9.352   4.842  0.5562 -0.0031  0.3212
   42MOL0     C 5555  11.233   9.258   4.765 -0.8840 -0.3736 -0.3667
   42MOL0     C 5556  11.219   9.120   4.830 -0.8230 -1.0543 -0.1288
   42MOL0     C 5557  11.280   9.003   4.747  1.4690  0.0721  1.0853
   42MOL0     C 5558  11.296   8.879   4.827  0.6131 -0.5874  0.3908
   42MOL0     O 5559  11.409   8.873   4.909  0.6728  0.2623  0.0343
   42MOL0     C 5560  11.538   8.858   4.861  0.3127  0.2178  1.1272
   42MOL0     C 5561  11.580   8.872   4.735  0.6559  0.4294  0.3260
   42MOL0     C 5562  11.716   8.875   4.704  0.5422  1.7107  0.3359
   42MOL0     C 5563  11.814   8.854   4.809 -0.1214 -0.6375  0.7408
   42MOL0     C 5564  11.955   8.863   4.767 -0.2807 -0.8396 -0.0859
   42MOL0     O 5565  11.982   8.890   4.645 -0.7497  0.1413 -0.9431
   42MOL0     C 5566  12.109   8.866   4.595 -0.9805 -0.0596 -0.0391
   42MOL0     C 5567  12.214   8.947   4.631  0.6164  0.7853 -0.2080
   42MOL0     C 5568  12.343   8.920   4.583 -0.2135 -0.1034 -0.4524
   42MOL0     C 5569  12.369   8.801   4.501  0.1880 -0.5567 -0.2200
   42MOL0     O 5570  12.493   8.769   4.452  0.0521  0.9164  0.1252
   42MOL0     C 5571  12.601   8.855   4.475  0.0004 -0.3752  0.2097
   42MOL0     C 5572  12.722   8.770   4.431 -0.7965 -1.2722  0.1423
   42MOL0     C 5573  12.845   8.862   4.412 -1.4527  1.1735 -0.6497
   42MOL0     C 5574  12.950   8.771   4.335  0.2392 -0.5969  0.2276
   42MOL0     C 5575  13.068   8.861   4.278 -1.1023 -0.1952 -0.6812
   42MOL0     C 5576  13.182   8.784   4.214 -0.4774 -0.6370  0.1000
   42MOL0     C 5577  13.128   8.692   4.102  0.0064  0.2006  0.7752
   42MOL0     C 5578  13.087   8.770   3.979  0.5985 -0.2470  0.1209
   42MOL0    Cl 5579  13.071   8.666   3.840  0.5211 -0.7415 -0.3019
   42MOL0     C 5580  12.257   8.731   4.454 -0.6955 -0.2626 -0.3432
   42MOL0     C 5581  12.130   8.754   4.508  0.1808 -0.3908  0.1313
   42MOL0     O 5582  12.035   8.828   4.858 -0.6794  0.1868  0.0087
   42MOL0     C 5583  11.773   8.823   4.936  0.4580  0.6047 -0.4974
   42MOL0     C 5584  11.635   8.828   4.963  0.0750  0.0153  0.0960
   42MOL0     N 5585  11.177   9.462   4.921  0.0050  0.1803  0.0678
   42MOL0     N 5586  11.067   9.527   4.968 -1.2781  0.4549 -0.2376
   42MOL0     C 5587   9.759   9.361   4.785 -0.2706  0.0234  0.5290
   42MOL0     C 5588   9.667   9.457   4.728  0.9077  0.1950  0.0157
   42MOL0     C 5589   9.461   9.756   4.480 -0.0891 -0.0694  0.5002
   42MOL0     C 5590   9.464   9.862   4.383  0.9856  0.3632  1.0031
   42MOL0     C 5591   9.356   9.943   4.363  0.5161 -0.7289  0.3772
   42MOL0     C 5592   9.259   9.958   4.456 -0.8355 -0.1377  0.2167
   42MOL0     O 5593   9.156  10.040   4.423 -0.6639 -0.1103  0.4737
   42MOL0     C 5594   9.033   9.978   4.389  0.0856 -0.5378 -0.4793
   42MOL0     C 5595   9.017   9.962   4.237 -0.0827 -0.1687 -0.4863
   42MOL0     C 5596   9.037   9.821   4.190 -0.6383 -0.4310  0.0151
   42MOL0     C 5597   9.051   9.817   4.032  0.3216 -0.6590  0.9855
   42MOL0     C 5598   8.938   9.738   3.974  0.4336 -0.0676  0.2776
   42MOL0     C 5599   8.844   9.665   3.935 -0.6495  0.1878  0.4734
   42MOL0     C 5600   9.259   9.874   4.569  0.5143  0.6931  0.5167
   42MOL0     C 5601   9.361   9.773   4.584 -0.7633  0.5968  0.1562
   42MOL0     C 5602   9.354   9.691   4.705 -0.5388  0.3567  0.6580
   42MOL0     H 5603   9.714   9.400   4.403 -1.0500 -0.1589 -0.1674
   42MOL0     H 5604   9.909   9.265   4.501 -1.1699 -3.4548 -0.5822
   42MOL0     H 5605   9.894   9.198   4.949 -2.0097 -2.9865 -2.2677
   42MOL0     H 5606  10.054   9.117   4.909  1.5063  1.2958  0.8280
   42MOL0     H 5607  10.066   9.300   5.070  1.2832 -1.8768 -0.2379
   42MOL0     H 5608  10.029   9.415   4.951 -0.3041  0.3127 -3.0973
   42MOL0     H 5609  10.220   9.343   4.803 -0.8579  0.9892  0.3337
   42MOL0     H 5610  10.263   9.211   4.915  2.3156  0.5663 -1.3645
   42MOL0     H 5611  10.287   9.498   5.007 -0.6892 -1.4655  2.1656
   42MOL0     H 5612  10.329   9.346   5.079 -2.3897 -1.4858 -0.2504
   42MOL0     H 5613  10.484   9.304   4.879  0.6089 -1.1908  2.6118
   42MOL0     H 5614  10.449   9.464   4.821  0.9480  2.2928  1.8475
   42MOL0     H 5615  10.570   9.557   5.018  4.3729  1.1058  0.1520
   42MOL0     H 5616  10.588   9.406   5.100  0.1029  2.4817  0.9164
   42MOL0     H 5617  10.716   9.486   4.822  0.2853 -0.9877 -0.5586
   42MOL0     H 5618  10.716   9.323   4.898  0.2520 -0.1289 -0.6821
   42MOL0     H 5619  10.817   9.585   5.012 -1.4760 -0.5475  0.8114
   42MOL0     H 5620  10.821   9.426   5.098  1.1802 -1.0257 -0.4574
   42MOL0     H 5621  10.921   9.270   4.836 -1.2810  1.6026  0.1678
   42MOL0     H 5622  11.220   9.249   4.657  1.0577  3.7556 -1.1231
   42MOL0     H 5623  11.337   9.291   4.777 -1.0737 -0.3346  1.5084
   42MOL0     H 5624  11.285   9.125   4.917  0.2953  0.6848 -1.0132
   42MOL0     H 5625  11.116   9.101   4.860 -2.6231  1.2104 -4.0875
   42MOL0     H 5626  11.371   9.035   4.697 -0.7352  1.7553 -2.2562
   42MOL0     H 5627  11.205   8.990   4.668  0.7815  4.0579  0.8809
   42MOL0     H 5628  11.311   8.796   4.757 -1.4328 -1.7280  1.2525
   42MOL0     H 5629  11.204   8.862   4.883  0.9177  1.7862  1.7398
   42MOL0     H 5630  11.510   8.893   4.655 -1.6414 -4.5835  0.6422
   42MOL0     H 5631  11.741   8.887   4.599  1.0352  1.1643  0.3860
   42MOL0     H 5632  12.190   9.017   4.710  2.5828 -0.0929  1.2642
   42MOL0     H 5633  12.418   8.994   4.610  1.2368 -1.3385 -0.9183
   42MOL0     H 5634  12.602   8.951   4.423 -2.1257 -0.0562  0.6628
   42MOL0     H 5635  12.602   8.871   4.584  0.6299  1.6865 -0.0511
   42MOL0     H 5636  12.751   8.698   4.508  1.6155 -3.0305 -2.2359
   42MOL0     H 5637  12.693   8.719   4.339 -2.7138  2.0250 -1.2689
   42MOL0     H 5638  12.822   8.944   4.343  1.9522  1.9114 -1.1225
   42MOL0     H 5639  12.880   8.899   4.509 -2.5566  1.7058 -0.4440
   42MOL0     H 5640  12.907   8.702   4.262  1.2426  0.1239 -1.0935
   42MOL0     H 5641  12.993   8.697   4.404  2.2601 -0.0844 -0.4199
   42MOL0     H 5642  13.111   8.928   4.353  1.8958 -0.8944 -1.6421
   42MOL0     H 5643  13.024   8.923   4.199 -1.3758 -1.6130 -1.6984
   42MOL0     H 5644  13.252   8.861   4.179 -0.2324 -0.5390  0.8021
   42MOL0     H 5645  13.227   8.729   4.297 -0.2730  1.0819  1.1807
   42MOL0     H 5646  13.048   8.625   4.137 -0.7921  0.7046 -0.0226
   42MOL0     H 5647  13.205   8.622   4.069 -0.1064 -0.1493  1.2435
   42MOL0     H 5648  12.991   8.819   3.993 -0.2413 -1.7400 -0.2139
   42MOL0     H 5649  13.170   8.841   3.970 -0.8243  1.4009 -0.4586
   42MOL0     H 5650  12.273   8.659   4.374 -2.8239 -1.5009  0.2515
   42MOL0     H 5651  12.047   8.689   4.484 -0.5654 -0.2362  2.1482
   42MOL0     H 5652  11.832   8.790   5.021 -2.6780  1.0386  2.0086
   42MOL0     H 5653  11.609   8.808   5.066 -0.7345 -0.7782 -0.2482
   42MOL0     H 5654   9.767   9.347   4.892  1.0062  0.8168  0.5527
   42MOL0     H 5655   9.602   9.497   4.806 -1.7008 -2.5525 -0.5727
   42MOL0     H 5656   9.544   9.872   4.310  1.0080 -1.2924  0.7673
   42MOL0     H 5657   9.333   9.999   4.272  1.5073 -2.8464 -1.2693
   42MOL0     H 5658   8.955  10.032   4.443  2.2858 -0.0915  2.4755
   42MOL0     H 5659   9.025   9.880   4.435 -2.1811  0.2766  1.0634
   42MOL0     H 5660   9.087  10.034   4.194  2.0513 -1.3951  0.7809
   42MOL0     H 5661   8.913   9.974   4.206  0.1878 -0.3887 -1.5413
   42MOL0     H 5662   8.967   9.750   4.234  1.9990 -2.2343  1.6294
   42MOL0     H 5663   9.119   9.772   4.243  0.3380  2.9645  1.9762
   42MOL0     H 5664   9.048   9.911   3.977  0.2823 -1.3035 -0.1485
   42MOL0     H 5665   9.143   9.768   3.997 -0.7790 -1.7712 -0.4554
   42MOL0     H 5666   8.771   9.590   3.911 -0.5671  0.3839 -0.4351
   42MOL0     H 5667   9.175   9.876   4.638 -0.1228  0.6538 -0.2449
   42MOL0     H 5668   9.289   9.733   4.782  0.1263 -0.4042  1.6739
   42MOL0     H 5669   9.320   9.588   4.687  1.5768 -0.3112  0.1315
   42MOL0     H 5670   9.459   9.680   4.734 -0.0375  0.2703 -1.1066
   43MOL0     O 5671   4.298   7.933   3.596  1.0742  0.8257 -0.0825
   43MOL0     C 5672   4.191   8.000   3.600  0.3929 -0.6261  0.1744
   43MOL0     O 5673   4.180   8.130   3.558 -0.2070  0.1743  0.2105
   43MOL0     C 5674   4.282   8.200   3.509 -0.4671 -0.2889 -0.1027
   43MOL0     C 5675   4.362   8.146   3.401 -0.4222 -0.4164  0.3134
   43MOL0     C 5676   4.468   8.224   3.353 -0.4487  0.3805 -0.5290
   43MOL0     C 5677   4.507   8.350   3.410  0.3372  0.2669  0.0608
   43MOL0     O 5678   4.614   8.424   3.370 -0.3547  0.6195 -0.1664
   43MOL0     C 5679   4.724   8.354   3.306 -0.4554 -0.2098 -0.1782
   43MOL0     C 5680   4.831   8.458   3.295 -0.4757 -1.3035  0.1405
   43MOL0     C 5681   4.818   8.539   3.166 -0.0810 -0.0308 -0.7419
   43MOL0     C 5682   4.880   8.683   3.171  0.1271  0.4973  0.3521
   43MOL0     C 5683   5.036   8.706   3.192  0.4334  0.4904 -0.8238
   43MOL0     C 5684   5.111   8.670   3.067 -0.0263 -0.1352  0.5561
   43MOL0     C 5685   5.264   8.716   3.067  0.0496  0.3391 -0.5038
   43MOL0     C 5686   5.348   8.645   3.179 -0.0374  0.4831  0.6178
   43MOL0     N 5687   5.484   8.704   3.148  0.6631 -0.0575  1.1237
   43MOL0     C 5688   5.533   8.823   3.198 -0.1233 -0.4963  0.4518
   43MOL0     C 5689   5.664   8.821   3.160 -0.2945 -0.7208  0.7467
   43MOL0     C 5690   5.776   8.897   3.233 -0.1474  0.6762  0.1264
   43MOL0     C 5691   5.839   8.801   3.346 -0.4754 -0.1198  1.0374
   43MOL0     C 5692   5.941   8.874   3.418 -0.7707 -0.6162 -0.7447
   43MOL0     C 5693   6.006   8.794   3.537 -0.9665 -0.2958 -0.0711
   43MOL0     O 5694   6.086   8.889   3.607 -0.5664  0.3667  0.3045
   43MOL0     C 5695   6.213   8.932   3.567  0.0893 -0.2832  1.2499
   43MOL0     C 5696   6.259   9.042   3.641  0.3807 -0.1170 -0.3659
   43MOL0     C 5697   6.377   9.104   3.629  0.5824 -0.4893  0.1132
   43MOL0     C 5698   6.460   9.055   3.528  0.2329  0.1181 -0.4005
   43MOL0     C 5699   6.603   9.101   3.519  0.4220 -0.0246  0.3670
   43MOL0     O 5700   6.683   9.034   3.442 -0.6314  0.6094  0.6015
   43MOL0     C 5701   6.822   9.039   3.468 -0.0553 -0.5105  0.0691
   43MOL0     C 5702   6.905   9.155   3.478  0.0018  0.1376 -0.1702
   43MOL0     C 5703   7.038   9.158   3.508  0.0937 -0.3573 -0.5589
   43MOL0     C 5704   7.102   9.037   3.528 -1.0847  0.9032 -0.1633
   43MOL0     O 5705   7.227   9.036   3.578 -0.2146 -0.7251  0.0155
   43MOL0     C 5706   7.238   9.068   3.722 -0.1587  0.1134  0.1407
   43MOL0     C 5707   7.356   9.165   3.726  0.5092  0.1469  0.2291
   43MOL0     C 5708   7.494   9.104   3.721  0.7412 -0.0778  0.6199
   43MOL0     C 5709   7.606   9.205   3.761 -0.8637 -0.1023 -0.6824
   43MOL0     C 5710   7.752   9.157   3.717  0.8848  0.4553 -0.0235
   43MOL0     C 5711   7.869   9.241   3.782 -0.0314  0.4883  0.8775
   43MOL0     C 5712   8.000   9.187   3.738 -0.4118 -1.0655 -0.8425
   43MOL0     C 5713   8.123   9.248   3.820 -0.3691 -0.4188  0.7701
   43MOL0    Cl 5714   8.091   9.228   3.995 -0.2931 -0.2497 -0.4406
   43MOL0     C 5715   7.020   8.921   3.534 -0.8685 -0.1388 -0.1056
   43MOL0     C 5716   6.883   8.921   3.501 -0.2850 -0.1875  0.6150
   43MOL0     O 5717   6.633   9.203   3.580 -0.3511 -0.2542 -0.3152
   43MOL0     C 5718   6.419   8.941   3.450 -0.3293 -1.5977 -0.2983
   43MOL0     C 5719   6.299   8.886   3.467  0.8993  0.1991  0.5505
   43MOL0     N 5720   5.693   8.700   3.091  0.9875 -0.5111  0.4360
   43MOL0     N 5721   5.582   8.631   3.089 -0.2110  0.0556  0.5977
   43MOL0     C 5722   4.427   8.398   3.510  0.0977 -0.0402 -0.6690
   43MOL0     C 5723   4.320   8.327   3.567 -0.3046  0.3902 -0.2177
   43MOL0     C 5724   4.072   7.946   3.654 -0.0390 -0.1312  0.0022
   43MOL0     C 5725   3.951   8.006   3.609  0.7731  0.5985 -0.0264
   43MOL0     C 5726   3.826   7.966   3.671 -0.9239 -0.6307 -0.0313
   43MOL0     C 5727   3.825   7.863   3.769  0.0907 -0.8109  0.1108
   43MOL0     O 5728   3.715   7.803   3.822  0.3698 -0.1906 -0.6092
   43MOL0     C 5729   3.592   7.875   3.793 -1.0877 -0.4909  0.2945
   43MOL0     C 5730   3.489   7.823   3.892  0.0671 -0.1142 -0.1499
   43MOL0     C 5731   3.364   7.916   3.892  0.4062 -0.6127 -0.4495
   43MOL0     C 5732   3.248   7.841   3.956 -0.3112  0.2282 -0.5554
   43MOL0     C 5733   3.290   7.797   4.089 -0.4165 -0.2993  0.6052
   43MOL0     C 5734   3.312   7.747   4.196  0.0655  0.3546 -0.6121
   43MOL0     C 5735   3.941   7.815   3.814 -0.2743 -1.1293 -0.5419
   43MOL0     C 5736   4.069   7.851   3.760 -0.7870  0.0570  0.3999
   43MOL0     C 5737   4.193   7.791   3.825  0.0537 -0.7095 -0.0030
   43MOL0     H 5738   4.352   8.048   3.357 -0.3328  0.1217 -0.9554
   43MOL0     H 5739   4.529   8.185   3.273  1.7042  1.1225  0.6817
   43MOL0     H 5740   4.761   8.261   3.351 -2.0197 -0.9858 -0.4429
   43MOL0     H 5741   4.692   8.327   3.205  2.5602  1.7623 -1.8340
   43MOL0     H 5742   4.930   8.410   3.296 -0.0858 -0.5080  0.8409
   43MOL0     H 5743   4.831   8.523   3.383 -1.0992  1.9719 -2.1029
   43MOL0     H 5744   4.711   8.549   3.146 -0.4652  0.1648  1.2525
   43MOL0     H 5745   4.869   8.492   3.081  0.7317  2.9166 -2.0058
   43MOL0     H 5746   4.851   8.724   3.074 -4.0250 -1.2754  0.6417
   43MOL0     H 5747   4.828   8.736   3.252 -0.3268 -1.0457  1.1139
   43MOL0     H 5748   5.056   8.812   3.212  0.2465  0.0974  1.8221
   43MOL0     H 5749   5.072   8.643   3.274 -1.6113  0.7713  0.3811
   43MOL0     H 5750   5.111   8.561   3.059  1.5853 -0.2777  1.9788
   43MOL0     H 5751   5.068   8.722   2.980  0.0044  0.8267  1.1029
   43MOL0     H 5752   5.272   8.824   3.083  3.0267  0.7361 -3.6366
   43MOL0     H 5753   5.315   8.706   2.971 -2.3170  2.4822 -2.1039
   43MOL0     H 5754   5.309   8.683   3.274 -2.6947  1.4672 -0.7519
   43MOL0     H 5755   5.351   8.538   3.158  0.5634  0.9353 -1.8949
   43MOL0     H 5756   5.476   8.896   3.255 -1.1022 -0.0484 -1.0562
   43MOL0     H 5757   5.849   8.938   3.164  0.3519  0.4396  0.5049
   43MOL0     H 5758   5.726   8.977   3.289  0.9556 -0.6614  3.2667
   43MOL0     H 5759   5.747   8.785   3.403  0.0423 -3.5883  1.0664
   43MOL0     H 5760   5.881   8.706   3.313  1.7028  1.5128 -1.2891
   43MOL0     H 5761   5.883   8.960   3.453 -2.2494 -1.9710  0.3294
   43MOL0     H 5762   6.015   8.898   3.342 -2.6990 -2.6127 -3.4545
   43MOL0     H 5763   6.059   8.710   3.492 -0.9273 -0.3070 -0.0050
   43MOL0     H 5764   5.930   8.751   3.603  0.5890 -2.8620  0.1474
   43MOL0     H 5765   6.205   9.064   3.733  4.5612  2.1240  1.8799
   43MOL0     H 5766   6.401   9.186   3.696 -1.4215  0.3521 -0.1544
   43MOL0     H 5767   6.849   9.244   3.453 -1.0825 -0.6385 -0.5856
   43MOL0     H 5768   7.088   9.253   3.524  1.8171 -1.3257  0.1139
   43MOL0     H 5769   7.146   9.122   3.745 -0.5293  0.7213 -2.3999
   43MOL0     H 5770   7.242   8.976   3.781 -3.4896 -0.9026 -0.9914
   43MOL0     H 5771   7.336   9.234   3.643  1.7912 -0.3841 -0.5478
   43MOL0     H 5772   7.349   9.225   3.817  1.1931  0.5860  0.0043
   43MOL0     H 5773   7.510   9.022   3.792  1.3650  0.2788  0.8988
   43MOL0     H 5774   7.512   9.060   3.623  0.4905  1.9122 -0.3733
   43MOL0     H 5775   7.605   9.204   3.870 -0.8258  1.6511 -0.6426
   43MOL0     H 5776   7.592   9.310   3.734 -0.1797  0.3889  0.7421
   43MOL0     H 5777   7.759   9.169   3.608  2.9552 -2.5202 -0.3568
   43MOL0     H 5778   7.770   9.050   3.732 -0.7191 -0.1231 -1.7352
   43MOL0     H 5779   7.862   9.339   3.734 -2.2819 -0.6637 -1.3525
   43MOL0     H 5780   7.848   9.245   3.890  1.1801 -0.7738  1.1796
   43MOL0     H 5781   8.007   9.201   3.630  0.4849 -1.6307 -0.8746
   43MOL0     H 5782   7.987   9.082   3.765 -3.6395 -0.3492  0.8763
   43MOL0     H 5783   8.213   9.204   3.776  1.0056  0.9795  2.0530
   43MOL0     H 5784   8.124   9.355   3.795 -2.3316 -0.3763  0.7394
   43MOL0     H 5785   7.064   8.830   3.572  1.1286  0.5383 -0.6865
   43MOL0     H 5786   6.822   8.832   3.492  0.3224 -0.4574 -1.4593
   43MOL0     H 5787   6.494   8.895   3.387  1.0420  1.9512 -1.4787
   43MOL0     H 5788   6.275   8.799   3.406  6.0674 -1.9035  0.9667
   43MOL0     H 5789   4.450   8.500   3.539  0.3539  0.1836 -1.6159
   43MOL0     H 5790   4.263   8.368   3.650  0.5454  1.2168 -0.0267
   43MOL0     H 5791   3.933   8.073   3.526 -2.6347 -1.5677 -1.2483
   43MOL0     H 5792   3.733   8.005   3.630 -0.2663  1.6051  0.4697
   43MOL0     H 5793   3.559   7.856   3.690  0.7142  3.3243 -1.1816
   43MOL0     H 5794   3.601   7.983   3.802  1.5768 -0.2810 -2.8147
   43MOL0     H 5795   3.536   7.830   3.991 -0.5454 -0.0219  0.1411
   43MOL0     H 5796   3.471   7.717   3.871 -1.2174  0.8688 -5.4453
   43MOL0     H 5797   3.334   7.955   3.794  1.6455 -3.7962 -2.2421
   43MOL0     H 5798   3.386   8.006   3.951 -0.7323 -1.0152  0.6343
   43MOL0     H 5799   3.161   7.906   3.971  0.0327  0.6424 -0.3061
   43MOL0     H 5800   3.225   7.751   3.899  1.0441 -2.6556  3.0661
   43MOL0     H 5801   3.333   7.682   4.279 -1.5850 -1.6996 -1.6999
   43MOL0     H 5802   3.941   7.744   3.896 -0.3387  1.9325  2.3596
   43MOL0     H 5803   4.261   7.869   3.858 -3.0027  1.5065  1.5885
   43MOL0     H 5804   4.163   7.734   3.914 -2.2964 -0.6098 -0.6578
   43MOL0     H 5805   4.252   7.730   3.756  0.5780  0.7392 -0.8673
   44MOL0     O 5806   8.078   8.351   6.490 -0.6862 -0.4504 -0.4547
   44MOL0     C 5807   7.992   8.270   6.493  0.4452 -0.6476  0.7160
   44MOL0     O 5808   7.978   8.152   6.426  0.2629 -0.4283  0.3182
   44MOL0     C 5809   8.096   8.098   6.385 -0.3113  0.2519  1.1759
   44MOL0     C 5810   8.114   7.958   6.405 -0.2560 -0.4462  0.3002
   44MOL0     C 5811   8.236   7.898   6.375 -0.0964  0.8721  0.6385
   44MOL0     C 5812   8.347   7.975   6.318 -0.0776  0.6382 -0.1221
   44MOL0     O 5813   8.481   7.929   6.304  0.0795 -0.3345  0.3314
   44MOL0     C 5814   8.485   7.789   6.271  0.4646 -0.1621 -0.2026
   44MOL0     C 5815   8.632   7.755   6.248 -0.8050  0.1323  0.9056
   44MOL0     C 5816   8.644   7.628   6.186  0.4508  0.5153  0.1173
   44MOL0     C 5817   8.600   7.636   6.044  0.2619 -0.0599  0.2165
   44MOL0     C 5818   8.597   7.491   5.986  0.7791 -0.1327 -0.0996
   44MOL0     C 5819   8.728   7.454   5.932  0.4175 -1.1777 -0.0500
   44MOL0     C 5820   8.738   7.308   5.902  0.6405 -0.5279 -0.0313
   44MOL0     C 5821   8.752   7.215   6.016  0.2718 -0.0842  0.0802
   44MOL0     N 5822   8.873   7.241   6.085  0.0070 -0.4773  0.3484
   44MOL0     C 5823   8.885   7.321   6.189 -0.1185 -0.1208  0.1305
   44MOL0     C 5824   9.020   7.304   6.224 -1.1059  0.9307 -0.1531
   44MOL0     C 5825   9.090   7.361   6.347  0.0047  0.0682  0.5772
   44MOL0     C 5826   9.207   7.455   6.315  0.1320 -0.0128 -0.5807
   44MOL0     C 5827   9.300   7.473   6.431 -0.6703 -0.0860  0.0977
   44MOL0     C 5828   9.392   7.355   6.467  0.1073 -0.1930  0.6281
   44MOL0     O 5829   9.509   7.367   6.381 -0.4902 -0.2046  0.1605
   44MOL0     C 5830   9.626   7.422   6.416 -0.1871 -1.1031 -0.0249
   44MOL0     C 5831   9.737   7.392   6.337  0.1104  0.0783 -0.2611
   44MOL0     C 5832   9.863   7.450   6.364  0.1156 -0.0997 -1.3897
   44MOL0     C 5833   9.875   7.528   6.484  0.6492  0.1969  0.4387
   44MOL0     C 5834  10.009   7.544   6.543 -0.1796 -0.7521  0.8447
   44MOL0     O 5835  10.114   7.553   6.452 -0.2388 -0.2590  0.4454
   44MOL0     C 5836  10.239   7.552   6.509 -0.7960  0.5070 -0.2986
   44MOL0     C 5837  10.278   7.632   6.613  0.1260 -0.0623  0.0610
   44MOL0     C 5838  10.412   7.627   6.664  0.8061  0.5412 -0.0518
   44MOL0     C 5839  10.502   7.531   6.614  0.3034  0.3299 -0.3627
   44MOL0     O 5840  10.629   7.527   6.671 -0.0854  0.0008  0.4867
   44MOL0     C 5841  10.731   7.435   6.609 -0.3174 -1.1314 -0.0412
   44MOL0     C 5842  10.878   7.475   6.636 -0.2601 -0.0810  0.0361
   44MOL0     C 5843  10.950   7.369   6.731 -0.1521 -0.2122 -0.0095
   44MOL0     C 5844  11.086   7.419   6.777  0.5979  0.4145  0.2515
   44MOL0     C 5845  11.162   7.477   6.644 -0.1245 -0.6573  0.1690
   44MOL0     C 5846  11.309   7.491   6.664 -0.2267  0.1350 -0.3119
   44MOL0     C 5847  11.399   7.530   6.546  0.5742 -0.0359  0.3696
   44MOL0     C 5848  11.370   7.659   6.469 -0.3891 -0.4666 -0.5000
   44MOL0    Cl 5849  11.416   7.796   6.571  0.0948 -0.7172 -0.0048
   44MOL0     C 5850  10.467   7.455   6.505  1.6208  0.6328  0.3466
   44MOL0     C 5851  10.338   7.464   6.455 -0.4454  0.3801  0.6185
   44MOL0     O 5852  10.014   7.557   6.667  0.5759 -0.1148  0.8049
   44MOL0     C 5853   9.764   7.552   6.562  0.4472 -0.4699 -0.0327
   44MOL0     C 5854   9.633   7.515   6.523  1.0294 -0.2235  0.4199
   44MOL0     N 5855   9.073   7.191   6.155  0.2591 -0.0377  0.0737
   44MOL0     N 5856   8.979   7.168   6.069 -0.4913  0.9452 -0.9434
   44MOL0     C 5857   8.319   8.105   6.270 -0.1733  0.3928 -0.5246
   44MOL0     C 5858   8.197   8.162   6.309  0.3255 -0.3977  0.3340
   44MOL0     C 5859   7.886   8.318   6.591  0.2838  0.2857  0.0952
   44MOL0     C 5860   7.875   8.250   6.712  0.0127 -0.0880  0.1466
   44MOL0     C 5861   7.788   8.295   6.811 -0.2779 -0.3430 -0.4005
   44MOL0     C 5862   7.707   8.411   6.793 -0.2573  0.0719 -0.3828
   44MOL0     O 5863   7.624   8.455   6.892  0.1912  0.2344  0.5627
   44MOL0     C 5864   7.567   8.369   6.990 -0.7387 -0.0698  1.1330
   44MOL0     C 5865   7.439   8.434   7.061 -0.6686 -0.7271 -0.7024
   44MOL0     C 5866   7.341   8.500   6.969  0.1260  0.8438  0.5040
   44MOL0     C 5867   7.215   8.554   7.043 -0.9305 -0.0012  0.5397
   44MOL0     C 5868   7.246   8.664   7.137  0.3503 -0.0923 -0.2932
   44MOL0     C 5869   7.278   8.752   7.215  0.0935  0.2722  1.5030
   44MOL0     C 5870   7.719   8.479   6.672 -0.5879  0.9280  0.3252
   44MOL0     C 5871   7.802   8.438   6.566 -0.1529  0.6052 -0.0880
   44MOL0     C 5872   7.808   8.507   6.439 -0.0583  0.4405 -0.0965
   44MOL0     H 5873   8.032   7.894   6.435  1.9933 -3.7655 -0.0413
   44MOL0     H 5874   8.246   7.792   6.396 -0.9425  0.3416 -1.4468
   44MOL0     H 5875   8.454   7.727   6.356  2.4433  1.5596  1.9427
   44MOL0     H 5876   8.407   7.759   6.201 -2.0760 -1.4010  2.8857
   44MOL0     H 5877   8.688   7.772   6.340  0.4067  1.6841 -0.0642
   44MOL0     H 5878   8.675   7.820   6.170  1.9855 -1.5858  0.8729
   44MOL0     H 5879   8.574   7.560   6.234 -0.9949  0.6794 -1.6633
   44MOL0     H 5880   8.748   7.594   6.199  0.5747  1.1675  0.8648
   44MOL0     H 5881   8.494   7.659   6.053  0.2439 -0.7628  2.4363
   44MOL0     H 5882   8.661   7.698   5.978 -1.1391  2.6963  1.3628
   44MOL0     H 5883   8.554   7.422   6.059 -0.3437 -0.9558 -1.4653
   44MOL0     H 5884   8.523   7.482   5.906 -1.0827 -4.5914  1.7775
   44MOL0     H 5885   8.739   7.514   5.841 -2.2598  1.3083  1.1181
   44MOL0     H 5886   8.812   7.482   5.996 -0.5928 -1.5972  1.4948
   44MOL0     H 5887   8.827   7.292   5.841  0.2818  2.1497 -1.4019
   44MOL0     H 5888   8.652   7.273   5.844  2.7336 -2.2656 -2.2628
   44MOL0     H 5889   8.657   7.230   6.068 -0.6771 -0.1219 -1.5639
   44MOL0     H 5890   8.759   7.116   5.970  1.0012 -0.4532  0.9516
   44MOL0     H 5891   8.816   7.389   6.237 -2.5275 -1.0909 -1.7268
   44MOL0     H 5892   9.005   7.415   6.391 -2.0525 -1.2849 -1.4635
   44MOL0     H 5893   9.105   7.274   6.411 -1.9701  0.0534  1.1101
   44MOL0     H 5894   9.263   7.401   6.237  1.3256 -0.2596  0.4035
   44MOL0     H 5895   9.186   7.553   6.272  0.6983 -0.4671 -1.9711
   44MOL0     H 5896   9.228   7.489   6.512  0.0728  0.6019  0.6366
   44MOL0     H 5897   9.345   7.572   6.419  0.7514 -0.9124 -1.7197
   44MOL0     H 5898   9.341   7.260   6.453 -0.1310  0.2178 -1.6386
   44MOL0     H 5899   9.421   7.361   6.573 -0.5700  1.7046  0.7577
   44MOL0     H 5900   9.733   7.321   6.254  2.7619  0.0485 -0.4661
   44MOL0     H 5901   9.955   7.437   6.308 -1.4574  0.7479 -4.3436
   44MOL0     H 5902  10.226   7.714   6.659  4.0924  3.1700 -0.6241
   44MOL0     H 5903  10.445   7.692   6.745 -1.5640 -1.0090  2.3052
   44MOL0     H 5904  10.711   7.327   6.613 -1.8714 -0.9078 -1.0971
   44MOL0     H 5905  10.724   7.454   6.502  2.3532 -3.7236 -0.8095
   44MOL0     H 5906  10.925   7.477   6.538 -1.5508  1.4349 -0.5850
   44MOL0     H 5907  10.884   7.572   6.685 -1.2139  0.8378 -1.5835
   44MOL0     H 5908  10.883   7.346   6.814 -2.5854  1.4695 -1.3930
   44MOL0     H 5909  10.979   7.281   6.673  1.4382 -0.3303  0.9021
   44MOL0     H 5910  11.150   7.352   6.836 -0.6358  0.5415  1.8003
   44MOL0     H 5911  11.069   7.508   6.838 -3.7096  1.4257 -1.9966
   44MOL0     H 5912  11.122   7.578   6.629 -1.0957 -0.8589  1.2689
   44MOL0     H 5913  11.138   7.413   6.559 -0.5869 -1.9113  1.2272
   44MOL0     H 5914  11.329   7.555   6.750  2.6910 -2.6586  1.2835
   44MOL0     H 5915  11.329   7.388   6.694 -1.2042  0.9650  3.7784
   44MOL0     H 5916  11.378   7.449   6.476 -0.6515  1.0955 -0.6277
   44MOL0     H 5917  11.501   7.526   6.584  0.7351  0.8813  0.0513
   44MOL0     H 5918  11.438   7.649   6.384  0.2337 -0.1589 -0.0527
   44MOL0     H 5919  11.264   7.667   6.444 -1.1197 -1.0458  2.0531
   44MOL0     H 5920  10.520   7.374   6.454 -0.2056 -0.7892  0.5954
   44MOL0     H 5921  10.302   7.399   6.375  0.7592 -1.6801  1.6669
   44MOL0     H 5922   9.761   7.590   6.664  0.7786 -4.0488  1.4698
   44MOL0     H 5923   9.542   7.550   6.570  0.0852 -0.2284 -1.3224
   44MOL0     H 5924   8.404   8.152   6.221  1.8821 -1.7971  0.7547
   44MOL0     H 5925   8.178   8.266   6.284 -0.3004 -0.5709  0.0925
   44MOL0     H 5926   7.936   8.163   6.734 -1.7342 -1.3986  0.0636
   44MOL0     H 5927   7.778   8.234   6.900  2.9946 -0.5122 -0.0299
   44MOL0     H 5928   7.644   8.356   7.067 -0.8250 -3.7770  0.7823
   44MOL0     H 5929   7.539   8.272   6.947 -1.0144  0.2788  0.5161
   44MOL0     H 5930   7.491   8.511   7.119  0.5683 -0.9985 -1.4121
   44MOL0     H 5931   7.386   8.369   7.131 -0.7795 -0.2773 -0.3636
   44MOL0     H 5932   7.314   8.425   6.893 -0.9577 -0.3306  1.9734
   44MOL0     H 5933   7.393   8.582   6.920 -1.2206 -0.4223 -3.4521
   44MOL0     H 5934   7.151   8.604   6.969 -0.6750 -0.7292 -0.1881
   44MOL0     H 5935   7.160   8.473   7.092 -0.7137  0.5087  1.6381
   44MOL0     H 5936   7.296   8.838   7.276  1.7607  1.9206 -1.1148
   44MOL0     H 5937   7.655   8.565   6.653 -3.9958 -1.9079 -2.4094
   44MOL0     H 5938   7.743   8.595   6.437  0.8920  1.3017  2.8427
   44MOL0     H 5939   7.911   8.533   6.414  0.1324  1.0211  1.2093
   44MOL0     H 5940   7.771   8.448   6.355 -0.1206  1.2917 -0.6811
   45MOL0     O 5941   2.839   9.997   1.959 -0.1675  0.4086 -1.0513
   45MOL0     C 5942   2.871  10.026   2.079 -0.3930  0.0308 -0.3250
   45MOL0     O 5943   2.799  10.032   2.187  0.7440  0.8498 -0.2671
   45MOL0     C 5944   2.661  10.047   2.157  1.1356 -0.3053 -0.2040
   45MOL0     C 5945   2.599  10.169   2.121 -0.5815  0.3339  0.3964
   45MOL0     C 5946   2.458  10.185   2.125  0.8806  0.6271  1.2095
   45MOL0     C 5947   2.379  10.071   2.147 -0.5145 -0.6871 -0.7177
   45MOL0     O 5948   2.237  10.081   2.146  0.0273 -1.4012  0.2085
   45MOL0     C 5949   2.166  10.209   2.138 -1.1569  0.8569  0.3589
   45MOL0     C 5950   2.014  10.163   2.090 -0.3234 -0.7593  0.4171
   45MOL0     C 5951   1.929  10.295   2.059  0.0500  0.0670  0.2903
   45MOL0     C 5952   1.964  10.371   1.926 -0.5983  0.3892  0.7124
   45MOL0     C 5953   1.869  10.476   1.885  0.6889 -0.3119  0.0397
   45MOL0     C 5954   1.869  10.590   1.990 -0.8308  0.1888 -0.4461
   45MOL0     C 5955   1.817  10.722   1.933 -0.2789 -0.0281 -0.0094
   45MOL0     C 5956   1.810  10.828   2.041 -0.5439 -0.4986 -0.2699
   45MOL0     N 5957   1.956  10.876   2.071 -0.3998 -0.0473  0.0657
   45MOL0     C 5958   2.003  11.005   2.053 -0.1863 -0.7725 -1.1275
   45MOL0     C 5959   2.124  11.006   2.114 -0.1129 -0.4381 -0.0395
   45MOL0     C 5960   2.205  11.137   2.126 -0.2394  0.3064 -1.1609
   45MOL0     C 5961   2.348  11.118   2.189 -0.0128  0.2085 -0.1447
   45MOL0     C 5962   2.447  11.223   2.138 -0.5828 -0.5162  0.7105
   45MOL0     C 5963   2.573  11.216   2.218  0.5344  0.2470  0.3686
   45MOL0     O 5964   2.682  11.249   2.127  0.3683  0.1533 -0.4189
   45MOL0     C 5965   2.802  11.185   2.151 -0.4017  0.0800  0.0280
   45MOL0     C 5966   2.873  11.196   2.274  0.4080  0.0673  0.7504
   45MOL0     C 5967   3.015  11.149   2.279  0.1927  0.1904 -0.2284
   45MOL0     C 5968   3.070  11.089   2.167  0.5517  0.0964 -0.1991
   45MOL0     C 5969   3.214  11.046   2.161  0.3555  0.9990  0.9166
   45MOL0     O 5970   3.286  11.039   2.272 -0.4496  0.7731  0.5325
   45MOL0     C 5971   3.422  11.013   2.289  1.0365  0.1659 -0.5034
   45MOL0     C 5972   3.454  10.976   2.417 -0.2731  0.1267 -0.4011
   45MOL0     C 5973   3.576  10.913   2.442  0.0589  0.6604 -0.8588
   45MOL0     C 5974   3.669  10.887   2.331 -0.3729  0.2669 -0.3270
   45MOL0     O 5975   3.779  10.807   2.346 -0.3329 -0.3417 -0.0011
   45MOL0     C 5976   3.905  10.879   2.331  0.2498  0.4312  0.4055
   45MOL0     C 5977   4.009  10.773   2.350  0.8370 -0.2040 -0.8524
   45MOL0     C 5978   4.152  10.820   2.336 -0.9997  0.0351  0.1864
   45MOL0     C 5979   4.195  10.874   2.466 -0.3631 -0.2667 -0.3977
   45MOL0     C 5980   4.313  10.971   2.454 -0.2034 -0.7320  0.3885
   45MOL0     C 5981   4.403  10.978   2.580 -0.3015 -0.4334 -0.4089
   45MOL0     C 5982   4.528  11.065   2.563  0.4979  0.1795 -0.4787
   45MOL0     C 5983   4.642  11.041   2.672  0.0385  0.8189  0.2241
   45MOL0    Cl 5984   4.745  10.901   2.648 -0.3863  0.2567  0.2466
   45MOL0     C 5985   3.636  10.951   2.206 -1.1876  0.5125  0.3498
   45MOL0     C 5986   3.516  11.019   2.189  0.8467  0.4774  0.6292
   45MOL0     O 5987   3.259  11.027   2.044 -0.3449 -0.6682 -0.3565
   45MOL0     C 5988   2.990  11.068   2.050  0.1805  0.3885  0.1364
   45MOL0     C 5989   2.866  11.123   2.041 -0.0671  1.0799  0.1823
   45MOL0     N 5990   2.151  10.886   2.175  0.5963 -0.1501 -0.1615
   45MOL0     N 5991   2.044  10.812   2.156 -0.7917 -0.3071 -0.2303
   45MOL0     C 5992   2.436   9.945   2.174  0.2831 -0.0974  0.0204
   45MOL0     C 5993   2.575   9.943   2.187  0.0349  1.0396 -0.0257
   45MOL0     C 5994   3.018  10.054   2.097 -0.4795 -0.3701  0.2644
   45MOL0     C 5995   3.112   9.966   2.035  0.3504 -0.0507 -0.1798
   45MOL0     C 5996   3.247   9.973   2.061  0.2567 -0.5679  1.0138
   45MOL0     C 5997   3.302  10.082   2.132  0.4011 -0.1502  0.2615
   45MOL0     O 5998   3.435  10.096   2.169  0.2969 -0.2003  0.2400
   45MOL0     C 5999   3.531   9.991   2.141 -0.5063 -0.3806  0.7255
   45MOL0     C 6000   3.581   9.983   1.995 -0.0105  0.4397  0.1047
   45MOL0     C 6001   3.607  10.122   1.944  0.0067  0.4855 -0.0234
   45MOL0     C 6002   3.607  10.126   1.799 -0.8383  0.2863  0.3973
   45MOL0     C 6003   3.747  10.088   1.762  0.5874  0.9538  0.2770
   45MOL0     C 6004   3.860  10.066   1.718  0.1257 -0.0714  0.3158
   45MOL0     C 6005   3.215  10.177   2.185  0.1314 -0.5160 -0.8840
   45MOL0     C 6006   3.070  10.162   2.174 -0.1642  0.1676 -0.0275
   45MOL0     C 6007   2.972  10.275   2.239 -0.4183 -0.1081  0.0665
   45MOL0     H 6008   2.666  10.254   2.128 -0.9845  0.4915  2.9543
   45MOL0     H 6009   2.423  10.286   2.106 -2.1574 -0.0476  2.5089
   45MOL0     H 6010   2.169  10.260   2.235  2.1451  0.3874  0.6034
   45MOL0     H 6011   2.202  10.283   2.067 -0.3878  1.8157  1.6980
   45MOL0     H 6012   1.966  10.113   2.175  0.2956  0.3688  1.4690
   45MOL0     H 6013   2.010  10.093   2.006  0.2476 -0.0652 -0.2079
   45MOL0     H 6014   1.940  10.360   2.146  1.7101  1.9098 -1.2102
   45MOL0     H 6015   1.822  10.271   2.061  0.1112 -0.2616  2.5606
   45MOL0     H 6016   2.059  10.424   1.936 -0.4686  0.0601  1.2804
   45MOL0     H 6017   1.976  10.305   1.840 -2.4348  0.9785 -0.0537
   45MOL0     H 6018   1.905  10.521   1.793 -1.6508 -0.1804 -0.8799
   45MOL0     H 6019   1.765  10.447   1.866  0.0822  1.1442  0.8772
   45MOL0     H 6020   1.811  10.555   2.077  2.3068 -3.1940  0.5197
   45MOL0     H 6021   1.971  10.615   2.019 -0.6911  1.1197 -1.7002
   45MOL0     H 6022   1.718  10.695   1.896  0.2302 -1.0450 -0.6499
   45MOL0     H 6023   1.872  10.765   1.849  0.4837  0.6098  0.7900
   45MOL0     H 6024   1.745  10.912   2.017  0.2862  0.5219  0.9378
   45MOL0     H 6025   1.777  10.779   2.133 -0.9758 -0.1004 -0.2097
   45MOL0     H 6026   1.945  11.083   2.005  1.5691 -0.5591 -3.0301
   45MOL0     H 6027   2.208  11.174   2.023 -2.8160 -2.5323 -2.4233
   45MOL0     H 6028   2.155  11.216   2.183  0.0298 -2.0119  2.6265
   45MOL0     H 6029   2.337  11.113   2.297  1.2496 -0.2094 -0.0254
   45MOL0     H 6030   2.393  11.025   2.154  0.4407  1.6351 -3.8589
   45MOL0     H 6031   2.400  11.321   2.149  0.4791 -0.0623  1.3834
   45MOL0     H 6032   2.471  11.208   2.032  1.2671 -2.4854  1.3281
   45MOL0     H 6033   2.586  11.111   2.245 -0.5417 -1.0101 -3.3956
   45MOL0     H 6034   2.571  11.276   2.309 -0.4689 -1.3280  1.4138
   45MOL0     H 6035   2.831  11.254   2.355 -1.8448  2.7976 -2.1321
   45MOL0     H 6036   3.079  11.173   2.364 -2.4685  2.1126  1.4156
   45MOL0     H 6037   3.380  10.980   2.497  1.0880  1.0011  0.8705
   45MOL0     H 6038   3.614  10.870   2.534 -0.0695  1.9038 -0.2062
   45MOL0     H 6039   3.924  10.921   2.232 -1.4099  1.9788  0.6842
   45MOL0     H 6040   3.912  10.965   2.398  1.6895 -0.2482  1.1721
   45MOL0     H 6041   4.002  10.723   2.447  2.1675  0.1176 -0.5673
   45MOL0     H 6042   3.984  10.697   2.276 -1.4668 -3.8771  3.2154
   45MOL0     H 6043   4.216  10.740   2.299 -1.8868  0.1421 -1.7322
   45MOL0     H 6044   4.153  10.898   2.259 -1.9564  1.3016  1.4082
   45MOL0     H 6045   4.225  10.790   2.529 -1.5997  0.0652  0.6669
   45MOL0     H 6046   4.109  10.914   2.521 -1.6215 -0.4320 -2.1351
   45MOL0     H 6047   4.272  11.073   2.454  2.2335  0.3417 -0.9158
   45MOL0     H 6048   4.381  10.952   2.370  1.6744  4.1631  0.4794
   45MOL0     H 6049   4.348  11.016   2.666  0.9848 -1.2479  0.8266
   45MOL0     H 6050   4.444  10.881   2.610 -1.1499 -0.2417  1.5014
   45MOL0     H 6051   4.497  11.170   2.572 -3.8422 -1.0479  1.5757
   45MOL0     H 6052   4.571  11.047   2.465 -0.5781 -0.4226 -0.8616
   45MOL0     H 6053   4.705  11.130   2.662  1.8956 -0.5756 -1.3704
   45MOL0     H 6054   4.602  11.039   2.773  1.2577 -1.6998  0.7308
   45MOL0     H 6055   3.693  10.922   2.118 -2.4957 -0.2561 -0.2843
   45MOL0     H 6056   3.488  11.056   2.091  0.6852  2.1361  1.2768
   45MOL0     H 6057   3.030  11.025   1.959  0.1633  0.1793  0.2270
   45MOL0     H 6058   2.809  11.128   1.949  2.0949  0.1492 -1.3174
   45MOL0     H 6059   2.379   9.856   2.198 -2.0818  1.2629 -0.1329
   45MOL0     H 6060   2.604   9.841   2.209 -2.8661  0.5481  2.1991
   45MOL0     H 6061   3.087   9.880   1.974  4.6556 -2.0998  0.5820
   45MOL0     H 6062   3.307   9.891   2.024 -0.1026 -1.2128  1.8390
   45MOL0     H 6063   3.486   9.897   2.174 -1.2475  0.1857  1.3534
   45MOL0     H 6064   3.616  10.003   2.210 -1.4669 -0.0238  1.8682
   45MOL0     H 6065   3.517   9.929   1.925  0.0276 -0.6651  0.9036
   45MOL0     H 6066   3.671   9.921   1.999 -0.2800 -0.0033 -0.5878
   45MOL0     H 6067   3.703  10.138   1.994 -0.2865  1.0344  0.3733
   45MOL0     H 6068   3.538  10.197   1.986 -1.6254 -0.4971 -0.8443
   45MOL0     H 6069   3.530  10.070   1.746  0.4719  1.0609 -2.5631
   45MOL0     H 6070   3.599  10.231   1.767 -3.0703 -0.0824 -0.4673
   45MOL0     H 6071   3.957  10.027   1.694 -1.1017 -1.6527 -2.6900
   45MOL0     H 6072   3.266  10.254   2.242  2.0016 -1.5153 -1.1120
   45MOL0     H 6073   2.940  10.246   2.339 -0.5591  3.8792  1.3176
   45MOL0     H 6074   3.020  10.372   2.254  1.3537 -1.0035  0.5142
   45MOL0     H 6075   2.886  10.288   2.172 -0.2216  0.3965 -0.0962
   46MOL0     O 6076   7.873   4.678   8.675  0.0572 -0.6671  0.6777
   46MOL0     C 6077   7.895   4.587   8.747  0.0714  1.3856  0.4907
   46MOL0     O 6078   8.017   4.529   8.789  0.1622 -0.4801  0.4138
   46MOL0     C 6079   8.145   4.553   8.739  1.1029  0.6543  0.5568
   46MOL0     C 6080   8.248   4.466   8.775  0.2836 -0.3328  0.0664
   46MOL0     C 6081   8.365   4.462   8.703 -0.2614 -0.4506  0.4187
   46MOL0     C 6082   8.390   4.553   8.606 -1.1546  0.4600  0.5258
   46MOL0     O 6083   8.508   4.554   8.533  0.0305  0.2073 -0.3132
   46MOL0     C 6084   8.624   4.538   8.613 -0.1711  0.8780 -0.1080
   46MOL0     C 6085   8.744   4.555   8.516  0.3063 -0.3265  0.1354
   46MOL0     C 6086   8.880   4.548   8.587 -0.0363  0.8948 -0.3992
   46MOL0     C 6087   8.990   4.569   8.489  0.4481  0.8354  0.5436
   46MOL0     C 6088   9.130   4.599   8.547  0.3456 -0.2812  0.5392
   46MOL0     C 6089   9.238   4.615   8.437  0.5703  0.6099 -0.0682
   46MOL0     C 6090   9.373   4.640   8.508  0.2813 -0.2815  0.4738
   46MOL0     C 6091   9.484   4.616   8.397  0.7096 -0.0332  0.3749
   46MOL0     N 6092   9.613   4.639   8.466 -0.2648  0.3602  0.2872
   46MOL0     C 6093   9.716   4.549   8.466  0.0742 -0.1604  0.0150
   46MOL0     C 6094   9.812   4.601   8.545 -0.0016 -0.9638 -0.4034
   46MOL0     C 6095   9.942   4.548   8.595 -0.3451  0.3506  0.5928
   46MOL0     C 6096   9.901   4.467   8.716  0.2887  0.3345 -0.7288
   46MOL0     C 6097  10.027   4.433   8.792  0.8069  0.6399  0.5231
   46MOL0     C 6098   9.981   4.370   8.930  0.7981 -0.5243  0.6353
   46MOL0     O 6099  10.078   4.282   8.987 -0.7750 -0.3225  0.2612
   46MOL0     C 6100  10.181   4.336   9.063 -0.3323 -1.0739 -0.3643
   46MOL0     C 6101  10.262   4.255   9.152  0.6445 -1.2350 -0.8526
   46MOL0     C 6102  10.363   4.302   9.224 -0.2575  0.6050 -1.0848
   46MOL0     C 6103  10.398   4.434   9.216 -0.2664 -1.3424  0.5321
   46MOL0     C 6104  10.519   4.481   9.290 -0.0371  0.0642  0.4821
   46MOL0     O 6105  10.601   4.380   9.333  1.1307 -0.6276  0.2711
   46MOL0     C 6106  10.717   4.424   9.394  0.7709  0.4963 -0.5003
   46MOL0     C 6107  10.745   4.388   9.522  0.2661 -0.2449 -0.3889
   46MOL0     C 6108  10.872   4.420   9.574 -0.3970 -0.5452 -0.2472
   46MOL0     C 6109  10.960   4.504   9.509 -0.6080 -0.3716  0.2181
   46MOL0     O 6110  11.074   4.540   9.576 -0.7979 -0.0815 -0.3711
   46MOL0     C 6111  11.154   4.637   9.517 -0.2243  0.1581  0.1424
   46MOL0     C 6112  11.287   4.659   9.588 -0.2473 -0.4547 -0.4283
   46MOL0     C 6113  11.266   4.677   9.738 -1.0926 -0.2386  0.3110
   46MOL0     C 6114  11.394   4.734   9.803  1.3972  0.5037  0.4886
   46MOL0     C 6115  11.388   4.890   9.796  0.1300  0.2164  0.1168
   46MOL0     C 6116  11.277   4.964   9.876 -0.1143 -0.7334  0.0960
   46MOL0     C 6117  11.284   4.940  10.025 -0.0320  0.0315 -0.6621
   46MOL0     C 6118  11.237   5.050  10.120 -0.0082  0.1901  0.2059
   46MOL0    Cl 6119  11.060   5.055  10.099  0.3040  0.3576  0.0763
   46MOL0     C 6120  10.928   4.549   9.381 -0.7568 -0.6885 -1.0380
   46MOL0     C 6121  10.807   4.506   9.322  0.2534  1.6784 -1.0100
   46MOL0     O 6122  10.538   4.605   9.288  0.0245  0.4712  0.0591
   46MOL0     C 6123  10.326   4.528   9.136  0.9752 -0.2282  0.9324
   46MOL0     C 6124  10.212   4.477   9.072 -0.1951 -0.4311  0.3990
   46MOL0     N 6125   9.755   4.716   8.602  0.4654 -0.2626 -0.3418
   46MOL0     N 6126   9.634   4.736   8.560  0.5827 -0.1782  0.9941
   46MOL0     C 6127   8.298   4.646   8.577  0.2448 -0.6294 -0.1403
   46MOL0     C 6128   8.172   4.640   8.632 -0.2524 -0.4353 -0.8650
   46MOL0     C 6129   7.783   4.529   8.829  0.5025  0.0780 -0.3902
   46MOL0     C 6130   7.807   4.431   8.924 -0.0114 -1.3084 -0.5683
   46MOL0     C 6131   7.703   4.385   9.006 -0.1526 -0.4805  0.8759
   46MOL0     C 6132   7.571   4.421   8.979 -0.2956  0.1431 -0.9123
   46MOL0     O 6133   7.487   4.336   9.050 -0.1662  0.1002  0.3760
   46MOL0     C 6134   7.347   4.335   9.007 -0.0533 -0.6173  0.6329
   46MOL0     C 6135   7.292   4.198   9.055  0.6299  0.8355 -0.0326
   46MOL0     C 6136   7.272   4.180   9.199  0.7396 -0.4545 -0.0953
   46MOL0     C 6137   7.272   4.034   9.236 -0.1881  0.5309  0.5466
   46MOL0     C 6138   7.177   3.963   9.152 -0.0899  0.3123  0.5182
   46MOL0     C 6139   7.100   3.892   9.092  0.6595  0.6914 -0.0166
   46MOL0     C 6140   7.540   4.512   8.880 -0.4680 -0.3020  0.1476
   46MOL0     C 6141   7.646   4.568   8.806 -0.6601  0.0582 -0.5442
   46MOL0     C 6142   7.588   4.676   8.712 -1.2310  0.0287 -0.2579
   46MOL0     H 6143   8.226   4.403   8.861  0.0214  0.0438  0.2795
   46MOL0     H 6144   8.438   4.387   8.731  1.2792  0.9695  0.4471
   46MOL0     H 6145   8.620   4.618   8.686  0.4118 -2.5497  4.0835
   46MOL0     H 6146   8.633   4.437   8.656  0.7160  0.5216 -1.0787
   46MOL0     H 6147   8.745   4.657   8.477  0.8793  0.9791  3.2741
   46MOL0     H 6148   8.736   4.485   8.432  2.4033 -2.6886  1.7586
   46MOL0     H 6149   8.898   4.455   8.642 -1.1329  1.0458  0.2452
   46MOL0     H 6150   8.885   4.638   8.649  2.3245  1.6774 -1.6063
   46MOL0     H 6151   8.990   4.477   8.429  1.8367  0.2067  1.4643
   46MOL0     H 6152   8.961   4.656   8.429 -0.8677  1.2421  1.7471
   46MOL0     H 6153   9.120   4.691   8.606 -1.0444  1.5317 -2.2415
   46MOL0     H 6154   9.170   4.520   8.610  1.3217 -1.6614 -1.6882
   46MOL0     H 6155   9.240   4.519   8.383 -1.3600 -2.3683  4.5074
   46MOL0     H 6156   9.234   4.697   8.365  3.4218  1.6882  0.8735
   46MOL0     H 6157   9.398   4.571   8.589  0.4113 -0.8592 -0.0502
   46MOL0     H 6158   9.378   4.745   8.537  1.3662  0.0261 -0.7022
   46MOL0     H 6159   9.487   4.513   8.359  0.1705 -0.1538  0.6455
   46MOL0     H 6160   9.487   4.685   8.313 -0.7896 -1.1712 -0.6559
   46MOL0     H 6161   9.719   4.460   8.405 -1.2340 -2.6646  3.2845
   46MOL0     H 6162  10.001   4.484   8.529  0.1130 -0.3793  1.6919
   46MOL0     H 6163  10.000   4.636   8.624 -2.1967  2.4854 -1.6681
   46MOL0     H 6164   9.827   4.523   8.775 -0.9894 -0.8789 -1.1315
   46MOL0     H 6165   9.859   4.367   8.703  1.5499 -0.2656 -0.3528
   46MOL0     H 6166  10.078   4.528   8.811  3.0433 -0.5849  0.9470
   46MOL0     H 6167  10.092   4.363   8.740  0.0760 -0.7457  1.4198
   46MOL0     H 6168   9.887   4.317   8.913  1.3280 -0.7940 -1.8156
   46MOL0     H 6169   9.947   4.449   8.998 -0.7034 -0.4443 -0.1556
   46MOL0     H 6170  10.252   4.147   9.150  0.2109 -1.2137  0.0588
   46MOL0     H 6171  10.416   4.232   9.287  1.6295  1.3786 -1.7423
   46MOL0     H 6172  10.686   4.311   9.571  2.2803 -1.8343 -0.3157
   46MOL0     H 6173  10.894   4.379   9.672  1.1302 -3.4654 -1.6927
   46MOL0     H 6174  11.184   4.608   9.416 -0.2796  0.4186  0.0508
   46MOL0     H 6175  11.093   4.727   9.503  1.0038  0.9738 -0.1727
   46MOL0     H 6176  11.360   4.581   9.565 -1.3665 -1.1824 -1.6099
   46MOL0     H 6177  11.344   4.745   9.548  1.1624 -0.6765  1.0111
   46MOL0     H 6178  11.174   4.725   9.773 -0.1219 -0.0849  2.8503
   46MOL0     H 6179  11.245   4.577   9.776 -3.0359  0.3771  0.9943
   46MOL0     H 6180  11.483   4.693   9.756  0.7133 -0.5320  0.0697
   46MOL0     H 6181  11.406   4.699   9.906  0.0077  0.5927  0.6985
   46MOL0     H 6182  11.364   4.918   9.694 -1.5768 -1.1210  0.1061
   46MOL0     H 6183  11.487   4.922   9.829  2.2566 -1.3373 -4.0132
   46MOL0     H 6184  11.282   5.071   9.851  1.7735 -1.0203 -0.9580
   46MOL0     H 6185  11.176   4.933   9.849  0.4937 -1.5847 -1.3278
   46MOL0     H 6186  11.389   4.925  10.049  0.9161  0.7895 -3.8180
   46MOL0     H 6187  11.236   4.844  10.045 -0.9490 -0.0916 -3.0576
   46MOL0     H 6188  11.262   5.034  10.225 -0.6650  4.5103  1.2067
   46MOL0     H 6189  11.281   5.150  10.105  0.1810  0.4209  2.1094
   46MOL0     H 6190  10.987   4.613   9.317 -2.3175  0.8418 -1.0287
   46MOL0     H 6191  10.776   4.553   9.229  0.4682  0.6779 -1.5973
   46MOL0     H 6192  10.347   4.634   9.128  1.6390 -0.3261  1.3061
   46MOL0     H 6193  10.157   4.552   9.015 -2.1124  0.6785  3.4674
   46MOL0     H 6194   8.320   4.720   8.500 -1.7298  0.0832 -0.0821
   46MOL0     H 6195   8.092   4.705   8.598 -1.7343 -1.7552 -0.0227
   46MOL0     H 6196   7.908   4.394   8.938  0.5953  0.7788  1.2583
   46MOL0     H 6197   7.724   4.304   9.075  2.6437  0.6368  1.4628
   46MOL0     H 6198   7.349   4.346   8.898 -2.5726 -0.4986  0.5590
   46MOL0     H 6199   7.288   4.412   9.056 -0.0354 -0.7254  0.8277
   46MOL0     H 6200   7.368   4.128   9.018  1.1789  2.7685 -2.9142
   46MOL0     H 6201   7.196   4.182   9.005  0.7942 -1.3044  0.2319
   46MOL0     H 6202   7.176   4.225   9.224  2.9042  2.8788  3.1952
   46MOL0     H 6203   7.345   4.232   9.262 -0.5551  2.0500 -0.5598
   46MOL0     H 6204   7.370   3.987   9.231  0.1663  1.0180  2.3147
   46MOL0     H 6205   7.255   4.019   9.343  0.6310 -0.1825  0.5808
   46MOL0     H 6206   7.038   3.831   9.030 -1.4417  2.1399  0.5447
   46MOL0     H 6207   7.442   4.554   8.861  1.0968  3.4268 -0.5623
   46MOL0     H 6208   7.480   4.689   8.705 -1.7514 -3.6568 -0.9117
   46MOL0     H 6209   7.641   4.768   8.739  1.7028  0.1487 -5.2093
   46MOL0     H 6210   7.613   4.648   8.609 -0.2938 -3.1058  0.7149
   47MOL0     O 6211   3.501   5.516   4.582  0.0388 -0.2955  0.2815
   47MOL0     C 6212   3.395   5.513   4.522  0.4475 -0.1310 -0.5209
   47MOL0     O 6213   3.361   5.420   4.430 -1.6040  0.3492  0.9688
   47MOL0     C 6214   3.454   5.327   4.384 -0.6487  0.1988 -0.0763
   47MOL0     C 6215   3.592   5.345   4.371  0.6630  0.9644 -0.7725
   47MOL0     C 6216   3.670   5.255   4.307 -0.1482 -0.0999  0.1524
   47MOL0     C 6217   3.616   5.132   4.257 -0.2902  0.0485  0.5225
   47MOL0     O 6218   3.693   5.027   4.196 -0.7457 -0.3039  0.3863
   47MOL0     C 6219   3.838   5.043   4.204 -0.1982 -0.7683  0.1492
   47MOL0     C 6220   3.913   4.914   4.181  0.3966  0.2301  0.5235
   47MOL0     C 6221   4.067   4.930   4.179 -0.3050 -0.3919 -0.8347
   47MOL0     C 6222   4.134   4.909   4.313  0.4982  0.2671 -0.0067
   47MOL0     C 6223   4.285   4.957   4.336 -0.1113 -0.3221 -0.0864
   47MOL0     C 6224   4.302   5.102   4.365 -0.2291  0.4457 -0.1717
   47MOL0     C 6225   4.305   5.200   4.246 -0.3492 -0.9537  0.4070
   47MOL0     C 6226   4.444   5.261   4.230 -1.1742  0.1835  0.5409
   47MOL0     N 6227   4.467   5.376   4.134  0.8442 -0.1090  0.0393
   47MOL0     C 6228   4.577   5.400   4.066 -0.7575  0.0674  0.0892
   47MOL0     C 6229   4.599   5.535   4.061 -0.0272  0.8756  0.2248
   47MOL0     C 6230   4.711   5.606   3.980  0.6445  0.2910 -0.3802
   47MOL0     C 6231   4.833   5.629   4.065 -0.6314  0.0820 -0.4989
   47MOL0     C 6232   4.859   5.778   4.093  1.3911  0.0175 -0.3659
   47MOL0     C 6233   5.007   5.803   4.100  0.0800 -0.1623  0.1962
   47MOL0     O 6234   5.074   5.713   4.182  0.9694 -0.1166  0.5166
   47MOL0     C 6235   5.208   5.701   4.160 -0.8481  0.4003 -0.7008
   47MOL0     C 6236   5.272   5.598   4.236 -0.2152  0.2640  0.7494
   47MOL0     C 6237   5.408   5.576   4.209  1.0966 -0.2603 -0.7950
   47MOL0     C 6238   5.487   5.656   4.131 -0.6615 -0.5886  0.0492
   47MOL0     C 6239   5.630   5.634   4.109  1.2215 -0.6168  0.2419
   47MOL0     O 6240   5.688   5.523   4.170  0.2381 -0.2783  0.5941
   47MOL0     C 6241   5.828   5.512   4.179 -0.0174  0.1787  1.3611
   47MOL0     C 6242   5.895   5.402   4.131 -0.2932 -0.4325  0.4372
   47MOL0     C 6243   6.035   5.388   4.152 -0.4398  0.2777 -0.0508
   47MOL0     C 6244   6.109   5.490   4.222  0.8962 -0.5573  0.2069
   47MOL0     O 6245   6.246   5.479   4.240 -0.0646 -0.7125  0.1197
   47MOL0     C 6246   6.318   5.590   4.288  0.1843  0.2111  0.1979
   47MOL0     C 6247   6.465   5.545   4.274 -0.3147 -0.5415  0.0010
   47MOL0     C 6248   6.582   5.655   4.297  0.2599  0.8329  0.0942
   47MOL0     C 6249   6.712   5.590   4.253  0.3955  0.2004  0.1816
   47MOL0     C 6250   6.816   5.685   4.308 -0.6360 -0.0464 -0.1361
   47MOL0     C 6251   6.966   5.650   4.274  0.1052 -0.4746  0.0448
   47MOL0     C 6252   7.075   5.722   4.356 -0.4152  0.0585  0.1791
   47MOL0     C 6253   7.101   5.647   4.487 -0.1572  0.5039 -0.0170
   47MOL0    Cl 6254   7.220   5.735   4.586  0.2379 -0.2534  0.0402
   47MOL0     C 6255   6.038   5.603   4.266 -0.1350  0.5974 -0.9250
   47MOL0     C 6256   5.899   5.613   4.251  0.1218 -0.4970  0.1102
   47MOL0     O 6257   5.692   5.725   4.045 -0.2125  0.5832  0.3064
   47MOL0     C 6258   5.425   5.766   4.069 -0.0252 -0.2682 -0.8133
   47MOL0     C 6259   5.290   5.788   4.085 -0.3000 -0.1829 -0.8079
   47MOL0     N 6260   4.488   5.597   4.118 -0.2089 -0.8141  0.3714
   47MOL0     N 6261   4.408   5.499   4.162 -0.5048  0.4256  0.1677
   47MOL0     C 6262   3.479   5.107   4.276 -0.1886  0.9371 -0.4346
   47MOL0     C 6263   3.396   5.208   4.341 -1.2286  0.7699  0.0321
   47MOL0     C 6264   3.291   5.614   4.578  0.3358  0.4626  0.9640
   47MOL0     C 6265   3.160   5.583   4.568 -0.6101 -0.8990  1.1845
   47MOL0     C 6266   3.051   5.664   4.610 -0.0120  0.4003 -1.2418
   47MOL0     C 6267   3.077   5.792   4.663 -0.3960  0.3185 -0.1941
   47MOL0     O 6268   2.971   5.881   4.684 -0.2744 -1.5430 -0.2804
   47MOL0     C 6269   2.846   5.825   4.725 -0.3064 -0.1084  0.5320
   47MOL0     C 6270   2.777   5.891   4.848 -0.6872 -0.3889 -0.2119
   47MOL0     C 6271   2.663   5.812   4.894  0.5495  1.2055 -0.5430
   47MOL0     C 6272   2.576   5.888   4.984 -0.0851 -0.7514  0.5751
   47MOL0     C 6273   2.443   5.827   4.976 -0.1755  0.0973 -0.3121
   47MOL0     C 6274   2.332   5.778   4.976 -0.9711 -0.3938 -0.1232
   47MOL0     C 6275   3.219   5.833   4.672 -0.0566  0.6345  0.1430
   47MOL0     C 6276   3.320   5.741   4.626  0.5775  0.1036  0.7832
   47MOL0     C 6277   3.452   5.807   4.610 -0.0631 -1.1466  0.6214
   47MOL0     H 6278   3.626   5.444   4.399 -1.5032  1.1642  1.3969
   47MOL0     H 6279   3.774   5.283   4.302 -0.1348 -0.0126 -4.9898
   47MOL0     H 6280   3.868   5.092   4.111 -3.0059  0.0758 -0.4019
   47MOL0     H 6281   3.872   5.104   4.288  0.1144  0.9078 -1.1443
   47MOL0     H 6282   3.880   4.867   4.088 -1.7887  0.0636  1.3239
   47MOL0     H 6283   3.882   4.842   4.257 -1.8632  3.7514  3.2576
   47MOL0     H 6284   4.096   5.027   4.137  0.1521 -0.5297 -0.8490
   47MOL0     H 6285   4.116   4.859   4.111  0.5675  1.2391 -1.9910
   47MOL0     H 6286   4.072   4.969   4.381 -0.1443 -0.6634  0.2359
   47MOL0     H 6287   4.113   4.808   4.348 -0.2360  1.0398  1.9355
   47MOL0     H 6288   4.334   4.895   4.412  1.3599 -1.0107 -1.5319
   47MOL0     H 6289   4.347   4.931   4.249  0.8018  1.4263  0.0002
   47MOL0     H 6290   4.227   5.135   4.438 -0.2575  1.6439 -0.7059
   47MOL0     H 6291   4.395   5.102   4.423  0.2009 -2.3749 -0.7332
   47MOL0     H 6292   4.232   5.282   4.246  2.2126  1.4991 -0.4806
   47MOL0     H 6293   4.289   5.145   4.153 -1.0002  1.0541 -0.7267
   47MOL0     H 6294   4.481   5.293   4.328 -1.6832  0.4290  0.6539
   47MOL0     H 6295   4.504   5.173   4.205 -0.4361  0.2031  2.1216
   47MOL0     H 6296   4.649   5.328   4.028  0.0496  0.3486  1.0362
   47MOL0     H 6297   4.735   5.537   3.899  2.0536 -1.6101  1.5677
   47MOL0     H 6298   4.678   5.702   3.939  0.5283  0.4649  0.1150
   47MOL0     H 6299   4.839   5.577   4.161 -2.2907 -0.6882 -0.7727
   47MOL0     H 6300   4.914   5.594   4.002 -1.3548  0.8028 -1.8844
   47MOL0     H 6301   4.809   5.797   4.189  0.7561  1.5473 -0.9824
   47MOL0     H 6302   4.821   5.844   4.015 -1.5819 -1.3315 -0.1995
   47MOL0     H 6303   5.024   5.903   4.143  2.4697 -1.0078  1.4162
   47MOL0     H 6304   5.039   5.800   3.996  1.1288 -0.2443  0.5060
   47MOL0     H 6305   5.214   5.525   4.290  0.7072 -0.4365  0.8105
   47MOL0     H 6306   5.448   5.490   4.262  0.0442  0.3087  1.0346
   47MOL0     H 6307   5.846   5.322   4.076 -1.1840  0.3480  0.0707
   47MOL0     H 6308   6.091   5.300   4.123 -2.1082 -2.1033  3.2456
   47MOL0     H 6309   6.297   5.683   4.235 -0.8298 -1.8703 -3.3796
   47MOL0     H 6310   6.303   5.612   4.394  1.8480  0.9259  0.3123
   47MOL0     H 6311   6.486   5.465   4.345 -1.2964  0.3926  1.3898
   47MOL0     H 6312   6.481   5.509   4.172  0.1486 -5.3300  1.5541
   47MOL0     H 6313   6.567   5.739   4.229 -0.2214  0.9145  0.2975
   47MOL0     H 6314   6.583   5.675   4.405 -0.4951 -2.2925  0.7956
   47MOL0     H 6315   6.720   5.581   4.145  2.7992 -0.0163  0.3268
   47MOL0     H 6316   6.724   5.488   4.290 -0.2665  1.1780  3.4963
   47MOL0     H 6317   6.807   5.692   4.417  5.0145  1.0410  0.6031
   47MOL0     H 6318   6.797   5.789   4.281  5.0485  0.6970 -2.9582
   47MOL0     H 6319   6.987   5.543   4.277  3.8518  0.1337  1.8511
   47MOL0     H 6320   6.972   5.683   4.170 -1.5686  5.2746  1.4088
   47MOL0     H 6321   7.055   5.827   4.380  0.8213  0.1328  0.9931
   47MOL0     H 6322   7.171   5.710   4.304 -2.0105 -1.0483 -2.7391
   47MOL0     H 6323   7.003   5.642   4.535 -0.1761 -1.4244 -0.1562
   47MOL0     H 6324   7.135   5.545   4.467 -1.2813  0.3331 -1.1834
   47MOL0     H 6325   6.098   5.679   4.314  1.3647 -0.5444 -0.8922
   47MOL0     H 6326   5.840   5.700   4.281  1.0368  0.3574 -0.4817
   47MOL0     H 6327   5.478   5.842   4.012  0.4736  0.1005  0.1055
   47MOL0     H 6328   5.255   5.881   4.041  0.8078 -0.1573 -1.6970
   47MOL0     H 6329   3.416   5.023   4.248 -0.6208  1.7130 -1.9160
   47MOL0     H 6330   3.289   5.193   4.353 -0.9368 -1.2797  0.5295
   47MOL0     H 6331   3.136   5.488   4.522 -0.3980  0.3733 -1.8361
   47MOL0     H 6332   2.951   5.627   4.591  0.4498 -0.1173 -2.8044
   47MOL0     H 6333   2.864   5.722   4.757 -0.2123 -0.7454 -1.4842
   47MOL0     H 6334   2.771   5.823   4.645 -0.9719  0.2532  1.1312
   47MOL0     H 6335   2.745   5.993   4.824 -2.4811 -0.5308  1.3362
   47MOL0     H 6336   2.843   5.899   4.934 -0.0863 -0.5494 -0.6495
   47MOL0     H 6337   2.708   5.727   4.945 -0.0922  0.9909 -0.3180
   47MOL0     H 6338   2.602   5.779   4.809 -4.6163  0.6438  2.8726
   47MOL0     H 6339   2.597   5.892   5.092 -4.2430  1.0678  1.5135
   47MOL0     H 6340   2.573   5.992   4.949  0.4692 -0.6253  0.8851
   47MOL0     H 6341   2.240   5.723   4.969 -0.6150 -0.8351 -2.0478
   47MOL0     H 6342   3.243   5.934   4.706  1.5894 -0.1062  1.2980
   47MOL0     H 6343   3.519   5.791   4.695  2.5149 -2.2582 -1.4906
   47MOL0     H 6344   3.494   5.786   4.512 -2.1263  1.4833 -0.9827
   47MOL0     H 6345   3.449   5.916   4.602  1.2469 -1.2157 -1.5706
   48MOL0     O 6346   3.475   2.695   8.125  0.2471 -0.4185  0.3914
   48MOL0     C 6347   3.450   2.808   8.110  0.5588 -0.3095 -0.0286
   48MOL0     O 6348   3.542   2.905   8.123  0.2461 -1.0495  0.2133
   48MOL0     C 6349   3.676   2.866   8.133 -0.2564  1.1411 -0.3100
   48MOL0     C 6350   3.742   2.822   8.018 -0.4283  0.4104 -1.7233
   48MOL0     C 6351   3.879   2.787   8.026 -0.2816  0.9692  0.7694
   48MOL0     C 6352   3.952   2.806   8.143 -0.1498  0.0954 -0.7333
   48MOL0     O 6353   4.083   2.757   8.181  0.2033 -0.8550 -0.0647
   48MOL0     C 6354   4.176   2.724   8.073  0.3931 -0.4112  1.2559
   48MOL0     C 6355   4.275   2.841   8.046  0.9457  0.7191 -0.2988
   48MOL0     C 6356   4.372   2.867   8.167  0.1242 -0.7225  0.8703
   48MOL0     C 6357   4.497   2.771   8.171  0.5146  0.6387 -0.3350
   48MOL0     C 6358   4.595   2.823   8.271  0.6318  0.3227  0.6917
   48MOL0     C 6359   4.678   2.949   8.216 -0.4436 -0.9345  0.5866
   48MOL0     C 6360   4.799   2.986   8.308  0.7580 -0.1796  0.0933
   48MOL0     C 6361   4.912   2.888   8.287 -0.1240  0.2556 -0.7807
   48MOL0     N 6362   5.022   2.950   8.354 -0.3536 -0.3735  0.2687
   48MOL0     C 6363   5.034   2.948   8.485  0.1462  0.8645 -0.6208
   48MOL0     C 6364   5.155   2.989   8.498  0.6096  0.2756 -0.5106
   48MOL0     C 6365   5.222   2.997   8.631  0.8159  0.3233 -0.1305
   48MOL0     C 6366   5.159   3.126   8.690 -0.1784 -0.4876 -0.2436
   48MOL0     C 6367   5.194   3.250   8.617 -0.3243  0.0916 -0.0631
   48MOL0     C 6368   5.350   3.266   8.616  0.2720  0.3052  0.2433
   48MOL0     O 6369   5.397   3.275   8.749 -0.1175 -0.4902 -0.3252
   48MOL0     C 6370   5.535   3.274   8.773  0.0292  0.4515 -0.3592
   48MOL0     C 6371   5.630   3.316   8.680 -0.3132  0.3308 -0.6750
   48MOL0     C 6372   5.756   3.344   8.729 -0.3896 -0.1452 -0.1098
   48MOL0     C 6373   5.786   3.339   8.868 -1.6989  0.0869  0.8958
   48MOL0     C 6374   5.921   3.363   8.934  0.0860  0.4447 -0.5043
   48MOL0     O 6375   5.937   3.367   9.067 -0.1915 -0.6351  0.1012
   48MOL0     C 6376   6.064   3.381   9.116  0.3844 -0.7587 -0.0102
   48MOL0     C 6377   6.117   3.276   9.196 -1.1145  0.0871 -0.3564
   48MOL0     C 6378   6.243   3.286   9.249 -0.1457 -0.0923 -0.6584
   48MOL0     C 6379   6.329   3.398   9.221  0.3538 -0.5065 -0.4886
   48MOL0     O 6380   6.461   3.418   9.247 -0.2406 -0.5818 -0.2286
   48MOL0     C 6381   6.521   3.344   9.350 -0.9721  0.9351  0.5158
   48MOL0     C 6382   6.655   3.398   9.392 -0.0239 -0.4434  0.1045
   48MOL0     C 6383   6.741   3.449   9.272  0.0980  0.1205  0.9620
   48MOL0     C 6384   6.873   3.485   9.318 -0.4635 -0.2708 -0.1660
   48MOL0     C 6385   6.875   3.572   9.451 -0.4774 -0.1546  0.1076
   48MOL0     C 6386   6.996   3.667   9.442 -0.5018 -0.0776  0.2784
   48MOL0     C 6387   7.136   3.589   9.450  0.9447 -0.5039 -0.5396
   48MOL0     C 6388   7.245   3.699   9.452  0.0773 -0.2415 -0.1262
   48MOL0    Cl 6389   7.275   3.737   9.627  0.0660  0.0236  0.0557
   48MOL0     C 6390   6.275   3.499   9.142 -0.8777 -0.1273  0.4991
   48MOL0     C 6391   6.142   3.490   9.094  0.1845 -0.2264  1.2040
   48MOL0     O 6392   6.013   3.349   8.850 -0.1693  0.7849  0.3632
   48MOL0     C 6393   5.687   3.298   8.948 -0.1563  0.6475 -0.6082
   48MOL0     C 6394   5.563   3.264   8.904 -0.2969 -0.1725  0.7165
   48MOL0     N 6395   5.213   3.024   8.377 -0.1298 -0.0347  0.5382
   48MOL0     N 6396   5.124   3.006   8.287 -0.0797 -0.4517  0.0070
   48MOL0     C 6397   3.886   2.847   8.260 -0.3919 -0.8384 -1.2427
   48MOL0     C 6398   3.750   2.881   8.252  0.5743  0.7114  0.0761
   48MOL0     C 6399   3.311   2.845   8.084  0.2405  0.1389 -0.5251
   48MOL0     C 6400   3.213   2.809   8.175 -0.1082  0.6984  0.2772
   48MOL0     C 6401   3.070   2.822   8.144  0.2435 -0.3031  0.3126
   48MOL0     C 6402   3.041   2.911   8.035 -0.4348  0.2787  0.3700
   48MOL0     O 6403   2.914   2.948   7.995 -0.4432  0.6893 -0.1344
   48MOL0     C 6404   2.801   2.876   8.042 -0.0883  0.5370  0.1931
   48MOL0     C 6405   2.671   2.960   8.018  0.0457 -0.8397 -0.5749
   48MOL0     C 6406   2.681   3.105   8.080 -1.1319 -0.3712 -0.2934
   48MOL0     C 6407   2.726   3.113   8.230  0.7150  1.1336  0.0643
   48MOL0     C 6408   2.610   3.113   8.324 -0.6598  0.5580 -0.0616
   48MOL0     C 6409   2.530   3.118   8.412 -0.0044  0.9090 -1.1199
   48MOL0     C 6410   3.139   2.956   7.953  0.1295  0.4731  0.4881
   48MOL0     C 6411   3.274   2.914   7.969  0.0744  0.3320 -1.0721
   48MOL0     C 6412   3.375   2.952   7.865 -0.4048 -0.9172 -0.9715
   48MOL0     H 6413   3.684   2.815   7.926 -1.5632 -1.2209 -0.9466
   48MOL0     H 6414   3.925   2.755   7.933 -1.2535 -1.8446  1.1474
   48MOL0     H 6415   4.224   2.631   8.105 -2.0801 -2.0535  0.4603
   48MOL0     H 6416   4.131   2.683   7.983  1.6098 -0.3971  0.6116
   48MOL0     H 6417   4.212   2.928   8.024 -4.0291 -2.3106  0.4529
   48MOL0     H 6418   4.322   2.828   7.948 -2.2203  3.6049 -2.4542
   48MOL0     H 6419   4.322   2.880   8.264  0.3869  1.6733  0.7372
   48MOL0     H 6420   4.411   2.967   8.147  0.7105 -0.2963  3.7246
   48MOL0     H 6421   4.461   2.673   8.204 -1.2885  1.0545 -0.9762
   48MOL0     H 6422   4.544   2.771   8.072 -0.3933  0.0452 -0.7688
   48MOL0     H 6423   4.534   2.852   8.357  0.8889 -1.6583  1.5975
   48MOL0     H 6424   4.647   2.730   8.297 -1.1512 -1.1589 -0.7791
   48MOL0     H 6425   4.724   2.927   8.119 -2.0016  1.9999 -0.9748
   48MOL0     H 6426   4.612   3.035   8.202  0.6470 -0.0616  0.7383
   48MOL0     H 6427   4.769   2.983   8.413  0.5640 -1.4599  0.0184
   48MOL0     H 6428   4.837   3.082   8.272 -0.8582  1.2377  1.9597
   48MOL0     H 6429   4.886   2.793   8.335  1.6644 -0.7295 -1.6672
   48MOL0     H 6430   4.945   2.858   8.187  3.1735  0.6713  0.0738
   48MOL0     H 6431   4.959   2.910   8.553 -1.1984  1.8801 -1.4784
   48MOL0     H 6432   5.205   2.904   8.685 -0.2723  0.6864  0.1750
   48MOL0     H 6433   5.331   3.006   8.621  0.9954  0.4646  1.6580
   48MOL0     H 6434   5.050   3.118   8.685 -0.3734  1.8392 -1.2553
   48MOL0     H 6435   5.176   3.153   8.794 -0.0690 -0.2369 -0.3239
   48MOL0     H 6436   5.152   3.336   8.669  0.5791  0.4855  0.0321
   48MOL0     H 6437   5.149   3.247   8.517  2.9802  0.9247 -1.7495
   48MOL0     H 6438   5.371   3.363   8.569  2.0770 -0.4494 -0.5860
   48MOL0     H 6439   5.398   3.185   8.561 -1.1091 -1.4515  1.5251
   48MOL0     H 6440   5.605   3.324   8.574  0.2566  1.7031 -0.7282
   48MOL0     H 6441   5.837   3.358   8.658 -2.7302  1.0960 -2.7560
   48MOL0     H 6442   6.037   3.214   9.234 -2.2586  0.7820 -1.5556
   48MOL0     H 6443   6.289   3.209   9.309  0.2320  0.4300 -0.2608
   48MOL0     H 6444   6.460   3.345   9.440 -1.1588 -1.4984  0.4867
   48MOL0     H 6445   6.541   3.242   9.314  0.5998  0.5955  2.2282
   48MOL0     H 6446   6.629   3.480   9.460  0.3703 -1.2381  1.2367
   48MOL0     H 6447   6.705   3.318   9.448  1.0979 -0.7841 -1.3267
   48MOL0     H 6448   6.733   3.374   9.193 -1.7108  1.1128  0.1327
   48MOL0     H 6449   6.688   3.536   9.233  1.1434  0.4647  0.3043
   48MOL0     H 6450   6.921   3.536   9.234 -1.7338  3.4586  1.1890
   48MOL0     H 6451   6.911   3.385   9.342 -1.6729 -0.6300  0.3079
   48MOL0     H 6452   6.885   3.518   9.545 -2.5461 -0.2564  0.3094
   48MOL0     H 6453   6.782   3.628   9.468 -1.5582 -1.1738 -2.0768
   48MOL0     H 6454   6.987   3.730   9.353 -0.3995 -0.4523  0.0011
   48MOL0     H 6455   6.990   3.738   9.526 -0.4929  0.5436 -0.2362
   48MOL0     H 6456   7.155   3.520   9.367  0.7967 -0.8177 -0.3157
   48MOL0     H 6457   7.146   3.538   9.546  0.6546  0.3231 -0.0687
   48MOL0     H 6458   7.338   3.662   9.409 -0.7688 -3.1893  0.3042
   48MOL0     H 6459   7.214   3.789   9.399  0.7917  1.9045  2.8147
   48MOL0     H 6460   6.343   3.581   9.121 -0.1575 -0.8968 -0.2658
   48MOL0     H 6461   6.107   3.566   9.023  0.9996  1.0792  2.1509
   48MOL0     H 6462   5.703   3.306   9.055 -3.0435 -0.4745  0.0123
   48MOL0     H 6463   5.482   3.236   8.969  0.0493 -1.5288  0.5976
   48MOL0     H 6464   3.931   2.874   8.356 -1.7482 -2.5680 -0.0738
   48MOL0     H 6465   3.694   2.923   8.335 -0.9976  1.5349 -1.3355
   48MOL0     H 6466   3.236   2.748   8.262  1.4913 -0.0533 -0.6338
   48MOL0     H 6467   2.987   2.785   8.203 -1.2611 -0.7104 -1.9392
   48MOL0     H 6468   2.805   2.854   8.149 -0.5457 -0.9659 -0.0721
   48MOL0     H 6469   2.787   2.777   7.998 -1.0085  0.5030  0.5343
   48MOL0     H 6470   2.589   2.905   8.066 -0.6642  0.2744 -0.4813
   48MOL0     H 6471   2.645   2.963   7.912  0.9826 -0.4206 -0.8015
   48MOL0     H 6472   2.581   3.146   8.067 -0.9617 -0.0138 -0.4972
   48MOL0     H 6473   2.738   3.174   8.017 -1.2922 -0.9699 -1.1134
   48MOL0     H 6474   2.793   3.032   8.259 -0.6352 -0.3979 -0.9035
   48MOL0     H 6475   2.770   3.212   8.243  1.9315  0.4640  1.3257
   48MOL0     H 6476   2.463   3.122   8.495 -0.4339 -0.1550 -1.4100
   48MOL0     H 6477   3.110   3.012   7.864  3.1050  3.1608  1.0311
   48MOL0     H 6478   3.470   2.900   7.877 -0.5742 -0.8868  0.8974
   48MOL0     H 6479   3.334   2.927   7.767 -1.2937 -1.4398 -0.4806
   48MOL0     H 6480   3.393   3.059   7.878 -0.9077 -1.0747  1.7206
   49MOL0     O 6481  10.640  11.226   8.277  0.9944 -0.1027  0.2076
   49MOL0     C 6482  10.558  11.164   8.339 -0.3536 -0.3205  0.3528
   49MOL0     O 6483  10.573  11.128   8.468  0.4422 -0.5579 -0.2871
   49MOL0     C 6484  10.690  11.147   8.536  0.1808 -0.9001 -0.1633
   49MOL0     C 6485  10.823  11.165   8.474 -0.2186 -0.6339 -0.2741
   49MOL0     C 6486  10.927  11.205   8.556 -0.7669  0.8159  0.5997
   49MOL0     C 6487  10.920  11.223   8.687  0.0848 -0.3942 -0.4527
   49MOL0     O 6488  11.025  11.281   8.767 -0.3146  0.8570  0.2224
   49MOL0     C 6489  11.146  11.308   8.696  0.3584 -0.2238  0.0378
   49MOL0     C 6490  11.231  11.385   8.793 -0.3227 -0.1591 -0.2656
   49MOL0     C 6491  11.357  11.454   8.737  0.4097  0.3592  0.5090
   49MOL0     C 6492  11.456  11.342   8.696  0.9240 -1.0862  0.3711
   49MOL0     C 6493  11.581  11.406   8.648  0.2847 -0.1242  0.5461
   49MOL0     C 6494  11.672  11.302   8.591 -0.6041  0.7848  0.2643
   49MOL0     C 6495  11.802  11.360   8.536 -0.1993 -0.4891  0.3097
   49MOL0     C 6496  11.920  11.265   8.507 -0.2752  0.7937 -0.0821
   49MOL0     N 6497  12.053  11.315   8.537  0.0795  0.0807  0.3389
   49MOL0     C 6498  12.132  11.376   8.441 -0.3153  0.8284 -0.7906
   49MOL0     C 6499  12.250  11.405   8.500  0.4179 -0.0789 -0.8756
   49MOL0     C 6500  12.369  11.466   8.445  0.1285 -0.2683  1.2240
   49MOL0     C 6501  12.468  11.353   8.431  0.6342  0.5475 -0.0428
   49MOL0     C 6502  12.604  11.394   8.376  0.2185 -0.0141 -0.5118
   49MOL0     C 6503  12.711  11.284   8.378  0.3719 -0.3095 -0.4135
   49MOL0     O 6504  12.664  11.174   8.294  0.6301 -0.1447  0.5298
   49MOL0     C 6505  12.757  11.119   8.210  0.8944  0.7623 -0.1002
   49MOL0     C 6506  12.783  10.981   8.234 -0.5686  0.1834  0.7185
   49MOL0     C 6507  12.884  10.925   8.152 -0.0859  0.0281  0.6312
   49MOL0     C 6508  12.941  10.998   8.043 -0.7138 -0.6485 -1.0156
   49MOL0     C 6509  13.043  10.934   7.955  0.9515  0.5678 -0.1982
   49MOL0     O 6510  13.057  10.799   7.962 -0.9647 -0.0117  0.1015
   49MOL0     C 6511  13.155  10.733   7.901 -0.0116  0.3842 -0.0352
   49MOL0     C 6512  13.295  10.776   7.882  0.3426 -0.8099  0.3795
   49MOL0     C 6513  13.393  10.696   7.820  0.1084 -0.7165 -0.0861
   49MOL0     C 6514  13.355  10.567   7.783 -0.5738  0.1029 -0.4830
   49MOL0     O 6515  13.464  10.482   7.754  0.1993  0.0452 -0.4060
   49MOL0     C 6516  13.437  10.351   7.696 -0.1242 -1.3116 -0.2816
   49MOL0     C 6517  13.581  10.287   7.683  0.1072 -0.6159  0.8428
   49MOL0     C 6518  13.675  10.369   7.583  0.2349 -0.2509 -0.2369
   49MOL0     C 6519  13.672  10.309   7.442  0.6039 -0.7457  0.7219
   49MOL0     C 6520  13.774  10.380   7.359 -1.2402  1.2298  0.7870
   49MOL0     C 6521  13.916  10.327   7.388  0.2594 -0.1551 -0.2982
   49MOL0     C 6522  14.024  10.369   7.298  0.2629  0.7296 -0.0581
   49MOL0     C 6523  14.054  10.522   7.307  0.6241  0.2753 -0.3104
   49MOL0    Cl 6524  14.182  10.570   7.193 -0.4052 -0.6675  0.0220
   49MOL0     C 6525  13.225  10.526   7.805  0.6589  0.1647  0.7813
   49MOL0     C 6526  13.123  10.604   7.855 -0.8791  0.2627 -0.1591
   49MOL0     O 6527  13.105  11.009   7.888  0.3477 -0.5099 -0.3416
   49MOL0     C 6528  12.904  11.131   8.028 -0.7578 -0.1659  0.0198
   49MOL0     C 6529  12.813  11.196   8.108 -0.7382  0.2220 -0.0926
   49MOL0     N 6530  12.234  11.365   8.639 -0.0173  0.7427  0.0855
   49MOL0     N 6531  12.120  11.294   8.654  0.0510  0.1440 -0.1658
   49MOL0     C 6532  10.794  11.202   8.752  0.5628  0.7154  0.5982
   49MOL0     C 6533  10.677  11.165   8.675 -0.5560  0.1694  0.1037
   49MOL0     C 6534  10.421  11.151   8.276 -0.2561  0.0671  0.4286
   49MOL0     C 6535  10.314  11.143   8.366 -1.2525 -0.7318 -0.7432
   49MOL0     C 6536  10.182  11.148   8.330  0.1581  0.2406  0.0198
   49MOL0     C 6537  10.160  11.147   8.186 -0.5043  0.3386 -0.3872
   49MOL0     O 6538  10.039  11.123   8.130 -0.7840  0.3300  0.5932
   49MOL0     C 6539   9.917  11.147   8.200  0.0536 -0.2051  0.0417
   49MOL0     C 6540   9.791  11.120   8.107 -0.0439 -0.1320 -0.1403
   49MOL0     C 6541   9.813  11.013   7.994  0.0741 -0.7909 -1.4154
   49MOL0     C 6542   9.733  11.050   7.877 -0.0943  0.2334 -0.4536
   49MOL0     C 6543   9.592  11.049   7.907  1.0455  1.0260  0.2641
   49MOL0     C 6544   9.476  11.065   7.939 -0.3854 -1.0800  0.1014
   49MOL0     C 6545  10.262  11.150   8.093 -0.1769  0.7100 -0.5539
   49MOL0     C 6546  10.396  11.145   8.135  0.9207 -0.6405 -0.5315
   49MOL0     C 6547  10.493  11.144   8.019 -0.3403 -0.8777  0.4257
   49MOL0     H 6548  10.843  11.150   8.369 -0.7763 -1.1472 -0.3120
   49MOL0     H 6549  11.015  11.219   8.494 -2.0858  1.7613 -1.1644
   49MOL0     H 6550  11.189  11.214   8.660  1.3858 -0.9575  2.9057
   49MOL0     H 6551  11.127  11.370   8.608  0.8899  2.0515  1.4521
   49MOL0     H 6552  11.246  11.322   8.881  2.2243 -0.7703 -1.0626
   49MOL0     H 6553  11.176  11.467   8.841  0.3259 -0.4962  1.0810
   49MOL0     H 6554  11.400  11.517   8.815  2.8459 -1.2300  0.5691
   49MOL0     H 6555  11.330  11.523   8.656  0.3623  0.7157  0.8259
   49MOL0     H 6556  11.472  11.269   8.775 -2.6857 -2.7329 -0.2293
   49MOL0     H 6557  11.400  11.293   8.615 -3.1684  1.6334  1.2529
   49MOL0     H 6558  11.566  11.479   8.569 -0.4485 -1.3916 -0.5255
   49MOL0     H 6559  11.637  11.460   8.725  0.8592  0.5627 -0.3421
   49MOL0     H 6560  11.707  11.243   8.677 -3.0115 -0.1423  0.7033
   49MOL0     H 6561  11.624  11.234   8.521 -0.4558 -1.8955  2.5756
   49MOL0     H 6562  11.838  11.427   8.615  0.1816  2.4780 -2.1892
   49MOL0     H 6563  11.776  11.412   8.443 -3.0209  0.1539  1.3516
   49MOL0     H 6564  11.905  11.182   8.577 -2.0593 -0.2261 -1.5626
   49MOL0     H 6565  11.913  11.222   8.407  0.1916 -1.6887  0.8814
   49MOL0     H 6566  12.114  11.395   8.336 -0.9951  0.9876 -0.6450
   49MOL0     H 6567  12.348  11.516   8.351 -1.1447 -0.3081  1.4787
   49MOL0     H 6568  12.417  11.537   8.513  0.6448  3.8926 -2.9916
   49MOL0     H 6569  12.488  11.305   8.527 -0.9476  0.1850  0.1419
   49MOL0     H 6570  12.425  11.281   8.360  0.6799 -1.0702  1.5002
   49MOL0     H 6571  12.643  11.475   8.439  0.5922  1.0713 -2.0631
   49MOL0     H 6572  12.590  11.436   8.276  1.4634  1.1153 -0.2386
   49MOL0     H 6573  12.720  11.247   8.480  2.8802 -0.0929 -0.5086
   49MOL0     H 6574  12.806  11.321   8.341 -0.1917 -0.4364 -2.0823
   49MOL0     H 6575  12.726  10.917   8.299 -0.7109 -2.0109 -1.4396
   49MOL0     H 6576  12.900  10.818   8.162 -2.1432 -0.5030 -1.0315
   49MOL0     H 6577  13.325  10.870   7.927  1.7265 -1.2534  0.4476
   49MOL0     H 6578  13.498  10.726   7.825 -0.0850 -0.0007 -0.2067
   49MOL0     H 6579  13.374  10.292   7.763 -0.1991 -0.4870  0.3947
   49MOL0     H 6580  13.397  10.371   7.596  1.2623  3.3393 -0.1696
   49MOL0     H 6581  13.639  10.299   7.775  0.5198  2.0453  0.3282
   49MOL0     H 6582  13.564  10.181   7.663 -2.5343 -0.2064  0.5707
   49MOL0     H 6583  13.652  10.476   7.574  0.5261 -0.2513 -1.0627
   49MOL0     H 6584  13.776  10.349   7.622 -0.0516 -3.3457 -0.8581
   49MOL0     H 6585  13.570  10.305   7.401  0.9718 -0.1324 -0.3056
   49MOL0     H 6586  13.712  10.207   7.436 -0.4444 -1.1023 -0.9938
   49MOL0     H 6587  13.771  10.486   7.384 -0.8426  1.2981  0.5518
   49MOL0     H 6588  13.752  10.377   7.252  1.7853  1.9512  0.0700
   49MOL0     H 6589  13.947  10.358   7.489  1.3205  1.5573 -1.1067
   49MOL0     H 6590  13.917  10.218   7.385  2.1316 -0.1542 -1.4258
   49MOL0     H 6591  14.006  10.344   7.193 -0.7032  0.8459  0.0697
   49MOL0     H 6592  14.113  10.313   7.330  2.1954  2.3442 -2.2542
   49MOL0     H 6593  13.956  10.570   7.292 -0.0460 -0.0743  2.3911
   49MOL0     H 6594  14.073  10.544   7.413  0.2471  0.4678 -0.2807
   49MOL0     H 6595  13.206  10.420   7.809  2.1186 -0.2109 -0.9528
   49MOL0     H 6596  13.024  10.564   7.874 -2.2151  3.1435 -0.5275
   49MOL0     H 6597  12.952  11.185   7.948  1.4110 -2.9790 -0.7134
   49MOL0     H 6598  12.786  11.301   8.102  1.1067  0.6481 -2.6435
   49MOL0     H 6599  10.774  11.232   8.854 -0.9172  4.3477 -0.6058
   49MOL0     H 6600  10.576  11.147   8.711 -0.9735 -0.4941 -1.3208
   49MOL0     H 6601  10.335  11.149   8.473  1.1471  1.1307 -1.2517
   49MOL0     H 6602  10.113  11.139   8.414  1.2093  0.1585  0.8979
   49MOL0     H 6603   9.898  11.244   8.248  2.4564 -0.6762  2.1560
   49MOL0     H 6604   9.905  11.082   8.287 -1.3629  0.4690  0.3938
   49MOL0     H 6605   9.748  11.211   8.065 -2.3205  0.5342  3.2512
   49MOL0     H 6606   9.710  11.075   8.165 -0.7987  0.2872 -0.8538
   49MOL0     H 6607   9.780  10.927   8.053 -0.3731  0.9490  1.0530
   49MOL0     H 6608   9.919  11.007   7.966 -0.0148  1.1232 -2.2967
   49MOL0     H 6609   9.750  11.152   7.842  0.2613  1.3262  2.5747
   49MOL0     H 6610   9.753  10.976   7.799  1.3060  0.0488  0.0562
   49MOL0     H 6611   9.371  11.067   7.959 -0.3762 -2.9609  0.5512
   49MOL0     H 6612  10.238  11.137   7.988  0.9470 -3.4629 -0.4718
   49MOL0     H 6613  10.501  11.241   7.971 -0.0348  0.3518  2.7942
   49MOL0     H 6614  10.590  11.109   8.058 -0.1286 -1.1124 -0.2835
   49MOL0     H 6615  10.452  11.073   7.947 -0.5446  0.2103 -0.5431
   50MOL0     O 6616   0.125   3.374   9.477 -0.9414  0.3540  0.4616
   50MOL0     C 6617   0.063   3.309   9.398  0.5060 -0.2747  0.1488
   50MOL0     O 6618   0.068   3.176   9.382  0.2483 -0.0897  0.3706
   50MOL0     C 6619   0.158   3.099   9.444 -1.2091  0.7841 -0.3087
   50MOL0     C 6620   0.105   2.990   9.521  0.1852 -1.0365 -0.6475
   50MOL0     C 6621   0.191   2.916   9.598 -0.0633  0.7439  0.9195
   50MOL0     C 6622   0.329   2.930   9.594 -0.5943 -0.1145 -0.0699
   50MOL0     O 6623   0.422   2.841   9.659  0.7828 -0.1359 -1.1990
   50MOL0     C 6624   0.379   2.735   9.749 -0.4200 -0.3523  0.3713
   50MOL0     C 6625   0.487   2.661   9.816 -0.0257  0.2194  0.8541
   50MOL0     C 6626   0.597   2.765   9.857  0.3352  0.4904  0.9269
   50MOL0     C 6627   0.720   2.691   9.909 -0.7460  0.2416 -0.5807
   50MOL0     C 6628   0.827   2.790   9.958 -0.6773  0.6086 -0.0820
   50MOL0     C 6629   0.934   2.726  10.052 -0.9501  0.2744 -1.0188
   50MOL0     C 6630   1.013   2.832  10.125 -0.5857 -0.3316  0.5104
   50MOL0     C 6631   1.105   2.757  10.224 -0.5288  0.1062  0.3268
   50MOL0     N 6632   1.189   2.866  10.270 -0.6242  0.0749 -0.3432
   50MOL0     C 6633   1.143   2.956  10.365  0.1461  0.2156  0.8252
   50MOL0     C 6634   1.242   3.056  10.369 -0.4816 -0.0950  0.2029
   50MOL0     C 6635   1.237   3.179  10.452  0.5051 -0.0557  0.2792
   50MOL0     C 6636   1.299   3.135  10.592 -0.1464 -0.1836  0.8103
   50MOL0     C 6637   1.286   3.249  10.704 -0.1707  0.1400  0.4487
   50MOL0     C 6638   1.326   3.191  10.835  0.6391  0.0300  0.5653
   50MOL0     O 6639   1.446   3.122  10.858 -0.4731  0.0098 -0.1418
   50MOL0     C 6640   1.559   3.196  10.846  0.8281  0.8398 -0.2446
   50MOL0     C 6641   1.581   3.335  10.845 -0.7334 -0.3405  0.0041
   50MOL0     C 6642   1.716   3.393  10.836  0.1929  0.0689 -0.3490
   50MOL0     C 6643   1.830   3.311  10.843 -0.4307  1.3177 -0.2800
   50MOL0     C 6644   1.967   3.368  10.849  0.4738 -0.7458  0.3964
   50MOL0     O 6645   1.993   3.511  10.845  0.5158  0.3928 -0.3434
   50MOL0     C 6646   2.126   3.546  10.865 -0.2220 -0.2728 -0.4662
   50MOL0     C 6647   2.164   3.594  10.993 -0.0203 -0.6561  0.6936
   50MOL0     C 6648   2.297   3.621  11.025  0.4698  0.0396  0.3858
   50MOL0     C 6649   2.401   3.605  10.925  0.9982  0.1404  1.3436
   50MOL0     O 6650   2.517   3.665  10.957 -0.2091  0.7671 -0.7569
   50MOL0     C 6651   2.612   3.707  10.859  0.9717  0.2989 -0.2069
   50MOL0     C 6652   2.714   3.789  10.924  0.7249  0.5778  0.2220
   50MOL0     C 6653   2.807   3.722  11.022 -0.1246 -0.7970 -0.0696
   50MOL0     C 6654   2.927   3.819  11.045 -0.4730  0.1686 -0.0749
   50MOL0     C 6655   3.031   3.775  11.156  0.2750  0.4148 -0.4411
   50MOL0     C 6656   3.155   3.860  11.142 -0.3500 -1.0601 -0.5271
   50MOL0     C 6657   3.150   4.019  11.137  0.1359  0.0698 -0.1181
   50MOL0     C 6658   3.110   4.096  11.004  0.4929 -0.3902 -0.8117
   50MOL0    Cl 6659   3.211   4.078  10.859  0.3778 -0.1831 -0.5324
   50MOL0     C 6660   2.363   3.557  10.796  0.1300  0.3456  0.0827
   50MOL0     C 6661   2.225   3.527  10.768  0.7844  1.4748  0.1535
   50MOL0     O 6662   2.050   3.289  10.880 -0.5737 -0.0478  0.1671
   50MOL0     C 6663   1.808   3.171  10.836 -0.4902  0.4419 -0.5798
   50MOL0     C 6664   1.673   3.116  10.833  0.0940  0.1122  0.2202
   50MOL0     N 6665   1.344   3.007  10.279  0.2483 -0.6398 -0.3494
   50MOL0     N 6666   1.306   2.904  10.213 -0.3430  0.3007 -0.1830
   50MOL0     C 6667   0.379   3.043   9.518  0.2496  0.2510 -0.2047
   50MOL0     C 6668   0.299   3.126   9.446  0.8026 -0.4129  0.4212
   50MOL0     C 6669  -0.028   3.391   9.312 -0.5513  0.6714 -0.5586
   50MOL0     C 6670  -0.109   3.494   9.373 -0.5765 -0.0838 -0.1715
   50MOL0     C 6671  -0.195   3.560   9.294 -0.7622 -0.3299 -0.4690
   50MOL0     C 6672  -0.208   3.544   9.158  0.9190 -0.0006  0.5843
   50MOL0     O 6673  -0.292   3.621   9.087  0.4494 -0.7484 -0.9901
   50MOL0     C 6674  -0.347   3.594   8.953  0.3841  0.6159  0.6704
   50MOL0     C 6675  -0.456   3.689   8.917  0.5359 -0.1841 -0.0058
   50MOL0     C 6676  -0.575   3.664   9.008 -0.8821  0.1984 -0.2910
   50MOL0     C 6677  -0.674   3.779   9.011 -0.0862 -0.3122  0.4508
   50MOL0     C 6678  -0.796   3.735   9.073  0.0349 -0.7416  0.8986
   50MOL0     C 6679  -0.892   3.692   9.134  0.1111 -0.6703 -0.2768
   50MOL0     C 6680  -0.122   3.452   9.092 -0.4617  0.1489 -0.8898
   50MOL0     C 6681  -0.036   3.373   9.170 -0.3245 -0.1437  0.7029
   50MOL0     C 6682   0.050   3.284   9.094  0.2635 -0.1223 -0.0429
   50MOL0     H 6683   0.000   2.973   9.544  0.7035  0.6489  3.9939
   50MOL0     H 6684   0.149   2.835   9.658  0.6759 -0.1761  0.2386
   50MOL0     H 6685   0.310   2.769   9.827  3.1792 -0.3745  3.8969
   50MOL0     H 6686   0.329   2.656   9.693 -1.1609 -3.4317  4.8192
   50MOL0     H 6687   0.530   2.581   9.755  1.6441 -0.6723  3.0646
   50MOL0     H 6688   0.460   2.604   9.906 -0.9376 -0.3440  0.2440
   50MOL0     H 6689   0.558   2.826   9.940  1.4030  0.0055  1.8107
   50MOL0     H 6690   0.629   2.823   9.770  1.0460 -0.8109  0.2830
   50MOL0     H 6691   0.688   2.627   9.992  2.2504  1.4991  1.7407
   50MOL0     H 6692   0.765   2.638   9.824 -0.2810  0.8107 -0.6923
   50MOL0     H 6693   0.863   2.844   9.870 -0.8097  0.1497 -0.4265
   50MOL0     H 6694   0.764   2.865  10.006 -0.9236 -0.0183  0.6143
   50MOL0     H 6695   0.884   2.668  10.130  0.4894 -1.6185 -1.4316
   50MOL0     H 6696   1.010   2.656  10.014  0.8727  2.2964 -1.3017
   50MOL0     H 6697   0.948   2.913  10.159  0.3515  1.3737 -1.4862
   50MOL0     H 6698   1.075   2.883  10.050  1.3531  0.2367  2.4164
   50MOL0     H 6699   1.044   2.716  10.304  0.9094 -1.0717  0.8510
   50MOL0     H 6700   1.172   2.684  10.177  0.1256  1.2471 -0.5830
   50MOL0     H 6701   1.051   2.960  10.423 -0.3195 -1.8177  0.3033
   50MOL0     H 6702   1.292   3.264  10.411  1.3764 -2.0164 -2.9842
   50MOL0     H 6703   1.129   3.196  10.460  0.6431  2.0059 -1.2601
   50MOL0     H 6704   1.249   3.043  10.624 -1.6906  0.8136  1.3750
   50MOL0     H 6705   1.405   3.116  10.575 -0.2025  0.3717 -0.2485
   50MOL0     H 6706   1.192   3.304  10.715  0.7332  1.6839  0.6279
   50MOL0     H 6707   1.357   3.330  10.688 -1.4984  1.1308 -0.6156
   50MOL0     H 6708   1.241   3.124  10.850 -0.5526  0.1801 -3.9664
   50MOL0     H 6709   1.318   3.269  10.911  2.8393  0.2063  0.6651
   50MOL0     H 6710   1.502   3.409  10.855 -2.2113 -1.7342 -0.9830
   50MOL0     H 6711   1.731   3.500  10.849 -4.2685  1.1029 -2.1568
   50MOL0     H 6712   2.091   3.625  11.067  2.1017  1.7107  1.9180
   50MOL0     H 6713   2.336   3.656  11.119  0.6303  3.6014 -0.8712
   50MOL0     H 6714   2.665   3.623  10.815  0.8369 -0.2592  0.6768
   50MOL0     H 6715   2.558   3.754  10.776  0.6414  0.6843  0.2207
   50MOL0     H 6716   2.779   3.836  10.849 -1.5273  1.3087 -1.3977
   50MOL0     H 6717   2.655   3.869  10.970 -0.9352  0.0788 -0.9567
   50MOL0     H 6718   2.759   3.691  11.116 -1.0533 -1.1354 -0.6418
   50MOL0     H 6719   2.843   3.626  10.982  2.2496  0.0486 -0.1048
   50MOL0     H 6720   2.888   3.919  11.065 -0.0748  0.2948  0.0787
   50MOL0     H 6721   2.979   3.815  10.949  1.1924 -0.4729  0.7966
   50MOL0     H 6722   3.053   3.668  11.156 -0.8475  0.0569  3.2714
   50MOL0     H 6723   2.971   3.790  11.246  0.9322  2.1646 -0.2635
   50MOL0     H 6724   3.214   3.843  11.232  0.6454 -1.4110 -1.2246
   50MOL0     H 6725   3.206   3.835  11.048 -2.2872 -0.4886 -1.8050
   50MOL0     H 6726   3.254   4.053  11.146 -0.5045  1.6299  2.8663
   50MOL0     H 6727   3.089   4.047  11.223 -2.8437 -0.5452 -1.8905
   50MOL0     H 6728   3.007   4.074  10.976  0.3606 -0.4154 -0.3123
   50MOL0     H 6729   3.115   4.202  11.032 -1.8731 -0.4505  0.0792
   50MOL0     H 6730   2.437   3.547  10.718 -0.1659  1.4481 -0.3600
   50MOL0     H 6731   2.191   3.484  10.674  0.4617  0.2071  0.8276
   50MOL0     H 6732   1.894   3.106  10.830 -2.5541 -2.4862 -1.1488
   50MOL0     H 6733   1.673   3.007  10.836  0.9254  0.1374  2.0504
   50MOL0     H 6734   0.487   3.059   9.517  0.1345  1.0719 -1.5406
   50MOL0     H 6735   0.333   3.218   9.401  0.7746 -0.8409 -0.4914
   50MOL0     H 6736  -0.096   3.499   9.481  2.7845 -1.7221 -0.3463
   50MOL0     H 6737  -0.266   3.626   9.343  0.2291  0.8075 -0.5275
   50MOL0     H 6738  -0.389   3.494   8.959  0.7746  0.4954  1.4694
   50MOL0     H 6739  -0.271   3.595   8.874  4.5586  1.3577  4.3167
   50MOL0     H 6740  -0.484   3.684   8.811  0.0672 -0.9576  0.1446
   50MOL0     H 6741  -0.427   3.794   8.924  0.7786 -0.2429 -0.1444
   50MOL0     H 6742  -0.550   3.645   9.112 -0.4604  3.2174  0.2518
   50MOL0     H 6743  -0.621   3.569   8.978  1.8845 -1.4862  0.4807
   50MOL0     H 6744  -0.617   3.854   9.067  1.0393 -1.1195  0.4038
   50MOL0     H 6745  -0.696   3.818   8.911  0.2432  0.0253  0.5082
   50MOL0     H 6746  -0.979   3.659   9.187  1.0674  0.3303  2.0839
   50MOL0     H 6747  -0.118   3.428   8.987  0.0044 -0.0458 -0.8300
   50MOL0     H 6748   0.011   3.183   9.113  0.9110 -0.1461  1.2570
   50MOL0     H 6749   0.063   3.315   8.990  1.3078 -0.4722 -0.0223
   50MOL0     H 6750   0.151   3.296   9.135  0.6318  1.9351 -1.4349
   51MOL0     O 6751   7.070   5.601   1.059  1.0723  0.7867 -0.0873
   51MOL0     C 6752   6.992   5.501   1.051  0.3285 -0.3582  0.6316
   51MOL0     O 6753   6.968   5.402   1.150  0.0061  0.1567 -0.4669
   51MOL0     C 6754   7.031   5.436   1.270  0.2562  0.5401 -0.5779
   51MOL0     C 6755   6.971   5.500   1.379  0.5360 -0.2970  0.7002
   51MOL0     C 6756   7.049   5.544   1.485  0.1843 -0.1312 -0.2047
   51MOL0     C 6757   7.186   5.506   1.495  0.0580 -0.1999 -0.0642
   51MOL0     O 6758   7.261   5.559   1.594 -0.7765 -0.7407 -0.9065
   51MOL0     C 6759   7.366   5.646   1.552  0.3693  0.2832 -0.0191
   51MOL0     C 6760   7.483   5.633   1.658  0.6714  0.1126 -1.2065
   51MOL0     C 6761   7.429   5.660   1.799  0.1082  0.2149  0.6497
   51MOL0     C 6762   7.528   5.622   1.912  0.6516 -0.1740  0.1722
   51MOL0     C 6763   7.479   5.704   2.035 -1.1633  1.0782  0.1866
   51MOL0     C 6764   7.579   5.687   2.147 -0.3637  0.2929  1.0235
   51MOL0     C 6765   7.712   5.747   2.121  0.3082  0.2099  0.7417
   51MOL0     C 6766   7.817   5.686   2.214  0.3818  0.6225 -0.3590
   51MOL0     N 6767   7.948   5.753   2.213  0.0191  0.0212  0.6136
   51MOL0     C 6768   8.070   5.698   2.239  0.3506 -0.0637  0.6483
   51MOL0     C 6769   8.154   5.800   2.221  0.2522 -1.0879  0.4344
   51MOL0     C 6770   8.298   5.783   2.207 -0.0056 -0.1321  1.4139
   51MOL0     C 6771   8.367   5.761   2.335 -1.2214  0.7170  0.0701
   51MOL0     C 6772   8.347   5.890   2.423  0.2798  0.9132 -0.9385
   51MOL0     C 6773   8.434   6.011   2.376 -0.1656  1.3871 -0.9735
   51MOL0     O 6774   8.532   6.038   2.480 -0.3932 -0.7522  0.2193
   51MOL0     C 6775   8.608   6.145   2.450 -0.2663 -0.3680  0.1318
   51MOL0     C 6776   8.639   6.197   2.327 -0.4540 -0.3368  1.5067
   51MOL0     C 6777   8.728   6.305   2.304 -0.2993 -0.2092  1.1653
   51MOL0     C 6778   8.781   6.370   2.418 -0.8231 -0.0722 -0.5382
   51MOL0     C 6779   8.883   6.482   2.385  0.0192  0.4430  0.3934
   51MOL0     O 6780   8.920   6.515   2.259  0.5229 -0.5582  0.3695
   51MOL0     C 6781   9.028   6.597   2.265  0.3472 -0.7139 -0.2118
   51MOL0     C 6782   9.161   6.539   2.282  0.4107 -0.3450  0.4582
   51MOL0     C 6783   9.274   6.624   2.280  0.6222  0.2053 -0.5891
   51MOL0     C 6784   9.261   6.758   2.275 -0.3060 -0.8293  0.4386
   51MOL0     O 6785   9.368   6.845   2.290 -0.1831  0.2399 -0.2404
   51MOL0     C 6786   9.498   6.792   2.305  0.3098  0.8910 -0.7796
   51MOL0     C 6787   9.598   6.891   2.303  0.6133 -0.8225  0.6816
   51MOL0     C 6788   9.728   6.831   2.356 -0.1804 -0.5201 -0.0699
   51MOL0     C 6789   9.823   6.945   2.407 -0.6772 -0.1087  0.1693
   51MOL0     C 6790   9.883   7.022   2.294 -0.2817  0.1230  0.8841
   51MOL0     C 6791  10.001   6.944   2.227 -0.1813 -0.3744 -0.0306
   51MOL0     C 6792  10.079   7.036   2.126  0.1188  0.0088 -0.1230
   51MOL0     C 6793  10.174   6.963   2.030 -0.3493  0.5251 -1.1534
   51MOL0    Cl 6794  10.192   7.056   1.879 -0.0294 -0.2613 -0.2070
   51MOL0     C 6795   9.129   6.816   2.272 -0.3753 -0.4059  0.8098
   51MOL0     C 6796   9.016   6.744   2.264  0.2594 -0.0738  0.1220
   51MOL0     O 6797   8.936   6.519   2.488  0.2733 -0.3496  0.1345
   51MOL0     C 6798   8.752   6.318   2.538 -0.0820 -0.3945 -0.6382
   51MOL0     C 6799   8.669   6.207   2.557 -0.6290 -0.1903 -0.6309
   51MOL0     N 6800   8.090   5.914   2.193  0.1540 -0.8457  0.9221
   51MOL0     N 6801   7.966   5.891   2.196 -0.6304  0.1344 -0.4742
   51MOL0     C 6802   7.243   5.415   1.398  0.8042  0.5480 -0.0369
   51MOL0     C 6803   7.165   5.389   1.288 -0.2105 -0.1726  0.4741
   51MOL0     C 6804   6.938   5.483   0.919 -0.0703  0.0819 -0.0704
   51MOL0     C 6805   6.938   5.353   0.868  0.6365  0.2088 -0.2497
   51MOL0     C 6806   6.910   5.322   0.737  0.2117  0.0201 -1.0969
   51MOL0     C 6807   6.848   5.422   0.659 -0.0830 -0.9637 -0.7443
   51MOL0     O 6808   6.813   5.395   0.528  0.7163 -0.7813  0.2781
   51MOL0     C 6809   6.760   5.504   0.442 -0.6593 -0.3850 -0.7376
   51MOL0     C 6810   6.788   5.473   0.295 -0.3617  0.0328  1.7173
   51MOL0     C 6811   6.698   5.348   0.250  0.0648  0.2383  0.3569
   51MOL0     C 6812   6.720   5.287   0.108  0.4454  0.2551 -0.0412
   51MOL0     C 6813   6.595   5.290   0.028 -0.3846 -1.0519 -0.9533
   51MOL0     C 6814   6.496   5.281  -0.045 -0.0652 -0.5013 -0.4900
   51MOL0     C 6815   6.827   5.549   0.716 -0.3224  0.3239  0.3938
   51MOL0     C 6816   6.875   5.585   0.839  0.3315  0.3602 -0.2280
   51MOL0     C 6817   6.843   5.726   0.887  0.1085 -0.4784  0.4988
   51MOL0     H 6818   6.866   5.527   1.384  0.3592 -0.8636  0.1002
   51MOL0     H 6819   7.004   5.600   1.566  0.7576  0.2756 -0.1533
   51MOL0     H 6820   7.399   5.636   1.449 -1.6355 -0.7634 -0.6110
   51MOL0     H 6821   7.320   5.745   1.549  1.8017  0.9368 -2.0622
   51MOL0     H 6822   7.568   5.697   1.631  0.3463  1.3810  0.5252
   51MOL0     H 6823   7.510   5.527   1.656 -0.6875 -0.2578 -0.9150
   51MOL0     H 6824   7.339   5.600   1.818 -0.8216  1.3607  0.0518
   51MOL0     H 6825   7.396   5.764   1.807 -1.6638 -0.3813  1.6573
   51MOL0     H 6826   7.538   5.515   1.931  2.5067 -0.2836 -1.1455
   51MOL0     H 6827   7.622   5.666   1.880  1.9840 -2.2748  0.9788
   51MOL0     H 6828   7.463   5.809   2.008 -2.0373  0.3435 -2.4071
   51MOL0     H 6829   7.379   5.672   2.066 -0.6101 -3.0669 -1.6262
   51MOL0     H 6830   7.532   5.737   2.232  2.5889  2.2531  1.6506
   51MOL0     H 6831   7.583   5.580   2.169  0.1151  0.3068  1.0097
   51MOL0     H 6832   7.695   5.853   2.141 -0.7042 -0.1142  1.7539
   51MOL0     H 6833   7.747   5.732   2.018  0.7012 -3.7451  1.2969
   51MOL0     H 6834   7.780   5.682   2.317  4.3661  5.2994  1.6830
   51MOL0     H 6835   7.831   5.583   2.179  0.3181  0.4978 -0.0209
   51MOL0     H 6836   8.089   5.597   2.273 -0.9125  0.1576  2.0897
   51MOL0     H 6837   8.305   5.698   2.139  0.3110 -0.7706  2.2268
   51MOL0     H 6838   8.340   5.866   2.150  0.7218 -1.7639 -0.5404
   51MOL0     H 6839   8.334   5.672   2.390  1.5693  0.3398  1.3421
   51MOL0     H 6840   8.475   5.742   2.334 -1.3298 -1.0754  3.9920
   51MOL0     H 6841   8.385   5.866   2.523  1.7732  2.0753 -1.2029
   51MOL0     H 6842   8.243   5.923   2.434 -0.4040 -1.3001 -0.3004
   51MOL0     H 6843   8.371   6.100   2.362 -1.3282  1.0356  1.3782
   51MOL0     H 6844   8.481   5.979   2.283  2.2356  2.3273 -0.1623
   51MOL0     H 6845   8.615   6.155   2.230  1.5271 -0.8969  1.2138
   51MOL0     H 6846   8.762   6.326   2.203  0.3147  2.0274  1.7891
   51MOL0     H 6847   9.161   6.431   2.298  1.2401 -0.4782 -0.3112
   51MOL0     H 6848   9.363   6.564   2.298 -0.6604 -1.5241  0.3050
   51MOL0     H 6849   9.491   6.751   2.407 -1.1197  0.8166 -0.8966
   51MOL0     H 6850   9.509   6.717   2.227 -2.8209  1.5769 -2.0016
   51MOL0     H 6851   9.611   6.924   2.199  0.1661 -4.8680 -0.8183
   51MOL0     H 6852   9.554   6.978   2.354 -1.8134  0.8359 -3.6291
   51MOL0     H 6853   9.703   6.777   2.448 -2.3128  1.1791  0.4313
   51MOL0     H 6854   9.785   6.770   2.284 -1.3749  0.4540 -1.9151
   51MOL0     H 6855   9.901   6.908   2.475  0.6170  1.5330 -0.3472
   51MOL0     H 6856   9.775   7.015   2.476  0.2868 -1.1914  2.0332
   51MOL0     H 6857   9.932   7.108   2.341 -1.5096  1.8490 -0.8400
   51MOL0     H 6858   9.808   7.044   2.218  1.5230 -0.6066 -1.2141
   51MOL0     H 6859  10.075   6.919   2.303  0.4862  1.7970  0.1073
   51MOL0     H 6860   9.963   6.854   2.177 -1.0301 -1.1111  1.8484
   51MOL0     H 6861  10.136   7.108   2.185  1.9467 -0.8086 -0.7944
   51MOL0     H 6862  10.001   7.090   2.074 -2.9823 -3.3515  0.6116
   51MOL0     H 6863  10.272   6.949   2.076 -1.2907 -0.2666  0.7295
   51MOL0     H 6864  10.134   6.866   2.000 -1.2449  1.2859 -2.5449
   51MOL0     H 6865   9.120   6.924   2.265  1.3830 -0.1364  1.9256
   51MOL0     H 6866   8.916   6.787   2.257  0.6941  0.8143 -1.0303
   51MOL0     H 6867   8.799   6.357   2.628  0.3786  0.6164 -1.3100
   51MOL0     H 6868   8.646   6.184   2.660 -0.1994  0.1372 -0.4578
   51MOL0     H 6869   7.339   5.364   1.404 -0.7136 -2.5344 -0.1379
   51MOL0     H 6870   7.205   5.326   1.208 -2.7827  1.2217 -2.1036
   51MOL0     H 6871   6.972   5.271   0.930  0.6616 -1.3674 -2.2625
   51MOL0     H 6872   6.934   5.220   0.706  2.1663  1.0318 -3.2012
   51MOL0     H 6873   6.821   5.593   0.454  4.1673 -3.4083  0.0130
   51MOL0     H 6874   6.653   5.505   0.468 -0.4620 -0.7692  0.1134
   51MOL0     H 6875   6.893   5.464   0.268 -0.4714  0.1460  1.2452
   51MOL0     H 6876   6.744   5.555   0.237  1.1001  1.9048  3.1168
   51MOL0     H 6877   6.596   5.383   0.267 -0.3081 -0.6611  0.0521
   51MOL0     H 6878   6.736   5.266   0.311  3.0668  1.3584  0.1609
   51MOL0     H 6879   6.803   5.338   0.057 -1.2054  1.8362 -1.2757
   51MOL0     H 6880   6.746   5.181   0.119  0.7908  0.2024 -1.1855
   51MOL0     H 6881   6.403   5.284  -0.099 -1.1868  0.8237  1.3934
   51MOL0     H 6882   6.767   5.629   0.674  0.8194  0.9008 -0.1638
   51MOL0     H 6883   6.913   5.806   0.861 -0.7557  0.0949 -0.1203
   51MOL0     H 6884   6.743   5.758   0.856  0.2099  0.9264  1.5244
   51MOL0     H 6885   6.829   5.717   0.995 -0.4129  0.6492  0.5498
   52MOL0     O 6886   1.532   7.250   2.193 -0.5855  0.2733 -0.1549
   52MOL0     C 6887   1.523   7.242   2.315  0.3144  0.2098 -0.0015
   52MOL0     O 6888   1.629   7.225   2.403  0.0845  0.1896  0.2058
   52MOL0     C 6889   1.760   7.211   2.352  0.2939 -0.8017  0.2193
   52MOL0     C 6890   1.832   7.331   2.340 -0.9975  0.2195 -0.1799
   52MOL0     C 6891   1.963   7.320   2.293 -0.0462 -0.4755 -0.1384
   52MOL0     C 6892   2.025   7.195   2.269  0.2779  0.1701  0.0171
   52MOL0     O 6893   2.153   7.194   2.226 -0.4394  0.6082 -0.0966
   52MOL0     C 6894   2.188   7.263   2.106 -0.0241 -0.4298  1.3762
   52MOL0     C 6895   2.328   7.231   2.064 -0.7725 -0.1551  0.5783
   52MOL0     C 6896   2.435   7.316   2.141 -0.8051  0.3374  0.4060
   52MOL0     C 6897   2.561   7.288   2.075  0.1889  0.8796  0.4643
   52MOL0     C 6898   2.670   7.374   2.128  0.2761 -0.3450 -0.0318
   52MOL0     C 6899   2.717   7.322   2.266  0.6859  0.8813  1.2835
   52MOL0     C 6900   2.866   7.376   2.283  0.5533  0.2330  0.1377
   52MOL0     C 6901   2.932   7.296   2.385  0.5984  0.2404  0.3281
   52MOL0     N 6902   3.074   7.335   2.407  0.5594  0.1474 -0.3591
   52MOL0     C 6903   3.158   7.238   2.433 -0.3394 -0.1934 -0.5324
   52MOL0     C 6904   3.271   7.303   2.479  0.3995  0.3572  1.5481
   52MOL0     C 6905   3.404   7.249   2.526  0.5115 -0.4772  0.1497
   52MOL0     C 6906   3.474   7.355   2.624  0.5320  0.3261  0.3106
   52MOL0     C 6907   3.605   7.308   2.683 -0.0934  0.6927  0.4280
   52MOL0     C 6908   3.714   7.328   2.585 -0.6387 -0.4912  0.4077
   52MOL0     O 6909   3.839   7.275   2.641  0.2273 -0.0225  0.6682
   52MOL0     C 6910   3.947   7.258   2.563  0.1706  0.4743  0.9231
   52MOL0     C 6911   3.954   7.279   2.422  1.1947  1.1891 -0.0924
   52MOL0     C 6912   4.063   7.270   2.347 -0.2192 -0.1168 -0.5294
   52MOL0     C 6913   4.188   7.237   2.403  0.1101 -0.2103 -0.6050
   52MOL0     C 6914   4.303   7.209   2.314  0.4119 -0.2918  0.0537
   52MOL0     O 6915   4.274   7.249   2.180  0.3736 -0.4177  0.1162
   52MOL0     C 6916   4.367   7.237   2.080  0.9964 -0.3574  1.0423
   52MOL0     C 6917   4.356   7.325   1.971 -0.5216  0.3913 -0.5022
   52MOL0     C 6918   4.447   7.329   1.866 -0.0984  0.7646 -0.6268
   52MOL0     C 6919   4.551   7.235   1.858  1.2048  0.0160  0.2405
   52MOL0     O 6920   4.646   7.247   1.755  0.0857  0.0859  0.0342
   52MOL0     C 6921   4.775   7.282   1.800 -0.7694 -0.3399 -0.7331
   52MOL0     C 6922   4.776   7.437   1.802  0.2961 -0.3329 -0.1406
   52MOL0     C 6923   4.862   7.484   1.921 -0.2598  0.0172  0.6206
   52MOL0     C 6924   5.016   7.467   1.910 -0.0402  0.6064 -0.5614
   52MOL0     C 6925   5.077   7.317   1.936  0.7670 -0.1533  0.1649
   52MOL0     C 6926   5.232   7.313   1.948 -0.7185 -0.3388  0.5889
   52MOL0     C 6927   5.285   7.375   2.077  0.2187  0.2471  0.3519
   52MOL0     C 6928   5.442   7.381   2.074 -0.1706 -0.1373 -0.4393
   52MOL0    Cl 6929   5.477   7.239   2.174  0.0066  0.2438  0.1266
   52MOL0     C 6930   4.556   7.134   1.959 -0.0825 -0.3620  0.3190
   52MOL0     C 6931   4.470   7.144   2.068  0.1392  0.4990 -0.2409
   52MOL0     O 6932   4.413   7.175   2.350 -0.8933 -0.8670 -0.1643
   52MOL0     C 6933   4.189   7.230   2.550  0.0253  0.6705  0.5179
   52MOL0     C 6934   4.070   7.233   2.629  0.2174  1.0431  0.6099
   52MOL0     N 6935   3.239   7.437   2.474  0.2218  0.6801  0.0018
   52MOL0     N 6936   3.125   7.456   2.421 -0.1424 -0.5209 -0.5266
   52MOL0     C 6937   1.955   7.076   2.282 -0.3906 -0.3689  0.5134
   52MOL0     C 6938   1.820   7.083   2.327  0.0878 -1.0426  0.5737
   52MOL0     C 6939   1.387   7.272   2.376  0.0137 -0.8768 -0.8342
   52MOL0     C 6940   1.379   7.300   2.511  0.2992 -0.2755 -0.2555
   52MOL0     C 6941   1.256   7.319   2.573 -0.2047 -0.0009 -0.2214
   52MOL0     C 6942   1.140   7.291   2.504  0.6827 -0.4714 -0.4106
   52MOL0     O 6943   1.023   7.319   2.569 -0.7066 -0.9859  0.0721
   52MOL0     C 6944   0.975   7.230   2.669 -0.0394 -0.0614  1.2815
   52MOL0     C 6945   0.927   7.093   2.611  0.3767  0.4315 -0.2394
   52MOL0     C 6946   0.818   7.114   2.506  0.0610 -0.8290 -0.7061
   52MOL0     C 6947   0.771   6.986   2.439  0.2153  0.1769  0.4660
   52MOL0     C 6948   0.859   6.940   2.331  0.6438  0.5539  0.3004
   52MOL0     C 6949   0.940   6.910   2.252  0.1298  0.3855  0.4211
   52MOL0     C 6950   1.145   7.253   2.367 -0.9152  0.5353 -0.4812
   52MOL0     C 6951   1.269   7.250   2.297 -0.8224 -0.4222 -0.6444
   52MOL0     C 6952   1.269   7.207   2.158  0.4714  0.6370 -0.4931
   52MOL0     H 6953   1.785   7.419   2.381 -1.7891 -0.7937  1.1961
   52MOL0     H 6954   2.021   7.408   2.272  0.4253 -1.0805 -1.4774
   52MOL0     H 6955   2.118   7.249   2.023 -1.2296  2.6191  1.7259
   52MOL0     H 6956   2.186   7.372   2.122 -1.8621 -0.1842 -0.1332
   52MOL0     H 6957   2.332   7.256   1.957 -0.9988  0.7388  0.7691
   52MOL0     H 6958   2.344   7.124   2.075 -0.9304 -0.2978 -0.4787
   52MOL0     H 6959   2.455   7.283   2.243 -0.4159 -1.0876 -0.1093
   52MOL0     H 6960   2.414   7.422   2.160  2.4474  0.6697  3.1212
   52MOL0     H 6961   2.582   7.181   2.078 -0.4348  0.6680 -1.4851
   52MOL0     H 6962   2.555   7.312   1.969 -0.9673  1.4672  0.6513
   52MOL0     H 6963   2.756   7.372   2.060 -0.6680 -0.4898 -1.2603
   52MOL0     H 6964   2.636   7.478   2.129  0.4779 -0.2810  0.3762
   52MOL0     H 6965   2.672   7.353   2.360  1.8769  0.9757  1.8375
   52MOL0     H 6966   2.715   7.213   2.254 -0.2092  1.0884 -0.9046
   52MOL0     H 6967   2.866   7.484   2.302  1.0193  0.7712 -2.5189
   52MOL0     H 6968   2.926   7.362   2.192 -0.5027 -0.5501 -0.4551
   52MOL0     H 6969   2.877   7.319   2.476 -1.4467 -2.0250 -0.2130
   52MOL0     H 6970   2.913   7.190   2.363  1.8180 -0.3370  1.9166
   52MOL0     H 6971   3.159   7.130   2.420  1.9214 -0.6878  2.5647
   52MOL0     H 6972   3.388   7.154   2.577 -2.3240 -0.4456 -0.5209
   52MOL0     H 6973   3.472   7.243   2.441 -0.4824 -2.0306 -0.5823
   52MOL0     H 6974   3.493   7.453   2.581 -0.7542  0.6173  0.3494
   52MOL0     H 6975   3.403   7.364   2.707 -2.4101  0.0777 -2.0239
   52MOL0     H 6976   3.596   7.204   2.716 -1.2741  0.3644 -0.8430
   52MOL0     H 6977   3.623   7.355   2.780  0.7706  2.0427 -0.3595
   52MOL0     H 6978   3.727   7.435   2.566 -3.9120  0.1457  1.0983
   52MOL0     H 6979   3.685   7.277   2.493  1.0815 -1.2387  0.2525
   52MOL0     H 6980   3.861   7.306   2.373  0.8055  0.1767  0.0750
   52MOL0     H 6981   4.042   7.286   2.242  1.1504  1.8914 -0.5348
   52MOL0     H 6982   4.269   7.387   1.987 -0.3861  0.3138  0.6246
   52MOL0     H 6983   4.436   7.381   1.771  0.9160  0.6425 -0.8272
   52MOL0     H 6984   4.795   7.244   1.900 -3.1344 -1.2692 -0.5616
   52MOL0     H 6985   4.852   7.237   1.737  1.6049  0.3458  1.5334
   52MOL0     H 6986   4.816   7.480   1.710  1.4307 -1.2057 -0.0722
   52MOL0     H 6987   4.671   7.465   1.820  0.5052 -1.2936  3.0466
   52MOL0     H 6988   4.855   7.592   1.938  0.0232  0.2661 -0.7606
   52MOL0     H 6989   4.833   7.431   2.012  0.0682  1.0507  1.3517
   52MOL0     H 6990   5.067   7.530   1.984 -0.5163  1.5249 -1.0011
   52MOL0     H 6991   5.051   7.484   1.808 -1.6084  1.3394 -1.0028
   52MOL0     H 6992   5.052   7.251   1.853 -1.7762 -2.9456  2.8843
   52MOL0     H 6993   5.022   7.280   2.023  0.3057 -0.9064 -0.4360
   52MOL0     H 6994   5.261   7.208   1.960  1.0385  0.1899  1.2883
   52MOL0     H 6995   5.272   7.367   1.862 -0.8209  0.5904  1.1206
   52MOL0     H 6996   5.248   7.328   2.169 -4.0739  0.5516 -1.0344
   52MOL0     H 6997   5.247   7.476   2.090 -1.2271 -0.3843  1.2766
   52MOL0     H 6998   5.480   7.380   1.972  0.1465  0.5095 -0.3327
   52MOL0     H 6999   5.466   7.476   2.124 -4.4047  1.7103 -1.4129
   52MOL0     H 7000   4.633   7.059   1.944 -0.7693 -1.5272  2.2647
   52MOL0     H 7001   4.486   7.067   2.143 -0.2975  1.4172  0.8230
   52MOL0     H 7002   4.287   7.223   2.596  0.3878  2.2179  0.0316
   52MOL0     H 7003   4.072   7.216   2.736  2.0409  0.4228  0.5257
   52MOL0     H 7004   2.012   6.984   2.267  0.3599  0.0216  0.9230
   52MOL0     H 7005   1.770   6.989   2.348  2.0498 -1.9747  1.3546
   52MOL0     H 7006   1.467   7.320   2.571  1.1582  2.0169 -2.1303
   52MOL0     H 7007   1.251   7.365   2.671 -0.9546  3.8725 -1.9169
   52MOL0     H 7008   0.881   7.278   2.700 -0.0172  0.7958  0.0856
   52MOL0     H 7009   1.045   7.202   2.748 -0.5277 -1.8894  1.1198
   52MOL0     H 7010   0.884   7.019   2.680 -3.6311  2.7934  0.1160
   52MOL0     H 7011   1.009   7.042   2.559 -0.2045  1.0286 -1.7901
   52MOL0     H 7012   0.850   7.183   2.427 -1.4392 -1.2644 -1.7234
   52MOL0     H 7013   0.722   7.148   2.547  0.2112 -1.4061  0.1465
   52MOL0     H 7014   0.771   6.911   2.518  3.1080 -0.4300 -0.0020
   52MOL0     H 7015   0.673   7.003   2.394  2.0686  2.3652 -3.2849
   52MOL0     H 7016   1.011   6.892   2.174 -0.2910 -1.0658  0.3522
   52MOL0     H 7017   1.051   7.220   2.325 -1.4780 -0.2990  1.3355
   52MOL0     H 7018   1.328   7.117   2.143  2.9439  2.1343 -0.3689
   52MOL0     H 7019   1.170   7.185   2.117 -0.9017  1.7821  1.9661
   52MOL0     H 7020   1.317   7.286   2.100  1.0524 -0.1148 -1.0537
   53MOL0     O 7021   0.692   4.217   0.461 -0.3734 -0.7540 -0.7940
   53MOL0     C 7022   0.674   4.106   0.414 -0.7937  0.1158  0.9943
   53MOL0     O 7023   0.766   4.032   0.338 -0.1750  0.4376  0.6232
   53MOL0     C 7024   0.868   4.095   0.279 -1.0739  0.2632 -0.4260
   53MOL0     C 7025   0.998   4.058   0.312 -0.6208 -0.2497  0.4943
   53MOL0     C 7026   1.110   4.116   0.244 -0.5009 -0.0917 -0.0891
   53MOL0     C 7027   1.095   4.216   0.141 -0.1587 -0.2405 -0.2660
   53MOL0     O 7028   1.192   4.290   0.082 -0.5175 -0.2777 -0.7295
   53MOL0     C 7029   1.293   4.220   0.009  1.5872 -0.3422  0.2252
   53MOL0     C 7030   1.242   4.182  -0.128 -0.3870 -0.5754 -0.6562
   53MOL0     C 7031   1.352   4.150  -0.222  0.5767 -0.5573  0.3725
   53MOL0     C 7032   1.464   4.056  -0.174 -1.5770  1.3057  0.1269
   53MOL0     C 7033   1.594   4.043  -0.257  0.1052  0.0737 -0.7248
   53MOL0     C 7034   1.553   4.003  -0.399  0.1636 -0.1500 -0.7217
   53MOL0     C 7035   1.669   3.962  -0.490  0.4147 -0.3693  0.2358
   53MOL0     C 7036   1.737   4.089  -0.563 -0.2924  1.0013 -0.3952
   53MOL0     N 7037   1.844   4.035  -0.653 -0.7175  0.8001 -0.7693
   53MOL0     C 7038   1.951   3.960  -0.603 -0.3092  0.4702  0.3663
   53MOL0     C 7039   2.028   3.946  -0.713 -0.5199  0.3102  0.9511
   53MOL0     C 7040   2.158   3.874  -0.716  0.2029  0.7940  0.3075
   53MOL0     C 7041   2.269   3.982  -0.715 -0.5447 -0.1005 -0.1537
   53MOL0     C 7042   2.266   4.072  -0.842 -0.1035 -0.1044 -0.4397
   53MOL0     C 7043   2.401   4.148  -0.868 -0.1345 -0.5723  1.0149
   53MOL0     O 7044   2.527   4.069  -0.854 -0.1078  0.1230  0.0922
   53MOL0     C 7045   2.649   4.114  -0.902 -0.1512 -0.2589  0.3272
   53MOL0     C 7046   2.671   4.242  -0.939  1.2097  0.1487  0.3440
   53MOL0     C 7047   2.796   4.279  -0.996  0.3114 -0.5156  0.3659
   53MOL0     C 7048   2.904   4.189  -0.984 -0.7437  1.1622 -0.8084
   53MOL0     C 7049   3.045   4.226  -1.018  0.3985  0.3730 -1.1164
   53MOL0     O 7050   3.147   4.149  -0.974  0.0978 -0.0802 -0.3766
   53MOL0     C 7051   3.274   4.201  -0.977 -0.1682 -0.4094  0.0293
   53MOL0     C 7052   3.336   4.256  -1.098  0.0792  0.1319  0.2755
   53MOL0     C 7053   3.478   4.285  -1.103 -0.2092  0.0657  0.8051
   53MOL0     C 7054   3.551   4.281  -0.988  0.1118 -0.4943 -0.3228
   53MOL0     O 7055   3.674   4.325  -0.970 -0.8244 -0.3366 -0.3623
   53MOL0     C 7056   3.764   4.362  -1.075  0.1552 -0.2863  0.5787
   53MOL0     C 7057   3.910   4.351  -1.025  0.5559 -0.5693 -0.2512
   53MOL0     C 7058   3.937   4.437  -0.898  0.3673  0.4528 -0.0155
   53MOL0     C 7059   4.081   4.425  -0.869  0.1087 -1.3783 -0.1018
   53MOL0     C 7060   4.126   4.517  -0.752  0.6225  0.9700  0.1371
   53MOL0     C 7061   4.273   4.494  -0.728 -0.3526  1.4128  0.2216
   53MOL0     C 7062   4.322   4.556  -0.597 -0.4816 -0.0994 -0.2698
   53MOL0     C 7063   4.457   4.496  -0.545  0.4965 -0.4364  0.6303
   53MOL0    Cl 7064   4.583   4.536  -0.661 -0.2682 -0.0586  0.0253
   53MOL0     C 7065   3.493   4.235  -0.873  0.4606  0.4409 -1.2063
   53MOL0     C 7066   3.361   4.185  -0.870  0.0163 -0.3080  0.1165
   53MOL0     O 7067   3.054   4.323  -1.090  0.3426  0.1604 -0.3345
   53MOL0     C 7068   2.890   4.058  -0.938  1.1179  0.0032 -0.0534
   53MOL0     C 7069   2.758   4.019  -0.897  0.6790 -0.2944 -0.0915
   53MOL0     N 7070   1.963   4.004  -0.824 -0.1762  0.2756  0.5727
   53MOL0     N 7071   1.852   4.047  -0.786 -0.3014 -0.0567  0.5042
   53MOL0     C 7072   0.966   4.259   0.117 -0.2064  1.2345 -1.0833
   53MOL0     C 7073   0.859   4.208   0.196  0.0406  0.6124  1.0390
   53MOL0     C 7074   0.547   4.047   0.454 -0.7860 -0.1770  0.2401
   53MOL0     C 7075   0.487   4.101   0.569 -0.0159 -0.2155 -0.5707
   53MOL0     C 7076   0.359   4.053   0.610 -0.0527  1.1405 -0.6657
   53MOL0     C 7077   0.293   3.948   0.550  0.4759  0.2898  0.6318
   53MOL0     O 7078   0.169   3.897   0.589  0.0067  0.0290 -0.1380
   53MOL0     C 7079   0.086   3.938   0.706 -0.7292  0.6882  0.4518
   53MOL0     C 7080  -0.056   3.935   0.660  0.3120 -0.1527  1.0164
   53MOL0     C 7081  -0.074   3.996   0.519 -0.4682 -0.9108  0.6536
   53MOL0     C 7082  -0.216   4.037   0.490  0.4133 -0.2475  0.8218
   53MOL0     C 7083  -0.232   4.130   0.376  0.0286 -0.0748 -0.5169
   53MOL0     C 7084  -0.249   4.211   0.287  0.3512  0.6085  0.3890
   53MOL0     C 7085   0.364   3.889   0.436 -0.0047  0.2621  0.8187
   53MOL0     C 7086   0.482   3.947   0.385 -1.4650  1.3911  0.1500
   53MOL0     C 7087   0.525   3.881   0.257 -0.0149  0.6163 -0.3507
   53MOL0     H 7088   0.999   3.986   0.393 -1.6960  0.6449  1.3276
   53MOL0     H 7089   1.213   4.087   0.264 -0.2526  0.3346 -0.7374
   53MOL0     H 7090   1.377   4.290   0.002 -0.4637  2.2211 -0.3307
   53MOL0     H 7091   1.324   4.123   0.050  0.4664 -1.6429 -1.8034
   53MOL0     H 7092   1.195   4.270  -0.173  2.5311  1.0456 -0.8240
   53MOL0     H 7093   1.169   4.102  -0.121 -1.8574  0.7662 -0.1395
   53MOL0     H 7094   1.392   4.249  -0.248 -0.8797 -0.0328  0.0121
   53MOL0     H 7095   1.303   4.123  -0.316 -2.9710  0.6859  1.6588
   53MOL0     H 7096   1.496   4.096  -0.078  0.0645  0.8910 -0.2135
   53MOL0     H 7097   1.421   3.956  -0.159  3.8859 -1.7618 -1.8611
   53MOL0     H 7098   1.636   4.144  -0.257  0.1545  0.1668 -4.0301
   53MOL0     H 7099   1.673   3.976  -0.222  2.2566  2.9714  0.3411
   53MOL0     H 7100   1.478   3.925  -0.415  0.3814 -0.3351 -0.8425
   53MOL0     H 7101   1.514   4.097  -0.440  0.0814  0.0447 -0.2013
   53MOL0     H 7102   1.645   3.891  -0.570  0.4230  0.9655 -0.9979
   53MOL0     H 7103   1.736   3.898  -0.432  1.9576  0.2019 -0.8509
   53MOL0     H 7104   1.662   4.132  -0.630  0.6960  0.4202 -1.9310
   53MOL0     H 7105   1.778   4.159  -0.490 -1.7001  0.8413  0.6001
   53MOL0     H 7106   1.988   3.935  -0.504  0.2563 -1.0779 -0.2154
   53MOL0     H 7107   2.174   3.803  -0.634  1.9947 -0.3135 -0.9055
   53MOL0     H 7108   2.169   3.808  -0.802  0.4306 -1.7855  2.1943
   53MOL0     H 7109   2.267   4.043  -0.624  2.5382  1.1042 -0.7868
   53MOL0     H 7110   2.363   3.927  -0.707  0.1427  1.3030  4.3683
   53MOL0     H 7111   2.189   4.149  -0.853  0.8204  0.8458 -0.4310
   53MOL0     H 7112   2.251   4.009  -0.930  0.3685 -2.8550  1.3270
   53MOL0     H 7113   2.404   4.228  -0.794  0.5327  1.5088 -1.1569
   53MOL0     H 7114   2.394   4.183  -0.971 -2.6062 -0.3294  1.2012
   53MOL0     H 7115   2.593   4.317  -0.934  3.1857  2.4476 -1.0154
   53MOL0     H 7116   2.825   4.379  -1.024  0.1292 -0.5339  0.1099
   53MOL0     H 7117   3.279   4.267  -1.190 -0.8379 -1.4170  0.6249
   53MOL0     H 7118   3.518   4.331  -1.192  1.2225  3.2269  2.9216
   53MOL0     H 7119   3.760   4.307  -1.169  2.8096  0.5222 -0.0951
   53MOL0     H 7120   3.738   4.466  -1.097 -1.4201 -0.7828 -0.0780
   53MOL0     H 7121   3.940   4.247  -1.007 -0.7107 -1.3213 -2.1700
   53MOL0     H 7122   3.970   4.387  -1.109 -0.6230  1.2313 -0.3726
   53MOL0     H 7123   3.903   4.540  -0.913  0.2311  0.4129  0.0219
   53MOL0     H 7124   3.877   4.412  -0.810  0.1667 -0.2118 -0.3334
   53MOL0     H 7125   4.145   4.455  -0.952 -0.9371  1.5098  0.0189
   53MOL0     H 7126   4.104   4.325  -0.832  0.4103 -0.3504  2.7623
   53MOL0     H 7127   4.075   4.486  -0.661  1.0459  1.8559  0.6855
   53MOL0     H 7128   4.104   4.622  -0.770 -2.6532 -0.0361 -3.2415
   53MOL0     H 7129   4.286   4.387  -0.713  0.9525  1.4632 -0.3658
   53MOL0     H 7130   4.333   4.525  -0.815 -1.4097  1.0511 -0.6524
   53MOL0     H 7131   4.255   4.538  -0.512 -2.2391  1.3065 -1.2993
   53MOL0     H 7132   4.324   4.665  -0.606  3.0521 -0.0389 -0.2170
   53MOL0     H 7133   4.478   4.532  -0.444  1.6474 -0.1762  0.3102
   53MOL0     H 7134   4.459   4.387  -0.539  0.1733 -0.5227 -0.5018
   53MOL0     H 7135   3.535   4.246  -0.773 -2.3079  0.8306  0.0099
   53MOL0     H 7136   3.322   4.137  -0.781 -0.7874 -1.1930 -0.6726
   53MOL0     H 7137   2.956   3.972  -0.945 -1.5209 -2.0434 -2.7823
   53MOL0     H 7138   2.757   3.919  -0.857  1.9332 -0.4633 -0.4354
   53MOL0     H 7139   0.942   4.335   0.043  1.7241  1.9978 -0.9907
   53MOL0     H 7140   0.760   4.250   0.182  0.6202  1.9186  0.6536
   53MOL0     H 7141   0.523   4.173   0.642 -3.2242 -0.1916  1.1989
   53MOL0     H 7142   0.310   4.102   0.694  0.0681  2.1285 -1.1510
   53MOL0     H 7143   0.118   4.042   0.721  0.3094  0.4597 -0.0794
   53MOL0     H 7144   0.117   3.893   0.800 -0.6301  0.0975  0.1401
   53MOL0     H 7145  -0.128   3.985   0.727  1.8591  1.4527  1.5588
   53MOL0     H 7146  -0.091   3.831   0.658 -1.3592  0.3748 -1.0818
   53MOL0     H 7147  -0.043   3.915   0.452  0.3368 -0.7488  0.8159
   53MOL0     H 7148  -0.008   4.082   0.505 -3.7625  1.9523  1.5008
   53MOL0     H 7149  -0.272   3.945   0.471  0.1603  0.3294 -1.5959
   53MOL0     H 7150  -0.269   4.083   0.573 -0.8302  0.8526 -0.5265
   53MOL0     H 7151  -0.255   4.275   0.202 -0.7389  0.1259  0.0830
   53MOL0     H 7152   0.305   3.811   0.390  0.7631 -0.2138  0.6131
   53MOL0     H 7153   0.631   3.853   0.258  0.1636  0.8793 -3.2085
   53MOL0     H 7154   0.478   3.787   0.228  2.7102 -1.1954  0.6627
   53MOL0     H 7155   0.522   3.963   0.185  0.2349  1.3157  0.4176
   54MOL0     O 7156   9.042   2.118   0.879 -0.6822  0.2285 -0.0940
   54MOL0     C 7157   9.014   2.230   0.826 -1.3588  0.8250  0.8581
   54MOL0     O 7158   9.106   2.329   0.820  0.2960  0.1589  0.8925
   54MOL0     C 7159   9.245   2.311   0.851  0.3706 -0.8633 -0.0687
   54MOL0     C 7160   9.335   2.236   0.771  0.2026 -0.4739 -0.5292
   54MOL0     C 7161   9.467   2.215   0.804 -0.6792 -0.8066 -0.9776
   54MOL0     C 7162   9.520   2.278   0.917  0.1952  0.2413 -0.0291
   54MOL0     O 7163   9.651   2.249   0.951 -0.4978  0.3994  0.4673
   54MOL0     C 7164   9.727   2.326   1.048 -0.0556  0.0322  0.3036
   54MOL0     C 7165   9.772   2.462   0.993  0.4904  0.0468  0.9776
   54MOL0     C 7166   9.878   2.528   1.083  0.1417  0.2177  0.7779
   54MOL0     C 7167  10.004   2.438   1.085  0.4164  0.7731  0.6413
   54MOL0     C 7168  10.118   2.527   1.132 -0.3967 -0.9412 -0.1014
   54MOL0     C 7169  10.255   2.445   1.148  0.1132 -0.3602  0.1686
   54MOL0     C 7170  10.370   2.539   1.178  0.0607 -0.3894 -0.1333
   54MOL0     C 7171  10.511   2.488   1.132  0.0593  0.5836  0.0713
   54MOL0     N 7172  10.631   2.558   1.184 -0.6871 -0.6362 -0.1705
   54MOL0     C 7173  10.744   2.599   1.110 -0.7231 -0.4032 -0.6448
   54MOL0     C 7174  10.824   2.670   1.202  0.0747 -0.0804 -0.6927
   54MOL0     C 7175  10.958   2.729   1.171  0.2110  0.6214 -0.2059
   54MOL0     C 7176  10.962   2.821   1.041 -0.4236 -0.2418  0.8366
   54MOL0     C 7177  11.093   2.901   1.016  1.1038 -0.3618  1.2950
   54MOL0     C 7178  11.224   2.834   0.956  0.4006  1.0338 -0.4964
   54MOL0     O 7179  11.188   2.780   0.824  0.6621  0.3826 -0.4023
   54MOL0     C 7180  11.281   2.704   0.757 -0.5703 -0.5783 -1.2183
   54MOL0     C 7181  11.221   2.622   0.662 -0.1249  0.3206  0.1203
   54MOL0     C 7182  11.299   2.545   0.577  0.7624 -0.3004 -0.0790
   54MOL0     C 7183  11.444   2.536   0.584 -0.7937  0.0140 -0.3722
   54MOL0     C 7184  11.532   2.466   0.492 -0.7257  0.5291 -0.4723
   54MOL0     O 7185  11.667   2.473   0.508 -0.0196  0.4088 -0.3021
   54MOL0     C 7186  11.758   2.430   0.411  0.4169  0.9630  0.0525
   54MOL0     C 7187  11.743   2.324   0.325 -0.3785  0.1152 -0.4321
   54MOL0     C 7188  11.841   2.287   0.240 -0.7091  0.6794 -0.0620
   54MOL0     C 7189  11.964   2.354   0.238 -0.1773 -0.3743 -0.2538
   54MOL0     O 7190  12.061   2.333   0.146  0.0121  0.4313 -0.0120
   54MOL0     C 7191  12.036   2.279   0.016  0.0502 -0.2182 -0.7371
   54MOL0     C 7192  12.137   2.370  -0.075  0.6666  0.3131  0.0006
   54MOL0     C 7193  12.282   2.363  -0.043  1.0236  0.1977 -0.6929
   54MOL0     C 7194  12.328   2.230  -0.096 -1.0944  0.1162  0.0776
   54MOL0     C 7195  12.468   2.200  -0.075 -0.6490  1.3311  0.0106
   54MOL0     C 7196  12.501   2.054  -0.121 -0.0434 -0.1343  0.0004
   54MOL0     C 7197  12.647   2.012  -0.106 -0.6357  0.8951 -0.6844
   54MOL0     C 7198  12.643   1.858  -0.094  0.7371  0.5037  0.1176
   54MOL0    Cl 7199  12.548   1.783  -0.224  0.0613 -0.0538  0.0311
   54MOL0     C 7200  11.998   2.442   0.344  0.7673  0.1281 -0.5451
   54MOL0     C 7201  11.885   2.474   0.429 -0.3077  0.3080 -0.3928
   54MOL0     O 7202  11.470   2.402   0.412  0.2532  0.1620  0.9930
   54MOL0     C 7203  11.503   2.613   0.686 -0.1109 -0.3496 -0.1440
   54MOL0     C 7204  11.421   2.700   0.767 -0.2530  0.9205  0.0483
   54MOL0     N 7205  10.772   2.650   1.325 -0.1356 -0.2018  0.0833
   54MOL0     N 7206  10.655   2.597   1.308  0.5162 -0.1511  0.0901
   54MOL0     C 7207   9.438   2.362   0.990 -0.0099 -0.4662 -0.4343
   54MOL0     C 7208   9.298   2.376   0.960  0.7094  0.3393  0.2461
   54MOL0     C 7209   8.874   2.270   0.795  1.2297  0.9788 -1.1094
   54MOL0     C 7210   8.854   2.403   0.787  1.5946 -0.0576  0.4075
   54MOL0     C 7211   8.730   2.467   0.767  0.9110  0.4097 -0.0620
   54MOL0     C 7212   8.609   2.380   0.779 -1.1219  0.5479  0.3532
   54MOL0     O 7213   8.478   2.435   0.771  1.2950  0.5851  0.5241
   54MOL0     C 7214   8.374   2.348   0.820  0.1381 -0.0503 -0.1110
   54MOL0     C 7215   8.257   2.430   0.841  0.0590  0.0755 -0.9318
   54MOL0     C 7216   8.156   2.355   0.925 -0.2416 -0.4319  0.2410
   54MOL0     C 7217   8.090   2.238   0.850 -0.1159  0.0591 -0.1013
   54MOL0     C 7218   8.002   2.173   0.944  1.0400  0.7409 -0.4169
   54MOL0     C 7219   7.920   2.134   1.028  0.1343 -0.5307 -1.1965
   54MOL0     C 7220   8.627   2.240   0.797  0.1382  0.0604  0.6861
   54MOL0     C 7221   8.756   2.187   0.807  0.7802  0.1713 -0.3901
   54MOL0     C 7222   8.763   2.038   0.807 -0.6174  0.2763 -0.8160
   54MOL0     H 7223   9.289   2.175   0.694  0.3630 -2.5702  0.9189
   54MOL0     H 7224   9.532   2.154   0.742  2.3449 -0.5048  1.6487
   54MOL0     H 7225   9.682   2.328   1.148 -1.6156  2.3545 -0.3654
   54MOL0     H 7226   9.821   2.271   1.047 -1.2266 -2.0728 -1.1738
   54MOL0     H 7227   9.686   2.529   0.999  1.5951  1.7232 -0.8038
   54MOL0     H 7228   9.799   2.457   0.887 -3.2822 -2.4353 -0.0504
   54MOL0     H 7229   9.848   2.554   1.185  2.0308  2.7428  0.7849
   54MOL0     H 7230   9.913   2.624   1.043 -0.1666  0.9503  2.1983
   54MOL0     H 7231   9.988   2.356   1.155  0.2115  1.9165  1.9806
   54MOL0     H 7232  10.033   2.408   0.984  2.0780  0.5668  1.1440
   54MOL0     H 7233  10.115   2.613   1.065 -3.7063 -0.8327  0.0175
   54MOL0     H 7234  10.086   2.560   1.231  2.2670  2.6819 -0.2742
   54MOL0     H 7235  10.254   2.369   1.227 -3.0652  0.9100  1.4930
   54MOL0     H 7236  10.273   2.402   1.049 -1.2035  1.1570 -0.7888
   54MOL0     H 7237  10.357   2.558   1.285 -4.9135  1.2877 -0.7706
   54MOL0     H 7238  10.356   2.640   1.138 -0.4959 -0.2311  0.4317
   54MOL0     H 7239  10.520   2.380   1.148 -3.3393  0.6040  3.6137
   54MOL0     H 7240  10.521   2.507   1.025  0.7139  1.8555  0.3374
   54MOL0     H 7241  10.760   2.597   1.002 -0.5863 -0.6946 -0.6195
   54MOL0     H 7242  10.997   2.782   1.259  0.9570  0.2736 -0.3182
   54MOL0     H 7243  11.020   2.639   1.177 -2.4074 -1.2170  1.0418
   54MOL0     H 7244  10.936   2.767   0.949 -0.0794 -0.3982  0.8316
   54MOL0     H 7245  10.884   2.896   1.057 -2.9507 -2.1356 -1.5688
   54MOL0     H 7246  11.124   2.957   1.105  1.4293  1.0481  0.3177
   54MOL0     H 7247  11.068   2.980   0.945  1.4694 -1.3896 -0.0241
   54MOL0     H 7248  11.274   2.759   1.018  2.6921  0.4124 -2.9373
   54MOL0     H 7249  11.283   2.925   0.944 -0.6740  1.8413  0.1781
   54MOL0     H 7250  11.115   2.629   0.639  0.3026  0.9580 -1.8239
   54MOL0     H 7251  11.248   2.505   0.490 -0.2286  1.5637 -0.3997
   54MOL0     H 7252  11.656   2.260   0.330  1.1684 -2.0734  0.0647
   54MOL0     H 7253  11.831   2.206   0.168  0.5596  0.2620  0.2121
   54MOL0     H 7254  12.062   2.173   0.026 -2.2977 -0.7423  0.4387
   54MOL0     H 7255  11.932   2.286  -0.018 -0.4545  1.3559  0.9629
   54MOL0     H 7256  12.121   2.344  -0.180 -4.3963  3.4891 -0.4069
   54MOL0     H 7257  12.109   2.475  -0.059  2.4903  0.7470  0.6073
   54MOL0     H 7258  12.332   2.442  -0.101  0.6345 -0.5856 -2.1403
   54MOL0     H 7259  12.297   2.381   0.064 -2.4231  1.1076 -0.2406
   54MOL0     H 7260  12.297   2.220  -0.200  3.3782 -2.7086 -1.2609
   54MOL0     H 7261  12.269   2.147  -0.054  2.1074 -2.7150 -0.5082
   54MOL0     H 7262  12.492   2.215   0.030  0.4208  1.7465 -0.2758
   54MOL0     H 7263  12.531   2.276  -0.123 -1.9841  3.1058  0.9989
   54MOL0     H 7264  12.441   1.977  -0.072  0.1245 -0.0995  0.2639
   54MOL0     H 7265  12.473   2.050  -0.227  0.3690  3.5938 -0.3848
   54MOL0     H 7266  12.687   2.059  -0.016 -3.7140 -1.3565  2.0952
   54MOL0     H 7267  12.699   2.031  -0.200  1.6603  1.2332  0.5988
   54MOL0     H 7268  12.740   1.811  -0.113 -0.4718 -1.4323 -1.7293
   54MOL0     H 7269  12.605   1.829   0.004 -0.9868  2.0119 -0.0438
   54MOL0     H 7270  12.098   2.480   0.361  0.1958  1.7278 -0.6715
   54MOL0     H 7271  11.912   2.535   0.515 -1.2657 -2.7088  2.2077
   54MOL0     H 7272  11.609   2.607   0.708  0.1621 -1.8538 -1.6642
   54MOL0     H 7273  11.479   2.764   0.832 -2.5506  2.7149  0.4723
   54MOL0     H 7274   9.476   2.411   1.079  0.8925  1.0873 -1.6166
   54MOL0     H 7275   9.223   2.428   1.019 -0.6703 -0.2915 -0.8838
   54MOL0     H 7276   8.937   2.468   0.814  1.6763 -1.0535  2.8048
   54MOL0     H 7277   8.714   2.574   0.765 -3.4186 -0.0607 -1.7403
   54MOL0     H 7278   8.405   2.310   0.918  1.0876  0.8608 -0.0328
   54MOL0     H 7279   8.353   2.270   0.747 -1.5988  2.1265 -2.0835
   54MOL0     H 7280   8.209   2.475   0.754 -0.6606 -0.0144 -0.5930
   54MOL0     H 7281   8.280   2.529   0.882  1.8216  0.2745 -2.2986
   54MOL0     H 7282   8.084   2.435   0.945  1.2429  1.9797 -3.1008
   54MOL0     H 7283   8.193   2.330   1.025  1.9240 -0.3030 -0.4708
   54MOL0     H 7284   8.032   2.270   0.764  0.7861  0.9149 -0.4086
   54MOL0     H 7285   8.150   2.153   0.816  2.5628  1.6962  0.2856
   54MOL0     H 7286   7.837   2.103   1.088  0.0978  0.6426 -0.6127
   54MOL0     H 7287   8.543   2.172   0.809  1.3852 -2.3041 -2.3178
   54MOL0     H 7288   8.676   1.982   0.772  1.7235 -3.5604 -1.0623
   54MOL0     H 7289   8.848   2.008   0.745  0.0852  1.7735 -0.6223
   54MOL0     H 7290   8.788   2.005   0.909  2.8842  2.2685 -0.8484
   55MOL0     O 7291   1.535   2.970   4.520 -0.3526 -0.4519  0.0353
   55MOL0     C 7292   1.442   2.959   4.597 -0.6040 -0.9628  0.8220
   55MOL0     O 7293   1.376   2.844   4.621  0.9156  0.0832  0.7207
   55MOL0     C 7294   1.442   2.730   4.594 -1.0905  1.2987 -0.5242
   55MOL0     C 7295   1.385   2.623   4.521  0.0870 -0.1215  0.2067
   55MOL0     C 7296   1.439   2.498   4.505 -0.8643  0.1375 -0.4301
   55MOL0     C 7297   1.565   2.474   4.567 -0.9724  0.4479  0.1540
   55MOL0     O 7298   1.643   2.357   4.570 -0.4798  0.4232 -0.1350
   55MOL0     C 7299   1.573   2.238   4.619 -0.0567  0.2360  0.8402
   55MOL0     C 7300   1.545   2.259   4.771  0.4883  0.9874  0.3432
   55MOL0     C 7301   1.463   2.145   4.842 -0.9489  0.5287  0.2039
   55MOL0     C 7302   1.505   2.003   4.791 -1.2208  0.8922  0.0269
   55MOL0     C 7303   1.457   1.890   4.876  0.3008 -0.3618  0.1781
   55MOL0     C 7304   1.293   1.893   4.882  0.0207 -0.1403  0.1645
   55MOL0     C 7305   1.241   1.754   4.913 -0.2356 -0.0777  0.4975
   55MOL0     C 7306   1.096   1.757   4.951  0.7184 -0.1490 -0.1305
   55MOL0     N 7307   0.995   1.811   4.857 -0.0880 -0.1504 -0.0924
   55MOL0     C 7308   0.912   1.735   4.767 -0.0921 -0.0559  0.8730
   55MOL0     C 7309   0.830   1.827   4.707  0.8925 -0.7297 -0.0177
   55MOL0     C 7310   0.712   1.796   4.617  0.2296  0.2361  0.1679
   55MOL0     C 7311   0.664   1.916   4.539 -0.1223 -0.5173  0.0644
   55MOL0     C 7312   0.571   1.867   4.423 -0.4626 -0.5624 -0.6747
   55MOL0     C 7313   0.514   1.982   4.347 -0.6822 -0.5541  0.5541
   55MOL0     O 7314   0.434   2.052   4.444  0.5756 -0.0575  0.3673
   55MOL0     C 7315   0.399   2.179   4.414  0.3509 -0.0197 -0.3633
   55MOL0     C 7316   0.391   2.270   4.518 -0.6496  0.0934 -1.2853
   55MOL0     C 7317   0.360   2.406   4.496 -0.3145 -0.4744 -0.4622
   55MOL0     C 7318   0.319   2.445   4.366 -0.6140 -0.7580  0.2894
   55MOL0     C 7319   0.271   2.581   4.331 -0.2584  0.4891 -0.1094
   55MOL0     O 7320   0.242   2.666   4.432  0.6995  0.3776  0.4655
   55MOL0     C 7321   0.245   2.800   4.415  0.3540 -0.1960  0.6244
   55MOL0     C 7322   0.336   2.879   4.484  0.1244 -0.2467 -0.4233
   55MOL0     C 7323   0.325   3.019   4.480  1.1414 -0.8661  1.0512
   55MOL0     C 7324   0.228   3.085   4.395 -0.7925  0.6973  0.1976
   55MOL0     O 7325   0.224   3.221   4.369  0.5021 -0.5049 -0.3053
   55MOL0     C 7326   0.307   3.304   4.452  0.3509  0.0887  1.1400
   55MOL0     C 7327   0.234   3.327   4.586  0.1012 -0.1824  0.8515
   55MOL0     C 7328   0.248   3.468   4.639  0.0026  0.4335  0.4357
   55MOL0     C 7329   0.192   3.570   4.535 -0.2902 -1.0793  0.5681
   55MOL0     C 7330   0.173   3.700   4.618 -1.1829 -0.4643  0.6102
   55MOL0     C 7331   0.105   3.807   4.547  0.0941 -0.1217 -0.0851
   55MOL0     C 7332  -0.024   3.777   4.472 -0.6250  0.8635  0.8736
   55MOL0     C 7333  -0.084   3.919   4.449 -0.0109  0.0240  0.9236
   55MOL0    Cl 7334   0.032   4.028   4.363  0.3320 -0.4348  0.3273
   55MOL0     C 7335   0.145   3.002   4.319  0.4747 -0.1824 -0.5751
   55MOL0     C 7336   0.151   2.864   4.332 -0.3115  0.1805 -0.0617
   55MOL0     O 7337   0.290   2.604   4.207 -0.0573 -0.7625 -0.1770
   55MOL0     C 7338   0.318   2.348   4.262  0.5739 -0.4647  0.0287
   55MOL0     C 7339   0.366   2.215   4.281  0.9374 -0.8393 -1.4875
   55MOL0     N 7340   0.876   1.950   4.739 -0.2945  0.0245  0.6525
   55MOL0     N 7341   0.968   1.940   4.831  0.7007 -0.0311  0.4763
   55MOL0     C 7342   1.626   2.577   4.640 -0.8972  0.6666  0.1770
   55MOL0     C 7343   1.570   2.702   4.663  0.3999  0.5450 -0.1297
   55MOL0     C 7344   1.373   3.090   4.634 -0.1252  0.5823  0.4320
   55MOL0     C 7345   1.351   3.185   4.532 -0.7366 -0.2480  0.7057
   55MOL0     C 7346   1.263   3.287   4.560 -0.5378 -0.7444 -0.1117
   55MOL0     C 7347   1.225   3.309   4.688  0.1851 -0.4183 -1.0050
   55MOL0     O 7348   1.145   3.421   4.727  0.1336  0.6011 -0.8133
   55MOL0     C 7349   1.226   3.531   4.764  0.1474  0.2853 -0.5602
   55MOL0     C 7350   1.135   3.645   4.819 -0.4508 -0.6481 -0.0017
   55MOL0     C 7351   1.052   3.605   4.943 -0.2071 -0.0863 -0.0399
   55MOL0     C 7352   1.013   3.707   5.044 -0.2009 -0.6971  0.5709
   55MOL0     C 7353   1.140   3.769   5.093 -0.6010  0.1347 -0.0223
   55MOL0     C 7354   1.248   3.805   5.136  0.1744 -0.8772  0.7252
   55MOL0     C 7355   1.253   3.225   4.790  0.8690  0.0531 -0.0180
   55MOL0     C 7356   1.329   3.111   4.761  0.3366 -0.6901 -0.5566
   55MOL0     C 7357   1.344   3.020   4.885  0.1594  0.2556  0.1551
   55MOL0     H 7358   1.287   2.647   4.480 -0.0775  0.7968  1.1062
   55MOL0     H 7359   1.385   2.420   4.453  0.8226 -0.4676 -1.3567
   55MOL0     H 7360   1.479   2.236   4.564 -0.3718  1.1320  1.3236
   55MOL0     H 7361   1.628   2.146   4.596 -1.4361 -0.0186 -1.7856
   55MOL0     H 7362   1.484   2.348   4.783 -0.7032  0.3491 -0.7374
   55MOL0     H 7363   1.640   2.272   4.823 -0.3228  2.8589  1.4236
   55MOL0     H 7364   1.358   2.162   4.815 -1.1824 -0.0286  0.7365
   55MOL0     H 7365   1.462   2.160   4.950  0.4756 -4.2542  1.1034
   55MOL0     H 7366   1.472   1.981   4.689 -1.7317  0.5906  0.2517
   55MOL0     H 7367   1.614   1.996   4.786 -1.2897  0.4664 -1.3050
   55MOL0     H 7368   1.499   1.801   4.829 -1.1462  0.2425 -2.4304
   55MOL0     H 7369   1.494   1.905   4.978 -1.4836  1.6694  0.6055
   55MOL0     H 7370   1.266   1.961   4.964 -0.0720  0.4117 -0.3158
   55MOL0     H 7371   1.247   1.942   4.796 -2.1133 -1.2968  0.5761
   55MOL0     H 7372   1.307   1.705   4.985  2.1710  2.9440  0.5236
   55MOL0     H 7373   1.253   1.700   4.819  1.8636 -0.2185  0.7943
   55MOL0     H 7374   1.063   1.660   4.987  0.0775  0.1945  0.2149
   55MOL0     H 7375   1.086   1.830   5.032  1.4436 -0.3486  0.1446
   55MOL0     H 7376   0.911   1.628   4.749  1.2339  0.4037 -2.5045
   55MOL0     H 7377   0.742   1.711   4.555 -2.1996  0.0814 -0.8904
   55MOL0     H 7378   0.633   1.769   4.688  0.3592  1.8559  0.9812
   55MOL0     H 7379   0.631   1.994   4.607  1.6159  0.7849 -0.4967
   55MOL0     H 7380   0.754   1.960   4.496 -0.4552 -2.0675 -2.4144
   55MOL0     H 7381   0.492   1.806   4.468 -1.3217  0.0023 -1.3870
   55MOL0     H 7382   0.632   1.801   4.361  1.4740 -0.2315  0.7777
   55MOL0     H 7383   0.450   1.947   4.265  2.6049  0.1312 -2.5309
   55MOL0     H 7384   0.592   2.047   4.307  1.4880 -1.5763  2.8609
   55MOL0     H 7385   0.416   2.238   4.619  2.8118  7.9061  1.0763
   55MOL0     H 7386   0.356   2.477   4.577  0.8616  0.5325 -1.2462
   55MOL0     H 7387   0.410   2.839   4.554  0.2720  1.6665  0.5951
   55MOL0     H 7388   0.379   3.085   4.547  2.5318  1.2357 -1.9206
   55MOL0     H 7389   0.413   3.277   4.455  1.4327  3.4362 -1.0168
   55MOL0     H 7390   0.317   3.396   4.394  1.6853 -1.6894 -1.6615
   55MOL0     H 7391   0.127   3.303   4.584 -0.1181  0.8116  0.0911
   55MOL0     H 7392   0.273   3.250   4.654 -0.9430 -1.0212  0.5264
   55MOL0     H 7393   0.190   3.461   4.731 -1.4520  0.0587 -0.4783
   55MOL0     H 7394   0.353   3.477   4.667 -0.6645 -2.0671  4.4433
   55MOL0     H 7395   0.103   3.519   4.497 -0.1212 -2.6096  2.0841
   55MOL0     H 7396   0.253   3.601   4.450 -2.3937  0.1213 -0.5708
   55MOL0     H 7397   0.269   3.744   4.646 -1.4123  0.1090  0.5077
   55MOL0     H 7398   0.116   3.681   4.709  1.1670  5.8309  3.9994
   55MOL0     H 7399   0.076   3.880   4.623 -1.8399  0.7466 -1.5451
   55MOL0     H 7400   0.172   3.862   4.480 -0.8318  0.8413 -0.2452
   55MOL0     H 7401  -0.099   3.720   4.528 -2.7538  0.6613 -1.9690
   55MOL0     H 7402  -0.010   3.724   4.378  0.0253  0.0803  1.4022
   55MOL0     H 7403  -0.177   3.917   4.392  0.2723  0.2497  0.4509
   55MOL0     H 7404  -0.096   3.969   4.546  1.9266  1.9209  0.2585
   55MOL0     H 7405   0.062   3.032   4.255 -0.2666  1.6169  1.1050
   55MOL0     H 7406   0.084   2.794   4.282  0.9934  0.6312 -2.6483
   55MOL0     H 7407   0.265   2.379   4.173 -2.2008 -0.5987  1.5242
   55MOL0     H 7408   0.372   2.145   4.198  1.0188  0.7872 -2.9298
   55MOL0     H 7409   1.718   2.547   4.690 -0.3026  2.6645  0.3642
   55MOL0     H 7410   1.623   2.767   4.732  1.2718 -1.7930  1.5123
   55MOL0     H 7411   1.408   3.172   4.441  0.0156 -3.5253  1.5404
   55MOL0     H 7412   1.226   3.355   4.484 -0.3517 -0.3740  0.1247
   55MOL0     H 7413   1.290   3.570   4.685 -0.1834  0.1169 -0.9137
   55MOL0     H 7414   1.288   3.492   4.846 -0.4837 -1.0412 -0.7010
   55MOL0     H 7415   1.072   3.688   4.741  0.9670 -0.3338 -0.9974
   55MOL0     H 7416   1.208   3.722   4.846 -0.2846 -1.2715  1.4527
   55MOL0     H 7417   1.114   3.527   4.989 -2.2405 -3.1142 -2.0400
   55MOL0     H 7418   0.957   3.556   4.919 -0.2905  0.9739 -2.0872
   55MOL0     H 7419   0.937   3.776   5.005 -1.2670 -2.0054  0.2322
   55MOL0     H 7420   0.975   3.659   5.135 -2.7759  0.9957  0.4972
   55MOL0     H 7421   1.342   3.832   5.178 -0.9991  1.4386  2.0576
   55MOL0     H 7422   1.216   3.256   4.888 -1.9315 -0.2976 -0.8783
   55MOL0     H 7423   1.444   2.975   4.882  0.8047  1.6361 -1.1510
   55MOL0     H 7424   1.332   3.079   4.976  0.4359  0.0703  0.3121
   55MOL0     H 7425   1.269   2.940   4.882  0.9730 -0.4952 -1.0552
   56MOL0     O 7426   2.064  10.561  10.070 -0.3915 -0.2073  0.0466
   56MOL0     C 7427   2.040  10.469   9.988 -1.2841  0.8448 -0.9797
   56MOL0     O 7428   2.130  10.427   9.894 -0.1615 -0.5463  0.1111
   56MOL0     C 7429   2.260  10.463   9.902  0.7257 -0.1921  0.5942
   56MOL0     C 7430   2.293  10.579   9.843  0.3059 -0.2340 -0.7385
   56MOL0     C 7431   2.426  10.620   9.824 -0.3162 -0.4825 -0.8827
   56MOL0     C 7432   2.531  10.538   9.855 -0.0782 -0.4870 -0.5278
   56MOL0     O 7433   2.660  10.575   9.835  0.3392 -0.3533  0.4167
   56MOL0     C 7434   2.703  10.586   9.695  0.8421 -0.5236 -0.0820
   56MOL0     C 7435   2.809  10.470   9.660  0.6394  0.3553  0.7374
   56MOL0     C 7436   2.880  10.500   9.522  1.0988 -0.0013 -0.6459
   56MOL0     C 7437   2.957  10.378   9.480 -0.6170 -0.2504 -0.2471
   56MOL0     C 7438   3.069  10.429   9.386  0.3766  0.1050  0.2068
   56MOL0     C 7439   3.158  10.302   9.338  0.1264 -0.8798 -0.5793
   56MOL0     C 7440   3.269  10.367   9.259 -0.0139 -0.4000  0.1126
   56MOL0     C 7441   3.329  10.251   9.176 -0.0183  0.1452 -0.1506
   56MOL0     N 7442   3.455  10.293   9.110 -0.5973  0.6581  0.0890
   56MOL0     C 7443   3.546  10.370   9.175 -0.2061 -0.6136 -0.1557
   56MOL0     C 7444   3.640  10.391   9.082  0.5852 -0.4505 -0.5078
   56MOL0     C 7445   3.776  10.450   9.102 -0.4830  0.2205  0.2590
   56MOL0     C 7446   3.882  10.332   9.090  0.2832  0.0272  0.0990
   56MOL0     C 7447   4.020  10.372   9.127  0.3575  0.3209 -0.3107
   56MOL0     C 7448   4.079  10.473   9.031 -0.5566  1.2180  0.6244
   56MOL0     O 7449   4.027  10.601   9.065  0.3571  0.2507 -0.4269
   56MOL0     C 7450   4.050  10.700   8.968 -0.1767  0.4323 -0.4682
   56MOL0     C 7451   4.076  10.670   8.839 -0.0594  0.4944  0.1872
   56MOL0     C 7452   4.120  10.764   8.753  0.1660 -0.3797  0.2934
   56MOL0     C 7453   4.146  10.901   8.782  0.1137 -0.5685 -0.9563
   56MOL0     C 7454   4.216  11.003   8.701 -0.6068 -0.2211 -0.5548
   56MOL0     O 7455   4.207  11.135   8.735 -0.2851 -0.3177  0.0569
   56MOL0     C 7456   4.269  11.224   8.653  0.1088  0.2545 -0.2246
   56MOL0     C 7457   4.198  11.309   8.571 -0.0800 -0.1368 -0.0755
   56MOL0     C 7458   4.262  11.400   8.492  0.6679  0.6140 -0.2964
   56MOL0     C 7459   4.394  11.432   8.521 -0.6012  0.0959  0.6799
   56MOL0     O 7460   4.454  11.547   8.477 -0.1996 -0.2457 -0.8223
   56MOL0     C 7461   4.385  11.646   8.404  0.3438  0.3346  0.8015
   56MOL0     C 7462   4.494  11.731   8.343  0.5730 -0.4922  0.0495
   56MOL0     C 7463   4.445  11.835   8.236  0.5775 -0.2364 -0.5873
   56MOL0     C 7464   4.301  11.885   8.244 -0.5045  0.0731 -0.8283
   56MOL0     C 7465   4.273  11.999   8.147  0.6545 -0.0468 -0.4457
   56MOL0     C 7466   4.345  12.125   8.162 -0.4350 -0.3693  0.4988
   56MOL0     C 7467   4.349  12.189   8.301  0.1615  0.3593  0.5022
   56MOL0     C 7468   4.424  12.327   8.309  0.1076  0.2394  1.3632
   56MOL0    Cl 7469   4.590  12.302   8.271 -0.1889  0.0446  0.2482
   56MOL0     C 7470   4.469  11.343   8.594 -0.3681 -0.1047 -0.4346
   56MOL0     C 7471   4.408  11.238   8.656  0.4506  0.0827 -0.1860
   56MOL0     O 7472   4.283  10.960   8.607  0.5438 -0.0012 -0.1306
   56MOL0     C 7473   4.115  10.930   8.919 -0.2494 -0.5943 -0.2077
   56MOL0     C 7474   4.073  10.830   9.009 -1.0094  0.4560 -0.3037
   56MOL0     N 7475   3.585  10.343   8.961 -0.2151  0.2698 -0.3107
   56MOL0     N 7476   3.476  10.281   8.981 -0.2386  0.1519 -0.1804
   56MOL0     C 7477   2.497  10.421   9.927  0.0703  0.8260  0.2863
   56MOL0     C 7478   2.364  10.381   9.944  0.4866  0.1285  0.1310
   56MOL0     C 7479   1.899  10.430   9.978  0.9120 -0.3352 -0.2615
   56MOL0     C 7480   1.847  10.410   9.846 -0.1718  0.7057  0.1389
   56MOL0     C 7481   1.717  10.365   9.831 -0.4670 -0.4142  0.3844
   56MOL0     C 7482   1.632  10.366   9.938 -1.3801  0.4479 -1.2962
   56MOL0     O 7483   1.508  10.319   9.904 -0.2664  0.0337  0.3677
   56MOL0     C 7484   1.437  10.223   9.988 -0.5505 -0.2667  0.0899
   56MOL0     C 7485   1.360  10.124   9.911  0.5135  0.0259  0.0878
   56MOL0     C 7486   1.259  10.184   9.816  0.3630  0.5175  0.4087
   56MOL0     C 7487   1.155  10.084   9.747  0.2507  0.5125  0.2977
   56MOL0     C 7488   1.066  10.022   9.839 -0.1404  0.4979 -0.5001
   56MOL0     C 7489   0.997   9.964   9.921 -0.1959  0.2190 -0.0195
   56MOL0     C 7490   1.679  10.388  10.072 -1.0813  0.4551 -0.2962
   56MOL0     C 7491   1.814  10.412  10.093  0.8407 -0.3620 -0.5905
   56MOL0     C 7492   1.864  10.419  10.237  0.0214 -0.4106  0.0019
   56MOL0     H 7493   2.210  10.646   9.825  1.4568  2.1308  1.9907
   56MOL0     H 7494   2.448  10.713   9.773 -0.7738 -0.9305 -1.9284
   56MOL0     H 7495   2.620  10.585   9.624 -2.0144  2.6405  2.8467
   56MOL0     H 7496   2.757  10.680   9.675  1.6405 -0.9087  0.2134
   56MOL0     H 7497   2.756  10.375   9.662 -0.1677  0.8073  2.6556
   56MOL0     H 7498   2.893  10.468   9.731  1.1453 -1.2571  0.1438
   56MOL0     H 7499   2.937  10.592   9.536 -1.3751  1.4612  0.4153
   56MOL0     H 7500   2.807  10.518   9.443  0.7208  1.1733 -0.0475
   56MOL0     H 7501   3.003  10.341   9.572 -0.9782 -1.4163 -0.5295
   56MOL0     H 7502   2.909  10.293   9.431 -0.8319 -1.7427  2.4233
   56MOL0     H 7503   3.034  10.495   9.306  0.4037 -0.0615  0.0564
   56MOL0     H 7504   3.128  10.497   9.448 -2.6496  1.0378  2.3131
   56MOL0     H 7505   3.186  10.243   9.425 -0.9927 -0.6162 -0.0128
   56MOL0     H 7506   3.096  10.234   9.278 -0.6973  0.0546 -0.8202
   56MOL0     H 7507   3.353  10.404   9.319  0.7992 -0.7630 -0.7766
   56MOL0     H 7508   3.227  10.446   9.197  1.1296 -0.0538 -0.2348
   56MOL0     H 7509   3.349  10.171   9.248 -0.9106  0.9333  1.0168
   56MOL0     H 7510   3.255  10.218   9.103  1.0160  1.5432 -1.9024
   56MOL0     H 7511   3.548  10.405   9.277 -1.7031  0.0766 -0.3285
   56MOL0     H 7512   3.807  10.523   9.027 -0.2218  1.8511  1.8824
   56MOL0     H 7513   3.776  10.509   9.194 -4.8492 -3.5805  3.1419
   56MOL0     H 7514   3.854  10.249   9.154  1.5912 -1.3017 -0.9618
   56MOL0     H 7515   3.873  10.292   8.988 -0.8254 -0.1390  0.2542
   56MOL0     H 7516   4.086  10.285   9.128  2.3889  1.7724 -1.1194
   56MOL0     H 7517   4.011  10.421   9.224  0.4321 -1.6403  0.7330
   56MOL0     H 7518   4.051  10.439   8.931 -1.1278  0.3669  1.0594
   56MOL0     H 7519   4.187  10.472   9.041 -0.7048  1.7136  2.7339
   56MOL0     H 7520   4.061  10.574   8.792  1.2593  0.7944 -0.9237
   56MOL0     H 7521   4.126  10.731   8.650 -1.1715  3.7845 -1.3658
   56MOL0     H 7522   4.095  11.281   8.552 -0.0900 -1.7669  2.0668
   56MOL0     H 7523   4.201  11.465   8.429 -0.0863 -0.6222 -0.8691
   56MOL0     H 7524   4.339  11.597   8.317  0.3818 -0.5208  1.2596
   56MOL0     H 7525   4.315  11.700   8.468 -0.7400  0.6390 -0.5869
   56MOL0     H 7526   4.554  11.781   8.420  2.1052  1.2809 -2.1468
   56MOL0     H 7527   4.556  11.659   8.289  1.2620 -0.1336  0.3411
   56MOL0     H 7528   4.510  11.921   8.258  1.6465 -0.7637 -1.5993
   56MOL0     H 7529   4.469  11.814   8.131 -0.0032  0.5018 -0.8776
   56MOL0     H 7530   4.280  11.927   8.343 -2.0893  0.2436 -1.2094
   56MOL0     H 7531   4.235  11.805   8.210 -1.6400  1.8879 -3.1335
   56MOL0     H 7532   4.168  12.022   8.167  0.7548  0.4991 -0.5424
   56MOL0     H 7533   4.289  11.967   8.043 -1.4087  1.9741 -1.4623
   56MOL0     H 7534   4.448  12.095   8.137  0.9759  2.0237  2.8603
   56MOL0     H 7535   4.319  12.191   8.080  1.3572  1.3472  1.2359
   56MOL0     H 7536   4.393  12.127   8.380  2.1965  3.1001  1.7004
   56MOL0     H 7537   4.243  12.194   8.329  0.2135 -1.0291  1.0431
   56MOL0     H 7538   4.369  12.398   8.246  0.5839  0.1650  0.8490
   56MOL0     H 7539   4.423  12.361   8.413 -0.7791  4.9120  0.0852
   56MOL0     H 7540   4.576  11.357   8.607 -0.8888  2.1280  2.8560
   56MOL0     H 7541   4.466  11.187   8.732 -2.3656 -0.4508  1.7626
   56MOL0     H 7542   4.129  11.029   8.960 -1.5710  0.8521 -2.9910
   56MOL0     H 7543   4.061  10.861   9.113  3.0269  0.0189  0.4362
   56MOL0     H 7544   2.564  10.345   9.966 -0.7350  0.3774  0.8382
   56MOL0     H 7545   2.343  10.281   9.981  0.3331  0.0132 -0.2669
   56MOL0     H 7546   1.919  10.420   9.765  1.1953 -1.6252  0.9679
   56MOL0     H 7547   1.681  10.327   9.736 -0.4052 -1.5412  0.7981
   56MOL0     H 7548   1.383  10.276  10.067  1.9743 -2.0147  3.2407
   56MOL0     H 7549   1.521  10.179  10.043  0.2584  2.8369  1.6026
   56MOL0     H 7550   1.310  10.069   9.991  0.4529 -1.8549 -1.1767
   56MOL0     H 7551   1.431  10.058   9.861  1.9879  1.4225  0.2566
   56MOL0     H 7552   1.319  10.238   9.742 -2.5589  1.4384 -1.4547
   56MOL0     H 7553   1.200  10.257   9.872 -1.1523 -0.2741 -0.0942
   56MOL0     H 7554   1.095  10.144   9.677  1.8876  1.0348 -0.7284
   56MOL0     H 7555   1.206  10.007   9.688 -0.7987  0.8839 -1.1562
   56MOL0     H 7556   0.939   9.923  10.002 -0.6849  1.1607  0.1127
   56MOL0     H 7557   1.603  10.373  10.148 -0.7310 -0.5524 -0.1248
   56MOL0     H 7558   1.839  10.325  10.287  2.4628 -1.8892 -1.3750
   56MOL0     H 7559   1.972  10.416  10.251 -0.0631  0.9616  1.1866
   56MOL0     H 7560   1.822  10.506  10.289 -0.0994  0.6782 -1.8256
   57MOL0     O 7561   5.433   4.040  10.591  0.0503 -0.2994  0.0048
   57MOL0     C 7562   5.388   3.923  10.580  0.1523  0.6683  0.5205
   57MOL0     O 7563   5.462   3.812  10.533  0.5059  0.3021  0.4359
   57MOL0     C 7564   5.593   3.827  10.516 -0.9266 -0.2104 -0.2100
   57MOL0     C 7565   5.652   3.913  10.417  0.1353  0.4692  0.3533
   57MOL0     C 7566   5.786   3.917  10.391  0.8518 -0.0661 -0.0965
   57MOL0     C 7567   5.867   3.837  10.476  1.0487 -0.0250  1.3430
   57MOL0     O 7568   6.000   3.848  10.455  0.2191 -0.4191  0.0551
   57MOL0     C 7569   6.078   3.933  10.535 -0.2506 -0.2557  0.7422
   57MOL0     C 7570   6.046   4.083  10.536  0.4989  0.1379  0.3695
   57MOL0     C 7571   6.150   4.181  10.587 -2.0790 -0.9518 -0.4387
   57MOL0     C 7572   6.116   4.335  10.558  0.2293 -0.1343 -0.5287
   57MOL0     C 7573   6.227   4.436  10.590  0.3428 -0.2414  0.2696
   57MOL0     C 7574   6.276   4.432  10.734 -0.9215 -0.0171 -0.0457
   57MOL0     C 7575   6.195   4.482  10.850  0.6039 -0.5472 -0.1475
   57MOL0     C 7576   6.264   4.457  10.994  0.2186  0.0869 -0.0292
   57MOL0     N 7577   6.401   4.522  11.006  0.0563 -0.7843  0.4284
   57MOL0     C 7578   6.511   4.499  11.090 -0.0078 -0.2768 -0.0002
   57MOL0     C 7579   6.600   4.611  11.087  0.3698  0.1342 -0.5447
   57MOL0     C 7580   6.732   4.631  11.161  0.0518 -0.6602 -0.4633
   57MOL0     C 7581   6.837   4.546  11.094  0.1693  0.2395 -1.0664
   57MOL0     C 7582   6.868   4.570  10.948 -0.2654 -0.2605  0.3902
   57MOL0     C 7583   7.008   4.622  10.928 -0.4108 -0.6648  0.7723
   57MOL0     O 7584   7.044   4.732  11.021 -0.2147 -0.1311  0.1460
   57MOL0     C 7585   7.178   4.748  11.033 -0.0361  0.4659 -0.8137
   57MOL0     C 7586   7.247   4.731  11.159  0.9559  0.4064  0.8962
   57MOL0     C 7587   7.390   4.743  11.164  0.6104 -0.1163 -0.5091
   57MOL0     C 7588   7.469   4.763  11.052 -0.4647 -0.1126  0.1390
   57MOL0     C 7589   7.612   4.777  11.055 -0.6896  1.0880  0.3324
   57MOL0     O 7590   7.672   4.776  11.178  0.5089 -0.7265  0.2265
   57MOL0     C 7591   7.808   4.798  11.190 -0.2641 -0.1660  1.2191
   57MOL0     C 7592   7.867   4.916  11.228  1.1057 -0.8410  0.0981
   57MOL0     C 7593   8.006   4.934  11.256  0.6409  1.1397  0.0168
   57MOL0     C 7594   8.091   4.828  11.212 -0.4450 -0.4964 -0.3497
   57MOL0     O 7595   8.230   4.835  11.224  0.5449  0.5568  0.2425
   57MOL0     C 7596   8.305   4.961  11.235  0.5742  0.2946 -0.5098
   57MOL0     C 7597   8.459   4.932  11.254  0.6789  0.0762  0.0881
   57MOL0     C 7598   8.478   4.829  11.364 -0.6217 -0.7998 -0.5827
   57MOL0     C 7599   8.626   4.796  11.379  0.0953 -0.0012 -0.6749
   57MOL0     C 7600   8.689   4.878  11.488 -0.3695 -0.8044 -0.1388
   57MOL0     C 7601   8.827   4.833  11.519  0.0908  0.0305 -0.4675
   57MOL0     C 7602   8.870   4.897  11.649 -0.0050  0.0286 -0.4525
   57MOL0     C 7603   9.021   4.861  11.696  0.6397  0.0376 -0.0642
   57MOL0    Cl 7604   9.117   4.917  11.567  0.2830  0.2152 -0.3215
   57MOL0     C 7605   8.034   4.711  11.165 -0.3085 -0.2708  0.0416
   57MOL0     C 7606   7.896   4.691  11.156  0.0516  0.8181  0.0046
   57MOL0     O 7607   7.679   4.778  10.952 -0.1437  0.0792  0.1689
   57MOL0     C 7608   7.399   4.779  10.930 -0.1194  0.6794 -0.4059
   57MOL0     C 7609   7.259   4.777  10.919 -0.0563 -0.4352  0.5673
   57MOL0     N 7610   6.546   4.691  10.990 -0.6958  0.2535 -0.8050
   57MOL0     N 7611   6.434   4.636  10.945 -0.3655  0.0920 -0.5160
   57MOL0     C 7612   5.813   3.752  10.573  0.6197 -0.7704  0.0414
   57MOL0     C 7613   5.675   3.755  10.595  0.1867  0.7712 -0.2325
   57MOL0     C 7614   5.245   3.893  10.633  0.3521  0.9952  0.0608
   57MOL0     C 7615   5.211   3.764  10.671 -0.4749  0.9570 -0.0326
   57MOL0     C 7616   5.081   3.724  10.691 -0.3235 -0.7835 -0.0632
   57MOL0     C 7617   4.976   3.823  10.689 -0.5853  0.3841  0.5234
   57MOL0     O 7618   4.836   3.795  10.698  0.1514 -0.5067 -0.3224
   57MOL0     C 7619   4.788   3.661  10.704  0.2337  0.3330 -1.0353
   57MOL0     C 7620   4.638   3.652  10.657 -0.7586  0.3191 -0.3936
   57MOL0     C 7621   4.614   3.497  10.627 -0.7273 -1.3104 -0.3320
   57MOL0     C 7622   4.560   3.474  10.489  0.9119 -0.0365 -0.5940
   57MOL0     C 7623   4.432   3.537  10.480  0.5934  0.2542  0.8748
   57MOL0     C 7624   4.326   3.591  10.483  0.2124 -0.4444  0.3775
   57MOL0     C 7625   5.007   3.958  10.655 -0.2258  0.2884  0.1344
   57MOL0     C 7626   5.137   3.986  10.621  0.3117  0.0549  0.9509
   57MOL0     C 7627   5.160   4.128  10.573  0.9986  0.0653  0.6948
   57MOL0     H 7628   5.601   3.991  10.361 -1.3151 -0.0527  0.8927
   57MOL0     H 7629   5.823   3.987  10.317 -3.0168  1.0056 -1.2577
   57MOL0     H 7630   6.069   3.898  10.639 -1.1520 -1.1013  0.4012
   57MOL0     H 7631   6.181   3.921  10.504  0.6393 -0.7910  3.5743
   57MOL0     H 7632   5.961   4.098  10.603 -0.0495 -2.1405  0.2565
   57MOL0     H 7633   6.019   4.116  10.435 -2.6142  2.9793  1.9026
   57MOL0     H 7634   6.247   4.166  10.537 -1.3924  3.5934 -0.8575
   57MOL0     H 7635   6.153   4.148  10.691 -2.8369 -2.6059 -0.9060
   57MOL0     H 7636   6.094   4.327  10.451  1.0016  1.0782 -0.7990
   57MOL0     H 7637   6.031   4.374  10.614 -0.0887  1.2880 -1.9284
   57MOL0     H 7638   6.311   4.418  10.522  0.1488  1.5555 -0.4991
   57MOL0     H 7639   6.183   4.535  10.577  0.5093 -0.3097 -0.9472
   57MOL0     H 7640   6.311   4.329  10.748  0.4571 -0.2623 -3.9371
   57MOL0     H 7641   6.368   4.492  10.738 -1.2803  0.6058 -0.8480
   57MOL0     H 7642   6.101   4.425  10.853  0.2585 -0.1155 -1.7610
   57MOL0     H 7643   6.175   4.589  10.837 -2.4042 -0.8463  1.0555
   57MOL0     H 7644   6.207   4.491  11.081 -0.8771 -3.6745  0.9097
   57MOL0     H 7645   6.273   4.351  11.017  0.1999  0.1026  0.0509
   57MOL0     H 7646   6.521   4.409  11.149 -0.8297 -0.0586  0.4920
   57MOL0     H 7647   6.756   4.737  11.150 -1.7788 -0.0409  0.9441
   57MOL0     H 7648   6.718   4.611  11.268 -0.8138 -0.7332 -0.5804
   57MOL0     H 7649   6.931   4.543  11.150 -0.0706  0.2913 -0.6606
   57MOL0     H 7650   6.794   4.446  11.105  2.5400 -0.6600  0.7586
   57MOL0     H 7651   6.799   4.636  10.895 -2.6741 -3.0776 -0.2363
   57MOL0     H 7652   6.872   4.474  10.897  2.3055  1.3943 -2.8787
   57MOL0     H 7653   7.013   4.667  10.828  2.1448  0.4051  1.2994
   57MOL0     H 7654   7.084   4.543  10.928 -0.1961 -0.5594 -1.9689
   57MOL0     H 7655   7.198   4.720  11.256  0.1780  1.1123  0.5948
   57MOL0     H 7656   7.436   4.739  11.262  1.4173  1.3698 -0.8067
   57MOL0     H 7657   7.811   5.002  11.260 -0.2261 -2.0159  1.0435
   57MOL0     H 7658   8.050   5.023  11.300  2.6559  0.0898  0.2480
   57MOL0     H 7659   8.286   5.029  11.151 -2.8657  3.0237  2.1298
   57MOL0     H 7660   8.265   5.022  11.317 -3.1887  1.5711 -3.0165
   57MOL0     H 7661   8.486   4.882  11.161 -1.7239 -2.6065  0.6527
   57MOL0     H 7662   8.515   5.023  11.275  1.1216 -0.0349 -0.6024
   57MOL0     H 7663   8.435   4.879  11.451  2.3895  0.0001  0.5806
   57MOL0     H 7664   8.419   4.738  11.354 -0.0639 -1.5530  2.1219
   57MOL0     H 7665   8.684   4.809  11.287  0.8130 -5.1391 -1.2552
   57MOL0     H 7666   8.631   4.689  11.401  2.0223  0.0782 -0.5921
   57MOL0     H 7667   8.625   4.878  11.577  0.6253  1.0300  0.6347
   57MOL0     H 7668   8.699   4.982  11.455 -0.0718 -0.5497  0.7245
   57MOL0     H 7669   8.807   4.728  11.542 -1.6872  0.6602  1.1678
   57MOL0     H 7670   8.896   4.850  11.437  2.6041  0.0620  1.5364
   57MOL0     H 7671   8.810   4.878  11.738  0.7814  0.6462  0.2260
   57MOL0     H 7672   8.866   5.006  11.639  1.1821  0.0126 -1.4762
   57MOL0     H 7673   9.032   4.907  11.795 -0.7295 -0.1056  0.1694
   57MOL0     H 7674   9.034   4.753  11.709 -0.4123 -0.2611 -1.3732
   57MOL0     H 7675   8.108   4.637  11.135  0.0412  0.0479  0.1195
   57MOL0     H 7676   7.843   4.605  11.116  0.7988  0.5228 -0.3532
   57MOL0     H 7677   7.457   4.808  10.843  0.1789 -1.0737 -0.8394
   57MOL0     H 7678   7.219   4.782  10.819 -0.0284 -0.3315  0.5621
   57MOL0     H 7679   5.873   3.699  10.647  0.9008 -1.0783 -0.4058
   57MOL0     H 7680   5.638   3.690  10.674  2.1668  0.3074  0.3610
   57MOL0     H 7681   5.286   3.685  10.666 -2.1185 -0.6252 -2.3122
   57MOL0     H 7682   5.052   3.619  10.700  2.2792 -1.5850 -0.1748
   57MOL0     H 7683   4.796   3.625  10.807  0.2531  3.3552  0.1329
   57MOL0     H 7684   4.841   3.585  10.646 -0.3825 -2.3372  1.6220
   57MOL0     H 7685   4.620   3.710  10.566 -1.4191  1.1841  0.2640
   57MOL0     H 7686   4.578   3.693  10.739  0.2754 -1.6492  1.4367
   57MOL0     H 7687   4.548   3.446  10.698 -2.4123 -2.1969 -2.4238
   57MOL0     H 7688   4.706   3.440  10.646 -1.6840 -2.4874  1.0280
   57MOL0     H 7689   4.636   3.502  10.416  1.1837  2.0554  0.4117
   57MOL0     H 7690   4.542   3.367  10.484 -0.1110 -0.1072  2.4865
   57MOL0     H 7691   4.228   3.633  10.484  0.5226  0.3137  0.3212
   57MOL0     H 7692   4.935   4.039  10.646  2.1901  2.4118 -1.2046
   57MOL0     H 7693   5.172   4.143  10.466  0.4837 -1.4087  0.4028
   57MOL0     H 7694   5.072   4.188  10.597  1.7590  1.7327 -0.5349
   57MOL0     H 7695   5.244   4.169  10.629  0.8867 -0.9401  1.6430
   58MOL0     O 7696   0.768   7.632   8.014  0.3413 -1.4273  0.6369
   58MOL0     C 7697   0.719   7.749   8.002  0.6670 -0.3260 -0.3897
   58MOL0     O 7698   0.799   7.850   7.966  0.6482 -0.4020 -0.7368
   58MOL0     C 7699   0.924   7.836   7.905  0.4455  0.6690 -0.2948
   58MOL0     C 7700   0.954   7.728   7.819 -0.1964  0.2619 -0.3374
   58MOL0     C 7701   1.086   7.711   7.776  0.1367 -0.9089  0.8106
   58MOL0     C 7702   1.184   7.799   7.818 -0.7603 -0.6747  0.2908
   58MOL0     O 7703   1.319   7.781   7.782  0.7683  0.1035 -0.4917
   58MOL0     C 7704   1.359   7.749   7.648  0.3348 -0.2749 -0.3913
   58MOL0     C 7705   1.387   7.597   7.631  0.8725 -0.0622  0.9706
   58MOL0     C 7706   1.463   7.558   7.757 -0.0977 -0.4922  0.2727
   58MOL0     C 7707   1.503   7.408   7.760 -0.3774 -0.2847  0.1738
   58MOL0     C 7708   1.598   7.370   7.879 -0.5090  0.5919 -0.0740
   58MOL0     C 7709   1.508   7.338   7.996  0.3936  0.4963  0.7062
   58MOL0     C 7710   1.597   7.284   8.114 -0.3888 -0.0619 -0.2293
   58MOL0     C 7711   1.537   7.293   8.250  0.1104  0.0336 -0.0008
   58MOL0     N 7712   1.624   7.226   8.354  0.2716  0.3395 -0.1225
   58MOL0     C 7713   1.704   7.287   8.455  0.3921 -0.5611  0.2721
   58MOL0     C 7714   1.750   7.180   8.531 -0.2993 -0.0083 -0.1781
   58MOL0     C 7715   1.841   7.179   8.657  0.1105 -0.7844  0.2291
   58MOL0     C 7716   1.975   7.249   8.633 -0.7799  0.1405  0.1441
   58MOL0     C 7717   2.066   7.292   8.748 -0.7479  0.4821  0.5245
   58MOL0     C 7718   2.103   7.173   8.825 -0.2207  0.5298  0.3087
   58MOL0     O 7719   2.189   7.088   8.743  1.1480  0.2063  0.1195
   58MOL0     C 7720   2.318   7.080   8.775  0.0550 -0.3370 -0.9545
   58MOL0     C 7721   2.401   7.172   8.836 -0.0970  0.4096 -0.1775
   58MOL0     C 7722   2.535   7.136   8.869  0.3124 -0.6857  0.4752
   58MOL0     C 7723   2.581   7.010   8.845 -0.6916 -0.3611  0.0731
   58MOL0     C 7724   2.713   6.982   8.904 -0.6329  0.9085 -0.6395
   58MOL0     O 7725   2.773   7.087   8.978  0.4908  1.1366 -0.0246
   58MOL0     C 7726   2.894   7.065   9.025 -1.1291  0.4753 -0.6704
   58MOL0     C 7727   3.008   7.005   8.953  0.3990  0.3757 -0.0395
   58MOL0     C 7728   3.123   6.974   9.021 -0.5471 -0.7871  0.3684
   58MOL0     C 7729   3.131   6.975   9.163  0.5842 -0.7048  1.1800
   58MOL0     O 7730   3.244   6.936   9.222 -0.4267 -0.0319  0.1373
   58MOL0     C 7731   3.264   6.951   9.360  0.4898  0.0548 -0.2395
   58MOL0     C 7732   3.235   6.817   9.431 -0.0436  0.1843 -1.1528
   58MOL0     C 7733   3.299   6.688   9.380 -0.5560 -0.1376 -0.1466
   58MOL0     C 7734   3.452   6.683   9.400  0.4957  0.2619 -1.1705
   58MOL0     C 7735   3.495   6.538   9.376  0.8600  0.3443  0.1027
   58MOL0     C 7736   3.636   6.507   9.448  0.0919  0.4693 -0.1491
   58MOL0     C 7737   3.741   6.589   9.378  0.5630 -0.0106  0.2836
   58MOL0     C 7738   3.868   6.508   9.365  0.7821 -0.6692 -0.4201
   58MOL0    Cl 7739   3.857   6.350   9.266  0.5238  0.2665 -0.2050
   58MOL0     C 7740   3.024   7.041   9.229  0.5612  0.8192  1.1586
   58MOL0     C 7741   2.909   7.079   9.160 -0.0033  0.1771  0.9729
   58MOL0     O 7742   2.758   6.867   8.895  0.5759  0.0375 -0.0457
   58MOL0     C 7743   2.506   6.924   8.759  0.7449 -0.7229 -0.4798
   58MOL0     C 7744   2.375   6.961   8.734  0.2650 -0.1643  0.9379
   58MOL0     N 7745   1.699   7.067   8.484  0.6384  0.0716  0.4571
   58MOL0     N 7746   1.620   7.097   8.386 -0.2362  1.0587 -0.6368
   58MOL0     C 7747   1.152   7.906   7.909 -0.0483  0.0224  0.2799
   58MOL0     C 7748   1.017   7.924   7.950  0.4556  0.5744 -0.0822
   58MOL0     C 7749   0.582   7.772   8.051 -0.6816  0.0926  0.0892
   58MOL0     C 7750   0.544   7.898   8.078  0.0746  0.1987 -0.3370
   58MOL0     C 7751   0.414   7.934   8.118 -0.2503  0.4941  0.1195
   58MOL0     C 7752   0.316   7.839   8.132 -0.6131  0.2158  1.1964
   58MOL0     O 7753   0.188   7.873   8.170 -0.1391  0.2654  0.2418
   58MOL0     C 7754   0.075   7.775   8.164 -1.5125  1.0520  0.5781
   58MOL0     C 7755  -0.050   7.862   8.182 -0.4459  0.3210  0.5794
   58MOL0     C 7756  -0.057   7.988   8.095  0.3746  0.3990  0.1941
   58MOL0     C 7757  -0.059   7.954   7.952 -0.1488 -0.1937  0.4993
   58MOL0     C 7758  -0.094   8.070   7.864 -0.4179  0.1943  0.7467
   58MOL0     C 7759  -0.112   8.173   7.802 -0.7659  0.5767 -0.4657
   58MOL0     C 7760   0.346   7.703   8.103 -0.5773  0.4161  0.3031
   58MOL0     C 7761   0.480   7.671   8.059 -0.1113  0.7820 -0.4563
   58MOL0     C 7762   0.509   7.530   8.015  0.4429 -1.0486  0.1934
   58MOL0     H 7763   0.883   7.657   7.779  0.1756 -0.9448  1.0497
   58MOL0     H 7764   1.116   7.624   7.718  1.7397  1.3031 -1.9945
   58MOL0     H 7765   1.287   7.783   7.572 -3.1174  2.7746  3.7495
   58MOL0     H 7766   1.448   7.809   7.626 -0.4063  0.5751 -1.2134
   58MOL0     H 7767   1.422   7.565   7.532 -0.4147  1.8694 -0.1853
   58MOL0     H 7768   1.292   7.543   7.633 -0.0040  1.3910  0.5652
   58MOL0     H 7769   1.401   7.563   7.847 -0.9172 -3.6547  0.0012
   58MOL0     H 7770   1.556   7.616   7.762 -2.0301  2.7899  2.6840
   58MOL0     H 7771   1.410   7.350   7.756  0.7829 -2.3382  1.3679
   58MOL0     H 7772   1.560   7.399   7.667  0.4006 -0.1909  0.6319
   58MOL0     H 7773   1.646   7.275   7.851 -1.4537  0.3874 -1.0440
   58MOL0     H 7774   1.662   7.456   7.901 -2.1765  2.3830 -1.8301
   58MOL0     H 7775   1.455   7.428   8.029 -0.6026 -0.3847  1.6085
   58MOL0     H 7776   1.428   7.266   7.977 -1.2965  1.4175  3.6454
   58MOL0     H 7777   1.691   7.339   8.123 -1.4766  1.7419  0.5176
   58MOL0     H 7778   1.624   7.180   8.094 -1.2087 -0.1006 -1.2239
   58MOL0     H 7779   1.522   7.397   8.282 -1.7953 -0.0191 -0.6128
   58MOL0     H 7780   1.440   7.243   8.255 -1.2435  2.5498  0.6438
   58MOL0     H 7781   1.722   7.394   8.464 -1.9046  0.2786 -3.0827
   58MOL0     H 7782   1.780   7.227   8.734 -1.2074 -0.8061 -0.7776
   58MOL0     H 7783   1.867   7.075   8.676  0.9679 -0.9001 -1.4489
   58MOL0     H 7784   2.040   7.199   8.559 -0.0565  0.6450  0.4227
   58MOL0     H 7785   1.953   7.344   8.584 -2.0730 -0.2529 -0.0615
   58MOL0     H 7786   2.022   7.367   8.815  0.7346  0.7436  1.2337
   58MOL0     H 7787   2.156   7.329   8.699 -1.4088  1.3286 -0.0770
   58MOL0     H 7788   2.011   7.124   8.857  0.6115 -1.3609 -0.0268
   58MOL0     H 7789   2.160   7.205   8.912  0.6545 -1.3679  0.4819
   58MOL0     H 7790   2.362   7.273   8.841  0.5906  0.7018 -0.5932
   58MOL0     H 7791   2.579   7.221   8.921 -0.4513  1.5222 -2.2604
   58MOL0     H 7792   2.992   6.977   8.849  0.5216  1.3228 -0.3264
   58MOL0     H 7793   3.202   6.923   8.966 -0.7200 -1.2709  0.5600
   58MOL0     H 7794   3.372   6.970   9.366  0.6865 -0.5666 -1.4211
   58MOL0     H 7795   3.226   7.042   9.407  0.0555  0.0979 -0.6624
   58MOL0     H 7796   3.264   6.825   9.536  0.1347  2.1002 -1.3146
   58MOL0     H 7797   3.126   6.813   9.433 -0.0473  0.6293  0.5320
   58MOL0     H 7798   3.257   6.608   9.441  0.6298 -0.9026 -0.3054
   58MOL0     H 7799   3.276   6.664   9.276  0.8908 -2.9717  0.0872
   58MOL0     H 7800   3.484   6.714   9.500  2.9284  0.2933 -1.9089
   58MOL0     H 7801   3.513   6.741   9.331  3.0310 -0.9659 -0.1058
   58MOL0     H 7802   3.507   6.518   9.269 -1.0162 -0.9018  0.0822
   58MOL0     H 7803   3.420   6.464   9.406 -0.0739  1.1050 -0.3180
   58MOL0     H 7804   3.637   6.537   9.553  1.8909 -1.7920  0.5500
   58MOL0     H 7805   3.658   6.400   9.445  2.4625  0.8507  1.0767
   58MOL0     H 7806   3.759   6.686   9.424  1.6176 -0.6492  1.2568
   58MOL0     H 7807   3.708   6.611   9.276 -0.7812 -0.4574  0.5958
   58MOL0     H 7808   3.951   6.570   9.330  1.6312 -1.2665  0.5058
   58MOL0     H 7809   3.898   6.482   9.467  0.2324 -5.1318 -1.1805
   58MOL0     H 7810   3.028   7.045   9.338 -1.3299 -3.2271  1.5728
   58MOL0     H 7811   2.833   7.121   9.225 -0.4031 -2.8560  2.6648
   58MOL0     H 7812   2.556   6.833   8.730  1.3066 -0.0127 -1.7906
   58MOL0     H 7813   2.324   6.893   8.667  1.9968  0.9857 -1.7181
   58MOL0     H 7814   1.232   7.978   7.925  1.9680 -1.2550 -2.9770
   58MOL0     H 7815   1.003   8.003   8.023  1.0656  0.4417  0.1829
   58MOL0     H 7816   0.612   7.979   8.055  1.1809 -0.5524  0.1755
   58MOL0     H 7817   0.385   8.036   8.138  0.4668  0.4323  1.6883
   58MOL0     H 7818   0.083   7.690   8.232  2.0410  0.8584  0.1277
   58MOL0     H 7819   0.074   7.728   8.066 -1.5659  1.1500  0.5312
   58MOL0     H 7820  -0.063   7.899   8.284 -4.9996  1.2213 -0.1087
   58MOL0     H 7821  -0.142   7.806   8.163 -0.4794  0.5146  0.1731
   58MOL0     H 7822   0.032   8.049   8.114  3.4803 -3.4614 -0.6811
   58MOL0     H 7823  -0.153   8.035   8.122 -0.0675 -1.0234  1.1936
   58MOL0     H 7824   0.042   7.936   7.915 -0.9034 -2.4681 -0.6582
   58MOL0     H 7825  -0.129   7.871   7.939  0.4748 -0.8513  1.2735
   58MOL0     H 7826  -0.112   8.259   7.739  4.4336  0.3720 -1.2066
   58MOL0     H 7827   0.274   7.621   8.101  0.0834 -0.1938 -1.7662
   58MOL0     H 7828   0.415   7.483   7.985 -0.4339  0.0649  1.1080
   58MOL0     H 7829   0.576   7.522   7.929  0.3171  0.2043 -0.0398
   58MOL0     H 7830   0.551   7.477   8.102  0.6416  1.5626  1.8025
   59MOL0     O 7831  11.203   9.220   6.680 -0.2990  0.1334 -0.1136
   59MOL0     C 7832  11.226   9.318   6.618 -0.3200 -0.0438 -0.4837
   59MOL0     O 7833  11.141   9.382   6.534  0.9330 -0.0233  0.0017
   59MOL0     C 7834  11.015   9.371   6.559 -0.7480 -0.2909 -1.3032
   59MOL0     C 7835  10.929   9.306   6.471 -0.2172 -0.2530 -0.2167
   59MOL0     C 7836  10.788   9.301   6.497 -0.2790 -0.7090  0.5598
   59MOL0     C 7837  10.733   9.381   6.593  0.0627 -0.0040  0.4280
   59MOL0     O 7838  10.602   9.364   6.615 -0.2294 -0.4001 -0.0690
   59MOL0     C 7839  10.544   9.435   6.729  0.7114  0.1729 -0.6021
   59MOL0     C 7840  10.397   9.414   6.729 -0.1403 -0.0632 -0.5824
   59MOL0     C 7841  10.360   9.273   6.773  0.7489  0.7178  0.4477
   59MOL0     C 7842  10.207   9.273   6.753 -0.0166 -0.2936 -0.1066
   59MOL0     C 7843  10.135   9.135   6.777  0.4010  1.1225  0.0657
   59MOL0     C 7844   9.984   9.146   6.823  0.5438  0.0807  0.7155
   59MOL0     C 7845   9.891   9.231   6.724  0.2018 -0.6302  0.0006
   59MOL0     C 7846   9.745   9.243   6.776 -0.2847 -0.0487 -0.9999
   59MOL0     N 7847   9.668   9.117   6.748  0.6512 -0.4835 -0.5513
   59MOL0     C 7848   9.705   8.993   6.687  0.1304 -0.6456 -0.3331
   59MOL0     C 7849   9.594   8.922   6.692  1.3033  0.1805  0.5505
   59MOL0     C 7850   9.579   8.772   6.658  1.3673 -0.0886  0.7381
   59MOL0     C 7851   9.664   8.690   6.751 -0.3894  0.6312 -0.4562
   59MOL0     C 7852   9.673   8.539   6.703 -0.1041  0.3879 -0.5743
   59MOL0     C 7853   9.718   8.447   6.814  0.3756  0.0584 -0.6975
   59MOL0     O 7854   9.845   8.485   6.873  0.7793 -0.0101 -0.5759
   59MOL0     C 7855   9.911   8.392   6.955  0.7295  0.3467  0.4106
   59MOL0     C 7856   9.850   8.296   7.030 -0.1703 -0.7106  0.5335
   59MOL0     C 7857   9.927   8.201   7.100 -0.1013  0.1866  0.3103
   59MOL0     C 7858  10.065   8.218   7.106  0.1929 -0.0234  0.2838
   59MOL0     C 7859  10.146   8.110   7.182  0.5181 -1.1079  0.5279
   59MOL0     O 7860  10.281   8.128   7.180 -0.1022  0.0020 -0.5020
   59MOL0     C 7861  10.358   8.063   7.272 -0.2907  0.0616  1.4293
   59MOL0     C 7862  10.412   7.932   7.258  0.7718 -0.6778  0.3781
   59MOL0     C 7863  10.473   7.866   7.357 -0.1161 -0.3206  0.0207
   59MOL0     C 7864  10.508   7.936   7.478  0.8700 -0.5152 -0.0770
   59MOL0     O 7865  10.582   7.875   7.574  0.1821  0.8224 -0.0120
   59MOL0     C 7866  10.601   7.925   7.707 -0.1687 -0.4151  0.1420
   59MOL0     C 7867  10.631   7.804   7.810  0.0316 -0.0097 -0.1963
   59MOL0     C 7868  10.550   7.674   7.794 -0.3126  0.1110  0.7455
   59MOL0     C 7869  10.403   7.700   7.793  0.0452  0.0408 -0.1938
   59MOL0     C 7870  10.330   7.570   7.765  0.1205  0.3144  0.0964
   59MOL0     C 7871  10.178   7.590   7.760  0.1888  0.4924  0.9943
   59MOL0     C 7872  10.121   7.693   7.658 -0.5344  0.2547  0.6706
   59MOL0     C 7873  10.153   7.682   7.501 -0.8409  0.2456  0.1262
   59MOL0    Cl 7874  10.096   7.531   7.420 -0.2324 -0.2549 -0.3036
   59MOL0     C 7875  10.463   8.069   7.496  0.1865 -0.2753  0.0000
   59MOL0     C 7876  10.383   8.129   7.398 -0.7443 -0.7109  0.0147
   59MOL0     O 7877  10.078   8.023   7.240  0.1389  0.1726 -0.1272
   59MOL0     C 7878  10.126   8.330   7.055 -0.8229 -0.3785  0.1327
   59MOL0     C 7879  10.050   8.403   6.966 -0.6218 -0.4785  0.2174
   59MOL0     N 7880   9.490   8.986   6.762 -0.1899 -0.0094  0.2150
   59MOL0     N 7881   9.539   9.102   6.790 -0.2999 -0.4558 -0.5038
   59MOL0     C 7882  10.821   9.452   6.677 -0.3719  0.0482  0.2952
   59MOL0     C 7883  10.956   9.436   6.669 -0.5116 -0.8990 -0.3326
   59MOL0     C 7884  11.362   9.355   6.614 -0.0329  0.7538 -0.8755
   59MOL0     C 7885  11.432   9.369   6.734 -1.3485  0.2120 -0.2206
   59MOL0     C 7886  11.561   9.428   6.726 -0.2519  0.9913 -0.1128
   59MOL0     C 7887  11.618   9.487   6.611 -0.0733  0.1896  0.9092
   59MOL0     O 7888  11.734   9.561   6.610 -0.1574  0.3067 -0.3344
   59MOL0     C 7889  11.802   9.575   6.725 -1.1499  0.7492  0.2908
   59MOL0     C 7890  11.931   9.657   6.702  0.2511  0.7397 -0.0812
   59MOL0     C 7891  11.932   9.806   6.742  0.5189 -0.4943 -0.2890
   59MOL0     C 7892  11.836   9.875   6.647 -0.2514 -0.3540  0.7344
   59MOL0     C 7893  11.829  10.012   6.687 -0.6009 -0.1869  0.3975
   59MOL0     C 7894  11.832  10.127   6.715  0.1242 -1.1122  0.0803
   59MOL0     C 7895  11.537   9.473   6.500  0.4412 -0.1085  0.0613
   59MOL0     C 7896  11.415   9.406   6.496 -0.2987  0.7107 -0.0835
   59MOL0     C 7897  11.356   9.381   6.360 -0.6740  0.1681 -0.5641
   59MOL0     H 7898  10.971   9.250   6.388  1.0370 -1.8318  1.3875
   59MOL0     H 7899  10.727   9.230   6.442 -2.1626  1.3748 -0.1906
   59MOL0     H 7900  10.580   9.408   6.829 -3.0436  1.4116  1.2890
   59MOL0     H 7901  10.556   9.543   6.721 -4.1252  1.0404  0.7428
   59MOL0     H 7902  10.359   9.452   6.634  1.0093  2.5493 -0.0970
   59MOL0     H 7903  10.360   9.489   6.799 -1.9925  0.7119 -2.3030
   59MOL0     H 7904  10.391   9.242   6.873 -1.7755  0.0480  1.0781
   59MOL0     H 7905  10.388   9.197   6.700 -0.7799  0.8377 -0.3082
   59MOL0     H 7906  10.167   9.344   6.825 -1.1841 -1.7840  0.7728
   59MOL0     H 7907  10.182   9.307   6.652  0.1018 -0.9177 -0.3535
   59MOL0     H 7908  10.161   9.069   6.694  3.0897 -1.1140  2.4946
   59MOL0     H 7909  10.189   9.082   6.855  1.4938  0.6712 -0.9592
   59MOL0     H 7910   9.949   9.043   6.823  2.9787 -0.8226  0.0480
   59MOL0     H 7911   9.993   9.184   6.925  0.3546 -1.8944  1.5133
   59MOL0     H 7912   9.894   9.192   6.622  4.1559 -0.3171 -0.1584
   59MOL0     H 7913   9.937   9.330   6.717  3.3479 -1.8304  1.7066
   59MOL0     H 7914   9.725   9.262   6.882  0.6948 -0.9805 -0.6372
   59MOL0     H 7915   9.696   9.320   6.715 -3.4656  0.4427  1.8894
   59MOL0     H 7916   9.803   8.963   6.651 -0.3072  0.1576 -2.3289
   59MOL0     H 7917   9.476   8.739   6.669  0.8849  1.0869 -0.0556
   59MOL0     H 7918   9.611   8.770   6.553  1.2494  1.2788  0.6484
   59MOL0     H 7919   9.768   8.724   6.751  0.4753 -1.6100  2.1570
   59MOL0     H 7920   9.636   8.692   6.857  0.6650 -2.4585 -0.0196
   59MOL0     H 7921   9.734   8.530   6.613  1.0487  2.0501 -0.0251
   59MOL0     H 7922   9.578   8.500   6.666  0.7956 -0.8818 -1.6517
   59MOL0     H 7923   9.725   8.346   6.773 -1.8916 -0.4574  0.0288
   59MOL0     H 7924   9.649   8.451   6.900  2.0038 -0.7401  0.7007
   59MOL0     H 7925   9.742   8.283   7.028 -0.2632  0.0517 -0.3382
   59MOL0     H 7926   9.889   8.111   7.147  2.7381 -0.8898  0.7434
   59MOL0     H 7927  10.397   7.882   7.163 -4.1723 -0.0035  0.5460
   59MOL0     H 7928  10.501   7.764   7.334  0.9178  0.4093 -2.2206
   59MOL0     H 7929  10.681   8.000   7.702  0.1162 -0.8065 -3.0077
   59MOL0     H 7930  10.510   7.976   7.739  0.7071 -0.2268  2.5870
   59MOL0     H 7931  10.735   7.774   7.798 -0.3780 -2.8835  2.2933
   59MOL0     H 7932  10.627   7.849   7.910  0.8768  0.7502 -0.4929
   59MOL0     H 7933  10.591   7.629   7.703 -0.3199  1.5637 -0.0102
   59MOL0     H 7934  10.591   7.604   7.867  0.2580  1.2648  1.5640
   59MOL0     H 7935  10.376   7.777   7.721  0.0291  0.2128 -0.0033
   59MOL0     H 7936  10.377   7.730   7.895 -0.2409 -0.6608 -0.0475
   59MOL0     H 7937  10.371   7.500   7.838  4.4162  0.0172 -2.2638
   59MOL0     H 7938  10.371   7.537   7.669  1.3170  0.9930  0.3594
   59MOL0     H 7939  10.137   7.490   7.747  1.6291  0.0135 -0.2617
   59MOL0     H 7940  10.143   7.627   7.856  1.1977  1.4644  1.0111
   59MOL0     H 7941  10.146   7.796   7.687 -2.0693 -0.2580  4.3910
   59MOL0     H 7942  10.012   7.689   7.670 -0.5193  1.0360  1.1147
   59MOL0     H 7943  10.111   7.768   7.448 -1.0702 -0.4096 -0.7781
   59MOL0     H 7944  10.259   7.687   7.472 -0.4289 -1.6688  1.1328
   59MOL0     H 7945  10.483   8.121   7.589 -0.8148 -0.1784  0.1740
   59MOL0     H 7946  10.351   8.233   7.402 -1.0477 -0.6798 -2.1154
   59MOL0     H 7947  10.231   8.352   7.068 -0.9226  1.4379 -1.7804
   59MOL0     H 7948  10.102   8.473   6.902  4.5404 -0.7928  3.4595
   59MOL0     H 7949  10.778   9.524   6.745 -1.1313  1.0039 -1.1436
   59MOL0     H 7950  11.016   9.504   6.728 -0.8499  0.8422 -1.8939
   59MOL0     H 7951  11.395   9.315   6.820 -0.8549  0.3679  0.0929
   59MOL0     H 7952  11.609   9.435   6.823  0.8424 -0.2333 -0.5187
   59MOL0     H 7953  11.840   9.477   6.756 -1.4470 -0.5113 -2.9867
   59MOL0     H 7954  11.745   9.614   6.810  1.2660  2.0841  1.4262
   59MOL0     H 7955  11.954   9.650   6.595 -4.1511  1.5167 -1.2614
   59MOL0     H 7956  12.006   9.605   6.763  0.5781 -1.0458 -1.9083
   59MOL0     H 7957  12.037   9.834   6.731  0.4722 -0.5675 -0.9324
   59MOL0     H 7958  11.901   9.832   6.844  0.4406  0.4124 -0.5336
   59MOL0     H 7959  11.884   9.864   6.549 -2.7061  1.3649 -0.7809
   59MOL0     H 7960  11.742   9.821   6.663  0.2179 -2.0604 -1.6214
   59MOL0     H 7961  11.836  10.234   6.716  0.7825 -1.1285  0.8646
   59MOL0     H 7962  11.570   9.530   6.414 -1.9412  2.1810  0.5299
   59MOL0     H 7963  11.277   9.456   6.348 -1.0628 -0.1677 -0.1134
   59MOL0     H 7964  11.422   9.392   6.273  0.3410  1.2268  0.3057
   59MOL0     H 7965  11.303   9.285   6.358 -0.8588  0.2461  0.2681
   60MOL0     O 7966   2.384   3.065   7.432  0.3109  0.5118  0.8430
   60MOL0     C 7967   2.303   2.977   7.454 -0.8689  0.1525 -1.6147
   60MOL0     O 7968   2.334   2.861   7.522 -0.5116 -0.1597 -1.1837
   60MOL0     C 7969   2.464   2.830   7.549  0.1149 -0.1436 -0.4856
   60MOL0     C 7970   2.572   2.920   7.598  0.6580 -0.0530 -0.4349
   60MOL0     C 7971   2.704   2.872   7.611 -0.4358 -0.6450  0.2942
   60MOL0     C 7972   2.727   2.736   7.585 -0.3955 -0.0295 -0.1357
   60MOL0     O 7973   2.853   2.675   7.615  0.3094  0.0841 -0.4799
   60MOL0     C 7974   2.935   2.755   7.695  0.0558  0.6168  0.3976
   60MOL0     C 7975   3.061   2.675   7.707  0.2848 -0.8208 -0.8360
   60MOL0     C 7976   3.038   2.545   7.782 -0.1250  0.1439 -0.7505
   60MOL0     C 7977   3.151   2.439   7.773  0.5439  0.7398  0.5519
   60MOL0     C 7978   3.272   2.488   7.851 -0.7335  0.0806 -0.1889
   60MOL0     C 7979   3.367   2.365   7.849  0.5947  0.0801  0.3754
   60MOL0     C 7980   3.496   2.380   7.918  0.1395  0.0536  0.0167
   60MOL0     C 7981   3.589   2.496   7.866 -1.3912 -0.6089  0.9191
   60MOL0     N 7982   3.732   2.471   7.898  0.7746 -0.0059  0.2463
   60MOL0     C 7983   3.781   2.462   8.028  0.1368  0.3294  0.2563
   60MOL0     C 7984   3.908   2.417   8.026  0.2804 -0.1994  0.2810
   60MOL0     C 7985   4.013   2.391   8.129  0.1006  0.1845 -0.1047
   60MOL0     C 7986   3.987   2.250   8.198 -0.4522  0.7523  0.7060
   60MOL0     C 7987   4.057   2.252   8.331 -0.8530  0.1879  1.4570
   60MOL0     C 7988   4.214   2.264   8.341  0.8646  0.9242  0.1925
   60MOL0     O 7989   4.283   2.215   8.215 -0.0554  0.1454 -0.0539
   60MOL0     C 7990   4.406   2.280   8.199 -0.0325 -0.0546  0.0490
   60MOL0     C 7991   4.449   2.283   8.063  0.4811 -0.9983  0.2993
   60MOL0     C 7992   4.579   2.323   8.035 -0.9643  0.5269  0.1409
   60MOL0     C 7993   4.661   2.371   8.140  1.3186  1.4091  0.4357
   60MOL0     C 7994   4.800   2.409   8.114  0.9138  0.0801  0.5036
   60MOL0     O 7995   4.857   2.504   8.193 -0.3091 -0.1324 -1.0906
   60MOL0     C 7996   4.987   2.541   8.178  0.8200 -0.1645 -0.4113
   60MOL0     C 7997   5.049   2.581   8.294  0.6003  0.0406  0.7531
   60MOL0     C 7998   5.172   2.648   8.290  0.2743 -0.3538  0.4426
   60MOL0     C 7999   5.242   2.661   8.171 -0.0263  0.5399  0.2168
   60MOL0     O 8000   5.361   2.731   8.174 -0.4563  0.0913 -0.5518
   60MOL0     C 8001   5.365   2.862   8.110 -0.2506 -0.2780  0.1562
   60MOL0     C 8002   5.464   2.945   8.173  0.4192 -0.6388 -0.0984
   60MOL0     C 8003   5.449   3.090   8.134 -0.0389 -0.3105  0.1629
   60MOL0     C 8004   5.498   3.185   8.244 -0.0589 -0.0782 -0.3487
   60MOL0     C 8005   5.647   3.164   8.257 -0.1685  0.3151 -0.4928
   60MOL0     C 8006   5.690   3.072   8.382  0.3427  0.4769  0.5288
   60MOL0     C 8007   5.834   3.082   8.421 -0.2477  0.0556 -0.1176
   60MOL0     C 8008   5.860   2.974   8.523 -0.4166 -0.0950  0.0148
   60MOL0    Cl 8009   6.023   2.927   8.543 -0.6441  0.4417 -0.1466
   60MOL0     C 8010   5.178   2.610   8.061 -0.0932 -0.1170 -0.6840
   60MOL0     C 8011   5.051   2.557   8.060 -1.1223  0.4330  0.5351
   60MOL0     O 8012   4.851   2.347   8.024 -0.1321 -0.8454 -0.2214
   60MOL0     C 8013   4.610   2.380   8.273  0.3558  0.2847 -0.1044
   60MOL0     C 8014   4.481   2.326   8.306  0.4429 -0.0188 -0.6187
   60MOL0     N 8015   3.934   2.404   7.893 -0.3569 -0.9140  0.1779
   60MOL0     N 8016   3.838   2.427   7.821  0.0238 -0.0255 -0.0464
   60MOL0     C 8017   2.624   2.651   7.556  0.3635 -0.0520 -0.7310
   60MOL0     C 8018   2.499   2.695   7.532  0.1698  0.6998  0.3400
   60MOL0     C 8019   2.158   3.012   7.421 -0.8703 -0.3246  0.2384
   60MOL0     C 8020   2.057   2.944   7.494  0.4116 -0.2288  0.1836
   60MOL0     C 8021   1.917   2.961   7.466 -1.1695 -0.1715  0.0591
   60MOL0     C 8022   1.876   3.042   7.357  0.6387  0.4066 -0.4931
   60MOL0     O 8023   1.744   3.074   7.327  0.9027 -0.2986  0.6448
   60MOL0     C 8024   1.636   3.004   7.394 -0.1093  0.3955 -0.8304
   60MOL0     C 8025   1.511   3.017   7.317  0.5685  0.5716 -0.4283
   60MOL0     C 8026   1.523   2.952   7.173  1.3124 -1.1300  0.9170
   60MOL0     C 8027   1.383   2.960   7.107 -0.6896 -0.1469  0.5866
   60MOL0     C 8028   1.330   3.089   7.082 -0.9795 -0.5363  0.7007
   60MOL0     C 8029   1.294   3.212   7.076  0.2085  0.1664 -0.2110
   60MOL0     C 8030   1.978   3.110   7.287 -0.1013  0.0639 -0.6571
   60MOL0     C 8031   2.118   3.090   7.306  0.2098  0.0764 -1.1125
   60MOL0     C 8032   2.203   3.149   7.214  0.8504  0.2330  0.4494
   60MOL0     H 8033   2.556   3.025   7.621  3.3589 -0.2688  3.5772
   60MOL0     H 8034   2.778   2.946   7.640 -2.2118  0.6954  1.6330
   60MOL0     H 8035   2.964   2.843   7.636 -1.2858 -0.4051 -1.9639
   60MOL0     H 8036   2.890   2.777   7.792  0.9544 -1.5521  1.3716
   60MOL0     H 8037   3.130   2.742   7.760 -1.6647  2.1913 -1.8417
   60MOL0     H 8038   3.093   2.647   7.606 -1.8225 -0.7778 -1.5457
   60MOL0     H 8039   2.937   2.508   7.761 -0.4156  0.1466  0.5443
   60MOL0     H 8040   3.034   2.559   7.891 -0.8904 -1.5809 -0.5154
   60MOL0     H 8041   3.113   2.357   7.835  0.1817  1.8883  1.9102
   60MOL0     H 8042   3.179   2.405   7.673  0.5908 -2.9740  1.7078
   60MOL0     H 8043   3.321   2.566   7.791  0.0551 -0.5978 -0.4452
   60MOL0     H 8044   3.252   2.515   7.955  0.2972 -0.9518  0.2967
   60MOL0     H 8045   3.312   2.283   7.896  1.0636  1.0615  2.8085
   60MOL0     H 8046   3.391   2.348   7.744  1.4417  1.5352  0.3006
   60MOL0     H 8047   3.557   2.289   7.906  2.5333  1.4052  1.2024
   60MOL0     H 8048   3.482   2.383   8.026  0.6565  1.9121  0.0642
   60MOL0     H 8049   3.582   2.512   7.758  1.3895 -0.9459  0.6072
   60MOL0     H 8050   3.549   2.588   7.908 -2.7947  1.0599 -3.5319
   60MOL0     H 8051   3.725   2.496   8.114 -0.4287 -2.7974  1.2440
   60MOL0     H 8052   4.115   2.399   8.089 -0.3849  3.6951 -0.9373
   60MOL0     H 8053   4.015   2.466   8.208 -0.8658  0.8886 -0.7221
   60MOL0     H 8054   3.879   2.239   8.210 -0.6813 -1.0858 -2.1144
   60MOL0     H 8055   4.026   2.165   8.141 -0.6903  1.2109 -0.1598
   60MOL0     H 8056   4.042   2.148   8.364  4.0327 -2.2798 -2.6525
   60MOL0     H 8057   4.011   2.322   8.400 -3.2868  0.1026  0.0378
   60MOL0     H 8058   4.245   2.212   8.432  0.4368 -0.2465 -0.3141
   60MOL0     H 8059   4.247   2.369   8.344  0.8896  1.0173 -1.8261
   60MOL0     H 8060   4.394   2.229   7.987  0.5228 -1.4332  0.5779
   60MOL0     H 8061   4.618   2.311   7.935 -1.1209  1.9193 -0.1125
   60MOL0     H 8062   4.995   2.572   8.388  0.5602  1.1091  0.8432
   60MOL0     H 8063   5.206   2.704   8.377 -3.1123 -0.3758  1.9743
   60MOL0     H 8064   5.393   2.849   8.005  1.6092 -0.3791  0.6354
   60MOL0     H 8065   5.272   2.919   8.117  0.0576  0.2397  0.0683
   60MOL0     H 8066   5.452   2.930   8.281  0.6461 -0.8491 -0.1018
   60MOL0     H 8067   5.563   2.907   8.146 -0.4059 -2.8827 -0.1506
   60MOL0     H 8068   5.502   3.110   8.040  0.7537 -1.1482  0.4263
   60MOL0     H 8069   5.343   3.116   8.126 -0.8413 -1.5322  4.3961
   60MOL0     H 8070   5.455   3.171   8.344 -1.0267  0.3293 -0.6878
   60MOL0     H 8071   5.489   3.292   8.222  1.8728  0.1336 -0.2806
   60MOL0     H 8072   5.694   3.262   8.270 -1.6518  0.8044  1.8996
   60MOL0     H 8073   5.700   3.120   8.172  0.6902 -2.4726  1.3388
   60MOL0     H 8074   5.623   3.088   8.468 -2.6352 -0.5604 -1.4399
   60MOL0     H 8075   5.675   2.966   8.359  0.0216 -0.6189  4.8383
   60MOL0     H 8076   5.835   3.184   8.462 -2.0691  0.2660 -0.5329
   60MOL0     H 8077   5.894   3.068   8.331  1.8680 -2.6390  1.5445
   60MOL0     H 8078   5.805   2.995   8.615  0.9866  3.7155  0.1640
   60MOL0     H 8079   5.823   2.882   8.476 -4.5599  2.8102 -3.1549
   60MOL0     H 8080   5.225   2.623   7.964  2.1764  0.6488  0.4493
   60MOL0     H 8081   4.993   2.531   7.972  0.8957  0.7631 -0.9661
   60MOL0     H 8082   4.688   2.411   8.342  1.2944 -0.9395 -0.5711
   60MOL0     H 8083   4.457   2.313   8.411  0.8869  0.4734 -0.4492
   60MOL0     H 8084   2.645   2.545   7.561 -1.3459 -0.3658  1.2170
   60MOL0     H 8085   2.422   2.625   7.500 -0.1280  1.8901 -1.7018
   60MOL0     H 8086   2.091   2.874   7.570 -0.1423  0.7877  1.4271
   60MOL0     H 8087   1.851   2.905   7.532 -1.7517  2.4235  1.8248
   60MOL0     H 8088   1.609   3.048   7.490 -2.0104 -1.2365 -0.5225
   60MOL0     H 8089   1.661   2.900   7.416 -3.5723 -0.3126  0.4902
   60MOL0     H 8090   1.482   3.122   7.310  3.8087  1.5546 -0.9682
   60MOL0     H 8091   1.436   2.962   7.374  2.3015  1.0966  2.5541
   60MOL0     H 8092   1.555   2.848   7.179  0.8355 -1.2403  1.7082
   60MOL0     H 8093   1.598   2.995   7.107 -0.8959 -1.7406 -2.2344
   60MOL0     H 8094   1.382   2.898   7.016  2.1185  0.8460 -0.2344
   60MOL0     H 8095   1.313   2.910   7.175  0.4046 -1.3996  0.8410
   60MOL0     H 8096   1.249   3.308   7.057 -2.8516 -1.0300  0.4439
   60MOL0     H 8097   1.935   3.177   7.213 -3.4277  1.4544  2.2425
   60MOL0     H 8098   2.151   3.201   7.133  2.4483  0.4123 -0.4981
   60MOL0     H 8099   2.254   3.228   7.269 -2.6495  0.4901  3.6922
   60MOL0     H 8100   2.273   3.081   7.164  1.1997  0.6961  0.3000
   61MOL0     O 8101   6.377   9.121   4.013  0.1863  0.2319 -0.2742
   61MOL0     C 8102   6.326   9.232   4.017 -0.0811 -0.5194  0.1523
   61MOL0     O 8103   6.396   9.352   4.009 -0.5751 -0.7131  0.5924
   61MOL0     C 8104   6.536   9.351   4.001  0.5610  0.5070 -0.0632
   61MOL0     C 8105   6.616   9.363   4.119 -0.7249  0.4244  0.1145
   61MOL0     C 8106   6.752   9.391   4.112 -0.4669 -0.2239  0.4138
   61MOL0     C 8107   6.815   9.402   3.984  0.1965  0.3029 -0.0205
   61MOL0     O 8108   6.945   9.433   3.970  0.3362  0.4676 -0.4271
   61MOL0     C 8109   7.038   9.450   4.078  0.1141 -0.2696 -0.3890
   61MOL0     C 8110   7.033   9.597   4.128 -0.1566  0.1765 -1.2488
   61MOL0     C 8111   7.156   9.620   4.218 -0.2051 -0.1510  0.5438
   61MOL0     C 8112   7.228   9.742   4.178 -0.1851 -0.6012  0.2202
   61MOL0     C 8113   7.368   9.741   4.243 -0.2439  0.0213 -0.1301
   61MOL0     C 8114   7.444   9.872   4.191  0.0127  0.2025  0.9358
   61MOL0     C 8115   7.543   9.909   4.298 -0.2610 -0.0610 -0.6039
   61MOL0     C 8116   7.675   9.840   4.273 -0.1443 -0.5782 -0.3876
   61MOL0     N 8117   7.761   9.915   4.180 -0.9301 -0.6807  0.5422
   61MOL0     C 8118   7.741   9.952   4.049  0.1038 -0.2803  0.3355
   61MOL0     C 8119   7.821  10.047   4.019  0.3047 -0.3679  0.4957
   61MOL0     C 8120   7.823  10.124   3.889  0.2137 -0.0344 -0.5269
   61MOL0     C 8121   7.951  10.114   3.814 -0.4575  0.3436  0.1609
   61MOL0     C 8122   8.002   9.974   3.786 -1.0096 -0.4464  0.0921
   61MOL0     C 8123   7.911   9.887   3.705 -0.1673 -0.3730 -0.9229
   61MOL0     O 8124   7.984   9.779   3.639  0.7707 -0.0437 -0.4295
   61MOL0     C 8125   7.906   9.696   3.559  0.1020  0.0733  0.4724
   61MOL0     C 8126   7.771   9.730   3.509 -0.4583 -0.1254 -0.2185
   61MOL0     C 8127   7.696   9.629   3.449  0.1389 -0.8149  0.7034
   61MOL0     C 8128   7.746   9.498   3.440 -0.6401  0.4758  1.7529
   61MOL0     C 8129   7.665   9.386   3.383 -0.3766  0.0623  0.9046
   61MOL0     O 8130   7.546   9.423   3.333  0.1145  0.7151  0.4626
   61MOL0     C 8131   7.479   9.342   3.243  0.6323  0.3095 -0.4126
   61MOL0     C 8132   7.443   9.388   3.121  0.1807 -0.3506  0.1818
   61MOL0     C 8133   7.361   9.317   3.043  0.2853  0.2676 -0.5311
   61MOL0     C 8134   7.316   9.187   3.078  0.6852 -0.3122 -0.1968
   61MOL0     O 8135   7.228   9.125   2.996 -0.4344  0.6716 -0.2290
   61MOL0     C 8136   7.188   8.985   3.016  0.4298  0.0323  0.6713
   61MOL0     C 8137   7.133   8.940   2.891  0.5072 -0.0983  0.0131
   61MOL0     C 8138   7.086   8.795   2.903  0.2356  0.0389 -0.3566
   61MOL0     C 8139   6.990   8.760   2.792 -0.1355 -0.3234 -0.1717
   61MOL0     C 8140   6.927   8.620   2.817  0.8360  0.5808  0.6538
   61MOL0     C 8141   6.823   8.592   2.709  0.5865 -0.6585  0.7181
   61MOL0     C 8142   6.781   8.448   2.709  0.5764 -1.1825  0.5467
   61MOL0     C 8143   6.646   8.437   2.634 -1.2676 -0.0167  0.1786
   61MOL0    Cl 8144   6.577   8.273   2.643  0.0856 -0.1978  0.1642
   61MOL0     C 8145   7.353   9.141   3.209  0.4730 -0.1758  0.2748
   61MOL0     C 8146   7.433   9.218   3.285 -0.3389 -0.2849 -0.2991
   61MOL0     O 8147   7.714   9.272   3.386 -0.2008 -0.3755  0.3528
   61MOL0     C 8148   7.878   9.473   3.475  1.1236  0.5298  0.1174
   61MOL0     C 8149   7.955   9.564   3.546 -0.6085  0.0853  0.1092
   61MOL0     N 8150   7.915  10.064   4.127 -0.0343  0.2523  0.5642
   61MOL0     N 8151   7.877   9.979   4.220 -0.0315 -0.4828 -0.3525
   61MOL0     C 8152   6.736   9.392   3.870  0.3106 -0.0078 -0.4174
   61MOL0     C 8153   6.605   9.359   3.881  0.0651 -0.8298 -0.0344
   61MOL0     C 8154   6.176   9.238   3.997 -0.7181  1.7167 -1.0765
   61MOL0     C 8155   6.125   9.329   3.905  0.3008 -0.9411  0.1258
   61MOL0     C 8156   5.988   9.336   3.880  0.1344 -0.8377 -0.1691
   61MOL0     C 8157   5.901   9.252   3.939 -0.3362 -0.2913  0.0797
   61MOL0     O 8158   5.762   9.260   3.911  0.5671  0.7296  0.2613
   61MOL0     C 8159   5.718   9.374   3.837 -0.0523  0.2144 -0.1609
   61MOL0     C 8160   5.566   9.361   3.852 -0.5952 -0.8143 -0.2239
   61MOL0     C 8161   5.484   9.463   3.769 -0.3918 -0.5731 -0.2791
   61MOL0     C 8162   5.337   9.459   3.816  0.1505 -0.1708 -0.3791
   61MOL0     C 8163   5.253   9.348   3.771 -0.0063  0.2095  1.0478
   61MOL0     C 8164   5.191   9.261   3.705  0.5776  0.4250  0.4748
   61MOL0     C 8165   5.952   9.152   4.020 -0.0109 -0.2922  0.9689
   61MOL0     C 8166   6.086   9.136   4.053 -0.0097 -1.1780 -0.2251
   61MOL0     C 8167   6.125   9.014   4.134 -0.2597  1.0507  0.2567
   61MOL0     H 8168   6.571   9.359   4.217 -0.0499 -5.0997  0.4814
   61MOL0     H 8169   6.813   9.397   4.201  1.7088  0.7132 -1.0721
   61MOL0     H 8170   7.008   9.377   4.154 -2.1700  1.9745  0.9993
   61MOL0     H 8171   7.139   9.433   4.041 -0.5258 -1.1934 -1.7988
   61MOL0     H 8172   6.938   9.623   4.175 -1.5802 -1.9144 -2.7753
   61MOL0     H 8173   7.034   9.658   4.037 -1.8069 -0.8501 -2.0056
   61MOL0     H 8174   7.213   9.526   4.215  0.0376 -0.0639 -3.2605
   61MOL0     H 8175   7.122   9.633   4.321 -1.6251  3.3317 -0.2074
   61MOL0     H 8176   7.249   9.747   4.070 -0.6788  1.0803  0.1756
   61MOL0     H 8177   7.172   9.830   4.210  0.1170 -0.1632 -0.4432
   61MOL0     H 8178   7.346   9.745   4.351 -0.7062 -3.7753  0.0471
   61MOL0     H 8179   7.427   9.650   4.228  2.1714  1.0913  1.9437
   61MOL0     H 8180   7.480   9.855   4.089  0.6627  0.4030  1.1265
   61MOL0     H 8181   7.365   9.947   4.179  1.9224  2.3690  1.3886
   61MOL0     H 8182   7.493   9.891   4.394 -1.6905  3.5176 -0.5277
   61MOL0     H 8183   7.560  10.016   4.313 -1.5148 -0.0168  0.7954
   61MOL0     H 8184   7.728   9.842   4.368  2.8519  0.2392 -1.9347
   61MOL0     H 8185   7.653   9.740   4.236 -0.6825  0.4976 -3.2589
   61MOL0     H 8186   7.668   9.910   3.981  1.5827 -3.7609  0.6594
   61MOL0     H 8187   7.738  10.108   3.823 -2.1809  3.3962  1.3810
   61MOL0     H 8188   7.814  10.231   3.911  0.0663 -0.1132 -0.1940
   61MOL0     H 8189   7.924  10.149   3.714 -1.1358 -2.0985 -0.5804
   61MOL0     H 8190   8.032  10.179   3.849 -1.2722  1.3523  0.2204
   61MOL0     H 8191   8.046   9.924   3.873  0.3248  1.2157  0.4266
   61MOL0     H 8192   8.096   9.979   3.730 -0.7619 -2.1959  0.2984
   61MOL0     H 8193   7.862   9.954   3.634  0.9420 -0.8698 -2.1996
   61MOL0     H 8194   7.836   9.850   3.776  0.1238  2.2334  0.8842
   61MOL0     H 8195   7.742   9.834   3.513 -1.3769 -0.2920 -1.6118
   61MOL0     H 8196   7.605   9.665   3.403  1.3313  0.4253 -0.8043
   61MOL0     H 8197   7.473   9.486   3.085  1.5029 -0.8003 -0.0026
   61MOL0     H 8198   7.320   9.364   2.954  0.8632  0.3230 -0.7725
   61MOL0     H 8199   7.275   8.920   3.028  0.1731 -0.9209 -2.0472
   61MOL0     H 8200   7.111   8.965   3.092 -1.5462 -1.5913 -1.5932
   61MOL0     H 8201   7.054   9.005   2.854 -0.0919 -1.3602 -1.0031
   61MOL0     H 8202   7.212   8.944   2.815  0.8174 -3.0028  0.0621
   61MOL0     H 8203   7.173   8.731   2.920  0.9679  1.0136 -0.3615
   61MOL0     H 8204   7.029   8.776   2.995  0.5689 -2.1577 -0.5388
   61MOL0     H 8205   7.045   8.754   2.698 -1.1701 -2.8077 -0.7137
   61MOL0     H 8206   6.906   8.826   2.770 -2.6997 -2.9819  0.9686
   61MOL0     H 8207   6.883   8.608   2.917 -2.5987 -0.0738 -0.7943
   61MOL0     H 8208   7.001   8.541   2.807  0.2404  0.1629 -0.6256
   61MOL0     H 8209   6.736   8.655   2.731 -0.5376 -1.9593  0.1706
   61MOL0     H 8210   6.867   8.624   2.614  0.7908  2.3175  1.7143
   61MOL0     H 8211   6.779   8.398   2.806  0.4914 -3.0100 -0.3551
   61MOL0     H 8212   6.859   8.398   2.651  0.2582 -1.1842  0.1139
   61MOL0     H 8213   6.568   8.496   2.682 -2.5694 -0.4364 -1.3008
   61MOL0     H 8214   6.640   8.477   2.532 -2.8995  0.8955  0.5881
   61MOL0     H 8215   7.314   9.051   3.256  1.7634 -0.9263 -0.0363
   61MOL0     H 8216   7.453   9.186   3.386  0.8976  1.2598 -0.0143
   61MOL0     H 8217   7.919   9.380   3.439 -0.7865 -0.0562 -0.6847
   61MOL0     H 8218   8.051   9.537   3.587 -1.6115 -2.2047  1.1549
   61MOL0     H 8219   6.779   9.397   3.771  0.1054  2.5547 -0.4353
   61MOL0     H 8220   6.545   9.355   3.791  2.0977 -1.3599 -1.4277
   61MOL0     H 8221   6.195   9.397   3.856  1.2329 -0.9779  1.3627
   61MOL0     H 8222   5.959   9.402   3.799  2.1329 -0.8350 -0.9454
   61MOL0     H 8223   5.734   9.360   3.729  0.5863  1.3406 -0.2258
   61MOL0     H 8224   5.757   9.469   3.875  1.1438 -0.6191  0.7683
   61MOL0     H 8225   5.539   9.371   3.958 -0.2675  0.1772 -0.2234
   61MOL0     H 8226   5.537   9.264   3.811 -3.1187  0.5223 -1.8682
   61MOL0     H 8227   5.488   9.447   3.661  2.8758 -0.8116 -0.2283
   61MOL0     H 8228   5.531   9.559   3.792  1.2126 -0.6115 -3.0087
   61MOL0     H 8229   5.337   9.465   3.925  0.9376  2.7184 -0.4678
   61MOL0     H 8230   5.277   9.549   3.799 -0.4075 -0.8553 -2.3210
   61MOL0     H 8231   5.127   9.190   3.656 -1.4704  1.6182  1.2636
   61MOL0     H 8232   5.882   9.075   4.049  2.0407 -2.2985  0.9089
   61MOL0     H 8233   6.047   8.996   4.208  0.1280 -1.8769  0.0655
   61MOL0     H 8234   6.133   8.925   4.071  0.1468  1.4983 -0.3378
   61MOL0     H 8235   6.224   9.019   4.181 -0.3515 -1.5114  0.8574
   62MOL0     O 8236   6.231   8.145   5.141  0.6565  0.3408 -0.1541
   62MOL0     C 8237   6.166   8.175   5.235 -0.2235 -0.4537 -0.2291
   62MOL0     O 8238   6.207   8.234   5.349  0.2909  0.5338  0.6499
   62MOL0     C 8239   6.347   8.249   5.367  0.1059 -0.1761  0.1355
   62MOL0     C 8240   6.425   8.141   5.394  0.2518 -0.5475 -0.0849
   62MOL0     C 8241   6.555   8.153   5.418 -0.9641 -0.5808 -0.0371
   62MOL0     C 8242   6.616   8.280   5.405 -0.2495 -0.1749 -0.2349
   62MOL0     O 8243   6.750   8.291   5.431 -0.2579 -1.1357  0.3636
   62MOL0     C 8244   6.811   8.417   5.452 -1.1383  0.8253 -0.0467
   62MOL0     C 8245   6.929   8.393   5.543 -0.0780  0.3700  0.5705
   62MOL0     C 8246   7.028   8.510   5.530  0.9102 -0.6363 -0.0167
   62MOL0     C 8247   7.151   8.480   5.620 -0.5207 -0.7348  0.6171
   62MOL0     C 8248   7.278   8.543   5.565  0.1332 -0.5463 -0.0594
   62MOL0     C 8249   7.377   8.588   5.673  0.0425  0.5416  0.0991
   62MOL0     C 8250   7.495   8.652   5.611 -0.6644 -0.3623  0.6076
   62MOL0     C 8251   7.591   8.709   5.723  0.3272  0.2435  0.8568
   62MOL0     N 8252   7.655   8.611   5.816  0.7071  0.0079  0.3572
   62MOL0     C 8253   7.770   8.548   5.792 -0.3233  0.5714  1.0207
   62MOL0     C 8254   7.815   8.502   5.910 -0.3675 -1.4204  0.0255
   62MOL0     C 8255   7.947   8.437   5.932  0.9096  0.1411 -0.5768
   62MOL0     C 8256   8.068   8.533   5.901  0.8107  0.4602  0.0080
   62MOL0     C 8257   8.098   8.631   6.017 -0.4666 -0.0902 -0.4076
   62MOL0     C 8258   8.185   8.576   6.129 -0.2546  0.2075  1.2498
   62MOL0     O 8259   8.316   8.549   6.072  1.3190  0.5209  0.1732
   62MOL0     C 8260   8.408   8.508   6.159  0.2312  0.0780  0.3261
   62MOL0     C 8261   8.387   8.491   6.293  0.0094 -0.2917  0.3317
   62MOL0     C 8262   8.497   8.474   6.383 -0.7408  0.4120 -0.3112
   62MOL0     C 8263   8.623   8.485   6.329 -1.4960  0.2791  0.9602
   62MOL0     C 8264   8.749   8.460   6.413  0.2610 -0.3304 -0.3312
   62MOL0     O 8265   8.859   8.509   6.367 -0.5200 -0.0266  0.0653
   62MOL0     C 8266   8.975   8.456   6.423 -0.5255 -0.0389  0.1254
   62MOL0     C 8267   9.049   8.526   6.522  0.8299  0.1271 -0.0026
   62MOL0     C 8268   9.166   8.469   6.566 -0.5730  0.1089 -0.1933
   62MOL0     C 8269   9.213   8.351   6.514 -0.8822  0.2881 -0.1784
   62MOL0     O 8270   9.335   8.310   6.575  0.0866 -0.3125  0.1154
   62MOL0     C 8271   9.376   8.173   6.574 -0.1678 -0.2472  0.2743
   62MOL0     C 8272   9.502   8.167   6.659  0.4731  0.0920 -0.0935
   62MOL0     C 8273   9.558   8.022   6.683 -0.1611  0.9469  0.2274
   62MOL0     C 8274   9.685   8.027   6.778  1.2168 -0.2250 -0.6984
   62MOL0     C 8275   9.716   7.890   6.836 -0.6348 -0.3435  0.6909
   62MOL0     C 8276   9.829   7.872   6.943 -0.9273 -0.1113  0.5088
   62MOL0     C 8277   9.965   7.892   6.867 -0.0370  0.5223  0.4235
   62MOL0     C 8278  10.079   7.825   6.936 -0.1558  0.2713  1.0051
   62MOL0    Cl 8279  10.239   7.889   6.866  0.1328 -0.5661 -0.2745
   62MOL0     C 8280   9.149   8.282   6.412 -0.2779  0.3870 -0.5381
   62MOL0     C 8281   9.023   8.337   6.370  0.7979 -0.7112 -0.9334
   62MOL0     O 8282   8.739   8.388   6.514  0.1506  0.4291  0.1273
   62MOL0     C 8283   8.644   8.508   6.193  0.6622  0.1021 -0.6982
   62MOL0     C 8284   8.530   8.519   6.105 -0.4092 -0.1286 -1.2377
   62MOL0     N 8285   7.717   8.537   5.998 -0.3767 -0.9668 -0.6067
   62MOL0     N 8286   7.620   8.607   5.949 -0.5801 -0.4849 -0.4103
   62MOL0     C 8287   6.536   8.388   5.363 -0.0663  0.3274 -0.0405
   62MOL0     C 8288   6.400   8.373   5.347  0.2941 -0.0340  0.1783
   62MOL0     C 8289   6.017   8.168   5.223 -0.5372 -1.5154  0.7815
   62MOL0     C 8290   5.937   8.258   5.292 -0.3173  1.1473 -0.0126
   62MOL0     C 8291   5.798   8.250   5.294 -0.0243 -0.5408 -0.0707
   62MOL0     C 8292   5.726   8.149   5.232 -0.3563 -0.7922 -1.0737
   62MOL0     O 8293   5.592   8.162   5.251  0.2082  0.3892  0.2497
   62MOL0     C 8294   5.507   8.076   5.179 -0.4802  0.5301 -0.6660
   62MOL0     C 8295   5.384   8.156   5.153 -0.1118  1.2865  0.0320
   62MOL0     C 8296   5.303   8.184   5.279 -0.5031 -0.9396 -0.0371
   62MOL0     C 8297   5.167   8.231   5.239  0.5304  0.4548  0.4200
   62MOL0     C 8298   5.107   8.298   5.350  0.1196 -0.5755  0.1997
   62MOL0     C 8299   5.052   8.363   5.430  0.4112 -0.1530 -0.3259
   62MOL0     C 8300   5.798   8.053   5.164  0.4388 -0.2192 -0.5331
   62MOL0     C 8301   5.943   8.064   5.159  0.9172 -0.5228 -0.6707
   62MOL0     C 8302   6.009   7.945   5.102  0.4205  0.2488  1.0721
   62MOL0     H 8303   6.366   8.050   5.393 -1.7004  0.6474 -0.9554
   62MOL0     H 8304   6.617   8.067   5.439 -0.6084 -0.1001  0.9853
   62MOL0     H 8305   6.855   8.454   5.359  1.5258  1.1247  1.2335
   62MOL0     H 8306   6.745   8.498   5.484 -1.4034  0.5649  0.0678
   62MOL0     H 8307   6.985   8.305   5.512 -0.9785  0.3988 -1.2322
   62MOL0     H 8308   6.895   8.387   5.647 -1.6750 -3.4764 -0.0163
   62MOL0     H 8309   6.982   8.601   5.570 -0.1619 -1.9057  1.8310
   62MOL0     H 8310   7.054   8.511   5.424  3.0883 -2.1975  0.4342
   62MOL0     H 8311   7.128   8.527   5.716  2.0783  3.2509 -0.4716
   62MOL0     H 8312   7.171   8.372   5.624  2.7664 -0.3789 -1.8517
   62MOL0     H 8313   7.317   8.481   5.484 -2.3151  2.8906 -4.3754
   62MOL0     H 8314   7.242   8.632   5.512  0.9031 -0.3237 -0.2280
   62MOL0     H 8315   7.326   8.659   5.738  0.5410  1.5105 -0.5430
   62MOL0     H 8316   7.415   8.498   5.721  0.6323  2.7339  4.1484
   62MOL0     H 8317   7.461   8.741   5.557  2.3980  1.3831  1.2732
   62MOL0     H 8318   7.547   8.569   5.563 -3.6693 -2.4604  0.6636
   62MOL0     H 8319   7.666   8.774   5.677 -0.8306  1.5717  0.8082
   62MOL0     H 8320   7.533   8.777   5.786  0.3945  0.7842  0.3380
   62MOL0     H 8321   7.820   8.553   5.696  1.8604  2.0856  2.1513
   62MOL0     H 8322   7.958   8.404   6.036  1.0792  1.9848  0.0189
   62MOL0     H 8323   7.949   8.354   5.861 -1.5278 -0.2284 -0.3083
   62MOL0     H 8324   8.164   8.487   5.875  0.3252 -1.8383  1.9387
   62MOL0     H 8325   8.050   8.599   5.815 -0.9856  2.7570  1.9845
   62MOL0     H 8326   8.003   8.657   6.066 -0.2198 -0.6414  0.3806
   62MOL0     H 8327   8.152   8.719   5.981 -1.0703 -0.3929 -2.1674
   62MOL0     H 8328   8.131   8.484   6.154 -2.1213  0.7495 -0.5045
   62MOL0     H 8329   8.195   8.652   6.207  1.1080  0.2187  1.0867
   62MOL0     H 8330   8.287   8.499   6.334 -0.3942  2.3392 -0.9519
   62MOL0     H 8331   8.481   8.462   6.489  1.0160  4.8929  0.7139
   62MOL0     H 8332   8.993   8.606   6.569 -1.1889 -1.4899  0.5212
   62MOL0     H 8333   9.223   8.523   6.641 -2.3940  1.2962  0.3991
   62MOL0     H 8334   9.309   8.106   6.628 -0.7626 -0.8866 -1.1922
   62MOL0     H 8335   9.409   8.146   6.473  0.5983 -5.0908  1.5572
   62MOL0     H 8336   9.574   8.230   6.606 -1.4325  2.4518 -0.0513
   62MOL0     H 8337   9.482   8.209   6.759 -1.1511 -0.8301 -0.0108
   62MOL0     H 8338   9.481   7.955   6.723  0.7322  0.2035  0.7486
   62MOL0     H 8339   9.596   7.988   6.586  0.1757  1.9478 -0.0044
   62MOL0     H 8340   9.669   8.109   6.849 -1.6817  1.1305 -2.7074
   62MOL0     H 8341   9.769   8.052   6.713 -0.1973 -1.2505 -3.0664
   62MOL0     H 8342   9.726   7.820   6.752  3.1970 -2.1584  2.3853
   62MOL0     H 8343   9.624   7.859   6.886 -1.7859  0.2210 -0.9902
   62MOL0     H 8344   9.811   7.936   7.030  1.4228  1.5890 -0.1409
   62MOL0     H 8345   9.820   7.774   6.990  0.7371 -1.1236 -1.1419
   62MOL0     H 8346   9.980   8.000   6.854  0.0810  0.4003 -0.5616
   62MOL0     H 8347   9.967   7.845   6.768  0.2379 -0.0807  0.7084
   62MOL0     H 8348  10.070   7.841   7.044  0.5020 -0.0595  1.1092
   62MOL0     H 8349  10.070   7.718   6.915  1.5102  0.1607  0.7149
   62MOL0     H 8350   9.189   8.192   6.366  4.0915  1.7956  0.1035
   62MOL0     H 8351   8.957   8.286   6.301 -0.5206 -0.1433 -0.1223
   62MOL0     H 8352   8.741   8.532   6.150  0.1616  1.4095 -1.1556
   62MOL0     H 8353   8.549   8.533   5.999 -1.1511 -4.1326 -2.0741
   62MOL0     H 8354   6.581   8.485   5.345  1.2865 -0.0838  0.9756
   62MOL0     H 8355   6.334   8.456   5.326  0.7389  0.3099  0.1341
   62MOL0     H 8356   5.986   8.339   5.344  0.8015  1.7679 -1.9422
   62MOL0     H 8357   5.751   8.333   5.345  0.9606 -1.2573  2.1367
   62MOL0     H 8358   5.494   7.992   5.248  0.5833  1.6086  0.9122
   62MOL0     H 8359   5.546   8.040   5.083 -2.6624 -1.3227 -0.9629
   62MOL0     H 8360   5.311   8.102   5.092 -0.6268  0.8181  1.0446
   62MOL0     H 8361   5.411   8.250   5.105 -2.7164  1.9489 -0.2993
   62MOL0     H 8362   5.358   8.268   5.323  1.4425 -2.4510  0.5654
   62MOL0     H 8363   5.292   8.089   5.332  0.7525 -1.2932 -0.3867
   62MOL0     H 8364   5.176   8.294   5.150  0.2071  0.3683  0.3223
   62MOL0     H 8365   5.100   8.145   5.236  2.2799 -0.9692  0.7871
   62MOL0     H 8366   4.995   8.419   5.501 -2.9366 -2.9208 -0.5771
   62MOL0     H 8367   5.742   7.967   5.128 -0.6748 -0.6021  1.8944
   62MOL0     H 8368   5.947   7.857   5.120  2.6539 -1.3485  1.3191
   62MOL0     H 8369   6.005   7.967   4.995  1.9556 -0.7069  0.7917
   62MOL0     H 8370   6.110   7.916   5.133  0.1873 -2.9588 -0.8416
   63MOL0     O 8371   3.615   5.550   7.128 -1.0858 -0.1310  0.1839
   63MOL0     C 8372   3.707   5.626   7.075  0.3832 -0.0713  0.6781
   63MOL0     O 8373   3.707   5.666   6.945 -0.5261  0.9486  1.0091
   63MOL0     C 8374   3.596   5.629   6.872  0.3818  0.2794  0.2770
   63MOL0     C 8375   3.472   5.691   6.894  0.4012  0.4729  0.3288
   63MOL0     C 8376   3.368   5.677   6.805 -0.1883  0.4904 -0.0001
   63MOL0     C 8377   3.364   5.575   6.710 -0.0483 -0.2503 -0.3512
   63MOL0     O 8378   3.253   5.531   6.647 -1.0149  0.4337 -0.2713
   63MOL0     C 8379   3.127   5.586   6.674 -0.9041 -0.6495 -0.1090
   63MOL0     C 8380   3.064   5.514   6.795  0.3776 -0.4079  0.2626
   63MOL0     C 8381   3.038   5.359   6.772  0.3565 -0.8855  0.2170
   63MOL0     C 8382   3.157   5.268   6.759  0.8395 -0.6765  0.2264
   63MOL0     C 8383   3.254   5.285   6.879 -0.2653  0.5725  0.6222
   63MOL0     C 8384   3.371   5.194   6.859  0.1319 -0.6800  0.1713
   63MOL0     C 8385   3.479   5.234   6.964 -0.5069 -0.6478 -0.5280
   63MOL0     C 8386   3.608   5.153   6.924 -0.2202  0.3676  0.2796
   63MOL0     N 8387   3.713   5.148   7.028 -1.1579  0.0978 -0.1317
   63MOL0     C 8388   3.771   5.265   7.062 -0.2320 -0.2169  0.5111
   63MOL0     C 8389   3.858   5.222   7.161  0.4321 -0.0757 -0.1001
   63MOL0     C 8390   3.925   5.320   7.252 -0.5022  0.6422  0.0291
   63MOL0     C 8391   4.055   5.375   7.202 -0.7698 -0.2235  0.7570
   63MOL0     C 8392   4.150   5.247   7.161 -0.2626 -0.1135  0.0393
   63MOL0     C 8393   4.299   5.292   7.156 -0.4688 -0.6276 -0.1051
   63MOL0     O 8394   4.339   5.389   7.054  0.4852  0.2965 -0.3611
   63MOL0     C 8395   4.453   5.461   7.078 -0.7822 -0.0977  0.1600
   63MOL0     C 8396   4.481   5.544   6.971  0.2299 -0.1270  0.1199
   63MOL0     C 8397   4.588   5.629   6.960  0.1644  0.4234 -0.2612
   63MOL0     C 8398   4.678   5.624   7.061 -0.9659  0.1746  0.2036
   63MOL0     C 8399   4.804   5.708   7.052 -0.1338 -0.1707 -0.1153
   63MOL0     O 8400   4.882   5.705   7.160  0.0395  0.2954  0.0272
   63MOL0     C 8401   4.988   5.782   7.185  0.2564  0.5943  1.0896
   63MOL0     C 8402   5.087   5.728   7.259  0.4491 -0.0690  0.0974
   63MOL0     C 8403   5.201   5.803   7.300 -0.0715  1.5098 -0.9826
   63MOL0     C 8404   5.221   5.928   7.249  0.3329 -0.9936  0.1718
   63MOL0     O 8405   5.342   5.994   7.260 -0.5585 -0.7041 -0.6906
   63MOL0     C 8406   5.442   5.935   7.345 -0.4618 -0.3663 -0.1743
   63MOL0     C 8407   5.568   6.027   7.359  1.0358 -0.0669  0.5036
   63MOL0     C 8408   5.669   5.966   7.447 -0.0864  0.4660  0.6364
   63MOL0     C 8409   5.788   6.062   7.456 -0.4486 -1.2006 -0.6005
   63MOL0     C 8410   5.870   6.032   7.579 -0.5564 -0.2428  0.0151
   63MOL0     C 8411   5.995   6.132   7.586  0.4796 -0.5209  0.7467
   63MOL0     C 8412   6.094   6.099   7.694 -0.2780  0.0353  0.4096
   63MOL0     C 8413   6.167   6.220   7.754 -0.1002 -0.1377 -0.9363
   63MOL0    Cl 8414   6.299   6.166   7.865 -0.4551 -0.5175  0.1189
   63MOL0     C 8415   5.126   5.986   7.169 -0.0016 -0.3588 -0.0200
   63MOL0     C 8416   5.004   5.916   7.140 -1.3796  0.6595  0.2320
   63MOL0     O 8417   4.827   5.772   6.948  0.2895 -0.5156 -0.0057
   63MOL0     C 8418   4.657   5.549   7.176  0.3121 -1.0830  0.5281
   63MOL0     C 8419   4.544   5.469   7.195  0.2072  1.2171 -0.4167
   63MOL0     N 8420   3.829   5.089   7.188  0.0584  0.5976 -0.0598
   63MOL0     N 8421   3.753   5.040   7.101 -0.8786  0.5647 -0.3107
   63MOL0     C 8422   3.485   5.507   6.690 -0.7668  0.0447  0.5146
   63MOL0     C 8423   3.604   5.536   6.763 -0.0239 -0.6608  0.7608
   63MOL0     C 8424   3.824   5.658   7.159 -0.4998 -0.2789 -0.4247
   63MOL0     C 8425   3.940   5.692   7.093  0.3043 -0.3298  0.0654
   63MOL0     C 8426   4.047   5.733   7.163  0.1277 -0.0637 -0.3669
   63MOL0     C 8427   4.049   5.733   7.311 -0.4579  0.0557 -0.8227
   63MOL0     O 8428   4.176   5.750   7.373 -0.0815 -0.6554  0.2481
   63MOL0     C 8429   4.176   5.828   7.491 -0.2052  0.3760 -0.2454
   63MOL0     C 8430   4.311   5.846   7.555  1.1322  0.0918  0.7499
   63MOL0     C 8431   4.388   5.721   7.578 -0.9356  0.5915  0.0639
   63MOL0     C 8432   4.482   5.677   7.460  0.4554 -0.2260 -0.0353
   63MOL0     C 8433   4.605   5.763   7.456 -0.1939 -0.2470 -0.3817
   63MOL0     C 8434   4.709   5.825   7.450  0.5400 -0.4634  0.2419
   63MOL0     C 8435   3.928   5.710   7.370 -0.1388 -0.2635 -0.4236
   63MOL0     C 8436   3.823   5.661   7.293 -0.7837 -0.0500 -0.7031
   63MOL0     C 8437   3.695   5.625   7.376 -0.3871  0.1267  0.5240
   63MOL0     H 8438   3.484   5.757   6.980 -0.3617 -0.6536  1.3325
   63MOL0     H 8439   3.287   5.747   6.829 -0.5442 -0.3898  1.4970
   63MOL0     H 8440   3.120   5.694   6.691 -2.7641 -0.6195 -0.8038
   63MOL0     H 8441   3.067   5.565   6.585  1.8799  0.2258 -2.3439
   63MOL0     H 8442   2.965   5.556   6.811  0.0740 -0.9633 -0.1172
   63MOL0     H 8443   3.127   5.526   6.884  1.0517 -1.9002  0.0190
   63MOL0     H 8444   2.973   5.334   6.688  1.1940 -0.4771 -0.5707
   63MOL0     H 8445   2.985   5.320   6.859 -2.7624  0.3935 -0.9802
   63MOL0     H 8446   3.132   5.162   6.753 -0.7476 -0.4463  1.9453
   63MOL0     H 8447   3.206   5.291   6.663  1.7335  0.6812  0.9818
   63MOL0     H 8448   3.291   5.388   6.883 -1.5732  1.0424  2.9320
   63MOL0     H 8449   3.208   5.261   6.976  0.1947 -1.6188  0.3585
   63MOL0     H 8450   3.357   5.087   6.877 -1.2463 -0.3060  1.6209
   63MOL0     H 8451   3.420   5.212   6.763  1.3020  3.4398  1.3094
   63MOL0     H 8452   3.448   5.206   7.066  0.6749  0.0647  0.0492
   63MOL0     H 8453   3.510   5.339   6.972 -0.9175 -0.6264  1.5536
   63MOL0     H 8454   3.579   5.053   6.888  2.2324 -0.8363  1.4314
   63MOL0     H 8455   3.646   5.192   6.829 -1.5826 -2.9288 -1.8237
   63MOL0     H 8456   3.743   5.369   7.047  1.0156  0.5173  2.7737
   63MOL0     H 8457   3.849   5.396   7.272 -3.9351 -2.8373  1.3257
   63MOL0     H 8458   3.943   5.275   7.350  0.3215  0.8109 -0.0325
   63MOL0     H 8459   4.040   5.433   7.110  1.7140  1.2384  1.1545
   63MOL0     H 8460   4.114   5.436   7.272  0.1411  2.5078 -2.1627
   63MOL0     H 8461   4.131   5.197   7.066 -1.0357 -0.7887  0.5291
   63MOL0     H 8462   4.147   5.170   7.239 -0.8589 -1.3846 -1.1992
   63MOL0     H 8463   4.359   5.201   7.155  0.1306 -0.3793  3.0395
   63MOL0     H 8464   4.315   5.340   7.252  2.6386 -1.1545 -0.2640
   63MOL0     H 8465   4.404   5.556   6.895  2.8305 -0.4814 -2.7816
   63MOL0     H 8466   4.601   5.689   6.871  0.4794 -1.3193 -1.4388
   63MOL0     H 8467   5.070   5.627   7.293  0.0652 -0.2036 -0.4753
   63MOL0     H 8468   5.283   5.747   7.343 -0.3218  1.0524 -1.1001
   63MOL0     H 8469   5.405   5.910   7.445  0.6655  3.4002  1.3540
   63MOL0     H 8470   5.474   5.840   7.301 -1.3165 -0.3365 -0.9140
   63MOL0     H 8471   5.609   6.036   7.257 -2.6476 -4.0022 -1.6508
   63MOL0     H 8472   5.536   6.118   7.411 -1.6260  0.1385 -1.2718
   63MOL0     H 8473   5.624   5.945   7.544 -0.4393 -2.1488 -0.0065
   63MOL0     H 8474   5.700   5.872   7.402 -1.3095 -0.3192  1.3650
   63MOL0     H 8475   5.756   6.166   7.470  2.9118 -0.4644  3.0503
   63MOL0     H 8476   5.852   6.073   7.368 -0.4854  0.2174 -0.4823
   63MOL0     H 8477   5.895   5.926   7.570 -2.2116 -0.5895 -0.8615
   63MOL0     H 8478   5.803   6.031   7.666  0.5568  1.1842  0.9273
   63MOL0     H 8479   6.037   6.113   7.487 -4.3833  1.0440 -1.9141
   63MOL0     H 8480   5.962   6.235   7.600  0.8910 -0.2016 -0.5440
   63MOL0     H 8481   6.174   6.040   7.648 -0.5123  1.0673 -1.4082
   63MOL0     H 8482   6.043   6.055   7.780 -0.9833  2.9888  1.6354
   63MOL0     H 8483   6.211   6.288   7.681  2.2817  1.0891  1.4553
   63MOL0     H 8484   6.097   6.282   7.809  0.7145  0.2920 -0.3579
   63MOL0     H 8485   5.138   6.091   7.148 -0.1916 -0.2954  0.1853
   63MOL0     H 8486   4.929   5.966   7.080  0.3984  0.9459 -1.9305
   63MOL0     H 8487   4.722   5.554   7.263  0.1031 -0.7536  0.6680
   63MOL0     H 8488   4.520   5.416   7.286  1.9067  1.0965 -0.0018
   63MOL0     H 8489   3.472   5.422   6.623 -0.7899  0.1381  0.3996
   63MOL0     H 8490   3.697   5.486   6.741 -0.1731 -0.4834 -0.3513
   63MOL0     H 8491   3.932   5.703   6.985  3.4537 -2.0627 -0.4590
   63MOL0     H 8492   4.141   5.766   7.120 -0.3761 -1.5918 -2.8463
   63MOL0     H 8493   4.120   5.779   7.572  1.4679  4.2829  3.7001
   63MOL0     H 8494   4.127   5.925   7.484 -1.6061  0.0561  2.9977
   63MOL0     H 8495   4.293   5.891   7.652  0.6511  0.4063  0.5197
   63MOL0     H 8496   4.363   5.914   7.487 -1.7808  1.5552 -0.1867
   63MOL0     H 8497   4.314   5.643   7.599  1.4957 -1.6481  0.8754
   63MOL0     H 8498   4.451   5.743   7.665 -1.8579 -1.2021  1.2415
   63MOL0     H 8499   4.497   5.569   7.459  0.0424 -0.2880  0.1976
   63MOL0     H 8500   4.428   5.681   7.365 -2.5724  0.2587  1.5637
   63MOL0     H 8501   4.794   5.890   7.442 -0.6561  1.1871  0.4860
   63MOL0     H 8502   3.917   5.704   7.478 -2.1733  1.3336 -0.4833
   63MOL0     H 8503   3.694   5.517   7.391 -0.2014  0.2063  1.1604
   63MOL0     H 8504   3.700   5.677   7.472 -0.2167  2.0125 -0.4584
   63MOL0     H 8505   3.594   5.646   7.339 -0.6536  0.2142  1.2913
   64MOL0     O 8506   9.310   2.969  10.628  0.3069 -0.7925 -0.5249
   64MOL0     C 8507   9.323   3.089  10.599 -0.0732  0.5573  0.0640
   64MOL0     O 8508   9.227   3.186  10.601  0.2501  0.3797  0.2591
   64MOL0     C 8509   9.102   3.159  10.662 -0.1690 -0.1365  0.3229
   64MOL0     C 8510   9.080   3.169  10.807 -0.4002  0.0505  0.7125
   64MOL0     C 8511   8.955   3.150  10.863 -0.3072 -0.1850  0.1689
   64MOL0     C 8512   8.844   3.113  10.783 -0.4774 -0.3458 -0.4710
   64MOL0     O 8513   8.729   3.092  10.848  0.0303  0.2096 -0.3822
   64MOL0     C 8514   8.611   3.131  10.780 -1.0205  0.2895  1.0894
   64MOL0     C 8515   8.490   3.123  10.864  0.0151  0.0446 -0.1327
   64MOL0     C 8516   8.492   2.986  10.931 -0.4598 -0.7218  0.5640
   64MOL0     C 8517   8.351   2.949  10.991 -0.3779  0.1217  0.3420
   64MOL0     C 8518   8.320   2.798  11.004 -0.4332  0.1715  0.4480
   64MOL0     C 8519   8.179   2.775  11.047  0.6613 -0.5075 -1.5264
   64MOL0     C 8520   8.159   2.623  11.059  0.0652  0.4515 -0.6249
   64MOL0     C 8521   8.025   2.576  11.120 -0.3221  0.1235  0.3238
   64MOL0     N 8522   7.904   2.621  11.047  0.1696  0.2905 -0.2502
   64MOL0     C 8523   7.880   2.591  10.921  0.1331  0.2653  0.3403
   64MOL0     C 8524   7.802   2.689  10.875  0.8627  0.8227  0.1081
   64MOL0     C 8525   7.745   2.692  10.738  0.2728 -0.2778 -0.1101
   64MOL0     C 8526   7.601   2.637  10.730  0.6763 -0.3606 -0.4298
   64MOL0     C 8527   7.506   2.709  10.837 -0.1599  0.7176  0.8207
   64MOL0     C 8528   7.360   2.684  10.810  0.1204  0.4364  0.0336
   64MOL0     O 8529   7.330   2.768  10.695 -0.2283 -0.7457 -0.2456
   64MOL0     C 8530   7.195   2.800  10.686  0.4871  0.1012  0.7950
   64MOL0     C 8531   7.153   2.937  10.677  0.0719 -0.2561  0.0501
   64MOL0     C 8532   7.018   2.972  10.657  0.4312  0.1442 -0.9043
   64MOL0     C 8533   6.920   2.867  10.654 -0.5111  0.4213  0.2074
   64MOL0     C 8534   6.785   2.908  10.610 -0.2683  0.1530  0.0639
   64MOL0     O 8535   6.698   2.809  10.575  0.2686  0.3576 -0.1278
   64MOL0     C 8536   6.564   2.827  10.554 -0.1595 -0.2083 -0.6514
   64MOL0     C 8537   6.470   2.738  10.600  0.1226  0.1327  0.3020
   64MOL0     C 8538   6.328   2.746  10.568 -1.0709  0.1160  0.2699
   64MOL0     C 8539   6.281   2.859  10.500 -0.7212 -0.1139  0.0410
   64MOL0     O 8540   6.148   2.870  10.482 -0.6803  0.4555 -0.7701
   64MOL0     C 8541   6.090   2.953  10.382  0.3605 -0.9202  0.4929
   64MOL0     C 8542   5.933   2.972  10.381  0.7969 -0.4252 -0.5685
   64MOL0     C 8543   5.855   2.854  10.443 -0.4888  0.2167  0.4023
   64MOL0     C 8544   5.856   2.731  10.349  0.0990 -0.1796 -0.2363
   64MOL0     C 8545   5.788   2.613  10.414 -0.4078 -0.2972 -0.1717
   64MOL0     C 8546   5.653   2.642  10.483  0.4189  0.4399 -0.1776
   64MOL0     C 8547   5.566   2.521  10.521 -0.7127  1.1035 -0.2343
   64MOL0     C 8548   5.435   2.581  10.570  0.4870 -0.0675 -0.6124
   64MOL0    Cl 8549   5.472   2.630  10.747  0.3113 -0.0238 -0.0874
   64MOL0     C 8550   6.374   2.960  10.466 -0.1761  0.1277  0.8939
   64MOL0     C 8551   6.514   2.938  10.487 -0.1254 -0.0725  0.0778
   64MOL0     O 8552   6.759   3.024  10.610  0.3112 -0.9856  0.7262
   64MOL0     C 8553   6.959   2.734  10.651 -0.0172 -0.4793  0.8488
   64MOL0     C 8554   7.096   2.700  10.680 -0.3277 -0.3574  1.0338
   64MOL0     N 8555   7.775   2.771  10.982  0.0434  0.7255  0.3883
   64MOL0     N 8556   7.840   2.731  11.078  0.5825 -0.0140  0.0375
   64MOL0     C 8557   8.869   3.108  10.641 -0.0011  0.0408 -0.4513
   64MOL0     C 8558   8.994   3.117  10.583 -0.1262  0.1871  0.5983
   64MOL0     C 8559   9.445   3.135  10.528  0.8530 -0.5549 -1.0705
   64MOL0     C 8560   9.410   3.203  10.411 -0.7122  0.4462  0.2197
   64MOL0     C 8561   9.505   3.280  10.340 -0.4096 -0.1615  1.4516
   64MOL0     C 8562   9.636   3.275  10.390 -0.6681 -0.3555 -0.6865
   64MOL0     O 8563   9.752   3.331  10.343  0.1930 -0.5311  0.1427
   64MOL0     C 8564   9.790   3.264  10.221  0.4702  0.5478  0.5633
   64MOL0     C 8565   9.938   3.245  10.222 -0.3862  0.0740  0.1222
   64MOL0     C 8566   9.998   3.169  10.104 -0.6082 -0.1074  0.0602
   64MOL0     C 8567  10.149   3.170  10.120  0.0135  0.3070 -0.4542
   64MOL0     C 8568  10.218   3.107  10.010 -0.7468 -0.2853  0.4222
   64MOL0     C 8569  10.283   3.048   9.926  0.5424 -0.6782  0.2368
   64MOL0     C 8570   9.667   3.194  10.500  0.5363 -0.0407 -0.1808
   64MOL0     C 8571   9.575   3.126  10.575  0.6901 -0.2133 -0.2017
   64MOL0     C 8572   9.613   3.053  10.699  0.5050  0.1874  0.0882
   64MOL0     H 8573   9.157   3.204  10.876 -0.2474 -1.6955  1.5005
   64MOL0     H 8574   8.945   3.151  10.971  0.2728 -0.1952  0.2283
   64MOL0     H 8575   8.626   3.235  10.749 -1.3161  0.3172  1.0431
   64MOL0     H 8576   8.588   3.077  10.687 -1.1839  2.0299  0.0832
   64MOL0     H 8577   8.406   3.145  10.797  1.5509  2.1446 -1.5123
   64MOL0     H 8578   8.484   3.205  10.935  1.3664  1.1878 -1.2888
   64MOL0     H 8579   8.570   2.967  11.005  0.8274  0.5631 -0.4065
   64MOL0     H 8580   8.510   2.917  10.849 -1.1057  2.1433 -2.1647
   64MOL0     H 8581   8.321   2.992  11.087 -1.7414 -1.3626  0.6251
   64MOL0     H 8582   8.275   2.994  10.927 -0.1524  1.7663  1.1598
   64MOL0     H 8583   8.326   2.742  10.910 -2.4104 -2.1353  1.5850
   64MOL0     H 8584   8.397   2.760  11.073  0.8636 -0.9932 -1.5475
   64MOL0     H 8585   8.155   2.811  11.147  2.1671 -1.6302 -0.7114
   64MOL0     H 8586   8.113   2.819  10.973  0.1109  0.8235 -0.2831
   64MOL0     H 8587   8.240   2.586  11.122 -0.6578 -0.2366 -0.0773
   64MOL0     H 8588   8.178   2.568  10.966  0.4594 -1.9940  0.7949
   64MOL0     H 8589   8.032   2.467  11.132  0.2624  0.1062 -0.0900
   64MOL0     H 8590   8.017   2.615  11.222 -2.0998  2.1394 -0.5018
   64MOL0     H 8591   7.915   2.512  10.855  0.5509 -0.4975  1.4571
   64MOL0     H 8592   7.744   2.797  10.710  1.0255 -0.3178 -0.2860
   64MOL0     H 8593   7.805   2.633  10.669 -2.9977 -3.2365 -0.7598
   64MOL0     H 8594   7.559   2.671  10.635  3.9818  2.3798 -1.1285
   64MOL0     H 8595   7.593   2.529  10.746  3.0526 -0.3441  1.4447
   64MOL0     H 8596   7.521   2.815  10.815 -0.3603  0.4842 -0.4972
   64MOL0     H 8597   7.529   2.680  10.940  0.0614 -1.5261  0.1773
   64MOL0     H 8598   7.283   2.711  10.883 -1.3537 -2.1551 -0.4272
   64MOL0     H 8599   7.335   2.581  10.784 -1.0301  0.9190 -0.8738
   64MOL0     H 8600   7.220   3.021  10.691 -0.4528  0.0095  1.0220
   64MOL0     H 8601   6.981   3.073  10.644 -1.5611 -0.5134 -0.7141
   64MOL0     H 8602   6.501   2.658  10.667  1.9850  1.5644  1.2414
   64MOL0     H 8603   6.263   2.671  10.611 -0.4594  0.6672  2.2595
   64MOL0     H 8604   6.136   3.052  10.388 -0.3606 -0.5944  0.6590
   64MOL0     H 8605   6.110   2.922  10.279  0.6349  2.3865 -0.5685
   64MOL0     H 8606   5.914   3.055  10.450  4.4592 -1.2451  1.7244
   64MOL0     H 8607   5.901   3.001  10.281  1.5038 -1.9979 -1.2890
   64MOL0     H 8608   5.901   2.830  10.539  0.2101  0.6942  0.1997
   64MOL0     H 8609   5.752   2.884  10.462 -0.5585  0.8480 -0.8414
   64MOL0     H 8610   5.957   2.698  10.325  0.2340 -2.2129  2.6721
   64MOL0     H 8611   5.790   2.737  10.261 -1.0372 -1.8576  0.4492
   64MOL0     H 8612   5.847   2.576  10.498 -0.3465 -0.8833 -0.4634
   64MOL0     H 8613   5.797   2.540  10.333 -1.2355  2.0246 -2.5200
   64MOL0     H 8614   5.670   2.704  10.571  0.3896  1.3226 -0.7807
   64MOL0     H 8615   5.599   2.701  10.408  3.9871  0.5827 -2.8608
   64MOL0     H 8616   5.611   2.461  10.601  0.2825  1.2337 -0.6780
   64MOL0     H 8617   5.540   2.470  10.427 -1.0898  0.0624  0.4254
   64MOL0     H 8618   5.399   2.665  10.509 -0.4180 -0.2489 -0.3540
   64MOL0     H 8619   5.357   2.504  10.563  3.8627 -3.9080  0.4454
   64MOL0     H 8620   6.336   3.052  10.423  0.9031 -0.6499 -1.9616
   64MOL0     H 8621   6.587   3.005  10.444  0.0298  0.0563  0.5358
   64MOL0     H 8622   6.900   2.645  10.633  1.6200 -1.1195 -1.7251
   64MOL0     H 8623   7.122   2.595  10.689 -0.0122 -0.5919 -1.7202
   64MOL0     H 8624   8.786   3.081  10.576 -1.2733  1.2015  0.6225
   64MOL0     H 8625   9.003   3.105  10.476 -1.6750 -0.9890  0.5672
   64MOL0     H 8626   9.306   3.191  10.383 -0.8922  0.6707  0.7772
   64MOL0     H 8627   9.478   3.339  10.253  1.1945 -0.4158  0.7388
   64MOL0     H 8628   9.769   3.319  10.129  1.6862 -0.7710 -0.5427
   64MOL0     H 8629   9.742   3.167  10.204  1.2967 -0.1621  2.0695
   64MOL0     H 8630   9.967   3.187  10.310  0.0127  0.6155  0.3523
   64MOL0     H 8631   9.985   3.343  10.220 -1.2519  0.5562  1.6304
   64MOL0     H 8632   9.965   3.234  10.022 -0.0085 -1.6280 -1.4584
   64MOL0     H 8633   9.948   3.073  10.086 -1.1274  0.3999 -1.3922
   64MOL0     H 8634  10.187   3.272  10.130 -3.9874  1.8111  1.9084
   64MOL0     H 8635  10.175   3.101  10.201  1.0783  1.3664  0.1340
   64MOL0     H 8636  10.339   2.982   9.863 -2.4738 -0.2912 -3.1756
   64MOL0     H 8637   9.774   3.183  10.517  1.7671  3.1059 -4.3726
   64MOL0     H 8638   9.716   3.084  10.723 -0.4793  2.7989  1.2801
   64MOL0     H 8639   9.547   3.074  10.783 -0.5183  2.4466 -1.1987
   64MOL0     H 8640   9.607   2.944  10.698 -0.3598  0.2306  0.1108
   65MOL0     O 8641   0.784   3.161   4.299 -0.0570 -0.0596  0.4366
   65MOL0     C 8642   0.698   3.224   4.241  0.3255  0.3582  0.3940
   65MOL0     O 8643   0.621   3.172   4.139  0.1757  0.3584  0.3143
   65MOL0     C 8644   0.641   3.036   4.108  0.0713  0.4991 -0.4733
   65MOL0     C 8645   0.760   2.976   4.071 -0.4179  0.8933  0.4363
   65MOL0     C 8646   0.781   2.845   4.041  0.1244  0.2067 -0.6513
   65MOL0     C 8647   0.674   2.767   4.063 -0.1238  0.9963  1.2528
   65MOL0     O 8648   0.680   2.631   4.043 -0.4255  0.6272 -0.6204
   65MOL0     C 8649   0.757   2.564   4.145  0.2536  0.0264  1.0682
   65MOL0     C 8650   0.674   2.543   4.273 -0.0187 -0.7863  0.3245
   65MOL0     C 8651   0.738   2.443   4.372 -0.0091  0.5574 -1.0440
   65MOL0     C 8652   0.792   2.318   4.294  0.3331  0.3618 -0.0727
   65MOL0     C 8653   0.797   2.192   4.390 -0.5622  0.9895 -0.5750
   65MOL0     C 8654   0.909   2.197   4.499  0.0098 -0.2291 -0.3094
   65MOL0     C 8655   1.038   2.133   4.442  0.2315  1.0134 -0.0401
   65MOL0     C 8656   1.166   2.159   4.508  0.3625 -0.1606 -0.3454
   65MOL0     N 8657   1.265   2.079   4.443 -0.5346  0.0913 -0.1650
   65MOL0     C 8658   1.356   2.122   4.348  0.4132  0.7151 -0.6985
   65MOL0     C 8659   1.394   2.008   4.283 -0.0017 -1.1377 -0.5142
   65MOL0     C 8660   1.490   2.004   4.175 -1.0120  0.3133  0.6792
   65MOL0     C 8661   1.629   2.000   4.250  0.4870 -0.3076  0.4864
   65MOL0     C 8662   1.718   2.007   4.129 -0.3627  0.9042 -1.1670
   65MOL0     C 8663   1.863   1.961   4.154  0.1079 -0.4459 -1.0095
   65MOL0     O 8664   1.931   1.958   4.032  0.0613 -0.5074 -0.0639
   65MOL0     C 8665   2.055   1.897   4.030 -0.4662 -0.6252 -0.8401
   65MOL0     C 8666   2.138   1.866   4.141 -0.6358  0.6128 -0.8070
   65MOL0     C 8667   2.272   1.828   4.114 -0.2069  0.5595  0.3848
   65MOL0     C 8668   2.335   1.827   3.986  0.2708  1.2046 -0.3103
   65MOL0     C 8669   2.477   1.793   3.973  0.2239  0.0113 -0.4081
   65MOL0     O 8670   2.535   1.761   4.093 -0.8277  0.2409 -0.2588
   65MOL0     C 8671   2.668   1.719   4.090  0.3892  0.1104 -0.0391
   65MOL0     C 8672   2.761   1.788   4.010 -0.5076 -0.6537  0.8802
   65MOL0     C 8673   2.897   1.746   4.006  0.0002  0.2026  0.3187
   65MOL0     C 8674   2.940   1.635   4.083 -0.2938  1.2728 -0.2009
   65MOL0     O 8675   3.072   1.591   4.089  0.2009 -0.2487  0.1047
   65MOL0     C 8676   3.163   1.656   4.000  0.4099  0.5675  0.6001
   65MOL0     C 8677   3.298   1.598   4.025 -0.1066  0.7549  0.3514
   65MOL0     C 8678   3.412   1.642   3.927  0.3000 -0.6235  0.3722
   65MOL0     C 8679   3.378   1.640   3.777  0.6070 -0.6890  0.3920
   65MOL0     C 8680   3.497   1.676   3.686 -0.8772 -0.9021 -0.4734
   65MOL0     C 8681   3.485   1.738   3.545  0.1589 -0.8536  0.0797
   65MOL0     C 8682   3.613   1.786   3.483 -1.0020 -0.5476  0.1153
   65MOL0     C 8683   3.592   1.881   3.364 -0.1092  0.5374  0.5142
   65MOL0    Cl 8684   3.524   1.791   3.229 -0.0118  0.2896  0.4301
   65MOL0     C 8685   2.848   1.568   4.168 -0.7191  0.0069 -0.4923
   65MOL0     C 8686   2.718   1.610   4.169  0.1012 -0.1382 -0.6196
   65MOL0     O 8687   2.527   1.778   3.863 -0.0317 -0.5371 -0.4758
   65MOL0     C 8688   2.248   1.866   3.876 -0.0200 -0.0766 -1.1522
   65MOL0     C 8689   2.111   1.910   3.901 -0.2450  1.1276  0.3412
   65MOL0     N 8690   1.327   1.896   4.346  0.4289  0.2757 -0.6189
   65MOL0     N 8691   1.252   1.939   4.447  0.1295  0.4274  0.4941
   65MOL0     C 8692   0.547   2.819   4.082 -0.1027 -0.4216 -0.1224
   65MOL0     C 8693   0.531   2.955   4.103  0.3846  0.0396 -0.9163
   65MOL0     C 8694   0.675   3.364   4.284  0.3019  0.0616  0.0981
   65MOL0     C 8695   0.569   3.431   4.233  0.0068 -0.0945  0.6090
   65MOL0     C 8696   0.548   3.568   4.261  0.0978 -0.1366  0.4354
   65MOL0     C 8697   0.631   3.632   4.343 -0.0701  0.1677 -0.7638
   65MOL0     O 8698   0.623   3.757   4.404  0.6039  0.6800  0.2784
   65MOL0     C 8699   0.502   3.829   4.377 -0.3087 -0.1030  0.6922
   65MOL0     C 8700   0.507   3.984   4.420  0.3462 -0.3558  0.5253
   65MOL0     C 8701   0.604   4.062   4.329  1.1049  0.1058  1.0801
   65MOL0     C 8702   0.582   4.214   4.341  0.4678 -0.0737  0.5235
   65MOL0     C 8703   0.644   4.290   4.234  1.4280  0.0784 -0.4726
   65MOL0     C 8704   0.690   4.321   4.119  1.2828 -0.2006  0.6275
   65MOL0     C 8705   0.746   3.569   4.391  0.4916  0.3782  0.6685
   65MOL0     C 8706   0.769   3.435   4.365  0.7049 -0.6335  0.1475
   65MOL0     C 8707   0.885   3.376   4.440  0.7236  0.3712  0.0715
   65MOL0     H 8708   0.850   3.037   4.072 -1.6849  2.8619  1.8334
   65MOL0     H 8709   0.877   2.802   4.016 -0.7487 -1.1214 -1.9071
   65MOL0     H 8710   0.776   2.468   4.096  4.1661  0.7500  0.8646
   65MOL0     H 8711   0.847   2.623   4.166  0.5366  0.2081 -0.5786
   65MOL0     H 8712   0.582   2.496   4.238 -0.4996  0.9121 -0.8174
   65MOL0     H 8713   0.651   2.635   4.327 -2.8461 -1.4062  0.3361
   65MOL0     H 8714   0.669   2.415   4.453  0.3230  0.3241 -0.8427
   65MOL0     H 8715   0.829   2.482   4.419  0.8100 -2.7392  0.3480
   65MOL0     H 8716   0.723   2.290   4.214  0.3757  0.1291 -0.0290
   65MOL0     H 8717   0.891   2.336   4.253  0.8146 -1.0375  0.4345
   65MOL0     H 8718   0.702   2.181   4.443 -2.1921 -0.6286 -3.5196
   65MOL0     H 8719   0.811   2.107   4.322  1.6157  0.9380 -0.1453
   65MOL0     H 8720   0.929   2.298   4.535  0.3079 -0.1364 -0.7322
   65MOL0     H 8721   0.871   2.148   4.589  0.8037 -0.1201  0.0939
   65MOL0     H 8722   1.049   2.158   4.336 -1.6278 -1.6047 -0.9737
   65MOL0     H 8723   1.006   2.029   4.457 -3.2603  2.1958  1.8047
   65MOL0     H 8724   1.183   2.266   4.499 -0.5516 -0.0881 -1.4977
   65MOL0     H 8725   1.177   2.136   4.614  1.3612  0.3436 -0.3307
   65MOL0     H 8726   1.383   2.220   4.311 -0.1909  0.2794 -2.3578
   65MOL0     H 8727   1.469   1.924   4.104  0.4932 -0.3409  0.9357
   65MOL0     H 8728   1.490   2.100   4.122  1.5864 -0.3176 -0.6069
   65MOL0     H 8729   1.633   2.089   4.314  1.1535  0.3491 -0.4470
   65MOL0     H 8730   1.649   1.911   4.310 -1.2594 -1.8531 -1.1030
   65MOL0     H 8731   1.733   2.109   4.094  1.0639  1.8956  2.0031
   65MOL0     H 8732   1.682   1.938   4.052  1.1578  0.2297 -1.3258
   65MOL0     H 8733   1.858   1.863   4.202  0.3704 -0.6594 -1.4036
   65MOL0     H 8734   1.919   2.032   4.215  1.5009 -0.5686 -2.0973
   65MOL0     H 8735   2.104   1.884   4.242 -0.9143  0.6965 -0.9132
   65MOL0     H 8736   2.344   1.810   4.194  1.7599  1.7887 -1.0172
   65MOL0     H 8737   2.743   1.868   3.939  2.2737 -1.4672 -0.8839
   65MOL0     H 8738   2.972   1.788   3.940 -0.2904  0.9116  0.4364
   65MOL0     H 8739   3.139   1.638   3.895  1.8558 -3.1756  0.7746
   65MOL0     H 8740   3.159   1.765   4.012 -0.5326  0.9153 -2.1585
   65MOL0     H 8741   3.344   1.622   4.122  3.7003  0.8272 -1.3049
   65MOL0     H 8742   3.298   1.489   4.021  1.5402  0.7616 -0.2280
   65MOL0     H 8743   3.452   1.742   3.943 -1.8844  0.6879 -1.8081
   65MOL0     H 8744   3.495   1.571   3.927  0.1666 -0.7864 -0.4691
   65MOL0     H 8745   3.301   1.717   3.766 -0.4756 -1.6148  1.2663
   65MOL0     H 8746   3.335   1.542   3.755  2.2373 -1.6818  1.4505
   65MOL0     H 8747   3.556   1.584   3.689 -1.3939 -1.2327 -0.2504
   65MOL0     H 8748   3.547   1.760   3.736 -2.3491 -0.7254  0.7647
   65MOL0     H 8749   3.427   1.673   3.479 -0.4929 -2.5605  2.2071
   65MOL0     H 8750   3.411   1.819   3.549  1.9434  0.8315 -0.0410
   65MOL0     H 8751   3.673   1.704   3.442 -1.3304 -0.5869 -0.2873
   65MOL0     H 8752   3.674   1.833   3.561  0.1833 -2.2571  0.2866
   65MOL0     H 8753   3.535   1.971   3.390  1.2355  1.2626  1.0982
   65MOL0     H 8754   3.678   1.929   3.317 -1.9401  2.7145 -0.8146
   65MOL0     H 8755   2.896   1.488   4.224 -0.5270 -1.6422 -2.8764
   65MOL0     H 8756   2.652   1.546   4.228  3.2609 -2.4225  0.7122
   65MOL0     H 8757   2.295   1.879   3.779  1.2732  0.5417 -0.4660
   65MOL0     H 8758   2.055   1.944   3.814  1.8863  0.6785 -1.2950
   65MOL0     H 8759   0.458   2.760   4.095  0.7265 -1.7292 -0.2263
   65MOL0     H 8760   0.434   3.001   4.118  1.2453  1.8553 -0.7062
   65MOL0     H 8761   0.503   3.390   4.158 -1.6044  4.8288 -1.0714
   65MOL0     H 8762   0.455   3.601   4.216 -0.2277 -3.3923 -1.6615
   65MOL0     H 8763   0.417   3.775   4.420  0.2322 -2.4625 -1.0006
   65MOL0     H 8764   0.481   3.830   4.270  1.3242 -0.0867  0.3454
   65MOL0     H 8765   0.542   3.994   4.523  0.2085  0.9571  0.4687
   65MOL0     H 8766   0.406   4.026   4.422 -0.2774 -1.8137  1.1064
   65MOL0     H 8767   0.596   4.026   4.226  0.8482  0.8142  0.8488
   65MOL0     H 8768   0.704   4.029   4.360  0.9313 -0.0720  1.4551
   65MOL0     H 8769   0.476   4.243   4.340  0.8920  2.2156 -4.1266
   65MOL0     H 8770   0.622   4.224   4.442  1.7633 -2.5794  0.3209
   65MOL0     H 8771   0.718   4.338   4.017  2.2420 -1.3516  0.6839
   65MOL0     H 8772   0.810   3.629   4.456 -0.8599  2.5078  0.1089
   65MOL0     H 8773   0.968   3.358   4.372  0.6505  0.5486 -0.0672
   65MOL0     H 8774   0.922   3.450   4.512  2.3266 -2.1190  1.9509
   65MOL0     H 8775   0.853   3.295   4.506  1.6503 -0.3610 -0.3624
   66MOL0     O 8776   2.934   1.032   0.243  0.5761 -0.1106  0.4212
   66MOL0     C 8777   2.850   1.098   0.301  0.3347  0.2086  0.2823
   66MOL0     O 8778   2.882   1.186   0.400 -0.3567  0.0550 -0.6587
   66MOL0     C 8779   3.007   1.212   0.452  1.0296  0.6609 -0.1571
   66MOL0     C 8780   3.120   1.202   0.376 -0.4787 -0.8604  0.0707
   66MOL0     C 8781   3.245   1.224   0.436  0.0808 -0.0078 -0.3057
   66MOL0     C 8782   3.259   1.257   0.571 -0.7310  0.0379  0.9523
   66MOL0     O 8783   3.380   1.272   0.614  0.0950 -0.3709  0.0515
   66MOL0     C 8784   3.408   1.173   0.712 -0.6243 -1.5987  0.3270
   66MOL0     C 8785   3.563   1.166   0.712  0.0261  1.2990 -0.4747
   66MOL0     C 8786   3.617   1.123   0.576  0.1288 -0.4404  1.4954
   66MOL0     C 8787   3.767   1.117   0.584  0.6054  0.5686 -0.7275
   66MOL0     C 8788   3.848   1.049   0.472 -0.2128  0.3992 -0.6069
   66MOL0     C 8789   3.813   1.110   0.334 -0.6638 -0.0653  0.3352
   66MOL0     C 8790   3.880   1.031   0.218 -0.4854  0.3634  0.6433
   66MOL0     C 8791   3.909   1.106   0.094 -0.7409  0.4337 -0.0746
   66MOL0     N 8792   3.993   1.040  -0.012 -0.3404  0.3971  0.2502
   66MOL0     C 8793   4.122   0.992   0.005  0.1772 -0.3576  0.5175
   66MOL0     C 8794   4.159   0.973  -0.130  0.4747 -0.6749 -0.3208
   66MOL0     C 8795   4.291   0.930  -0.186  0.2559 -0.4901  1.2836
   66MOL0     C 8796   4.307   0.782  -0.196  0.4263 -0.7206 -0.1253
   66MOL0     C 8797   4.419   0.736  -0.297 -0.1711 -0.3459 -0.0851
   66MOL0     C 8798   4.542   0.832  -0.292  0.3070  0.6656  0.2825
   66MOL0     O 8799   4.645   0.764  -0.372  0.0097 -0.2075 -0.3746
   66MOL0     C 8800   4.772   0.820  -0.379 -0.9675 -0.0712 -0.4603
   66MOL0     C 8801   4.871   0.748  -0.449 -0.4704 -0.3817 -0.0828
   66MOL0     C 8802   5.000   0.809  -0.471 -0.6483  0.2020 -0.5421
   66MOL0     C 8803   5.035   0.928  -0.408 -0.1672  0.8037 -0.2875
   66MOL0     C 8804   5.183   0.980  -0.400 -0.9302 -0.7619  0.0801
   66MOL0     O 8805   5.272   0.920  -0.482  0.1102 -0.1347  0.3950
   66MOL0     C 8806   5.408   0.933  -0.464  0.5542 -1.4139  0.7473
   66MOL0     C 8807   5.491   0.939  -0.579  0.0603  0.3308  0.7254
   66MOL0     C 8808   5.629   0.937  -0.569  0.9727  0.3641 -0.4598
   66MOL0     C 8809   5.686   0.926  -0.441 -0.3871  0.0458 -0.2381
   66MOL0     O 8810   5.817   0.912  -0.417 -0.0024  0.0432  0.1907
   66MOL0     C 8811   5.893   0.849  -0.519  0.0063 -0.6734  0.3769
   66MOL0     C 8812   6.030   0.790  -0.460 -0.1107 -0.7487 -0.6570
   66MOL0     C 8813   6.144   0.896  -0.444  0.0867  0.8154  0.0456
   66MOL0     C 8814   6.270   0.812  -0.407  0.0849  0.6253 -0.8260
   66MOL0     C 8815   6.385   0.906  -0.385  0.3870  1.2501 -0.9025
   66MOL0     C 8816   6.499   0.820  -0.332 -0.5919  0.2455 -0.3685
   66MOL0     C 8817   6.613   0.907  -0.266 -0.1782 -0.0573  0.0636
   66MOL0     C 8818   6.726   0.805  -0.225 -0.1363  0.1012  0.2964
   66MOL0    Cl 8819   6.875   0.886  -0.195  0.0716 -0.4103  0.1683
   66MOL0     C 8820   5.611   0.913  -0.327  0.1715 -0.2897  1.0111
   66MOL0     C 8821   5.468   0.921  -0.336  0.7301  0.8705  0.5707
   66MOL0     O 8822   5.211   1.077  -0.329  0.5159  0.8757  0.1534
   66MOL0     C 8823   4.935   0.998  -0.330 -0.6345  1.4656 -0.6825
   66MOL0     C 8824   4.807   0.943  -0.322  0.3623 -0.5031 -0.7584
   66MOL0     N 8825   4.047   0.992  -0.209 -0.8485  0.5663  0.3324
   66MOL0     N 8826   3.947   1.021  -0.137  0.5655  0.2269 -0.0432
   66MOL0     C 8827   3.137   1.285   0.642  0.0057  0.9434  0.1790
   66MOL0     C 8828   3.007   1.259   0.580 -0.1104  0.7853  0.2485
   66MOL0     C 8829   2.712   1.068   0.272 -0.7437 -1.1035 -0.8829
   66MOL0     C 8830   2.667   1.070   0.138 -0.6873  0.6702 -0.1769
   66MOL0     C 8831   2.536   1.044   0.106 -0.6088 -0.2231 -0.3115
   66MOL0     C 8832   2.445   1.011   0.209  0.0697  0.4556  0.2477
   66MOL0     O 8833   2.310   0.987   0.177  0.6680 -1.0883  0.1512
   66MOL0     C 8834   2.232   0.904   0.270 -0.1863 -0.2061  1.0894
   66MOL0     C 8835   2.269   0.753   0.275 -1.3196  0.4299 -0.5675
   66MOL0     C 8836   2.247   0.673   0.144  0.1912 -0.1076 -0.5890
   66MOL0     C 8837   2.316   0.543   0.118 -0.3846 -0.7259  0.2924
   66MOL0     C 8838   2.312   0.501  -0.019  0.9539  0.3362  0.0453
   66MOL0     C 8839   2.318   0.456  -0.137  0.1626 -0.1181 -0.3797
   66MOL0     C 8840   2.487   1.012   0.340 -0.3984 -0.3099  0.3349
   66MOL0     C 8841   2.619   1.046   0.377 -0.0746 -0.2833  0.1159
   66MOL0     C 8842   2.644   1.059   0.528  0.0253  0.0436 -0.1066
   66MOL0     H 8843   3.121   1.181   0.270  0.8960 -1.1143  0.1199
   66MOL0     H 8844   3.334   1.209   0.376  2.2577  0.0763  2.6342
   66MOL0     H 8845   3.377   1.211   0.810 -1.3082 -3.7985  1.0268
   66MOL0     H 8846   3.378   1.071   0.688  3.5095 -2.9309 -0.0143
   66MOL0     H 8847   3.597   1.090   0.783  0.4244  1.0043 -0.9788
   66MOL0     H 8848   3.601   1.261   0.752  2.4890  0.3975 -0.4731
   66MOL0     H 8849   3.591   1.185   0.490  0.9371  1.4814  2.5687
   66MOL0     H 8850   3.578   1.028   0.539  0.3233  0.8140 -2.3135
   66MOL0     H 8851   3.806   1.216   0.607 -0.1454  0.6726  0.1482
   66MOL0     H 8852   3.791   1.066   0.678 -1.5046 -1.6671 -1.2956
   66MOL0     H 8853   3.956   1.064   0.476  0.2161 -2.1227 -0.8440
   66MOL0     H 8854   3.836   0.940   0.475  0.6726  0.3004 -0.4853
   66MOL0     H 8855   3.706   1.115   0.311 -0.3547  3.1756 -0.8078
   66MOL0     H 8856   3.840   1.216   0.331  1.2350 -0.5477 -1.5744
   66MOL0     H 8857   3.798   0.962   0.196 -1.5824  1.7185  0.3194
   66MOL0     H 8858   3.966   0.972   0.250  0.0371  1.0010  0.4400
   66MOL0     H 8859   3.818   1.151   0.053 -0.9906  1.5915  1.6240
   66MOL0     H 8860   3.969   1.189   0.133  1.4291 -0.9581 -0.2833
   66MOL0     H 8861   4.186   0.995   0.093 -2.0014  2.9929  2.1843
   66MOL0     H 8862   4.313   0.972  -0.284 -0.4211 -1.6697  0.6094
   66MOL0     H 8863   4.363   0.972  -0.114  0.9691 -1.2381  1.0293
   66MOL0     H 8864   4.327   0.743  -0.096  2.2170 -1.7419 -0.8427
   66MOL0     H 8865   4.212   0.732  -0.217  0.3660 -1.8128  2.3517
   66MOL0     H 8866   4.381   0.742  -0.400  1.0816  2.5201 -0.4826
   66MOL0     H 8867   4.447   0.633  -0.273 -0.1045 -0.2701  0.1528
   66MOL0     H 8868   4.579   0.830  -0.189 -0.3836  0.1043  0.5310
   66MOL0     H 8869   4.529   0.934  -0.328  1.7626  1.5114  1.9736
   66MOL0     H 8870   4.863   0.650  -0.494  2.2518 -1.1582  0.9577
   66MOL0     H 8871   5.068   0.748  -0.530  3.3891 -1.6103  5.1531
   66MOL0     H 8872   5.437   0.952  -0.672  1.1320 -1.8628 -0.2719
   66MOL0     H 8873   5.694   0.955  -0.654  2.8418 -0.0202  0.8333
   66MOL0     H 8874   5.829   0.775  -0.569 -0.5742  0.3601 -0.4534
   66MOL0     H 8875   5.915   0.925  -0.595  1.3761 -1.9556 -0.5626
   66MOL0     H 8876   6.009   0.740  -0.365 -0.2198  0.0829 -0.2250
   66MOL0     H 8877   6.076   0.726  -0.535 -0.8899 -0.3989 -1.4604
   66MOL0     H 8878   6.171   0.937  -0.541  0.5961 -0.4646 -0.3673
   66MOL0     H 8879   6.124   0.973  -0.368  0.0124 -0.8795  1.8338
   66MOL0     H 8880   6.302   0.738  -0.480 -0.4725  0.6279 -1.0828
   66MOL0     H 8881   6.242   0.767  -0.311 -3.8814  1.9094 -1.1796
   66MOL0     H 8882   6.355   0.978  -0.309 -0.0931 -0.2477  0.3810
   66MOL0     H 8883   6.432   0.945  -0.476  0.0006 -1.1745 -2.2196
   66MOL0     H 8884   6.465   0.755  -0.252 -0.5891 -0.1004 -0.6466
   66MOL0     H 8885   6.540   0.754  -0.409  3.0580  0.5672  1.0996
   66MOL0     H 8886   6.586   0.977  -0.186  3.5728  2.4068 -0.6162
   66MOL0     H 8887   6.660   0.976  -0.336  3.1256  1.1444  3.1669
   66MOL0     H 8888   6.698   0.763  -0.128  0.8253  2.3192  1.6344
   66MOL0     H 8889   6.742   0.725  -0.297 -3.8871  0.2124 -0.8804
   66MOL0     H 8890   5.666   0.898  -0.235  0.7803 -3.7760  0.1964
   66MOL0     H 8891   5.426   0.909  -0.236  3.2585 -1.1190  1.5192
   66MOL0     H 8892   4.947   1.091  -0.274 -0.7241 -0.6748  3.2768
   66MOL0     H 8893   4.739   0.991  -0.253 -1.3120 -3.1788 -0.4138
   66MOL0     H 8894   3.140   1.331   0.740 -2.0190  0.4818  0.5027
   66MOL0     H 8895   2.918   1.254   0.641  0.3381 -0.3652  0.8427
   66MOL0     H 8896   2.740   1.086   0.059 -0.5908 -0.3815 -0.3119
   66MOL0     H 8897   2.505   1.046   0.002  0.5894 -4.1718 -0.9156
   66MOL0     H 8898   2.126   0.913   0.246  0.4735  1.4963 -1.6457
   66MOL0     H 8899   2.238   0.949   0.369 -1.9899  1.4873  0.4979
   66MOL0     H 8900   2.200   0.704   0.344 -1.6861 -0.0096 -1.2368
   66MOL0     H 8901   2.375   0.732   0.293 -0.9298 -0.9065 -3.6849
   66MOL0     H 8902   2.274   0.736   0.059  1.9449 -0.0194  0.0103
   66MOL0     H 8903   2.138   0.657   0.143  0.1690 -0.0327  0.0021
   66MOL0     H 8904   2.419   0.567   0.144 -1.0084  3.2616 -0.3608
   66MOL0     H 8905   2.277   0.468   0.189  0.6152 -0.3191  1.2988
   66MOL0     H 8906   2.336   0.404  -0.229 -0.3557 -1.6862  0.3663
   66MOL0     H 8907   2.422   0.984   0.422  0.2227  0.1992  1.0132
   66MOL0     H 8908   2.562   1.010   0.581  0.3769  0.1114  0.5091
   66MOL0     H 8909   2.736   1.004   0.553  1.6075  2.8191  0.5493
   66MOL0     H 8910   2.642   1.159   0.571 -1.2538 -1.4555  3.6507
   67MOL0     O 8911   2.922   9.274   3.573  0.1708 -0.1526  0.1951
   67MOL0     C 8912   2.832   9.194   3.591  0.1414  0.3022 -0.4498
   67MOL0     O 8913   2.852   9.059   3.620 -0.0464 -0.0260  0.1256
   67MOL0     C 8914   2.977   9.006   3.606  1.0531 -0.1084  0.4162
   67MOL0     C 8915   3.047   9.005   3.486 -0.2841 -1.2870 -0.0729
   67MOL0     C 8916   3.166   8.943   3.469 -0.1037 -0.1012  0.5085
   67MOL0     C 8917   3.228   8.888   3.577  0.9319 -0.0197 -0.1454
   67MOL0     O 8918   3.360   8.833   3.562 -0.5617  0.6519  0.0783
   67MOL0     C 8919   3.434   8.801   3.683 -0.4276  0.0340 -0.0389
   67MOL0     C 8920   3.577   8.772   3.642 -0.2983  0.5225  0.5029
   67MOL0     C 8921   3.644   8.877   3.555  0.0168 -0.5156 -0.8625
   67MOL0     C 8922   3.802   8.866   3.556 -0.6950 -0.3808  0.3244
   67MOL0     C 8923   3.861   8.983   3.474 -0.1092 -0.2306 -0.2006
   67MOL0     C 8924   3.858   8.961   3.319  0.4328  0.5186 -0.9665
   67MOL0     C 8925   3.886   9.094   3.254  1.4347  0.0301 -0.4171
   67MOL0     C 8926   3.881   9.105   3.096  0.3785 -0.3087 -0.4481
   67MOL0     N 8927   3.968   9.020   3.013  1.0340  0.6982 -0.1172
   67MOL0     C 8928   4.058   9.057   2.917 -1.1089 -0.3404 -0.0080
   67MOL0     C 8929   4.127   8.950   2.877  0.0005  0.0425 -0.0800
   67MOL0     C 8930   4.236   8.945   2.776  0.4333 -0.2832  0.2453
   67MOL0     C 8931   4.351   9.036   2.812  0.2510 -0.2427  0.2370
   67MOL0     C 8932   4.469   9.012   2.716 -0.5475 -0.4948  0.2306
   67MOL0     C 8933   4.602   9.075   2.752 -0.2348  0.0352  0.2878
   67MOL0     O 8934   4.639   9.036   2.876 -0.1787 -0.4641  0.1155
   67MOL0     C 8935   4.769   9.075   2.928  0.5772 -0.4417 -0.0944
   67MOL0     C 8936   4.861   9.166   2.879 -0.0713  0.0371  0.2726
   67MOL0     C 8937   4.978   9.192   2.948 -0.0255 -0.3623 -0.9428
   67MOL0     C 8938   5.007   9.124   3.070 -0.4560 -0.5066  0.5832
   67MOL0     C 8939   5.143   9.131   3.136 -0.3959 -0.8278 -0.1149
   67MOL0     O 8940   5.198   9.260   3.155  0.2205  0.0853  0.2693
   67MOL0     C 8941   5.308   9.266   3.236 -0.5324 -0.4921  0.2101
   67MOL0     C 8942   5.425   9.306   3.177  0.4261 -0.2731  0.2562
   67MOL0     C 8943   5.545   9.324   3.241  1.4106  0.6995 -0.1331
   67MOL0     C 8944   5.545   9.312   3.378 -0.2061  0.3866 -0.7902
   67MOL0     O 8945   5.663   9.346   3.446 -0.3288 -0.0599  0.6159
   67MOL0     C 8946   5.789   9.357   3.378  0.1460  0.1277  0.4095
   67MOL0     C 8947   5.894   9.384   3.484 -0.0312 -0.0669 -0.1624
   67MOL0     C 8948   6.030   9.389   3.408  1.0116 -0.6965  0.1025
   67MOL0     C 8949   6.136   9.442   3.498 -0.0014  0.3502  0.0262
   67MOL0     C 8950   6.266   9.496   3.427  1.0837 -0.1065 -0.1115
   67MOL0     C 8951   6.382   9.536   3.518  0.0727  0.8684  0.4499
   67MOL0     C 8952   6.510   9.593   3.450  1.4947 -0.1294 -0.3263
   67MOL0     C 8953   6.610   9.616   3.566  0.0560 -0.3523 -0.5084
   67MOL0    Cl 8954   6.772   9.633   3.485  0.3667  0.0155  0.1120
   67MOL0     C 8955   5.428   9.279   3.439 -0.0092 -0.3963  0.1187
   67MOL0     C 8956   5.307   9.261   3.367  0.0756 -0.1770  0.0812
   67MOL0     O 8957   5.194   9.026   3.175 -0.1310  0.7317  0.3374
   67MOL0     C 8958   4.906   9.051   3.131  0.0573 -0.5421 -0.9995
   67MOL0     C 8959   4.789   9.024   3.054 -0.7082 -0.3047  1.2666
   67MOL0     N 8960   4.070   8.839   2.930  0.2892 -0.7745  0.3328
   67MOL0     N 8961   3.975   8.881   3.022 -0.2995 -0.0802  0.1164
   67MOL0     C 8962   3.162   8.899   3.703  0.2973  0.3499 -0.3514
   67MOL0     C 8963   3.035   8.950   3.717  0.0301  0.6665 -0.5392
   67MOL0     C 8964   2.694   9.254   3.602  0.0724 -0.2585  0.0153
   67MOL0     C 8965   2.596   9.178   3.670  0.2514 -0.8853  1.0643
   67MOL0     C 8966   2.469   9.242   3.698 -0.8178 -0.4360  0.0296
   67MOL0     C 8967   2.440   9.376   3.665  0.5374  0.0300  0.8311
   67MOL0     O 8968   2.318   9.428   3.681  0.5089  0.2993 -0.5640
   67MOL0     C 8969   2.273   9.430   3.819 -0.7183  0.6714 -0.0978
   67MOL0     C 8970   2.202   9.564   3.841  0.5869  0.1336 -0.4257
   67MOL0     C 8971   2.301   9.678   3.807 -0.2577 -0.2822 -0.4687
   67MOL0     C 8972   2.253   9.827   3.841  0.4188 -0.1019  0.2081
   67MOL0     C 8973   2.118   9.858   3.793  0.2488  0.0422 -0.2801
   67MOL0     C 8974   2.004   9.874   3.765  0.5205  0.6093 -0.7365
   67MOL0     C 8975   2.532   9.434   3.600  0.5536  0.3009  0.4097
   67MOL0     C 8976   2.657   9.381   3.563 -0.0330  0.3969  0.6652
   67MOL0     C 8977   2.751   9.492   3.512 -0.3140  0.2424 -0.3268
   67MOL0     H 8978   3.006   9.065   3.405  1.3221  3.5391  2.3346
   67MOL0     H 8979   3.225   8.946   3.378  0.6322 -2.0810  0.8664
   67MOL0     H 8980   3.436   8.889   3.748 -1.6735 -1.2105  1.7875
   67MOL0     H 8981   3.391   8.720   3.743 -0.4261 -0.2092 -0.3658
   67MOL0     H 8982   3.589   8.678   3.587 -0.0613  1.5432 -1.2324
   67MOL0     H 8983   3.647   8.761   3.726  0.4788 -0.2311 -0.2199
   67MOL0     H 8984   3.623   8.967   3.614  0.5897 -1.3812  0.7517
   67MOL0     H 8985   3.588   8.883   3.461 -1.5259 -0.1263  0.0347
   67MOL0     H 8986   3.844   8.866   3.657 -1.1880  1.8720  0.5674
   67MOL0     H 8987   3.846   8.782   3.502 -2.0580 -0.2841 -0.9843
   67MOL0     H 8988   3.807   9.075   3.498 -0.5999 -0.6253  0.2341
   67MOL0     H 8989   3.966   9.001   3.501  0.2423  0.3120 -1.7971
   67MOL0     H 8990   3.927   8.884   3.283  2.3364 -0.1526  3.4144
   67MOL0     H 8991   3.758   8.939   3.282 -0.1136 -0.7536  1.1228
   67MOL0     H 8992   3.992   9.101   3.280  1.3569 -3.8883  1.8727
   67MOL0     H 8993   3.831   9.172   3.307  0.0266  0.6941 -2.7365
   67MOL0     H 8994   3.777   9.085   3.068  1.0981  0.8956 -4.6319
   67MOL0     H 8995   3.891   9.209   3.064  0.2169 -0.3834 -0.7493
   67MOL0     H 8996   4.082   9.161   2.897  0.3969 -0.2984  1.6843
   67MOL0     H 8997   4.269   8.842   2.758  1.4081  0.4621 -2.6013
   67MOL0     H 8998   4.196   8.975   2.679 -2.3880  0.4695  1.5127
   67MOL0     H 8999   4.323   9.142   2.810 -2.9221 -0.9657  1.0553
   67MOL0     H 9000   4.378   9.018   2.916  1.3456 -0.4433 -0.0731
   67MOL0     H 9001   4.439   9.043   2.616  0.6272 -4.1346 -1.4130
   67MOL0     H 9002   4.500   8.908   2.710  0.4596 -0.1134 -2.7111
   67MOL0     H 9003   4.585   9.183   2.760 -2.5738 -0.3263  0.9475
   67MOL0     H 9004   4.688   9.075   2.684  0.0822 -0.1690  0.6854
   67MOL0     H 9005   4.834   9.232   2.797 -4.8733 -0.3463  1.2508
   67MOL0     H 9006   5.044   9.268   2.908  1.6615  0.2965  2.6584
   67MOL0     H 9007   5.421   9.307   3.068 -3.4917  0.2904  0.2785
   67MOL0     H 9008   5.633   9.350   3.183 -0.3160  1.0837 -2.7719
   67MOL0     H 9009   5.819   9.264   3.328  0.2273  2.0272 -3.4854
   67MOL0     H 9010   5.780   9.434   3.302 -1.8635 -0.4768 -0.0223
   67MOL0     H 9011   5.869   9.477   3.536 -1.8834  0.8446 -2.4914
   67MOL0     H 9012   5.895   9.298   3.552  5.4136 -0.4803 -0.3893
   67MOL0     H 9013   6.071   9.294   3.373  3.2688  0.0182  0.6466
   67MOL0     H 9014   6.015   9.445   3.315  1.6164  0.9545  0.9657
   67MOL0     H 9015   6.161   9.357   3.562 -1.5176 -0.8336 -0.8887
   67MOL0     H 9016   6.097   9.527   3.554 -0.4878  0.8788 -1.0956
   67MOL0     H 9017   6.238   9.589   3.377 -3.6096 -0.3085  1.6183
   67MOL0     H 9018   6.300   9.424   3.353  3.0514  1.6264 -0.9812
   67MOL0     H 9019   6.343   9.607   3.592 -2.9891 -2.2249  2.1006
   67MOL0     H 9020   6.402   9.447   3.578  1.5569 -0.3456 -1.7224
   67MOL0     H 9021   6.495   9.691   3.403  0.5502  1.1911  2.4879
   67MOL0     H 9022   6.545   9.524   3.373 -0.0433 -0.9152 -0.3656
   67MOL0     H 9023   6.595   9.709   3.621  4.1861 -0.2844  0.8307
   67MOL0     H 9024   6.618   9.530   3.632  0.1888 -1.4250 -1.8725
   67MOL0     H 9025   5.420   9.282   3.547 -2.3761 -0.9519  0.0240
   67MOL0     H 9026   5.212   9.243   3.417  0.1822  1.1822  0.8272
   67MOL0     H 9027   4.910   9.009   3.231  1.4285  0.2055 -0.7091
   67MOL0     H 9028   4.714   8.964   3.105 -2.6051  1.2949  0.4663
   67MOL0     H 9029   3.209   8.858   3.792  1.8471 -2.4033 -2.2778
   67MOL0     H 9030   2.982   8.953   3.812  0.2578 -0.2587 -0.3663
   67MOL0     H 9031   2.612   9.077   3.705 -1.1847 -1.0544  1.3271
   67MOL0     H 9032   2.386   9.186   3.741 -0.7257  2.9383  5.7101
   67MOL0     H 9033   2.362   9.415   3.880  1.3135  0.1635 -3.0166
   67MOL0     H 9034   2.194   9.357   3.840 -1.7642  1.9731  0.7153
   67MOL0     H 9035   2.162   9.576   3.942 -0.5152  1.1853 -0.9604
   67MOL0     H 9036   2.117   9.576   3.773 -1.6494  1.0276  2.3007
   67MOL0     H 9037   2.316   9.672   3.699 -1.4628  1.3821 -0.7713
   67MOL0     H 9038   2.396   9.666   3.860  0.0867  1.2543 -0.6797
   67MOL0     H 9039   2.255   9.846   3.949 -0.5186  1.9983 -0.0804
   67MOL0     H 9040   2.325   9.889   3.785  1.1291 -1.3792 -0.3412
   67MOL0     H 9041   1.903   9.893   3.734 -0.1534 -0.4611  0.7027
   67MOL0     H 9042   2.518   9.541   3.588 -0.7856 -0.1575 -3.6761
   67MOL0     H 9043   2.837   9.500   3.580 -0.6974  1.9199 -0.0033
   67MOL0     H 9044   2.793   9.481   3.412  0.7289  0.7943  0.0260
   67MOL0     H 9045   2.711   9.593   3.511  2.6599  1.5381  0.0870
   68MOL0     O 9046   5.684   4.178   5.522 -0.1648 -0.0025 -0.1058
   68MOL0     C 9047   5.737   4.280   5.486 -0.3138  0.1449  0.2666
   68MOL0     O 9048   5.711   4.342   5.368  1.0384 -0.1980 -0.1607
   68MOL0     C 9049   5.623   4.287   5.278  0.2515  0.6365  0.1133
   68MOL0     C 9050   5.660   4.274   5.146  0.2664 -0.1387 -0.4526
   68MOL0     C 9051   5.567   4.230   5.050 -0.2010 -0.0810  0.0531
   68MOL0     C 9052   5.443   4.190   5.088  0.1991 -0.3361 -0.1098
   68MOL0     O 9053   5.360   4.144   4.991  0.3542 -0.7006  0.5050
   68MOL0     C 9054   5.225   4.104   5.006  0.6679  0.4548  0.3661
   68MOL0     C 9055   5.220   3.955   5.048  0.9617 -0.1648 -0.2920
   68MOL0     C 9056   5.114   3.924   5.150 -0.0276 -0.7089 -0.2684
   68MOL0     C 9057   4.976   3.911   5.091 -0.1318  0.2623 -0.0432
   68MOL0     C 9058   4.859   3.867   5.189 -0.6142  0.0688  0.2073
   68MOL0     C 9059   4.739   3.828   5.103 -0.3891 -1.0066  0.3767
   68MOL0     C 9060   4.755   3.714   5.002  0.5318  0.2097  0.3624
   68MOL0     C 9061   4.622   3.671   4.947 -0.3100  1.5210  1.0392
   68MOL0     N 9062   4.561   3.780   4.869  0.2949  0.3124  0.0621
   68MOL0     C 9063   4.430   3.818   4.882 -0.5078  0.1617 -1.4132
   68MOL0     C 9064   4.396   3.897   4.780  0.4895 -0.4280 -0.1473
   68MOL0     C 9065   4.262   3.942   4.764  0.4537  0.7840 -0.1925
   68MOL0     C 9066   4.165   3.945   4.885  0.2688 -0.0863 -0.2581
   68MOL0     C 9067   4.038   4.024   4.837 -0.5913  0.4916  0.2584
   68MOL0     C 9068   3.927   4.033   4.941  0.1385  0.2866 -0.6468
   68MOL0     O 9069   3.817   4.092   4.865  0.0085 -0.0575  0.3365
   68MOL0     C 9070   3.706   4.008   4.852 -0.3121 -0.3307  0.4938
   68MOL0     C 9071   3.576   4.059   4.843 -0.1754 -0.4265 -1.1218
   68MOL0     C 9072   3.456   3.983   4.821 -0.1013 -0.0648  0.1845
   68MOL0     C 9073   3.464   3.848   4.782  0.7971 -0.5392 -1.0842
   68MOL0     C 9074   3.340   3.767   4.746  0.4874  0.0913 -0.1942
   68MOL0     O 9075   3.227   3.844   4.751  0.4888  0.3276 -0.3056
   68MOL0     C 9076   3.112   3.778   4.772  0.5381 -0.8872 -0.0029
   68MOL0     C 9077   3.051   3.682   4.686 -0.6493 -1.0182  0.1570
   68MOL0     C 9078   2.927   3.618   4.720 -0.2535 -0.0202 -0.3334
   68MOL0     C 9079   2.863   3.643   4.845 -0.2453  0.0012  1.6824
   68MOL0     O 9080   2.742   3.571   4.860 -0.0092 -0.1647 -0.1684
   68MOL0     C 9081   2.688   3.567   4.993  0.1786 -0.0660 -0.5581
   68MOL0     C 9082   2.779   3.477   5.082  0.0244  0.6205 -0.2676
   68MOL0     C 9083   2.751   3.328   5.099 -0.2100  0.6459  0.2558
   68MOL0     C 9084   2.611   3.283   5.141 -0.0375 -0.3457  0.2253
   68MOL0     C 9085   2.561   3.345   5.274 -0.5215 -0.5652 -0.1054
   68MOL0     C 9086   2.606   3.258   5.398  0.1911 -0.2381 -0.2342
   68MOL0     C 9087   2.623   3.346   5.521  0.3326  0.3368 -0.0769
   68MOL0     C 9088   2.634   3.249   5.644  0.5152 -0.0762 -1.0098
   68MOL0    Cl 9089   2.795   3.171   5.639 -0.2812 -0.4689  0.2389
   68MOL0     C 9090   2.923   3.742   4.924 -0.2271  0.0314  0.0555
   68MOL0     C 9091   3.040   3.811   4.888  0.1918 -0.8784  0.4265
   68MOL0     O 9092   3.345   3.643   4.727 -0.4974 -0.1512  0.4652
   68MOL0     C 9093   3.601   3.797   4.777 -0.4620  0.4404  0.0764
   68MOL0     C 9094   3.718   3.876   4.810  0.2790 -0.0668 -0.3222
   68MOL0     N 9095   4.506   3.919   4.701  0.1803 -0.0993 -0.2151
   68MOL0     N 9096   4.597   3.839   4.753 -0.0312 -0.2831  0.8086
   68MOL0     C 9097   5.407   4.203   5.224 -0.2076  0.8117  0.0428
   68MOL0     C 9098   5.492   4.254   5.321  0.2454  0.1594  0.4325
   68MOL0     C 9099   5.849   4.333   5.581  0.1660  0.7183 -0.0168
   68MOL0     C 9100   5.899   4.463   5.561  0.7133 -0.4045 -0.3006
   68MOL0     C 9101   5.998   4.528   5.644  1.5348  0.7134 -0.1777
   68MOL0     C 9102   6.054   4.452   5.741  0.9943 -0.4395 -0.9908
   68MOL0     O 9103   6.155   4.505   5.812  0.5933  0.5946  0.1214
   68MOL0     C 9104   6.196   4.427   5.930 -0.2051  0.3750 -0.2798
   68MOL0     C 9105   6.316   4.491   5.997 -0.2181  0.2800 -0.3093
   68MOL0     C 9106   6.322   4.641   5.977  0.2237 -0.6958  0.2091
   68MOL0     C 9107   6.214   4.721   6.049  0.8475  0.2881 -0.5225
   68MOL0     C 9108   6.236   4.864   6.015 -0.4207 -0.2283 -0.4713
   68MOL0     C 9109   6.257   4.983   5.995 -0.2387  0.1834 -0.5645
   68MOL0     C 9110   6.007   4.322   5.767 -0.7862 -0.3203 -0.5917
   68MOL0     C 9111   5.916   4.259   5.686  0.0006 -0.5699 -0.6465
   68MOL0     C 9112   5.890   4.119   5.703 -0.2014 -0.1126  0.6001
   68MOL0     H 9113   5.758   4.302   5.108 -0.3636  1.8134 -0.7510
   68MOL0     H 9114   5.608   4.220   4.949  1.3764  3.0116  0.2700
   68MOL0     H 9115   5.184   4.171   5.082 -1.5175  0.3472 -0.6500
   68MOL0     H 9116   5.175   4.130   4.913  0.3011 -0.9637  0.1397
   68MOL0     H 9117   5.315   3.928   5.095  0.9776  0.8495  0.2998
   68MOL0     H 9118   5.229   3.903   4.953  1.8816  0.8646 -0.7821
   68MOL0     H 9119   5.121   3.999   5.230  0.7966 -0.4618 -0.5655
   68MOL0     H 9120   5.135   3.823   5.186 -2.2647 -0.7902  1.0321
   68MOL0     H 9121   4.953   4.007   5.044  1.9791  1.5824  1.4029
   68MOL0     H 9122   4.996   3.837   5.013  2.0548  0.1403  0.5525
   68MOL0     H 9123   4.895   3.786   5.255  0.8940  0.0417 -0.6008
   68MOL0     H 9124   4.843   3.944   5.266  0.6934  1.5113 -0.9100
   68MOL0     H 9125   4.658   3.803   5.171 -0.9655 -0.2996 -0.0406
   68MOL0     H 9126   4.711   3.915   5.043 -2.2555 -2.3633 -0.8604
   68MOL0     H 9127   4.815   3.629   5.036  3.9020  1.5059 -1.8568
   68MOL0     H 9128   4.806   3.768   4.922  0.7790 -0.1496  0.2784
   68MOL0     H 9129   4.624   3.582   4.884 -2.2405  0.9129  1.7423
   68MOL0     H 9130   4.557   3.644   5.032 -0.1078 -0.2643  0.6569
   68MOL0     H 9131   4.359   3.775   4.952  0.1281 -0.6077 -1.2308
   68MOL0     H 9132   4.273   4.048   4.742 -1.2265  0.6977 -1.6892
   68MOL0     H 9133   4.216   3.888   4.680 -0.6591  0.7876  0.3880
   68MOL0     H 9134   4.131   3.850   4.927 -2.0248  0.4900 -0.6469
   68MOL0     H 9135   4.210   4.006   4.964 -1.7178 -1.1301  1.7927
   68MOL0     H 9136   3.995   3.981   4.746  1.1316 -0.2636 -0.2339
   68MOL0     H 9137   4.057   4.129   4.811  4.5861 -0.1944  0.2250
   68MOL0     H 9138   3.953   4.103   5.022 -1.8326  1.8851 -1.3141
   68MOL0     H 9139   3.909   3.934   4.982  0.1424  0.8358  0.7465
   68MOL0     H 9140   3.571   4.167   4.852 -1.0897 -0.6198  2.0115
   68MOL0     H 9141   3.356   4.025   4.823 -1.0227 -2.1008 -0.4112
   68MOL0     H 9142   3.106   3.651   4.598  1.1304  1.7799  0.1713
   68MOL0     H 9143   2.897   3.545   4.646 -0.2828  0.9300 -1.2850
   68MOL0     H 9144   2.678   3.666   5.040 -0.0456 -1.6381  3.0135
   68MOL0     H 9145   2.588   3.524   4.987 -0.5919  1.5508  0.0876
   68MOL0     H 9146   2.885   3.492   5.056 -0.0284  3.3220  0.7097
   68MOL0     H 9147   2.779   3.511   5.186  1.5309  0.9154 -0.3282
   68MOL0     H 9148   2.768   3.290   4.998 -0.5675 -1.8569  1.0505
   68MOL0     H 9149   2.812   3.276   5.174  0.1708  2.9699  1.6592
   68MOL0     H 9150   2.600   3.175   5.146 -1.9437 -0.1893  0.2791
   68MOL0     H 9151   2.543   3.311   5.060  1.5099 -0.3763 -1.1145
   68MOL0     H 9152   2.452   3.344   5.262 -0.9708  1.0647  2.7070
   68MOL0     H 9153   2.604   3.445   5.281 -2.0252  0.5082 -3.8815
   68MOL0     H 9154   2.528   3.184   5.419  0.9564 -0.7815  0.8235
   68MOL0     H 9155   2.698   3.204   5.373  0.7225  0.5397  0.0062
   68MOL0     H 9156   2.534   3.409   5.526 -0.4270 -0.7503  0.5045
   68MOL0     H 9157   2.716   3.404   5.523  0.3263  0.3348  1.4615
   68MOL0     H 9158   2.633   3.306   5.738  0.1729 -3.3024  1.1265
   68MOL0     H 9159   2.556   3.173   5.642  1.0460 -0.6907  0.2587
   68MOL0     H 9160   2.878   3.778   5.016  1.4362  0.1149  0.8749
   68MOL0     H 9161   3.069   3.896   4.947 -0.1116  0.9309 -1.8740
   68MOL0     H 9162   3.617   3.697   4.738  3.1879 -0.3108  2.9106
   68MOL0     H 9163   3.816   3.832   4.796 -0.2243 -1.5785  0.6787
   68MOL0     H 9164   5.306   4.175   5.250 -0.4519  1.2712 -0.4094
   68MOL0     H 9165   5.458   4.263   5.424 -3.1156 -0.1078 -0.5209
   68MOL0     H 9166   5.851   4.521   5.482  0.6707  1.5334  1.0859
   68MOL0     H 9167   6.009   4.634   5.623 -2.6037  1.6863  1.5744
   68MOL0     H 9168   6.238   4.330   5.902  0.5699  1.1685 -1.9981
   68MOL0     H 9169   6.116   4.422   6.006 -1.3675  0.3138 -1.4707
   68MOL0     H 9170   6.399   4.436   5.954 -1.8914 -0.6500 -2.5685
   68MOL0     H 9171   6.309   4.469   6.104 -2.5754 -2.1130 -0.8373
   68MOL0     H 9172   6.319   4.660   5.869 -0.3815  1.6221  0.5692
   68MOL0     H 9173   6.417   4.678   6.017  0.0974 -1.1491  0.9571
   68MOL0     H 9174   6.112   4.693   6.020  2.0123 -2.2500 -2.5684
   68MOL0     H 9175   6.236   4.708   6.155 -1.0094  2.1428  0.1573
   68MOL0     H 9176   6.261   5.090   5.981 -0.7342  0.7906  3.0578
   68MOL0     H 9177   6.057   4.268   5.848 -0.7476  1.6543  0.7677
   68MOL0     H 9178   5.953   4.080   5.783 -0.3627 -1.0300  0.2896
   68MOL0     H 9179   5.784   4.109   5.726  0.0579 -2.8324  0.9654
   68MOL0     H 9180   5.908   4.069   5.607 -2.1312  1.9666 -0.9502
   69MOL0     O 9181  10.452   9.248   6.294  0.4001  0.2173  0.2719
   69MOL0     C 9182  10.467   9.126   6.309 -0.3032 -0.0050 -0.2255
   69MOL0     O 9183  10.381   9.034   6.369  0.2193  0.3031  0.0777
   69MOL0     C 9184  10.248   9.068   6.376  0.2038 -0.8671 -0.1448
   69MOL0     C 9185  10.185   9.193   6.393 -0.0972 -0.5856 -0.3162
   69MOL0     C 9186  10.049   9.212   6.390 -0.5012  0.0535  0.1303
   69MOL0     C 9187   9.971   9.097   6.360  0.1300  0.7317 -0.1796
   69MOL0     O 9188   9.836   9.122   6.359 -0.4715 -0.4560  0.0607
   69MOL0     C 9189   9.745   9.016   6.313 -0.3841 -1.0743  0.9463
   69MOL0     C 9190   9.608   9.079   6.345 -0.0919  0.2393  0.4472
   69MOL0     C 9191   9.500   8.973   6.342 -0.6519 -0.1054 -0.4344
   69MOL0     C 9192   9.370   9.048   6.374 -0.1367  0.6401 -0.1998
   69MOL0     C 9193   9.256   8.951   6.381 -0.9070  0.3659  0.3039
   69MOL0     C 9194   9.138   9.016   6.451  0.1120  0.3993  0.0496
   69MOL0     C 9195   9.031   8.905   6.471  0.6295 -0.1862 -0.1262
   69MOL0     C 9196   8.969   8.844   6.350  0.5984 -0.1444  0.6109
   69MOL0     N 9197   8.881   8.932   6.271 -0.1352 -0.0163 -1.0658
   69MOL0     C 9198   8.928   9.010   6.171  0.4476  0.3834  0.2674
   69MOL0     C 9199   8.805   9.051   6.113 -0.4399  1.5785  0.4789
   69MOL0     C 9200   8.803   9.132   5.991  0.1790  0.0790  0.6423
   69MOL0     C 9201   8.741   9.268   6.008  0.6826  0.0358  0.3011
   69MOL0     C 9202   8.781   9.357   6.132  1.7980 -0.3461  0.3642
   69MOL0     C 9203   8.921   9.419   6.126 -0.0603  0.4861  0.8257
   69MOL0     O 9204   9.031   9.322   6.095 -0.0524  0.0380 -0.4494
   69MOL0     C 9205   9.162   9.363   6.075  0.6090 -0.2148  0.3993
   69MOL0     C 9206   9.251   9.257   6.047  0.1487 -0.3126 -1.8624
   69MOL0     C 9207   9.384   9.284   6.031 -0.8803 -0.1477 -0.1187
   69MOL0     C 9208   9.422   9.423   6.038 -0.4524  0.6013  0.6977
   69MOL0     C 9209   9.565   9.448   6.028  0.3334  0.1952 -0.2281
   69MOL0     O 9210   9.636   9.348   5.967 -0.1808 -0.4509 -0.0335
   69MOL0     C 9211   9.771   9.380   5.957 -0.3257  0.1430  0.9161
   69MOL0     C 9212   9.855   9.309   6.047 -0.0396 -0.5439 -0.3173
   69MOL0     C 9213  10.000   9.324   6.041  0.2576  0.4304  0.2460
   69MOL0     C 9214  10.052   9.399   5.937 -0.7344 -0.7251 -0.1678
   69MOL0     O 9215  10.190   9.421   5.918  0.3290  0.2592 -0.1884
   69MOL0     C 9216  10.270   9.413   6.039 -0.0278  0.6959  0.1672
   69MOL0     C 9217  10.421   9.442   6.009 -0.6615 -0.9632  0.2036
   69MOL0     C 9218  10.474   9.346   5.898  0.2170  0.0672 -0.0235
   69MOL0     C 9219  10.615   9.393   5.860 -0.0968  0.5738 -0.5256
   69MOL0     C 9220  10.698   9.287   5.790  0.3512 -0.4659 -0.6540
   69MOL0     C 9221  10.840   9.330   5.778 -0.8841 -0.5724 -0.7482
   69MOL0     C 9222  10.941   9.222   5.725  0.0086 -0.1231  0.6706
   69MOL0     C 9223  11.076   9.281   5.684  0.5089  0.6158  0.1429
   69MOL0    Cl 9224  11.180   9.272   5.828 -0.0131 -0.2926  0.6504
   69MOL0     C 9225   9.970   9.465   5.843  0.4525 -0.4722  0.5378
   69MOL0     C 9226   9.830   9.456   5.858  0.3190  0.6629  0.4440
   69MOL0     O 9227   9.610   9.539   6.093 -0.0135  0.4205  0.3514
   69MOL0     C 9228   9.330   9.527   6.047  0.4106 -0.3113 -0.1153
   69MOL0     C 9229   9.196   9.495   6.064  0.0955  0.2269  0.0462
   69MOL0     N 9230   8.704   9.017   6.193  0.4412 -0.3136  0.4267
   69MOL0     N 9231   8.748   8.938   6.282 -0.0117  0.5351 -0.0883
   69MOL0     C 9232  10.029   8.967   6.346 -0.0176 -0.4743 -1.2130
   69MOL0     C 9233  10.171   8.955   6.369  0.6866 -0.4448 -0.1123
   69MOL0     C 9234  10.611   9.077   6.266  1.1309 -0.6288  0.1359
   69MOL0     C 9235  10.685   9.162   6.190 -0.4218 -0.7452  0.3113
   69MOL0     C 9236  10.810   9.134   6.142  0.4510 -0.3881 -0.1820
   69MOL0     C 9237  10.875   9.016   6.182 -0.2242  0.1583 -0.1142
   69MOL0     O 9238  11.006   9.013   6.140  0.2570  0.5066 -0.1155
   69MOL0     C 9239  11.086   8.894   6.174  0.3501 -1.1226 -1.0368
   69MOL0     C 9240  11.054   8.767   6.086  0.7151 -0.1077 -0.1756
   69MOL0     C 9241  11.136   8.765   5.960 -0.4901 -0.3608  0.1494
   69MOL0     C 9242  11.147   8.899   5.883 -0.2032  0.1221  0.0515
   69MOL0     C 9243  11.181   8.880   5.745 -0.2326 -0.4684  0.0631
   69MOL0     C 9244  11.230   8.872   5.635 -0.0526 -0.3067  0.6630
   69MOL0     C 9245  10.805   8.929   6.256 -0.3166  0.5718 -0.6855
   69MOL0     C 9246  10.670   8.956   6.302 -0.6481  0.2469 -0.1729
   69MOL0     C 9247  10.596   8.841   6.366  0.9762  0.8343 -0.7793
   69MOL0     H 9248  10.251   9.275   6.418 -0.9181 -0.4193  1.4314
   69MOL0     H 9249  10.000   9.308   6.392  0.0798  0.4916 -2.4739
   69MOL0     H 9250   9.753   8.993   6.207  1.6989 -3.4296  1.5135
   69MOL0     H 9251   9.764   8.927   6.374  1.6853 -0.8474  0.7059
   69MOL0     H 9252   9.600   9.156   6.269  2.7073  0.9801  0.7881
   69MOL0     H 9253   9.615   9.143   6.434 -0.5585 -0.4393  0.9877
   69MOL0     H 9254   9.515   8.892   6.414  3.2569  0.3771 -0.4929
   69MOL0     H 9255   9.485   8.931   6.243 -1.7101  1.5013 -0.9997
   69MOL0     H 9256   9.372   9.081   6.478  0.3738 -0.8359  0.2847
   69MOL0     H 9257   9.358   9.134   6.308 -1.7306 -0.5543 -1.5802
   69MOL0     H 9258   9.238   8.925   6.276  1.7124 -0.8261  0.0660
   69MOL0     H 9259   9.278   8.851   6.418  0.7168  1.6103  3.0101
   69MOL0     H 9260   9.177   9.058   6.544  0.9425 -0.9074  0.3155
   69MOL0     H 9261   9.091   9.092   6.388  1.7857  3.0801  1.8120
   69MOL0     H 9262   8.957   8.944   6.542  0.8337 -3.7999  2.3737
   69MOL0     H 9263   9.087   8.830   6.528 -0.5636  0.0215  1.4064
   69MOL0     H 9264   9.044   8.807   6.280 -1.9211 -0.4189 -2.1468
   69MOL0     H 9265   8.909   8.755   6.373 -0.4289  0.8412  1.9545
   69MOL0     H 9266   9.029   9.023   6.132 -0.6436  0.2220 -2.9097
   69MOL0     H 9267   8.905   9.143   5.954  0.4158 -1.9127  0.5838
   69MOL0     H 9268   8.737   9.075   5.925 -0.3514 -0.9633  2.0273
   69MOL0     H 9269   8.761   9.325   5.917 -0.4967  2.0537  1.2560
   69MOL0     H 9270   8.633   9.255   6.010  0.5775 -0.4108 -2.8526
   69MOL0     H 9271   8.761   9.305   6.226 -0.7227  1.5380  0.9677
   69MOL0     H 9272   8.706   9.436   6.130  1.8675 -0.0724  3.5426
   69MOL0     H 9273   8.950   9.481   6.211 -1.4619  1.2970  0.7387
   69MOL0     H 9274   8.913   9.489   6.042  1.1017 -0.4334 -0.0913
   69MOL0     H 9275   9.211   9.159   6.026 -1.8593  0.5733 -2.4062
   69MOL0     H 9276   9.450   9.198   6.025 -1.1511 -0.4935  1.4101
   69MOL0     H 9277   9.808   9.256   6.129 -0.6461  1.0200  0.3820
   69MOL0     H 9278  10.058   9.265   6.111  2.4903 -0.6229 -2.3432
   69MOL0     H 9279  10.242   9.491   6.111  0.5172  0.0504  1.0957
   69MOL0     H 9280  10.264   9.319   6.095 -1.4268  0.4293 -0.3950
   69MOL0     H 9281  10.433   9.543   5.968 -1.9026 -0.4489  1.0298
   69MOL0     H 9282  10.480   9.454   6.100 -3.3813  0.8373  1.8768
   69MOL0     H 9283  10.480   9.249   5.947  0.2001  0.4079  0.6617
   69MOL0     H 9284  10.414   9.351   5.806  0.8956 -2.1687 -0.6513
   69MOL0     H 9285  10.672   9.423   5.949  0.0173 -0.1721 -0.3432
   69MOL0     H 9286  10.605   9.480   5.794 -2.4130  0.2558 -0.6731
   69MOL0     H 9287  10.648   9.268   5.695 -0.5801 -2.9694  0.2363
   69MOL0     H 9288  10.692   9.190   5.840  1.8954 -0.6844 -0.8190
   69MOL0     H 9289  10.846   9.408   5.702  7.1229 -0.7148 -1.0462
   69MOL0     H 9290  10.882   9.386   5.862 -3.0871 -2.5949  1.9197
   69MOL0     H 9291  10.890   9.171   5.642 -0.4319 -0.5728  1.2017
   69MOL0     H 9292  10.967   9.150   5.804  0.7332 -1.0719 -0.4081
   69MOL0     H 9293  11.134   9.221   5.614  0.4143  0.3451  0.2954
   69MOL0     H 9294  11.060   9.383   5.645 -0.2089 -0.2421 -1.9529
   69MOL0     H 9295  10.014   9.509   5.754 -0.9356 -0.5630 -0.2131
   69MOL0     H 9296   9.759   9.495   5.785  0.5809 -0.1337 -0.2650
   69MOL0     H 9297   9.362   9.630   6.056  1.3354 -0.5973 -0.0026
   69MOL0     H 9298   9.125   9.576   6.076 -1.3488 -1.1778  1.7478
   69MOL0     H 9299   9.965   8.881   6.332  0.0018 -1.3759  2.8007
   69MOL0     H 9300  10.212   8.855   6.373  0.8912 -0.3408  0.5480
   69MOL0     H 9301  10.642   9.259   6.165 -2.0074 -1.7541 -1.0836
   69MOL0     H 9302  10.853   9.199   6.067 -2.2960  1.2776 -0.4558
   69MOL0     H 9303  11.075   8.869   6.280  0.5028 -0.0427 -0.7580
   69MOL0     H 9304  11.193   8.913   6.161  0.2087  2.1768  1.5907
   69MOL0     H 9305  10.948   8.746   6.068  0.9024 -0.3072 -1.1156
   69MOL0     H 9306  11.089   8.693   6.159  0.7222  2.4953  2.6575
   69MOL0     H 9307  11.102   8.694   5.884  2.8564 -0.8772 -1.0018
   69MOL0     H 9308  11.238   8.733   5.979 -0.3925 -0.0455  0.1691
   69MOL0     H 9309  11.055   8.952   5.911 -0.3062 -1.0786  2.2353
   69MOL0     H 9310  11.226   8.961   5.926 -1.1672  0.6166  1.1876
   69MOL0     H 9311  11.265   8.862   5.534 -1.5726  0.7935 -0.0162
   69MOL0     H 9312  10.853   8.835   6.281 -1.1023  0.2839 -0.2515
   69MOL0     H 9313  10.543   8.879   6.454  0.0327  2.9048 -2.1484
   69MOL0     H 9314  10.530   8.797   6.292  0.8957 -0.4981  0.0603
   69MOL0     H 9315  10.677   8.774   6.395 -0.1830 -0.0645  0.4606
   70MOL0     O 9316   2.042  11.255   4.008  0.5285 -0.1509 -0.1245
   70MOL0     C 9317   2.037  11.371   3.983 -0.2353 -0.3485  0.1646
   70MOL0     O 9318   2.146  11.447   3.962 -0.3068 -0.2851 -0.2993
   70MOL0     C 9319   2.269  11.401   3.974  0.6670 -0.4505  0.0741
   70MOL0     C 9320   2.369  11.424   3.875  1.0954  0.4873  0.1623
   70MOL0     C 9321   2.500  11.396   3.900  0.5840 -0.4151 -0.3786
   70MOL0     C 9322   2.539  11.342   4.017 -0.2394  0.0619  0.2258
   70MOL0     O 9323   2.670  11.298   4.014  0.1597  0.2153 -0.5813
   70MOL0     C 9324   2.712  11.171   4.071  0.1793 -0.1768  0.0295
   70MOL0     C 9325   2.793  11.198   4.197 -0.2155 -0.7087  0.6694
   70MOL0     C 9326   2.926  11.269   4.168 -0.6207 -0.3462 -0.2619
   70MOL0     C 9327   3.037  11.194   4.097 -0.5985 -0.3212  0.1954
   70MOL0     C 9328   3.177  11.259   4.121 -0.0409  0.5303 -0.0232
   70MOL0     C 9329   3.297  11.174   4.059  0.1265  0.0446  0.3499
   70MOL0     C 9330   3.416  11.266   4.076 -0.5877 -0.4010  0.8657
   70MOL0     C 9331   3.520  11.212   3.975  0.3685  0.2154 -0.7531
   70MOL0     N 9332   3.630  11.302   3.949  0.1600  0.5039 -0.4670
   70MOL0     C 9333   3.609  11.425   3.898  0.2303 -0.1192 -0.3171
   70MOL0     C 9334   3.724  11.487   3.900  0.0105  0.2258  0.3777
   70MOL0     C 9335   3.752  11.630   3.861  0.1658  0.1951  0.2199
   70MOL0     C 9336   3.898  11.641   3.826 -0.5213  0.5707  0.1773
   70MOL0     C 9337   3.927  11.792   3.782 -1.2077  0.3283 -0.0015
   70MOL0     C 9338   3.940  11.883   3.902 -0.0475 -0.0269  0.0488
   70MOL0     O 9339   4.055  11.830   3.979 -0.4087 -0.2908 -0.3169
   70MOL0     C 9340   4.182  11.879   3.945  0.5246  0.6185 -0.3983
   70MOL0     C 9341   4.221  11.999   4.006  0.0502  0.8909 -0.5228
   70MOL0     C 9342   4.351  12.038   3.984 -0.2051 -0.2431  0.5415
   70MOL0     C 9343   4.441  11.970   3.896 -0.0407 -0.3193 -0.4471
   70MOL0     C 9344   4.565  12.040   3.867  0.1588 -0.2913  0.0221
   70MOL0     O 9345   4.650  11.958   3.806 -0.7936  0.0432  0.5471
   70MOL0     C 9346   4.788  11.958   3.825 -0.3681 -0.3125 -0.1329
   70MOL0     C 9347   4.874  11.920   3.721 -0.8920  0.9417 -0.5189
   70MOL0     C 9348   5.015  11.929   3.731 -0.1029  0.8494 -0.1089
   70MOL0     C 9349   5.071  11.974   3.851 -0.1101  0.4633  0.4652
   70MOL0     O 9350   5.206  11.983   3.871 -0.5868 -0.4512 -0.5329
   70MOL0     C 9351   5.301  11.969   3.757 -0.0197  0.7246 -0.1163
   70MOL0     C 9352   5.449  11.990   3.789 -1.1376 -0.4793  0.4585
   70MOL0     C 9353   5.517  11.877   3.874  0.9864 -0.5130  0.0223
   70MOL0     C 9354   5.667  11.886   3.862  0.8095 -0.3548  0.3213
   70MOL0     C 9355   5.727  12.008   3.923  1.1418  0.5676 -0.9336
   70MOL0     C 9356   5.889  12.006   3.922  0.1485 -0.1035  0.6255
   70MOL0     C 9357   5.953  12.127   3.978  1.2923 -0.4501  0.1938
   70MOL0     C 9358   6.103  12.118   3.966 -0.6029  0.7892  0.0116
   70MOL0    Cl 9359   6.142  12.138   3.793  0.2889  0.1155  0.1758
   70MOL0     C 9360   4.991  12.014   3.955 -0.1492 -0.7444 -0.1444
   70MOL0     C 9361   4.849  12.002   3.944  0.3195  0.2543 -0.1661
   70MOL0     O 9362   4.592  12.154   3.912 -0.0294 -0.0281 -0.0363
   70MOL0     C 9363   4.402  11.844   3.848 -0.1688 -0.5021 -0.0583
   70MOL0     C 9364   4.270  11.798   3.874 -0.4276 -0.2140  0.4861
   70MOL0     N 9365   3.823  11.388   3.945 -0.0664 -0.4250 -0.0910
   70MOL0     N 9366   3.759  11.278   3.973  0.4651  0.0631 -0.4761
   70MOL0     C 9367   2.449  11.325   4.119  1.5679 -0.2243  0.5569
   70MOL0     C 9368   2.309  11.350   4.099 -0.6727 -0.5024 -0.2735
   70MOL0     C 9369   1.910  11.438   4.020 -0.1935 -0.0462 -0.8329
   70MOL0     C 9370   1.920  11.539   4.115  0.9107  0.5282 -0.3295
   70MOL0     C 9371   1.808  11.614   4.156 -0.0581  0.5056 -0.2486
   70MOL0     C 9372   1.679  11.582   4.120  0.4017 -0.1683  0.9074
   70MOL0     O 9373   1.572  11.651   4.164  0.1314 -0.1244  0.4051
   70MOL0     C 9374   1.580  11.703   4.298 -0.0913  0.2668  0.4704
   70MOL0     C 9375   1.445  11.760   4.334  0.3433 -0.4055  0.0397
   70MOL0     C 9376   1.431  11.802   4.483  0.1214  0.0504 -0.8192
   70MOL0     C 9377   1.519  11.913   4.535 -0.7808 -0.2697 -0.2048
   70MOL0     C 9378   1.487  11.935   4.678 -0.6338 -0.3363 -0.3046
   70MOL0     C 9379   1.470  11.960   4.792  0.3834  1.6077 -0.4095
   70MOL0     C 9380   1.672  11.471   4.027  0.2840 -0.6026 -0.6019
   70MOL0     C 9381   1.777  11.407   3.980  0.0189  0.0070  0.1945
   70MOL0     C 9382   1.755  11.282   3.892 -0.2431  0.5687  0.4513
   70MOL0     H 9383   2.340  11.471   3.782  2.6517  3.1685  0.9155
   70MOL0     H 9384   2.574  11.402   3.821  2.1671 -2.1909  0.8822
   70MOL0     H 9385   2.623  11.109   4.090 -1.4864  2.5190  1.8287
   70MOL0     H 9386   2.776  11.113   4.005  0.5538 -0.5703  0.7221
   70MOL0     H 9387   2.810  11.108   4.258  1.1748  0.7193  2.5017
   70MOL0     H 9388   2.736  11.270   4.257 -1.5913 -2.1246  1.1487
   70MOL0     H 9389   2.971  11.284   4.266 -0.5339 -3.7709  0.3516
   70MOL0     H 9390   2.923  11.372   4.131  3.4251  0.1650  0.3182
   70MOL0     H 9391   3.051  11.093   4.136 -2.2131 -0.9405 -0.7278
   70MOL0     H 9392   3.010  11.183   3.992 -3.6253  2.9336  0.4578
   70MOL0     H 9393   3.179  11.366   4.099 -0.0013  0.4798 -0.2654
   70MOL0     H 9394   3.181  11.261   4.231  2.2560  1.4731 -0.0674
   70MOL0     H 9395   3.302  11.079   4.113 -1.7709  0.8973  2.1858
   70MOL0     H 9396   3.270  11.160   3.954  0.7651  0.0033  0.1875
   70MOL0     H 9397   3.453  11.261   4.179  1.6980 -6.6887  0.2028
   70MOL0     H 9398   3.373  11.362   4.047 -3.3016 -2.6816 -3.9562
   70MOL0     H 9399   3.557  11.114   4.007  0.4534  0.1112 -1.1705
   70MOL0     H 9400   3.469  11.197   3.879  0.2526 -1.5868 -0.4504
   70MOL0     H 9401   3.512  11.469   3.877 -0.7185 -2.9254 -2.4227
   70MOL0     H 9402   3.708  11.642   3.762 -1.0604  1.4513  0.8693
   70MOL0     H 9403   3.710  11.705   3.929  1.8436  0.1255  1.4116
   70MOL0     H 9404   3.967  11.618   3.908  0.0404  3.7951  0.7277
   70MOL0     H 9405   3.917  11.567   3.748  1.3206  0.0453  1.0657
   70MOL0     H 9406   3.849  11.836   3.718  0.1335 -1.5740 -3.1791
   70MOL0     H 9407   4.009  11.799   3.710  0.0302  2.2533  1.5032
   70MOL0     H 9408   3.854  11.880   3.969  1.2503 -1.4829  1.7354
   70MOL0     H 9409   3.951  11.984   3.862 -0.3406 -0.2105 -0.5112
   70MOL0     H 9410   4.155  12.049   4.076 -1.5649 -1.5925 -0.1525
   70MOL0     H 9411   4.370  12.132   4.035 -1.5491 -0.3455  1.2764
   70MOL0     H 9412   4.829  11.886   3.628  0.3134 -0.6832 -0.5637
   70MOL0     H 9413   5.066  11.880   3.649  4.4460  2.4485  1.4906
   70MOL0     H 9414   5.295  11.864   3.728  3.0188 -0.0952  1.7552
   70MOL0     H 9415   5.281  12.036   3.673  2.9341  2.8322  0.7071
   70MOL0     H 9416   5.504  11.994   3.694  2.1537 -0.5380  2.1929
   70MOL0     H 9417   5.461  12.092   3.826  2.2537 -0.3438 -0.6099
   70MOL0     H 9418   5.480  11.889   3.976 -0.7096 -1.6679 -0.4169
   70MOL0     H 9419   5.477  11.778   3.851 -0.6380 -0.0813  0.9029
   70MOL0     H 9420   5.679  11.886   3.753 -1.5965  3.2169 -0.1063
   70MOL0     H 9421   5.716  11.806   3.919  3.5384  1.8834  1.3737
   70MOL0     H 9422   5.693  12.009   4.027  1.9657 -0.6056 -0.6244
   70MOL0     H 9423   5.695  12.100   3.874  0.8984  1.0766  0.1505
   70MOL0     H 9424   5.931  11.912   3.960  0.6922 -1.0681 -2.1382
   70MOL0     H 9425   5.906  11.999   3.814 -1.0059 -2.7599  0.5139
   70MOL0     H 9426   5.919  12.149   4.080 -0.4731 -0.2724 -0.4049
   70MOL0     H 9427   5.920  12.205   3.909  1.1286 -0.8030 -0.1278
   70MOL0     H 9428   6.151  12.196   4.026 -1.0336  1.9106 -1.0823
   70MOL0     H 9429   6.137  12.018   3.997 -1.6491  0.4023 -0.0463
   70MOL0     H 9430   5.029  12.044   4.052 -0.0496  1.4676 -0.8189
   70MOL0     H 9431   4.786  12.041   4.022  0.4268  2.6872 -1.1965
   70MOL0     H 9432   4.468  11.787   3.783 -0.8418 -2.7663  1.1590
   70MOL0     H 9433   4.233  11.706   3.829 -2.3852  1.0498 -0.6710
   70MOL0     H 9434   2.474  11.283   4.216 -0.0877 -1.8142  0.3575
   70MOL0     H 9435   2.242  11.342   4.184 -2.8908  2.6857 -1.5529
   70MOL0     H 9436   2.010  11.574   4.165  0.7982 -1.4382  1.4031
   70MOL0     H 9437   1.829  11.706   4.211  1.6114  2.1268 -3.3278
   70MOL0     H 9438   1.654  11.782   4.319  3.6609 -3.1656  1.4105
   70MOL0     H 9439   1.625  11.628   4.363  0.0091 -0.5120 -0.4746
   70MOL0     H 9440   1.377  11.675   4.329  1.7012 -1.6495  1.5823
   70MOL0     H 9441   1.402  11.843   4.277 -0.0569 -0.2595  0.5390
   70MOL0     H 9442   1.457  11.718   4.548  1.3389  1.0578  0.0478
   70MOL0     H 9443   1.327  11.826   4.502  0.5580  0.7875  0.7794
   70MOL0     H 9444   1.625  11.884   4.529 -0.9519 -0.6243 -2.0906
   70MOL0     H 9445   1.504  12.000   4.470  0.9324  0.3194  0.1218
   70MOL0     H 9446   1.447  11.982   4.894 -0.2164  2.1577 -0.6559
   70MOL0     H 9447   1.572  11.454   3.990 -1.0076  1.3941  1.7035
   70MOL0     H 9448   1.842  11.215   3.892  0.9717  2.0796 -0.0805
   70MOL0     H 9449   1.661  11.242   3.930  0.3704 -1.0666  0.3331
   70MOL0     H 9450   1.725  11.321   3.794 -0.0083 -0.6762 -0.1438
   71MOL0     O 9451   7.013   7.978   3.794 -0.5874  0.4920 -0.5136
   71MOL0     C 9452   6.943   8.061   3.864  0.1327  0.2012  0.7369
   71MOL0     O 9453   6.995   8.156   3.951  0.4011 -0.8870 -0.6124
   71MOL0     C 9454   7.130   8.178   3.950  0.2084  0.1008  0.4463
   71MOL0     C 9455   7.202   8.179   4.064  0.2300  0.5879  0.6613
   71MOL0     C 9456   7.336   8.199   4.065 -0.7497 -0.3322  1.4281
   71MOL0     C 9457   7.412   8.212   3.946  0.2980 -0.3204 -0.6106
   71MOL0     O 9458   7.552   8.222   3.953 -0.1776  0.5919 -0.4866
   71MOL0     C 9459   7.625   8.154   3.851  0.8903 -0.2884  0.7471
   71MOL0     C 9460   7.767   8.131   3.894  0.1123  0.9611 -0.3362
   71MOL0     C 9461   7.770   8.063   4.037 -0.8448 -0.7104  0.2950
   71MOL0     C 9462   7.699   7.928   4.054  0.2245 -0.2258  0.7235
   71MOL0     C 9463   7.704   7.880   4.205  0.3425  0.5754 -0.0244
   71MOL0     C 9464   7.620   7.971   4.296 -0.0124 -0.1786 -0.1993
   71MOL0     C 9465   7.629   7.927   4.441  0.6873 -0.3797  0.7172
   71MOL0     C 9466   7.544   8.028   4.528 -0.3269  0.2465 -0.2223
   71MOL0     N 9467   7.407   8.040   4.487  0.5690  0.5016 -0.4936
   71MOL0     C 9468   7.318   7.938   4.479  0.4275 -0.6440 -0.9331
   71MOL0     C 9469   7.201   7.998   4.423  0.1896 -0.7428 -0.2714
   71MOL0     C 9470   7.079   7.925   4.366  1.0602  0.2629 -0.6544
   71MOL0     C 9471   6.945   8.010   4.364  1.0412 -0.7926 -0.8370
   71MOL0     C 9472   6.845   7.964   4.249  1.3533 -0.1421  0.6043
   71MOL0     C 9473   6.801   7.817   4.270  0.1427 -0.5644 -0.3532
   71MOL0     O 9474   6.736   7.806   4.400  0.1267  0.3491 -0.5044
   71MOL0     C 9475   6.639   7.710   4.431  0.4861  0.8031 -0.3693
   71MOL0     C 9476   6.566   7.724   4.543 -0.7200 -0.8988 -0.1136
   71MOL0     C 9477   6.481   7.620   4.576 -0.2245 -0.0808 -0.3054
   71MOL0     C 9478   6.453   7.519   4.492 -0.6127  0.3568  0.1871
   71MOL0     C 9479   6.349   7.422   4.533  0.3744 -0.2333 -0.9163
   71MOL0     O 9480   6.318   7.322   4.455 -0.5435 -0.1490 -0.1208
   71MOL0     C 9481   6.227   7.229   4.497 -0.6277  1.1585  1.3143
   71MOL0     C 9482   6.091   7.248   4.503 -0.3401 -0.1211  0.2416
   71MOL0     C 9483   6.002   7.139   4.523  0.2361 -0.2941 -0.0812
   71MOL0     C 9484   6.057   7.008   4.542  1.2650 -0.0912 -0.1759
   71MOL0     O 9485   5.960   6.932   4.601  0.2864  0.3794  0.3906
   71MOL0     C 9486   5.981   6.808   4.671 -0.2511  0.1479 -0.1641
   71MOL0     C 9487   5.843   6.745   4.705  0.4544  0.0197 -0.6077
   71MOL0     C 9488   5.765   6.830   4.806  0.8104 -0.8093 -0.0925
   71MOL0     C 9489   5.647   6.750   4.867  0.1829  0.4361 -1.3077
   71MOL0     C 9490   5.520   6.749   4.784 -0.2212 -0.4598  0.4847
   71MOL0     C 9491   5.418   6.650   4.838  0.6619  0.1814  1.2665
   71MOL0     C 9492   5.297   6.641   4.755  0.1686  0.3860  0.5234
   71MOL0     C 9493   5.188   6.564   4.845 -0.8224 -0.5951  0.2474
   71MOL0    Cl 9494   5.239   6.393   4.860 -0.3377  0.2300  0.1467
   71MOL0     C 9495   6.193   6.983   4.516  0.7110 -0.4497  0.5912
   71MOL0     C 9496   6.286   7.089   4.492  0.8186  0.3735 -0.7666
   71MOL0     O 9497   6.299   7.446   4.644  0.4451  0.0274  0.0546
   71MOL0     C 9498   6.529   7.502   4.376 -0.4360  0.4253  0.8893
   71MOL0     C 9499   6.621   7.600   4.346 -0.0832 -0.4301 -0.7158
   71MOL0     N 9500   7.232   8.135   4.394 -0.0917 -0.2766 -1.0062
   71MOL0     N 9501   7.358   8.156   4.429 -0.7028  0.2312  0.3674
   71MOL0     C 9502   7.340   8.221   3.824 -0.1425  0.8384 -0.5493
   71MOL0     C 9503   7.200   8.195   3.828 -0.4950  0.8799  0.7627
   71MOL0     C 9504   6.795   8.048   3.843  0.1204 -0.5007 -0.4983
   71MOL0     C 9505   6.731   7.937   3.783  0.7897  0.0261  0.4512
   71MOL0     C 9506   6.593   7.923   3.782 -0.3752  0.4534 -0.2915
   71MOL0     C 9507   6.511   8.026   3.838 -0.1563  0.2847 -0.2284
   71MOL0     O 9508   6.376   8.029   3.859  0.2151 -0.3432 -0.2225
   71MOL0     C 9509   6.288   7.932   3.800  0.0563  0.0055 -0.0958
   71MOL0     C 9510   6.148   7.968   3.843  0.2253  0.0191 -0.0924
   71MOL0     C 9511   6.095   8.107   3.815  0.2251 -0.4466  0.5065
   71MOL0     C 9512   6.133   8.178   3.682  0.0413  0.3963 -0.1040
   71MOL0     C 9513   6.095   8.102   3.557 -0.5194  0.0083  0.0221
   71MOL0     C 9514   6.072   8.043   3.443  0.2551  1.0060  0.6345
   71MOL0     C 9515   6.572   8.140   3.884  0.0959 -0.7740 -0.2857
   71MOL0     C 9516   6.710   8.158   3.882  0.2055 -0.7707  0.4613
   71MOL0     C 9517   6.757   8.298   3.921 -0.1700 -0.1762 -0.3105
   71MOL0     H 9518   7.148   8.163   4.157 -3.5478  3.5502 -0.7253
   71MOL0     H 9519   7.389   8.189   4.159 -0.9827  2.1999  1.8997
   71MOL0     H 9520   7.579   8.059   3.822 -1.7411  1.3555 -0.8665
   71MOL0     H 9521   7.629   8.223   3.766 -0.5932  0.8038  1.5120
   71MOL0     H 9522   7.814   8.230   3.895 -0.3002  1.1663  1.0939
   71MOL0     H 9523   7.815   8.058   3.828  0.0943  0.8139 -0.1882
   71MOL0     H 9524   7.731   8.136   4.108  1.4124 -1.1329  2.0714
   71MOL0     H 9525   7.878   8.052   4.051 -0.8011  0.3563  0.9100
   71MOL0     H 9526   7.601   7.922   4.007  0.0641  1.9158  0.6671
   71MOL0     H 9527   7.756   7.856   3.995 -0.0909 -2.0994  2.5866
   71MOL0     H 9528   7.645   7.788   4.212 -1.4524  1.7207  0.5343
   71MOL0     H 9529   7.808   7.877   4.239  0.3345  2.2716  0.2223
   71MOL0     H 9530   7.653   8.075   4.286 -1.8516  0.6418  1.4578
   71MOL0     H 9531   7.514   7.971   4.266 -0.4470 -2.2756  1.1201
   71MOL0     H 9532   7.735   7.916   4.468  1.6129  2.1251 -1.5447
   71MOL0     H 9533   7.569   7.836   4.450 -0.5874  0.0639 -2.3535
   71MOL0     H 9534   7.534   8.001   4.634 -3.0249  0.2430 -0.4277
   71MOL0     H 9535   7.595   8.125   4.528 -0.7718  0.4868 -1.2381
   71MOL0     H 9536   7.337   7.840   4.522  0.7193  1.2032  3.6816
   71MOL0     H 9537   7.101   7.904   4.261  0.5539  4.0858 -1.6805
   71MOL0     H 9538   7.058   7.831   4.418 -1.4562 -0.5396 -2.8544
   71MOL0     H 9539   6.903   8.025   4.464  1.5913 -1.8274 -0.4373
   71MOL0     H 9540   6.970   8.110   4.328  0.8972 -0.7580 -0.8404
   71MOL0     H 9541   6.889   7.981   4.150  1.9415  0.7037  0.9923
   71MOL0     H 9542   6.757   8.029   4.245  0.1137 -1.7921  0.2445
   71MOL0     H 9543   6.887   7.750   4.262  0.1482 -0.5718 -0.2377
   71MOL0     H 9544   6.736   7.774   4.193  0.8790 -4.3554  0.9128
   71MOL0     H 9545   6.586   7.807   4.611  1.3228 -0.1027 -1.5857
   71MOL0     H 9546   6.436   7.628   4.675 -1.1415  2.5602 -0.8640
   71MOL0     H 9547   6.062   7.352   4.501  1.4258  0.4274  0.8007
   71MOL0     H 9548   5.905   7.183   4.545  1.1721  1.0643  1.5685
   71MOL0     H 9549   6.028   6.733   4.606 -0.3534 -1.5170  1.5943
   71MOL0     H 9550   6.035   6.825   4.764 -0.3552  2.6400 -0.4940
   71MOL0     H 9551   5.786   6.715   4.617  2.1595 -0.9793 -1.4131
   71MOL0     H 9552   5.860   6.652   4.760  0.8461 -0.6729 -1.8587
   71MOL0     H 9553   5.837   6.868   4.879  0.7748 -0.7625 -0.0823
   71MOL0     H 9554   5.734   6.925   4.762  1.1159 -0.2173  0.9452
   71MOL0     H 9555   5.620   6.791   4.965  1.0734 -1.8905 -0.0154
   71MOL0     H 9556   5.683   6.649   4.886 -0.3134  0.1059 -2.0718
   71MOL0     H 9557   5.544   6.714   4.683 -0.5315 -1.5148  0.7650
   71MOL0     H 9558   5.474   6.848   4.790  0.1602 -0.3587  2.3932
   71MOL0     H 9559   5.454   6.546   4.836 -2.1093 -0.8651 -0.5323
   71MOL0     H 9560   5.398   6.683   4.940  1.1527  3.9151  0.2955
   71MOL0     H 9561   5.310   6.586   4.661  0.1231  2.6991 -0.9132
   71MOL0     H 9562   5.267   6.743   4.730  4.7107  1.5914 -0.9338
   71MOL0     H 9563   5.185   6.615   4.941  0.3487 -2.0868  1.1227
   71MOL0     H 9564   5.091   6.566   4.794 -0.6008  0.1756 -0.1559
   71MOL0     H 9565   6.238   6.886   4.502 -0.2363 -0.5309 -2.7412
   71MOL0     H 9566   6.392   7.073   4.472  0.6968 -2.4543  0.4155
   71MOL0     H 9567   6.517   7.420   4.307  0.3832  1.6587 -0.7786
   71MOL0     H 9568   6.695   7.582   4.269  0.7733 -0.6929  0.1385
   71MOL0     H 9569   7.381   8.238   3.725 -1.6675  1.4854 -1.0923
   71MOL0     H 9570   7.155   8.193   3.729 -0.1671  0.6660  0.6176
   71MOL0     H 9571   6.790   7.853   3.747  2.9190  2.1700 -1.3590
   71MOL0     H 9572   6.566   7.825   3.745 -0.5215 -0.7561  2.7382
   71MOL0     H 9573   6.323   7.830   3.817 -0.6562 -0.3590 -0.7688
   71MOL0     H 9574   6.278   7.946   3.692 -0.3289 -1.1947 -0.2291
   71MOL0     H 9575   6.132   7.942   3.948 -2.6540  2.7549  0.3270
   71MOL0     H 9576   6.080   7.901   3.790 -0.1417 -1.0230  1.6370
   71MOL0     H 9577   6.144   8.181   3.879  0.5988 -0.1489 -0.1113
   71MOL0     H 9578   5.986   8.110   3.825 -0.1850 -2.2802 -2.2026
   71MOL0     H 9579   6.095   8.280   3.672 -0.8355  0.1240  0.3700
   71MOL0     H 9580   6.241   8.182   3.693 -0.0475  4.1443  0.9026
   71MOL0     H 9581   6.050   7.985   3.355  0.7791  2.8246 -0.7510
   71MOL0     H 9582   6.507   8.225   3.901 -0.1871 -1.4462  2.4609
   71MOL0     H 9583   6.681   8.376   3.930  0.3659  0.1289  2.4144
   71MOL0     H 9584   6.801   8.287   4.020 -2.0156 -4.1218  0.2777
   71MOL0     H 9585   6.836   8.342   3.859 -0.4776 -0.1775 -0.7074
   72MOL0     O 9586  10.366   3.391   0.150 -0.4264  0.4917  0.6585
   72MOL0     C 9587  10.295   3.488   0.182 -0.8488  0.6234  0.2286
   72MOL0     O 9588  10.329   3.589   0.274  0.3145  0.0607 -0.5744
   72MOL0     C 9589  10.422   3.562   0.373 -0.0077  0.1345 -0.6214
   72MOL0     C 9590  10.551   3.510   0.363  0.4576 -0.5028  0.5399
   72MOL0     C 9591  10.642   3.501   0.469  0.8762  0.2092  0.5551
   72MOL0     C 9592  10.610   3.549   0.596 -0.1737 -0.5405  0.3574
   72MOL0     O 9593  10.707   3.551   0.698  0.1499 -0.1537  0.0599
   72MOL0     C 9594  10.767   3.677   0.695  0.0926  0.4134 -0.3589
   72MOL0     C 9595  10.872   3.682   0.808 -0.7728 -0.6958  0.5857
   72MOL0     C 9596  10.959   3.799   0.778  0.8075 -0.2088 -0.1917
   72MOL0     C 9597  11.054   3.824   0.897 -0.2211  0.4411  0.3400
   72MOL0     C 9598  11.056   3.974   0.931  0.3535 -0.5111  0.6941
   72MOL0     C 9599  11.183   3.997   1.019  0.2054  0.4662 -0.5752
   72MOL0     C 9600  11.172   4.130   1.105  0.3780  0.8852  0.6647
   72MOL0     C 9601  11.284   4.150   1.192  0.3780 -0.0443 -0.6628
   72MOL0     N 9602  11.393   4.225   1.128 -0.4727 -0.2788  0.1489
   72MOL0     C 9603  11.416   4.357   1.143 -0.2616 -0.3564  0.1308
   72MOL0     C 9604  11.525   4.370   1.062 -0.0455 -0.7452 -0.2514
   72MOL0     C 9605  11.615   4.488   1.072  0.5788  0.9208  0.3600
   72MOL0     C 9606  11.612   4.569   0.952  0.2942  0.4137  0.1349
   72MOL0     C 9607  11.739   4.651   0.949 -0.0669  0.7857 -0.8138
   72MOL0     C 9608  11.745   4.762   1.056  0.0866 -0.5518  0.7862
   72MOL0     O 9609  11.805   4.717   1.181 -0.2275 -0.2872  0.3029
   72MOL0     C 9610  11.804   4.810   1.276 -1.1682 -0.3258 -0.1587
   72MOL0     C 9611  11.706   4.816   1.377 -0.7335  0.2512  0.4411
   72MOL0     C 9612  11.716   4.913   1.476  0.5854  0.3491  0.2709
   72MOL0     C 9613  11.832   4.987   1.497 -0.6544 -0.4912  0.4570
   72MOL0     C 9614  11.839   5.076   1.619  0.4736  0.3824 -0.6918
   72MOL0     O 9615  11.958   5.150   1.631 -0.0856 -0.7286  0.3002
   72MOL0     C 9616  11.988   5.228   1.740  0.2364  0.4008  0.9073
   72MOL0     C 9617  11.949   5.362   1.752  0.7552  0.4082  0.2295
   72MOL0     C 9618  11.987   5.444   1.850  0.0279  0.6802 -0.7366
   72MOL0     C 9619  12.079   5.403   1.949  0.7974 -0.3245 -0.4267
   72MOL0     O 9620  12.131   5.481   2.045 -0.1494  0.1203  0.5005
   72MOL0     C 9621  12.090   5.608   2.078 -0.1531  0.3258  0.8243
   72MOL0     C 9622  12.184   5.663   2.182 -0.5418  0.0717  0.8069
   72MOL0     C 9623  12.115   5.743   2.291  0.4300  0.1041  1.1228
   72MOL0     C 9624  12.220   5.800   2.386  0.4423 -0.0800  0.6702
   72MOL0     C 9625  12.180   5.921   2.471  0.1223  0.1187  1.0444
   72MOL0     C 9626  12.293   5.962   2.564 -0.2171  0.3596 -0.8888
   72MOL0     C 9627  12.246   6.075   2.649 -0.0654 -0.9936 -0.2674
   72MOL0     C 9628  12.340   6.111   2.769  0.5078 -0.4556 -0.3125
   72MOL0    Cl 9629  12.261   6.241   2.850  0.2877 -0.1139 -0.1205
   72MOL0     C 9630  12.124   5.273   1.945  0.5486  0.5684 -0.4960
   72MOL0     C 9631  12.070   5.187   1.842 -0.6091  0.0455 -0.0143
   72MOL0     O 9632  11.746   5.082   1.696 -0.4694 -0.1307 -0.4957
   72MOL0     C 9633  11.934   4.989   1.404  0.2098  1.0164  0.4945
   72MOL0     C 9634  11.918   4.899   1.286 -0.6360 -0.4214 -0.0881
   72MOL0     N 9635  11.570   4.245   1.008  0.7010  0.1191  0.4226
   72MOL0     N 9636  11.481   4.159   1.045 -0.0989 -0.8630  0.0681
   72MOL0     C 9637  10.481   3.602   0.612 -1.1540  0.3331  0.6038
   72MOL0     C 9638  10.390   3.621   0.501 -0.1647 -0.7281  1.0141
   72MOL0     C 9639  10.158   3.488   0.124 -0.7855  0.2628 -0.0388
   72MOL0     C 9640  10.081   3.606   0.134 -0.1153 -0.0789 -0.7503
   72MOL0     C 9641   9.960   3.619   0.068  0.7435 -0.0541 -0.9232
   72MOL0     C 9642   9.892   3.511   0.004 -0.1566  0.0608 -0.0891
   72MOL0     O 9643   9.776   3.533  -0.070 -0.1533 -0.2736 -0.0772
   72MOL0     C 9644   9.829   3.577  -0.206  0.3077  0.4485 -0.0074
   72MOL0     C 9645   9.786   3.730  -0.239  0.2794 -1.0958 -0.2665
   72MOL0     C 9646   9.649   3.770  -0.183  0.0549  0.4854  0.1059
   72MOL0     C 9647   9.608   3.915  -0.201  0.4149 -0.2909  0.4957
   72MOL0     C 9648   9.708   4.013  -0.156 -0.4730  0.6100  0.7433
   72MOL0     C 9649   9.792   4.101  -0.143  0.2804  0.6261 -0.5316
   72MOL0     C 9650   9.949   3.384   0.018 -0.2243 -0.3296  0.4632
   72MOL0     C 9651  10.084   3.375   0.064  0.3074  0.1452  0.2336
   72MOL0     C 9652  10.126   3.237   0.071 -0.5888  0.6387 -0.5053
   72MOL0     H 9653  10.573   3.478   0.262 -0.7455 -0.7173  0.3236
   72MOL0     H 9654  10.740   3.455   0.460  0.7238 -0.5068  2.2447
   72MOL0     H 9655  10.819   3.690   0.600 -0.1011  1.4308 -0.3329
   72MOL0     H 9656  10.689   3.752   0.712  0.1764  2.0776 -5.6215
   72MOL0     H 9657  10.941   3.598   0.808  0.9091  0.6051 -0.8511
   72MOL0     H 9658  10.822   3.688   0.906 -1.4936 -1.7864  0.3012
   72MOL0     H 9659  10.890   3.882   0.763 -2.6498 -2.1158  3.2499
   72MOL0     H 9660  11.016   3.781   0.686 -1.4223  0.8374 -1.8483
   72MOL0     H 9661  11.018   3.768   0.984 -2.9104 -0.6029 -1.3018
   72MOL0     H 9662  11.152   3.789   0.864 -0.1664 -0.2339  1.1835
   72MOL0     H 9663  11.054   4.026   0.835 -1.0110  0.2113  1.0800
   72MOL0     H 9664  10.965   4.008   0.981  1.0827  3.9030 -0.5876
   72MOL0     H 9665  11.187   3.913   1.089  2.8690  1.0811  0.1097
   72MOL0     H 9666  11.276   3.994   0.962  0.1630  0.8930 -0.6706
   72MOL0     H 9667  11.084   4.132   1.170  0.4603 -0.7838  0.8678
   72MOL0     H 9668  11.180   4.213   1.034  0.6748  0.2176 -0.0917
   72MOL0     H 9669  11.241   4.212   1.271  1.3303 -0.5339  0.2721
   72MOL0     H 9670  11.322   4.063   1.246 -1.7062  1.0796  2.9947
   72MOL0     H 9671  11.364   4.433   1.200  1.3723 -0.1081  1.3646
   72MOL0     H 9672  11.580   4.546   1.158  1.5836 -2.8830  3.6334
   72MOL0     H 9673  11.712   4.451   1.107 -0.4909 -2.4800  0.1216
   72MOL0     H 9674  11.627   4.498   0.870  0.2460  1.5418 -0.8653
   72MOL0     H 9675  11.524   4.628   0.926  0.3056 -0.5073 -2.2444
   72MOL0     H 9676  11.743   4.694   0.849  2.2146  0.6305 -0.8540
   72MOL0     H 9677  11.825   4.585   0.963 -1.0519 -0.8998 -2.3771
   72MOL0     H 9678  11.648   4.796   1.093 -0.2111 -2.1176  1.5190
   72MOL0     H 9679  11.808   4.845   1.021 -1.0870  0.3437  0.7170
   72MOL0     H 9680  11.611   4.766   1.362 -1.8525  2.4691 -0.4345
   72MOL0     H 9681  11.627   4.927   1.535 -0.6249 -1.6242 -0.9583
   72MOL0     H 9682  11.893   5.397   1.666 -0.3528 -0.3291  0.6206
   72MOL0     H 9683  11.951   5.546   1.839 -0.8978  0.1950 -2.6613
   72MOL0     H 9684  12.086   5.679   1.995 -1.6442  0.3196  0.8775
   72MOL0     H 9685  11.992   5.594   2.124 -1.6143 -0.9563 -2.3857
   72MOL0     H 9686  12.234   5.581   2.235 -0.6310  0.6049  1.7280
   72MOL0     H 9687  12.255   5.737   2.145  2.4788 -0.5864  4.6032
   72MOL0     H 9688  12.055   5.822   2.245 -2.1443 -0.4767  3.2492
   72MOL0     H 9689  12.044   5.679   2.344 -1.1831 -0.6802 -1.7768
   72MOL0     H 9690  12.309   5.826   2.329 -1.7809  4.1244 -1.3136
   72MOL0     H 9691  12.251   5.722   2.457  0.1758 -1.0827 -0.2778
   72MOL0     H 9692  12.092   5.892   2.529 -1.1279 -1.1314 -1.3138
   72MOL0     H 9693  12.148   6.002   2.405 -0.0967  0.4514  1.5548
   72MOL0     H 9694  12.316   5.873   2.623 -2.1296 -0.5331 -1.4045
   72MOL0     H 9695  12.387   5.986   2.513  1.9316 -2.0569  1.5853
   72MOL0     H 9696  12.153   6.037   2.691 -0.1483 -2.4922 -1.7047
   72MOL0     H 9697  12.226   6.162   2.585 -0.9714  1.0781  2.6210
   72MOL0     H 9698  12.349   6.030   2.843  0.4048  2.2184  2.8895
   72MOL0     H 9699  12.436   6.149   2.733  0.3483  0.5961  0.3217
   72MOL0     H 9700  12.184   5.230   2.024  1.5636 -1.7009 -2.3566
   72MOL0     H 9701  12.091   5.080   1.843  2.8953  0.5820 -0.9562
   72MOL0     H 9702  12.030   5.038   1.421  1.1009 -0.6259  0.3956
   72MOL0     H 9703  12.008   4.884   1.227 -0.9455  0.1130 -0.7051
   72MOL0     H 9704  10.444   3.639   0.706 -3.4085 -0.7426  0.2142
   72MOL0     H 9705  10.304   3.688   0.501 -0.0268 -0.2293 -3.9476
   72MOL0     H 9706  10.122   3.695   0.180 -1.3833 -0.6046  1.5741
   72MOL0     H 9707   9.927   3.721   0.052 -0.3427 -0.2929 -0.2943
   72MOL0     H 9708   9.800   3.510  -0.288 -1.7493  0.3332  0.7590
   72MOL0     H 9709   9.937   3.585  -0.217 -0.0563  5.3650 -3.0837
   72MOL0     H 9710   9.804   3.760  -0.342  2.3628  2.8431  1.0507
   72MOL0     H 9711   9.860   3.791  -0.186  0.0671 -0.2717 -0.8992
   72MOL0     H 9712   9.655   3.757  -0.075  3.0176  2.6554  0.3221
   72MOL0     H 9713   9.574   3.702  -0.226  0.9879  0.8262 -2.2267
   72MOL0     H 9714   9.603   3.938  -0.308  2.8833 -1.5597  0.0297
   72MOL0     H 9715   9.515   3.938  -0.150 -0.2469 -0.0435 -0.7738
   72MOL0     H 9716   9.863   4.179  -0.123 -2.3107  3.2341 -0.8634
   72MOL0     H 9717   9.902   3.295  -0.022 -0.8778 -0.0685  0.6237
   72MOL0     H 9718  10.062   3.170   0.129  1.3703 -3.1100 -2.2335
   72MOL0     H 9719  10.124   3.197  -0.031 -0.6905  4.1195 -1.9877
   72MOL0     H 9720  10.226   3.213   0.109 -0.3255  1.5099 -0.6243
   73MOL0     O 9721   0.842   9.070   0.976  0.1763 -0.0957  0.0408
   73MOL0     C 9722   0.833   9.120   1.088  0.5046  0.2111 -0.6545
   73MOL0     O 9723   0.929   9.128   1.182 -0.6816 -0.4914 -0.4049
   73MOL0     C 9724   1.063   9.135   1.142  0.0048 -0.1463  0.1357
   73MOL0     C 9725   1.124   9.014   1.098 -0.0436  0.2530 -0.3746
   73MOL0     C 9726   1.260   9.007   1.069 -0.4832 -0.3773 -0.2989
   73MOL0     C 9727   1.337   9.121   1.065  0.1577  0.7751  1.8113
   73MOL0     O 9728   1.469   9.103   1.018  0.0220 -0.0823  0.2189
   73MOL0     C 9729   1.542   9.233   1.002 -0.6356  0.8690 -0.2044
   73MOL0     C 9730   1.680   9.215   0.936 -1.4006  0.3742 -0.0242
   73MOL0     C 9731   1.776   9.144   1.024  0.7150 -0.2350 -0.3688
   73MOL0     C 9732   1.912   9.126   0.953 -0.1170  0.2965 -0.6170
   73MOL0     C 9733   2.014   9.040   1.038  0.3169  0.3796  0.0812
   73MOL0     C 9734   2.127   9.006   0.945 -0.6300 -0.4265 -0.2924
   73MOL0     C 9735   2.223   8.899   1.004 -0.3020 -0.7752  0.3049
   73MOL0     C 9736   2.325   8.844   0.903 -0.4837 -0.2686  0.0084
   73MOL0     N 9737   2.450   8.922   0.899  0.5003  0.5501  0.3006
   73MOL0     C 9738   2.478   9.043   0.841 -0.1094 -0.4337  0.1905
   73MOL0     C 9739   2.606   9.066   0.868 -0.6635  0.6248  0.6348
   73MOL0     C 9740   2.665   9.199   0.819  0.5381  0.2049 -0.2685
   73MOL0     C 9741   2.811   9.206   0.866 -0.3571  0.2952  0.1829
   73MOL0     C 9742   2.833   9.269   1.006 -0.2414 -0.2903  0.0485
   73MOL0     C 9743   2.978   9.243   1.067  0.0233  0.3499  0.4062
   73MOL0     O 9744   3.018   9.341   1.157 -0.1859 -0.4960  0.4514
   73MOL0     C 9745   2.964   9.339   1.280  0.9686  0.7141 -0.2617
   73MOL0     C 9746   2.993   9.232   1.368  0.6799 -0.3274  0.4187
   73MOL0     C 9747   2.938   9.232   1.493  0.0946  0.1939 -0.4929
   73MOL0     C 9748   2.843   9.324   1.531  0.2463 -0.9539  1.4515
   73MOL0     C 9749   2.781   9.325   1.663 -0.1439 -0.6393  0.4724
   73MOL0     O 9750   2.671   9.406   1.678 -0.2995 -0.7001  0.3883
   73MOL0     C 9751   2.596   9.425   1.790  0.0007 -0.5219  0.3996
   73MOL0     C 9752   2.595   9.334   1.903  0.1995 -0.4156 -0.0942
   73MOL0     C 9753   2.515   9.363   2.014  0.2528  0.4938  0.1469
   73MOL0     C 9754   2.431   9.475   2.025 -0.9002 -0.6223  0.8794
   73MOL0     O 9755   2.349   9.482   2.127 -0.1658 -0.3021 -0.8323
   73MOL0     C 9756   2.216   9.536   2.099  1.4934 -0.1928 -0.1506
   73MOL0     C 9757   2.131   9.537   2.231 -0.1069 -0.1174 -0.2725
   73MOL0     C 9758   2.178   9.640   2.338  0.2803 -0.3276 -0.0105
   73MOL0     C 9759   2.104   9.619   2.470 -0.6510 -0.3336  0.2655
   73MOL0     C 9760   2.117   9.744   2.550  0.5787 -0.7284  0.4136
   73MOL0     C 9761   2.020   9.742   2.670  0.0895 -1.1005  0.2765
   73MOL0     C 9762   2.008   9.870   2.752  0.9633  0.0390 -0.2158
   73MOL0     C 9763   1.918   9.853   2.876  0.2855 -0.3088  0.5177
   73MOL0    Cl 9764   1.918  10.018   2.959  0.3457  0.5053  0.2077
   73MOL0     C 9765   2.422   9.561   1.915 -0.8490 -0.7561  0.6548
   73MOL0     C 9766   2.507   9.537   1.806  0.0360 -0.4631  0.4453
   73MOL0     O 9767   2.839   9.258   1.749  0.0981 -0.3359 -0.1455
   73MOL0     C 9768   2.802   9.421   1.438 -0.6754  0.4220 -0.4879
   73MOL0     C 9769   2.869   9.434   1.313  1.2736 -0.1574  0.4983
   73MOL0     N 9770   2.663   8.949   0.924 -0.1915  1.0854  0.8410
   73MOL0     N 9771   2.567   8.869   0.949  0.3123 -0.9009  0.1502
   73MOL0     C 9772   1.276   9.242   1.102  0.6542  0.0349 -0.5615
   73MOL0     C 9773   1.143   9.249   1.148 -0.5884 -0.2725  0.6381
   73MOL0     C 9774   0.695   9.148   1.124 -0.3245 -0.1203 -0.3322
   73MOL0     C 9775   0.675   9.260   1.209  0.3730  0.1143 -0.3026
   73MOL0     C 9776   0.550   9.317   1.231 -0.1905  0.3276  0.4762
   73MOL0     C 9777   0.441   9.250   1.171 -0.0221  0.6280 -0.1461
   73MOL0     O 9778   0.324   9.313   1.203 -0.1832 -0.7314  0.3012
   73MOL0     C 9779   0.209   9.229   1.217  0.8091  0.4008  0.0229
   73MOL0     C 9780   0.129   9.268   1.343  0.6694  0.4439 -0.0012
   73MOL0     C 9781   0.058   9.401   1.333  0.5553  0.2746 -0.4437
   73MOL0     C 9782  -0.035   9.427   1.449 -1.0483  0.4974  0.5350
   73MOL0     C 9783  -0.044   9.580   1.459  0.1411  0.1217  0.3693
   73MOL0     C 9784  -0.080   9.699   1.475  0.0332  0.0249  0.5975
   73MOL0     C 9785   0.454   9.136   1.093 -0.3750 -0.6822  0.4267
   73MOL0     C 9786   0.580   9.078   1.077  0.0991 -1.1817 -0.8668
   73MOL0     C 9787   0.589   8.949   1.023 -0.3617 -0.5839 -1.0756
   73MOL0     H 9788   1.061   8.926   1.105 -1.1239  1.1364  2.7402
   73MOL0     H 9789   1.312   8.915   1.046  0.1981  0.0534 -0.5232
   73MOL0     H 9790   1.478   9.299   0.942 -0.0374  2.2981  0.6664
   73MOL0     H 9791   1.554   9.274   1.103  0.7038 -0.4503  0.2058
   73MOL0     H 9792   1.725   9.314   0.924  1.0042 -0.7677 -1.1939
   73MOL0     H 9793   1.675   9.170   0.836 -2.5730 -0.9458  0.5873
   73MOL0     H 9794   1.737   9.046   1.055  0.3233  0.7209  2.4354
   73MOL0     H 9795   1.783   9.208   1.112 -2.5135 -1.6502  1.0874
   73MOL0     H 9796   1.881   9.072   0.863  3.1185 -2.4354 -0.2769
   73MOL0     H 9797   1.959   9.218   0.916 -0.0158 -0.3375 -2.1083
   73MOL0     H 9798   2.037   9.094   1.130 -0.0297  0.5670  0.0587
   73MOL0     H 9799   1.969   8.941   1.055  3.8376 -1.4034 -0.0704
   73MOL0     H 9800   2.075   8.968   0.857 -0.4353  0.0438 -0.6131
   73MOL0     H 9801   2.181   9.097   0.916  2.0459 -1.4101  1.2149
   73MOL0     H 9802   2.156   8.819   1.037 -3.5979  1.9863  0.9030
   73MOL0     H 9803   2.280   8.937   1.089  0.2899 -1.6896  0.3291
   73MOL0     H 9804   2.354   8.743   0.931  1.8747  0.8565  2.0430
   73MOL0     H 9805   2.286   8.838   0.801 -1.1306  1.6422  0.1016
   73MOL0     H 9806   2.411   9.107   0.785 -1.1252 -0.1434  1.6914
   73MOL0     H 9807   2.641   9.208   0.713  2.1519 -2.3251 -0.9251
   73MOL0     H 9808   2.605   9.273   0.873  1.1710  0.1162  0.5815
   73MOL0     H 9809   2.856   9.107   0.860 -0.2696  0.2715  1.0763
   73MOL0     H 9810   2.869   9.263   0.793  0.2704 -1.8405 -1.0591
   73MOL0     H 9811   2.753   9.243   1.076 -1.1628 -0.9239 -1.1899
   73MOL0     H 9812   2.817   9.376   0.994 -0.0355 -0.2831 -0.1823
   73MOL0     H 9813   3.061   9.246   0.995  1.8211  0.7599  2.3949
   73MOL0     H 9814   2.986   9.145   1.115  0.9776 -0.3284 -1.0544
   73MOL0     H 9815   3.060   9.151   1.345 -0.6177 -0.8195 -1.9471
   73MOL0     H 9816   2.977   9.157   1.560 -4.1062 -2.1743 -0.3563
   73MOL0     H 9817   2.646   9.238   1.895 -2.0357 -1.6171 -0.5863
   73MOL0     H 9818   2.539   9.293   2.093  0.8432 -0.4874 -0.8796
   73MOL0     H 9819   2.227   9.642   2.072  1.7652  0.0081  0.7003
   73MOL0     H 9820   2.162   9.478   2.025  1.4608 -1.1430  0.5989
   73MOL0     H 9821   2.026   9.557   2.211 -0.0087  1.3867  0.5355
   73MOL0     H 9822   2.131   9.437   2.274 -1.5167  0.5213  1.3373
   73MOL0     H 9823   2.279   9.607   2.364  1.1300  0.5198 -1.9839
   73MOL0     H 9824   2.173   9.743   2.300 -0.3323 -0.8010 -1.2961
   73MOL0     H 9825   2.156   9.535   2.516 -0.0075 -0.6150 -0.9367
   73MOL0     H 9826   1.999   9.588   2.462 -0.5647 -1.3418  2.4665
   73MOL0     H 9827   2.073   9.821   2.486  0.7411 -0.1775  0.9489
   73MOL0     H 9828   2.218   9.761   2.589  0.3089 -0.3473  0.9596
   73MOL0     H 9829   1.925   9.706   2.630 -0.0954  0.7669 -1.1173
   73MOL0     H 9830   2.060   9.674   2.746 -0.8253  0.6204  2.4146
   73MOL0     H 9831   1.962   9.943   2.685 -1.2454 -0.0239  1.1252
   73MOL0     H 9832   2.106   9.911   2.780  1.6019 -0.5236 -1.5033
   73MOL0     H 9833   1.817   9.817   2.858 -0.6580  1.8641  1.2329
   73MOL0     H 9834   1.961   9.777   2.943 -0.2245 -1.1122 -0.0527
   73MOL0     H 9835   2.370   9.656   1.917  0.4443  0.0258 -0.9058
   73MOL0     H 9836   2.499   9.619   1.736 -0.7653 -1.3437 -0.5283
   73MOL0     H 9837   2.732   9.503   1.452  0.1486  1.2657 -1.2313
   73MOL0     H 9838   2.831   9.509   1.244 -2.0223 -0.8493  1.3760
   73MOL0     H 9839   1.328   9.337   1.110  0.1320  0.3754 -1.0842
   73MOL0     H 9840   1.100   9.339   1.192  1.1450  0.2374  1.3514
   73MOL0     H 9841   0.755   9.297   1.273  1.9536  0.3640 -2.3298
   73MOL0     H 9842   0.530   9.394   1.304 -0.5382  1.7179 -1.0088
   73MOL0     H 9843   0.239   9.125   1.231 -0.8680 -0.2518 -0.8905
   73MOL0     H 9844   0.142   9.243   1.132  1.2907 -2.7397 -0.9867
   73MOL0     H 9845   0.201   9.270   1.425  0.4218  1.7565  0.2138
   73MOL0     H 9846   0.056   9.188   1.356 -0.1401  1.2733  0.7176
   73MOL0     H 9847  -0.015   9.403   1.251  1.6355 -2.9661 -1.6400
   73MOL0     H 9848   0.137   9.476   1.330 -2.1905  3.4343 -0.0907
   73MOL0     H 9849  -0.134   9.383   1.435 -1.5451  1.2445  1.5469
   73MOL0     H 9850   0.006   9.399   1.547 -1.1508  4.6825  2.0049
   73MOL0     H 9851  -0.131   9.788   1.505  0.9562  0.4996  0.8082
   73MOL0     H 9852   0.364   9.091   1.051 -2.3687  2.8664  0.5170
   73MOL0     H 9853   0.602   8.950   0.914 -4.2716  0.0477 -1.6640
   73MOL0     H 9854   0.661   8.884   1.074  0.6820  0.3447 -1.3122
   73MOL0     H 9855   0.493   8.897   1.028  1.5166 -4.2881  0.4629
   74MOL0     O 9856   7.592  10.704   3.539 -0.4417 -0.1447 -0.8122
   74MOL0     C 9857   7.673  10.777   3.600  0.4628  0.2324 -0.0735
   74MOL0     O 9858   7.654  10.912   3.626 -1.0314 -0.1675 -0.1551
   74MOL0     C 9859   7.528  10.954   3.625 -0.0577  0.3582 -0.1240
   74MOL0     C 9860   7.499  11.078   3.568 -0.1024  0.0383 -0.0930
   74MOL0     C 9861   7.363  11.125   3.575  0.2400 -1.0867 -0.6208
   74MOL0     C 9862   7.255  11.048   3.622 -0.8553 -0.2007  0.4099
   74MOL0     O 9863   7.133  11.106   3.617  0.2311 -0.4423 -0.6212
   74MOL0     C 9864   7.019  11.048   3.685 -0.9272 -1.1805 -0.4852
   74MOL0     C 9865   6.888  11.135   3.687 -0.4350  0.1909 -0.6280
   74MOL0     C 9866   6.864  11.196   3.545  0.2818 -0.2219  0.4115
   74MOL0     C 9867   6.725  11.262   3.537 -0.1102 -0.5088  0.3167
   74MOL0     C 9868   6.698  11.308   3.398 -0.2867  0.0338 -0.6524
   74MOL0     C 9869   6.565  11.389   3.387 -0.5556  0.6557 -0.0399
   74MOL0     C 9870   6.538  11.451   3.243  0.3565  0.3879 -0.3980
   74MOL0     C 9871   6.551  11.347   3.136  0.3723  0.0815 -0.2300
   74MOL0     N 9872   6.455  11.235   3.146 -0.8650  0.2651 -0.2490
   74MOL0     C 9873   6.355  11.222   3.055 -0.3024  0.2810 -0.5078
   74MOL0     C 9874   6.306  11.098   3.077  1.0630  0.1862 -0.0420
   74MOL0     C 9875   6.169  11.050   3.033 -0.0322 -0.2436 -0.3609
   74MOL0     C 9876   6.134  10.907   3.092  0.6063  0.3257 -0.4897
   74MOL0     C 9877   5.975  10.903   3.080  0.5424 -0.7549  0.9467
   74MOL0     C 9878   5.923  10.783   3.162 -0.7208  0.1504 -0.6147
   74MOL0     O 9879   5.914  10.672   3.071  0.1167  0.2365 -0.4894
   74MOL0     C 9880   5.812  10.586   3.106  0.1350 -0.3869  0.1746
   74MOL0     C 9881   5.744  10.586   3.225  0.5469 -0.7550  0.3923
   74MOL0     C 9882   5.625  10.513   3.240 -0.3509 -0.3467 -0.6290
   74MOL0     C 9883   5.585  10.419   3.143  0.5277  0.2396  0.0224
   74MOL0     C 9884   5.454  10.343   3.161 -0.2470  1.5212 -0.5563
   74MOL0     O 9885   5.455  10.225   3.089 -0.0280  0.8581  0.3114
   74MOL0     C 9886   5.350  10.136   3.113  0.1247  0.7344  0.2932
   74MOL0     C 9887   5.288  10.100   3.237  0.4183  0.2248 -0.4296
   74MOL0     C 9888   5.170  10.021   3.233 -0.6230 -0.4574 -0.0023
   74MOL0     C 9889   5.119   9.970   3.110  1.4984  0.0872 -0.2557
   74MOL0     O 9890   5.005   9.885   3.114  0.5336  0.0368 -0.0443
   74MOL0     C 9891   4.909   9.902   3.217  0.4471  0.3576  0.6174
   74MOL0     C 9892   4.775   9.874   3.166  0.4493  0.0278  1.2661
   74MOL0     C 9893   4.779   9.756   3.072  0.7319  0.7638  0.5984
   74MOL0     C 9894   4.635   9.720   3.029  1.2759 -0.1232  0.1259
   74MOL0     C 9895   4.631   9.589   2.952  0.5052  0.3069 -0.6256
   74MOL0     C 9896   4.651   9.465   3.039 -0.9289  0.1894  0.5206
   74MOL0     C 9897   4.545   9.420   3.133 -0.5281 -0.5506 -0.7874
   74MOL0     C 9898   4.412   9.385   3.056  0.1461  0.1332 -0.1527
   74MOL0    Cl 9899   4.295   9.276   3.135 -0.1971 -0.3631 -0.0749
   74MOL0     C 9900   5.186  10.000   2.992  0.8355  1.4243  0.7079
   74MOL0     C 9901   5.295  10.085   2.991  0.7787 -0.2489 -0.1032
   74MOL0     O 9902   5.373  10.386   3.248  0.8092  0.2079  0.3360
   74MOL0     C 9903   5.674  10.402   3.035  0.4390  0.2584 -0.1268
   74MOL0     C 9904   5.789  10.479   3.018 -0.2922 -0.1049 -0.5963
   74MOL0     N 9905   6.388  11.032   3.177  0.4745  0.2795 -0.1055
   74MOL0     N 9906   6.480  11.120   3.208  0.1172  0.7339 -0.4277
   74MOL0     C 9907   7.284  10.923   3.671  0.0841  0.9650  0.0431
   74MOL0     C 9908   7.414  10.881   3.683  0.2198  0.4390  1.1762
   74MOL0     C 9909   7.813  10.725   3.622  0.0823 -0.2895  0.3877
   74MOL0     C 9910   7.912  10.764   3.541  0.1015  0.1374 -0.3651
   74MOL0     C 9911   8.038  10.702   3.569 -0.0149 -0.9555 -0.3419
   74MOL0     C 9912   8.053  10.602   3.661  0.1609  0.5852 -0.0329
   74MOL0     O 9913   8.171  10.536   3.700 -0.9612  0.3327 -0.0312
   74MOL0     C 9914   8.288  10.607   3.659 -0.5386 -0.5612  0.3886
   74MOL0     C 9915   8.419  10.556   3.720  0.0134 -0.0070  0.0485
   74MOL0     C 9916   8.454  10.413   3.673  0.1028 -0.3145  0.3831
   74MOL0     C 9917   8.598  10.379   3.705 -0.0083  0.1663  1.3573
   74MOL0     C 9918   8.710  10.464   3.671  0.2891  0.3798  0.4294
   74MOL0     C 9919   8.795  10.550   3.655 -0.0590  0.0379  0.2329
   74MOL0     C 9920   7.947  10.561   3.737 -0.2730  0.0837 -0.9625
   74MOL0     C 9921   7.825  10.630   3.725  0.3937 -0.5299 -0.3179
   74MOL0     C 9922   7.704  10.593   3.808 -0.5677 -0.3089 -0.9884
   74MOL0     H 9923   7.576  11.134   3.516  1.2675 -0.6634  1.0880
   74MOL0     H 9924   7.338  11.222   3.535  1.4352 -0.9200 -0.9893
   74MOL0     H 9925   6.999  10.958   3.626  1.5475 -1.5047 -0.9431
   74MOL0     H 9926   7.049  11.026   3.788 -0.8091  1.3052  0.0801
   74MOL0     H 9927   6.900  11.213   3.763 -0.3995 -0.4518  0.0356
   74MOL0     H 9928   6.798  11.076   3.704 -1.1931  1.5621  0.3279
   74MOL0     H 9929   6.878  11.119   3.469 -0.9684  2.2386 -2.4862
   74MOL0     H 9930   6.939  11.275   3.540 -0.7714  1.1228  3.3195
   74MOL0     H 9931   6.647  11.192   3.569 -3.1727  2.0588 -1.0465
   74MOL0     H 9932   6.725  11.352   3.599  1.5172  0.3814 -0.9260
   74MOL0     H 9933   6.783  11.360   3.353 -0.2321  2.4091  1.9234
   74MOL0     H 9934   6.685  11.216   3.341 -2.1679 -0.7566  0.9169
   74MOL0     H 9935   6.491  11.308   3.397  0.7526 -1.1296 -3.2652
   74MOL0     H 9936   6.562  11.469   3.462  0.5641  1.1469 -0.5080
   74MOL0     H 9937   6.607  11.535   3.227 -0.8025  1.7516  1.3753
   74MOL0     H 9938   6.435  11.488   3.245 -0.3328 -1.2923  2.5589
   74MOL0     H 9939   6.552  11.381   3.032  0.8052 -2.7759 -1.2425
   74MOL0     H 9940   6.652  11.310   3.155  1.0943  1.5866 -0.8989
   74MOL0     H 9941   6.315  11.300   2.992 -0.4410 -0.6229 -1.5632
   74MOL0     H 9942   6.097  11.120   3.078 -2.9051 -1.0336 -3.3020
   74MOL0     H 9943   6.159  11.055   2.924  0.1553 -0.6473 -0.3959
   74MOL0     H 9944   6.197  10.829   3.048  0.7505 -1.8527  3.2560
   74MOL0     H 9945   6.163  10.920   3.196 -1.0041  2.3662 -0.2321
   74MOL0     H 9946   5.944  10.888   2.976 -5.0976 -0.6981  2.2902
   74MOL0     H 9947   5.917  10.986   3.121  0.3422  0.2557 -1.2410
   74MOL0     H 9948   5.832  10.821   3.210  0.3808  4.6029 -1.5326
   74MOL0     H 9949   5.994  10.754   3.240  0.0190  2.0779 -0.5178
   74MOL0     H 9950   5.774  10.647   3.310  1.7671  1.5529 -1.5800
   74MOL0     H 9951   5.563  10.507   3.329  0.0911 -1.0242 -0.3605
   74MOL0     H 9952   5.326  10.135   3.333 -0.7214  0.8806 -0.1995
   74MOL0     H 9953   5.118  10.002   3.327  0.3787  0.8268  0.8615
   74MOL0     H 9954   4.937   9.825   3.289  2.0140  0.4645  0.1621
   74MOL0     H 9955   4.913  10.006   3.252  1.5103  0.3482  0.5567
   74MOL0     H 9956   4.706   9.847   3.246 -0.3950 -0.8984  0.2592
   74MOL0     H 9957   4.738   9.958   3.107  3.3292 -0.5884 -1.7110
   74MOL0     H 9958   4.835   9.780   2.981 -1.0346  2.0622 -0.2066
   74MOL0     H 9959   4.830   9.673   3.122 -0.3478  0.0859  0.6071
   74MOL0     H 9960   4.599   9.797   2.960  1.5167  0.3008  0.4678
   74MOL0     H 9961   4.564   9.712   3.112  0.0911 -2.8351 -1.0516
   74MOL0     H 9962   4.713   9.574   2.881  2.3093  1.9458  0.9734
   74MOL0     H 9963   4.533   9.588   2.903  0.2620 -2.4426 -0.2845
   74MOL0     H 9964   4.669   9.388   2.964 -1.7893  1.7334 -1.3337
   74MOL0     H 9965   4.748   9.479   3.090 -0.4644 -1.6725  0.2366
   74MOL0     H 9966   4.525   9.495   3.210 -2.7326 -1.2644 -0.5828
   74MOL0     H 9967   4.574   9.333   3.191  2.5404  1.1387  0.4896
   74MOL0     H 9968   4.359   9.476   3.027 -1.4845 -1.0338 -1.0333
   74MOL0     H 9969   4.446   9.333   2.967 -0.0789 -0.8971  0.3491
   74MOL0     H 9970   5.143   9.957   2.902  0.7095  1.0856  0.9285
   74MOL0     H 9971   5.365  10.118   2.915  0.1058  3.0162  0.5581
   74MOL0     H 9972   5.650  10.327   2.960  2.0025  0.9306 -1.3560
   74MOL0     H 9973   5.855  10.473   2.932  1.8049  0.3099  0.9118
   74MOL0     H 9974   7.206  10.864   3.718  2.4412 -1.4794  1.1427
   74MOL0     H 9975   7.442  10.783   3.721  0.7489 -1.9420 -4.3594
   74MOL0     H 9976   7.900  10.834   3.458 -1.0525 -3.0576 -3.1179
   74MOL0     H 9977   8.120  10.733   3.504 -0.4799 -0.7115 -0.8176
   74MOL0     H 9978   8.284  10.713   3.685  1.0962 -0.3254 -0.1747
   74MOL0     H 9979   8.294  10.605   3.549 -3.4897 -1.0661  0.1690
   74MOL0     H 9980   8.415  10.565   3.829 -1.7258 -0.0903  0.0210
   74MOL0     H 9981   8.501  10.610   3.672  2.7545 -3.0414  0.9886
   74MOL0     H 9982   8.444  10.405   3.564 -1.9347  1.2865  0.3817
   74MOL0     H 9983   8.392  10.337   3.721 -2.2906  1.4006  0.2198
   74MOL0     H 9984   8.613  10.361   3.812  3.5799 -0.3690  0.8693
   74MOL0     H 9985   8.624  10.291   3.645 -0.7304  0.9340 -0.1330
   74MOL0     H 9986   8.885  10.608   3.647  1.1461 -1.8149 -0.3702
   74MOL0     H 9987   7.961  10.481   3.809  0.8132  0.1345 -1.1107
   74MOL0     H 9988   7.724  10.513   3.880 -2.2658 -0.8632 -1.0918
   74MOL0     H 9989   7.670  10.686   3.854  4.6641  1.1905  0.4780
   74MOL0     H 9990   7.625  10.549   3.746 -1.4393 -0.3588  0.1179
   75MOL0     O 9991  10.337   8.350   7.646  0.5051  0.1549 -0.1791
   75MOL0     C 9992  10.271   8.295   7.733  0.2305  0.0746 -0.3665
   75MOL0     O 9993  10.142   8.301   7.747 -1.0351 -0.7390  0.2401
   75MOL0     C 9994  10.083   8.376   7.651 -0.3011 -0.6417 -0.3553
   75MOL0     C 9995  10.065   8.317   7.523  0.3862  0.4454 -0.8663
   75MOL0     C 9996  10.007   8.398   7.427  0.1718 -1.0904  0.6091
   75MOL0     C 9997   9.954   8.527   7.449  0.3607  1.4742  0.1171
   75MOL0     O 9998   9.897   8.612   7.359  0.3645  0.1829  0.3228
   75MOL0     C 9999   9.864   8.558   7.224 -0.4254  0.1927  0.5720
   75MOL0     C10000   9.775   8.649   7.150 -0.2837 -0.5435  0.7638
   75MOL0     C10001   9.856   8.762   7.070 -0.0157  0.1001 -0.1379
   75MOL0     C10002   9.964   8.832   7.138 -0.0394 -0.0642 -0.0572
   75MOL0     C10003   9.889   8.908   7.250 -0.7259  0.1578  0.1462
   75MOL0     C10004   9.988   8.978   7.349 -0.7211  0.0795 -0.0495
   75MOL0     C10005  10.003   8.911   7.484 -0.8887  0.5637  0.1746
   75MOL0     C10006  10.072   8.996   7.584  1.5352  0.0621 -0.0571
   75MOL0     N10007  10.073   8.926   7.718  0.2349  0.0221  0.1294
   75MOL0     C10008  10.146   8.823   7.754  0.7001  0.8978  0.4242
   75MOL0     C10009  10.102   8.796   7.882 -0.1269 -0.8447 -0.9532
   75MOL0     C10010  10.157   8.692   7.974  0.2869 -0.4940  0.1559
   75MOL0     C10011  10.303   8.717   8.001 -0.1660  0.1584 -0.7507
   75MOL0     C10012  10.320   8.827   8.104  0.2867  0.2082  0.5702
   75MOL0     C10013  10.473   8.855   8.128  0.2073  0.0209 -0.3137
   75MOL0     O10014  10.534   8.732   8.161 -0.0999  0.2671 -0.7936
   75MOL0     C10015  10.671   8.732   8.162  0.2659 -1.5030 -0.4508
   75MOL0     C10016  10.735   8.615   8.204  0.1967  0.7280  0.1821
   75MOL0     C10017  10.871   8.600   8.216  0.3031 -0.2685  0.5264
   75MOL0     C10018  10.957   8.701   8.176 -0.4525 -0.3938  0.0618
   75MOL0     C10019  11.105   8.678   8.169 -0.8346  0.1147  0.1523
   75MOL0     O10020  11.157   8.554   8.179  0.0081  0.4933 -0.1369
   75MOL0     C10021  11.293   8.546   8.149  0.0371 -0.3940  0.7106
   75MOL0     C10022  11.376   8.570   8.255  0.1700  1.2598 -0.3997
   75MOL0     C10023  11.515   8.557   8.229  0.3190 -0.1396 -0.0509
   75MOL0     C10024  11.568   8.517   8.104 -0.1850 -0.1927  0.0398
   75MOL0     O10025  11.701   8.504   8.053 -0.4023 -0.2439  0.2306
   75MOL0     C10026  11.797   8.525   8.159  0.3798 -0.6243 -0.3708
   75MOL0     C10027  11.935   8.510   8.092  0.8829  0.0406  0.0015
   75MOL0     C10028  11.974   8.370   8.077 -0.2902  0.8113  0.1368
   75MOL0     C10029  12.090   8.362   7.971  0.8892 -0.6348  0.2823
   75MOL0     C10030  12.225   8.413   8.037  0.7704  0.5950 -0.0243
   75MOL0     C10031  12.356   8.397   7.962 -0.1328 -0.4053 -0.2071
   75MOL0     C10032  12.476   8.466   8.028  0.2500  0.2255 -0.5660
   75MOL0     C10033  12.520   8.415   8.169 -0.2895  0.5516 -0.3627
   75MOL0    Cl10034  12.526   8.241   8.172  0.1395  0.2263 -0.5622
   75MOL0     C10035  11.472   8.487   8.009 -0.2711 -0.1389 -0.3065
   75MOL0     C10036  11.339   8.499   8.032  1.4053 -0.3580 -0.2555
   75MOL0     O10037  11.182   8.780   8.164  0.1563 -0.3352  0.2917
   75MOL0     C10038  10.898   8.829   8.135 -0.3471 -0.3029 -0.5927
   75MOL0     C10039  10.756   8.845   8.130 -1.3192 -0.1463  0.4970
   75MOL0     N10040  10.009   8.891   7.913 -0.0886  1.2175 -0.1701
   75MOL0     N10041   9.993   8.974   7.820  0.4591  0.3094 -0.4076
   75MOL0     C10042   9.952   8.566   7.577  0.1983 -0.4171 -0.6652
   75MOL0     C10043  10.021   8.498   7.681  0.1031 -0.6033  0.3129
   75MOL0     C10044  10.345   8.211   7.837 -0.0232  0.9572 -0.6008
   75MOL0     C10045  10.281   8.094   7.880  0.0185 -0.2126  0.0498
   75MOL0     C10046  10.341   8.020   7.981  0.4570  0.5096 -0.7201
   75MOL0     C10047  10.466   8.054   8.037  0.5609 -0.4532  0.0861
   75MOL0     O10048  10.525   7.972   8.127 -0.3483 -0.7791  0.3309
   75MOL0     C10049  10.514   8.017   8.266 -0.3380 -0.6427  0.7271
   75MOL0     C10050  10.655   7.998   8.327  0.4273  0.5892 -0.0110
   75MOL0     C10051  10.767   8.079   8.271 -0.8427  0.0524 -0.0420
   75MOL0     C10052  10.898   8.076   8.360 -0.3303  0.6330 -0.1817
   75MOL0     C10053  10.985   8.179   8.312 -0.1443 -0.1644 -0.6090
   75MOL0     C10054  11.067   8.255   8.280 -0.2340 -0.4409  0.4192
   75MOL0     C10055  10.534   8.154   7.974 -0.4594 -0.8490 -0.1261
   75MOL0     C10056  10.476   8.234   7.880 -0.0144  0.1746 -0.6089
   75MOL0     C10057  10.565   8.351   7.835  0.3096  0.0608 -0.1309
   75MOL0     H10058  10.107   8.222   7.492 -1.3178 -0.7901  0.3585
   75MOL0     H10059   9.992   8.362   7.326 -2.0366 -2.0560  1.2244
   75MOL0     H10060   9.951   8.519   7.170 -1.0260  1.4201 -1.4260
   75MOL0     H10061   9.805   8.467   7.237  0.1535 -1.2767 -4.6191
   75MOL0     H10062   9.700   8.684   7.220 -0.6570 -0.0892  0.1410
   75MOL0     H10063   9.713   8.601   7.074 -1.1189  0.4728  0.7978
   75MOL0     H10064   9.796   8.839   7.021  1.4257 -0.9741 -4.0246
   75MOL0     H10065   9.892   8.705   6.984 -1.3952 -5.2178  2.3644
   75MOL0     H10066  10.031   8.756   7.179  0.2580 -0.6882 -1.6070
   75MOL0     H10067  10.016   8.894   7.064  0.9727 -0.1106  0.5990
   75MOL0     H10068   9.818   8.983   7.215 -0.4506  1.0882  1.4705
   75MOL0     H10069   9.831   8.835   7.308  1.4319 -0.4934  1.6300
   75MOL0     H10070  10.087   9.000   7.307 -0.5122 -0.3650  0.2017
   75MOL0     H10071   9.940   9.073   7.372  1.5726  1.2708  0.1599
   75MOL0     H10072  10.057   8.817   7.476 -2.3386 -0.4498  1.5826
   75MOL0     H10073   9.898   8.888   7.505 -2.0714  0.1915 -4.8846
   75MOL0     H10074  10.165   9.040   7.547  0.9361 -0.0250 -1.7487
   75MOL0     H10075  10.002   9.077   7.607  0.8772 -0.9923  1.9399
   75MOL0     H10076  10.226   8.770   7.703  3.1544  3.1191  1.7089
   75MOL0     H10077  10.097   8.701   8.064  1.4292 -1.8753  1.0910
   75MOL0     H10078  10.143   8.590   7.937  0.8945 -0.3159 -0.5896
   75MOL0     H10079  10.350   8.627   8.040 -1.3011 -0.5166 -0.8975
   75MOL0     H10080  10.355   8.754   7.912  1.5274  2.3861  1.0381
   75MOL0     H10081  10.281   8.801   8.203  1.3734 -0.7431  0.7694
   75MOL0     H10082  10.269   8.917   8.069 -0.9144 -0.7529 -0.2420
   75MOL0     H10083  10.489   8.930   8.206 -0.0249 -1.5411  1.3279
   75MOL0     H10084  10.526   8.889   8.039  2.8025 -2.9083 -0.1065
   75MOL0     H10085  10.674   8.531   8.236  2.4197 -0.3146  1.9676
   75MOL0     H10086  10.906   8.502   8.248  0.5783 -0.0824  0.8062
   75MOL0     H10087  11.336   8.592   8.354 -1.8250  1.6787 -1.2465
   75MOL0     H10088  11.579   8.586   8.311  1.4145  3.2154 -1.8847
   75MOL0     H10089  11.779   8.624   8.201 -1.0283 -1.1460  0.3117
   75MOL0     H10090  11.785   8.455   8.242  0.5469  2.5396  2.5192
   75MOL0     H10091  11.930   8.563   7.996 -4.3214  2.5740  1.3368
   75MOL0     H10092  12.012   8.559   8.153  2.5487 -3.2165  0.7397
   75MOL0     H10093  12.004   8.323   8.171  0.0896 -4.6839 -2.3339
   75MOL0     H10094  11.885   8.318   8.040  0.5256 -0.3280 -0.2926
   75MOL0     H10095  12.072   8.429   7.886 -0.0583 -0.7944  0.3444
   75MOL0     H10096  12.102   8.257   7.944 -2.5391 -1.3439  1.1075
   75MOL0     H10097  12.235   8.373   8.139  1.7190  2.8835  0.8699
   75MOL0     H10098  12.207   8.521   8.042 -2.2399  0.2758 -1.6787
   75MOL0     H10099  12.376   8.290   7.957  1.2905 -0.1059 -1.5720
   75MOL0     H10100  12.351   8.439   7.861 -1.2974 -0.2271 -0.0967
   75MOL0     H10101  12.466   8.575   8.038  0.4476  0.0482  3.7751
   75MOL0     H10102  12.565   8.444   7.969 -0.2881 -0.1426 -1.2489
   75MOL0     H10103  12.618   8.456   8.196  0.5022 -0.6398 -1.3220
   75MOL0     H10104  12.451   8.453   8.245 -0.5622  1.5830 -1.0945
   75MOL0     H10105  11.523   8.444   7.924  0.6153 -3.4708  1.7208
   75MOL0     H10106  11.263   8.470   7.961  0.1011  0.3400  0.8157
   75MOL0     H10107  10.963   8.915   8.124 -0.2044 -0.4997 -1.3138
   75MOL0     H10108  10.720   8.944   8.104 -0.0709 -0.7557 -4.6064
   75MOL0     H10109   9.895   8.652   7.610  5.2219  3.3642 -0.6341
   75MOL0     H10110  10.006   8.536   7.781 -2.1119  1.6266 -0.7592
   75MOL0     H10111  10.194   8.055   7.827 -0.4109  0.6584  0.1122
   75MOL0     H10112  10.291   7.933   8.022 -0.5412  2.5855  2.8871
   75MOL0     H10113  10.445   7.946   8.313  0.1480 -2.7678 -1.5065
   75MOL0     H10114  10.470   8.115   8.284  1.0507 -0.1086  1.3477
   75MOL0     H10115  10.689   7.895   8.312 -0.1638  0.5304 -1.0378
   75MOL0     H10116  10.645   8.014   8.435  0.7268  3.3052 -0.3097
   75MOL0     H10117  10.728   8.181   8.264 -0.6302  0.2407  1.3594
   75MOL0     H10118  10.801   8.047   8.171 -1.2458  0.7539 -0.4073
   75MOL0     H10119  10.877   8.094   8.466  0.3233  0.8278 -0.0798
   75MOL0     H10120  10.947   7.981   8.337 -0.8357  0.6632 -1.5027
   75MOL0     H10121  11.151   8.317   8.255  0.7181 -1.7516  0.2283
   75MOL0     H10122  10.637   8.164   8.007 -0.7727 -1.5549  1.1125
   75MOL0     H10123  10.659   8.370   7.886  0.1848  1.8448 -0.5289
   75MOL0     H10124  10.588   8.343   7.728 -1.1728  2.7360 -0.7269
   75MOL0     H10125  10.523   8.451   7.841  4.4590  2.1082 -1.5800
   76MOL0     O10126  11.039  11.143   3.416  0.2282  0.5727 -0.5247
   76MOL0     C10127  10.931  11.142   3.477  0.5962 -1.1252 -0.6029
   76MOL0     O10128  10.908  11.071   3.588 -0.1219  0.3254 -0.5082
   76MOL0     C10129  10.995  10.965   3.617 -0.7030 -0.2032  0.0646
   76MOL0     C10130  10.970  10.840   3.564 -0.8818 -0.2269  0.6471
   76MOL0     C10131  11.066  10.742   3.586  1.6631  0.0603  0.4364
   76MOL0     C10132  11.184  10.772   3.666  0.1781  0.7559 -0.1251
   76MOL0     O10133  11.284  10.675   3.689 -0.6908  0.3455 -0.0169
   76MOL0     C10134  11.294  10.562   3.595  0.7785 -0.8068 -0.2075
   76MOL0     C10135  11.434  10.506   3.623 -1.3742  0.1977  0.3150
   76MOL0     C10136  11.555  10.584   3.561 -0.5981  0.7510  0.6747
   76MOL0     C10137  11.694  10.534   3.623 -0.1770 -0.7241  0.4775
   76MOL0     C10138  11.811  10.630   3.586  0.4300  0.9759 -0.2553
   76MOL0     C10139  11.947  10.582   3.631  0.0718 -0.0860  1.1863
   76MOL0     C10140  12.054  10.590   3.516  0.2052 -0.4427  0.3317
   76MOL0     C10141  12.197  10.560   3.562 -0.2773 -0.2282 -0.9085
   76MOL0     N10142  12.295  10.546   3.458  0.2542 -0.6010 -0.2805
   76MOL0     C10143  12.415  10.487   3.480 -0.8281 -0.2027  0.7486
   76MOL0     C10144  12.469  10.486   3.357 -0.3820  0.2339 -0.1179
   76MOL0     C10145  12.588  10.395   3.327  0.7753 -0.7126  0.3597
   76MOL0     C10146  12.713  10.467   3.267  0.0833  0.2802 -0.2881
   76MOL0     C10147  12.816  10.364   3.215 -0.0700 -0.1229 -1.1981
   76MOL0     C10148  12.943  10.436   3.171  0.8653 -1.1132  0.1986
   76MOL0     O10149  13.046  10.335   3.146  0.5607 -0.4225 -0.3212
   76MOL0     C10150  13.168  10.394   3.115  0.3634 -0.3579 -0.9182
   76MOL0     C10151  13.182  10.532   3.086  0.2983 -0.3919 -1.1499
   76MOL0     C10152  13.301  10.577   3.046  0.5668 -0.9219  0.6167
   76MOL0     C10153  13.415  10.489   3.035  0.5528  0.2719  0.0970
   76MOL0     C10154  13.545  10.538   2.987 -0.0219  0.0751  0.2632
   76MOL0     O10155  13.648  10.449   2.990 -0.0949 -0.4731 -0.6619
   76MOL0     C10156  13.762  10.486   2.926  1.1159 -0.2846  0.4593
   76MOL0     C10157  13.876  10.513   3.002  0.4366  1.3304 -0.0071
   76MOL0     C10158  14.003  10.557   2.952 -0.2223 -0.3653 -0.2802
   76MOL0     C10159  14.019  10.561   2.809  0.2118  0.0089  0.6580
   76MOL0     O10160  14.144  10.596   2.757 -0.4200  0.3989 -0.2740
   76MOL0     C10161  14.173  10.543   2.623 -0.0316 -0.6078 -0.6775
   76MOL0     C10162  14.167  10.385   2.621 -0.3518 -0.2394  0.1644
   76MOL0     C10163  14.267  10.320   2.719 -0.1140  0.2293 -0.4134
   76MOL0     C10164  14.240  10.169   2.736 -0.6615  1.0180  0.6455
   76MOL0     C10165  14.282  10.097   2.600 -0.2216 -0.2640 -0.3480
   76MOL0     C10166  14.265   9.935   2.622  0.2477  0.0818  0.1236
   76MOL0     C10167  14.298   9.869   2.491  0.2069 -0.0537  0.3323
   76MOL0     C10168  14.418   9.919   2.421  0.6392  0.0347  0.3083
   76MOL0    Cl10169  14.468   9.806   2.296 -0.1625  0.3607  0.1589
   76MOL0     C10170  13.908  10.534   2.728  0.4784  0.0572 -0.2451
   76MOL0     C10171  13.783  10.496   2.785 -0.5269  0.3700  0.5628
   76MOL0     O10172  13.549  10.644   2.944  0.3725  0.5171  0.5824
   76MOL0     C10173  13.405  10.363   3.076  0.5594 -0.7458 -0.4674
   76MOL0     C10174  13.277  10.315   3.104 -0.9977  0.7233  0.1306
   76MOL0     N10175  12.386  10.545   3.265  1.0760  0.3078 -0.2870
   76MOL0     N10176  12.277  10.579   3.332  0.2251 -0.5822  0.0322
   76MOL0     C10177  11.202  10.901   3.715  0.1994 -0.0236  0.0395
   76MOL0     C10178  11.109  10.999   3.686  0.4731 -0.4936  1.3223
   76MOL0     C10179  10.832  11.242   3.415  1.6823 -0.3846  0.6445
   76MOL0     C10180  10.867  11.338   3.321 -0.5718 -0.1780 -0.4354
   76MOL0     C10181  10.778  11.430   3.261  1.3584 -0.7157 -0.0108
   76MOL0     C10182  10.646  11.443   3.307 -0.3143  0.3913 -0.2089
   76MOL0     O10183  10.557  11.530   3.250  0.2400 -0.4356  0.1301
   76MOL0     C10184  10.501  11.621   3.348 -0.1168 -0.1749 -1.1848
   76MOL0     C10185  10.417  11.723   3.275  1.3336 -0.8040  0.1254
   76MOL0     C10186  10.293  11.651   3.209 -1.1417  0.8775 -1.3578
   76MOL0     C10187  10.206  11.590   3.321  0.1218  0.3018 -0.0241
   76MOL0     C10188  10.085  11.534   3.257 -0.2645 -0.6129  0.2652
   76MOL0     C10189   9.987  11.483   3.200 -0.1836  0.8915 -0.5400
   76MOL0     C10190  10.608  11.352   3.405  0.4136 -0.1992  0.2775
   76MOL0     C10191  10.687  11.249   3.456 -0.5659 -0.3317  0.8257
   76MOL0     C10192  10.618  11.145   3.537 -0.5618  0.2196 -0.8686
   76MOL0     H10193  10.880  10.828   3.504  0.3471 -3.1382 -0.8312
   76MOL0     H10194  11.042  10.655   3.527  0.1132  3.5332 -4.6742
   76MOL0     H10195  11.221  10.486   3.623 -0.2139  0.3380  0.4211
   76MOL0     H10196  11.269  10.595   3.494 -1.6447  0.5885  0.7618
   76MOL0     H10197  11.449  10.413   3.569  3.4184 -0.0971  1.6813
   76MOL0     H10198  11.448  10.496   3.731  0.0206 -0.2526  0.1169
   76MOL0     H10199  11.538  10.691   3.574  0.4471  1.6537 -3.6819
   76MOL0     H10200  11.579  10.572   3.455  0.7087  1.9252  0.7980
   76MOL0     H10201  11.676  10.529   3.731 -1.4799  2.1203  0.4868
   76MOL0     H10202  11.713  10.436   3.580  0.3533 -0.7163  0.6978
   76MOL0     H10203  11.805  10.643   3.478  0.2209 -0.9881 -0.5095
   76MOL0     H10204  11.790  10.733   3.619 -2.9802 -0.4178  2.5508
   76MOL0     H10205  11.972  10.638   3.722  1.7371  1.9283 -0.4213
   76MOL0     H10206  11.930  10.479   3.664 -2.7073 -0.4560 -1.0209
   76MOL0     H10207  12.058  10.687   3.466  0.5770 -2.0427 -2.9765
   76MOL0     H10208  12.020  10.515   3.443  0.2430 -0.5496  0.4231
   76MOL0     H10209  12.223  10.645   3.626  1.2191 -1.3364 -0.0025
   76MOL0     H10210  12.190  10.469   3.621 -2.0712 -0.2267 -1.0580
   76MOL0     H10211  12.448  10.438   3.572 -3.4059 -0.7060  1.4818
   76MOL0     H10212  12.608  10.342   3.420 -0.7583  1.5384  2.0623
   76MOL0     H10213  12.546  10.321   3.257 -0.3818 -0.4783  0.7876
   76MOL0     H10214  12.685  10.531   3.183  3.4661 -1.1218 -2.6867
   76MOL0     H10215  12.751  10.536   3.343  1.0194  0.7294 -1.1324
   76MOL0     H10216  12.773  10.308   3.132 -2.9166  0.3874 -0.1499
   76MOL0     H10217  12.840  10.303   3.302  0.5367  0.1301 -1.1796
   76MOL0     H10218  12.972  10.510   3.246  1.8427 -2.2432  0.9843
   76MOL0     H10219  12.927  10.482   3.074 -0.3762 -2.2061 -0.1438
   76MOL0     H10220  13.097  10.599   3.083  0.1506 -0.4673  0.4663
   76MOL0     H10221  13.308  10.679   3.007 -4.2296 -1.0675 -1.2201
   76MOL0     H10222  13.862  10.507   3.109 -2.2782  1.6663 -0.2894
   76MOL0     H10223  14.084  10.566   3.024 -2.5179 -0.4074  2.4960
   76MOL0     H10224  14.100  10.587   2.554 -0.8556  1.6838  1.4927
   76MOL0     H10225  14.273  10.584   2.605 -0.2566  1.0183  1.4756
   76MOL0     H10226  14.062  10.356   2.632 -0.0603 -1.1066  0.7765
   76MOL0     H10227  14.185  10.346   2.521  0.1535  2.5814 -0.9371
   76MOL0     H10228  14.373  10.336   2.698 -0.1715  1.1635 -0.0603
   76MOL0     H10229  14.252  10.359   2.821  1.8800  1.8727 -0.6928
   76MOL0     H10230  14.138  10.135   2.755 -0.9593 -0.1662 -2.4083
   76MOL0     H10231  14.309  10.141   2.816 -0.7968  0.5265  0.5924
   76MOL0     H10232  14.385  10.133   2.587  0.6090 -0.9063  3.2017
   76MOL0     H10233  14.217  10.135   2.521 -0.6599  2.2690  1.1213
   76MOL0     H10234  14.339   9.897   2.693 -0.5677 -1.0549  0.4078
   76MOL0     H10235  14.165   9.911   2.660  0.5039  1.3205  1.6613
   76MOL0     H10236  14.222   9.890   2.415  0.4895  1.3138  0.4107
   76MOL0     H10237  14.298   9.759   2.496 -1.6159 -0.0340  1.8327
   76MOL0     H10238  14.406  10.017   2.374  1.6743 -0.2266 -0.5254
   76MOL0     H10239  14.492   9.921   2.501  1.7849 -0.9592 -0.6929
   76MOL0     H10240  13.916  10.521   2.621  2.5005  2.1431 -0.4309
   76MOL0     H10241  13.697  10.491   2.719 -1.5633  1.9512  1.7210
   76MOL0     H10242  13.491  10.297   3.073  0.2595 -1.2904  1.6661
   76MOL0     H10243  13.272  10.207   3.114 -0.7005  0.4581 -2.2173
   76MOL0     H10244  11.286  10.923   3.780  0.8803 -1.3138 -0.3932
   76MOL0     H10245  11.112  11.098   3.731 -2.2568 -0.1217  0.8340
   76MOL0     H10246  10.967  11.341   3.279  0.9643  0.2669  2.8998
   76MOL0     H10247  10.805  11.501   3.184 -2.5132  1.3835  0.2820
   76MOL0     H10248  10.576  11.671   3.410 -2.1344  1.1593  0.3008
   76MOL0     H10249  10.439  11.576   3.425  0.0399  1.0158 -0.3433
   76MOL0     H10250  10.480  11.761   3.194  0.2795  0.4212 -0.1578
   76MOL0     H10251  10.382  11.808   3.334  1.8354  0.5818 -1.4794
   76MOL0     H10252  10.326  11.579   3.134 -2.2171  0.3013 -1.2855
   76MOL0     H10253  10.228  11.726   3.164 -2.5936  2.3407  2.6771
   76MOL0     H10254  10.262  11.509   3.368  2.4680  2.4650  1.1692
   76MOL0     H10255  10.168  11.661   3.395  0.8938  2.3793 -1.5122
   76MOL0     H10256   9.892  11.449   3.162 -0.9023  1.5995  0.5661
   76MOL0     H10257  10.506  11.355   3.442  0.8650  0.8926  1.5119
   76MOL0     H10258  10.663  11.149   3.636 -1.6500  2.4842 -0.3955
   76MOL0     H10259  10.509  11.152   3.545 -0.7690 -3.2340  0.8350
   76MOL0     H10260  10.637  11.041   3.510  0.0178  0.1448 -0.1993
   77MOL0     O10261   2.940  10.620   3.828 -0.0174  0.0232 -0.3821
   77MOL0     C10262   2.904  10.532   3.912  0.5718  0.4787 -0.1730
   77MOL0     O10263   2.991  10.434   3.962 -0.7914 -0.0292  0.6139
   77MOL0     C10264   3.095  10.383   3.892 -0.4363  0.2796 -0.4015
   77MOL0     C10265   3.085  10.359   3.756  0.3064  0.4361 -0.3001
   77MOL0     C10266   3.187  10.286   3.686  0.3072  0.3628  0.0901
   77MOL0     C10267   3.315  10.263   3.741  0.3773  0.8263  0.9494
   77MOL0     O10268   3.421  10.211   3.669  0.2128 -0.0652  0.0703
   77MOL0     C10269   3.391  10.121   3.564  0.0285 -0.2598 -0.9264
   77MOL0     C10270   3.528  10.077   3.498  0.1593 -0.2874  0.3450
   77MOL0     C10271   3.525   9.927   3.444 -0.0746 -0.3564  0.1781
   77MOL0     C10272   3.526   9.823   3.567  0.1578 -0.2844  0.1355
   77MOL0     C10273   3.498   9.675   3.522 -0.0969  0.0090  0.4392
   77MOL0     C10274   3.614   9.605   3.445  0.1903  0.0346  0.3671
   77MOL0     C10275   3.736   9.589   3.540 -0.7583 -0.2276  0.6275
   77MOL0     C10276   3.721   9.500   3.656  0.3168 -0.7572  0.2346
   77MOL0     N10277   3.852   9.444   3.692 -0.5494  0.0171 -0.1864
   77MOL0     C10278   3.933   9.476   3.799  0.0896 -0.3803  0.2215
   77MOL0     C10279   4.033   9.384   3.787  0.2636  0.0254  0.2075
   77MOL0     C10280   4.143   9.367   3.885  0.3890  0.6512 -0.2830
   77MOL0     C10281   4.252   9.474   3.886  0.1514 -0.5449 -0.8881
   77MOL0     C10282   4.346   9.451   4.007  0.3274 -0.1056  0.2175
   77MOL0     C10283   4.430   9.578   4.051  0.0257  0.5908  0.1707
   77MOL0     O10284   4.504   9.634   3.936 -0.1473  0.1464  0.1107
   77MOL0     C10285   4.646   9.658   3.948  0.6846  0.2638 -0.2689
   77MOL0     C10286   4.720   9.677   3.829  0.2035  0.8748 -0.5979
   77MOL0     C10287   4.859   9.709   3.826 -0.2314 -0.8774 -0.0174
   77MOL0     C10288   4.926   9.705   3.950  0.6929 -0.7434  0.1327
   77MOL0     C10289   5.070   9.725   3.973  0.1521  0.6385 -0.5650
   77MOL0     O10290   5.122   9.658   4.087  0.3585  0.1131  0.6832
   77MOL0     C10291   5.259   9.642   4.112  0.7121 -0.0778  1.0402
   77MOL0     C10292   5.295   9.550   4.217  0.3381  0.3668  0.4309
   77MOL0     C10293   5.430   9.541   4.252  0.5473  0.1559  0.3073
   77MOL0     C10294   5.536   9.617   4.196  0.9503 -0.8107  0.8634
   77MOL0     O10295   5.660   9.595   4.243  0.6405 -0.1393 -0.3958
   77MOL0     C10296   5.760   9.671   4.166  1.0191 -0.0315 -0.2362
   77MOL0     C10297   5.901   9.614   4.182 -0.4686  0.4453 -0.4993
   77MOL0     C10298   5.935   9.592   4.326  0.1476  1.0215 -0.0205
   77MOL0     C10299   6.081   9.533   4.322 -0.7725 -0.4901 -0.4911
   77MOL0     C10300   6.197   9.627   4.290  0.5219 -0.1536 -0.4883
   77MOL0     C10301   6.323   9.557   4.328  0.1160  0.6021 -0.8422
   77MOL0     C10302   6.442   9.659   4.333  0.7337 -0.0804 -0.3034
   77MOL0     C10303   6.441   9.754   4.456 -0.0866 -0.5922  0.3479
   77MOL0    Cl10304   6.593   9.859   4.457  0.1582  0.0403  0.2597
   77MOL0     C10305   5.496   9.714   4.097 -0.8675  0.8447 -0.1861
   77MOL0     C10306   5.363   9.722   4.053  0.1857 -0.9990  0.2147
   77MOL0     O10307   5.128   9.808   3.907 -0.9276 -0.1155 -0.3869
   77MOL0     C10308   4.846   9.688   4.076 -0.6450  0.0616  0.1368
   77MOL0     C10309   4.708   9.665   4.070 -0.8776 -0.0494  0.1897
   77MOL0     N10310   4.009   9.303   3.682 -0.1877  0.5320 -0.1843
   77MOL0     N10311   3.906   9.339   3.622 -0.5009  0.0371 -0.0039
   77MOL0     C10312   3.322  10.297   3.873 -0.1190  0.6555 -0.0853
   77MOL0     C10313   3.215  10.349   3.951 -0.7260  0.4583 -0.1046
   77MOL0     C10314   2.768  10.524   3.966 -0.3466  0.2575  0.3465
   77MOL0     C10315   2.675  10.440   3.892  0.1834 -0.2090 -0.2441
   77MOL0     C10316   2.544  10.419   3.937  0.0482 -0.5652 -0.3842
   77MOL0     C10317   2.495  10.484   4.054  0.0396 -0.3004 -0.3965
   77MOL0     O10318   2.365  10.450   4.105 -0.1850  0.3758  0.5839
   77MOL0     C10319   2.309  10.316   4.094  0.3762 -0.1571  0.6018
   77MOL0     C10320   2.168  10.320   4.034 -0.0043 -0.4443 -0.1943
   77MOL0     C10321   2.173  10.339   3.880  0.0201  0.1478  0.7801
   77MOL0     C10322   2.222  10.210   3.815 -0.2921  0.5121  0.5436
   77MOL0     C10323   2.208  10.222   3.670 -0.7055 -0.0214  0.2860
   77MOL0     C10324   2.180  10.221   3.553 -0.0256 -0.6209  0.2324
   77MOL0     C10325   2.588  10.570   4.123 -0.2554  1.1876  0.1423
   77MOL0     C10326   2.718  10.596   4.076 -0.0837 -0.2433  0.8889
   77MOL0     C10327   2.810  10.689   4.153  0.5327  1.0442 -0.5225
   77MOL0     H10328   2.995  10.383   3.701  0.2043 -1.8641 -1.2658
   77MOL0     H10329   3.168  10.264   3.582 -1.3954  2.7566 -0.1657
   77MOL0     H10330   3.332  10.036   3.601  1.2008 -0.4490  0.6364
   77MOL0     H10331   3.346  10.181   3.485  2.7202  2.5598 -0.5002
   77MOL0     H10332   3.602  10.078   3.578  0.6479 -0.8301 -0.0920
   77MOL0     H10333   3.551  10.144   3.415  0.1678 -1.8133 -0.9261
   77MOL0     H10334   3.607   9.904   3.374  0.4733 -1.5244  1.1609
   77MOL0     H10335   3.436   9.914   3.383 -0.3820  1.3408  0.2219
   77MOL0     H10336   3.613   9.826   3.634  0.6992  0.0914 -0.5785
   77MOL0     H10337   3.437   9.847   3.626 -0.3194 -2.2615  0.2977
   77MOL0     H10338   3.469   9.609   3.605  1.6063 -0.4361  0.7263
   77MOL0     H10339   3.411   9.685   3.457 -0.6982  0.8591  1.3416
   77MOL0     H10340   3.590   9.508   3.403  1.3195 -1.1455  2.2960
   77MOL0     H10341   3.636   9.668   3.359  0.5852  0.4400  0.7558
   77MOL0     H10342   3.768   9.688   3.573  0.7121 -1.0233  1.6932
   77MOL0     H10343   3.821   9.549   3.484 -1.4225 -0.5642 -0.1577
   77MOL0     H10344   3.665   9.551   3.735 -1.8412 -0.3317 -1.4683
   77MOL0     H10345   3.659   9.412   3.636 -0.2153 -0.7320  1.6605
   77MOL0     H10346   3.916   9.547   3.879 -2.7719 -2.3769  1.5596
   77MOL0     H10347   4.089   9.374   3.979 -0.3173  3.4186 -0.7949
   77MOL0     H10348   4.193   9.270   3.889 -1.4404 -0.3070 -0.0305
   77MOL0     H10349   4.308   9.470   3.792  1.8452  1.4741 -0.0371
   77MOL0     H10350   4.213   9.575   3.899  1.4722  0.0891 -1.7022
   77MOL0     H10351   4.422   9.375   3.987 -0.2620 -1.2702  2.1524
   77MOL0     H10352   4.285   9.420   4.092  1.4604 -3.9649 -0.1912
   77MOL0     H10353   4.503   9.554   4.128  0.2049  1.3483  0.2429
   77MOL0     H10354   4.371   9.663   4.085  0.8443  1.9225 -1.5925
   77MOL0     H10355   4.671   9.663   3.733  0.4400 -0.9044 -0.4927
   77MOL0     H10356   4.909   9.725   3.732 -3.0091 -1.1235 -1.6615
   77MOL0     H10357   5.215   9.490   4.259  0.9031 -1.2912 -0.7313
   77MOL0     H10358   5.460   9.471   4.329 -1.6757 -2.4541 -1.0190
   77MOL0     H10359   5.735   9.675   4.060 -1.1559 -3.4093  0.0092
   77MOL0     H10360   5.756   9.773   4.207 -2.6514  0.6854 -1.9608
   77MOL0     H10361   5.930   9.524   4.127 -0.6651 -0.5516  0.9669
   77MOL0     H10362   5.959   9.693   4.134 -0.2390  0.6745  0.1439
   77MOL0     H10363   5.930   9.682   4.388  2.1987  1.1597  0.0027
   77MOL0     H10364   5.876   9.513   4.375  1.0470 -0.3784 -1.1044
   77MOL0     H10365   6.085   9.450   4.250 -0.6020 -0.8828 -0.0304
   77MOL0     H10366   6.097   9.486   4.419  0.3539 -1.5045 -1.1353
   77MOL0     H10367   6.180   9.717   4.351  2.0648  1.3574 -2.1694
   77MOL0     H10368   6.192   9.660   4.186  3.7295  1.3261 -0.2898
   77MOL0     H10369   6.320   9.511   4.427 -0.5648  0.0828 -1.0928
   77MOL0     H10370   6.358   9.476   4.263  0.8661 -0.3388  0.6756
   77MOL0     H10371   6.437   9.715   4.239 -1.2994 -0.5476 -0.5333
   77MOL0     H10372   6.536   9.604   4.331  1.4732  1.1581 -0.4616
   77MOL0     H10373   6.359   9.825   4.438  0.6849  0.6447  1.5599
   77MOL0     H10374   6.431   9.699   4.549 -1.4167  2.6229  2.2913
   77MOL0     H10375   5.554   9.798   4.059 -2.3112  2.1015  0.2859
   77MOL0     H10376   5.344   9.805   3.985  0.3058 -1.4295 -0.3527
   77MOL0     H10377   4.886   9.682   4.177 -1.5901  0.7678  0.5631
   77MOL0     H10378   4.658   9.652   4.165 -1.4366  1.3356  0.1108
   77MOL0     H10379   3.416  10.270   3.922 -0.4874 -0.6191 -0.0457
   77MOL0     H10380   3.248  10.367   4.053  2.3433  0.3390 -0.9659
   77MOL0     H10381   2.709  10.387   3.804 -0.2441  0.6110 -0.9222
   77MOL0     H10382   2.473  10.361   3.878 -0.0357  1.7115 -2.6713
   77MOL0     H10383   2.304  10.276   4.196  1.6540 -1.1800  0.2883
   77MOL0     H10384   2.371  10.247   4.036 -2.0933  0.8992 -3.6291
   77MOL0     H10385   2.124  10.410   4.076  0.5790 -0.2980  0.1188
   77MOL0     H10386   2.113  10.227   4.053 -0.4025 -0.6200 -2.0207
   77MOL0     H10387   2.235  10.425   3.856 -0.2612 -0.1427 -1.1398
   77MOL0     H10388   2.070  10.364   3.854 -0.6315 -0.0442  2.9641
   77MOL0     H10389   2.330  10.199   3.825 -0.3337  0.6378  1.2094
   77MOL0     H10390   2.166  10.124   3.852 -1.1519  1.2804  1.0728
   77MOL0     H10391   2.152  10.233   3.451 -1.5715 -1.5499  0.5139
   77MOL0     H10392   2.554  10.618   4.215  1.2693  0.0314  1.3616
   77MOL0     H10393   2.855  10.641   4.241 -3.4600 -0.0566  1.1487
   77MOL0     H10394   2.889  10.731   4.090  0.4744  2.8919  0.5750
   77MOL0     H10395   2.742  10.769   4.184 -2.2749 -1.4185  0.2127
   78MOL0     O10396  11.068   7.328   8.216 -0.0030  0.1835 -0.7828
   78MOL0     C10397  11.028   7.441   8.210 -0.2310 -0.4324  0.0201
   78MOL0     O10398  11.097   7.546   8.154  0.4821  0.6829  0.2211
   78MOL0     C10399  11.196   7.512   8.066 -0.1545 -0.2730  0.5845
   78MOL0     C10400  11.206   7.591   7.945  0.8763 -0.3405 -0.5925
   78MOL0     C10401  11.309   7.583   7.859 -0.0058  0.3926  0.1909
   78MOL0     C10402  11.410   7.487   7.873  0.3316  0.2562 -0.2235
   78MOL0     O10403  11.517   7.460   7.782 -0.1217  0.6700  0.0043
   78MOL0     C10404  11.515   7.510   7.655 -0.0118  0.2685  0.0267
   78MOL0     C10405  11.644   7.459   7.581 -0.9340 -0.0913 -0.3884
   78MOL0     C10406  11.651   7.322   7.535 -0.1679  0.7428 -0.4976
   78MOL0     C10407  11.784   7.292   7.463  0.7101  0.6491  0.0605
   78MOL0     C10408  11.763   7.160   7.392 -0.6216 -0.6229  0.4810
   78MOL0     C10409  11.887   7.102   7.318  0.2168 -0.0880 -0.0241
   78MOL0     C10410  11.938   7.201   7.221  0.4004  0.1893 -0.7384
   78MOL0     C10411  12.007   7.147   7.098  0.3602 -0.8974 -0.0553
   78MOL0     N10412  12.137   7.079   7.137 -0.6328 -0.3265 -0.4973
   78MOL0     C10413  12.165   6.947   7.123 -0.3379  0.7264 -0.6233
   78MOL0     C10414  12.294   6.935   7.180 -0.7237  1.2846  0.7151
   78MOL0     C10415  12.368   6.802   7.183  0.6101 -0.7423 -0.3535
   78MOL0     C10416  12.420   6.757   7.044  0.3823 -0.2116  0.9935
   78MOL0     C10417  12.552   6.682   7.045  0.4611 -0.0962  0.4196
   78MOL0     C10418  12.548   6.556   7.131  0.2979  0.4392 -0.5874
   78MOL0     O10419  12.679   6.513   7.126 -0.4989  0.6901 -0.2865
   78MOL0     C10420  12.758   6.519   7.232 -0.1866 -0.2658 -0.9033
   78MOL0     C10421  12.881   6.575   7.214 -0.4993 -0.2131  0.6643
   78MOL0     C10422  12.979   6.579   7.314  0.2195 -0.5641  0.2770
   78MOL0     C10423  12.950   6.525   7.442  0.3573 -0.0672  0.1329
   78MOL0     C10424  13.061   6.508   7.539 -0.0389 -0.2949 -0.0361
   78MOL0     O10425  13.034   6.465   7.665  0.2202  0.0350  0.7494
   78MOL0     C10426  13.128   6.407   7.742 -0.5597 -0.1026  0.3384
   78MOL0     C10427  13.238   6.344   7.700 -0.5748 -0.5140 -0.5690
   78MOL0     C10428  13.334   6.296   7.792 -0.2861 -0.8859  0.8114
   78MOL0     C10429  13.314   6.297   7.930 -1.0037  0.4429 -0.3234
   78MOL0     O10430  13.412   6.248   8.014 -0.1270 -0.5727  0.4145
   78MOL0     C10431  13.374   6.121   8.059 -0.5848  0.5197 -0.1969
   78MOL0     C10432  13.508   6.065   8.113 -1.0441  0.1065 -0.1963
   78MOL0     C10433  13.618   6.044   7.995 -0.1315 -0.1709 -0.9727
   78MOL0     C10434  13.725   6.144   7.998 -0.9008 -0.4126 -0.1963
   78MOL0     C10435  13.830   6.113   7.887 -0.0096  0.1703 -0.1845
   78MOL0     C10436  13.954   6.200   7.927 -0.7430 -0.3867 -0.5593
   78MOL0     C10437  14.069   6.184   7.823 -0.6201  0.3515 -0.8127
   78MOL0     C10438  14.140   6.042   7.809 -0.7155 -0.6157  0.6336
   78MOL0    Cl10439  14.252   6.066   7.673 -0.0060 -0.4856 -0.0132
   78MOL0     C10440  13.196   6.353   7.975  0.0171 -0.5342  0.6450
   78MOL0     C10441  13.107   6.408   7.879  0.5536 -0.4081 -0.3352
   78MOL0     O10442  13.175   6.536   7.495  0.5765  0.7972 -0.2084
   78MOL0     C10443  12.825   6.471   7.460 -0.9978 -0.2349  0.1966
   78MOL0     C10444  12.731   6.458   7.361  0.6394 -0.0737  0.4180
   78MOL0     N10445  12.345   7.060   7.227 -0.1285  0.0486  0.0213
   78MOL0     N10446  12.253   7.141   7.187  0.4808 -0.5529 -0.1020
   78MOL0     C10447  11.407   7.410   7.986  0.0854 -0.1715 -0.1939
   78MOL0     C10448  11.300   7.427   8.083  0.0175  0.1582  0.0981
   78MOL0     C10449  10.888   7.469   8.259  0.6241 -0.0157  0.3014
   78MOL0     C10450  10.821   7.372   8.334 -0.8806  0.9564 -0.0611
   78MOL0     C10451  10.687   7.400   8.383  0.4981 -0.1951  1.5105
   78MOL0     C10452  10.617   7.514   8.342 -0.2473  0.9721 -1.1023
   78MOL0     O10453  10.486   7.536   8.375 -0.0285 -0.2422 -0.6996
   78MOL0     C10454  10.393   7.428   8.367  0.0961 -0.3308 -0.2444
   78MOL0     C10455  10.250   7.470   8.379  0.0065 -1.1386  0.2906
   78MOL0     C10456  10.199   7.584   8.279 -2.0216  0.1681  0.6340
   78MOL0     C10457  10.253   7.562   8.139  0.9121 -0.0424 -0.1772
   78MOL0     C10458  10.206   7.443   8.073  0.6052  0.0235  1.2518
   78MOL0     C10459  10.196   7.332   8.021 -0.7040  1.2830 -0.8246
   78MOL0     C10460  10.682   7.601   8.266  0.0162 -1.5188  0.3609
   78MOL0     C10461  10.814   7.582   8.220 -0.3489 -0.6088 -0.1666
   78MOL0     C10462  10.858   7.675   8.109 -0.4488  0.0651  0.3601
   78MOL0     H10463  11.125   7.661   7.924  2.1354  0.3466 -3.6102
   78MOL0     H10464  11.304   7.645   7.769  0.8193 -0.6490 -0.5898
   78MOL0     H10465  11.424   7.489   7.598  0.8476  1.7643 -2.0107
   78MOL0     H10466  11.524   7.619   7.659  2.3337  0.2658 -2.6449
   78MOL0     H10467  11.731   7.484   7.642  1.4408  2.4653 -4.3706
   78MOL0     H10468  11.636   7.524   7.493 -0.2989  1.5613  0.7130
   78MOL0     H10469  11.564   7.304   7.472 -0.5589  0.1186  0.2027
   78MOL0     H10470  11.643   7.256   7.622  1.6606  0.6068 -0.3901
   78MOL0     H10471  11.795   7.376   7.394 -7.0327  0.3514 -2.4633
   78MOL0     H10472  11.865   7.280   7.536  2.5988  1.3593 -1.8128
   78MOL0     H10473  11.733   7.089   7.470  0.8247  1.6486  3.3212
   78MOL0     H10474  11.680   7.165   7.321 -3.1307 -0.2449  3.2267
   78MOL0     H10475  11.969   7.080   7.386 -0.4973 -2.5710  0.1413
   78MOL0     H10476  11.856   7.005   7.277 -0.3075  0.7165 -1.6434
   78MOL0     H10477  12.008   7.265   7.274  0.5948  0.2194 -1.0334
   78MOL0     H10478  11.855   7.261   7.182  0.9944  1.0033 -0.7525
   78MOL0     H10479  11.941   7.075   7.049  0.8270 -0.3524 -1.5584
   78MOL0     H10480  12.013   7.229   7.026 -1.5152 -1.8207 -1.3578
   78MOL0     H10481  12.101   6.866   7.090  1.1564 -1.5447  1.6753
   78MOL0     H10482  12.457   6.812   7.246  1.2139 -2.5001 -0.8615
   78MOL0     H10483  12.297   6.725   7.215  0.2969 -0.6423 -0.8076
   78MOL0     H10484  12.340   6.706   6.989  1.8587 -0.3299 -1.1630
   78MOL0     H10485  12.440   6.849   6.988  3.4356 -0.6211  1.2311
   78MOL0     H10486  12.633   6.747   7.079  1.2653 -0.8488 -0.0017
   78MOL0     H10487  12.577   6.647   6.944  2.2077 -0.6651  0.9971
   78MOL0     H10488  12.480   6.486   7.082 -1.5130  1.0617  0.9324
   78MOL0     H10489  12.513   6.563   7.234  0.1479 -0.1942 -0.5922
   78MOL0     H10490  12.901   6.610   7.113  3.5061 -7.5719 -1.9601
   78MOL0     H10491  13.071   6.627   7.284  0.6962 -1.4226  0.3462
   78MOL0     H10492  13.272   6.330   7.598  0.0949  0.3317 -0.4706
   78MOL0     H10493  13.428   6.253   7.760 -0.0304 -0.8236  1.4740
   78MOL0     H10494  13.297   6.108   8.136 -1.0385 -2.4901 -1.0121
   78MOL0     H10495  13.348   6.062   7.970 -0.9510  3.4848 -2.1949
   78MOL0     H10496  13.548   6.140   8.182 -0.1166  0.7547 -1.4079
   78MOL0     H10497  13.488   5.971   8.165  0.8292 -0.1794  0.0716
   78MOL0     H10498  13.667   5.947   8.005  0.8913  0.4681  0.9193
   78MOL0     H10499  13.564   6.041   7.901 -0.2375 -1.9730 -0.8886
   78MOL0     H10500  13.775   6.141   8.096  0.5146 -3.0743 -0.8870
   78MOL0     H10501  13.690   6.247   7.988  2.3494  0.9616  1.0790
   78MOL0     H10502  13.795   6.132   7.784 -0.1445 -2.7792 -0.7818
   78MOL0     H10503  13.858   6.008   7.885 -3.8241 -1.0881 -3.8303
   78MOL0     H10504  13.922   6.304   7.935  4.2072  1.4270 -1.1538
   78MOL0     H10505  13.990   6.171   8.026  1.0507  1.0900 -0.7285
   78MOL0     H10506  14.150   6.245   7.864  1.4146 -3.8337  2.1040
   78MOL0     H10507  14.027   6.235   7.736 -2.1946  2.6828  1.2206
   78MOL0     H10508  14.189   6.038   7.906 -2.5396  0.2374  1.6290
   78MOL0     H10509  14.060   5.968   7.798 -0.9393 -0.9263  3.6638
   78MOL0     H10510  13.169   6.377   8.078 -2.1859  2.3291 -0.4655
   78MOL0     H10511  13.020   6.457   7.922  0.7561  2.7798 -3.1969
   78MOL0     H10512  12.815   6.430   7.560  0.4898  1.4376  1.1047
   78MOL0     H10513  12.641   6.404   7.386 -0.0722  2.9433  6.0921
   78MOL0     H10514  11.490   7.344   8.013 -0.4812 -0.0386  2.1161
   78MOL0     H10515  11.298   7.386   8.184  5.3048  0.7111  0.7147
   78MOL0     H10516  10.871   7.278   8.357  0.9413  1.5992 -1.2450
   78MOL0     H10517  10.634   7.329   8.446  0.1179 -2.7497 -1.4360
   78MOL0     H10518  10.401   7.354   8.448 -1.5099  0.4932  0.7099
   78MOL0     H10519  10.399   7.388   8.265 -1.4290  3.0163 -1.8022
   78MOL0     H10520  10.242   7.504   8.483  0.5071  0.0062 -0.0263
   78MOL0     H10521  10.184   7.384   8.365  0.1359 -1.1195 -0.4903
   78MOL0     H10522  10.231   7.683   8.314 -0.6757  0.1119 -0.3591
   78MOL0     H10523  10.090   7.597   8.278 -1.7143  4.1205  0.6585
   78MOL0     H10524  10.228   7.651   8.081  0.1286 -0.3718 -0.3654
   78MOL0     H10525  10.362   7.561   8.139  1.0723  2.9425  2.0272
   78MOL0     H10526  10.186   7.227   8.003 -0.1490  1.3643 -1.6907
   78MOL0     H10527  10.629   7.693   8.242 -1.2125 -2.1996  0.3550
   78MOL0     H10528  10.911   7.616   8.034 -2.4876  1.6431 -2.5276
   78MOL0     H10529  10.775   7.712   8.048  0.6916  2.4423  0.1479
   78MOL0     H10530  10.910   7.767   8.137  1.8682 -1.2943  0.7462
   79MOL0     O10531   1.642   3.962   7.953  0.2289  0.2632 -0.4736
   79MOL0     C10532   1.583   3.908   7.860 -0.7893 -0.0726 -0.4219
   79MOL0     O10533   1.629   3.796   7.801 -0.0919  0.0736 -0.1404
   79MOL0     C10534   1.706   3.701   7.865  0.1606 -0.5211  0.1334
   79MOL0     C10535   1.837   3.717   7.878 -0.1707 -0.7062 -0.6137
   79MOL0     C10536   1.917   3.616   7.919 -0.0610 -0.0898 -0.0578
   79MOL0     C10537   1.862   3.492   7.958 -0.5650  0.3786 -0.6799
   79MOL0     O10538   1.936   3.385   8.007  0.2012 -0.2170  0.3415
   79MOL0     C10539   2.065   3.413   8.070 -0.2388  0.8385 -0.7441
   79MOL0     C10540   2.131   3.279   8.123  0.7540  0.9854  0.2004
   79MOL0     C10541   2.220   3.205   8.024  0.6917 -0.0845 -0.8602
   79MOL0     C10542   2.260   3.056   8.063  0.3201  0.1699  0.1556
   79MOL0     C10543   2.288   2.973   7.940  0.1289 -0.3337 -0.1248
   79MOL0     C10544   2.289   2.823   7.969 -0.4224 -0.2900 -0.5290
   79MOL0     C10545   2.341   2.721   7.878 -0.6823 -0.3296 -0.4878
   79MOL0     C10546   2.308   2.583   7.932 -0.0878  0.0259  0.4395
   79MOL0     N10547   2.357   2.473   7.837  0.0666  0.2898 -0.0936
   79MOL0     C10548   2.296   2.422   7.724  0.2039 -0.9784 -0.8913
   79MOL0     C10549   2.378   2.329   7.659  0.4498  0.4148 -0.0845
   79MOL0     C10550   2.367   2.242   7.543  0.6329 -0.1075 -0.2404
   79MOL0     C10551   2.226   2.185   7.530  0.3800 -0.3150  0.7780
   79MOL0     C10552   2.235   2.064   7.438  0.1625 -0.5190  0.5784
   79MOL0     C10553   2.101   1.991   7.422  0.3997 -0.9614  0.0917
   79MOL0     O10554   1.993   2.082   7.435 -0.4941  0.7509  1.0166
   79MOL0     C10555   1.861   2.061   7.392 -0.8900 -0.4843 -0.4789
   79MOL0     C10556   1.779   2.171   7.394 -0.2246 -0.6354  0.2866
   79MOL0     C10557   1.655   2.155   7.337  0.1219  0.5331  0.5569
   79MOL0     C10558   1.609   2.026   7.303 -0.5120  0.5741  0.6175
   79MOL0     C10559   1.475   2.013   7.244  0.1296 -0.0986 -0.3956
   79MOL0     O10560   1.410   1.896   7.238 -0.3977  0.3340 -0.5051
   79MOL0     C10561   1.292   1.873   7.175  0.8262 -0.3924  0.6341
   79MOL0     C10562   1.241   1.936   7.060 -0.6430  0.3045 -0.1731
   79MOL0     C10563   1.120   1.890   7.005  0.0634 -0.3448 -0.6306
   79MOL0     C10564   1.045   1.793   7.072  0.4428 -0.6623  0.1702
   79MOL0     O10565   0.917   1.767   7.020  0.0915  0.9856 -0.0408
   79MOL0     C10566   0.823   1.732   7.127 -0.5693  0.5287  1.0862
   79MOL0     C10567   0.686   1.737   7.059  0.8711 -0.0542 -0.1634
   79MOL0     C10568   0.679   1.641   6.941  0.4502 -0.2893 -0.0779
   79MOL0     C10569   0.540   1.620   6.879 -0.5848  0.5087  0.1437
   79MOL0     C10570   0.546   1.536   6.750  0.3727 -0.7813 -0.3751
   79MOL0     C10571   0.560   1.390   6.781 -0.6642  0.1700 -0.5508
   79MOL0     C10572   0.591   1.292   6.656 -0.6231  0.1134 -0.3333
   79MOL0     C10573   0.711   1.339   6.576  0.2160  0.6488 -0.0057
   79MOL0    Cl10574   0.868   1.315   6.669 -0.3554  0.0554  0.4240
   79MOL0     C10575   1.099   1.734   7.183 -0.0827  0.0376  0.2104
   79MOL0     C10576   1.222   1.772   7.234  0.0983  0.1265 -0.2605
   79MOL0     O10577   1.428   2.121   7.199  0.0802 -0.0705  0.2043
   79MOL0     C10578   1.702   1.918   7.283 -0.0967 -0.0151  0.8703
   79MOL0     C10579   1.828   1.937   7.337  0.5105  0.2716  0.2573
   79MOL0     N10580   2.488   2.321   7.748 -0.6377  0.5620  0.0535
   79MOL0     N10581   2.479   2.407   7.848  0.6980 -0.0542  0.8286
   79MOL0     C10582   1.729   3.475   7.947 -0.3701  0.0692 -0.5347
   79MOL0     C10583   1.649   3.579   7.906 -0.2416 -0.6538 -0.3639
   79MOL0     C10584   1.476   3.972   7.788 -0.1764 -0.0481  0.3120
   79MOL0     C10585   1.438   3.919   7.656 -0.1737 -0.0720  0.4556
   79MOL0     C10586   1.344   3.985   7.573 -0.5457  0.3518  0.4044
   79MOL0     C10587   1.271   4.088   7.626  0.5168 -1.3817 -0.2936
   79MOL0     O10588   1.166   4.160   7.562 -0.0473  0.1238 -0.3057
   79MOL0     C10589   1.144   4.137   7.423 -0.2554  0.5132 -0.8097
   79MOL0     C10590   1.240   4.217   7.340 -0.9178  0.1557  0.2189
   79MOL0     C10591   1.195   4.255   7.198  1.1489  0.2326 -0.8799
   79MOL0     C10592   1.271   4.185   7.096  0.4284  0.7280 -0.5496
   79MOL0     C10593   1.247   4.039   7.094  0.3847 -0.5249 -0.8533
   79MOL0     C10594   1.230   3.922   7.085  0.3672  0.0328 -0.4760
   79MOL0     C10595   1.290   4.126   7.757  0.7717  0.4906 -1.0295
   79MOL0     C10596   1.388   4.068   7.841  0.8059  0.3323 -0.9852
   79MOL0     C10597   1.401   4.117   7.987 -0.0095 -0.7423 -0.6599
   79MOL0     H10598   1.881   3.811   7.845 -0.4249 -0.7109 -0.9736
   79MOL0     H10599   2.024   3.634   7.923 -0.0295  0.0235 -1.2662
   79MOL0     H10600   2.130   3.464   7.998 -1.1649  2.7875 -0.2923
   79MOL0     H10601   2.049   3.475   8.159 -0.8059 -1.4982  0.8520
   79MOL0     H10602   2.051   3.214   8.157  1.3275  0.5522  0.7490
   79MOL0     H10603   2.184   3.307   8.214 -1.0074  1.6118  1.0738
   79MOL0     H10604   2.306   3.271   8.010  0.4841  0.5335  0.6199
   79MOL0     H10605   2.176   3.198   7.924  1.0840 -1.0408 -0.9758
   79MOL0     H10606   2.349   3.055   8.126  2.7967 -1.9237 -3.0128
   79MOL0     H10607   2.173   3.016   8.117 -0.1782 -0.3667 -1.0005
   79MOL0     H10608   2.223   2.994   7.854  0.8241 -1.2754 -0.9041
   79MOL0     H10609   2.385   3.008   7.903 -0.6869  1.2689 -0.8573
   79MOL0     H10610   2.346   2.794   8.057 -2.7440 -4.9063 -0.2148
   79MOL0     H10611   2.189   2.794   8.004 -0.0936 -3.7047 -2.0062
   79MOL0     H10612   2.449   2.740   7.876 -0.7293  0.3879  1.5654
   79MOL0     H10613   2.303   2.724   7.776 -0.0753  0.0413 -0.7151
   79MOL0     H10614   2.358   2.564   8.027  2.1758  1.3928 -0.4102
   79MOL0     H10615   2.200   2.578   7.947 -0.5918  0.1587 -2.4730
   79MOL0     H10616   2.193   2.441   7.699 -1.4998 -3.6673  3.0169
   79MOL0     H10617   2.392   2.285   7.446 -2.2789 -1.0134 -1.5118
   79MOL0     H10618   2.435   2.157   7.555  2.7449  1.3699 -1.0768
   79MOL0     H10619   2.177   2.175   7.627 -1.4948  2.2022  0.2015
   79MOL0     H10620   2.176   2.265   7.474  1.2623 -0.3265 -0.0593
   79MOL0     H10621   2.315   1.992   7.461 -2.0105 -2.5332  2.4012
   79MOL0     H10622   2.256   2.103   7.338 -2.5291  0.0078  0.1568
   79MOL0     H10623   2.095   1.925   7.509  1.1663  0.8651  1.6164
   79MOL0     H10624   2.100   1.949   7.322  0.6932 -0.9432  0.0807
   79MOL0     H10625   1.825   2.261   7.434  0.1683 -0.0376 -1.4215
   79MOL0     H10626   1.589   2.240   7.321  0.2047  0.2981 -1.2263
   79MOL0     H10627   1.302   2.017   7.022 -0.8374  2.3615  3.3838
   79MOL0     H10628   1.080   1.944   6.920 -0.1945  0.4956  0.0015
   79MOL0     H10629   0.853   1.631   7.158 -3.1062  0.1533  2.6257
   79MOL0     H10630   0.836   1.809   7.204 -0.1713  1.5984 -0.0235
   79MOL0     H10631   0.606   1.708   7.128 -0.0171  0.1717 -1.0655
   79MOL0     H10632   0.670   1.841   7.028 -0.6487 -0.6052 -1.3596
   79MOL0     H10633   0.743   1.683   6.863  1.7427  0.0866  1.1618
   79MOL0     H10634   0.713   1.543   6.974  2.2460  0.6705  1.0802
   79MOL0     H10635   0.511   1.724   6.863  0.7297  0.8091 -0.3777
   79MOL0     H10636   0.475   1.576   6.955 -1.0136  1.4263  0.3166
   79MOL0     H10637   0.626   1.576   6.687  1.3457 -1.5681  0.3302
   79MOL0     H10638   0.452   1.546   6.695 -0.1283 -4.7726 -0.5554
   79MOL0     H10639   0.640   1.373   6.854 -1.3193 -0.7931 -0.0330
   79MOL0     H10640   0.466   1.364   6.829 -0.3019  1.9969  1.3043
   79MOL0     H10641   0.498   1.292   6.598 -1.7188 -1.0099  1.3186
   79MOL0     H10642   0.600   1.190   6.696 -1.3572 -1.1765 -3.1925
   79MOL0     H10643   0.716   1.271   6.490  0.4845  1.7662 -0.8959
   79MOL0     H10644   0.713   1.443   6.544  1.2335 -0.0946 -2.6109
   79MOL0     H10645   1.047   1.654   7.235  0.2474 -0.2197  0.1458
   79MOL0     H10646   1.272   1.720   7.315  1.5359  0.1436 -1.0999
   79MOL0     H10647   1.659   1.834   7.231  1.1463  0.4083 -0.9338
   79MOL0     H10648   1.886   1.846   7.347 -1.6914 -1.3828 -1.1590
   79MOL0     H10649   1.696   3.375   7.975 -0.4195  0.4359  0.8082
   79MOL0     H10650   1.543   3.561   7.892 -0.0709 -0.0511 -2.9151
   79MOL0     H10651   1.480   3.824   7.625  2.0529  0.9457  0.1497
   79MOL0     H10652   1.345   3.958   7.468 -1.7968  1.8337 -0.0295
   79MOL0     H10653   1.043   4.170   7.397 -0.2623  1.8760  0.7268
   79MOL0     H10654   1.142   4.030   7.403  0.0337  0.3693 -0.0898
   79MOL0     H10655   1.333   4.160   7.343 -0.7130  0.5278  1.0032
   79MOL0     H10656   1.262   4.311   7.390 -2.6440  1.3581 -1.1630
   79MOL0     H10657   1.202   4.361   7.171 -2.6895  0.5748 -1.1633
   79MOL0     H10658   1.088   4.237   7.184  1.1757 -1.6933  0.9557
   79MOL0     H10659   1.229   4.217   7.000 -0.3874 -1.4060 -0.9772
   79MOL0     H10660   1.377   4.211   7.098  0.8932 -0.9845 -0.7997
   79MOL0     H10661   1.202   3.819   7.074  0.5700 -0.0482 -0.2429
   79MOL0     H10662   1.228   4.203   7.802  1.3991  1.4451 -1.7382
   79MOL0     H10663   1.438   4.046   8.061 -0.0684 -0.1563 -0.0593
   79MOL0     H10664   1.460   4.207   8.006  0.1415 -0.6924 -1.3423
   79MOL0     H10665   1.305   4.149   8.028  0.2362  0.0305 -0.6747
   80MOL0     O10666   8.116   0.255   9.492 -0.1928  0.0199  0.0890
   80MOL0     C10667   8.083   0.176   9.403 -0.4112  0.8225  1.0035
   80MOL0     O10668   7.956   0.168   9.345  0.7496  0.6893 -0.2898
   80MOL0     C10669   7.875   0.277   9.322 -0.1610 -1.7963 -0.7100
   80MOL0     C10670   7.751   0.242   9.278 -0.8169  0.9591 -0.0745
   80MOL0     C10671   7.652   0.333   9.231 -0.0914  0.4741 -1.5049
   80MOL0     C10672   7.688   0.469   9.234  0.4533 -0.5832  0.6296
   80MOL0     O10673   7.586   0.556   9.199  0.3702  1.0791 -0.1866
   80MOL0     C10674   7.623   0.669   9.117  0.6046  0.6490  0.5768
   80MOL0     C10675   7.628   0.807   9.194  0.0367 -0.4488  0.0287
   80MOL0     C10676   7.564   0.822   9.331  0.9807 -0.8452 -0.5692
   80MOL0     C10677   7.430   0.754   9.330  0.2405  0.5714  0.2840
   80MOL0     C10678   7.338   0.823   9.429  0.9417  0.4272 -1.5708
   80MOL0     C10679   7.220   0.727   9.484  0.4094  0.6789 -0.0170
   80MOL0     C10680   7.081   0.783   9.490 -0.7615  0.1668 -0.7776
   80MOL0     C10681   7.011   0.784   9.351 -0.1840 -0.1165 -0.2223
   80MOL0     N10682   6.867   0.803   9.363 -0.1364  0.8669  0.6497
   80MOL0     C10683   6.783   0.734   9.282  0.2992  0.6070 -0.4786
   80MOL0     C10684   6.663   0.785   9.312  0.3057  0.3199 -0.4083
   80MOL0     C10685   6.537   0.729   9.235  0.0158 -0.1563 -0.1195
   80MOL0     C10686   6.527   0.774   9.089  0.0758  0.1660 -0.2278
   80MOL0     C10687   6.415   0.716   9.006 -0.1940 -0.3571 -0.0046
   80MOL0     C10688   6.435   0.717   8.857  0.5890  0.1236 -0.7947
   80MOL0     O10689   6.427   0.578   8.806 -0.0662  0.1612  0.2839
   80MOL0     C10690   6.545   0.520   8.769 -0.2716 -1.1177 -0.6117
   80MOL0     C10691   6.543   0.384   8.740  0.6044 -0.3224  0.9998
   80MOL0     C10692   6.649   0.307   8.714  0.1869 -0.2263 -0.4022
   80MOL0     C10693   6.777   0.362   8.715  0.1901  0.2063 -0.4919
   80MOL0     C10694   6.893   0.271   8.666  0.7601  0.0739  0.5446
   80MOL0     O10695   7.001   0.335   8.615 -0.2003  0.7634  0.2972
   80MOL0     C10696   7.111   0.264   8.562 -0.0203 -0.4473  0.8050
   80MOL0     C10697   7.094   0.163   8.464 -0.0428 -0.5037 -0.1003
   80MOL0     C10698   7.205   0.086   8.423  0.7296  0.4178 -1.0483
   80MOL0     C10699   7.336   0.121   8.469  0.0382  0.2731 -0.3853
   80MOL0     O10700   7.440   0.043   8.418 -0.0862 -0.1200  0.0235
   80MOL0     C10701   7.498  -0.052   8.510 -0.0398 -0.5012 -0.4825
   80MOL0     C10702   7.394  -0.166   8.539  0.1430  0.0415 -0.0973
   80MOL0     C10703   7.461  -0.246   8.643 -0.0666  0.1597  0.0983
   80MOL0     C10704   7.403  -0.385   8.668  0.2906 -0.2909 -0.8933
   80MOL0     C10705   7.479  -0.471   8.774 -0.3687  0.0554  0.3711
   80MOL0     C10706   7.497  -0.402   8.909 -0.0873  0.2332 -0.2410
   80MOL0     C10707   7.521  -0.501   9.022 -0.4979  0.7710  1.0311
   80MOL0     C10708   7.661  -0.568   9.018 -0.1148  0.5167 -0.4112
   80MOL0    Cl10709   7.690  -0.711   9.125 -0.0039 -0.2973  0.3456
   80MOL0     C10710   7.351   0.225   8.566 -0.2267 -0.5484  1.1604
   80MOL0     C10711   7.237   0.286   8.611 -0.1860 -1.0593 -0.2293
   80MOL0     O10712   6.879   0.148   8.675 -0.8667  0.0121  0.1997
   80MOL0     C10713   6.785   0.501   8.735 -1.2766  0.0524  0.4427
   80MOL0     C10714   6.677   0.574   8.769 -0.1048 -1.4799  0.5515
   80MOL0     N10715   6.683   0.895   9.391  0.5851 -1.0070  0.1982
   80MOL0     N10716   6.807   0.893   9.435  0.4242  0.2354 -0.3977
   80MOL0     C10717   7.820   0.510   9.276  0.2316 -0.3674 -0.3172
   80MOL0     C10718   7.914   0.412   9.320 -0.1471  0.0509 -0.1398
   80MOL0     C10719   8.181   0.072   9.366 -0.3527  0.8058 -0.3180
   80MOL0     C10720   8.127  -0.059   9.341  0.1787  0.9446 -1.1478
   80MOL0     C10721   8.206  -0.168   9.308 -0.4131 -0.2267  0.1393
   80MOL0     C10722   8.348  -0.144   9.283 -0.1175  0.4352 -0.3091
   80MOL0     O10723   8.408  -0.256   9.227  0.2333 -0.6841 -0.2909
   80MOL0     C10724   8.548  -0.275   9.245 -0.5773  0.5866 -0.0548
   80MOL0     C10725   8.589  -0.428   9.259  0.0010 -0.1004  0.6744
   80MOL0     C10726   8.502  -0.513   9.351  0.9482 -0.4642  0.0232
   80MOL0     C10727   8.533  -0.655   9.328 -0.8484  0.6598  0.0597
   80MOL0     C10728   8.664  -0.694   9.372 -0.0884 -0.0764 -0.6637
   80MOL0     C10729   8.787  -0.708   9.395 -0.7902 -0.6745  1.0389
   80MOL0     C10730   8.404  -0.023   9.308 -0.6953 -1.1318  0.3824
   80MOL0     C10731   8.325   0.089   9.348  0.2237 -0.5622  0.1401
   80MOL0     C10732   8.385   0.222   9.367  0.4264  0.4721 -1.4116
   80MOL0     H10733   7.725   0.136   9.279  1.6562  0.2740 -0.3615
   80MOL0     H10734   7.555   0.294   9.201 -0.5012 -1.3187  1.7197
   80MOL0     H10735   7.719   0.635   9.077  1.4913  1.1125  2.2519
   80MOL0     H10736   7.543   0.673   9.042  1.5389  0.9830 -0.4367
   80MOL0     H10737   7.593   0.888   9.129  0.6711 -1.3293 -1.4538
   80MOL0     H10738   7.736   0.820   9.194 -0.0158  0.0189 -0.0922
   80MOL0     H10739   7.547   0.929   9.347  0.2004 -0.7483 -1.8892
   80MOL0     H10740   7.639   0.793   9.406  0.9244  2.2673  0.8682
   80MOL0     H10741   7.384   0.782   9.234 -0.1180  4.4335  1.4190
   80MOL0     H10742   7.437   0.648   9.357 -3.0340 -0.6296 -2.7045
   80MOL0     H10743   7.398   0.870   9.507  0.8049  3.4968 -3.1695
   80MOL0     H10744   7.281   0.900   9.377 -1.1793 -1.1986 -1.8158
   80MOL0     H10745   7.207   0.644   9.414  1.8957  0.2155  0.2112
   80MOL0     H10746   7.255   0.681   9.577  0.2078 -1.4760 -0.9472
   80MOL0     H10747   7.094   0.885   9.528 -1.9677 -0.5185  1.6380
   80MOL0     H10748   7.023   0.726   9.563  0.5774 -3.7285 -2.4923
   80MOL0     H10749   7.051   0.861   9.284 -1.0499  1.0738  0.5852
   80MOL0     H10750   7.037   0.688   9.307 -1.7219 -0.8594  0.4276
   80MOL0     H10751   6.811   0.657   9.211 -0.7933 -0.5287  0.2804
   80MOL0     H10752   6.547   0.621   9.232 -0.4931 -0.2419  0.9178
   80MOL0     H10753   6.448   0.755   9.293 -0.5739  0.4831 -1.2730
   80MOL0     H10754   6.513   0.883   9.094  3.0431  0.6812 -0.6761
   80MOL0     H10755   6.618   0.751   9.032  0.4104 -1.1681  0.7902
   80MOL0     H10756   6.325   0.774   9.029 -1.8264 -1.9894 -1.8238
   80MOL0     H10757   6.382   0.615   9.034 -0.2183 -0.1011  0.9186
   80MOL0     H10758   6.522   0.774   8.824  0.5531  0.4759 -0.2903
   80MOL0     H10759   6.345   0.769   8.823  0.6338  1.6314  1.2026
   80MOL0     H10760   6.445   0.338   8.744  0.8851 -0.9924  0.3705
   80MOL0     H10761   6.636   0.201   8.692 -0.0749 -0.6222  1.4563
   80MOL0     H10762   6.998   0.122   8.436  1.5638 -5.6235  0.8332
   80MOL0     H10763   7.189   0.000   8.358 -1.7576 -0.1811  0.2340
   80MOL0     H10764   7.590  -0.087   8.461  1.0632  0.1692  1.0391
   80MOL0     H10765   7.525   0.003   8.601  2.7156 -0.5384 -1.1714
   80MOL0     H10766   7.304  -0.126   8.586  0.0230  0.6668 -0.8323
   80MOL0     H10767   7.358  -0.219   8.450 -1.8932  1.2584 -0.0568
   80MOL0     H10768   7.564  -0.262   8.610  0.2850 -0.0023  1.2280
   80MOL0     H10769   7.466  -0.189   8.736  3.8040  2.3238 -1.2002
   80MOL0     H10770   7.389  -0.443   8.577  1.8846 -0.2020 -1.2342
   80MOL0     H10771   7.302  -0.370   8.707  1.2552  1.0261  1.3195
   80MOL0     H10772   7.577  -0.494   8.730 -1.0001 -0.7204 -0.6610
   80MOL0     H10773   7.422  -0.564   8.778 -0.7427  0.1844 -1.3319
   80MOL0     H10774   7.568  -0.318   8.911 -2.1871  2.1840 -1.5243
   80MOL0     H10775   7.407  -0.344   8.933 -0.3382 -0.3264  0.2053
   80MOL0     H10776   7.448  -0.581   9.003  0.1518  1.2064 -5.3930
   80MOL0     H10777   7.506  -0.464   9.124 -0.4709  1.8178  0.6649
   80MOL0     H10778   7.695  -0.607   8.921  0.6861 -0.8201  0.3890
   80MOL0     H10779   7.735  -0.492   9.044  1.4758  1.4997 -6.3165
   80MOL0     H10780   7.449   0.251   8.603  1.2397 -4.2379  0.3382
   80MOL0     H10781   7.254   0.349   8.698  0.4593 -3.0207  1.1386
   80MOL0     H10782   6.874   0.563   8.735 -0.8004 -0.6152 -0.0449
   80MOL0     H10783   6.696   0.675   8.805 -2.2092 -0.9894  0.4014
   80MOL0     H10784   7.837   0.616   9.260 -0.2977  0.3460  3.0605
   80MOL0     H10785   8.015   0.441   9.346 -0.9754  3.9932 -0.6115
   80MOL0     H10786   8.023  -0.077   9.366  0.7010  0.7284  1.0296
   80MOL0     H10787   8.158  -0.261   9.280  0.3494 -0.2185 -1.2545
   80MOL0     H10788   8.580  -0.234   9.341  2.0795 -1.8619  0.2274
   80MOL0     H10789   8.606  -0.234   9.162 -1.7022 -1.1632 -1.8062
   80MOL0     H10790   8.687  -0.423   9.306  0.5226 -1.3183 -0.2262
   80MOL0     H10791   8.588  -0.467   9.157  0.8564  1.5413  0.0163
   80MOL0     H10792   8.395  -0.493   9.339  0.1527 -3.7134  0.6875
   80MOL0     H10793   8.502  -0.477   9.455  0.2637 -2.6887  0.8641
   80MOL0     H10794   8.459  -0.708   9.389 -0.1563 -0.8406 -0.3706
   80MOL0     H10795   8.504  -0.696   9.231 -1.7214 -2.4273  1.4974
   80MOL0     H10796   8.893  -0.714   9.410 -0.7292  1.0149  1.5209
   80MOL0     H10797   8.512  -0.020   9.297 -0.8519  0.0184 -1.1480
   80MOL0     H10798   8.373   0.284   9.277 -0.8467  0.6518 -1.1415
   80MOL0     H10799   8.349   0.276   9.455 -1.9895 -0.1187 -1.9724
   80MOL0     H10800   8.490   0.206   9.393 -0.1792 -1.3873  0.0572
   81MOL0     O10801   6.210  10.504   9.840 -0.3615 -0.5419 -0.6094
   81MOL0     C10802   6.181  10.622   9.813  0.7369  0.6969 -0.5561
   81MOL0     O10803   6.278  10.722   9.784  0.2005  0.7951 -0.4537
   81MOL0     C10804   6.408  10.691   9.801 -0.6076  0.0501  0.3612
   81MOL0     C10805   6.482  10.785   9.871 -0.8098  0.0860  0.2944
   81MOL0     C10806   6.629  10.789   9.870 -0.1359 -0.4634 -0.9072
   81MOL0     C10807   6.703  10.693   9.793 -0.4680  0.1470 -0.4951
   81MOL0     O10808   6.844  10.686   9.778 -0.0131  0.1219  0.1003
   81MOL0     C10809   6.924  10.772   9.855  0.6905  0.2425 -0.4164
   81MOL0     C10810   7.066  10.737   9.820  0.5191  0.1203 -0.5794
   81MOL0     C10811   7.167  10.837   9.884 -0.4755  0.8158  0.5336
   81MOL0     C10812   7.285  10.749   9.919 -0.1294 -0.1402  0.5235
   81MOL0     C10813   7.395  10.825   9.998 -0.3800 -0.4063  0.1800
   81MOL0     C10814   7.515  10.864   9.908  0.8834 -0.6322 -0.4306
   81MOL0     C10815   7.653  10.887   9.968  0.2566 -0.3319 -0.1245
   81MOL0     C10816   7.695  10.769  10.066  0.5371 -0.3208 -0.3215
   81MOL0     N10817   7.829  10.775  10.115 -0.1095 -0.5600 -0.5731
   81MOL0     C10818   7.930  10.732  10.049 -0.8552  0.0121 -0.3572
   81MOL0     C10819   8.033  10.783  10.118 -1.2597  0.3064  0.1455
   81MOL0     C10820   8.180  10.774  10.081 -0.2006  0.0127 -0.4763
   81MOL0     C10821   8.253  10.649  10.138  0.5810  0.2356  0.3155
   81MOL0     C10822   8.387  10.619  10.064 -0.0837 -0.0424  0.4796
   81MOL0     C10823   8.495  10.548  10.151  0.3594  1.1201 -0.0818
   81MOL0     O10824   8.628  10.603  10.139 -0.3393  0.7579  0.3799
   81MOL0     C10825   8.710  10.566  10.237 -0.9929  0.1451 -0.6866
   81MOL0     C10826   8.772  10.663  10.322  1.3655  0.7288 -0.2312
   81MOL0     C10827   8.864  10.624  10.418  0.3547 -0.6690 -0.1379
   81MOL0     C10828   8.898  10.487  10.434 -0.4639 -0.2724 -0.5833
   81MOL0     C10829   9.002  10.442  10.533 -1.4582  0.4919 -0.6466
   81MOL0     O10830   9.056  10.534  10.613  0.6374  0.8799  1.0194
   81MOL0     C10831   9.147  10.498  10.702 -0.7596 -0.1355 -0.6126
   81MOL0     C10832   9.279  10.525  10.665  0.1302 -0.2756 -0.2382
   81MOL0     C10833   9.378  10.476  10.752 -1.1843  0.5480  0.0202
   81MOL0     C10834   9.348  10.410  10.867  0.9164  0.0517 -0.5093
   81MOL0     O10835   9.429  10.351  10.967  0.1754  0.3782  0.9527
   81MOL0     C10836   9.569  10.363  10.943  0.1724  0.1835  0.0165
   81MOL0     C10837   9.654  10.325  11.061  0.7792 -0.1915  0.5215
   81MOL0     C10838   9.802  10.298  11.029 -0.4019  0.1155  0.4084
   81MOL0     C10839   9.893  10.402  11.101  0.0370 -0.8270  0.7777
   81MOL0     C10840  10.037  10.374  11.077 -0.2474 -1.7655  0.3471
   81MOL0     C10841  10.127  10.501  11.047  0.6995 -0.1869  0.0763
   81MOL0     C10842  10.254  10.467  10.976 -0.1152  0.2413  0.5412
   81MOL0     C10843  10.342  10.586  10.932 -1.1148  0.0331  0.1573
   81MOL0    Cl10844  10.236  10.710  10.840 -0.2847  0.3331  0.0919
   81MOL0     C10845   9.207  10.399  10.905  0.0689  0.1927 -0.1647
   81MOL0     C10846   9.106  10.442  10.820 -0.1335 -0.6165 -0.4881
   81MOL0     O10847   9.042  10.325  10.514 -0.7069 -0.4975 -0.6158
   81MOL0     C10848   8.845  10.396  10.345 -0.2713  0.7865  0.9659
   81MOL0     C10849   8.746  10.432  10.252  0.6688  0.0107  1.1452
   81MOL0     N10850   7.988  10.862  10.222 -0.0307 -0.3604 -0.3166
   81MOL0     N10851   7.856  10.852  10.228 -0.8816 -0.4550 -0.9744
   81MOL0     C10852   6.619  10.606   9.715  0.2687 -0.5662  0.2875
   81MOL0     C10853   6.482  10.595   9.725  0.8028 -0.3944 -0.3270
   81MOL0     C10854   6.033  10.669   9.803 -0.3528  0.2062  0.3499
   81MOL0     C10855   6.013  10.811   9.783  0.3964  0.3349  0.1485
   81MOL0     C10856   5.879  10.847   9.752  0.0042 -0.1650  0.5218
   81MOL0     C10857   5.773  10.766   9.737 -0.3638  0.2155 -0.2816
   81MOL0     O10858   5.646  10.820   9.714 -0.0570 -0.7557  0.0516
   81MOL0     C10859   5.517  10.742   9.722 -0.4993  0.3058 -0.2618
   81MOL0     C10860   5.432  10.779   9.599  0.2738  0.9647  0.9106
   81MOL0     C10861   5.397  10.926   9.577 -0.2296 -0.7969  0.4915
   81MOL0     C10862   5.265  10.944   9.506  0.5273 -0.6279 -0.5803
   81MOL0     C10863   5.243  10.907   9.367 -0.9517  0.1617 -0.6147
   81MOL0     C10864   5.218  10.882   9.250  0.1774 -0.6450 -0.2596
   81MOL0     C10865   5.798  10.625   9.745 -0.6706 -0.5679 -0.4140
   81MOL0     C10866   5.927  10.573   9.779  0.0161  0.2727 -0.3699
   81MOL0     C10867   5.936  10.423   9.788  0.4019  0.7510  0.0379
   81MOL0     H10868   6.435  10.871   9.917 -0.1713  0.0069  1.1040
   81MOL0     H10869   6.686  10.859   9.929  1.7864 -1.4234 -1.5423
   81MOL0     H10870   6.899  10.878   9.839  0.6378  0.0968 -1.3555
   81MOL0     H10871   6.910  10.750   9.961  2.4906  0.1023 -0.1773
   81MOL0     H10872   7.070  10.746   9.711 -1.0965 -1.0322 -0.7619
   81MOL0     H10873   7.091  10.633   9.840  4.4364  1.1842  1.2177
   81MOL0     H10874   7.127  10.877   9.977 -2.2697 -0.6337  0.4232
   81MOL0     H10875   7.190  10.922   9.819  0.5780  2.3019  2.7164
   81MOL0     H10876   7.247  10.658   9.966 -0.0087 -1.2860 -1.5043
   81MOL0     H10877   7.334  10.711   9.830 -1.0289 -1.4049  0.5411
   81MOL0     H10878   7.356  10.914  10.047  0.1365 -0.2959  0.3986
   81MOL0     H10879   7.435  10.765  10.081  0.4677 -0.5690 -0.3328
   81MOL0     H10880   7.532  10.789   9.831  0.4215  0.4807 -1.6507
   81MOL0     H10881   7.487  10.957   9.857  2.6590  1.1026  1.5661
   81MOL0     H10882   7.671  10.973  10.033  1.1055 -1.5022  1.2574
   81MOL0     H10883   7.722  10.909   9.886 -0.0894  3.4370  0.4129
   81MOL0     H10884   7.637  10.775  10.158 -0.4646 -1.9290 -0.7958
   81MOL0     H10885   7.678  10.672  10.018  0.3279 -1.3314  1.6941
   81MOL0     H10886   7.934  10.678   9.955 -1.5857  0.7923 -0.8557
   81MOL0     H10887   8.171  10.778   9.972  0.0999  1.4475 -0.4669
   81MOL0     H10888   8.233  10.867  10.105  0.1455 -0.8624  2.4113
   81MOL0     H10889   8.281  10.675  10.241 -2.2057 -3.3772  2.2462
   81MOL0     H10890   8.189  10.560  10.146  0.4400  0.2178 -0.8118
   81MOL0     H10891   8.429  10.711  10.022 -1.5731 -0.9782 -3.5077
   81MOL0     H10892   8.358  10.560   9.976 -3.4690 -2.1550  2.7759
   81MOL0     H10893   8.494  10.440  10.136  3.0840  1.0334 -0.1490
   81MOL0     H10894   8.469  10.559  10.257 -1.0395 -4.4181  0.4757
   81MOL0     H10895   8.754  10.769  10.302 -0.0272  0.5503 -0.0352
   81MOL0     H10896   8.917  10.696  10.480  0.1651 -0.6984  0.0595
   81MOL0     H10897   9.306  10.571  10.571 -0.0928 -1.1074 -0.7216
   81MOL0     H10898   9.483  10.489  10.729 -1.2576 -2.3221 -2.5446
   81MOL0     H10899   9.598  10.318  10.848 -3.6483 -1.0805 -0.7229
   81MOL0     H10900   9.580  10.468  10.914  3.1998 -0.2991 -0.9744
   81MOL0     H10901   9.643  10.407  11.133  0.8438  0.2212  0.0681
   81MOL0     H10902   9.601  10.242  11.108  2.0853 -0.8940  0.8268
   81MOL0     H10903   9.833  10.193  11.036 -1.4478 -0.3921 -1.7872
   81MOL0     H10904   9.809  10.318  10.921  0.2965 -0.3790  0.3506
   81MOL0     H10905   9.871  10.384  11.207 -3.1469 -2.9329 -0.1092
   81MOL0     H10906   9.863  10.501  11.064  2.1264 -1.0507 -1.8027
   81MOL0     H10907  10.032  10.307  10.990  0.4773 -0.1536 -0.9925
   81MOL0     H10908  10.076  10.321  11.164  2.6841  2.9586  2.2763
   81MOL0     H10909  10.071  10.586  11.007 -0.2682 -0.4129  0.9097
   81MOL0     H10910  10.156  10.546  11.142 -0.7950  3.0420 -0.8364
   81MOL0     H10911  10.253  10.415  10.880  0.8391  1.4727 -0.1636
   81MOL0     H10912  10.309  10.406  11.048 -0.8741 -0.1906  0.7691
   81MOL0     H10913  10.382  10.633  11.022  1.6541  1.2078 -1.5393
   81MOL0     H10914  10.428  10.545  10.878 -2.7412 -2.8489 -0.4680
   81MOL0     H10915   9.178  10.340  10.992 -0.7554  2.8684  1.5158
   81MOL0     H10916   8.999  10.435  10.837 -0.0698 -2.5734 -0.6673
   81MOL0     H10917   8.864  10.289  10.348  1.9053  0.8353 -3.2521
   81MOL0     H10918   8.705  10.358  10.183 -1.6504  1.0877  1.2672
   81MOL0     H10919   6.671  10.540   9.647  1.2927  1.5457 -1.1081
   81MOL0     H10920   6.436  10.511   9.673  0.7962 -1.0335  0.6797
   81MOL0     H10921   6.080  10.895   9.797 -1.5798  1.7631  1.5689
   81MOL0     H10922   5.853  10.952   9.745 -5.9389 -1.3080  0.1369
   81MOL0     H10923   5.465  10.786   9.807  0.6623 -0.0432  0.6468
   81MOL0     H10924   5.522  10.635   9.746  2.2481 -0.0036 -1.7846
   81MOL0     H10925   5.347  10.711   9.597  1.0962 -0.1030  1.2619
   81MOL0     H10926   5.480  10.752   9.505 -3.0321  2.6025 -1.4335
   81MOL0     H10927   5.480  10.982   9.531 -0.7583  1.6940  2.3731
   81MOL0     H10928   5.384  10.975   9.673  1.4661  0.3750  0.1810
   81MOL0     H10929   5.188  10.896   9.567 -1.3774 -1.8180 -3.6904
   81MOL0     H10930   5.236  11.048   9.520 -1.6408 -1.4082  1.2551
   81MOL0     H10931   5.191  10.858   9.149 -0.7152 -0.7225 -0.0098
   81MOL0     H10932   5.718  10.553   9.740 -0.4288 -0.9222  0.7008
   81MOL0     H10933   5.836  10.380   9.776  1.7789 -2.3206 -1.3919
   81MOL0     H10934   5.995  10.380   9.707 -0.4250  0.0593 -0.2066
   81MOL0     H10935   5.982  10.386   9.880  0.4400  2.7130  0.8577
   82MOL0     O10936   5.176   5.074   0.640 -0.2685  0.8170 -0.6840
   82MOL0     C10937   5.105   5.004   0.710 -0.1005  0.2444 -0.4559
   82MOL0     O10938   5.134   4.879   0.753  0.3311  0.6315  0.7437
   82MOL0     C10939   5.260   4.842   0.758 -0.6347 -1.0523  0.6034
   82MOL0     C10940   5.327   4.827   0.888  0.6843 -0.3461  0.5035
   82MOL0     C10941   5.465   4.802   0.894  0.5133  0.5476 -0.0788
   82MOL0     C10942   5.539   4.781   0.777  0.1106 -1.0842 -0.8474
   82MOL0     O10943   5.672   4.771   0.776  1.5626  0.0870 -0.1446
   82MOL0     C10944   5.743   4.736   0.892  0.1227 -0.1334 -1.1232
   82MOL0     C10945   5.876   4.697   0.860 -0.2366  0.4694  0.6187
   82MOL0     C10946   5.957   4.670   0.983 -0.3545 -0.2056  1.0688
   82MOL0     C10947   6.103   4.644   0.958 -0.6060  0.2956 -0.1338
   82MOL0     C10948   6.179   4.777   0.919  1.2264 -0.7259  0.2305
   82MOL0     C10949   6.330   4.748   0.951  1.2971 -0.7704  0.1662
   82MOL0     C10950   6.420   4.850   0.894 -1.0088  0.5845 -0.2938
   82MOL0     C10951   6.560   4.797   0.916  0.3729 -0.0393  0.0264
   82MOL0     N10952   6.649   4.872   0.829 -0.4840 -0.0377 -0.1712
   82MOL0     C10953   6.620   4.946   0.715 -0.7768  0.3489  0.6132
   82MOL0     C10954   6.742   4.977   0.665  0.3801 -0.0655 -0.2499
   82MOL0     C10955   6.771   5.027   0.521  0.9616  0.2061 -0.2410
   82MOL0     C10956   6.857   4.925   0.444  1.2556 -0.3982 -0.4448
   82MOL0     C10957   6.818   4.940   0.306  0.0517 -0.5415  0.6257
   82MOL0     C10958   6.912   4.868   0.204 -0.0930  0.6245 -0.1901
   82MOL0     O10959   6.931   4.728   0.240  0.3435  0.1031 -0.5093
   82MOL0     C10960   7.067   4.697   0.242 -0.1005 -0.4994 -0.3515
   82MOL0     C10961   7.128   4.640   0.132  0.2837  0.1499  0.0132
   82MOL0     C10962   7.261   4.602   0.140 -0.6328 -0.4082 -0.3978
   82MOL0     C10963   7.336   4.621   0.254  0.1746  0.3044 -0.2434
   82MOL0     C10964   7.482   4.593   0.258 -0.0083 -0.3759  0.2628
   82MOL0     O10965   7.531   4.555   0.143 -0.1249 -0.6439  0.8402
   82MOL0     C10966   7.656   4.497   0.141  0.0939  0.2638  0.4938
   82MOL0     C10967   7.682   4.373   0.199  0.4954  0.5339 -0.1913
   82MOL0     C10968   7.809   4.325   0.192 -0.2227 -0.1455  1.5877
   82MOL0     C10969   7.911   4.389   0.113 -0.1690 -0.3688  0.1237
   82MOL0     O10970   8.034   4.331   0.121 -0.4267  0.2610 -0.2143
   82MOL0     C10971   8.150   4.384   0.039  1.1549  0.1827  0.0716
   82MOL0     C10972   8.287   4.321   0.069  0.4591  0.7804 -0.2833
   82MOL0     C10973   8.392   4.344  -0.046 -0.3335 -0.8107  0.9809
   82MOL0     C10974   8.537   4.332  -0.003 -0.3659 -0.5134 -0.1824
   82MOL0     C10975   8.630   4.286  -0.112  0.6403 -0.2574 -0.4970
   82MOL0     C10976   8.775   4.319  -0.077  0.2724  0.1614  0.1773
   82MOL0     C10977   8.808   4.459  -0.134  0.3963  0.3389 -0.3023
   82MOL0     C10978   8.943   4.455  -0.208  0.1126  0.0490  0.6206
   82MOL0    Cl10979   8.997   4.624  -0.231 -0.0796 -0.7901  0.4578
   82MOL0     C10980   7.880   4.514   0.051  0.1263 -0.2113  0.4468
   82MOL0     C10981   7.752   4.554   0.062 -0.3932 -0.2230  0.0515
   82MOL0     O10982   7.556   4.631   0.352 -0.0460  0.2617  0.1222
   82MOL0     C10983   7.267   4.683   0.361 -0.2851  0.0400  0.5153
   82MOL0     C10984   7.134   4.709   0.358  0.7060  0.2668  0.6397
   82MOL0     N10985   6.838   4.902   0.732  0.6364  0.3655  0.0560
   82MOL0     N10986   6.776   4.829   0.810  0.0617  0.7236 -0.4496
   82MOL0     C10987   5.469   4.782   0.660  1.0005  0.1498 -0.0149
   82MOL0     C10988   5.333   4.811   0.647 -0.2018 -0.3955 -1.0582
   82MOL0     C10989   4.970   5.046   0.733  1.1651  0.2695 -1.1160
   82MOL0     C10990   4.867   4.939   0.728  0.1942 -0.1055 -0.2080
   82MOL0     C10991   4.735   4.973   0.748  0.0098  0.8314  0.0706
   82MOL0     C10992   4.696   5.106   0.770  0.1581 -0.7029 -0.8388
   82MOL0     O10993   4.562   5.120   0.804  0.8965 -0.7567  0.3244
   82MOL0     C10994   4.519   5.257   0.803  0.9903  0.4326 -0.4617
   82MOL0     C10995   4.368   5.281   0.829 -0.1731 -0.4407 -0.1140
   82MOL0     C10996   4.295   5.255   0.695  0.7474  0.6532 -0.4614
   82MOL0     C10997   4.154   5.316   0.687 -0.2668 -0.5410 -0.2926
   82MOL0     C10998   4.087   5.291   0.815 -0.4486  0.7797  0.5174
   82MOL0     C10999   4.034   5.282   0.921  0.7986 -0.7028  0.3062
   82MOL0     C11000   4.787   5.209   0.765 -0.1338 -0.0527 -1.1209
   82MOL0     C11001   4.927   5.181   0.750 -0.5796  0.5600  0.2065
   82MOL0     C11002   5.013   5.308   0.743  0.1233 -0.1007 -0.8809
   82MOL0     H11003   5.278   4.834   0.985  0.7320 -0.9606  0.5776
   82MOL0     H11004   5.504   4.809   0.995 -1.4707  0.0571  0.7751
   82MOL0     H11005   5.741   4.827   0.953  2.3259 -0.8549  0.1611
   82MOL0     H11006   5.690   4.649   0.931 -0.0888  1.1659  1.7872
   82MOL0     H11007   5.928   4.777   0.807  1.3722 -0.6958  0.3649
   82MOL0     H11008   5.873   4.609   0.794 -3.7820  1.7244 -1.1995
   82MOL0     H11009   5.921   4.580   1.035  0.4967 -1.2854 -0.1596
   82MOL0     H11010   5.941   4.754   1.052  0.7097  0.9520 -0.0378
   82MOL0     H11011   6.153   4.607   1.047 -0.8018 -0.1896 -0.2227
   82MOL0     H11012   6.112   4.572   0.876  1.0023  0.2835  0.0365
   82MOL0     H11013   6.177   4.793   0.811  1.1289  0.0903  0.3453
   82MOL0     H11014   6.134   4.862   0.971  0.3016 -0.3937 -1.0604
   82MOL0     H11015   6.345   4.751   1.060  1.0254  1.1354  0.1937
   82MOL0     H11016   6.341   4.643   0.922  0.4763 -1.0978  0.9846
   82MOL0     H11017   6.404   4.949   0.938  0.8582  0.5069  0.6805
   82MOL0     H11018   6.396   4.848   0.787 -0.9603  0.5281 -0.3035
   82MOL0     H11019   6.584   4.817   1.021 -1.7608 -0.7496  0.7023
   82MOL0     H11020   6.563   4.688   0.910 -0.4057 -0.0518 -0.2810
   82MOL0     H11021   6.526   4.955   0.660 -0.8135 -0.9532  0.4407
   82MOL0     H11022   6.676   5.046   0.470  0.7860  0.3484  0.1336
   82MOL0     H11023   6.815   5.128   0.518 -0.1980  0.7036 -1.5923
   82MOL0     H11024   6.962   4.952   0.456  0.5536  3.7080 -1.9472
   82MOL0     H11025   6.833   4.822   0.473  1.6541 -0.2971  0.2745
   82MOL0     H11026   6.822   5.045   0.273 -0.9132 -0.7657 -0.2342
   82MOL0     H11027   6.720   4.897   0.287 -0.2072  0.9914 -2.0720
   82MOL0     H11028   7.006   4.924   0.207  0.2530  0.0531 -0.1291
   82MOL0     H11029   6.865   4.875   0.106  0.0330  1.6334 -0.1906
   82MOL0     H11030   7.074   4.639   0.038  0.2962  4.5737 -0.2457
   82MOL0     H11031   7.306   4.555   0.053  0.7714 -1.1097  0.6552
   82MOL0     H11032   7.603   4.311   0.241 -1.5993  1.7717 -2.1220
   82MOL0     H11033   7.837   4.228   0.231  1.6812  0.2626  1.3087
   82MOL0     H11034   8.125   4.354  -0.063  2.2812 -0.0069 -0.1694
   82MOL0     H11035   8.160   4.493   0.043  5.4044 -0.0194  3.4811
   82MOL0     H11036   8.330   4.365   0.160  0.8894  1.1983 -0.6870
   82MOL0     H11037   8.278   4.212   0.074  0.7474  0.7201 -1.0823
   82MOL0     H11038   8.365   4.273  -0.124 -2.5761 -0.3794  1.2855
   82MOL0     H11039   8.367   4.447  -0.073 -3.4307 -1.5491  0.6372
   82MOL0     H11040   8.534   4.280   0.093 -0.3437 -0.3281 -0.0815
   82MOL0     H11041   8.580   4.426   0.031 -0.8186 -0.4075  0.1001
   82MOL0     H11042   8.598   4.341  -0.201 -3.0490  2.1809  2.0582
   82MOL0     H11043   8.616   4.179  -0.128 -1.7746 -0.0595 -0.0486
   82MOL0     H11044   8.799   4.326   0.030 -0.0444 -0.3838  0.2892
   82MOL0     H11045   8.846   4.246  -0.117 -0.1624 -0.5386  0.6613
   82MOL0     H11046   8.810   4.535  -0.056 -1.3150  0.9896 -0.8541
   82MOL0     H11047   8.732   4.484  -0.208 -1.0657 -1.5512  0.4887
   82MOL0     H11048   9.021   4.402  -0.154  0.1302 -3.3842 -2.4266
   82MOL0     H11049   8.928   4.399  -0.300 -0.9970  0.9486  0.2176
   82MOL0     H11050   7.960   4.566   0.000  2.1419 -1.0404  2.6097
   82MOL0     H11051   7.725   4.643   0.006  0.5095 -0.7325 -1.2435
   82MOL0     H11052   7.312   4.697   0.459  0.7671  1.4730 -0.1424
   82MOL0     H11053   7.093   4.748   0.451  0.3518 -0.5483  0.8304
   82MOL0     H11054   5.523   4.773   0.566  3.1681  1.5365  1.0276
   82MOL0     H11055   5.273   4.814   0.556 -0.6328 -0.2468 -0.7687
   82MOL0     H11056   4.890   4.836   0.703 -0.4138  0.0843 -1.6575
   82MOL0     H11057   4.663   4.892   0.755 -1.9859  2.3812 -1.3165
   82MOL0     H11058   4.555   5.303   0.710 -0.4062  0.1087 -1.1949
   82MOL0     H11059   4.570   5.301   0.889 -2.0765  2.5519  0.4235
   82MOL0     H11060   4.355   5.380   0.873 -2.3699  0.4276 -2.4180
   82MOL0     H11061   4.338   5.209   0.905  1.9907 -0.5933  0.6600
   82MOL0     H11062   4.281   5.146   0.688  2.2897  0.1304  2.5906
   82MOL0     H11063   4.360   5.289   0.614 -0.5008  0.4908 -1.5740
   82MOL0     H11064   4.159   5.422   0.661 -3.0984 -0.7886 -2.2231
   82MOL0     H11065   4.096   5.286   0.600 -0.4131  0.6353 -0.6245
   82MOL0     H11066   3.970   5.263   1.005 -2.1411 -1.7603 -1.9922
   82MOL0     H11067   4.760   5.314   0.770 -4.2844 -0.9531 -0.7575
   82MOL0     H11068   5.121   5.303   0.726  0.9764  1.9361  2.6831
   82MOL0     H11069   4.964   5.366   0.664 -0.9839 -0.8847 -0.7906
   82MOL0     H11070   5.001   5.347   0.845 -0.9926 -0.9881 -0.6573
   83MOL0     O11071  10.068   7.879   5.307  0.0079 -0.1023 -0.3748
   83MOL0     C11072  10.094   8.004   5.313  0.4643 -0.7920 -0.0205
   83MOL0     O11073  10.217   8.058   5.332  0.4938  0.2434 -0.8520
   83MOL0     C11074  10.318   7.969   5.354  0.5138  0.4489 -0.1288
   83MOL0     C11075  10.350   7.919   5.479 -0.0334  0.2654 -0.0659
   83MOL0     C11076  10.467   7.847   5.501  0.1533  0.8286  0.4368
   83MOL0     C11077  10.540   7.786   5.397 -0.2962 -0.1513 -0.0494
   83MOL0     O11078  10.652   7.709   5.406  0.0565 -0.2006  0.1049
   83MOL0     C11079  10.680   7.662   5.541 -0.5544 -0.9369  0.1756
   83MOL0     C11080  10.780   7.745   5.621 -0.2841 -0.1232 -0.0408
   83MOL0     C11081  10.923   7.700   5.585  0.1240 -0.0956 -0.6406
   83MOL0     C11082  11.011   7.730   5.705 -0.8469 -0.6155  0.4245
   83MOL0     C11083  11.017   7.887   5.733  0.0859 -0.0500 -0.5460
   83MOL0     C11084  11.083   7.916   5.864 -0.1885 -0.3030  0.2088
   83MOL0     C11085  11.101   8.059   5.908  0.3313 -0.2576 -0.8977
   83MOL0     C11086  11.206   8.055   6.019  0.1684 -0.3156  0.3788
   83MOL0     N11087  11.172   7.972   6.136  0.1856  0.0028 -0.4077
   83MOL0     C11088  11.047   7.975   6.204 -0.6222 -0.1126 -0.7622
   83MOL0     C11089  11.055   7.871   6.285  0.7211 -0.2509 -0.7320
   83MOL0     C11090  10.940   7.808   6.358 -0.0596 -0.0232  0.4638
   83MOL0     C11091  10.914   7.665   6.315  0.0106  0.5785 -0.3729
   83MOL0     C11092  10.866   7.670   6.170  0.5501  0.9575  1.1655
   83MOL0     C11093  10.865   7.523   6.120 -0.3721  0.7798  0.2960
   83MOL0     O11094  10.994   7.448   6.147 -0.0750  1.0599  0.7087
   83MOL0     C11095  11.088   7.493   6.061  0.6576 -0.0373  0.2151
   83MOL0     C11096  11.089   7.456   5.926 -0.1122 -0.3734  0.5303
   83MOL0     C11097  11.191   7.501   5.838  1.1294 -0.4692 -0.3956
   83MOL0     C11098  11.298   7.583   5.884  0.3152  1.5387 -0.4170
   83MOL0     C11099  11.392   7.640   5.787 -0.1199  0.1417  0.9385
   83MOL0     O11100  11.512   7.685   5.836 -0.1642  0.0110 -0.2959
   83MOL0     C11101  11.593   7.749   5.748 -0.0388 -0.3828 -0.4065
   83MOL0     C11102  11.600   7.891   5.758 -0.0101 -0.7149  0.7734
   83MOL0     C11103  11.672   7.979   5.664 -0.3155 -0.3335 -0.9155
   83MOL0     C11104  11.731   7.915   5.553 -0.0723 -0.6237 -0.3994
   83MOL0     O11105  11.785   7.997   5.455 -0.3925  0.4490 -0.8695
   83MOL0     C11106  11.843   7.926   5.344 -0.4431 -0.2879 -0.0231
   83MOL0     C11107  11.895   8.033   5.241 -0.2995  0.6821 -0.3003
   83MOL0     C11108  11.792   8.134   5.192 -0.3589  0.2426  0.4413
   83MOL0     C11109  11.860   8.238   5.099 -0.4392 -0.0302  0.5167
   83MOL0     C11110  11.893   8.370   5.171  0.0053 -0.2308  1.0069
   83MOL0     C11111  11.992   8.455   5.087  0.2013 -0.5978 -0.2706
   83MOL0     C11112  11.948   8.507   4.950 -0.0200  0.7266  0.4013
   83MOL0     C11113  12.046   8.498   4.837 -0.2912 -0.3080 -0.2265
   83MOL0    Cl11114  12.118   8.337   4.786  0.6011 -0.3008 -0.2587
   83MOL0     C11115  11.733   7.775   5.551 -0.2542 -0.5701  0.3799
   83MOL0     C11116  11.661   7.693   5.643  0.0386  0.2296  0.2822
   83MOL0     O11117  11.353   7.644   5.667  0.1213  0.4227 -0.0205
   83MOL0     C11118  11.300   7.606   6.028 -0.0599  0.1880 -0.2743
   83MOL0     C11119  11.195   7.561   6.107  0.5606 -0.4849 -0.9607
   83MOL0     N11120  11.190   7.822   6.282  0.6748  0.0722  0.5868
   83MOL0     N11121  11.260   7.885   6.198 -0.1431  0.0649  0.0155
   83MOL0     C11122  10.506   7.837   5.271  0.1455 -0.0881 -0.0120
   83MOL0     C11123  10.395   7.918   5.248  0.3871  0.1552 -0.1147
   83MOL0     C11124   9.970   8.092   5.313 -0.9893 -0.5079  0.2264
   83MOL0     C11125   9.855   8.040   5.262 -0.6801 -0.1423 -0.0391
   83MOL0     C11126   9.727   8.098   5.266 -0.0297  0.6100 -0.3488
   83MOL0     C11127   9.720   8.230   5.323  0.3942 -0.5247 -0.5453
   83MOL0     O11128   9.590   8.286   5.329  0.2173  0.4604  0.3435
   83MOL0     C11129   9.576   8.428   5.328 -0.3786 -0.3636  0.7500
   83MOL0     C11130   9.577   8.461   5.181  0.1527  0.0229  0.3691
   83MOL0     C11131   9.456   8.445   5.097  0.1605  0.9702  0.1368
   83MOL0     C11132   9.473   8.510   4.959 -0.5384  0.2241 -0.5565
   83MOL0     C11133   9.405   8.636   4.939  0.7924 -0.1642  0.2618
   83MOL0     C11134   9.347   8.740   4.916  0.3952  0.5242 -1.0573
   83MOL0     C11135   9.831   8.281   5.382 -0.0232 -0.4191  0.5784
   83MOL0     C11136   9.959   8.217   5.375  0.1669 -0.4581 -0.3083
   83MOL0     C11137  10.076   8.290   5.430  0.0091 -1.2645  0.4123
   83MOL0     H11138  10.283   7.945   5.561  2.0842  0.1142  1.8180
   83MOL0     H11139  10.485   7.830   5.606 -2.0398 -2.6668  0.3961
   83MOL0     H11140  10.601   7.643   5.614  0.4633  1.0715  1.9028
   83MOL0     H11141  10.730   7.566   5.522 -0.4622 -0.2927 -3.6459
   83MOL0     H11142  10.744   7.749   5.724 -1.5072  0.6937 -0.4840
   83MOL0     H11143  10.776   7.848   5.586  0.2611 -0.5878 -1.5876
   83MOL0     H11144  10.959   7.759   5.500 -1.4862  0.8755 -0.6866
   83MOL0     H11145  10.925   7.596   5.551 -0.7469  0.8562 -3.9883
   83MOL0     H11146  10.981   7.681   5.798  1.5522  0.8899  2.1098
   83MOL0     H11147  11.111   7.689   5.686 -1.4510 -1.5866 -0.7574
   83MOL0     H11148  11.070   7.940   5.653  0.1131  0.7734  0.0009
   83MOL0     H11149  10.919   7.933   5.744  1.7303  3.1284  4.0681
   83MOL0     H11150  11.029   7.850   5.933 -1.9628 -0.7576 -1.5322
   83MOL0     H11151  11.180   7.866   5.863 -1.3144 -2.6289 -0.6741
   83MOL0     H11152  11.000   8.086   5.942 -0.0011  0.5445 -2.4103
   83MOL0     H11153  11.136   8.122   5.825  2.0520 -0.2283 -0.1776
   83MOL0     H11154  11.302   8.023   5.979 -1.2214 -0.1627 -3.5791
   83MOL0     H11155  11.231   8.156   6.051 -0.9452  0.6072 -1.4438
   83MOL0     H11156  10.961   8.037   6.183  1.0728  3.1987  1.3309
   83MOL0     H11157  10.950   7.816   6.467 -1.8987  3.6504  0.5441
   83MOL0     H11158  10.856   7.867   6.319 -0.1411  0.0850  0.7948
   83MOL0     H11159  11.002   7.601   6.330 -0.8421 -0.1602  1.7984
   83MOL0     H11160  10.842   7.615   6.381  4.0561 -0.8307  3.5432
   83MOL0     H11161  10.911   7.731   6.091  0.0139 -1.6296 -1.2914
   83MOL0     H11162  10.761   7.699   6.170  0.6313  1.2510  1.4945
   83MOL0     H11163  10.861   7.534   6.011 -0.5303 -1.0141  0.0877
   83MOL0     H11164  10.774   7.479   6.161 -1.2170  2.0234 -0.1976
   83MOL0     H11165  11.008   7.402   5.879  2.7886 -2.1768 -2.8919
   83MOL0     H11166  11.185   7.471   5.733 -2.2926 -3.8236  0.5466
   83MOL0     H11167  11.545   7.929   5.843 -1.4806  0.7778 -0.7617
   83MOL0     H11168  11.669   8.087   5.669  2.1826 -0.2367  3.0845
   83MOL0     H11169  11.920   7.859   5.383  0.2658  0.7568  0.4172
   83MOL0     H11170  11.769   7.863   5.294  3.1490 -2.3509 -3.3205
   83MOL0     H11171  11.979   8.085   5.289 -1.0508 -2.0889  4.6593
   83MOL0     H11172  11.939   7.974   5.160 -0.0070 -3.1142  2.3844
   83MOL0     H11173  11.715   8.084   5.131  0.2512 -1.3624  0.9473
   83MOL0     H11174  11.737   8.177   5.276 -3.0763 -0.7868 -0.6763
   83MOL0     H11175  11.798   8.264   5.013  0.0724 -2.2306 -0.5954
   83MOL0     H11176  11.957   8.207   5.057 -0.4556  1.3318 -0.6306
   83MOL0     H11177  11.946   8.350   5.265  1.2064 -2.5338 -0.0689
   83MOL0     H11178  11.801   8.428   5.188 -0.3869 -0.8214  0.9226
   83MOL0     H11179  12.010   8.538   5.155 -0.6478 -0.1413 -0.5882
   83MOL0     H11180  12.086   8.404   5.066 -0.5466 -2.5909  0.9153
   83MOL0     H11181  11.931   8.615   4.955  0.8278  1.0019 -1.6619
   83MOL0     H11182  11.852   8.460   4.928  0.0230  0.4744  0.7485
   83MOL0     H11183  12.007   8.547   4.747  0.5708  0.7370 -0.0495
   83MOL0     H11184  12.127   8.566   4.865 -0.2990  0.9913 -3.0019
   83MOL0     H11185  11.783   7.717   5.475 -3.2845 -1.6428 -0.9467
   83MOL0     H11186  11.676   7.587   5.627 -1.8752  0.1843 -1.6262
   83MOL0     H11187  11.390   7.644   6.077  0.3452 -1.2690  0.1809
   83MOL0     H11188  11.187   7.574   6.214  0.1782 -0.8716 -0.9435
   83MOL0     H11189  10.567   7.790   5.195  1.5799 -0.3484  1.2669
   83MOL0     H11190  10.365   7.949   5.148 -0.3146  0.9460  0.3257
   83MOL0     H11191   9.853   7.937   5.228  0.0442 -0.5710  1.1640
   83MOL0     H11192   9.641   8.050   5.220  0.0768  0.2438 -0.1630
   83MOL0     H11193   9.661   8.476   5.376  4.2465 -5.4138 -1.3703
   83MOL0     H11194   9.475   8.446   5.367 -1.8570 -0.3312 -2.6865
   83MOL0     H11195   9.659   8.404   5.134  0.6524  3.5224 -3.6374
   83MOL0     H11196   9.607   8.565   5.170 -0.2038  0.2009  1.0908
   83MOL0     H11197   9.372   8.493   5.147 -0.7939 -0.3451 -0.1490
   83MOL0     H11198   9.441   8.337   5.093 -1.5550  1.2214 -1.7630
   83MOL0     H11199   9.577   8.517   4.924 -0.1368  0.7216  0.6740
   83MOL0     H11200   9.428   8.439   4.889  1.8887  0.1992 -2.2224
   83MOL0     H11201   9.290   8.826   4.888  0.8679  1.2311  0.0823
   83MOL0     H11202   9.840   8.383   5.419 -0.0266 -0.5569  0.9588
   83MOL0     H11203  10.154   8.314   5.356  0.3255 -1.7958  0.5675
   83MOL0     H11204  10.050   8.388   5.471 -1.7727 -0.6586 -1.9436
   83MOL0     H11205  10.121   8.231   5.510 -4.9156 -2.8239  2.3364
   84MOL0     O11206   7.781   8.441   2.674 -0.1707 -0.1872 -0.8218
   84MOL0     C11207   7.787   8.480   2.559 -0.0492 -0.0103  0.3200
   84MOL0     O11208   7.847   8.594   2.522  0.9775  1.0985  0.3696
   84MOL0     C11209   7.950   8.637   2.599 -0.3409 -0.0595 -0.4645
   84MOL0     C11210   8.083   8.596   2.591  0.9664 -0.9415  0.2919
   84MOL0     C11211   8.188   8.666   2.664  0.7774 -0.0792 -0.8924
   84MOL0     C11212   8.144   8.779   2.732  0.4909  0.4932 -0.7572
   84MOL0     O11213   8.241   8.868   2.770 -0.5877  0.1630 -0.6012
   84MOL0     C11214   8.366   8.884   2.700  1.4477  0.0299  0.2550
   84MOL0     C11215   8.433   9.011   2.748 -0.5175  0.5867  0.5502
   84MOL0     C11216   8.583   9.023   2.724  0.5665 -0.1126 -1.1397
   84MOL0     C11217   8.614   9.027   2.574 -0.5502 -0.0227  0.5863
   84MOL0     C11218   8.767   9.056   2.556 -0.2576  0.7564 -0.6591
   84MOL0     C11219   8.849   8.934   2.602 -1.1224 -0.0494 -0.4631
   84MOL0     C11220   8.999   8.967   2.586  0.0226 -1.4379 -0.4003
   84MOL0     C11221   9.079   8.840   2.601 -0.4633 -0.2034  0.7813
   84MOL0     N11222   9.232   8.858   2.584  0.7080  0.1241 -1.2800
   84MOL0     C11223   9.304   8.969   2.617 -0.8608 -0.5296 -0.0687
   84MOL0     C11224   9.439   8.933   2.602 -0.0645 -0.2050  0.8326
   84MOL0     C11225   9.559   9.020   2.620 -0.4457 -0.0120  0.5905
   84MOL0     C11226   9.673   8.958   2.717  0.0953 -0.1763  0.4290
   84MOL0     C11227   9.753   9.059   2.792 -0.6983 -0.4110 -0.0464
   84MOL0     C11228   9.832   9.146   2.681 -0.4812  0.2893 -0.6644
   84MOL0     O11229   9.912   9.237   2.749 -0.2127 -0.2590  0.4301
   84MOL0     C11230  10.039   9.199   2.795 -0.1236  0.4546  0.5699
   84MOL0     C11231  10.110   9.080   2.752  0.0091 -0.0541  0.2246
   84MOL0     C11232  10.230   9.048   2.808 -0.6493  0.4519 -0.1941
   84MOL0     C11233  10.284   9.127   2.909 -0.6228  0.2661 -0.4195
   84MOL0     C11234  10.406   9.071   2.982 -0.2919 -0.9381 -0.1018
   84MOL0     O11235  10.480   9.164   3.047  0.1919  0.1911  0.0646
   84MOL0     C11236  10.563   9.106   3.138 -0.5399 -0.4772  0.0696
   84MOL0     C11237  10.524   9.109   3.269 -0.7882 -0.1569 -0.4887
   84MOL0     C11238  10.616   9.078   3.366 -0.6069  0.5661 -0.4687
   84MOL0     C11239  10.745   9.028   3.333 -0.1166  0.2436 -0.2345
   84MOL0     O11240  10.845   8.985   3.424  0.7968  0.1686  0.0192
   84MOL0     C11241  10.846   9.014   3.562  0.5798 -0.6683 -0.4081
   84MOL0     C11242  10.972   8.968   3.633 -0.1681  0.1101  1.0659
   84MOL0     C11243  11.102   9.016   3.553 -0.7091 -0.1801  0.7904
   84MOL0     C11244  11.221   8.968   3.639 -0.8514  0.3433  0.0016
   84MOL0     C11245  11.362   8.964   3.581 -0.4364 -0.4720  0.3831
   84MOL0     C11246  11.410   9.108   3.557 -0.1875  0.4877 -0.5421
   84MOL0     C11247  11.552   9.125   3.502  0.4597 -0.1924  0.2721
   84MOL0     C11248  11.592   9.266   3.516  0.6279  0.9854  1.3801
   84MOL0    Cl11249  11.760   9.285   3.453  0.5594 -0.4844 -0.4550
   84MOL0     C11250  10.783   9.030   3.201 -0.3312  0.6182  0.3860
   84MOL0     C11251  10.693   9.069   3.100 -0.1939 -0.3551  0.3247
   84MOL0     O11252  10.416   8.945   2.985  0.1071 -1.0239  0.0383
   84MOL0     C11253  10.220   9.248   2.946 -0.2799  0.9249 -0.8106
   84MOL0     C11254  10.094   9.278   2.890 -0.0933  0.7044  0.1026
   84MOL0     N11255   9.443   8.796   2.560 -0.0851 -0.3552 -0.7774
   84MOL0     N11256   9.325   8.760   2.570  0.6612  0.2504 -0.4452
   84MOL0     C11257   8.003   8.804   2.760 -0.7204  0.9276 -0.2954
   84MOL0     C11258   7.908   8.739   2.685  0.3468  0.3702  0.7158
   84MOL0     C11259   7.710   8.404   2.454  0.1844 -0.2839 -0.3905
   84MOL0     C11260   7.695   8.461   2.325  0.0909 -0.3998  0.0413
   84MOL0     C11261   7.624   8.388   2.229 -0.1974 -0.0417  0.8106
   84MOL0     C11262   7.563   8.261   2.250  1.0464 -0.0051 -0.4619
   84MOL0     O11263   7.478   8.196   2.168  0.2634  0.7974  0.7929
   84MOL0     C11264   7.473   8.239   2.032  0.6809  0.6272  0.0692
   84MOL0     C11265   7.381   8.144   1.951  0.1470  1.3876 -1.0800
   84MOL0     C11266   7.345   8.196   1.812 -0.5788  0.3343  0.1536
   84MOL0     C11267   7.266   8.318   1.803  0.1710 -0.0668 -0.0707
   84MOL0     C11268   7.138   8.324   1.878  0.2708 -1.0654  0.1932
   84MOL0     C11269   7.041   8.306   1.949 -0.1967 -0.3573 -0.3466
   84MOL0     C11270   7.584   8.208   2.373 -0.1712  0.0052 -0.7804
   84MOL0     C11271   7.655   8.274   2.478  0.6476 -0.0446  0.4514
   84MOL0     C11272   7.671   8.190   2.605 -0.0975  0.2388  0.2414
   84MOL0     H11273   8.100   8.521   2.514  1.4855 -0.1738 -0.3559
   84MOL0     H11274   8.293   8.644   2.648  1.4354 -0.3707  2.8443
   84MOL0     H11275   8.431   8.797   2.716  0.4941 -0.8160 -0.3173
   84MOL0     H11276   8.344   8.887   2.593 -2.2116 -3.2653  0.6723
   84MOL0     H11277   8.420   9.019   2.857  3.4990  0.8112  1.1618
   84MOL0     H11278   8.375   9.101   2.724 -1.1169  1.3927  4.3262
   84MOL0     H11279   8.634   8.943   2.778 -3.4286 -1.7339  0.7037
   84MOL0     H11280   8.612   9.110   2.783 -2.3983 -0.7511  1.5348
   84MOL0     H11281   8.598   8.927   2.533 -0.4688 -0.2928  1.1917
   84MOL0     H11282   8.558   9.102   2.519 -2.3103 -0.4685  1.6601
   84MOL0     H11283   8.790   9.083   2.452 -0.7821  1.6916 -0.5478
   84MOL0     H11284   8.793   9.141   2.620  2.2069 -0.8621  0.6684
   84MOL0     H11285   8.832   8.912   2.708  0.5467  0.9959  0.0672
   84MOL0     H11286   8.823   8.841   2.551 -1.4847 -0.4501  0.4203
   84MOL0     H11287   9.022   9.035   2.669 -1.3660  1.3975 -2.1584
   84MOL0     H11288   9.013   9.021   2.492 -3.0933  3.7447  1.6613
   84MOL0     H11289   9.064   8.786   2.695  1.4714 -0.4070  1.0194
   84MOL0     H11290   9.065   8.777   2.512 -1.8606  1.1435  0.0070
   84MOL0     H11291   9.258   9.062   2.649 -2.1315 -0.6635 -1.4031
   84MOL0     H11292   9.594   9.036   2.517  0.0737 -1.2015  0.5679
   84MOL0     H11293   9.532   9.113   2.671  1.4810 -0.5768  2.8294
   84MOL0     H11294   9.616   8.893   2.783  0.5266 -0.0198  0.9682
   84MOL0     H11295   9.731   8.893   2.651 -0.0630 -1.8800  1.9060
   84MOL0     H11296   9.827   9.016   2.861 -2.4115  0.9427  2.8503
   84MOL0     H11297   9.687   9.131   2.842  1.2748  1.2738  0.2442
   84MOL0     H11298   9.761   9.200   2.617  0.1373  3.2964  1.0044
   84MOL0     H11299   9.882   9.069   2.621  0.9990 -1.5260  2.5799
   84MOL0     H11300  10.071   9.008   2.681 -0.2546  0.4730 -0.1701
   84MOL0     H11301  10.277   8.961   2.764 -0.5625  0.0642  0.6522
   84MOL0     H11302  10.427   9.150   3.294  0.5574  1.8550  1.9972
   84MOL0     H11303  10.585   9.097   3.468 -0.8660  0.3128 -0.4989
   84MOL0     H11304  10.830   9.120   3.583 -0.2267 -0.4725 -1.8779
   84MOL0     H11305  10.764   8.958   3.610  0.7963  0.5505  1.5258
   84MOL0     H11306  10.977   9.023   3.727 -1.2154 -0.2753  1.3557
   84MOL0     H11307  10.976   8.860   3.649 -0.1687  0.0103  0.4396
   84MOL0     H11308  11.113   8.979   3.451  1.4944  0.3146  0.7776
   84MOL0     H11309  11.102   9.124   3.538  2.1833 -0.5225 -3.8782
   84MOL0     H11310  11.209   8.864   3.671  0.3428  0.1737 -0.0722
   84MOL0     H11311  11.232   9.030   3.728  0.0209 -2.4016  1.9273
   84MOL0     H11312  11.362   8.905   3.489  0.5711  1.3577 -0.8484
   84MOL0     H11313  11.435   8.906   3.640 -1.6936 -1.7215  0.7612
   84MOL0     H11314  11.347   9.163   3.487 -1.1940  1.4736  1.0581
   84MOL0     H11315  11.409   9.157   3.655 -1.2932 -0.8354  0.1571
   84MOL0     H11316  11.558   9.100   3.395 -1.1598  0.3100  0.0435
   84MOL0     H11317  11.626   9.056   3.545  1.9734  0.0456 -1.7759
   84MOL0     H11318  11.520   9.319   3.453 -0.1556  0.5775  1.9169
   84MOL0     H11319  11.586   9.303   3.619  0.3178 -0.1138  1.7718
   84MOL0     H11320  10.886   9.004   3.181 -0.2154  0.2518  1.4217
   84MOL0     H11321  10.726   9.085   2.998 -1.4705  0.7947  0.0551
   84MOL0     H11322  10.247   9.311   3.030 -1.8886 -2.0919  2.2513
   84MOL0     H11323  10.049   9.374   2.917  0.2856  1.3861 -1.5617
   84MOL0     H11324   7.975   8.891   2.818 -1.5048  1.0109 -0.7818
   84MOL0     H11325   7.802   8.764   2.689  0.9267  2.9857  2.7333
   84MOL0     H11326   7.726   8.561   2.297 -2.0808  0.5162  0.7131
   84MOL0     H11327   7.619   8.436   2.131  0.6223 -0.0239  0.7753
   84MOL0     H11328   7.568   8.252   1.980  0.4295 -3.3556 -1.7302
   84MOL0     H11329   7.421   8.336   2.033  1.5437  1.0972  1.0829
   84MOL0     H11330   7.288   8.120   2.003  1.0503 -0.7541 -0.3491
   84MOL0     H11331   7.443   8.054   1.950  1.8996  2.3871  2.3113
   84MOL0     H11332   7.283   8.117   1.768 -1.7186 -2.0792  5.3042
   84MOL0     H11333   7.433   8.201   1.748 -1.2501 -1.7221 -1.0376
   84MOL0     H11334   7.329   8.405   1.824 -1.2584  0.8857  0.3883
   84MOL0     H11335   7.240   8.323   1.696 -0.4999  1.0501  0.1306
   84MOL0     H11336   6.950   8.282   2.002  0.3609 -0.5628  0.5478
   84MOL0     H11337   7.538   8.110   2.379 -3.1813  1.1772 -2.3507
   84MOL0     H11338   7.623   8.219   2.699  2.3766 -2.4298  2.5361
   84MOL0     H11339   7.630   8.090   2.592  0.0170 -0.4462  4.0445
   84MOL0     H11340   7.779   8.174   2.620 -0.2243 -0.3252  0.5700
   85MOL0     O11341   0.537   2.148   7.010 -0.6194  0.1286  0.3593
   85MOL0     C11342   0.604   2.235   6.957  0.8764  0.3236  0.1612
   85MOL0     O11343   0.732   2.248   6.972 -0.4738  0.0957 -1.2784
   85MOL0     C11344   0.781   2.228   7.103 -0.0237  0.1687  0.4325
   85MOL0     C11345   0.762   2.313   7.201 -0.5358 -0.5239  0.5183
   85MOL0     C11346   0.826   2.298   7.327  0.1812  0.4565  0.8094
   85MOL0     C11347   0.911   2.193   7.350 -0.3845 -0.4842 -1.1389
   85MOL0     O11348   0.965   2.193   7.475  0.2276  0.8026 -0.1661
   85MOL0     C11349   1.024   2.065   7.506 -0.5150  0.2157 -0.2203
   85MOL0     C11350   1.175   2.066   7.471  0.0905  0.0575  0.3599
   85MOL0     C11351   1.256   2.160   7.557 -0.2233  0.2634  0.2806
   85MOL0     C11352   1.268   2.119   7.710 -1.0342 -0.4664  0.5414
   85MOL0     C11353   1.328   2.237   7.789 -0.2576 -0.6297  0.7173
   85MOL0     C11354   1.327   2.226   7.946  0.5443 -0.0164  0.2486
   85MOL0     C11355   1.396   2.099   7.998 -0.1686  0.7112 -0.6349
   85MOL0     C11356   1.383   2.087   8.153  1.2436 -0.9699 -0.5587
   85MOL0     N11357   1.477   1.988   8.209  0.5787  1.0926  0.2282
   85MOL0     C11358   1.565   1.991   8.314 -0.1802 -0.5601  0.4396
   85MOL0     C11359   1.600   1.866   8.346  0.5475 -0.3964  0.1047
   85MOL0     C11360   1.699   1.815   8.443  1.1495 -0.6927 -0.8604
   85MOL0     C11361   1.657   1.823   8.592 -0.2442  0.3536 -0.0878
   85MOL0     C11362   1.514   1.789   8.614 -0.4404  0.1830 -0.8288
   85MOL0     C11363   1.495   1.778   8.764 -0.8962 -0.3126 -0.5181
   85MOL0     O11364   1.374   1.719   8.806  0.6613  0.4399 -0.0970
   85MOL0     C11365   1.257   1.791   8.819 -0.2066  0.1186  0.3059
   85MOL0     C11366   1.193   1.863   8.715 -0.1048 -0.0885  0.3900
   85MOL0     C11367   1.078   1.929   8.737  0.2196 -0.2824  0.6566
   85MOL0     C11368   1.017   1.929   8.858 -0.4962 -1.3302  0.4851
   85MOL0     C11369   0.890   1.985   8.875  0.6106  0.3672  0.0665
   85MOL0     O11370   0.830   1.978   8.997  0.1404  0.2437 -0.0044
   85MOL0     C11371   0.710   2.050   9.021 -1.2220 -0.2204 -0.3702
   85MOL0     C11372   0.596   2.026   8.948  0.3105 -0.4621  0.3060
   85MOL0     C11373   0.484   2.111   8.968 -0.1946 -0.1583 -0.7600
   85MOL0     C11374   0.485   2.209   9.068 -0.4297  0.4569  0.0906
   85MOL0     O11375   0.388   2.302   9.096 -0.2775  0.0262 -0.9616
   85MOL0     C11376   0.308   2.351   8.986  0.3631  0.6745 -0.3360
   85MOL0     C11377   0.212   2.469   9.024  0.5518  0.3227  0.0854
   85MOL0     C11378   0.295   2.601   9.063 -0.0247 -1.1716 -0.1354
   85MOL0     C11379   0.197   2.703   9.116  0.2454  0.0375  0.1638
   85MOL0     C11380   0.262   2.830   9.172 -0.0985  0.1701  1.0872
   85MOL0     C11381   0.345   2.906   9.070 -0.7125  0.1427  0.0763
   85MOL0     C11382   0.400   3.039   9.143  0.1800 -0.6291  0.2223
   85MOL0     C11383   0.501   3.110   9.048 -0.1152  0.0971 -0.6066
   85MOL0    Cl11384   0.638   3.009   8.990  0.2586 -0.2926 -0.2860
   85MOL0     C11385   0.597   2.209   9.159  0.6129  0.1549 -0.0974
   85MOL0     C11386   0.707   2.133   9.134  0.5704  0.6576 -0.7336
   85MOL0     O11387   0.827   2.025   8.772 -0.9471 -0.2568 -0.2848
   85MOL0     C11388   1.079   1.857   8.962  0.1396 -0.8752 -0.1568
   85MOL0     C11389   1.198   1.791   8.947  0.8063  0.2466  0.2012
   85MOL0     N11390   1.552   1.791   8.244 -0.3257 -0.0055 -0.4875
   85MOL0     N11391   1.472   1.854   8.164 -0.4536 -0.0047 -1.1939
   85MOL0     C11392   0.946   2.114   7.238  0.2474  0.4489  0.0513
   85MOL0     C11393   0.884   2.129   7.116 -0.8994 -1.1596  0.5815
   85MOL0     C11394   0.532   2.326   6.859 -0.8367 -0.6075  0.5885
   85MOL0     C11395   0.611   2.411   6.779 -0.3502  0.4137  0.6166
   85MOL0     C11396   0.554   2.510   6.700  0.2475 -0.8341  0.8598
   85MOL0     C11397   0.416   2.510   6.669 -0.1682  0.2606 -0.5823
   85MOL0     O11398   0.375   2.618   6.593 -0.3877  0.0269 -0.0746
   85MOL0     C11399   0.242   2.634   6.545  0.0481 -0.8355  0.9884
   85MOL0     C11400   0.236   2.553   6.408 -0.6194 -0.5021  0.0465
   85MOL0     C11401   0.095   2.541   6.355 -0.4827  0.0982  0.6061
   85MOL0     C11402   0.093   2.471   6.217  0.3874 -0.4958 -0.1508
   85MOL0     C11403  -0.045   2.458   6.176  0.7625 -0.0582  0.5854
   85MOL0     C11404  -0.154   2.450   6.134  1.0758  0.0847  1.2199
   85MOL0     C11405   0.333   2.414   6.736  0.0409 -0.2583 -0.3306
   85MOL0     C11406   0.390   2.335   6.836 -1.1763 -1.2246 -0.6946
   85MOL0     C11407   0.287   2.269   6.926 -0.4367  0.8117 -0.0140
   85MOL0     H11408   0.690   2.391   7.176 -4.3428 -3.2903  1.8328
   85MOL0     H11409   0.812   2.375   7.403  3.0182  3.2237 -1.1929
   85MOL0     H11410   0.995   2.052   7.611 -2.1984  0.5129 -0.6159
   85MOL0     H11411   0.985   1.973   7.461 -0.6287 -0.5051  1.2626
   85MOL0     H11412   1.182   2.093   7.365 -1.8897 -1.6524 -0.2906
   85MOL0     H11413   1.208   1.962   7.485 -2.4352 -0.9179 -0.3086
   85MOL0     H11414   1.216   2.259   7.537 -1.4053 -0.3982 -0.7870
   85MOL0     H11415   1.359   2.164   7.519 -0.0318  2.7920  0.8958
   85MOL0     H11416   1.166   2.103   7.744 -1.6483 -0.5382 -1.2314
   85MOL0     H11417   1.330   2.029   7.720  3.5641  2.2903 -0.3103
   85MOL0     H11418   1.430   2.248   7.753 -1.1299  0.3369 -1.6676
   85MOL0     H11419   1.273   2.331   7.774 -0.2913 -0.9143 -1.1932
   85MOL0     H11420   1.365   2.316   7.995 -0.9998  0.1906  1.1605
   85MOL0     H11421   1.225   2.208   7.982  0.5860  0.9500  0.8853
   85MOL0     H11422   1.503   2.099   7.976  0.4754 -0.9843  1.9548
   85MOL0     H11423   1.352   2.013   7.947 -1.8603  1.3530 -0.3077
   85MOL0     H11424   1.379   2.187   8.195 -1.6714  0.5546 -3.9878
   85MOL0     H11425   1.281   2.054   8.174  1.4233 -0.2167  1.7656
   85MOL0     H11426   1.604   2.081   8.363 -1.5985 -1.1607  2.8267
   85MOL0     H11427   1.726   1.712   8.420  3.1509  0.1985 -2.8574
   85MOL0     H11428   1.795   1.865   8.428  1.4904 -1.0709 -0.0097
   85MOL0     H11429   1.715   1.754   8.655 -1.0728  0.7353  1.1308
   85MOL0     H11430   1.683   1.922   8.631  1.6955 -0.3482  0.5612
   85MOL0     H11431   1.491   1.688   8.579  1.2471 -0.7383  0.5392
   85MOL0     H11432   1.451   1.859   8.559 -1.5078 -0.3384 -0.3026
   85MOL0     H11433   1.514   1.876   8.809 -1.1931 -0.3445 -0.3142
   85MOL0     H11434   1.574   1.712   8.800  1.1550  2.8647  1.3594
   85MOL0     H11435   1.241   1.867   8.618 -1.6558 -2.3815 -0.5395
   85MOL0     H11436   1.031   1.985   8.656  2.7288 -2.8896 -2.9306
   85MOL0     H11437   0.587   1.949   8.872 -2.5893 -1.2556  1.3274
   85MOL0     H11438   0.400   2.080   8.906 -0.0863  0.1034 -1.0370
   85MOL0     H11439   0.377   2.379   8.906 -0.7344 -0.2230 -1.6439
   85MOL0     H11440   0.238   2.274   8.953 -1.4733  0.1213  4.1924
   85MOL0     H11441   0.139   2.483   8.943  0.0672 -0.2061  0.4236
   85MOL0     H11442   0.153   2.445   9.112  0.3444  0.7802  0.0806
   85MOL0     H11443   0.372   2.581   9.138 -2.1964 -0.9458  2.3027
   85MOL0     H11444   0.334   2.636   8.967 -0.4528 -1.2005 -0.3213
   85MOL0     H11445   0.127   2.654   9.184  1.5211 -0.6661  1.0141
   85MOL0     H11446   0.131   2.732   9.033 -1.2706 -0.7538  1.0587
   85MOL0     H11447   0.325   2.801   9.257 -0.2976  1.0183  1.5392
   85MOL0     H11448   0.186   2.895   9.216 -1.3239  0.5311 -1.4220
   85MOL0     H11449   0.416   2.834   9.027 -0.8310 -2.0217  3.1351
   85MOL0     H11450   0.263   2.937   9.004  1.6752  3.9831 -1.4498
   85MOL0     H11451   0.439   3.022   9.244  1.9832  2.8378  0.2616
   85MOL0     H11452   0.317   3.108   9.155  0.0925 -0.1853 -2.3269
   85MOL0     H11453   0.453   3.146   8.957 -0.7785  0.0459 -0.2799
   85MOL0     H11454   0.540   3.187   9.115  1.3629 -0.1818 -1.0976
   85MOL0     H11455   0.583   2.264   9.251 -1.3139  0.6251 -0.6291
   85MOL0     H11456   0.792   2.135   9.201 -0.8243 -3.3073  1.5161
   85MOL0     H11457   1.017   1.835   9.049  0.2479 -1.0762 -0.1288
   85MOL0     H11458   1.253   1.732   9.019  0.9248 -1.8116 -1.4740
   85MOL0     H11459   1.033   2.049   7.237  2.6011  3.2858  2.1873
   85MOL0     H11460   0.917   2.077   7.027 -0.0919 -2.3657  1.5459
   85MOL0     H11461   0.719   2.418   6.782 -0.2574 -0.3533 -0.3666
   85MOL0     H11462   0.606   2.585   6.641 -0.9188 -0.4241  0.3201
   85MOL0     H11463   0.220   2.741   6.541  1.2051 -0.6271 -2.8425
   85MOL0     H11464   0.166   2.582   6.604 -0.0261 -1.6892  0.1667
   85MOL0     H11465   0.266   2.448   6.414  0.6518 -0.1595 -0.0278
   85MOL0     H11466   0.297   2.602   6.332 -2.3098 -0.4650 -1.3657
   85MOL0     H11467   0.041   2.635   6.344 -0.3499  0.0659 -0.4105
   85MOL0     H11468   0.044   2.470   6.421  2.8004 -2.5620  0.5399
   85MOL0     H11469   0.141   2.540   6.147 -4.0679  2.4663 -0.6537
   85MOL0     H11470   0.149   2.376   6.223  1.0248 -0.0304  2.2517
   85MOL0     H11471  -0.246   2.421   6.087  0.7226  0.2335  1.8099
   85MOL0     H11472   0.225   2.409   6.729  0.0088 -0.0036 -0.0471
   85MOL0     H11473   0.312   2.301   7.027 -1.2739 -0.8931  0.7788
   85MOL0     H11474   0.182   2.296   6.908 -1.1647 -0.7241  1.6239
   85MOL0     H11475   0.303   2.162   6.913 -1.3009  0.8808 -2.1428
   86MOL0     O11476   3.345   2.259   9.840 -0.6342 -0.4287  0.5315
   86MOL0     C11477   3.313   2.163   9.770  0.1086 -0.0854  0.4775
   86MOL0     O11478   3.390   2.078   9.702  0.0458  0.1780 -0.0830
   86MOL0     C11479   3.528   2.096   9.718 -0.2832  0.0138 -0.3839
   86MOL0     C11480   3.614   2.011   9.800 -0.1730  0.0832 -0.0202
   86MOL0     C11481   3.747   2.044   9.818 -0.5106 -0.8744  1.2326
   86MOL0     C11482   3.800   2.159   9.753  0.1124 -0.0278  0.1436
   86MOL0     O11483   3.926   2.187   9.774 -0.0351 -0.0864  0.3356
   86MOL0     C11484   3.981   2.318   9.717 -0.8391  0.8372 -0.2713
   86MOL0     C11485   4.135   2.313   9.737  0.4946 -0.6183 -0.8940
   86MOL0     C11486   4.216   2.444   9.734  0.2884  0.8476 -0.8846
   86MOL0     C11487   4.357   2.406   9.753 -1.0596 -0.1705 -0.5073
   86MOL0     C11488   4.466   2.515   9.704  0.0463 -0.0726 -0.1925
   86MOL0     C11489   4.497   2.628   9.799  0.1955 -0.0089 -0.0075
   86MOL0     C11490   4.599   2.728   9.760  0.0422  0.2745 -0.0676
   86MOL0     C11491   4.738   2.669   9.746 -0.8618  0.8465 -0.1996
   86MOL0     N11492   4.844   2.764   9.785 -0.3196  0.0521  0.7689
   86MOL0     C11493   4.920   2.845   9.699  0.4249 -0.2561 -0.2911
   86MOL0     C11494   5.015   2.897   9.776 -0.8404 -0.1088  0.5541
   86MOL0     C11495   5.132   2.986   9.730  0.6294 -0.6638  0.2691
   86MOL0     C11496   5.256   2.900   9.686  0.6185  0.8889  0.7349
   86MOL0     C11497   5.357   2.991   9.617 -0.5913  0.0926  0.9178
   86MOL0     C11498   5.503   2.945   9.631 -0.5128 -1.2526  0.3798
   86MOL0     O11499   5.551   2.972   9.762  0.2911 -0.4178 -0.0558
   86MOL0     C11500   5.686   2.978   9.784 -0.6246  0.1014  0.6855
   86MOL0     C11501   5.788   2.972   9.690  0.0772  0.8126 -0.1375
   86MOL0     C11502   5.921   2.980   9.726 -0.2251  0.7459 -0.1421
   86MOL0     C11503   5.966   2.985   9.862  0.1644  0.0806  0.5597
   86MOL0     C11504   6.108   2.977   9.902  0.6818 -0.5341 -0.4179
   86MOL0     O11505   6.139   3.021  10.026  0.2794 -0.0347  0.2007
   86MOL0     C11506   6.265   3.011  10.056  0.2778 -0.4528  0.8959
   86MOL0     C11507   6.324   2.887  10.080 -0.1393 -0.3472 -0.2752
   86MOL0     C11508   6.457   2.876  10.117 -0.5410 -0.1607  0.0968
   86MOL0     C11509   6.540   2.988  10.103  0.6431  0.0453 -0.4158
   86MOL0     O11510   6.673   2.981  10.119 -0.4862  0.3790 -0.4160
   86MOL0     C11511   6.739   3.097  10.180  0.4355  0.4072  0.0277
   86MOL0     C11512   6.832   3.037  10.280 -0.3139  0.0875 -0.7289
   86MOL0     C11513   6.959   2.991  10.222  0.1681 -0.2376  0.0925
   86MOL0     C11514   7.064   2.946  10.333  0.2232  0.8813  0.1909
   86MOL0     C11515   7.203   2.910  10.302 -0.0917  1.1179 -0.2521
   86MOL0     C11516   7.297   3.022  10.259  0.5096 -0.5874 -0.1711
   86MOL0     C11517   7.437   2.960  10.253 -0.6846 -0.4426 -0.4862
   86MOL0     C11518   7.538   3.060  10.186  0.2419 -0.3109  0.1334
   86MOL0    Cl11519   7.697   2.986  10.185  0.0479  0.1150  0.2994
   86MOL0     C11520   6.482   3.116  10.081  0.7223  0.5890  0.3061
   86MOL0     C11521   6.342   3.124  10.056  0.3126  0.6360 -0.5895
   86MOL0     O11522   6.183   2.944   9.813 -0.6019 -0.0386  0.3428
   86MOL0     C11523   5.863   3.000   9.960  0.7974  0.4754  0.4259
   86MOL0     C11524   5.727   3.001   9.915  0.4162 -0.8873  0.5083
   86MOL0     N11525   4.999   2.850   9.899 -0.0400  1.1262  0.0124
   86MOL0     N11526   4.902   2.766   9.909 -0.0836 -0.0759 -0.3112
   86MOL0     C11527   3.717   2.235   9.670  0.9695  0.4020 -0.1748
   86MOL0     C11528   3.585   2.193   9.648  0.6697 -0.5880  0.0027
   86MOL0     C11529   3.171   2.172   9.741  1.0119  0.0916  0.4335
   86MOL0     C11530   3.119   2.296   9.704  0.4163  0.6451  0.0480
   86MOL0     C11531   2.986   2.309   9.660  0.3186 -0.6195  0.0422
   86MOL0     C11532   2.896   2.204   9.654  0.2164 -0.3873  0.3281
   86MOL0     O11533   2.763   2.239   9.626  0.0682 -0.7778  1.1357
   86MOL0     C11534   2.672   2.127   9.617 -0.3878  0.3487 -0.8053
   86MOL0     C11535   2.541   2.165   9.558  0.6670  0.3338 -0.1596
   86MOL0     C11536   2.447   2.041   9.570  0.2234  0.8072 -0.7345
   86MOL0     C11537   2.350   2.054   9.679  0.4907 -0.2205 -0.2660
   86MOL0     C11538   2.242   2.144   9.647  0.5423 -0.3975  0.6716
   86MOL0     C11539   2.160   2.232   9.622  0.2009  0.0280 -0.3574
   86MOL0     C11540   2.940   2.076   9.704  0.3565 -0.3182  0.1211
   86MOL0     C11541   3.074   2.059   9.746  1.1204 -0.0798  0.1213
   86MOL0     C11542   3.116   1.916   9.777  0.7435  0.0492  0.9041
   86MOL0     H11543   3.559   1.929   9.845 -1.1623  0.7005 -0.0701
   86MOL0     H11544   3.819   1.984   9.872  3.1848  1.5172 -0.6245
   86MOL0     H11545   3.968   2.311   9.609  3.3928  0.3092 -0.9079
   86MOL0     H11546   3.933   2.413   9.744 -1.2224  1.3958 -2.6832
   86MOL0     H11547   4.172   2.240   9.664  1.4012 -2.1223  0.9714
   86MOL0     H11548   4.155   2.263   9.832  1.8490 -0.3338 -1.0091
   86MOL0     H11549   4.175   2.501   9.818 -2.8581 -1.0496 -1.0033
   86MOL0     H11550   4.199   2.506   9.645  1.5695  1.0564 -1.0193
   86MOL0     H11551   4.371   2.387   9.860 -1.8871  0.0913 -0.3517
   86MOL0     H11552   4.379   2.309   9.708 -1.3935 -1.2079  1.4766
   86MOL0     H11553   4.562   2.465   9.687  0.2236 -0.2839  1.3024
   86MOL0     H11554   4.432   2.559   9.610  2.2092  2.2628  0.0208
   86MOL0     H11555   4.410   2.689   9.824 -0.4780 -1.4923  1.3989
   86MOL0     H11556   4.520   2.576   9.892  0.2880 -0.7816 -0.4502
   86MOL0     H11557   4.610   2.798   9.843 -2.0744  1.0915 -0.4310
   86MOL0     H11558   4.557   2.775   9.671  1.2911 -1.4792 -1.6894
   86MOL0     H11559   4.740   2.585   9.815 -0.8036  2.3599  1.7261
   86MOL0     H11560   4.752   2.624   9.647 -0.3746  0.3040  0.1106
   86MOL0     H11561   4.930   2.843   9.591  1.1323  0.6379 -0.2524
   86MOL0     H11562   5.095   3.048   9.648 -1.8374 -1.0424  1.0074
   86MOL0     H11563   5.168   3.043   9.816 -1.0959 -0.4324  0.8869
   86MOL0     H11564   5.293   2.854   9.778 -1.2682  1.0872  1.6289
   86MOL0     H11565   5.220   2.824   9.616  0.3284  2.3304 -0.7396
   86MOL0     H11566   5.342   3.094   9.651 -2.9340  0.5648 -1.2414
   86MOL0     H11567   5.345   2.992   9.508 -1.0050 -0.5556  0.9510
   86MOL0     H11568   5.570   2.987   9.556 -1.8520  0.0402 -0.1366
   86MOL0     H11569   5.506   2.837   9.611  1.4918 -1.5155  1.7939
   86MOL0     H11570   5.757   2.973   9.586  0.7998  2.3728 -0.3549
   86MOL0     H11571   5.994   2.994   9.647  0.6495 -1.1254  0.2883
   86MOL0     H11572   6.251   2.807  10.079 -0.2200 -0.2726 -0.3588
   86MOL0     H11573   6.486   2.775  10.146 -1.1385 -1.0311 -2.0869
   86MOL0     H11574   6.791   3.163  10.110  0.6013  0.2231 -0.0224
   86MOL0     H11575   6.664   3.153  10.237 -0.1843 -1.2637  0.9440
   86MOL0     H11576   6.850   3.107  10.363 -4.0206 -0.4849  0.7389
   86MOL0     H11577   6.789   2.946  10.324  0.0637  0.5523  0.6833
   86MOL0     H11578   6.946   2.902  10.161 -0.1881  0.1560 -0.4108
   86MOL0     H11579   6.997   3.072  10.158 -1.3682  0.9954  0.6708
   86MOL0     H11580   7.028   2.864  10.396  0.2070  1.0942  0.4582
   86MOL0     H11581   7.080   3.025  10.407  1.7496 -0.2204  1.0942
   86MOL0     H11582   7.206   2.829  10.228 -0.7750 -0.4099  1.3131
   86MOL0     H11583   7.234   2.869  10.399 -0.7879  1.9015  0.3111
   86MOL0     H11584   7.272   3.061  10.161  2.8413 -1.3548 -1.1432
   86MOL0     H11585   7.294   3.111  10.322  1.9941 -1.2095  0.8472
   86MOL0     H11586   7.423   2.867  10.198 -1.6769 -0.3433 -0.4136
   86MOL0     H11587   7.487   2.948  10.350  2.6191  4.3236 -1.1966
   86MOL0     H11588   7.513   3.060  10.080  1.2351 -1.4830 -0.1239
   86MOL0     H11589   7.536   3.158  10.234 -0.7594  0.5580 -1.5893
   86MOL0     H11590   6.538   3.209  10.071  0.1743  0.9791  0.8116
   86MOL0     H11591   6.304   3.222  10.032  0.5341  0.6626 -0.8331
   86MOL0     H11592   5.890   2.996  10.064  2.2731  0.1301  0.0512
   86MOL0     H11593   5.650   3.027   9.988  0.1916 -3.6642  1.3810
   86MOL0     H11594   3.753   2.320   9.612  0.7148  0.6136 -0.0253
   86MOL0     H11595   3.518   2.255   9.588  0.9112  1.6086  1.8344
   86MOL0     H11596   3.185   2.382   9.706 -1.3729  2.1039 -0.4935
   86MOL0     H11597   2.956   2.410   9.632 -1.6892 -1.1702  0.0293
   86MOL0     H11598   2.654   2.074   9.712  4.0867  0.7904  0.5194
   86MOL0     H11599   2.716   2.054   9.549 -1.8409  0.0046 -1.4209
   86MOL0     H11600   2.550   2.195   9.453 -1.8445 -1.8642 -1.1283
   86MOL0     H11601   2.485   2.245   9.608  1.2131  0.5355  0.1296
   86MOL0     H11602   2.498   1.945   9.583  0.3336  0.9554  0.0119
   86MOL0     H11603   2.386   2.029   9.480 -1.2064  1.1995  0.1369
   86MOL0     H11604   2.295   1.960   9.688  0.8978 -0.2805  2.4119
   86MOL0     H11605   2.408   2.082   9.768  1.3138  0.9001 -1.1403
   86MOL0     H11606   2.108   2.322   9.596  1.9429  1.5714  1.1763
   86MOL0     H11607   2.870   1.993   9.706 -2.1046  1.6300 -0.8151
   86MOL0     H11608   3.212   1.903   9.828  0.7515  0.8108  1.0980
   86MOL0     H11609   3.037   1.865   9.833 -2.2244  1.1789 -1.9154
   86MOL0     H11610   3.122   1.859   9.684  0.8082  2.2185 -0.4955
   87MOL0     O11611   4.285   6.925   7.705 -0.2589  0.3043  0.4817
   87MOL0     C11612   4.217   6.974   7.610 -0.1798 -0.9291  0.5734
   87MOL0     O11613   4.201   7.105   7.591 -0.1013  0.3108  0.6111
   87MOL0     C11614   4.251   7.194   7.674  0.1917 -0.3822 -0.1747
   87MOL0     C11615   4.393   7.213   7.660  0.5347  1.0879 -0.4959
   87MOL0     C11616   4.450   7.312   7.736  0.2107 -0.7127  0.4441
   87MOL0     C11617   4.373   7.402   7.816 -0.6371  0.0233 -0.5941
   87MOL0     O11618   4.448   7.511   7.869 -0.5553 -0.9191  0.5846
   87MOL0     C11619   4.384   7.593   7.970 -0.2469 -0.1169 -0.7004
   87MOL0     C11620   4.344   7.730   7.907  0.9825  0.1300 -0.0300
   87MOL0     C11621   4.297   7.828   8.014  0.0491 -0.2594  0.2260
   87MOL0     C11622   4.239   7.964   7.964 -0.2863 -0.4559 -0.1907
   87MOL0     C11623   4.176   7.976   7.827 -0.7459  0.8590 -0.5273
   87MOL0     C11624   4.122   8.114   7.786  0.2859 -0.6886 -0.1556
   87MOL0     C11625   4.038   8.104   7.653 -0.3067 -0.1752 -0.4024
   87MOL0     C11626   4.015   8.238   7.595  0.8210 -0.8041  0.5143
   87MOL0     N11627   4.000   8.220   7.454  0.0323 -0.5436  0.1715
   87MOL0     C11628   3.912   8.156   7.376  0.9579 -0.2848 -0.5312
   87MOL0     C11629   3.928   8.206   7.251 -0.5183 -0.1881 -0.5038
   87MOL0     C11630   3.853   8.175   7.128 -0.1665 -1.2869 -0.0433
   87MOL0     C11631   3.734   8.267   7.114  0.5482 -0.3746 -0.4204
   87MOL0     C11632   3.616   8.205   7.196 -1.0097  0.0423  0.6034
   87MOL0     C11633   3.482   8.272   7.149 -0.2143  0.4752 -0.1989
   87MOL0     O11634   3.378   8.194   7.208 -0.0182  0.4074 -0.4224
   87MOL0     C11635   3.251   8.248   7.210  0.0963  0.2298 -0.0031
   87MOL0     C11636   3.206   8.355   7.131  0.6213  0.4976 -0.7004
   87MOL0     C11637   3.075   8.396   7.143 -0.1496  0.4801 -0.8757
   87MOL0     C11638   2.985   8.323   7.224  0.6912 -0.4008 -0.6601
   87MOL0     C11639   2.845   8.369   7.234 -0.5686  0.4580 -0.3177
   87MOL0     O11640   2.764   8.287   7.297  0.4569 -1.0355  0.4602
   87MOL0     C11641   2.633   8.302   7.322 -0.3896  0.3662  0.3122
   87MOL0     C11642   2.561   8.181   7.328  0.0578 -0.8060  0.5034
   87MOL0     C11643   2.423   8.183   7.342 -0.3884 -0.0260  0.3985
   87MOL0     C11644   2.354   8.300   7.358  0.2030 -0.1246 -0.4991
   87MOL0     O11645   2.215   8.296   7.380  0.3532 -0.2333 -0.1824
   87MOL0     C11646   2.137   8.417   7.396 -0.1610  0.8372  0.1044
   87MOL0     C11647   2.117   8.441   7.544  0.3049  0.0476  0.2900
   87MOL0     C11648   2.245   8.481   7.619  0.3554 -0.9593 -0.0920
   87MOL0     C11649   2.212   8.502   7.769 -0.3872 -0.3857 -0.4228
   87MOL0     C11650   2.336   8.494   7.865  0.4119  0.6612 -0.2673
   87MOL0     C11651   2.287   8.517   8.014  1.3458 -0.6183 -0.2516
   87MOL0     C11652   2.209   8.641   8.030  0.3430 -0.0399  0.2361
   87MOL0     C11653   2.202   8.692   8.176 -0.2551  0.5702  0.5296
   87MOL0    Cl11654   2.082   8.588   8.260 -0.1018  0.3640 -0.4066
   87MOL0     C11655   2.424   8.421   7.348  0.3072  0.1703 -0.7523
   87MOL0     C11656   2.562   8.417   7.330  0.0488  1.0798  0.1405
   87MOL0     O11657   2.815   8.475   7.184  0.0794 -0.4406 -0.5364
   87MOL0     C11658   3.032   8.213   7.296 -0.1509  0.4865 -0.0441
   87MOL0     C11659   3.161   8.171   7.285 -0.2926 -0.8112  0.5313
   87MOL0     N11660   4.021   8.308   7.264  0.1074  0.1172 -0.0373
   87MOL0     N11661   4.074   8.306   7.377  0.1244 -0.2083 -0.1863
   87MOL0     C11662   4.231   7.391   7.808 -2.0386 -0.0901 -0.6888
   87MOL0     C11663   4.168   7.290   7.736 -0.2580  0.7239 -0.0909
   87MOL0     C11664   4.124   6.885   7.535 -0.8182 -0.5795 -0.3907
   87MOL0     C11665   3.986   6.921   7.518  0.7246 -0.3067 -0.4560
   87MOL0     C11666   3.894   6.822   7.470  0.1603  0.7082 -0.6156
   87MOL0     C11667   3.936   6.690   7.433 -0.1841 -0.6304  0.0365
   87MOL0     O11668   3.856   6.586   7.410  0.2696  0.4935 -0.5368
   87MOL0     C11669   3.760   6.619   7.308  0.4756  0.5508  0.9224
   87MOL0     C11670   3.692   6.492   7.247  0.1682  0.3075  1.3614
   87MOL0     C11671   3.575   6.425   7.334 -0.2077  0.8834 -0.3046
   87MOL0     C11672   3.441   6.477   7.288  0.3020  0.0430  0.0336
   87MOL0     C11673   3.327   6.424   7.366 -0.0518 -0.0564 -0.7307
   87MOL0     C11674   3.231   6.368   7.417  0.0209 -0.2735 -0.1665
   87MOL0     C11675   4.074   6.663   7.432 -0.4345 -0.6661 -0.6859
   87MOL0     C11676   4.166   6.754   7.482 -0.3532 -0.1124 -0.9340
   87MOL0     C11677   4.301   6.688   7.497 -0.3050  0.9472  0.4056
   87MOL0     H11678   4.451   7.150   7.593 -0.1332  0.7995 -0.8228
   87MOL0     H11679   4.556   7.332   7.729 -0.5123  3.0316 -2.7327
   87MOL0     H11680   4.294   7.550   8.016  2.1055 -1.9287  2.5909
   87MOL0     H11681   4.448   7.617   8.055  0.9740  0.1485 -1.6636
   87MOL0     H11682   4.269   7.719   7.827 -1.2944  2.3514  1.6226
   87MOL0     H11683   4.437   7.771   7.866  0.6340  0.2726 -0.7021
   87MOL0     H11684   4.374   7.843   8.090  0.0199  1.9217 -0.0970
   87MOL0     H11685   4.214   7.781   8.068 -3.1136  0.5792 -3.4784
   87MOL0     H11686   4.158   7.994   8.031  0.1791 -1.6235  0.9469
   87MOL0     H11687   4.314   8.044   7.970 -3.0143  2.5003 -2.2967
   87MOL0     H11688   4.247   7.935   7.754  0.9704  1.1976  0.9100
   87MOL0     H11689   4.094   7.904   7.820  1.4133 -1.9553  0.9439
   87MOL0     H11690   4.052   8.156   7.859 -2.2391 -1.3789 -2.0348
   87MOL0     H11691   4.204   8.182   7.762 -1.5461  2.1856  1.2313
   87MOL0     H11692   3.940   8.059   7.672 -0.5293  0.6114  0.4082
   87MOL0     H11693   4.092   8.036   7.586 -2.4950 -0.9970 -1.4113
   87MOL0     H11694   3.920   8.277   7.633 -0.9954 -2.4100 -1.9886
   87MOL0     H11695   4.092   8.314   7.606 -1.7736  2.0225  0.4070
   87MOL0     H11696   3.853   8.072   7.410  0.2333  0.0128 -1.0394
   87MOL0     H11697   3.921   8.191   7.043 -0.2037  1.9346  0.4202
   87MOL0     H11698   3.811   8.074   7.126 -1.0561 -1.0216  2.5335
   87MOL0     H11699   3.752   8.368   7.152  0.2826 -0.2881 -0.5230
   87MOL0     H11700   3.711   8.282   7.008  0.4319  1.6089 -0.1465
   87MOL0     H11701   3.637   8.238   7.298  1.3206  0.6673 -0.0388
   87MOL0     H11702   3.611   8.097   7.178  0.4456  0.5845 -4.8314
   87MOL0     H11703   3.468   8.267   7.041 -2.1962 -0.3472  0.0526
   87MOL0     H11704   3.475   8.377   7.180  0.3718  1.0015 -1.7872
   87MOL0     H11705   3.260   8.408   7.053  1.8947 -0.2767 -0.3747
   87MOL0     H11706   3.043   8.483   7.085 -1.8636 -0.0923 -0.8539
   87MOL0     H11707   2.612   8.086   7.313  0.3741 -0.2305 -2.5885
   87MOL0     H11708   2.368   8.089   7.340 -0.4233 -0.1276  3.0121
   87MOL0     H11709   2.184   8.504   7.349  1.7388  0.1170  0.5811
   87MOL0     H11710   2.037   8.405   7.353 -0.1542 -2.1234  0.7664
   87MOL0     H11711   2.041   8.520   7.539 -0.0556 -0.3876 -1.7188
   87MOL0     H11712   2.085   8.351   7.598  2.4321 -0.2928  1.0688
   87MOL0     H11713   2.316   8.398   7.616  2.1566  0.4281  1.8272
   87MOL0     H11714   2.296   8.569   7.579 -0.5440 -0.7534 -0.8422
   87MOL0     H11715   2.138   8.426   7.795 -1.0374  0.4676  0.2257
   87MOL0     H11716   2.163   8.599   7.768 -1.8837 -1.1042 -0.0334
   87MOL0     H11717   2.414   8.565   7.838  0.9848 -0.2211 -0.9705
   87MOL0     H11718   2.383   8.396   7.855  0.3812  0.8846 -4.0683
   87MOL0     H11719   2.223   8.437   8.053 -0.6703 -0.0407 -2.2262
   87MOL0     H11720   2.380   8.517   8.072  2.2724 -2.2920 -1.6659
   87MOL0     H11721   2.107   8.630   7.992  0.1193  0.8515  0.5606
   87MOL0     H11722   2.257   8.712   7.963 -0.1574 -2.8016 -3.3290
   87MOL0     H11723   2.295   8.697   8.234 -1.8489 -1.4107  3.5190
   87MOL0     H11724   2.160   8.792   8.168 -1.7257 -0.1515 -2.6015
   87MOL0     H11725   2.379   8.518   7.368 -0.7800 -0.5248  0.3196
   87MOL0     H11726   2.618   8.509   7.326 -1.9839  2.3943  0.4891
   87MOL0     H11727   2.959   8.163   7.359  1.0037 -0.8395  0.2985
   87MOL0     H11728   3.201   8.079   7.326  0.7717 -0.4074  0.4353
   87MOL0     H11729   4.174   7.476   7.844 -1.3322  0.2112 -0.2630
   87MOL0     H11730   4.061   7.281   7.718 -0.2593 -0.6014  0.4721
   87MOL0     H11731   3.944   7.015   7.553  2.2501 -0.8679  3.3559
   87MOL0     H11732   3.788   6.845   7.464 -0.2604 -1.0055 -0.2011
   87MOL0     H11733   3.810   6.665   7.222  1.8769 -1.6520  0.4843
   87MOL0     H11734   3.683   6.687   7.347 -0.2711  0.6864 -0.7139
   87MOL0     H11735   3.770   6.419   7.219 -0.2313  0.5175 -0.4032
   87MOL0     H11736   3.645   6.534   7.158 -1.7234 -1.3593  1.5063
   87MOL0     H11737   3.590   6.430   7.443  0.5051 -0.3963 -0.3206
   87MOL0     H11738   3.580   6.324   7.293  1.0804  1.4045 -1.5232
   87MOL0     H11739   3.443   6.585   7.308 -2.3313 -0.1989  2.1209
   87MOL0     H11740   3.411   6.478   7.182 -0.3682 -1.3830  0.1883
   87MOL0     H11741   3.138   6.328   7.453  0.1326 -1.3196 -0.9981
   87MOL0     H11742   4.095   6.558   7.418 -2.9157 -1.3443  0.2131
   87MOL0     H11743   4.379   6.763   7.484 -0.1134  0.6136 -0.4171
   87MOL0     H11744   4.313   6.633   7.591  0.0076 -0.5859 -0.4974
   87MOL0     H11745   4.318   6.625   7.409  0.2357  1.6629 -0.0127
   88MOL0     O11746   3.519   1.694   7.915  0.4693 -0.4658  0.1731
   88MOL0     C11747   3.498   1.814   7.942 -0.9179 -0.0570 -0.2774
   88MOL0     O11748   3.598   1.903   7.926 -0.7726 -0.5060 -0.2872
   88MOL0     C11749   3.725   1.872   7.881  0.3475 -1.5966 -0.1724
   88MOL0     C11750   3.820   1.943   7.947 -0.1849 -0.5387  0.1449
   88MOL0     C11751   3.953   1.949   7.898  0.2891 -0.1222 -0.4891
   88MOL0     C11752   3.994   1.868   7.787 -0.2532  0.4487 -0.7240
   88MOL0     O11753   4.124   1.873   7.735  0.3264 -0.2125  0.2164
   88MOL0     C11754   4.229   1.897   7.818 -0.9489 -0.9954 -0.2229
   88MOL0     C11755   4.364   1.880   7.732  0.2953 -0.6615 -0.8985
   88MOL0     C11756   4.372   1.967   7.598 -0.3224  0.4228 -0.0932
   88MOL0     C11757   4.519   1.960   7.538 -0.0148 -0.9056  0.5098
   88MOL0     C11758   4.548   2.066   7.437 -0.4587 -0.1260  0.4461
   88MOL0     C11759   4.705   2.075   7.412 -0.0627 -0.2664 -0.0456
   88MOL0     C11760   4.718   2.186   7.313 -0.1021 -0.9479 -0.9469
   88MOL0     C11761   4.865   2.210   7.281 -0.6561  0.0978  0.1111
   88MOL0     N11762   4.923   2.100   7.199  0.2062  0.3478  0.3875
   88MOL0     C11763   4.880   2.056   7.075  0.0054  0.7325 -0.2064
   88MOL0     C11764   4.950   1.951   7.043 -0.9907 -0.2415  0.7114
   88MOL0     C11765   4.945   1.876   6.906 -0.1213  1.0884 -0.0975
   88MOL0     C11766   5.077   1.845   6.843 -0.1674 -0.1444  0.3406
   88MOL0     C11767   5.176   1.960   6.833  0.0633  0.1317 -0.1390
   88MOL0     C11768   5.299   1.917   6.753 -0.7862 -0.7108  0.5575
   88MOL0     O11769   5.361   1.809   6.823 -0.5791 -0.7262 -0.3260
   88MOL0     C11770   5.460   1.844   6.908  0.5831 -0.0526 -0.2233
   88MOL0     C11771   5.569   1.905   6.853  0.2515  0.0701  0.4157
   88MOL0     C11772   5.682   1.936   6.934 -0.4852 -0.4395  0.3524
   88MOL0     C11773   5.673   1.919   7.073 -0.5223 -0.1307 -0.0042
   88MOL0     C11774   5.780   1.963   7.163 -0.4525  0.2131 -0.7000
   88MOL0     O11775   5.905   1.952   7.106 -0.1623 -0.2321 -0.5813
   88MOL0     C11776   6.014   1.940   7.196  0.2707 -0.3062 -0.6441
   88MOL0     C11777   6.109   1.843   7.186 -0.1104  0.5912 -0.6588
   88MOL0     C11778   6.219   1.833   7.264 -0.1495 -0.2322 -0.7062
   88MOL0     C11779   6.256   1.935   7.352  0.8714 -0.2727 -0.4287
   88MOL0     O11780   6.371   1.924   7.431 -0.3691  0.5653 -0.2515
   88MOL0     C11781   6.416   2.036   7.509  0.0163  0.8039 -0.3864
   88MOL0     C11782   6.569   2.006   7.545  0.0944 -0.1931  0.2505
   88MOL0     C11783   6.628   2.122   7.621  0.0807 -1.0720 -0.1646
   88MOL0     C11784   6.779   2.107   7.625 -0.1263 -0.3262  0.6520
   88MOL0     C11785   6.855   2.222   7.687  0.1554  0.6984  0.4799
   88MOL0     C11786   6.894   2.341   7.601  0.1464  0.1403  0.2349
   88MOL0     C11787   6.803   2.466   7.619  1.0363  0.9807 -0.5026
   88MOL0     C11788   6.850   2.594   7.549 -0.2173 -0.1191  0.9261
   88MOL0    Cl11789   6.990   2.670   7.632  0.0085  0.0005 -0.0107
   88MOL0     C11790   6.163   2.049   7.354 -0.1762  0.5353 -0.3965
   88MOL0     C11791   6.048   2.049   7.276 -0.5608  0.3333  0.0795
   88MOL0     O11792   5.762   1.988   7.282  0.1293  0.1980  0.4550
   88MOL0     C11793   5.549   1.882   7.127 -0.8417 -0.3842 -0.1892
   88MOL0     C11794   5.441   1.837   7.041 -0.0040  0.4024 -0.5402
   88MOL0     N11795   5.035   1.921   7.148 -0.1578  0.3167  0.4998
   88MOL0     N11796   5.023   2.018   7.240 -0.2468 -0.2985  0.4416
   88MOL0     C11797   3.896   1.798   7.716 -0.5859  0.2624  0.3383
   88MOL0     C11798   3.762   1.804   7.758  0.8885  0.5998 -0.2374
   88MOL0     C11799   3.364   1.865   7.968  0.7288 -0.2528  0.1718
   88MOL0     C11800   3.327   1.998   7.955  0.0962  0.1039 -0.4463
   88MOL0     C11801   3.192   2.043   7.972  0.1710 -0.2071  0.7254
   88MOL0     C11802   3.095   1.950   8.000 -0.5440  1.1347  0.5751
   88MOL0     O11803   2.967   1.967   8.023  0.3120 -0.5956  0.2423
   88MOL0     C11804   2.917   2.101   7.996  0.6109  0.9262  0.1079
   88MOL0     C11805   2.767   2.105   7.989 -0.4713  0.0443 -0.7908
   88MOL0     C11806   2.704   2.040   8.108  0.5199 -1.2520 -1.0310
   88MOL0     C11807   2.749   2.115   8.240 -0.4775  0.5106  1.0378
   88MOL0     C11808   2.677   2.069   8.358  0.5025 -0.0306  0.0438
   88MOL0     C11809   2.610   2.016   8.448 -1.1077  0.4020 -0.2984
   88MOL0     C11810   3.133   1.818   8.015  0.9167 -1.0290 -1.0128
   88MOL0     C11811   3.252   1.770   8.003 -0.3303  0.6012  0.0265
   88MOL0     C11812   3.274   1.624   8.024 -0.8673  0.4455  0.1524
   88MOL0     H11813   3.791   2.009   8.028  0.8906  2.0983 -1.4752
   88MOL0     H11814   4.023   2.025   7.929  0.4418  1.3522 -3.9622
   88MOL0     H11815   4.232   1.994   7.868 -0.4543 -0.6249 -0.9682
   88MOL0     H11816   4.222   1.825   7.900 -0.3456  0.6558  1.3527
   88MOL0     H11817   4.382   1.773   7.724  0.3809 -0.8109  0.9999
   88MOL0     H11818   4.445   1.923   7.793 -1.3940  1.0187  0.2587
   88MOL0     H11819   4.351   2.074   7.604 -1.2681  0.2711 -0.6211
   88MOL0     H11820   4.289   1.933   7.536  0.9426 -2.4020 -0.3959
   88MOL0     H11821   4.582   1.993   7.621 -1.5510 -0.5974  1.6062
   88MOL0     H11822   4.552   1.862   7.501  4.7276  1.0011 -1.1001
   88MOL0     H11823   4.494   2.057   7.342 -1.8256  3.1162  0.7828
   88MOL0     H11824   4.513   2.167   7.459 -2.5075 -0.4873 -0.8782
   88MOL0     H11825   4.742   2.107   7.510 -1.2396  1.4196 -0.1161
   88MOL0     H11826   4.759   1.984   7.385 -0.0969  0.1321 -1.5065
   88MOL0     H11827   4.668   2.275   7.350  0.0756 -1.3397  0.2753
   88MOL0     H11828   4.675   2.156   7.216  0.9616  1.8368 -2.3950
   88MOL0     H11829   4.884   2.307   7.233 -0.7963  1.4286  2.5641
   88MOL0     H11830   4.928   2.208   7.371 -0.8908  1.2016  0.3254
   88MOL0     H11831   4.799   2.105   7.021  1.1194  0.1500 -2.5771
   88MOL0     H11832   4.892   1.784   6.934  0.3063  0.4462 -1.2976
   88MOL0     H11833   4.884   1.929   6.832 -1.0432  1.8875  1.1966
   88MOL0     H11834   5.108   1.758   6.902 -2.2802 -1.2295 -0.0649
   88MOL0     H11835   5.047   1.809   6.744  0.8168  2.2510 -0.8974
   88MOL0     H11836   5.196   1.995   6.935 -0.8860  0.2580  0.0181
   88MOL0     H11837   5.116   2.031   6.775 -0.9954  0.3871  1.2112
   88MOL0     H11838   5.360   2.007   6.742 -0.8997 -0.7121 -0.0782
   88MOL0     H11839   5.275   1.882   6.652  1.7472 -1.3164  0.0927
   88MOL0     H11840   5.568   1.914   6.745 -0.6183 -0.6758  0.3569
   88MOL0     H11841   5.776   1.977   6.897 -1.6645  0.0826 -2.2627
   88MOL0     H11842   6.092   1.770   7.108  0.1291  2.0648 -2.1492
   88MOL0     H11843   6.285   1.748   7.255  0.6553  0.4152 -1.1528
   88MOL0     H11844   6.408   2.125   7.446 -1.0802 -0.7215 -2.5183
   88MOL0     H11845   6.348   2.052   7.593  0.3662 -0.5278  0.1699
   88MOL0     H11846   6.590   1.920   7.611 -1.8442  0.3677  1.6826
   88MOL0     H11847   6.625   2.000   7.451  2.4035  0.9811  1.4494
   88MOL0     H11848   6.597   2.218   7.580  4.2163  0.6520  0.2530
   88MOL0     H11849   6.595   2.126   7.725 -2.6739  1.2834 -1.0260
   88MOL0     H11850   6.808   2.094   7.520 -0.0615  0.4140  0.5693
   88MOL0     H11851   6.810   2.019   7.681 -0.1183  0.4015  1.8243
   88MOL0     H11852   6.945   2.166   7.714  0.9850  1.8563  0.1850
   88MOL0     H11853   6.822   2.248   7.788  1.9430 -1.1356  1.6170
   88MOL0     H11854   6.997   2.365   7.630  0.1703 -1.2839  1.4548
   88MOL0     H11855   6.892   2.312   7.496  0.1403 -0.6363  0.4387
   88MOL0     H11856   6.776   2.488   7.723 -3.5893  1.0909 -1.4792
   88MOL0     H11857   6.711   2.435   7.569  1.2098 -0.9625  0.3214
   88MOL0     H11858   6.871   2.571   7.445 -3.2462 -1.0140  0.3995
   88MOL0     H11859   6.766   2.664   7.551  0.1149  0.3780 -1.0921
   88MOL0     H11860   6.178   2.130   7.426 -1.5982  1.8655 -1.5224
   88MOL0     H11861   5.980   2.133   7.281 -0.7609  0.1124  1.6575
   88MOL0     H11862   5.541   1.889   7.235 -0.2705 -0.2911 -0.1532
   88MOL0     H11863   5.349   1.805   7.088 -0.0251  0.0051 -0.8483
   88MOL0     H11864   3.925   1.734   7.633  0.0278  1.3698 -0.3291
   88MOL0     H11865   3.678   1.757   7.707 -0.3887 -0.7458  2.8460
   88MOL0     H11866   3.406   2.068   7.930  1.3057  0.5786  3.8859
   88MOL0     H11867   3.181   2.150   7.958 -0.4971 -0.3381  0.2139
   88MOL0     H11868   2.951   2.137   7.898 -2.4664 -0.1753 -1.5047
   88MOL0     H11869   2.936   2.165   8.082 -2.0486  0.7614  0.9096
   88MOL0     H11870   2.726   2.052   7.903  2.4183 -1.4061 -1.4044
   88MOL0     H11871   2.736   2.209   7.979 -3.5017 -0.5557  0.9132
   88MOL0     H11872   2.735   1.937   8.126 -0.5201 -1.0885  2.4407
   88MOL0     H11873   2.595   2.031   8.103  0.2439 -2.0958  2.8118
   88MOL0     H11874   2.855   2.096   8.261 -0.7550 -0.8686  1.2564
   88MOL0     H11875   2.731   2.223   8.233  0.2472  0.5472 -0.7858
   88MOL0     H11876   2.536   1.979   8.515 -0.3148 -1.3112 -0.3106
   88MOL0     H11877   3.056   1.746   8.043  1.3924 -1.4509 -0.7751
   88MOL0     H11878   3.362   1.615   8.088 -0.4010 -1.7480 -0.7420
   88MOL0     H11879   3.191   1.591   8.087  1.9460 -2.3284  2.7179
   88MOL0     H11880   3.283   1.561   7.936  3.4624  1.1796 -0.1278
   89MOL0     O11881   9.656   3.237   0.512 -0.6248  0.4310 -0.0326
   89MOL0     C11882   9.740   3.303   0.456 -0.9460 -1.4677  0.4917
   89MOL0     O11883   9.726   3.352   0.327  0.0561  0.4025  0.8323
   89MOL0     C11884   9.600   3.342   0.271 -0.3043 -0.4179 -0.2617
   89MOL0     C11885   9.597   3.285   0.134 -0.8726 -0.5112 -1.0817
   89MOL0     C11886   9.479   3.290   0.064  0.1877  0.2945  0.9465
   89MOL0     C11887   9.361   3.325   0.133 -0.1838 -0.1663  0.3248
   89MOL0     O11888   9.239   3.337   0.085  0.3906 -0.0128 -0.2368
   89MOL0     C11889   9.231   3.382  -0.054 -0.4198  0.0577 -0.3103
   89MOL0     C11890   9.083   3.399  -0.089 -0.6607  0.3311 -0.5644
   89MOL0     C11891   9.016   3.255  -0.088 -0.2217 -0.3307  0.5564
   89MOL0     C11892   8.877   3.283  -0.159  0.6130 -0.5021  0.6055
   89MOL0     C11893   8.792   3.152  -0.163 -0.5368  0.0914  0.5533
   89MOL0     C11894   8.725   3.118  -0.031 -0.0203  0.2543 -0.9579
   89MOL0     C11895   8.594   3.034  -0.055 -0.9009 -0.2056  0.6125
   89MOL0     C11896   8.547   2.964   0.072 -0.2633 -0.5100 -0.2119
   89MOL0     N11897   8.427   2.895   0.047  0.8315 -0.0959  0.3722
   89MOL0     C11898   8.306   2.921   0.112 -0.6038  0.1432  0.4002
   89MOL0     C11899   8.224   2.815   0.076 -0.5227 -0.2911 -0.2852
   89MOL0     C11900   8.075   2.812   0.105  0.1011  0.2504 -0.0109
   89MOL0     C11901   8.010   2.909   0.005  0.1446 -0.5290 -0.4636
   89MOL0     C11902   7.859   2.897   0.018  0.1057  0.2854  0.0888
   89MOL0     C11903   7.772   3.009  -0.055  1.2023  0.3233 -0.0866
   89MOL0     O11904   7.636   2.999  -0.009 -0.2069  0.2958 -0.6273
   89MOL0     C11905   7.555   2.897  -0.038 -0.0425  0.0129 -0.3013
   89MOL0     C11906   7.430   2.908   0.027 -0.9370 -0.1027 -0.4098
   89MOL0     C11907   7.323   2.825  -0.003 -0.2374 -0.5628 -0.7194
   89MOL0     C11908   7.324   2.732  -0.107  0.3949 -0.9067 -0.4641
   89MOL0     C11909   7.206   2.651  -0.136  0.8030  0.2765 -0.5429
   89MOL0     O11910   7.206   2.588  -0.254  0.3275 -0.1798  0.3947
   89MOL0     C11911   7.096   2.528  -0.300 -0.4067  0.1807 -0.5959
   89MOL0     C11912   7.054   2.410  -0.225  0.5900  0.2461 -0.3016
   89MOL0     C11913   6.936   2.336  -0.262 -0.9258  1.0512 -0.1030
   89MOL0     C11914   6.870   2.374  -0.379 -0.0493  0.4217 -1.1575
   89MOL0     O11915   6.752   2.323  -0.427  0.0780  0.1545 -0.9550
   89MOL0     C11916   6.647   2.312  -0.332 -0.0436  0.2392  0.0646
   89MOL0     C11917   6.529   2.248  -0.403 -0.8343 -0.2677 -0.0161
   89MOL0     C11918   6.459   2.338  -0.496  0.3756 -0.7743 -0.0459
   89MOL0     C11919   6.337   2.282  -0.575 -0.3804  0.1355  0.5432
   89MOL0     C11920   6.309   2.376  -0.691  0.6110  0.7021 -0.1572
   89MOL0     C11921   6.176   2.332  -0.754 -0.8848  0.0370 -0.1974
   89MOL0     C11922   6.184   2.198  -0.831  0.1060 -0.3972  1.5799
   89MOL0     C11923   6.056   2.147  -0.868 -0.8045 -0.0597  0.1328
   89MOL0    Cl11924   5.976   2.258  -0.971  0.4059  0.0120 -0.0714
   89MOL0     C11925   6.923   2.473  -0.465 -0.3664  0.7114  1.0175
   89MOL0     C11926   7.028   2.553  -0.419  0.0030 -0.4321  0.3357
   89MOL0     O11927   7.114   2.651  -0.054 -0.3712  0.7689  0.1436
   89MOL0     C11928   7.442   2.744  -0.187  0.3130  0.5613 -1.0178
   89MOL0     C11929   7.558   2.809  -0.143 -0.1035 -0.1363  0.0878
   89MOL0     N11930   8.295   2.718   0.009  0.3191 -0.3302  0.4728
   89MOL0     N11931   8.411   2.771  -0.010  0.2945 -0.0482 -0.0212
   89MOL0     C11932   9.366   3.362   0.266  0.2167 -0.0215 -0.8086
   89MOL0     C11933   9.485   3.387   0.336 -0.5799  0.8217 -0.1029
   89MOL0     C11934   9.863   3.339   0.534 -0.2276 -0.3576 -0.5314
   89MOL0     C11935   9.971   3.372   0.457  0.2831  0.9517  0.6621
   89MOL0     C11936  10.093   3.410   0.512  0.4587  0.5396  0.2000
   89MOL0     C11937  10.117   3.392   0.645 -0.3673  0.0028 -0.1265
   89MOL0     O11938  10.240   3.419   0.698 -0.0618  0.4838  0.2326
   89MOL0     C11939  10.257   3.383   0.835 -0.0640 -0.4043 -0.2457
   89MOL0     C11940  10.397   3.421   0.885 -0.3368  0.3727 -0.4855
   89MOL0     C11941  10.455   3.302   0.955  1.0136  0.6164  0.0721
   89MOL0     C11942  10.606   3.322   0.996  0.4278 -0.9696 -0.4181
   89MOL0     C11943  10.600   3.396   1.126  0.1027 -0.4844 -0.1992
   89MOL0     C11944  10.624   3.453   1.233  0.5172  0.3827  0.4248
   89MOL0     C11945  10.004   3.356   0.724 -0.2152 -0.0126  0.5599
   89MOL0     C11946   9.882   3.325   0.676  0.8743  0.1918  0.2447
   89MOL0     C11947   9.785   3.278   0.772 -0.6783 -0.2798  0.9047
   89MOL0     H11948   9.685   3.245   0.086  0.8112  0.1508  1.2278
   89MOL0     H11949   9.471   3.247  -0.036  1.2357 -2.3614  1.9065
   89MOL0     H11950   9.274   3.482  -0.054 -1.6559  0.6142 -1.1032
   89MOL0     H11951   9.272   3.315  -0.130  0.3992 -1.0517  1.0602
   89MOL0     H11952   9.076   3.438  -0.191 -1.6297 -0.0865 -0.6667
   89MOL0     H11953   9.041   3.465  -0.013 -0.9676 -1.5764  0.9954
   89MOL0     H11954   9.000   3.222   0.015  2.3683 -0.6967  0.9205
   89MOL0     H11955   9.076   3.181  -0.142  0.4915 -0.7348  1.8520
   89MOL0     H11956   8.818   3.361  -0.109  1.2527  0.4199 -0.0583
   89MOL0     H11957   8.892   3.321  -0.260  1.7889 -0.9974  0.5798
   89MOL0     H11958   8.698   3.176  -0.215  0.3482  0.4761 -0.9379
   89MOL0     H11959   8.840   3.069  -0.215 -1.8608 -1.2990  1.4412
   89MOL0     H11960   8.799   3.056   0.019  1.7159  2.3410 -0.7936
   89MOL0     H11961   8.699   3.209   0.024 -1.8888  0.4634 -2.0787
   89MOL0     H11962   8.615   2.951  -0.124 -1.8900 -0.1689  0.2569
   89MOL0     H11963   8.508   3.083  -0.101 -1.3179  0.1755  1.7604
   89MOL0     H11964   8.622   2.890   0.101  4.2340  3.6837  0.0925
   89MOL0     H11965   8.527   3.025   0.160  0.2619  0.8335 -0.9931
   89MOL0     H11966   8.273   3.008   0.169  1.7646  0.8528  0.7764
   89MOL0     H11967   8.024   2.717   0.086 -0.6640  0.7784 -0.7225
   89MOL0     H11968   8.063   2.817   0.213  0.3669 -1.7973  0.1460
   89MOL0     H11969   8.033   3.011   0.038  1.2175 -1.2726  1.2658
   89MOL0     H11970   8.044   2.890  -0.097 -3.6682 -0.4737 -1.9101
   89MOL0     H11971   7.833   2.917   0.123 -1.8909  4.1837 -0.9421
   89MOL0     H11972   7.830   2.797  -0.015 -0.5801 -0.1935  2.0024
   89MOL0     H11973   7.768   3.001  -0.165 -1.5721  2.1308 -0.2153
   89MOL0     H11974   7.814   3.104  -0.023  0.2258  0.0738  2.0682
   89MOL0     H11975   7.416   2.993   0.093  1.1561  0.0823 -0.1509
   89MOL0     H11976   7.235   2.843   0.059  0.7502 -1.1341  0.9232
   89MOL0     H11977   7.109   2.377  -0.137 -0.3832  0.1702  0.2975
   89MOL0     H11978   6.909   2.254  -0.196  5.8760 -1.5220  0.2438
   89MOL0     H11979   6.693   2.254  -0.252  0.3786  1.8796  1.0577
   89MOL0     H11980   6.621   2.413  -0.300  2.5311  0.6516  1.0609
   89MOL0     H11981   6.560   2.160  -0.461  0.5141 -0.5111  1.0213
   89MOL0     H11982   6.452   2.214  -0.333 -1.6805 -4.5072 -2.6034
   89MOL0     H11983   6.437   2.431  -0.442  0.4315 -0.3792 -0.6951
   89MOL0     H11984   6.533   2.366  -0.572 -1.6037  0.7244 -1.5482
   89MOL0     H11985   6.257   2.265  -0.503 -0.7320 -1.5833 -0.1990
   89MOL0     H11986   6.372   2.183  -0.607  1.7670 -0.4874  4.2244
   89MOL0     H11987   6.387   2.375  -0.768  0.5790 -0.9170 -0.1978
   89MOL0     H11988   6.308   2.476  -0.646  2.6827 -0.0718  1.8405
   89MOL0     H11989   6.095   2.334  -0.680  0.7696  1.4389  1.6813
   89MOL0     H11990   6.151   2.402  -0.834 -3.5951  1.6279  1.8661
   89MOL0     H11991   6.247   2.127  -0.776  1.6333 -0.9659 -0.7741
   89MOL0     H11992   6.239   2.216  -0.924 -1.1428 -3.4278  0.1278
   89MOL0     H11993   6.068   2.052  -0.922 -0.7721  1.3414 -2.4865
   89MOL0     H11994   6.001   2.146  -0.773  0.5284 -0.0190  0.9359
   89MOL0     H11995   6.886   2.474  -0.567 -1.4920 -1.3091  1.3497
   89MOL0     H11996   7.051   2.641  -0.478 -2.2957 -0.0455 -0.0805
   89MOL0     H11997   7.456   2.668  -0.263  2.5476  0.4314 -0.5612
   89MOL0     H11998   7.649   2.801  -0.201 -0.6172  0.0789 -0.7718
   89MOL0     H11999   9.269   3.393   0.302 -0.7610 -1.0905 -2.4129
   89MOL0     H12000   9.490   3.430   0.436  2.0393  0.9839 -0.2429
   89MOL0     H12001   9.952   3.412   0.358 -0.7421  0.1934  0.5274
   89MOL0     H12002  10.162   3.435   0.432  0.0343  1.3117  0.0619
   89MOL0     H12003  10.230   3.278   0.845 -2.6353 -0.0315 -2.0868
   89MOL0     H12004  10.184   3.429   0.903 -0.4843 -1.6518  0.1659
   89MOL0     H12005  10.380   3.505   0.952 -3.9800  0.2295 -1.0439
   89MOL0     H12006  10.466   3.448   0.805  1.1644  1.6395  1.1577
   89MOL0     H12007  10.438   3.214   0.892 -0.2655  0.0850  1.0945
   89MOL0     H12008  10.394   3.272   1.041 -0.4994 -2.2005 -1.8165
   89MOL0     H12009  10.658   3.226   1.011  0.5370 -0.9185 -0.4692
   89MOL0     H12010  10.672   3.385   0.936 -0.8333  1.3925  0.5342
   89MOL0     H12011  10.650   3.478   1.334  1.3035  1.4300 -0.0300
   89MOL0     H12012  10.022   3.327   0.826  0.6136 -0.4434  0.3015
   89MOL0     H12013   9.808   3.307   0.874 -2.0019  0.5447  0.9996
   89MOL0     H12014   9.690   3.327   0.749 -0.7804 -1.3368 -1.1420
   89MOL0     H12015   9.770   3.170   0.763  1.3048 -0.4301 -2.5514
   90MOL0     O12016   4.555   6.418   5.713  0.0990 -0.8434  0.5207
   90MOL0     C12017   4.551   6.531   5.667  1.0679  0.4225  0.5804
   90MOL0     O12018   4.442   6.582   5.601 -0.7416 -0.1297 -0.0492
   90MOL0     C12019   4.320   6.520   5.577 -0.4156  0.2401  0.4961
   90MOL0     C12020   4.228   6.600   5.506  0.3296 -0.3678 -0.9164
   90MOL0     C12021   4.101   6.561   5.483 -0.0363 -0.4348 -0.3097
   90MOL0     C12022   4.072   6.435   5.511  0.2146 -0.2492 -1.6210
   90MOL0     O12023   3.941   6.406   5.477 -0.3685 -0.6830  0.0091
   90MOL0     C12024   3.939   6.320   5.366  0.4861 -0.1205  0.0847
   90MOL0     C12025   3.790   6.273   5.365 -0.3961 -0.3599  0.4030
   90MOL0     C12026   3.693   6.379   5.342  0.2348  0.0184 -0.4003
   90MOL0     C12027   3.549   6.327   5.377 -0.1681 -0.2385  0.7295
   90MOL0     C12028   3.450   6.424   5.318 -0.0708 -0.1826  0.6397
   90MOL0     C12029   3.317   6.398   5.380 -0.8375  0.0277 -1.0482
   90MOL0     C12030   3.225   6.509   5.358 -0.2211 -0.2301  0.3985
   90MOL0     C12031   3.095   6.470   5.439  0.2451  0.2082  0.6075
   90MOL0     N12032   3.016   6.593   5.467  1.2022 -0.3519  0.1578
   90MOL0     C12033   3.052   6.706   5.539  0.8104 -0.8913  0.0651
   90MOL0     C12034   2.955   6.793   5.514 -0.2352 -0.2578  0.7231
   90MOL0     C12035   2.931   6.928   5.564  0.8562  0.2466  0.1169
   90MOL0     C12036   3.024   7.030   5.516 -0.4471 -0.7986  0.5692
   90MOL0     C12037   2.953   7.174   5.523 -0.3828  0.4555  0.4203
   90MOL0     C12038   3.052   7.290   5.534  0.5397 -0.2673 -0.3638
   90MOL0     O12039   3.148   7.283   5.436 -0.8994  0.1107  0.2192
   90MOL0     C12040   3.255   7.367   5.448  0.2906  0.5730  0.7554
   90MOL0     C12041   3.378   7.314   5.413 -0.1835 -0.1607  0.5879
   90MOL0     C12042   3.495   7.379   5.421 -0.3537 -0.2796 -0.1391
   90MOL0     C12043   3.486   7.517   5.462  1.0762 -0.3103 -0.4222
   90MOL0     C12044   3.606   7.589   5.488 -0.6791 -0.1175 -0.4976
   90MOL0     O12045   3.592   7.723   5.529 -0.4299 -0.0045  0.1098
   90MOL0     C12046   3.697   7.784   5.590 -0.4582 -1.4191 -0.3642
   90MOL0     C12047   3.752   7.900   5.529 -0.0926 -0.2974  0.4506
   90MOL0     C12048   3.866   7.962   5.587 -0.2811  0.3814 -0.6233
   90MOL0     C12049   3.927   7.906   5.699 -0.5350  0.5751 -0.4853
   90MOL0     O12050   4.050   7.956   5.736 -0.0815  0.4584  0.4456
   90MOL0     C12051   4.164   7.881   5.726  0.6579 -0.0286 -0.0527
   90MOL0     C12052   4.265   7.969   5.662 -0.3335  0.4861  0.0804
   90MOL0     C12053   4.395   7.900   5.690 -0.8547  0.4518 -0.6912
   90MOL0     C12054   4.514   7.974   5.623 -0.3385 -0.0905  0.4839
   90MOL0     C12055   4.648   7.890   5.602  0.5299  1.0275 -0.3205
   90MOL0     C12056   4.622   7.753   5.552 -0.4745 -0.1186 -0.2997
   90MOL0     C12057   4.746   7.709   5.480  0.5256  0.4856  0.3810
   90MOL0     C12058   4.722   7.573   5.416 -0.2260 -0.1871  0.7650
   90MOL0    Cl12059   4.889   7.524   5.354  0.5547  0.1375 -0.7488
   90MOL0     C12060   3.869   7.793   5.759  0.4068  0.1838 -0.7133
   90MOL0     C12061   3.759   7.726   5.702 -0.0303 -0.0471  0.0180
   90MOL0     O12062   3.714   7.531   5.482 -0.6966 -0.0600  0.2156
   90MOL0     C12063   3.364   7.578   5.501  1.3175 -0.6768  0.5706
   90MOL0     C12064   3.248   7.499   5.494 -0.0139  0.0427  0.1252
   90MOL0     N12065   2.864   6.732   5.434 -0.0659  0.7225 -0.1439
   90MOL0     N12066   2.896   6.613   5.399 -0.1357 -0.5115  0.0342
   90MOL0     C12067   4.149   6.341   5.580  0.3619 -0.3181 -0.3088
   90MOL0     C12068   4.284   6.384   5.604  0.1888  0.3672  0.1382
   90MOL0     C12069   4.676   6.608   5.685 -0.4142 -0.0150  0.0830
   90MOL0     C12070   4.793   6.539   5.657  0.4423  0.3367 -0.3291
   90MOL0     C12071   4.915   6.587   5.698  0.5246 -0.5078 -0.7311
   90MOL0     C12072   4.923   6.710   5.771 -0.1210 -0.1576  0.4406
   90MOL0     O12073   5.035   6.780   5.797 -0.1242  0.1471 -0.8648
   90MOL0     C12074   5.140   6.774   5.693  0.1416 -1.2642 -0.3469
   90MOL0     C12075   5.257   6.852   5.737 -0.4476  0.5879 -0.4369
   90MOL0     C12076   5.352   6.829   5.617 -0.4953 -0.9246  0.4935
   90MOL0     C12077   5.473   6.920   5.631 -0.1999  0.3995  0.2422
   90MOL0     C12078   5.581   6.860   5.713 -1.0603 -0.9298 -0.6833
   90MOL0     C12079   5.673   6.815   5.776  0.3966 -0.5314  1.2638
   90MOL0     C12080   4.802   6.782   5.788 -0.8248 -0.4552  0.2382
   90MOL0     C12081   4.676   6.732   5.753 -0.2974  0.0677 -0.4891
   90MOL0     C12082   4.542   6.806   5.785  0.1028 -0.0712 -0.2720
   90MOL0     H12083   4.241   6.702   5.470 -3.0667  0.7224  0.5789
   90MOL0     H12084   4.021   6.625   5.446 -0.5530 -0.5301  0.5871
   90MOL0     H12085   3.978   6.362   5.273  3.8246 -0.2342  1.3176
   90MOL0     H12086   4.002   6.232   5.382  1.3797  0.7583  1.5882
   90MOL0     H12087   3.769   6.225   5.460 -0.7054  0.8052  0.9373
   90MOL0     H12088   3.795   6.194   5.289 -0.4312  1.5301 -1.6987
   90MOL0     H12089   3.690   6.411   5.238 -0.1677  2.9923  0.4337
   90MOL0     H12090   3.714   6.459   5.414 -0.2724  0.8520 -1.1574
   90MOL0     H12091   3.539   6.222   5.348  2.6101 -0.3760  0.0600
   90MOL0     H12092   3.535   6.311   5.484 -1.7939 -3.0183  0.2030
   90MOL0     H12093   3.477   6.526   5.347 -0.1075 -0.8250  3.1100
   90MOL0     H12094   3.439   6.406   5.210 -0.3262 -4.4950  1.2313
   90MOL0     H12095   3.284   6.303   5.338 -3.5815  1.3544 -2.1595
   90MOL0     H12096   3.332   6.399   5.489 -2.6485  1.4866 -0.7642
   90MOL0     H12097   3.190   6.532   5.257 -1.9844 -0.5031  0.9004
   90MOL0     H12098   3.270   6.600   5.399 -2.5083  0.9362  0.4862
   90MOL0     H12099   3.046   6.413   5.359  0.8197  3.1456 -2.0776
   90MOL0     H12100   3.088   6.412   5.531 -1.8449 -3.9812 -1.8402
   90MOL0     H12101   3.144   6.714   5.597  0.5556 -2.1218  0.6827
   90MOL0     H12102   2.832   6.955   5.527 -1.7208 -2.0058  4.5535
   90MOL0     H12103   2.916   6.929   5.672 -0.5712  3.2303  0.0092
   90MOL0     H12104   3.116   7.018   5.573  0.3266 -0.9936 -0.6808
   90MOL0     H12105   3.043   7.008   5.411  1.6329 -1.8739  1.1253
   90MOL0     H12106   2.893   7.165   5.614  1.0997  0.6938  1.4647
   90MOL0     H12107   2.895   7.191   5.431 -0.2814 -2.9619 -0.3862
   90MOL0     H12108   3.102   7.304   5.631  0.4959  1.4412 -0.5468
   90MOL0     H12109   2.998   7.385   5.525  0.9389  0.1061  0.9330
   90MOL0     H12110   3.388   7.214   5.372  2.0720  0.4252 -0.5133
   90MOL0     H12111   3.585   7.326   5.391 -1.1285 -2.0557  0.5215
   90MOL0     H12112   3.703   7.935   5.439  0.0253 -1.2287  0.0155
   90MOL0     H12113   3.910   8.043   5.528 -1.9646  0.9583 -1.1271
   90MOL0     H12114   4.184   7.850   5.829 -0.9430  0.8381  0.5412
   90MOL0     H12115   4.138   7.797   5.661 -1.0499  1.2041 -1.0425
   90MOL0     H12116   4.237   7.961   5.557  3.3068 -3.0780 -0.8795
   90MOL0     H12117   4.270   8.071   5.702 -0.3992  0.3585  0.4206
   90MOL0     H12118   4.408   7.892   5.798  0.1211  0.6776 -0.7867
   90MOL0     H12119   4.386   7.807   5.633  0.3391 -0.6326  0.8145
   90MOL0     H12120   4.545   8.066   5.673  0.2360 -2.4426  4.9179
   90MOL0     H12121   4.487   8.002   5.521  1.8349  1.4549  0.2754
   90MOL0     H12122   4.713   7.872   5.689 -0.7770 -1.8099  0.2007
   90MOL0     H12123   4.706   7.946   5.528 -0.9944  1.7200 -1.0155
   90MOL0     H12124   4.606   7.691   5.641  1.7476  1.1330  1.0753
   90MOL0     H12125   4.537   7.759   5.484 -1.4669 -2.2192  0.6770
   90MOL0     H12126   4.822   7.698   5.558 -0.9845 -4.3628  1.5413
   90MOL0     H12127   4.790   7.770   5.401 -1.2310  0.6246 -0.5288
   90MOL0     H12128   4.683   7.502   5.490 -2.2445  2.7815  2.7773
   90MOL0     H12129   4.642   7.583   5.343 -0.0650 -1.5517  0.3729
   90MOL0     H12130   3.918   7.754   5.848  1.5052 -0.4726 -1.5762
   90MOL0     H12131   3.710   7.637   5.740 -0.1959 -0.1054 -0.3307
   90MOL0     H12132   3.352   7.684   5.520  0.7885  0.0032 -2.8226
   90MOL0     H12133   3.147   7.522   5.529 -0.0798 -3.3108  2.6046
   90MOL0     H12134   4.112   6.245   5.617 -0.8246  0.4590  0.6145
   90MOL0     H12135   4.351   6.318   5.657  1.2752 -0.1303 -1.7820
   90MOL0     H12136   4.785   6.444   5.605  0.7659  0.8884 -1.4093
   90MOL0     H12137   5.007   6.529   5.693  0.2257 -0.9010 -2.2654
   90MOL0     H12138   5.098   6.821   5.603  0.3362 -2.5065 -1.1099
   90MOL0     H12139   5.159   6.672   5.658  2.5229 -1.8789  2.3106
   90MOL0     H12140   5.297   6.797   5.823 -4.9437 -0.7529  1.0683
   90MOL0     H12141   5.240   6.955   5.769 -0.7912 -0.3220  2.6302
   90MOL0     H12142   5.294   6.855   5.528  0.0042 -1.0382  0.1297
   90MOL0     H12143   5.388   6.726   5.614  0.7918 -0.6234  2.9249
   90MOL0     H12144   5.510   6.939   5.530  0.4705 -4.4787 -0.6832
   90MOL0     H12145   5.449   7.017   5.676 -1.7010  0.1522  0.0206
   90MOL0     H12146   5.755   6.782   5.836 -0.6517 -1.2106  2.3448
   90MOL0     H12147   4.806   6.884   5.825 -0.5913 -0.3630 -0.0385
   90MOL0     H12148   4.453   6.744   5.800 -0.3894  0.6359 -0.2189
   90MOL0     H12149   4.550   6.868   5.874 -3.2930  0.4913 -0.2252
   90MOL0     H12150   4.526   6.881   5.707  0.9789  0.9748  0.5196
   91MOL0     O12151   5.020  10.383   2.215 -0.2173 -0.4364  0.3189
   91MOL0     C12152   5.120  10.373   2.147 -0.8254 -1.0328  0.2924
   91MOL0     O12153   5.122  10.339   2.007 -0.7316  0.6286  0.5465
   91MOL0     C12154   5.001  10.321   1.935 -0.0207 -0.0782  0.4946
   91MOL0     C12155   4.987  10.200   1.857 -0.1325  0.3412  0.4493
   91MOL0     C12156   4.883  10.175   1.776 -0.0344 -0.1031 -1.3070
   91MOL0     C12157   4.782  10.276   1.764  0.5101 -0.2185 -0.0432
   91MOL0     O12158   4.678  10.256   1.674 -0.2733 -0.3696  0.3177
   91MOL0     C12159   4.549  10.313   1.705 -0.4514 -0.9064  0.3824
   91MOL0     C12160   4.439  10.267   1.617 -0.1369  0.3633  1.0523
   91MOL0     C12161   4.300  10.319   1.667  0.4480 -0.6648 -1.0421
   91MOL0     C12162   4.180  10.299   1.573 -0.6079 -0.7210  0.4205
   91MOL0     C12163   4.053  10.369   1.614  0.1827  0.2964 -0.2291
   91MOL0     C12164   3.947  10.368   1.511  0.6260 -0.1330  0.3631
   91MOL0     C12165   3.829  10.459   1.543  0.4032 -0.8296 -0.1792
   91MOL0     C12166   3.744  10.475   1.411  0.3595  0.3951 -0.1138
   91MOL0     N12167   3.683  10.346   1.357 -0.8161  0.0755 -0.3576
   91MOL0     C12168   3.604  10.257   1.430  0.3276  0.0664  1.2498
   91MOL0     C12169   3.582  10.161   1.337 -0.4530  1.1570  0.2422
   91MOL0     C12170   3.507  10.034   1.367 -0.3285  0.5915  0.2781
   91MOL0     C12171   3.584   9.925   1.443 -0.4365  0.3826  0.4479
   91MOL0     C12172   3.667   9.851   1.340  0.2147 -0.0754  0.5580
   91MOL0     C12173   3.771   9.777   1.417 -0.9069  0.1477  0.4321
   91MOL0     O12174   3.829   9.688   1.328 -0.1458  0.1553  0.0426
   91MOL0     C12175   3.967   9.697   1.305  0.4436  1.5168 -0.4644
   91MOL0     C12176   4.057   9.744   1.397  0.3264 -0.3850 -0.1866
   91MOL0     C12177   4.189   9.745   1.369 -0.7498 -0.1969 -0.1471
   91MOL0     C12178   4.246   9.697   1.248 -0.7800  0.3824  0.6064
   91MOL0     C12179   4.392   9.701   1.230  0.0889  0.1933 -0.0156
   91MOL0     O12180   4.427   9.663   1.098 -0.4283 -0.3403  0.1511
   91MOL0     C12181   4.556   9.667   1.058 -0.3078 -0.5100 -1.2795
   91MOL0     C12182   4.631   9.780   1.088  0.2211  0.1382  0.4606
   91MOL0     C12183   4.762   9.788   1.049  0.8747 -1.2129 -0.2821
   91MOL0     C12184   4.838   9.681   1.012  1.0641 -0.2937  1.3115
   91MOL0     O12185   4.972   9.695   0.999  0.5632  0.6136  0.1538
   91MOL0     C12186   5.041   9.629   0.887  0.1470  0.5652 -0.1364
   91MOL0     C12187   5.186   9.677   0.902  0.1414  0.4461  0.0513
   91MOL0     C12188   5.265   9.624   1.020  0.3718 -0.2653  0.8454
   91MOL0     C12189   5.411   9.683   1.017  0.5293 -0.8262  0.4453
   91MOL0     C12190   5.481   9.669   1.157 -0.3311  0.3568 -0.3301
   91MOL0     C12191   5.629   9.718   1.142  1.2833  0.9253 -0.8442
   91MOL0     C12192   5.687   9.704   1.280  0.4228  0.2288  0.3532
   91MOL0     C12193   5.793   9.811   1.308 -0.0993 -0.0684 -0.0586
   91MOL0    Cl12194   5.714   9.973   1.288 -0.4110  0.1372  0.3114
   91MOL0     C12195   4.772   9.561   0.983 -0.0658 -0.3466 -0.3981
   91MOL0     C12196   4.636   9.559   1.006 -0.8765  0.0773  1.0781
   91MOL0     O12197   4.466   9.752   1.314  0.8661 -0.6109 -0.0109
   91MOL0     C12198   4.156   9.646   1.152  0.6036 -0.4565  0.0603
   91MOL0     C12199   4.014   9.648   1.182 -0.0018 -0.2805  0.2591
   91MOL0     N12200   3.636  10.194   1.216 -0.2242  0.2946 -0.3304
   91MOL0     N12201   3.697  10.308   1.230 -0.1756  0.8240 -0.2306
   91MOL0     C12202   4.786  10.393   1.844  0.7643 -0.6867 -0.2229
   91MOL0     C12203   4.889  10.411   1.929  1.2099  1.0466 -0.5507
   91MOL0     C12204   5.251  10.397   2.208  0.2828 -0.5024 -0.0516
   91MOL0     C12205   5.351  10.300   2.183 -1.0012 -0.0779 -0.3241
   91MOL0     C12206   5.477  10.310   2.244 -0.3873  0.8708  0.3740
   91MOL0     C12207   5.508  10.399   2.341  0.3600 -0.7223  0.3232
   91MOL0     O12208   5.615  10.394   2.430 -0.5418 -0.3242 -0.4868
   91MOL0     C12209   5.697  10.276   2.421  0.2613  0.3302  0.0704
   91MOL0     C12210   5.814  10.273   2.307  0.5197 -0.4095 -0.1446
   91MOL0     C12211   5.917  10.385   2.342  0.2145 -0.4059  0.1427
   91MOL0     C12212   5.890  10.528   2.279 -0.4090  0.8953 -0.4062
   91MOL0     C12213   5.984  10.631   2.312  0.4945  0.1802 -0.2232
   91MOL0     C12214   6.069  10.719   2.319  0.6476  0.6037 -0.1128
   91MOL0     C12215   5.417  10.502   2.355 -0.3523 -0.0449 -0.3122
   91MOL0     C12216   5.289  10.503   2.291  0.4147 -0.1761 -0.9394
   91MOL0     C12217   5.201  10.621   2.315 -0.2060 -0.5361 -0.0343
   91MOL0     H12218   5.064  10.124   1.857 -2.7691 -2.4855  1.3564
   91MOL0     H12219   4.862  10.084   1.720 -3.3753  0.4098 -1.0965
   91MOL0     H12220   4.525  10.277   1.805  0.8720 -0.0428  1.0374
   91MOL0     H12221   4.562  10.422   1.713 -1.6349 -0.5859 -1.4361
   91MOL0     H12222   4.439  10.158   1.608 -1.1901  0.4532 -0.4527
   91MOL0     H12223   4.464  10.307   1.518 -0.6515  0.9934  1.1648
   91MOL0     H12224   4.315  10.426   1.684  3.4458 -1.2091  0.6219
   91MOL0     H12225   4.269  10.268   1.759 -1.7376 -1.9267 -2.4045
   91MOL0     H12226   4.217  10.333   1.475 -1.4707 -0.8159  0.0569
   91MOL0     H12227   4.162  10.191   1.563  1.1466 -1.1934  1.8166
   91MOL0     H12228   4.008  10.321   1.702 -0.0237  2.2765  0.7901
   91MOL0     H12229   4.081  10.473   1.631 -0.0073  1.1988 -4.4339
   91MOL0     H12230   3.992  10.400   1.417 -0.6679  0.6046 -0.0265
   91MOL0     H12231   3.919  10.264   1.490  1.7869 -0.5544  0.8569
   91MOL0     H12232   3.855  10.561   1.573  1.2925 -0.5731 -1.7180
   91MOL0     H12233   3.766  10.414   1.621 -1.8782 -0.0120 -1.4480
   91MOL0     H12234   3.663  10.545   1.434  0.0700  0.1715 -0.4523
   91MOL0     H12235   3.807  10.519   1.333  2.0067 -1.7116 -0.0664
   91MOL0     H12236   3.567  10.260   1.532  1.4977  0.6326  1.6676
   91MOL0     H12237   3.412  10.045   1.419 -1.0715  1.6036 -1.2191
   91MOL0     H12238   3.472  10.011   1.266  0.8734  0.1184 -0.0458
   91MOL0     H12239   3.655   9.966   1.515  1.2727 -3.6310  1.3256
   91MOL0     H12240   3.520   9.852   1.492  1.0406 -2.1495 -1.1640
   91MOL0     H12241   3.707   9.918   1.263  0.0865  0.1752  0.7084
   91MOL0     H12242   3.599   9.779   1.295  0.3758  0.3225 -0.3530
   91MOL0     H12243   3.723   9.710   1.489 -1.3048  0.8249  0.8061
   91MOL0     H12244   3.829   9.852   1.471  0.6220 -0.6227 -0.0761
   91MOL0     H12245   4.031   9.772   1.499  2.6708 -1.8738  0.9202
   91MOL0     H12246   4.249   9.774   1.454 -0.6736 -1.8014  0.3909
   91MOL0     H12247   4.576   9.866   1.124  0.9521  0.7852  0.0735
   91MOL0     H12248   4.814   9.883   1.051 -1.1175  0.0631 -2.8705
   91MOL0     H12249   5.032   9.520   0.888 -0.0753  0.5515 -1.4831
   91MOL0     H12250   5.009   9.675   0.793 -1.5102  2.3805  1.2173
   91MOL0     H12251   5.249   9.644   0.819 -0.8137 -2.5408  0.3982
   91MOL0     H12252   5.188   9.786   0.899 -0.4902  0.4605  0.0083
   91MOL0     H12253   5.214   9.648   1.113 -2.8261  4.4413 -1.6919
   91MOL0     H12254   5.269   9.515   1.009  0.9661 -0.1522 -0.2204
   91MOL0     H12255   5.407   9.790   0.994  2.5625 -0.3352  2.1440
   91MOL0     H12256   5.463   9.639   0.931  1.5812  0.0473  0.6147
   91MOL0     H12257   5.478   9.561   1.177 -3.0402  0.6688  1.5185
   91MOL0     H12258   5.418   9.729   1.224 -1.0712  1.0746 -1.6249
   91MOL0     H12259   5.680   9.648   1.076 -0.2738  0.9112 -2.0651
   91MOL0     H12260   5.633   9.823   1.110  1.3853  1.3663  0.5316
   91MOL0     H12261   5.722   9.603   1.302  3.7500  1.1181 -0.3003
   91MOL0     H12262   5.615   9.698   1.363  0.3862 -1.4167  0.2328
   91MOL0     H12263   5.853   9.813   1.399  1.3165  0.2588 -0.9708
   91MOL0     H12264   5.864   9.800   1.226 -0.7031  0.1061 -0.6162
   91MOL0     H12265   4.818   9.473   0.940  0.7964 -0.5013  0.7826
   91MOL0     H12266   4.591   9.467   0.973  1.6366 -1.3983  1.4950
   91MOL0     H12267   4.194   9.614   1.055  1.5791 -0.3753  0.4062
   91MOL0     H12268   3.943   9.619   1.105  0.4082  2.9752 -1.5185
   91MOL0     H12269   4.715  10.472   1.824  2.2348  0.7588  0.0137
   91MOL0     H12270   4.889  10.489   2.004  0.1741  0.9073 -0.3918
   91MOL0     H12271   5.338  10.220   2.111  3.0815 -2.2165  0.9978
   91MOL0     H12272   5.542  10.235   2.201 -2.1387 -0.0151 -0.8444
   91MOL0     H12273   5.635  10.187   2.412  2.1996 -1.2914  1.6734
   91MOL0     H12274   5.760  10.265   2.510 -0.4484 -2.1716  0.3250
   91MOL0     H12275   5.776  10.269   2.205 -1.0444  0.1354  0.3699
   91MOL0     H12276   5.872  10.181   2.316  1.8553  0.2353 -1.7925
   91MOL0     H12277   6.013  10.365   2.294 -0.3086 -0.3015 -1.0054
   91MOL0     H12278   5.930  10.389   2.450 -0.7287 -0.2982  0.2635
   91MOL0     H12279   5.898  10.510   2.172 -0.4375  1.8531 -0.5756
   91MOL0     H12280   5.785  10.558   2.288 -0.6587  1.5456 -4.0046
   91MOL0     H12281   6.151  10.787   2.325  1.3836 -0.3850  1.5997
   91MOL0     H12282   5.442  10.586   2.419  0.1882  0.3112 -0.9773
   91MOL0     H12283   5.248  10.696   2.379 -0.4498 -0.8417  0.5121
   91MOL0     H12284   5.169  10.656   2.217 -3.0267 -0.4442  0.8320
   91MOL0     H12285   5.105  10.598   2.362 -0.0875 -1.6405 -0.3054
   92MOL0     O12286   6.614   5.246   4.380 -0.3790  0.3046  0.5254
   92MOL0     C12287   6.637   5.130   4.431  0.7527 -0.9749 -0.2785
   92MOL0     O12288   6.752   5.065   4.421 -0.5678 -0.2348  0.2313
   92MOL0     C12289   6.867   5.129   4.408 -0.6715  0.0794 -0.3006
   92MOL0     C12290   6.970   5.100   4.507 -0.6439 -0.2145 -0.2091
   92MOL0     C12291   7.098   5.158   4.494  0.2636  0.5481 -0.1307
   92MOL0     C12292   7.126   5.232   4.373 -0.0897  1.0736  0.0879
   92MOL0     O12293   7.256   5.273   4.359 -0.0581  0.3207 -0.6263
   92MOL0     C12294   7.277   5.370   4.258 -0.6851 -0.2509 -0.0425
   92MOL0     C12295   7.411   5.438   4.304  0.2032 -0.3510 -0.1135
   92MOL0     C12296   7.437   5.570   4.228  1.6302  0.2323 -0.9528
   92MOL0     C12297   7.541   5.675   4.294  0.5899 -0.2936  0.2950
   92MOL0     C12298   7.680   5.612   4.303  0.4652  0.2002  0.4676
   92MOL0     C12299   7.756   5.723   4.384  0.2969 -0.0966 -0.8411
   92MOL0     C12300   7.900   5.674   4.397  0.1850 -0.2098  1.2919
   92MOL0     C12301   7.965   5.731   4.518 -0.0581  0.2726 -0.3910
   92MOL0     N12302   7.990   5.875   4.496  0.5221 -0.2525 -0.6593
   92MOL0     C12303   8.083   5.935   4.414  0.1437  0.3823 -0.1228
   92MOL0     C12304   8.046   6.063   4.434  0.2106 -1.2062 -0.3888
   92MOL0     C12305   8.133   6.178   4.379 -0.2965 -0.3976 -0.0788
   92MOL0     C12306   8.272   6.183   4.446 -0.0397 -0.2988 -0.9057
   92MOL0     C12307   8.385   6.258   4.378 -0.3402 -0.6707 -0.3441
   92MOL0     C12308   8.450   6.201   4.250  0.1864  0.6878 -0.7425
   92MOL0     O12309   8.489   6.069   4.287  0.1743 -0.4593  0.6143
   92MOL0     C12310   8.619   6.042   4.332 -0.5486 -0.1334 -0.6051
   92MOL0     C12311   8.637   5.953   4.434 -0.0301  0.3017  0.3433
   92MOL0     C12312   8.764   5.901   4.475  0.0585  0.7425  0.4298
   92MOL0     C12313   8.882   5.949   4.417 -0.5530  0.5668  0.0064
   92MOL0     C12314   9.021   5.900   4.448 -0.2394 -0.0053  0.1019
   92MOL0     O12315   9.127   5.959   4.389 -0.4661 -0.1213 -0.0706
   92MOL0     C12316   9.251   5.924   4.417  0.0776 -0.5329 -0.3678
   92MOL0     C12317   9.331   6.006   4.506  0.1340  0.4329  0.4009
   92MOL0     C12318   9.459   5.956   4.546 -0.0318  0.7303 -0.4401
   92MOL0     C12319   9.508   5.843   4.485 -0.9508 -0.3511 -0.0835
   92MOL0     O12320   9.632   5.788   4.494 -0.0589 -0.4350  0.7769
   92MOL0     C12321   9.737   5.852   4.563 -0.5148  0.5206 -0.2934
   92MOL0     C12322   9.727   5.867   4.719 -0.1782 -0.1294 -0.2539
   92MOL0     C12323   9.858   5.890   4.794 -0.4140 -0.2770 -0.1127
   92MOL0     C12324   9.885   5.798   4.917  0.3771  0.4583 -0.5454
   92MOL0     C12325  10.000   5.856   4.999  0.9151 -0.7197  1.0112
   92MOL0     C12326  10.050   5.763   5.100 -0.1567  0.3768 -0.8969
   92MOL0     C12327  10.153   5.826   5.192 -0.9399 -0.3898 -0.5095
   92MOL0     C12328  10.168   5.735   5.318 -0.3871  0.5827  1.1883
   92MOL0    Cl12329  10.303   5.786   5.417 -0.0063  0.0119  0.3101
   92MOL0     C12330   9.431   5.776   4.394 -0.2021 -0.1933 -0.6869
   92MOL0     C12331   9.307   5.816   4.360  0.8095  0.4095  0.4623
   92MOL0     O12332   9.029   5.807   4.526 -0.3260 -0.0780  0.1598
   92MOL0     C12333   8.861   6.037   4.305  0.1337  0.0865 -0.5939
   92MOL0     C12334   8.736   6.089   4.271  0.2512  0.5352  0.1296
   92MOL0     N12335   7.937   6.080   4.519  0.1574  0.5823 -0.7197
   92MOL0     N12336   7.902   5.966   4.554 -0.8673  0.3442  0.7305
   92MOL0     C12337   7.019   5.246   4.278 -0.9485  0.4797 -0.2765
   92MOL0     C12338   6.897   5.196   4.290  0.1998 -0.2412 -0.1729
   92MOL0     C12339   6.528   5.062   4.501 -0.7494 -0.7693 -0.2731
   92MOL0     C12340   6.555   4.974   4.608  0.0257  0.2475 -0.0980
   92MOL0     C12341   6.463   4.887   4.659 -0.1266  0.0534 -0.0234
   92MOL0     C12342   6.330   4.890   4.608 -0.7704  0.2228  0.7949
   92MOL0     O12343   6.244   4.805   4.662 -0.1276 -0.0020 -0.3110
   92MOL0     C12344   6.104   4.830   4.666 -0.1557  0.2093 -0.9650
   92MOL0     C12345   6.055   4.741   4.547  1.0540  0.6608  0.1060
   92MOL0     C12346   5.894   4.762   4.531 -0.4424 -0.5242  0.3085
   92MOL0     C12347   5.842   4.703   4.394 -0.1460 -0.0656  0.3906
   92MOL0     C12348   5.883   4.798   4.281  0.3845  0.5992 -0.0385
   92MOL0     C12349   5.914   4.868   4.183  0.7677  0.8802 -0.6360
   92MOL0     C12350   6.298   4.989   4.516  0.5179 -0.1887  0.4332
   92MOL0     C12351   6.390   5.073   4.457  0.0399  0.3415 -0.0517
   92MOL0     C12352   6.337   5.162   4.343 -0.3738  0.3160  0.0538
   92MOL0     H12353   6.940   5.032   4.586  0.1762 -3.5718 -2.5403
   92MOL0     H12354   7.168   5.148   4.577  1.7417  0.5052 -1.3457
   92MOL0     H12355   7.291   5.327   4.159  5.0392  1.2147 -0.1974
   92MOL0     H12356   7.194   5.441   4.260 -0.4850 -0.0194  1.0313
   92MOL0     H12357   7.498   5.373   4.292  0.0809 -0.4347 -0.5660
   92MOL0     H12358   7.396   5.464   4.409  0.7133 -0.8280  0.0842
   92MOL0     H12359   7.341   5.622   4.227  1.4279  0.2142  2.9803
   92MOL0     H12360   7.462   5.543   4.125  1.9308  1.5391 -1.2510
   92MOL0     H12361   7.539   5.759   4.224  0.6719  0.1775  0.8545
   92MOL0     H12362   7.508   5.697   4.396 -0.0186  0.1633  0.0050
   92MOL0     H12363   7.690   5.522   4.366  1.4507  0.8766  1.3209
   92MOL0     H12364   7.718   5.599   4.201  1.1885  0.4893  0.6927
   92MOL0     H12365   7.754   5.820   4.334 -1.4048  0.4481  0.1846
   92MOL0     H12366   7.709   5.734   4.482 -0.0297 -2.4720 -0.6936
   92MOL0     H12367   7.963   5.701   4.312  0.9459  0.6020  2.0873
   92MOL0     H12368   7.903   5.564   4.400 -0.0779 -0.4506 -2.6469
   92MOL0     H12369   7.896   5.708   4.600 -0.0453 -1.0766 -0.7310
   92MOL0     H12370   8.061   5.680   4.526  0.4054  0.9734 -1.3009
   92MOL0     H12371   8.155   5.894   4.343  2.0936 -1.2465  2.5869
   92MOL0     H12372   8.137   6.168   4.270 -3.3058 -0.6720 -0.2462
   92MOL0     H12373   8.079   6.273   4.385  3.2355  1.8587 -0.7566
   92MOL0     H12374   8.245   6.224   4.544 -3.3690 -0.1846 -1.7516
   92MOL0     H12375   8.307   6.088   4.489  1.8031  1.7447  2.5832
   92MOL0     H12376   8.468   6.241   4.447 -2.9335 -1.4023  2.8565
   92MOL0     H12377   8.372   6.366   4.372  1.2876 -0.4201  0.0583
   92MOL0     H12378   8.537   6.259   4.219 -2.2166  3.6808 -2.4548
   92MOL0     H12379   8.377   6.216   4.170 -0.0363  3.0547 -0.1605
   92MOL0     H12380   8.546   5.923   4.486 -1.1464  2.2868 -0.3467
   92MOL0     H12381   8.757   5.823   4.550 -2.0760 -1.3117 -1.7305
   92MOL0     H12382   9.296   6.102   4.545 -2.5952  0.1894 -1.1942
   92MOL0     H12383   9.510   6.015   4.622  1.1624 -0.3826 -0.3523
   92MOL0     H12384   9.830   5.799   4.542 -1.9081 -2.2849  0.1906
   92MOL0     H12385   9.733   5.953   4.520  1.5473 -0.2673 -2.5063
   92MOL0     H12386   9.653   5.941   4.750  1.9232  1.0941  2.2038
   92MOL0     H12387   9.672   5.780   4.756 -2.4581  1.3893  0.1344
   92MOL0     H12388   9.943   5.869   4.728 -0.0388 -1.1238  0.6167
   92MOL0     H12389   9.867   5.990   4.839 -0.9324 -1.6705  3.3843
   92MOL0     H12390   9.911   5.696   4.885  0.6976  0.0497  0.9772
   92MOL0     H12391   9.791   5.780   4.970  1.4461 -1.3942  0.8382
   92MOL0     H12392   9.964   5.948   5.045  0.6689  0.5351 -1.5181
   92MOL0     H12393  10.064   5.881   4.913 -3.2468  0.2645 -2.1088
   92MOL0     H12394   9.968   5.716   5.155  0.4163 -3.2128 -2.8285
   92MOL0     H12395  10.082   5.671   5.051 -1.4845 -0.9867  0.7101
   92MOL0     H12396  10.125   5.927   5.222 -0.3024  0.1029 -1.5131
   92MOL0     H12397  10.251   5.832   5.145 -1.1636  0.5200 -0.8830
   92MOL0     H12398  10.071   5.729   5.369 -0.1105 -0.3419  1.6093
   92MOL0     H12399  10.179   5.629   5.296 -1.6332  1.2051 -3.4791
   92MOL0     H12400   9.471   5.695   4.335  1.2415 -1.2352  1.5721
   92MOL0     H12401   9.256   5.757   4.285 -0.7392  1.9311  0.2734
   92MOL0     H12402   8.944   6.085   4.253 -0.6097  2.3412  0.1673
   92MOL0     H12403   8.733   6.156   4.185 -0.9542 -1.1561 -1.2116
   92MOL0     H12404   7.038   5.292   4.181 -0.5345  0.0702 -0.3946
   92MOL0     H12405   6.819   5.207   4.215  2.8286  0.3913 -3.0302
   92MOL0     H12406   6.647   4.963   4.664 -1.0241  0.6907  1.7935
   92MOL0     H12407   6.491   4.821   4.741 -0.6107  0.1354  0.2108
   92MOL0     H12408   6.069   4.933   4.652 -2.8972 -0.2132  1.8757
   92MOL0     H12409   6.066   4.788   4.759 -4.1754 -0.1068 -2.5305
   92MOL0     H12410   6.070   4.636   4.572 -2.3715 -0.1209 -0.5613
   92MOL0     H12411   6.104   4.768   4.453 -0.1403 -0.9518 -1.0250
   92MOL0     H12412   5.853   4.860   4.556  1.2480 -0.4177  2.9681
   92MOL0     H12413   5.840   4.707   4.608  0.6110  0.3759  1.7335
   92MOL0     H12414   5.895   4.608   4.379 -2.1049 -1.0548 -0.5496
   92MOL0     H12415   5.735   4.684   4.393 -0.0982 -0.3185 -0.0792
   92MOL0     H12416   5.934   4.938   4.104  1.8262  0.5325 -0.6924
   92MOL0     H12417   6.194   5.003   4.487 -0.0853  1.0876  2.9222
   92MOL0     H12418   6.238   5.132   4.307  0.7932 -1.4954 -1.8407
   92MOL0     H12419   6.334   5.264   4.381  2.8318  0.1541  1.0881
   92MOL0     H12420   6.397   5.164   4.252 -1.2586 -3.2993 -0.7877
   93MOL0     O12421   6.172   7.585   3.767 -0.3570  0.2546  0.7344
   93MOL0     C12422   6.106   7.535   3.676 -0.0608  0.9605  0.5369
   93MOL0     O12423   6.158   7.514   3.550 -0.1124 -0.7089 -0.1634
   93MOL0     C12424   6.291   7.530   3.542  0.7966  1.3215  0.1821
   93MOL0     C12425   6.372   7.420   3.564  0.4523 -0.2616  0.0545
   93MOL0     C12426   6.509   7.432   3.561 -0.5911 -0.0994  0.0878
   93MOL0     C12427   6.574   7.549   3.532  0.4003  0.0790 -0.3785
   93MOL0     O12428   6.700   7.576   3.563 -0.5755  0.4380 -0.2934
   93MOL0     C12429   6.789   7.462   3.584 -0.2251  0.0695  0.3535
   93MOL0     C12430   6.931   7.513   3.565 -0.6927 -0.0716  0.4992
   93MOL0     C12431   7.039   7.410   3.581 -0.6945 -0.4723 -0.2956
   93MOL0     C12432   7.184   7.461   3.546 -0.1870  0.4291 -0.1940
   93MOL0     C12433   7.290   7.357   3.562  0.0184  0.1904 -0.0589
   93MOL0     C12434   7.304   7.245   3.462  0.1738 -0.1264 -0.2457
   93MOL0     C12435   7.439   7.171   3.489 -0.2523 -0.1246  1.0884
   93MOL0     C12436   7.472   7.082   3.368 -0.2692 -0.5716  0.2871
   93MOL0     N12437   7.547   6.967   3.401  0.5323 -0.0011  0.3721
   93MOL0     C12438   7.492   6.847   3.428 -0.1256  1.0393  0.9085
   93MOL0     C12439   7.591   6.773   3.474 -1.1616 -0.2644 -0.8048
   93MOL0     C12440   7.600   6.625   3.499  0.0160  0.2083 -0.3602
   93MOL0     C12441   7.563   6.590   3.644  0.2142  0.2551 -0.5087
   93MOL0     C12442   7.557   6.436   3.657 -0.3227 -0.1944  0.8205
   93MOL0     C12443   7.500   6.398   3.796 -0.3066 -0.1284  0.2515
   93MOL0     O12444   7.493   6.251   3.810  0.8270  0.0493 -0.3696
   93MOL0     C12445   7.399   6.181   3.743 -0.6088 -0.4309 -0.3593
   93MOL0     C12446   7.265   6.213   3.768 -0.3558 -0.6279  0.8546
   93MOL0     C12447   7.172   6.135   3.703 -1.2002 -0.0715 -0.7009
   93MOL0     C12448   7.203   6.051   3.599 -0.4395 -0.1807  0.4046
   93MOL0     C12449   7.088   5.987   3.530  0.2507  0.0623 -0.5819
   93MOL0     O12450   7.117   5.903   3.422 -0.1426  0.0695 -0.0590
   93MOL0     C12451   7.009   5.847   3.354 -0.3855  0.0525 -0.1376
   93MOL0     C12452   6.881   5.899   3.317 -0.8272  0.6607 -0.9766
   93MOL0     C12453   6.784   5.815   3.266 -0.0880 -0.0592  0.8763
   93MOL0     C12454   6.799   5.680   3.243  0.5569 -0.2277  0.2534
   93MOL0     O12455   6.705   5.606   3.175  0.2062  0.2211 -0.2124
   93MOL0     C12456   6.570   5.613   3.216 -0.0710 -0.1825  0.2835
   93MOL0     C12457   6.506   5.482   3.166 -0.7010  0.1602 -0.1897
   93MOL0     C12458   6.351   5.487   3.185  0.2867 -0.7772 -0.1865
   93MOL0     C12459   6.282   5.414   3.067  0.5146 -0.9395  0.5371
   93MOL0     C12460   6.274   5.268   3.112  0.3759 -0.0192 -0.2262
   93MOL0     C12461   6.185   5.175   3.034 -0.9037  0.0644 -1.0050
   93MOL0     C12462   6.177   5.034   3.094 -0.9736 -0.0120  0.0555
   93MOL0     C12463   6.309   4.957   3.110 -0.4448  0.5712 -0.3544
   93MOL0    Cl12464   6.278   4.794   3.164 -0.0569  0.1843  0.2703
   93MOL0     C12465   6.925   5.629   3.268  0.3832 -0.4399 -0.1739
   93MOL0     C12466   7.027   5.711   3.316 -0.6243 -0.1987 -0.8406
   93MOL0     O12467   6.974   6.008   3.577 -0.2066 -0.2177  0.5244
   93MOL0     C12468   7.342   6.029   3.564  0.8020  0.6137 -0.0230
   93MOL0     C12469   7.442   6.094   3.646  0.3957  0.3706 -0.0852
   93MOL0     N12470   7.704   6.852   3.493  0.0803  0.0188 -0.0392
   93MOL0     N12471   7.677   6.976   3.450 -0.6434  0.7652  0.1679
   93MOL0     C12472   6.490   7.661   3.496  0.2074 -0.0293  0.0729
   93MOL0     C12473   6.346   7.651   3.494 -0.0881 -1.0527  0.4910
   93MOL0     C12474   5.960   7.521   3.697 -0.5788 -0.1979  0.9283
   93MOL0     C12475   5.924   7.528   3.830 -0.5129  0.3264  0.2624
   93MOL0     C12476   5.791   7.513   3.862  0.1376 -0.3954  0.6142
   93MOL0     C12477   5.698   7.496   3.768  1.2425 -0.3863 -0.4164
   93MOL0     O12478   5.566   7.482   3.806 -0.7045 -0.4351 -0.3777
   93MOL0     C12479   5.480   7.601   3.813 -0.8148  0.6509 -0.6379
   93MOL0     C12480   5.356   7.585   3.906 -0.4646  0.7343 -1.4161
   93MOL0     C12481   5.230   7.606   3.822  0.1587 -0.0954 -0.5898
   93MOL0     C12482   5.189   7.480   3.734  0.4301 -0.7675 -0.7466
   93MOL0     C12483   5.122   7.372   3.813  0.3685 -0.4406  0.5256
   93MOL0     C12484   5.066   7.288   3.882  0.6143  0.2332  0.3324
   93MOL0     C12485   5.724   7.506   3.632 -0.5331 -0.7154  0.0521
   93MOL0     C12486   5.862   7.512   3.588 -0.0151  0.0212 -0.7057
   93MOL0     C12487   5.886   7.508   3.437 -0.0783 -0.3984  0.4376
   93MOL0     H12488   6.331   7.325   3.597 -0.9196 -0.2147 -1.4027
   93MOL0     H12489   6.557   7.340   3.594  0.0564  1.0164  2.4288
   93MOL0     H12490   6.780   7.431   3.688  2.8150 -0.1417  0.6307
   93MOL0     H12491   6.759   7.383   3.513 -3.5044 -0.8676  2.5483
   93MOL0     H12492   6.954   7.597   3.631  2.2464  1.8146 -2.6400
   93MOL0     H12493   6.932   7.545   3.461 -1.5878 -2.2076 -0.2200
   93MOL0     H12494   7.013   7.325   3.517 -0.1888 -2.6058  2.1664
   93MOL0     H12495   7.035   7.370   3.683  2.4860  3.3439  1.5918
   93MOL0     H12496   7.171   7.479   3.439 -2.9237  2.2370  0.3474
   93MOL0     H12497   7.206   7.553   3.602  0.7662  0.0078  0.1500
   93MOL0     H12498   7.385   7.409   3.578  0.6651 -1.2055  0.8968
   93MOL0     H12499   7.277   7.302   3.656 -1.1755  0.4607 -0.0562
   93MOL0     H12500   7.225   7.176   3.491  0.4945  0.1077  1.2818
   93MOL0     H12501   7.305   7.285   3.361 -2.4740 -1.0591 -0.7131
   93MOL0     H12502   7.442   7.110   3.580  0.1797  0.6986  1.6370
   93MOL0     H12503   7.522   7.239   3.510  0.2038 -1.3091  3.4650
   93MOL0     H12504   7.379   7.046   3.323  0.8735 -1.4192 -1.4729
   93MOL0     H12505   7.523   7.143   3.293 -0.6968  2.4443  2.2649
   93MOL0     H12506   7.405   6.802   3.381  0.0728  0.7142  0.8533
   93MOL0     H12507   7.525   6.574   3.438 -1.2452 -0.6574  1.7919
   93MOL0     H12508   7.700   6.583   3.485  0.7385  2.2201 -1.5631
   93MOL0     H12509   7.641   6.620   3.714 -0.8179 -0.4499  1.0100
   93MOL0     H12510   7.468   6.627   3.684  0.2760  0.7369 -0.8110
   93MOL0     H12511   7.659   6.404   3.634 -0.5989  0.9266 -2.5483
   93MOL0     H12512   7.489   6.407   3.576 -1.0165  2.2311  0.4461
   93MOL0     H12513   7.400   6.442   3.803 -0.5811  0.0387 -2.9581
   93MOL0     H12514   7.564   6.439   3.875  1.8886  0.7623 -1.8526
   93MOL0     H12515   7.226   6.280   3.844  1.9332  0.5005  1.1437
   93MOL0     H12516   7.069   6.142   3.735 -2.0400 -2.8932 -2.4538
   93MOL0     H12517   6.857   6.005   3.321  1.4731  1.4503 -4.3437
   93MOL0     H12518   6.695   5.873   3.244 -0.3076 -0.7646 -0.1614
   93MOL0     H12519   6.561   5.618   3.325 -1.7283  0.7665  0.1294
   93MOL0     H12520   6.509   5.692   3.171  1.6782  1.4293  0.6335
   93MOL0     H12521   6.524   5.468   3.059 -1.5068  2.1603 -0.6379
   93MOL0     H12522   6.546   5.404   3.231 -0.7956  1.6790  1.7782
   93MOL0     H12523   6.320   5.434   3.275 -0.1850  1.6625  1.1791
   93MOL0     H12524   6.304   5.586   3.180  0.4520 -0.7632 -1.9538
   93MOL0     H12525   6.333   5.427   2.972 -0.9838  0.4090 -0.1297
   93MOL0     H12526   6.180   5.451   3.052  0.7143 -0.3275  0.6682
   93MOL0     H12527   6.232   5.273   3.213  1.4885 -1.4746  0.3375
   93MOL0     H12528   6.378   5.236   3.111  1.1688  2.3493 -0.6011
   93MOL0     H12529   6.081   5.210   3.032 -0.0592  2.8035 -1.9342
   93MOL0     H12530   6.214   5.163   2.930 -1.2985 -1.2165 -0.9826
   93MOL0     H12531   6.124   4.971   3.021 -0.3990 -0.9030  0.3944
   93MOL0     H12532   6.119   5.034   3.187 -1.5264 -1.9326 -0.2379
   93MOL0     H12533   6.364   4.950   3.016  1.3650 -2.1345  0.7715
   93MOL0     H12534   6.377   5.013   3.176  0.6981 -0.7048 -0.3990
   93MOL0     H12535   6.935   5.522   3.253  1.8316 -0.7547  2.4644
   93MOL0     H12536   7.128   5.682   3.342 -0.9362  0.7442  1.5974
   93MOL0     H12537   7.359   5.951   3.490  1.0567  1.4070 -0.8168
   93MOL0     H12538   7.550   6.089   3.630  0.4743  2.8454 -0.6073
   93MOL0     H12539   6.550   7.747   3.465  0.1783  0.3657  1.0808
   93MOL0     H12540   6.283   7.738   3.476 -0.4364 -1.1001  1.4398
   93MOL0     H12541   6.002   7.533   3.906  2.4207  3.4440 -2.5836
   93MOL0     H12542   5.762   7.513   3.966 -1.3447  2.1340  0.2715
   93MOL0     H12543   5.448   7.643   3.717 -1.2478  2.7300  0.3490
   93MOL0     H12544   5.538   7.678   3.866 -2.0313  0.6723  0.7391
   93MOL0     H12545   5.346   7.654   3.991 -1.4277 -0.0683 -0.8535
   93MOL0     H12546   5.361   7.486   3.952 -0.0532  2.6084  3.1709
   93MOL0     H12547   5.242   7.694   3.758  0.9480 -0.0265 -0.3549
   93MOL0     H12548   5.152   7.631   3.894 -0.8068 -1.8404 -0.9589
   93MOL0     H12549   5.115   7.517   3.663  1.8730  4.8058  0.1488
   93MOL0     H12550   5.268   7.447   3.666  0.7690 -1.2561 -0.1401
   93MOL0     H12551   5.024   7.216   3.949 -1.1866 -1.6125 -2.5481
   93MOL0     H12552   5.642   7.501   3.560 -1.6373 -4.4128  1.3223
   93MOL0     H12553   5.904   7.406   3.401  2.4288  0.6152 -1.4276
   93MOL0     H12554   5.794   7.546   3.393 -0.7106 -0.7905  1.3688
   93MOL0     H12555   5.967   7.568   3.397 -0.2502  0.3565  1.1953
   94MOL0     O12556   9.380   1.633   3.118 -0.3885  0.6352 -0.4818
   94MOL0     C12557   9.293   1.567   3.075 -0.1723  0.2212 -0.1943
   94MOL0     O12558   9.307   1.505   2.956 -0.0350 -0.7972  0.3045
   94MOL0     C12559   9.407   1.549   2.877 -0.4400  0.8316 -0.6823
   94MOL0     C12560   9.418   1.679   2.835  0.1781  0.8260 -0.0506
   94MOL0     C12561   9.522   1.708   2.747 -0.7860  0.4042 -0.3789
   94MOL0     C12562   9.606   1.611   2.701  0.2414 -1.0388  0.2195
   94MOL0     O12563   9.706   1.633   2.617 -0.6035 -0.6047 -0.2088
   94MOL0     C12564   9.782   1.755   2.625 -0.0087 -0.5147 -0.7089
   94MOL0     C12565   9.886   1.758   2.510 -0.4697  0.2029 -0.2249
   94MOL0     C12566   9.996   1.660   2.553  0.2641 -0.9159  0.3685
   94MOL0     C12567  10.136   1.703   2.493  0.2319 -0.4443 -0.1331
   94MOL0     C12568  10.193   1.819   2.567 -0.3794 -0.7985  0.1186
   94MOL0     C12569  10.327   1.853   2.508  0.4472  1.2739  0.4350
   94MOL0     C12570  10.333   1.916   2.367  0.7507 -0.0959 -0.2229
   94MOL0     C12571  10.296   2.072   2.368 -0.8698  0.2685  0.1893
   94MOL0     N12572  10.314   2.129   2.240  0.6003 -0.9859  0.2894
   94MOL0     C12573  10.424   2.198   2.203  0.3764 -0.2560 -0.4263
   94MOL0     C12574  10.398   2.233   2.077 -0.0092 -0.1805 -0.0211
   94MOL0     C12575  10.489   2.318   1.991  0.0508  0.2439 -0.2477
   94MOL0     C12576  10.414   2.413   1.897 -0.3231  0.1821  1.0902
   94MOL0     C12577  10.362   2.352   1.766  0.5004  0.1154  0.4145
   94MOL0     C12578  10.293   2.456   1.675 -0.1174 -0.4349  0.0966
   94MOL0     O12579  10.275   2.396   1.545  0.2906 -0.3674  1.2053
   94MOL0     C12580  10.145   2.373   1.502  0.0175 -0.2422 -0.0059
   94MOL0     C12581  10.038   2.461   1.516  0.2028 -0.2479  0.5163
   94MOL0     C12582   9.906   2.426   1.476 -0.3750  0.2791 -0.3569
   94MOL0     C12583   9.881   2.295   1.446  0.3274  0.6960 -0.3314
   94MOL0     C12584   9.741   2.255   1.417 -1.1259 -0.1720  0.0022
   94MOL0     O12585   9.722   2.120   1.394 -0.2342 -0.0652 -0.0212
   94MOL0     C12586   9.591   2.077   1.388  1.1244 -0.3072 -0.1435
   94MOL0     C12587   9.533   2.033   1.503  0.0840 -0.1620 -0.8376
   94MOL0     C12588   9.410   1.969   1.511 -0.5214 -0.4397 -0.2166
   94MOL0     C12589   9.337   1.962   1.391 -0.5488  0.0699 -1.2244
   94MOL0     O12590   9.215   1.915   1.378 -0.3187  0.1618 -0.3371
   94MOL0     C12591   9.146   1.865   1.497  0.0475  0.2658  0.2722
   94MOL0     C12592   9.022   1.790   1.443  1.0181  0.3682 -0.0967
   94MOL0     C12593   8.942   1.731   1.565  0.2113  0.7554  1.6044
   94MOL0     C12594   8.877   1.841   1.650  0.9616 -0.0476  0.3219
   94MOL0     C12595   8.730   1.816   1.669  0.6919  0.7625 -0.0930
   94MOL0     C12596   8.666   1.900   1.777  0.2501  0.0425  0.4471
   94MOL0     C12597   8.640   2.042   1.738 -0.0532 -0.0863 -0.2197
   94MOL0     C12598   8.525   2.063   1.638 -0.6121 -0.9790  0.0499
   94MOL0    Cl12599   8.527   2.225   1.581  0.1390  0.1936  0.0977
   94MOL0     C12600   9.393   2.005   1.273 -0.5263 -0.6849  0.8007
   94MOL0     C12601   9.523   2.052   1.268 -0.2561 -0.5405  0.3085
   94MOL0     O12602   9.656   2.342   1.430  0.3198  0.8453  1.0397
   94MOL0     C12603   9.986   2.207   1.430  0.5059  0.5290  0.6966
   94MOL0     C12604  10.118   2.244   1.446  0.1237 -0.3640 -0.4101
   94MOL0     N12605  10.271   2.179   2.046 -0.2929  0.6151 -0.0171
   94MOL0     N12606  10.216   2.137   2.148 -0.2315 -0.9495  0.0316
   94MOL0     C12607   9.592   1.483   2.733 -1.1166  0.0589  0.4232
   94MOL0     C12608   9.500   1.450   2.830  0.2715  0.5682 -0.8093
   94MOL0     C12609   9.163   1.563   3.153 -0.6274 -0.3339 -0.0928
   94MOL0     C12610   9.156   1.660   3.249 -0.7142 -0.4324 -0.4692
   94MOL0     C12611   9.041   1.669   3.337 -0.1453  0.5352 -0.1182
   94MOL0     C12612   8.941   1.573   3.324 -0.3513 -0.4423  0.2089
   94MOL0     O12613   8.835   1.581   3.413 -0.6106  0.1092 -0.1018
   94MOL0     C12614   8.705   1.568   3.354 -0.0731 -0.1957  0.2626
   94MOL0     C12615   8.680   1.679   3.259  0.7597  0.1276  1.0026
   94MOL0     C12616   8.634   1.808   3.347 -0.8091  0.0635 -0.6487
   94MOL0     C12617   8.496   1.789   3.407 -0.0307 -0.5649 -0.3342
   94MOL0     C12618   8.463   1.923   3.452  0.9699 -0.6111  0.3772
   94MOL0     C12619   8.431   2.034   3.483  0.4392  0.8403  0.6063
   94MOL0     C12620   8.945   1.468   3.228 -0.5297 -1.0182 -0.3830
   94MOL0     C12621   9.062   1.460   3.140 -0.0650 -0.1614 -0.1374
   94MOL0     C12622   9.081   1.345   3.052  0.5777  0.0148  1.4120
   94MOL0     H12623   9.351   1.754   2.875 -0.1587  1.4380 -1.6962
   94MOL0     H12624   9.521   1.808   2.703 -1.2201  1.2977  1.5695
   94MOL0     H12625   9.709   1.836   2.627 -1.1717 -1.5388  0.9541
   94MOL0     H12626   9.840   1.753   2.718 -0.5610 -0.0087 -0.3474
   94MOL0     H12627   9.917   1.860   2.484 -1.0730  1.0944  2.2921
   94MOL0     H12628   9.836   1.722   2.420  1.1648  1.7067 -1.8105
   94MOL0     H12629   9.970   1.561   2.514  2.2640 -1.1948 -0.3936
   94MOL0     H12630  10.008   1.649   2.661 -2.0296 -1.0311  0.6547
   94MOL0     H12631  10.205   1.618   2.493  1.2662  0.2562  3.1773
   94MOL0     H12632  10.108   1.732   2.392 -2.6901  1.1315  0.9983
   94MOL0     H12633  10.127   1.907   2.569 -1.2115 -1.4046 -0.3152
   94MOL0     H12634  10.216   1.794   2.671  1.5160  0.2461  0.0042
   94MOL0     H12635  10.374   1.915   2.585 -2.1974 -0.1677  3.4593
   94MOL0     H12636  10.381   1.757   2.508  0.4798  1.2668 -0.9220
   94MOL0     H12637  10.262   1.862   2.305 -0.4722  1.4498 -0.2067
   94MOL0     H12638  10.435   1.898   2.332  0.1050  1.0885 -2.9257
   94MOL0     H12639  10.197   2.099   2.405 -0.2137  0.2261  2.1042
   94MOL0     H12640  10.369   2.122   2.432 -1.6965  1.0881  0.5169
   94MOL0     H12641  10.515   2.213   2.260  1.7693  0.7584 -2.7732
   94MOL0     H12642  10.552   2.375   2.061  3.9009  0.5332 -3.5628
   94MOL0     H12643  10.547   2.249   1.929 -1.6017 -0.9791 -0.4864
   94MOL0     H12644  10.325   2.452   1.948 -1.3598 -0.4874 -0.1329
   94MOL0     H12645  10.479   2.497   1.872  0.9041 -0.5638  1.7007
   94MOL0     H12646  10.290   2.278   1.803 -2.3734  2.7684  0.5121
   94MOL0     H12647  10.433   2.296   1.704  0.8415  0.2360  0.6891
   94MOL0     H12648  10.357   2.543   1.657 -2.6737  0.8921 -3.9907
   94MOL0     H12649  10.196   2.488   1.713 -1.8218 -1.7356 -2.7612
   94MOL0     H12650  10.066   2.561   1.548 -2.4085  0.9511 -0.6595
   94MOL0     H12651   9.828   2.500   1.490 -2.7771 -2.4328  1.9289
   94MOL0     H12652   9.589   2.042   1.595 -2.3317 -0.5687  0.7581
   94MOL0     H12653   9.381   1.935   1.610  1.9548 -1.6583  0.1706
   94MOL0     H12654   9.208   1.786   1.541 -0.5091  0.5925  1.7220
   94MOL0     H12655   9.125   1.947   1.566 -2.0477  0.8240 -0.9163
   94MOL0     H12656   8.948   1.848   1.387 -1.0843 -0.6210  1.5105
   94MOL0     H12657   9.062   1.703   1.389  0.4070  0.7191 -1.1365
   94MOL0     H12658   8.877   1.652   1.526  3.8386 -0.5113 -2.7448
   94MOL0     H12659   9.007   1.671   1.631  0.2327 -0.6495  0.3695
   94MOL0     H12660   8.891   1.944   1.616 -0.0872 -0.3372 -1.0756
   94MOL0     H12661   8.919   1.842   1.751 -0.8449  0.1776  1.1061
   94MOL0     H12662   8.715   1.713   1.702 -1.2276  0.8887 -0.4338
   94MOL0     H12663   8.673   1.821   1.576 -0.0573 -1.0129  0.2293
   94MOL0     H12664   8.571   1.854   1.806 -0.3885  0.7244 -0.4883
   94MOL0     H12665   8.727   1.890   1.867  1.7209 -2.2245 -0.7119
   94MOL0     H12666   8.729   2.087   1.693  0.3187 -0.3277  0.2683
   94MOL0     H12667   8.611   2.099   1.827  0.0934  1.2575 -1.0159
   94MOL0     H12668   8.526   2.001   1.549 -0.5396 -1.5269  0.4273
   94MOL0     H12669   8.432   2.041   1.691 -0.6420 -1.4165 -0.1857
   94MOL0     H12670   9.338   1.999   1.180 -2.7995 -1.3801  2.1266
   94MOL0     H12671   9.571   2.079   1.175  0.0524  2.2943  1.1825
   94MOL0     H12672   9.959   2.104   1.406 -2.6058  1.9356 -2.8727
   94MOL0     H12673  10.193   2.166   1.450 -2.6421 -3.1497  0.6864
   94MOL0     H12674   9.650   1.398   2.699 -0.0111  1.3331 -1.0186
   94MOL0     H12675   9.500   1.346   2.861 -0.2304  0.8511  0.1950
   94MOL0     H12676   9.226   1.743   3.243 -0.9110 -0.3136 -1.2820
   94MOL0     H12677   9.024   1.752   3.404 -2.7063 -0.6084  0.7672
   94MOL0     H12678   8.636   1.558   3.439  1.0106 -0.7573  1.0980
   94MOL0     H12679   8.698   1.467   3.312  0.8567 -0.8340  1.5645
   94MOL0     H12680   8.594   1.646   3.200  2.6162  0.2289 -1.9778
   94MOL0     H12681   8.763   1.701   3.192  2.1779 -3.5036  1.3301
   94MOL0     H12682   8.641   1.897   3.283  3.1578 -0.8390 -1.7256
   94MOL0     H12683   8.709   1.822   3.425 -0.2305  1.9519 -1.4917
   94MOL0     H12684   8.429   1.755   3.328 -0.0531 -1.2769 -0.0220
   94MOL0     H12685   8.490   1.719   3.491 -1.5364 -2.5115 -1.9700
   94MOL0     H12686   8.393   2.130   3.512  2.4841  1.7545  0.4617
   94MOL0     H12687   8.869   1.392   3.224 -0.4413 -1.1854  0.7166
   94MOL0     H12688   9.048   1.363   2.950  3.3471 -1.1110  0.2267
   94MOL0     H12689   9.187   1.317   3.050  0.3944 -0.6977 -0.9697
   94MOL0     H12690   9.034   1.258   3.099 -0.8740 -0.1795 -0.3214
   95MOL0     O12691   4.337   8.280  10.216 -0.1679 -0.6242 -0.0196
   95MOL0     C12692   4.319   8.281  10.338  0.6932 -0.4201  0.0999
   95MOL0     O12693   4.412   8.296  10.432 -0.4740  0.0853  0.1643
   95MOL0     C12694   4.544   8.299  10.384  0.1145 -0.0010  0.5323
   95MOL0     C12695   4.588   8.402  10.297 -1.3625 -0.1716 -0.5303
   95MOL0     C12696   4.730   8.414  10.267 -0.5472  0.2355 -0.4112
   95MOL0     C12697   4.825   8.321  10.309  0.0367 -0.4341  0.8064
   95MOL0     O12698   4.955   8.327  10.269 -0.0618  0.0701 -0.3703
   95MOL0     C12699   4.993   8.405  10.152 -0.3949  0.5866 -0.3719
   95MOL0     C12700   5.147   8.404  10.146  0.8308  0.1153  0.9789
   95MOL0     C12701   5.215   8.280  10.197  0.5756  0.5695 -0.2417
   95MOL0     C12702   5.370   8.296  10.193 -0.0991 -0.0546 -0.0208
   95MOL0     C12703   5.446   8.176  10.259  0.2304 -0.1466 -0.0020
   95MOL0     C12704   5.415   8.036  10.219 -0.4843 -0.3802  0.2544
   95MOL0     C12705   5.503   7.920  10.287  0.0329 -0.9196 -0.3775
   95MOL0     C12706   5.642   7.914  10.219  0.8900  0.2348 -0.2899
   95MOL0     N12707   5.730   7.800  10.260 -0.6465  0.1534 -0.2708
   95MOL0     C12708   5.679   7.692  10.333 -0.5818  0.1368 -0.4781
   95MOL0     C12709   5.791   7.640  10.383  0.2077  0.2409 -0.7161
   95MOL0     C12710   5.810   7.517  10.469  0.0785  0.0897 -0.1785
   95MOL0     C12711   5.895   7.555  10.585  0.6121  0.3976  0.2087
   95MOL0     C12712   5.932   7.445  10.685  0.0326  0.4750 -0.3639
   95MOL0     C12713   5.979   7.503  10.815 -0.2924  0.0652 -0.3558
   95MOL0     O12714   6.016   7.388  10.893  0.7029 -0.3260 -0.3695
   95MOL0     C12715   6.069   7.416  11.020  0.6311 -0.1019  0.4904
   95MOL0     C12716   6.111   7.307  11.101 -0.2101  1.3933  0.1155
   95MOL0     C12717   6.156   7.313  11.230  0.1053  0.2681  0.4286
   95MOL0     C12718   6.174   7.437  11.284  0.7224  1.1965 -0.1153
   95MOL0     C12719   6.251   7.436  11.410  0.3221 -0.2348 -0.0872
   95MOL0     O12720   6.304   7.558  11.451 -0.1116 -0.3749  0.5573
   95MOL0     C12721   6.401   7.569  11.539 -0.0782  0.3303 -0.2585
   95MOL0     C12722   6.386   7.536  11.669 -0.1180 -0.7600  0.3812
   95MOL0     C12723   6.494   7.559  11.761  0.8307  0.0483  0.2967
   95MOL0     C12724   6.620   7.617  11.730 -0.2144  0.2696 -0.4840
   95MOL0     O12725   6.729   7.637  11.806 -0.7686  0.0561  0.6472
   95MOL0     C12726   6.721   7.597  11.940 -0.0333  0.2983 -0.5342
   95MOL0     C12727   6.858   7.598  12.015 -0.4611  0.7850  0.0601
   95MOL0     C12728   6.912   7.745  12.018  0.7474  0.4514  0.3591
   95MOL0     C12729   7.009   7.779  12.130  1.0842 -0.4138  0.5984
   95MOL0     C12730   6.947   7.812  12.270 -0.7035  0.0803  0.4126
   95MOL0     C12731   7.052   7.837  12.383 -0.2274  0.4347  1.4271
   95MOL0     C12732   7.007   7.887  12.513  0.0399  0.5333  0.0459
   95MOL0     C12733   7.125   7.895  12.618 -0.6805 -0.5850  0.6820
   95MOL0    Cl12734   7.045   7.920  12.775  0.5259  0.8038  0.0943
   95MOL0     C12735   6.626   7.655  11.597  0.1725 -0.3331 -0.9895
   95MOL0     C12736   6.521   7.638  11.506  0.1899 -0.4931 -0.1419
   95MOL0     O12737   6.275   7.331  11.465  0.8479 -0.6091  0.2695
   95MOL0     C12738   6.141   7.548  11.208  0.0225  0.4808  0.7968
   95MOL0     C12739   6.095   7.544  11.074 -0.2243  0.1421  0.0151
   95MOL0     N12740   5.904   7.702  10.333  0.7643 -0.6558 -0.2725
   95MOL0     N12741   5.865   7.790  10.249 -0.8382 -0.4600 -0.5676
   95MOL0     C12742   4.781   8.221  10.393  0.6890 -0.4636 -0.1297
   95MOL0     C12743   4.642   8.210  10.431 -0.2704 -0.1049  0.2603
   95MOL0     C12744   4.177   8.296  10.378  0.6426 -0.7419  0.7258
   95MOL0     C12745   4.078   8.317  10.275  0.1305  0.8800 -0.0772
   95MOL0     C12746   3.941   8.331  10.295 -0.3788  0.1547 -0.5858
   95MOL0     C12747   3.898   8.330  10.425 -0.1457  0.4209 -0.5064
   95MOL0     O12748   3.770   8.336  10.463  0.4448  0.7038  0.5400
   95MOL0     C12749   3.668   8.351  10.367  0.4019 -0.0232 -0.1132
   95MOL0     C12750   3.534   8.344  10.446  0.2935  0.0383 -0.0647
   95MOL0     C12751   3.523   8.485  10.524 -0.4684 -0.0679 -0.2713
   95MOL0     C12752   3.383   8.512  10.567  0.3031  0.2175 -0.4033
   95MOL0     C12753   3.311   8.572  10.451 -0.2188  0.3760  0.6323
   95MOL0     C12754   3.258   8.596  10.346 -1.2530 -0.4960 -0.3893
   95MOL0     C12755   3.991   8.314  10.535  0.2493 -0.5924  1.2745
   95MOL0     C12756   4.132   8.293  10.511  0.9045  0.8017 -0.0254
   95MOL0     C12757   4.221   8.267  10.630  1.0742 -0.1653 -0.0833
   95MOL0     H12758   4.517   8.479  10.271  0.1807  1.6145  0.2417
   95MOL0     H12759   4.767   8.505  10.220  2.6140 -1.2452 -1.0494
   95MOL0     H12760   4.946   8.356  10.067 -2.1124  0.5665  0.5493
   95MOL0     H12761   4.964   8.510  10.161 -1.9567  0.4339 -2.7781
   95MOL0     H12762   5.176   8.496  10.197  0.3973  0.8040  0.0263
   95MOL0     H12763   5.176   8.407  10.040  0.7094 -2.8501  0.7689
   95MOL0     H12764   5.198   8.180  10.156  0.4637 -0.0089  1.1518
   95MOL0     H12765   5.188   8.268  10.303  1.0030 -2.4768 -0.3876
   95MOL0     H12766   5.400   8.319  10.090  3.8095  2.1522  1.4132
   95MOL0     H12767   5.393   8.391  10.242  1.1779 -0.4401  0.1643
   95MOL0     H12768   5.553   8.198  10.258  0.1163  0.6039  1.4534
   95MOL0     H12769   5.423   8.181  10.366 -1.4219 -2.1061 -0.2149
   95MOL0     H12770   5.309   8.016  10.236 -0.9746  0.0754 -1.8728
   95MOL0     H12771   5.432   8.025  10.111  1.5109 -3.2128  0.7461
   95MOL0     H12772   5.452   7.828  10.258 -1.7468 -0.2699  0.5423
   95MOL0     H12773   5.511   7.924  10.396  0.2286 -2.1321 -0.3251
   95MOL0     H12774   5.645   7.911  10.110  1.2727 -0.5425 -0.2639
   95MOL0     H12775   5.687   8.006  10.257 -1.6536  1.3489  0.2632
   95MOL0     H12776   5.578   7.659  10.357  0.2120  0.2898  3.9484
   95MOL0     H12777   5.712   7.476  10.495 -0.7674  0.9563 -1.8422
   95MOL0     H12778   5.861   7.444  10.406  1.8681  0.8471  0.3322
   95MOL0     H12779   5.980   7.607  10.540  1.4170  0.4374  1.7324
   95MOL0     H12780   5.837   7.627  10.644 -1.7060  0.6454 -2.1598
   95MOL0     H12781   6.014   7.385  10.645  1.3983  0.3954  2.3388
   95MOL0     H12782   5.852   7.373  10.705  0.4600 -0.5708 -2.1595
   95MOL0     H12783   5.884   7.543  10.851 -2.5743 -3.9168 -1.4094
   95MOL0     H12784   6.056   7.581  10.810 -0.1935  0.2447  2.5089
   95MOL0     H12785   6.104   7.208  11.058  3.4362  1.2321 -0.3619
   95MOL0     H12786   6.178   7.221  11.283  2.2757  0.3199 -0.2848
   95MOL0     H12787   6.301   7.479  11.706  1.6683 -1.9211  2.9582
   95MOL0     H12788   6.472   7.549  11.867 -0.3419  0.3977  0.0987
   95MOL0     H12789   6.665   7.674  11.994  0.9020  1.7387 -1.5267
   95MOL0     H12790   6.685   7.495  11.954  0.9197  0.0359  0.1041
   95MOL0     H12791   6.840   7.568  12.118  0.3014 -1.5315 -0.4154
   95MOL0     H12792   6.924   7.524  11.968  1.7079  2.4551  0.3571
   95MOL0     H12793   6.958   7.768  11.922 -1.8305  0.5389 -0.9553
   95MOL0     H12794   6.830   7.817  12.027 -0.2994 -0.0750 -3.3604
   95MOL0     H12795   7.075   7.860  12.098 -2.0555  0.7019 -4.0637
   95MOL0     H12796   7.071   7.691  12.149  1.2340 -0.0031  2.2233
   95MOL0     H12797   6.891   7.725  12.308 -1.5245  0.4633  0.0983
   95MOL0     H12798   6.884   7.901  12.262  0.8022  1.0054 -2.3843
   95MOL0     H12799   7.112   7.746  12.395 -1.3846 -0.9621 -2.1352
   95MOL0     H12800   7.114   7.922  12.352 -3.1653  3.4746  3.1970
   95MOL0     H12801   6.941   7.805  12.540  0.8032 -0.5683 -1.3282
   95MOL0     H12802   6.943   7.973  12.491 -1.2600 -1.0374 -2.8067
   95MOL0     H12803   7.189   7.808  12.631  0.5619  0.4264  1.6931
   95MOL0     H12804   7.196   7.974  12.590 -1.2168 -0.7966 -1.4191
   95MOL0     H12805   6.727   7.686  11.571 -0.4724  1.5505 -1.4444
   95MOL0     H12806   6.526   7.672  11.403 -3.4660  2.6461  0.4609
   95MOL0     H12807   6.154   7.647  11.251  1.7316  0.3131  0.7497
   95MOL0     H12808   6.054   7.637  11.036  1.3465  0.7855 -0.1826
   95MOL0     H12809   4.844   8.146  10.440  1.1422  0.6468  1.0837
   95MOL0     H12810   4.611   8.128  10.495  2.0253  0.0015  1.6327
   95MOL0     H12811   4.110   8.316  10.171  0.6316 -2.4194  0.0052
   95MOL0     H12812   3.882   8.357  10.208  0.3017  1.5926 -0.6501
   95MOL0     H12813   3.667   8.280  10.284  0.1321  0.2488 -0.3448
   95MOL0     H12814   3.674   8.443  10.310 -0.0166 -0.4546 -0.8729
   95MOL0     H12815   3.527   8.266  10.522 -0.1388 -0.9788 -1.1169
   95MOL0     H12816   3.445   8.330  10.383 -0.4750  1.6510  0.5980
   95MOL0     H12817   3.563   8.567  10.464 -1.3356 -1.2190 -2.5869
   95MOL0     H12818   3.579   8.474  10.617  1.7727  0.3278 -1.5005
   95MOL0     H12819   3.324   8.428  10.605 -0.1369  1.1262  1.0327
   95MOL0     H12820   3.392   8.572  10.659  0.6019 -1.2069  0.5207
   95MOL0     H12821   3.223   8.611  10.246 -2.2605 -1.1521 -0.1528
   95MOL0     H12822   3.954   8.314  10.637 -0.3938  1.2370  1.0660
   95MOL0     H12823   4.267   8.360  10.662 -0.9898 -0.0301  3.0138
   95MOL0     H12824   4.169   8.245  10.724 -0.6099  2.9777 -0.1612
   95MOL0     H12825   4.294   8.186  10.620 -1.2358 -2.6893  1.7552
   96MOL0     O12826   7.908   5.240  11.139 -0.1795  0.9062 -0.1401
   96MOL0     C12827   7.837   5.336  11.157  0.2666  0.1746 -0.1520
   96MOL0     O12828   7.888   5.461  11.178 -0.0404  0.0527  0.2461
   96MOL0     C12829   8.021   5.495  11.197 -1.1059  0.0593  0.5217
   96MOL0     C12830   8.066   5.617  11.143  0.2793 -0.7040 -0.2805
   96MOL0     C12831   8.200   5.644  11.157  0.1972  0.3994 -0.0810
   96MOL0     C12832   8.292   5.562  11.219  0.0109 -1.2254 -0.0980
   96MOL0     O12833   8.427   5.588  11.222 -0.0133 -0.1405 -0.1087
   96MOL0     C12834   8.517   5.503  11.298 -0.0555 -0.3251 -0.6665
   96MOL0     C12835   8.653   5.566  11.286  0.6361  0.1227 -0.2825
   96MOL0     C12836   8.689   5.672  11.374  0.1856 -0.5304  0.2187
   96MOL0     C12837   8.830   5.728  11.348 -0.8657  0.8257  0.3314
   96MOL0     C12838   8.892   5.798  11.466  0.3597 -0.0467  0.3880
   96MOL0     C12839   9.038   5.843  11.449 -0.2082  0.1816  0.1564
   96MOL0     C12840   9.102   5.890  11.581 -0.9934 -0.2920 -0.0079
   96MOL0     C12841   9.156   5.771  11.653  0.8301 -0.7092 -0.1654
   96MOL0     N12842   9.227   5.825  11.773  0.3583 -0.8765 -0.3904
   96MOL0     C12843   9.261   5.738  11.874 -1.1032 -0.2367 -0.7015
   96MOL0     C12844   9.373   5.790  11.931  0.2364  0.1116  0.4700
   96MOL0     C12845   9.454   5.708  12.027 -0.9713  0.6514  0.9324
   96MOL0     C12846   9.584   5.773  12.068  0.1893  0.3107  0.3228
   96MOL0     C12847   9.682   5.676  12.124  0.2603 -0.2626 -0.1358
   96MOL0     C12848   9.811   5.738  12.171  0.3495 -0.2711 -0.7846
   96MOL0     O12849   9.794   5.845  12.265  0.0661  0.1635  0.0602
   96MOL0     C12850   9.910   5.915  12.289 -0.9108 -0.0998 -0.4197
   96MOL0     C12851  10.044   5.866  12.287  0.4799  0.3484 -0.4492
   96MOL0     C12852  10.158   5.949  12.301  0.6323 -0.4342  0.4030
   96MOL0     C12853  10.142   6.082  12.342  0.7431  0.1368 -0.3350
   96MOL0     C12854  10.249   6.187  12.355  0.3593  0.1115  1.1398
   96MOL0     O12855  10.377   6.142  12.370  0.7244 -0.8680 -0.1682
   96MOL0     C12856  10.483   6.234  12.370 -0.2593 -0.0747  0.3154
   96MOL0     C12857  10.493   6.369  12.331 -0.2900  1.2072  0.0555
   96MOL0     C12858  10.621   6.427  12.321  1.0421 -1.2619 -0.1083
   96MOL0     C12859  10.739   6.352  12.345 -0.7269  0.0895 -0.3371
   96MOL0     O12860  10.864   6.399  12.315 -0.1075 -0.0039  0.0749
   96MOL0     C12861  10.907   6.524  12.377 -0.5340 -0.0274  0.4073
   96MOL0     C12862  11.060   6.503  12.410 -0.2593 -0.9159 -0.2363
   96MOL0     C12863  11.100   6.594  12.527  0.5270 -0.2478 -0.1143
   96MOL0     C12864  11.224   6.554  12.590  0.0995 -0.1382  0.2895
   96MOL0     C12865  11.275   6.662  12.682  0.6954 -0.6537  0.5422
   96MOL0     C12866  11.390   6.609  12.760 -0.7246  0.0326 -0.0540
   96MOL0     C12867  11.447   6.693  12.871  0.5325 -0.3232 -0.7208
   96MOL0     C12868  11.563   6.784  12.827 -0.8052 -0.1421 -0.7347
   96MOL0    Cl12869  11.676   6.798  12.970 -0.4862  0.0826  0.2066
   96MOL0     C12870  10.722   6.222  12.380 -1.0900 -0.8284 -0.2316
   96MOL0     C12871  10.602   6.164  12.404 -0.0028  0.0905 -0.7139
   96MOL0     O12872  10.213   6.304  12.353 -0.5097  0.1799  0.1035
   96MOL0     C12873  10.005   6.129  12.364 -0.4552  0.0203  0.2351
   96MOL0     C12874   9.896   6.044  12.336 -0.3631  0.2862 -0.8293
   96MOL0     N12875   9.392   5.910  11.879  0.3983 -0.5122 -0.5080
   96MOL0     N12876   9.307   5.937  11.783  0.0519 -0.2649 -1.0294
   96MOL0     C12877   8.252   5.435  11.256 -0.5866 -0.1083  0.2577
   96MOL0     C12878   8.112   5.404  11.243 -0.7504 -0.1411  0.6778
   96MOL0     C12879   7.685   5.316  11.144 -0.1437  0.6895  1.4091
   96MOL0     C12880   7.632   5.191  11.094  0.5083  0.0153  0.0978
   96MOL0     C12881   7.494   5.155  11.090 -0.6300  0.2915 -1.0091
   96MOL0     C12882   7.408   5.263  11.110  0.7456 -0.0715 -0.0783
   96MOL0     O12883   7.276   5.261  11.080 -0.6236  0.7366  0.2415
   96MOL0     C12884   7.211   5.134  11.050  0.1028 -0.4056 -0.5553
   96MOL0     C12885   7.179   5.074  11.182  0.2417  0.1737 -0.2352
   96MOL0     C12886   7.081   5.163  11.258 -0.6234 -0.2680  0.5077
   96MOL0     C12887   6.961   5.092  11.321  0.1556  0.4877  0.1721
   96MOL0     C12888   6.860   5.062  11.218  0.2948 -0.1822 -0.0827
   96MOL0     C12889   6.769   5.049  11.128 -0.9656  0.2157 -0.4775
   96MOL0     C12890   7.458   5.380  11.157  0.2763  1.0574  0.4178
   96MOL0     C12891   7.591   5.417  11.173  0.5412 -0.3599 -0.2614
   96MOL0     C12892   7.625   5.556  11.214  0.2755  0.3602 -0.1838
   96MOL0     H12893   7.987   5.679  11.101 -2.5392 -4.7739 -1.5700
   96MOL0     H12894   8.249   5.731  11.114  3.0877 -1.1861 -0.1719
   96MOL0     H12895   8.479   5.506  11.401  1.7566  0.4215  0.0236
   96MOL0     H12896   8.515   5.403  11.255 -1.1872  0.8854 -3.7211
   96MOL0     H12897   8.672   5.583  11.179  1.4501  2.0777  0.1381
   96MOL0     H12898   8.726   5.488  11.312  0.6785 -0.0361 -0.8502
   96MOL0     H12899   8.692   5.632  11.475  3.4808 -0.7835  0.1011
   96MOL0     H12900   8.619   5.756  11.366  0.4185 -0.4419 -1.2271
   96MOL0     H12901   8.906   5.652  11.327  0.2436  1.8806  0.4249
   96MOL0     H12902   8.826   5.798  11.264  0.0949  1.6202  0.9242
   96MOL0     H12903   8.828   5.883  11.493 -0.8407 -0.4649 -1.0075
   96MOL0     H12904   8.892   5.724  11.547  1.0915 -1.3746 -0.8004
   96MOL0     H12905   9.093   5.763  11.399  2.3337  1.2186  1.1285
   96MOL0     H12906   9.029   5.930  11.382 -1.7974 -0.5646 -0.6550
   96MOL0     H12907   9.038   5.956  11.640 -0.6402  1.2745 -1.2755
   96MOL0     H12908   9.181   5.959  11.547 -1.8385  0.4983 -0.4193
   96MOL0     H12909   9.068   5.713  11.682  0.5515  0.8735  2.4517
   96MOL0     H12910   9.221   5.710  11.590  3.0880  0.4724  0.8942
   96MOL0     H12911   9.214   5.644  11.901  0.9814 -1.9249 -2.5024
   96MOL0     H12912   9.398   5.678  12.117 -3.3870  0.6308 -0.4982
   96MOL0     H12913   9.489   5.621  11.970 -3.4425  1.3274 -1.7999
   96MOL0     H12914   9.629   5.815  11.977 -0.2598 -2.9573 -1.5733
   96MOL0     H12915   9.569   5.851  12.143 -2.0861 -0.4455  0.7108
   96MOL0     H12916   9.698   5.592  12.056 -2.3846 -1.0682  0.1314
   96MOL0     H12917   9.640   5.630  12.214 -0.3423 -0.4393 -0.5044
   96MOL0     H12918   9.869   5.773  12.085  0.7121  0.6701 -0.1748
   96MOL0     H12919   9.869   5.659  12.218 -0.5389 -0.0485  0.7518
   96MOL0     H12920  10.071   5.762  12.268 -2.6751 -0.8847  0.9828
   96MOL0     H12921  10.258   5.908  12.296  0.5755 -0.5857  0.5003
   96MOL0     H12922  10.406   6.431  12.311 -1.5372 -1.0681 -2.2556
   96MOL0     H12923  10.635   6.532  12.298 -0.9684 -0.0777  3.3335
   96MOL0     H12924  10.911   6.607  12.306  0.2610 -0.5944 -0.2423
   96MOL0     H12925  10.849   6.537  12.468 -2.0459 -1.1871 -0.3559
   96MOL0     H12926  11.086   6.399  12.432 -1.5421 -1.2994 -0.4442
   96MOL0     H12927  11.121   6.545  12.329  1.0504 -0.5822  0.8802
   96MOL0     H12928  11.105   6.696  12.486  0.9714 -0.3746 -0.3812
   96MOL0     H12929  11.019   6.608  12.600  1.0388  0.8559  0.2704
   96MOL0     H12930  11.305   6.529  12.521 -0.4680 -0.1803 -0.3694
   96MOL0     H12931  11.211   6.462  12.648  0.8116 -0.9123 -0.7280
   96MOL0     H12932  11.194   6.701  12.744  0.2598  3.2251 -2.1391
   96MOL0     H12933  11.305   6.751  12.626 -1.6910  1.9760  3.1165
   96MOL0     H12934  11.359   6.513  12.803 -0.7465 -0.5279 -1.2730
   96MOL0     H12935  11.478   6.592  12.698 -0.6216 -1.8626  0.5239
   96MOL0     H12936  11.468   6.641  12.965 -0.9691  0.1326 -0.1035
   96MOL0     H12937  11.362   6.756  12.900 -0.9291 -2.1877 -0.7891
   96MOL0     H12938  11.623   6.741  12.746 -0.8168  3.8455 -3.1480
   96MOL0     H12939  11.524   6.881  12.794 -1.1754 -0.1314 -0.2724
   96MOL0     H12940  10.815   6.172  12.406  0.6636  1.6125 -1.4379
   96MOL0     H12941  10.590   6.073  12.462 -3.1824  0.5737 -0.4384
   96MOL0     H12942   9.978   6.231  12.388 -0.3909 -0.7862  4.5614
   96MOL0     H12943   9.800   6.083  12.370  0.1371  1.6187 -0.8749
   96MOL0     H12944   8.314   5.359  11.301  0.8594  0.1173 -1.2515
   96MOL0     H12945   8.090   5.304  11.278  3.8634 -1.1332  1.4928
   96MOL0     H12946   7.706   5.118  11.063 -2.7773 -3.1083 -1.1017
   96MOL0     H12947   7.482   5.052  11.058  4.5524 -1.2018  0.8206
   96MOL0     H12948   7.270   5.071  10.982 -0.7968  0.7791 -2.5525
   96MOL0     H12949   7.128   5.153  10.981 -0.8390  1.7588  1.0703
   96MOL0     H12950   7.263   5.057  11.250 -1.8819  1.1459  2.8985
   96MOL0     H12951   7.125   4.980  11.164 -1.4270  1.1652 -0.6725
   96MOL0     H12952   7.045   5.249  11.201  0.3228 -0.4934 -0.4569
   96MOL0     H12953   7.123   5.198  11.353 -0.3617  3.0476 -0.7185
   96MOL0     H12954   6.984   5.003  11.380 -1.6323 -0.6543 -0.7720
   96MOL0     H12955   6.913   5.155  11.396 -1.4158 -0.7818  0.3036
   96MOL0     H12956   6.695   5.018  11.057  0.5843  2.2082 -3.1167
   96MOL0     H12957   7.387   5.458  11.183 -1.6514  0.0134 -1.3534
   96MOL0     H12958   7.698   5.554  11.295  1.0915  1.8094 -0.8388
   96MOL0     H12959   7.649   5.625  11.132 -1.4805 -1.9046 -2.8151
   96MOL0     H12960   7.535   5.611  11.243  0.4410 -0.0328  1.1387
   97MOL0     O12961   9.832   7.634   9.494  0.3115 -0.2001 -0.9954
   97MOL0     C12962   9.840   7.556   9.595 -1.0010 -0.3159 -0.3383
   97MOL0     O12963   9.738   7.523   9.686  0.3163 -0.8444  0.8237
   97MOL0     C12964   9.617   7.596   9.671  0.5780  0.3347  0.4756
   97MOL0     C12965   9.607   7.731   9.709 -0.5691  0.6586  0.0332
   97MOL0     C12966   9.491   7.805   9.691 -0.1862 -0.3819 -0.1156
   97MOL0     C12967   9.374   7.748   9.636 -0.3001  0.1165 -0.0499
   97MOL0     O12968   9.261   7.820   9.622 -0.3150  0.4004 -0.0958
   97MOL0     C12969   9.156   7.776   9.536 -0.0531  0.6804 -0.6783
   97MOL0     C12970   9.118   7.909   9.477  0.0557  0.0594 -1.2788
   97MOL0     C12971   8.980   7.903   9.407  0.2567 -0.3375 -0.0834
   97MOL0     C12972   9.004   7.863   9.258 -1.1286 -1.0206  0.1794
   97MOL0     C12973   8.881   7.868   9.170 -0.5425 -0.6310 -0.1733
   97MOL0     C12974   8.895   7.825   9.021 -0.7760 -0.0126  0.6219
   97MOL0     C12975   9.023   7.737   8.996 -0.2878  0.4835  0.8632
   97MOL0     C12976   9.061   7.727   8.849  0.9179 -0.0111 -0.0625
   97MOL0     N12977   9.187   7.667   8.829  0.0218  0.1621 -0.0210
   97MOL0     C12978   9.227   7.541   8.873  1.0355 -0.1466 -0.7823
   97MOL0     C12979   9.362   7.547   8.861 -0.3400 -0.4096 -0.2188
   97MOL0     C12980   9.450   7.427   8.893 -0.2062 -0.3016  0.7019
   97MOL0     C12981   9.450   7.333   8.773 -0.6475  0.1291  0.6348
   97MOL0     C12982   9.542   7.205   8.810  0.5740  0.0892  0.2715
   97MOL0     C12983   9.679   7.228   8.737  0.4811 -0.5891  0.4765
   97MOL0     O12984   9.774   7.131   8.773 -0.1119 -0.1304 -0.5087
   97MOL0     C12985   9.911   7.142   8.757  0.1436  1.0048 -1.4814
   97MOL0     C12986   9.978   7.028   8.790  0.3428 -0.0246  0.0354
   97MOL0     C12987  10.122   7.038   8.781  0.5434 -0.1924  0.1585
   97MOL0     C12988  10.189   7.161   8.760  0.7571  0.3892  0.7509
   97MOL0     C12989  10.340   7.167   8.776  0.3529  0.2290  0.8317
   97MOL0     O12990  10.406   7.280   8.738 -0.6550 -0.5740 -0.0023
   97MOL0     C12991  10.542   7.282   8.754 -0.8380 -0.3432 -0.3146
   97MOL0     C12992  10.607   7.393   8.806 -0.4208 -0.0486 -0.4820
   97MOL0     C12993  10.748   7.399   8.796 -0.3445 -1.0509 -0.5189
   97MOL0     C12994  10.830   7.305   8.723 -0.2599  0.0156  0.4109
   97MOL0     O12995  10.967   7.306   8.698 -0.2130 -0.2604 -0.5706
   97MOL0     C12996  11.043   7.418   8.738  0.0320  0.3437  0.1999
   97MOL0     C12997  11.193   7.395   8.730  0.2880  0.2994 -0.6177
   97MOL0     C12998  11.250   7.344   8.596  0.8219  0.9850  0.5984
   97MOL0     C12999  11.399   7.315   8.609 -0.6094  1.1041 -0.9315
   97MOL0     C13000  11.469   7.280   8.482 -0.3018 -0.5157  0.3366
   97MOL0     C13001  11.618   7.237   8.506 -0.4649  0.0109  0.8079
   97MOL0     C13002  11.697   7.220   8.372  0.8120 -1.1580  0.4699
   97MOL0     C13003  11.645   7.108   8.278  0.6111  0.2716 -0.0155
   97MOL0    Cl13004  11.630   6.943   8.361 -0.1331  0.1560 -0.3473
   97MOL0     C13005  10.754   7.196   8.667 -0.6816 -0.1159  0.3257
   97MOL0     C13006  10.619   7.176   8.691  0.6963 -0.7467 -0.4881
   97MOL0     O13007  10.386   7.071   8.825  0.5628  0.4717  0.5617
   97MOL0     C13008  10.111   7.270   8.719 -0.4567 -0.0975 -1.0103
   97MOL0     C13009   9.966   7.262   8.719 -0.3538  0.0199 -0.3623
   97MOL0     N13010   9.410   7.663   8.817  0.4834 -0.4497 -0.3463
   97MOL0     N13011   9.303   7.736   8.801  0.3587 -1.0478 -0.4916
   97MOL0     C13012   9.381   7.611   9.612  0.1282  0.7499 -0.6405
   97MOL0     C13013   9.497   7.540   9.632 -0.7809  0.2753 -0.4360
   97MOL0     C13014   9.969   7.481   9.591  0.1273  0.1800  0.4085
   97MOL0     C13015   9.971   7.359   9.642 -0.2055  0.6142 -0.5170
   97MOL0     C13016  10.083   7.273   9.630 -0.2894  0.4314  0.1969
   97MOL0     C13017  10.201   7.304   9.560  0.2337 -0.2572  0.2907
   97MOL0     O13018  10.288   7.209   9.529  0.1076  0.4332 -0.3990
   97MOL0     C13019  10.299   7.166   9.392 -0.0240 -0.3626 -0.6584
   97MOL0     C13020  10.442   7.203   9.362 -0.5217  0.4500  1.8419
   97MOL0     C13021  10.468   7.214   9.203 -0.8081 -0.4110  0.0636
   97MOL0     C13022  10.607   7.291   9.176  0.3220 -0.3129 -0.0986
   97MOL0     C13023  10.577   7.433   9.191  1.0396  0.6579 -0.4208
   97MOL0     C13024  10.536   7.542   9.192  0.6232 -0.1708 -0.2159
   97MOL0     C13025  10.187   7.427   9.498 -0.8437  0.8675  0.3906
   97MOL0     C13026  10.083   7.516   9.517 -0.9184 -0.0338 -0.0359
   97MOL0     C13027  10.096   7.651   9.455 -0.4227 -0.3143  0.3703
   97MOL0     H13028   9.690   7.786   9.752 -0.5145  1.6385 -1.2715
   97MOL0     H13029   9.492   7.912   9.711  2.8981 -0.1388 -1.0952
   97MOL0     H13030   9.184   7.709   9.454  0.9364  1.1172 -0.7162
   97MOL0     H13031   9.079   7.719   9.588  0.1180 -1.8779 -2.9989
   97MOL0     H13032   9.189   7.948   9.404  0.7385 -0.5094 -0.9268
   97MOL0     H13033   9.091   7.975   9.560  1.3911 -1.6330  0.5929
   97MOL0     H13034   8.945   8.006   9.396  1.8315  0.0319 -2.7340
   97MOL0     H13035   8.900   7.836   9.441 -0.8189  0.7531 -0.4039
   97MOL0     H13036   9.081   7.926   9.213 -1.3649  0.3636  1.5995
   97MOL0     H13037   9.043   7.762   9.252 -0.6067 -0.7564 -1.7737
   97MOL0     H13038   8.804   7.801   9.211  0.4743 -3.2371 -2.2680
   97MOL0     H13039   8.844   7.971   9.174  1.6161  0.1619  1.4774
   97MOL0     H13040   8.803   7.776   8.986 -1.6089 -0.4185  3.1461
   97MOL0     H13041   8.893   7.913   8.956 -0.2720 -1.2006 -1.0624
   97MOL0     H13042   9.013   7.638   9.040  0.5583  0.4952  1.0957
   97MOL0     H13043   9.107   7.778   9.052  0.9074 -2.4414  1.3483
   97MOL0     H13044   8.986   7.673   8.791 -0.5657 -0.4490  2.1508
   97MOL0     H13045   9.075   7.830   8.814  2.8351 -0.2975 -0.2342
   97MOL0     H13046   9.167   7.456   8.905  0.6934  0.4597  0.2450
   97MOL0     H13047   9.552   7.454   8.923 -1.1220  2.6589  1.4778
   97MOL0     H13048   9.402   7.379   8.979 -2.9621 -1.3707 -1.3038
   97MOL0     H13049   9.348   7.306   8.745 -0.2313  0.9715 -1.9395
   97MOL0     H13050   9.490   7.394   8.692 -1.3167 -0.1480  0.0816
   97MOL0     H13051   9.503   7.115   8.763  1.8836  0.0670 -0.8348
   97MOL0     H13052   9.569   7.192   8.915  0.3594 -2.0135  0.1044
   97MOL0     H13053   9.719   7.322   8.776  1.7612 -0.4293 -1.1230
   97MOL0     H13054   9.651   7.230   8.631 -0.8155  2.0277  0.7946
   97MOL0     H13055   9.925   6.941   8.828 -0.9227  1.7005  2.5236
   97MOL0     H13056  10.179   6.947   8.796 -0.1962 -0.3784  2.1315
   97MOL0     H13057  10.553   7.470   8.861  1.5661  1.8475 -1.0258
   97MOL0     H13058  10.797   7.490   8.828  0.4832 -1.8102  0.4289
   97MOL0     H13059  11.008   7.499   8.673 -2.2598  1.3191  2.4894
   97MOL0     H13060  11.018   7.439   8.843 -1.7292  0.8130 -0.2736
   97MOL0     H13061  11.242   7.485   8.767 -0.3315  0.2535  0.3644
   97MOL0     H13062  11.218   7.318   8.804 -1.5734 -0.7081 -0.9544
   97MOL0     H13063  11.192   7.258   8.561 -0.8842  1.2896  2.4523
   97MOL0     H13064  11.219   7.415   8.518 -1.0328  0.7315  1.0478
   97MOL0     H13065  11.413   7.228   8.673 -2.4752  2.7913  2.0124
   97MOL0     H13066  11.446   7.403   8.653  0.5297 -0.4535  1.1641
   97MOL0     H13067  11.468   7.369   8.418 -0.3789 -0.0079  1.0325
   97MOL0     H13068  11.408   7.207   8.427 -1.7734  0.1305  1.0544
   97MOL0     H13069  11.659   7.307   8.579  0.7099 -2.0743  2.2406
   97MOL0     H13070  11.614   7.139   8.556 -1.4050 -0.7219 -0.6263
   97MOL0     H13071  11.802   7.198   8.395  1.9392  1.3350 -1.6975
   97MOL0     H13072  11.703   7.316   8.319  1.2889 -0.7392  1.2540
   97MOL0     H13073  11.547   7.138   8.239 -0.5164 -1.9631  0.9496
   97MOL0     H13074  11.715   7.089   8.196  1.3811 -0.1528  0.7224
   97MOL0     H13075  10.797   7.126   8.597 -1.2762 -1.8189  1.5956
   97MOL0     H13076  10.574   7.087   8.647 -1.6663 -0.3878  1.0015
   97MOL0     H13077  10.163   7.362   8.694  0.2693  0.0541  0.8899
   97MOL0     H13078   9.899   7.342   8.691 -0.0820  0.2568 -0.3366
   97MOL0     H13079   9.301   7.547   9.576  1.4217 -1.7972  0.7426
   97MOL0     H13080   9.492   7.435   9.607  1.8439  0.4156 -1.8702
   97MOL0     H13081   9.887   7.332   9.707  0.7665  0.7088  0.8221
   97MOL0     H13082  10.093   7.177   9.679  1.7919  1.1733  1.3124
   97MOL0     H13083  10.224   7.215   9.330  2.0340  0.3548 -2.7359
   97MOL0     H13084  10.267   7.061   9.385 -4.4526  0.4801  2.5937
   97MOL0     H13085  10.504   7.119   9.393  1.0508  0.8734  0.0866
   97MOL0     H13086  10.470   7.295   9.414  0.1792  1.0384  0.4808
   97MOL0     H13087  10.385   7.263   9.152 -0.3282 -2.0426 -2.4487
   97MOL0     H13088  10.454   7.119   9.151 -0.4824 -1.4658  1.8133
   97MOL0     H13089  10.688   7.260   9.242  1.2286  1.5798 -0.2614
   97MOL0     H13090  10.634   7.265   9.073  1.8239 -0.4954  0.3161
   97MOL0     H13091  10.504   7.642   9.214 -0.2080 -0.9956  2.8764
   97MOL0     H13092  10.269   7.453   9.431  0.6467 -0.9138  1.4215
   97MOL0     H13093  10.031   7.725   9.503 -1.1681  0.9137 -2.3361
   97MOL0     H13094  10.201   7.680   9.469  0.5694 -3.4279  0.1475
   97MOL0     H13095  10.062   7.649   9.351  0.1186  0.8671  0.1519
   98MOL0     O13096   1.233   3.055   3.370 -0.8814 -0.2918  0.4938
   98MOL0     C13097   1.212   2.939   3.397  0.3959  0.0377  0.2369
   98MOL0     O13098   1.098   2.891   3.450 -0.2632 -0.9050 -0.2672
   98MOL0     C13099   1.001   2.978   3.502 -0.4508 -0.0282  0.2763
   98MOL0     C13100   0.969   3.108   3.453  1.0796  0.4067 -0.0622
   98MOL0     C13101   0.875   3.190   3.524 -1.2826  0.2532  0.1892
   98MOL0     C13102   0.803   3.143   3.635 -0.4589 -0.7786  0.7162
   98MOL0     O13103   0.725   3.237   3.693 -0.5461  0.8517 -0.0920
   98MOL0     C13104   0.623   3.192   3.789  0.4295  0.0508  0.6901
   98MOL0     C13105   0.495   3.268   3.755  0.4314 -0.0876  0.3954
   98MOL0     C13106   0.379   3.229   3.844  0.2552 -0.6764 -0.5814
   98MOL0     C13107   0.255   3.310   3.811 -0.5200  0.0358 -0.6585
   98MOL0     C13108   0.142   3.237   3.874  0.5944 -0.0816 -0.3916
   98MOL0     C13109   0.003   3.297   3.855  0.5362 -0.0571  0.1664
   98MOL0     C13110  -0.110   3.224   3.938  0.6524  0.6551  0.1540
   98MOL0     C13111  -0.181   3.124   3.861 -0.3747 -0.0392  0.4280
   98MOL0     N13112  -0.279   3.059   3.947  0.4210  0.0553 -0.5323
   98MOL0     C13113  -0.411   3.087   3.944 -0.6070 -0.1065  0.6606
   98MOL0     C13114  -0.468   3.008   4.039  0.0182 -0.2215 -0.1123
   98MOL0     C13115  -0.621   2.998   4.071 -0.7096 -0.2962  0.5013
   98MOL0     C13116  -0.669   2.854   4.057  1.0723 -0.0108  0.6626
   98MOL0     C13117  -0.660   2.802   3.918 -0.3182  0.0861 -0.4572
   98MOL0     C13118  -0.760   2.855   3.823  0.5690 -0.6258  0.2719
   98MOL0     O13119  -0.724   2.978   3.763  0.2829  0.3925  0.2076
   98MOL0     C13120  -0.623   2.993   3.673 -0.4174 -0.1600 -0.3478
   98MOL0     C13121  -0.578   3.117   3.667 -0.2469 -0.3223 -0.4941
   98MOL0     C13122  -0.465   3.143   3.587 -0.4780 -1.3183  0.3469
   98MOL0     C13123  -0.390   3.040   3.518  0.9474  0.0557 -0.1396
   98MOL0     C13124  -0.266   3.082   3.437  0.0377  0.3150  0.1351
   98MOL0     O13125  -0.216   3.200   3.461 -0.1495  0.1929  0.8443
   98MOL0     C13126  -0.083   3.219   3.435  0.7914  0.7397 -0.2696
   98MOL0     C13127  -0.047   3.332   3.362 -0.4292 -0.4664  0.2695
   98MOL0     C13128   0.088   3.373   3.345  0.4572 -0.0013  0.0800
   98MOL0     C13129   0.188   3.288   3.400  0.3627  0.2304 -0.2399
   98MOL0     O13130   0.324   3.317   3.414  0.2291  0.5710 -0.0495
   98MOL0     C13131   0.376   3.423   3.331 -0.0562 -0.1253 -0.1275
   98MOL0     C13132   0.526   3.416   3.322 -1.2009  0.2718  0.1542
   98MOL0     C13133   0.598   3.540   3.272 -0.0243  0.2644  0.9174
   98MOL0     C13134   0.559   3.614   3.141 -0.2258  0.0498  0.0100
   98MOL0     C13135   0.637   3.743   3.131  0.2234 -0.1819 -0.0584
   98MOL0     C13136   0.765   3.718   3.056  0.7082 -0.0474  0.1306
   98MOL0     C13137   0.824   3.852   3.013 -0.0849 -0.2820  0.4052
   98MOL0     C13138   0.968   3.831   2.953 -0.1279  0.0001 -0.6552
   98MOL0    Cl13139   1.083   3.751   3.059 -0.0732 -0.0613 -0.7063
   98MOL0     C13140   0.153   3.173   3.468  0.6024 -0.0867 -1.1556
   98MOL0     C13141   0.018   3.143   3.498 -0.6160  0.6198  0.6275
   98MOL0     O13142  -0.214   3.002   3.362 -0.0302  1.0018 -0.3236
   98MOL0     C13143  -0.450   2.913   3.517  1.0286  0.2626 -0.6476
   98MOL0     C13144  -0.573   2.888   3.590  0.1423  0.4852 -0.0421
   98MOL0     N13145  -0.371   2.955   4.116  0.6210 -0.0363  0.4935
   98MOL0     N13146  -0.259   2.990   4.056 -0.3663  0.0332  0.0092
   98MOL0     C13147   0.835   3.018   3.679 -0.3932  0.7954  0.3829
   98MOL0     C13148   0.937   2.940   3.619 -0.0500 -0.3614 -0.0989
   98MOL0     C13149   1.307   2.840   3.345  0.1973 -0.3523  0.5095
   98MOL0     C13150   1.266   2.709   3.315  0.5315  0.1220  0.5123
   98MOL0     C13151   1.351   2.606   3.272 -0.1218 -0.7242 -0.8675
   98MOL0     C13152   1.480   2.635   3.236 -0.4814 -0.6229  0.0081
   98MOL0     O13153   1.555   2.532   3.204  0.4336  0.5879 -0.2799
   98MOL0     C13154   1.695   2.540   3.173  0.4789  0.3822 -0.9709
   98MOL0     C13155   1.740   2.605   3.050 -0.0314 -0.9326  0.3064
   98MOL0     C13156   1.892   2.577   3.016  0.1035  0.5260  1.0435
   98MOL0     C13157   1.982   2.609   3.128 -0.4861 -0.1469 -0.3421
   98MOL0     C13158   2.125   2.572   3.092  0.4282 -0.2907 -0.7396
   98MOL0     C13159   2.238   2.543   3.087  0.4285  0.4030  0.0370
   98MOL0     C13160   1.519   2.759   3.257 -0.5408 -0.0601 -0.1275
   98MOL0     C13161   1.443   2.859   3.314 -0.1049 -0.1436  0.1113
   98MOL0     C13162   1.530   2.981   3.349 -0.3200 -0.8982 -0.0263
   98MOL0     H13163   1.018   3.150   3.366 -0.9774  0.8805 -1.0697
   98MOL0     H13164   0.861   3.288   3.479 -1.5285 -0.6732 -1.8787
   98MOL0     H13165   0.603   3.085   3.792 -2.5927  0.5555  2.1778
   98MOL0     H13166   0.658   3.215   3.891  3.1884 -2.7419  0.4996
   98MOL0     H13167   0.476   3.257   3.648 -0.0029 -1.2271  0.5789
   98MOL0     H13168   0.502   3.376   3.772 -2.3434 -0.0081  1.5719
   98MOL0     H13169   0.395   3.241   3.951 -1.0318 -0.5014 -0.4044
   98MOL0     H13170   0.365   3.123   3.820  2.4249 -0.8469 -1.3652
   98MOL0     H13171   0.251   3.411   3.855  0.2014 -0.2075 -0.0229
   98MOL0     H13172   0.231   3.304   3.705  0.4645  1.2635 -0.9776
   98MOL0     H13173   0.134   3.137   3.830 -0.0876 -2.0485  3.7810
   98MOL0     H13174   0.162   3.235   3.981  1.5905 -0.1796 -0.5705
   98MOL0     H13175   0.011   3.400   3.891  0.7030  1.1426 -3.0600
   98MOL0     H13176  -0.014   3.296   3.747  3.0752  0.7546 -0.3096
   98MOL0     H13177  -0.174   3.306   3.973  1.1878 -0.1772  3.3752
   98MOL0     H13178  -0.084   3.181   4.035 -0.7591 -0.1091  0.2253
   98MOL0     H13179  -0.232   3.163   3.772 -0.4295  0.3769  0.6441
   98MOL0     H13180  -0.103   3.053   3.830 -0.1906  1.3918 -2.7658
   98MOL0     H13181  -0.464   3.146   3.870  0.7292  3.4454  2.2963
   98MOL0     H13182  -0.639   3.027   4.175  1.7980  2.2822  0.3350
   98MOL0     H13183  -0.672   3.064   4.000  2.5622  0.0066 -1.7694
   98MOL0     H13184  -0.611   2.786   4.120  2.3811 -0.1599 -0.6560
   98MOL0     H13185  -0.774   2.862   4.088  1.5088 -0.0959  2.2263
   98MOL0     H13186  -0.672   2.694   3.914  0.9999 -0.0737 -0.5866
   98MOL0     H13187  -0.558   2.831   3.893  0.5814 -1.4966  1.2143
   98MOL0     H13188  -0.851   2.877   3.880  0.6444 -1.3510  0.6876
   98MOL0     H13189  -0.776   2.776   3.749  2.6327  0.1996 -1.1515
   98MOL0     H13190  -0.627   3.200   3.718  1.7181  1.3759 -1.1970
   98MOL0     H13191  -0.438   3.247   3.574 -1.0496 -1.2174 -0.0690
   98MOL0     H13192  -0.131   3.399   3.341 -1.4504 -2.2086 -1.5220
   98MOL0     H13193   0.113   3.471   3.306 -2.6789  1.4787  1.4044
   98MOL0     H13194   0.324   3.434   3.236  1.1546 -0.6497 -0.8752
   98MOL0     H13195   0.349   3.511   3.391  3.9697 -0.9943  3.5126
   98MOL0     H13196   0.563   3.400   3.423 -1.2991 -0.5435  0.0654
   98MOL0     H13197   0.556   3.333   3.257  1.0188 -0.2499  1.7197
   98MOL0     H13198   0.598   3.611   3.355 -1.3530  0.8089  0.4753
   98MOL0     H13199   0.703   3.515   3.257 -0.3570  0.9358 -3.8987
   98MOL0     H13200   0.453   3.638   3.153 -0.2742  0.0455 -0.3869
   98MOL0     H13201   0.551   3.557   3.048 -1.1089  2.8401 -1.7553
   98MOL0     H13202   0.649   3.779   3.234  0.2688 -2.5231  0.8159
   98MOL0     H13203   0.575   3.815   3.077  0.4013  0.3617  0.4474
   98MOL0     H13204   0.832   3.652   3.111  1.2931 -0.5388 -1.1292
   98MOL0     H13205   0.741   3.662   2.965 -0.6230  2.3487 -1.0920
   98MOL0     H13206   0.831   3.924   3.095  1.2792  2.9982 -2.3601
   98MOL0     H13207   0.767   3.897   2.931  1.1105  0.7968  0.1328
   98MOL0     H13208   0.957   3.779   2.857 -4.1888 -0.5838 -0.0859
   98MOL0     H13209   1.010   3.931   2.941  0.1402  0.4866  3.1976
   98MOL0     H13210   0.227   3.107   3.512  0.2532 -1.2777 -2.2976
   98MOL0     H13211  -0.009   3.064   3.567  0.4930 -2.4156 -2.1244
   98MOL0     H13212  -0.405   2.830   3.463 -2.7106 -0.4216 -3.0643
   98MOL0     H13213  -0.617   2.789   3.600 -2.8128  1.8367  1.4186
   98MOL0     H13214   0.782   2.980   3.766  2.5525 -2.3371  1.0362
   98MOL0     H13215   0.959   2.848   3.673 -1.2993  1.0349  3.0392
   98MOL0     H13216   1.159   2.693   3.326  0.1347  1.6949 -0.7617
   98MOL0     H13217   1.319   2.507   3.242 -0.3421 -1.2603  1.0515
   98MOL0     H13218   1.733   2.437   3.168 -1.1768 -0.2399 -1.5572
   98MOL0     H13219   1.747   2.583   3.259  2.0046 -3.1563  0.0946
   98MOL0     H13220   1.723   2.711   3.028 -1.3001 -1.2689 -0.3920
   98MOL0     H13221   1.676   2.570   2.968  0.7418  1.9093 -1.6892
   98MOL0     H13222   1.924   2.624   2.923  0.1485 -4.9984 -2.2077
   98MOL0     H13223   1.894   2.473   2.982  0.9380  1.1976 -1.0899
   98MOL0     H13224   1.969   2.712   3.163  3.0855 -0.3567  2.0807
   98MOL0     H13225   1.940   2.539   3.201 -2.4754  0.8456 -0.4543
   98MOL0     H13226   2.342   2.522   3.069  0.3818  0.8656 -0.8177
   98MOL0     H13227   1.618   2.794   3.230 -1.2332  3.4107  1.2929
   98MOL0     H13228   1.519   3.045   3.261  0.9538  0.6917  0.9183
   98MOL0     H13229   1.508   3.034   3.442 -5.0710 -0.9573 -0.8509
   98MOL0     H13230   1.634   2.948   3.355  0.8875  2.3912 -0.9076
   99MOL0     O13231   0.164   2.091   0.168  0.3263  0.0182 -0.6245
   99MOL0     C13232   0.116   1.995   0.106  0.6812  0.2170 -0.8243
   99MOL0     O13233   0.185   1.899   0.040  0.7899  0.5001  0.9468
   99MOL0     C13234   0.294   1.926  -0.037 -0.8342  0.1636 -0.7648
   99MOL0     C13235   0.381   1.823  -0.061  0.9778  0.4996 -0.2026
   99MOL0     C13236   0.496   1.836  -0.137 -1.3372  0.4063  0.1929
   99MOL0     C13237   0.523   1.960  -0.202  0.0244  0.3400 -0.2648
   99MOL0     O13238   0.622   1.982  -0.291  0.0523  0.2218  0.0520
   99MOL0     C13239   0.727   1.884  -0.317 -0.8047 -0.7858  0.0140
   99MOL0     C13240   0.841   1.961  -0.373 -0.4523 -0.5520 -0.7006
   99MOL0     C13241   0.821   1.965  -0.528 -0.0871  0.1361  0.5422
   99MOL0     C13242   0.951   2.019  -0.582  0.6897  0.1350 -0.0617
   99MOL0     C13243   0.975   1.963  -0.717 -0.6223  0.5290  0.2806
   99MOL0     C13244   1.089   2.042  -0.782  0.1101  0.4127  0.6416
   99MOL0     C13245   1.139   1.973  -0.909  0.4442 -1.1387 -0.1584
   99MOL0     C13246   1.235   2.073  -0.977  0.6303 -0.1320 -0.2777
   99MOL0     N13247   1.168   2.185  -1.042 -0.0252 -0.6554  0.6371
   99MOL0     C13248   1.039   2.181  -1.087  0.0387 -0.0120  0.4412
   99MOL0     C13249   1.003   2.308  -1.106  0.8148  0.0555  0.3847
   99MOL0     C13250   0.860   2.351  -1.138  0.1751 -0.2872 -0.4848
   99MOL0     C13251   0.750   2.284  -1.061  0.2159  0.8173 -0.6401
   99MOL0     C13252   0.719   2.330  -0.923  0.2039 -0.5729  0.3943
   99MOL0     C13253   0.626   2.226  -0.854 -0.9323  0.5572 -0.0875
   99MOL0     O13254   0.550   2.293  -0.759  0.3538 -0.3984  0.3299
   99MOL0     C13255   0.428   2.359  -0.781  0.4718 -0.0794 -0.3717
   99MOL0     C13256   0.382   2.401  -0.904 -0.6363 -0.5436  0.8304
   99MOL0     C13257   0.260   2.461  -0.913 -0.4417  0.1619  1.4009
   99MOL0     C13258   0.185   2.503  -0.802 -0.7012  0.1496  0.4441
   99MOL0     C13259   0.068   2.596  -0.806  0.4949 -0.3383  0.2439
   99MOL0     O13260   0.042   2.649  -0.927  0.6682 -0.8859  0.0018
   99MOL0     C13261  -0.066   2.735  -0.927 -0.4034  0.6174 -0.7262
   99MOL0     C13262  -0.189   2.686  -0.974 -0.1622  0.2500  0.2163
   99MOL0     C13263  -0.295   2.773  -0.991  0.3403  0.1202  0.1140
   99MOL0     C13264  -0.271   2.904  -0.961 -0.4595  0.1175  0.0298
   99MOL0     O13265  -0.385   2.982  -0.979 -0.1698  0.2311  0.4809
   99MOL0     C13266  -0.387   3.111  -0.914 -0.2563  0.4978  0.3842
   99MOL0     C13267  -0.527   3.144  -0.915 -0.3493  0.8607 -0.4093
   99MOL0     C13268  -0.602   3.077  -0.800 -0.8333  0.7542 -0.4377
   99MOL0     C13269  -0.745   3.075  -0.835  0.1679  0.5240 -0.3501
   99MOL0     C13270  -0.846   3.012  -0.726 -0.2946  0.0154 -0.2008
   99MOL0     C13271  -0.908   3.106  -0.626 -1.4950  1.1439 -0.4323
   99MOL0     C13272  -1.052   3.158  -0.657 -0.0445  0.5840  0.1366
   99MOL0     C13273  -1.157   3.050  -0.682  0.5112 -0.6221  0.0388
   99MOL0    Cl13274  -1.320   3.115  -0.691  0.5550  0.1095 -0.4266
   99MOL0     C13275  -0.150   2.957  -0.917  0.0161 -0.8574 -0.1107
   99MOL0     C13276  -0.040   2.874  -0.894  0.9837  0.9045 -0.4012
   99MOL0     O13277   0.008   2.620  -0.702  0.1500  0.1352  0.0876
   99MOL0     C13278   0.234   2.463  -0.675  0.7702  0.2764  0.0423
   99MOL0     C13279   0.349   2.378  -0.667  0.0981  0.0718 -0.5898
   99MOL0     N13280   1.110   2.392  -1.063  0.8734 -0.7142 -0.3762
   99MOL0     N13281   1.208   2.311  -1.018 -0.1546 -0.1958  0.1498
   99MOL0     C13282   0.433   2.062  -0.173 -0.9350 -0.1866  0.9977
   99MOL0     C13283   0.325   2.053  -0.094  0.4367  0.0888 -0.4951
   99MOL0     C13284  -0.030   1.974   0.089  0.1095  0.3740  0.1416
   99MOL0     C13285  -0.077   1.895  -0.016 -0.1329 -0.4686 -0.2453
   99MOL0     C13286  -0.210   1.882  -0.039 -0.0044  0.9735 -0.0313
   99MOL0     C13287  -0.306   1.949   0.035  0.1992 -0.0250  0.0762
   99MOL0     O13288  -0.435   1.921   0.013  0.5734 -0.1588 -0.2258
   99MOL0     C13289  -0.542   1.996   0.066 -1.0546  0.1076 -0.7668
   99MOL0     C13290  -0.674   1.927   0.030  0.4902 -0.1707  0.0317
   99MOL0     C13291  -0.707   1.953  -0.116  0.3943 -0.2429  0.4273
   99MOL0     C13292  -0.820   1.867  -0.180 -0.4505 -0.1155  0.0952
   99MOL0     C13293  -0.862   1.917  -0.313  0.1472  0.0366  0.1154
   99MOL0     C13294  -0.899   1.950  -0.422 -0.4276 -0.3814  0.1547
   99MOL0     C13295  -0.260   2.040   0.132 -1.4467  0.4000  0.2322
   99MOL0     C13296  -0.122   2.044   0.168  0.0518  0.1316 -0.5425
   99MOL0     C13297  -0.097   2.143   0.273 -0.2713 -0.3441 -0.8227
   99MOL0     H13298   0.341   1.730  -0.022 -3.1930  0.1291 -4.4678
   99MOL0     H13299   0.561   1.751  -0.157 -1.6160  0.2174  0.0921
   99MOL0     H13300   0.761   1.847  -0.220  2.2868 -0.4330 -0.8118
   99MOL0     H13301   0.690   1.804  -0.381  1.7583 -2.0136 -0.0666
   99MOL0     H13302   0.931   1.902  -0.350  1.9815  3.0870 -0.1138
   99MOL0     H13303   0.857   2.062  -0.336 -1.7028 -0.5024 -0.2352
   99MOL0     H13304   0.749   2.039  -0.564  1.6101  0.0031 -3.5937
   99MOL0     H13305   0.786   1.868  -0.564 -3.5952  1.8212 -1.0425
   99MOL0     H13306   0.941   2.127  -0.568 -1.8991 -0.1987  1.3599
   99MOL0     H13307   1.039   1.992  -0.523  2.2557  0.7306 -2.0316
   99MOL0     H13308   0.989   1.855  -0.715 -1.4129  0.3982 -0.4058
   99MOL0     H13309   0.885   1.984  -0.777 -1.4456  1.8208  1.8695
   99MOL0     H13310   1.059   2.145  -0.805 -0.8179 -0.3978 -2.3100
   99MOL0     H13311   1.178   2.043  -0.718 -0.1309 -2.2514  1.1402
   99MOL0     H13312   1.062   1.923  -0.969 -2.8392  0.1065  2.6682
   99MOL0     H13313   1.200   1.889  -0.875  1.2289  0.3532  2.3863
   99MOL0     H13314   1.306   2.105  -0.900  0.5887 -3.4430  1.3008
   99MOL0     H13315   1.296   2.031  -1.058 -1.4483 -1.1852 -1.3638
   99MOL0     H13316   0.978   2.092  -1.078  1.6678 -0.9225  4.3086
   99MOL0     H13317   0.854   2.459  -1.122  0.4927 -0.5210  1.4337
   99MOL0     H13318   0.840   2.338  -1.245 -0.7430  0.8771 -0.4773
   99MOL0     H13319   0.655   2.286  -1.115  0.1399 -3.3521 -1.0285
   99MOL0     H13320   0.766   2.175  -1.060 -2.8364  0.2765 -1.2930
   99MOL0     H13321   0.660   2.422  -0.921  0.2594 -0.5429  0.8148
   99MOL0     H13322   0.810   2.347  -0.865  1.9919  1.1975 -2.6509
   99MOL0     H13323   0.679   2.144  -0.804 -2.4815 -1.8904 -2.2476
   99MOL0     H13324   0.564   2.176  -0.929 -1.6013 -2.2958  2.1803
   99MOL0     H13325   0.440   2.382  -0.994  0.2426  0.0217  1.2626
   99MOL0     H13326   0.227   2.491  -1.012 -0.7023  0.0139  1.4409
   99MOL0     H13327  -0.179   2.581  -1.002 -3.3115 -0.2883  0.7628
   99MOL0     H13328  -0.394   2.748  -1.029 -0.3968  1.9320  0.7224
   99MOL0     H13329  -0.345   3.087  -0.815 -2.0292 -4.1619  0.2624
   99MOL0     H13330  -0.322   3.176  -0.973  3.0665 -1.2433  1.8335
   99MOL0     H13331  -0.532   3.252  -0.901 -2.8774  0.6680  0.5161
   99MOL0     H13332  -0.580   3.126  -1.009 -0.3571 -0.5235 -0.1620
   99MOL0     H13333  -0.576   2.973  -0.782  1.7465  1.5964  1.2438
   99MOL0     H13334  -0.589   3.129  -0.705 -0.4628 -1.6649  0.9126
   99MOL0     H13335  -0.752   3.006  -0.920 -1.6506  1.7487 -1.2506
   99MOL0     H13336  -0.782   3.170  -0.874  0.9834  1.2304  0.5355
   99MOL0     H13337  -0.799   2.926  -0.677  0.4885 -0.7924 -2.2758
   99MOL0     H13338  -0.932   2.975  -0.783  0.0016  0.2473 -0.8075
   99MOL0     H13339  -0.899   3.058  -0.528 -2.1988  0.9987 -0.4321
   99MOL0     H13340  -0.834   3.185  -0.608  2.0230 -1.6693 -1.2705
   99MOL0     H13341  -1.050   3.243  -0.725 -1.7025  0.0562 -0.6285
   99MOL0     H13342  -1.076   3.203  -0.560  0.3492  2.1701 -0.4832
   99MOL0     H13343  -1.142   3.002  -0.779 -2.1918 -1.8096  0.1248
   99MOL0     H13344  -1.170   2.977  -0.602  1.5801 -2.2975 -1.2574
   99MOL0     H13345  -0.149   3.064  -0.902  0.5408 -0.9157  0.3285
   99MOL0     H13346   0.060   2.899  -0.861  0.1735 -0.6317  3.9028
   99MOL0     H13347   0.182   2.490  -0.584  1.9817  0.0602  0.8088
   99MOL0     H13348   0.403   2.347  -0.578  1.0251  0.1957 -1.0922
   99MOL0     H13349   0.460   2.148  -0.233  1.0744 -1.5704 -0.2331
   99MOL0     H13350   0.265   2.143  -0.083  1.5933  1.2027 -2.7177
   99MOL0     H13351  -0.013   1.837  -0.083  1.9015  0.1150  1.0970
   99MOL0     H13352  -0.251   1.812  -0.111 -2.3552  3.0143 -0.8409
   99MOL0     H13353  -0.548   2.100   0.034  1.1813  0.5173 -0.0584
   99MOL0     H13354  -0.531   1.997   0.175  3.4171 -1.9172 -0.9459
   99MOL0     H13355  -0.765   1.958   0.082  0.9995 -0.7405  1.3117
   99MOL0     H13356  -0.673   1.820   0.052 -2.1269 -0.7328 -1.9868
   99MOL0     H13357  -0.614   1.947  -0.175 -0.0891  0.1250 -0.3870
   99MOL0     H13358  -0.746   2.053  -0.135  2.4276  0.8682  1.7392
   99MOL0     H13359  -0.794   1.761  -0.174 -0.7082 -0.1656  0.3599
   99MOL0     H13360  -0.910   1.875  -0.119  0.7015  0.6022  1.7453
   99MOL0     H13361  -0.955   1.959  -0.513 -2.8962  1.3504  1.7191
   99MOL0     H13362  -0.313   2.111   0.193  3.4606  3.1288  1.8663
   99MOL0     H13363  -0.186   2.170   0.330  1.9340  0.9671  2.2414
   99MOL0     H13364  -0.029   2.103   0.349 -1.4698  0.7486  0.8760
   99MOL0     H13365  -0.049   2.225   0.218 -0.2347  0.1634 -0.0407
  100MOL0     O13366   3.739   8.329   7.855  0.0625 -0.1286 -0.3509
  100MOL0     C13367   3.662   8.429   7.879  0.4750  0.6655 -0.9286
  100MOL0     O13368   3.669   8.515   7.997 -0.4810 -0.6096 -0.3338
  100MOL0     C13369   3.773   8.480   8.077 -0.6627  0.4787 -0.8532
  100MOL0     C13370   3.754   8.376   8.182 -0.7279  0.2146  0.2257
  100MOL0     C13371   3.855   8.327   8.271  0.1629 -0.5327  0.3925
  100MOL0     C13372   3.981   8.383   8.256  0.5445 -0.3349  0.0337
  100MOL0     O13373   4.099   8.347   8.326 -0.8882  0.7914  0.4203
  100MOL0     C13374   4.109   8.224   8.388  0.8901  0.6696  0.6338
  100MOL0     C13375   4.248   8.206   8.443  0.1344  0.3122 -1.3620
  100MOL0     C13376   4.355   8.159   8.344 -0.6585  0.5218 -0.3326
  100MOL0     C13377   4.375   8.242   8.216  0.3906  0.1389  0.8291
  100MOL0     C13378   4.506   8.198   8.149  0.5577  0.2421 -0.0837
  100MOL0     C13379   4.543   8.271   8.022 -0.4541 -0.3801  0.0024
  100MOL0     C13380   4.672   8.231   7.944 -0.2980  0.0863  0.3205
  100MOL0     C13381   4.685   8.315   7.821  0.4272  0.8053  0.0148
  100MOL0     N13382   4.825   8.286   7.769  0.7405 -0.7626 -0.1527
  100MOL0     C13383   4.941   8.305   7.838  0.0041  0.5469  0.0764
  100MOL0     C13384   5.042   8.252   7.767 -0.0222  0.1696  0.0385
  100MOL0     C13385   5.188   8.233   7.787 -0.5186 -0.0636 -0.2605
  100MOL0     C13386   5.228   8.228   7.930  0.3511  0.0866  0.2424
  100MOL0     C13387   5.370   8.185   7.958 -0.2352 -0.2723 -0.4817
  100MOL0     C13388   5.477   8.276   7.891  0.2449  0.1452 -0.2623
  100MOL0     O13389   5.608   8.252   7.932 -0.6974  0.2643  0.1713
  100MOL0     C13390   5.676   8.352   7.993 -0.5364  0.5891 -0.0157
  100MOL0     C13391   5.820   8.355   7.972  0.6738 -0.3046  0.8381
  100MOL0     C13392   5.898   8.464   8.018  0.3638 -0.2293  0.0170
  100MOL0     C13393   5.848   8.553   8.117 -0.0089  0.0280 -0.0596
  100MOL0     C13394   5.929   8.658   8.189 -0.0539 -1.1429 -0.1220
  100MOL0     O13395   6.064   8.659   8.163 -0.1840 -0.7542 -0.6798
  100MOL0     C13396   6.149   8.745   8.232 -0.1925 -0.0747  0.1623
  100MOL0     C13397   6.140   8.740   8.367 -0.8505 -1.1209 -0.5816
  100MOL0     C13398   6.237   8.810   8.450 -0.3638 -0.0795  0.4211
  100MOL0     C13399   6.344   8.885   8.395  0.3122  0.1186 -0.6709
  100MOL0     O13400   6.434   8.953   8.469  0.5504  0.3320  0.2116
  100MOL0     C13401   6.478   8.880   8.589 -0.7053 -0.1701 -0.0861
  100MOL0     C13402   6.616   8.959   8.633  0.7560 -0.2793 -0.3677
  100MOL0     C13403   6.654   8.907   8.776  0.1999 -0.0592  0.0841
  100MOL0     C13404   6.802   8.917   8.805  0.9439 -0.0512 -0.4355
  100MOL0     C13405   6.810   8.925   8.954  0.1070 -0.1376 -0.2572
  100MOL0     C13406   6.829   8.791   9.017  0.6978 -0.1424 -0.8346
  100MOL0     C13407   6.878   8.799   9.165  0.0309  0.2628  0.8808
  100MOL0     C13408   6.941   8.666   9.204 -0.8301  0.7130 -0.3652
  100MOL0    Cl13409   7.074   8.603   9.108 -0.0152 -0.2296 -0.1419
  100MOL0     C13410   6.354   8.883   8.254  0.2266 -0.3769  0.1900
  100MOL0     C13411   6.259   8.808   8.173  0.5140 -0.1373  0.1389
  100MOL0     O13412   5.870   8.747   8.254 -0.5103  0.3718  0.1267
  100MOL0     C13413   5.708   8.540   8.146 -0.6883 -0.5683 -0.4603
  100MOL0     C13414   5.620   8.449   8.077  0.3856  0.9375  0.1776
  100MOL0     N13415   4.980   8.210   7.650 -0.3393  0.6226  0.6947
  100MOL0     N13416   4.855   8.229   7.650 -0.2317  0.8808  0.2764
  100MOL0     C13417   3.998   8.488   8.168  0.2828 -1.0961 -1.2791
  100MOL0     C13418   3.902   8.535   8.079  0.6880 -0.4558 -0.4823
  100MOL0     C13419   3.544   8.451   7.788  0.5491  0.5526 -0.6212
  100MOL0     C13420   3.455   8.550   7.825 -0.0402  0.1636 -0.3644
  100MOL0     C13421   3.346   8.582   7.743  0.1979 -0.6385 -0.6352
  100MOL0     C13422   3.318   8.512   7.626  0.0317 -0.3344 -0.1791
  100MOL0     O13423   3.217   8.552   7.544  0.1288  0.2716  0.7954
  100MOL0     C13424   3.100   8.616   7.602  0.6262  0.1433  0.1823
  100MOL0     C13425   3.017   8.540   7.701 -0.5276 -0.7423  0.3810
  100MOL0     C13426   2.920   8.444   7.615 -0.8895 -0.3582  0.8778
  100MOL0     C13427   2.877   8.321   7.691  0.5389 -0.0485 -0.1444
  100MOL0     C13428   2.803   8.361   7.817 -0.5637  0.2931  0.6907
  100MOL0     C13429   2.739   8.397   7.911  0.1290  0.5035  0.0503
  100MOL0     C13430   3.402   8.410   7.586 -0.1375  0.8443 -0.9846
  100MOL0     C13431   3.513   8.375   7.661 -0.1416  0.0698  0.3802
  100MOL0     C13432   3.604   8.273   7.603  0.2571  0.1166  0.8829
  100MOL0     H13433   3.662   8.320   8.192 -0.6643  0.3817  2.1083
  100MOL0     H13434   3.844   8.250   8.346 -0.3170  0.0622  0.9370
  100MOL0     H13435   4.042   8.218   8.474  0.8847 -1.5976  0.5329
  100MOL0     H13436   4.082   8.146   8.316  1.2079 -0.4597  1.6991
  100MOL0     H13437   4.252   8.123   8.514 -0.6874 -0.9061 -2.6866
  100MOL0     H13438   4.276   8.296   8.498 -1.8305  1.8182 -2.6851
  100MOL0     H13439   4.327   8.059   8.309 -0.2195  0.1706  0.3052
  100MOL0     H13440   4.446   8.158   8.405 -1.9150  0.5753  1.6296
  100MOL0     H13441   4.291   8.215   8.151 -0.3170  1.7623  1.0304
  100MOL0     H13442   4.366   8.349   8.236  0.7433  0.2577  0.3849
  100MOL0     H13443   4.594   8.212   8.213 -0.5944  1.5433  1.2932
  100MOL0     H13444   4.505   8.094   8.112  2.9739  1.0802 -2.9531
  100MOL0     H13445   4.465   8.259   7.947 -0.6223 -3.6174  0.5691
  100MOL0     H13446   4.563   8.377   8.043  1.4604 -0.8047  0.5245
  100MOL0     H13447   4.676   8.124   7.921 -1.3081 -0.1801  1.3047
  100MOL0     H13448   4.762   8.246   8.005 -0.2271 -1.9187  0.7855
  100MOL0     H13449   4.605   8.292   7.750  0.6908  1.2739 -0.4421
  100MOL0     H13450   4.671   8.422   7.838 -2.2437  0.4288  0.6958
  100MOL0     H13451   4.963   8.361   7.929  2.5081 -1.3880  0.7989
  100MOL0     H13452   5.207   8.136   7.740 -2.2714  0.0808 -1.3621
  100MOL0     H13453   5.241   8.306   7.726 -1.2103 -0.8168 -1.8154
  100MOL0     H13454   5.209   8.329   7.966 -2.4142 -1.1537  2.8055
  100MOL0     H13455   5.159   8.157   7.978 -0.3539 -0.1133 -1.0009
  100MOL0     H13456   5.389   8.078   7.945 -1.8248 -0.5968 -0.3605
  100MOL0     H13457   5.378   8.200   8.066  1.1204  0.2604 -0.6351
  100MOL0     H13458   5.448   8.378   7.917  1.3604  0.2672  0.5605
  100MOL0     H13459   5.465   8.265   7.783 -0.3090  1.6710 -0.3755
  100MOL0     H13460   5.853   8.278   7.902 -1.8813 -1.1190  0.4341
  100MOL0     H13461   6.000   8.486   7.990  0.5424 -1.6059 -0.5036
  100MOL0     H13462   6.063   8.684   8.419  1.1369 -2.6532  0.8592
  100MOL0     H13463   6.232   8.810   8.559 -0.6323  2.7421  0.5003
  100MOL0     H13464   6.415   8.898   8.677  0.1867  3.5763 -0.0179
  100MOL0     H13465   6.499   8.777   8.562 -3.2145 -1.0769  1.1084
  100MOL0     H13466   6.686   8.952   8.549 -0.6239 -0.2614 -1.5638
  100MOL0     H13467   6.578   9.062   8.633  0.9791 -0.1948  0.1744
  100MOL0     H13468   6.600   8.971   8.846 -0.5394 -0.2701 -0.2746
  100MOL0     H13469   6.614   8.805   8.783 -3.5511  1.2350 -0.1350
  100MOL0     H13470   6.839   9.013   8.767  1.6150  1.9620  4.6262
  100MOL0     H13471   6.861   8.835   8.762 -1.2497 -1.8854 -0.0887
  100MOL0     H13472   6.724   8.983   8.992 -0.1319  1.2428 -2.6800
  100MOL0     H13473   6.910   8.965   8.970 -0.7304  1.7497  0.6965
  100MOL0     H13474   6.730   8.745   9.007  1.8194 -2.9393  0.0115
  100MOL0     H13475   6.893   8.723   8.961  2.7415 -1.8974  3.2266
  100MOL0     H13476   6.789   8.815   9.226 -0.6502 -2.7831  0.8249
  100MOL0     H13477   6.954   8.878   9.168  1.4038 -0.6639 -3.3658
  100MOL0     H13478   6.983   8.667   9.305  0.0727  2.3476 -0.7103
  100MOL0     H13479   6.861   8.592   9.197  0.9905 -1.5978  1.5721
  100MOL0     H13480   6.429   8.936   8.195 -1.6526  0.0396 -1.9450
  100MOL0     H13481   6.274   8.794   8.066 -2.8827  0.8518 -0.6036
  100MOL0     H13482   5.673   8.615   8.217  0.1332 -1.1786  0.5993
  100MOL0     H13483   5.514   8.446   8.099  0.2661 -3.0331 -0.1700
  100MOL0     H13484   4.096   8.534   8.156 -0.1129 -0.4071 -1.9755
  100MOL0     H13485   3.924   8.609   8.002  0.5700 -0.3895 -0.4530
  100MOL0     H13486   3.459   8.621   7.907 -0.6110 -1.2515  0.9403
  100MOL0     H13487   3.288   8.666   7.780  1.2769  0.1978 -0.7874
  100MOL0     H13488   3.027   8.643   7.525  0.4160  1.6442  0.8661
  100MOL0     H13489   3.115   8.722   7.625 -1.6439  1.5211 -3.7062
  100MOL0     H13490   2.966   8.595   7.780 -0.2739 -1.9374  1.4110
  100MOL0     H13491   3.095   8.479   7.748 -1.1050 -1.1130  0.8586
  100MOL0     H13492   2.972   8.421   7.521 -0.6654  2.8054  0.1277
  100MOL0     H13493   2.824   8.493   7.598  0.8928  3.0597 -0.1760
  100MOL0     H13494   2.797   8.272   7.635 -1.7745  3.1913  0.0215
  100MOL0     H13495   2.958   8.252   7.718  0.8298 -0.0722 -1.0368
  100MOL0     H13496   2.662   8.441   7.971 -1.8432 -2.4266 -0.1249
  100MOL0     H13497   3.383   8.363   7.490 -0.7978 -0.5544 -0.1950
  100MOL0     H13498   3.557   8.217   7.522 -0.3855  0.2061  1.1925
  100MOL0     H13499   3.702   8.309   7.568 -0.7831 -0.0102 -2.5453
  100MOL0     H13500   3.645   8.199   7.673  3.0140  0.7264  0.0530
  101MOL0     O13501   4.237   3.886   9.851  0.6670  0.6643 -0.0011
  101MOL0     C13502   4.207   3.885   9.730 -0.3336  0.2086  0.0632
  101MOL0     O13503   4.300   3.892   9.627  0.2436 -0.0277  0.1106
  101MOL0     C13504   4.428   3.928   9.647  0.2393  0.8572  0.2177
  101MOL0     C13505   4.468   4.054   9.588  1.0006  0.3931  0.2397
  101MOL0     C13506   4.607   4.085   9.605 -0.3911 -0.1612  0.4591
  101MOL0     C13507   4.693   4.003   9.677 -0.0992 -0.1529 -0.5566
  101MOL0     O13508   4.825   4.035   9.667  0.0398 -0.6714  0.4355
  101MOL0     C13509   4.891   3.923   9.622  0.5180  0.0444  0.2036
  101MOL0     C13510   5.037   3.956   9.627  0.8482  0.2784  0.7215
  101MOL0     C13511   5.091   3.969   9.773  0.2285  0.3746  0.7272
  101MOL0     C13512   5.246   3.967   9.770  0.1723 -0.2395  0.6906
  101MOL0     C13513   5.310   3.826   9.741 -0.2420  0.3150  0.0356
  101MOL0     C13514   5.459   3.842   9.716  0.2810  0.8256 -1.1679
  101MOL0     C13515   5.531   3.708   9.681 -0.2226  1.2880  0.4185
  101MOL0     C13516   5.655   3.730   9.598  0.1866 -0.3710 -0.1728
  101MOL0     N13517   5.754   3.806   9.676  0.3680 -0.2335 -0.1563
  101MOL0     C13518   5.850   3.745   9.750 -0.0224  0.1254  0.2759
  101MOL0     C13519   5.920   3.838   9.824  0.1178  0.2113 -0.5238
  101MOL0     C13520   6.029   3.828   9.923  0.4194  0.5612  0.1244
  101MOL0     C13521   6.041   3.960   9.990  0.3355 -0.1802 -0.5354
  101MOL0     C13522   6.151   3.973  10.095  0.4019 -0.3642 -0.0153
  101MOL0     C13523   6.130   4.099  10.175 -0.6019  0.1386 -0.2860
  101MOL0     O13524   6.231   4.126  10.279  0.1193 -0.5288  0.1972
  101MOL0     C13525   6.362   4.137  10.239  0.0760 -0.0645  0.1714
  101MOL0     C13526   6.432   4.261  10.222  0.2916 -0.2695  0.6866
  101MOL0     C13527   6.550   4.275  10.165 -0.4991  0.5405 -0.0146
  101MOL0     C13528   6.629   4.159  10.143  0.0959  0.3911 -0.5495
  101MOL0     C13529   6.777   4.172  10.117  0.4940  0.6420 -0.2220
  101MOL0     O13530   6.829   4.296  10.141  0.3051 -0.5552 -0.5203
  101MOL0     C13531   6.963   4.307  10.130 -0.2523  0.5441  0.2583
  101MOL0     C13532   7.052   4.295  10.235 -0.3410 -0.2559  0.1356
  101MOL0     C13533   7.186   4.319  10.205 -0.2518  0.0838  0.6709
  101MOL0     C13534   7.241   4.363  10.088  0.0577 -0.4248 -0.5030
  101MOL0     O13535   7.377   4.391  10.080  0.2390 -0.4882 -0.4519
  101MOL0     C13536   7.417   4.502   9.999 -0.1560 -0.5795 -0.4750
  101MOL0     C13537   7.572   4.517   9.991 -0.1834 -0.0488  0.1097
  101MOL0     C13538   7.631   4.468   9.862 -0.8661 -0.5918  0.0138
  101MOL0     C13539   7.777   4.496   9.845  1.4033 -0.1435 -0.1150
  101MOL0     C13540   7.832   4.417   9.726 -0.7699  0.2160 -0.3171
  101MOL0     C13541   7.982   4.444   9.716  0.1694  0.4539 -0.1886
  101MOL0     C13542   8.069   4.376   9.814 -0.8585 -0.0743  0.3115
  101MOL0     C13543   8.217   4.414   9.809 -0.4717  0.6907  0.6325
  101MOL0    Cl13544   8.279   4.376   9.633 -0.0382  0.0138 -0.2815
  101MOL0     C13545   7.153   4.387   9.990  0.6358  0.7275  0.2033
  101MOL0     C13546   7.013   4.369  10.011  0.6215  0.4256 -0.4232
  101MOL0     O13547   6.838   4.068  10.080  0.3435  0.1508 -0.5157
  101MOL0     C13548   6.571   4.030  10.165  0.8217  0.0017  0.1854
  101MOL0     C13549   6.436   4.024  10.209 -0.3144  0.3837 -0.7840
  101MOL0     N13550   5.862   3.960   9.780  0.2929  0.1255  0.4494
  101MOL0     N13551   5.772   3.942   9.691  0.3197 -0.6931 -0.9569
  101MOL0     C13552   4.641   3.889   9.742 -0.5811 -0.1433  0.9576
  101MOL0     C13553   4.508   3.851   9.727 -0.1472  0.2758  0.6609
  101MOL0     C13554   4.069   3.886   9.683 -0.2405 -1.1493 -0.7215
  101MOL0     C13555   4.049   3.905   9.549  0.7476  0.5372  0.2018
  101MOL0     C13556   3.921   3.893   9.487  0.0523 -0.0594  0.5792
  101MOL0     C13557   3.807   3.870   9.556 -0.9202  0.3969 -0.8924
  101MOL0     O13558   3.696   3.852   9.490  0.4523 -0.0176  0.2526
  101MOL0     C13559   3.577   3.799   9.546  0.1343 -0.5635 -0.5880
  101MOL0     C13560   3.480   3.926   9.566  0.1843  0.2190  0.2497
  101MOL0     C13561   3.347   3.872   9.616  0.3746  0.7253  0.2085
  101MOL0     C13562   3.238   3.987   9.629  0.2254  0.5796 -0.3315
  101MOL0     C13563   3.110   3.923   9.669 -0.4282  0.4897  0.8919
  101MOL0     C13564   2.995   3.889   9.678 -0.2031 -0.5482  0.6797
  101MOL0     C13565   3.827   3.864   9.696 -0.0682 -0.0120 -0.4996
  101MOL0     C13566   3.944   3.863   9.762  0.3061 -0.1347  0.3137
  101MOL0     C13567   3.952   3.832   9.908 -0.3339  0.1812 -0.4631
  101MOL0     H13568   4.390   4.122   9.555 -0.7378 -0.7515  1.8047
  101MOL0     H13569   4.658   4.172   9.565 -1.2330 -0.3644 -1.1613
  101MOL0     H13570   4.887   3.831   9.680  2.8288  1.1940  2.3831
  101MOL0     H13571   4.861   3.888   9.522  2.9559 -1.4724 -0.0728
  101MOL0     H13572   5.050   4.051   9.576  2.7240 -0.2777  0.0938
  101MOL0     H13573   5.085   3.875   9.571 -2.3744 -1.3589  0.0362
  101MOL0     H13574   5.050   3.886   9.831  1.0854 -1.9206 -1.7511
  101MOL0     H13575   5.057   4.062   9.819 -0.1173 -0.1305  1.5190
  101MOL0     H13576   5.282   4.028   9.686  0.3517 -1.2274  0.0224
  101MOL0     H13577   5.287   4.008   9.862 -0.8776 -0.4875  1.2891
  101MOL0     H13578   5.281   3.764   9.826  2.5860 -1.4614 -0.1913
  101MOL0     H13579   5.254   3.781   9.659  0.5121 -0.0239 -0.2988
  101MOL0     H13580   5.459   3.909   9.629  0.8302 -0.6401 -2.3282
  101MOL0     H13581   5.513   3.891   9.798 -0.4795 -2.3765  1.4429
  101MOL0     H13582   5.458   3.641   9.635  1.2496  0.3450 -0.6331
  101MOL0     H13583   5.566   3.653   9.769 -2.5799  1.2872  1.4327
  101MOL0     H13584   5.700   3.631   9.581  1.0425 -0.0675  0.2883
  101MOL0     H13585   5.626   3.782   9.506  1.4272  0.3714 -0.1716
  101MOL0     H13586   5.864   3.638   9.764  1.7586 -0.2620 -3.2252
  101MOL0     H13587   6.001   3.756  10.001  3.2454 -1.3871 -0.5073
  101MOL0     H13588   6.117   3.789   9.871 -1.2292  0.3140 -2.7104
  101MOL0     H13589   6.059   4.037   9.914  1.4565  2.5448  2.2966
  101MOL0     H13590   5.948   3.997  10.032 -0.5765  1.7158 -3.8056
  101MOL0     H13591   6.245   3.968  10.039  0.4068 -3.0188  0.1081
  101MOL0     H13592   6.131   3.893  10.167 -0.8437 -0.1739 -0.1228
  101MOL0     H13593   6.037   4.086  10.230 -1.8056 -2.1253 -2.6476
  101MOL0     H13594   6.115   4.185  10.109  1.1880  0.7456  0.0439
  101MOL0     H13595   6.376   4.342  10.268  0.3514 -0.3545  0.9131
  101MOL0     H13596   6.588   4.376  10.159 -2.8424  1.5877  1.3527
  101MOL0     H13597   7.015   4.254  10.328  0.0460 -3.2723 -0.9097
  101MOL0     H13598   7.265   4.298  10.277  0.5858 -0.7396 -0.4630
  101MOL0     H13599   7.386   4.486   9.896 -0.6468 -0.8234 -0.2942
  101MOL0     H13600   7.375   4.598  10.030 -1.6920 -0.8397 -1.6580
  101MOL0     H13601   7.599   4.622  10.007  1.7313 -0.4238 -0.3130
  101MOL0     H13602   7.607   4.464  10.080 -0.0327 -1.2162 -0.6345
  101MOL0     H13603   7.614   4.362   9.843 -1.6902 -0.7209  1.3605
  101MOL0     H13604   7.579   4.524   9.784 -0.0414  1.6331  0.9431
  101MOL0     H13605   7.829   4.473   9.938 -0.3750 -2.6087  0.3532
  101MOL0     H13606   7.777   4.603   9.823 -3.5832 -0.0123 -0.6325
  101MOL0     H13607   7.775   4.453   9.640  0.2532  1.0413 -0.6689
  101MOL0     H13608   7.817   4.310   9.742  1.1936 -0.3172 -1.6158
  101MOL0     H13609   8.020   4.404   9.621  1.3617 -2.1280  1.2594
  101MOL0     H13610   7.996   4.552   9.729  1.8528  0.0974  1.4467
  101MOL0     H13611   8.064   4.268   9.796  0.3341  0.0126 -0.7090
  101MOL0     H13612   8.042   4.402   9.917 -0.2015 -0.2685  0.5356
  101MOL0     H13613   8.238   4.519   9.829 -4.3478  1.9128 -0.7905
  101MOL0     H13614   8.270   4.352   9.883  1.9295 -1.1281 -2.3520
  101MOL0     H13615   7.187   4.424   9.894 -0.3135  0.4266 -0.2631
  101MOL0     H13616   6.942   4.397   9.934 -0.0575 -1.3048 -0.4683
  101MOL0     H13617   6.624   3.936  10.159 -1.4207 -1.4028  0.8728
  101MOL0     H13618   6.399   3.922  10.215 -1.1491  0.6125 -1.8454
  101MOL0     H13619   4.714   3.816   9.778 -0.1199  0.4738  1.2895
  101MOL0     H13620   4.477   3.757   9.771  1.3622 -0.1450  0.8631
  101MOL0     H13621   4.128   3.923   9.477 -1.0887  0.1495 -2.0501
  101MOL0     H13622   3.901   3.907   9.381 -3.7019  2.1116  1.4166
  101MOL0     H13623   3.589   3.742   9.638 -2.1612  1.4039  1.0457
  101MOL0     H13624   3.546   3.731   9.466  2.1442 -2.1455 -0.1024
  101MOL0     H13625   3.463   3.977   9.470 -0.7834  1.1470  0.8952
  101MOL0     H13626   3.533   3.996   9.632 -2.9956  3.3795 -0.2203
  101MOL0     H13627   3.369   3.825   9.712  1.1348  0.0867 -0.2708
  101MOL0     H13628   3.300   3.802   9.546 -0.0844  0.8688  0.3666
  101MOL0     H13629   3.261   4.069   9.697 -0.7409  0.9685 -0.4483
  101MOL0     H13630   3.224   4.034   9.531  1.3479  0.0605 -0.7520
  101MOL0     H13631   2.895   3.851   9.675 -0.6697  0.6645  0.2920
  101MOL0     H13632   3.745   3.836   9.762 -1.9980  0.3485 -2.6004
  101MOL0     H13633   4.009   3.740   9.922 -1.6586 -0.5297  0.5603
  101MOL0     H13634   4.000   3.915   9.962  1.5965 -2.0924  1.5760
  101MOL0     H13635   3.847   3.812   9.933 -0.7639 -2.9896 -3.9141
  102MOL0     O13636   2.595   6.338  11.340 -0.8337 -0.1282  0.4122
  102MOL0     C13637   2.682   6.255  11.341  0.1149 -0.0171 -0.6170
  102MOL0     O13638   2.685   6.158  11.253  0.6768 -0.2317  0.2278
  102MOL0     C13639   2.571   6.134  11.171  0.8062  0.1201  0.1698
  102MOL0     C13640   2.595   6.047  11.059 -0.2304 -0.0861 -0.3097
  102MOL0     C13641   2.505   6.017  10.956  0.1466  0.7289 -0.3359
  102MOL0     C13642   2.374   6.059  10.978  0.4789 -0.0134  0.1620
  102MOL0     O13643   2.277   6.023  10.886  0.3378 -0.1484  0.2310
  102MOL0     C13644   2.142   5.982  10.929  0.1155  0.6627 -1.2296
  102MOL0     C13645   2.054   6.109  10.886 -0.0728 -0.2265 -0.3368
  102MOL0     C13646   1.915   6.092  10.937 -0.0261  0.8896 -0.3075
  102MOL0     C13647   1.836   6.211  10.904 -0.4097 -0.2685 -0.2339
  102MOL0     C13648   1.702   6.215  10.974  0.0080  0.6683  0.2464
  102MOL0     C13649   1.714   6.299  11.102 -0.7269 -0.4139  0.6829
  102MOL0     C13650   1.569   6.304  11.155 -0.6268  0.2012  0.3033
  102MOL0     C13651   1.563   6.390  11.284 -0.0269  0.3655  0.4186
  102MOL0     N13652   1.617   6.524  11.274 -0.5609  0.3444 -0.8599
  102MOL0     C13653   1.588   6.627  11.192  0.4510  0.4482 -0.9320
  102MOL0     C13654   1.650   6.735  11.233 -0.1811 -0.4514  0.8350
  102MOL0     C13655   1.660   6.873  11.171  0.7769  0.2437  0.6385
  102MOL0     C13656   1.798   6.937  11.163 -0.9002  0.2826 -0.3743
  102MOL0     C13657   1.816   7.049  11.052 -0.0654  0.2298 -0.3312
  102MOL0     C13658   1.837   6.984  10.911  0.1100 -0.2787  1.1030
  102MOL0     O13659   1.973   6.938  10.900  0.2432  0.1627  0.2579
  102MOL0     C13660   2.076   7.026  10.875 -0.0683 -0.1071  0.5257
  102MOL0     C13661   2.201   6.968  10.877 -0.1151 -0.2885 -0.6645
  102MOL0     C13662   2.317   7.046  10.872 -0.0872 -0.1915  1.0793
  102MOL0     C13663   2.308   7.186  10.854 -0.1959 -0.1819  0.6941
  102MOL0     C13664   2.435   7.259  10.838  0.3499  0.7731 -0.8348
  102MOL0     O13665   2.426   7.393  10.815  0.4328  0.6803  0.3940
  102MOL0     C13666   2.543   7.463  10.831  0.2409  0.5279 -0.3504
  102MOL0     C13667   2.557   7.555  10.942 -0.3691  1.1375  0.0844
  102MOL0     C13668   2.685   7.610  10.966 -0.2364  0.3600 -0.3191
  102MOL0     C13669   2.796   7.576  10.889  0.3579 -0.3345 -0.5999
  102MOL0     O13670   2.914   7.633  10.922  0.3645  0.2699  1.4786
  102MOL0     C13671   2.974   7.683  10.801 -0.8398 -0.4450  0.0876
  102MOL0     C13672   3.059   7.810  10.834 -0.4141 -0.2709 -0.6310
  102MOL0     C13673   3.096   7.882  10.702 -0.1917 -0.7530 -0.3083
  102MOL0     C13674   2.982   7.970  10.654 -0.1894 -0.0230  0.7506
  102MOL0     C13675   3.045   8.079  10.561 -0.6576  1.3246  0.5507
  102MOL0     C13676   3.128   8.031  10.440 -0.4547 -0.2801 -0.7250
  102MOL0     C13677   3.167   8.156  10.356 -0.0859  0.4920  0.6070
  102MOL0     C13678   3.205   8.116  10.219  0.0430 -0.3639 -0.7143
  102MOL0    Cl13679   3.351   8.015  10.218 -0.1660  0.3810 -0.1267
  102MOL0     C13680   2.780   7.490  10.785  0.3108 -0.2682 -0.5273
  102MOL0     C13681   2.654   7.437  10.757 -0.5763  0.0104  0.4081
  102MOL0     O13682   2.542   7.197  10.842 -0.2891  0.0113 -0.0532
  102MOL0     C13683   2.185   7.245  10.847  0.1262 -0.4516 -0.0981
  102MOL0     C13684   2.071   7.164  10.862  0.3274 -0.3877  0.0040
  102MOL0     N13685   1.725   6.697  11.334 -0.0440  0.0305 -0.9497
  102MOL0     N13686   1.700   6.572  11.365  0.2684  0.2146  0.3835
  102MOL0     C13687   2.339   6.147  11.086 -0.2195 -0.6260  0.5191
  102MOL0     C13688   2.438   6.188  11.175 -0.9342  0.8550 -0.0149
  102MOL0     C13689   2.800   6.248  11.432 -0.1151  0.9417 -0.1974
  102MOL0     C13690   2.893   6.139  11.427  0.8624  0.7748 -1.1883
  102MOL0     C13691   3.004   6.131  11.507  0.3623 -0.7453 -0.3454
  102MOL0     C13692   3.034   6.249  11.587  0.7221 -0.1325 -1.0018
  102MOL0     O13693   3.131   6.246  11.681 -0.2808  0.2997  0.1626
  102MOL0     C13694   3.262   6.286  11.638  0.3281  0.3413 -0.2404
  102MOL0     C13695   3.311   6.404  11.734  0.8127  0.4169 -0.7111
  102MOL0     C13696   3.455   6.438  11.704  0.6102 -0.1615 -0.1945
  102MOL0     C13697   3.529   6.520  11.806 -0.1957 -0.0017  1.2521
  102MOL0     C13698   3.554   6.462  11.937  0.0380  0.5179  0.3620
  102MOL0     C13699   3.574   6.399  12.037  0.7483 -1.2485  0.4445
  102MOL0     C13700   2.953   6.357  11.588  0.8799 -0.7089  0.7479
  102MOL0     C13701   2.835   6.358  11.511 -0.9358 -0.0467  0.2530
  102MOL0     C13702   2.755   6.481  11.530 -0.3153  0.1752  0.0231
  102MOL0     H13703   2.688   6.004  11.025 -0.5062 -3.2196  2.4203
  102MOL0     H13704   2.524   5.967  10.862  1.1260 -0.6769  0.5641
  102MOL0     H13705   2.119   5.887  10.880  2.6001 -0.7310  0.1333
  102MOL0     H13706   2.132   5.975  11.038 -1.7764  2.7599 -1.1957
  102MOL0     H13707   2.040   6.118  10.778 -2.5481  0.1295 -0.0315
  102MOL0     H13708   2.101   6.202  10.918 -0.1200 -0.0664 -0.7297
  102MOL0     H13709   1.910   6.078  11.046 -4.3066 -0.7729 -0.5405
  102MOL0     H13710   1.866   6.008  10.888  1.0343  0.5863 -0.8853
  102MOL0     H13711   1.903   6.296  10.923 -1.5029  0.4925  0.3236
  102MOL0     H13712   1.817   6.213  10.796 -0.2866 -4.4953 -0.5048
  102MOL0     H13713   1.629   6.262  10.908  0.4436  0.4611 -0.3923
  102MOL0     H13714   1.660   6.117  10.995  0.5604  0.6207  1.1896
  102MOL0     H13715   1.776   6.246  11.175  0.5687  1.0463  0.6827
  102MOL0     H13716   1.758   6.397  11.081 -3.6753  0.9587  0.3677
  102MOL0     H13717   1.528   6.206  11.180 -1.5680  0.0640 -1.6304
  102MOL0     H13718   1.505   6.348  11.079  1.4819  0.5459 -1.3756
  102MOL0     H13719   1.459   6.398  11.319 -0.9381  0.2702 -2.0933
  102MOL0     H13720   1.619   6.345  11.366  0.5842  2.9178  1.4929
  102MOL0     H13721   1.523   6.621  11.105 -0.0118  2.0519 -0.7251
  102MOL0     H13722   1.613   6.867  11.072 -1.0282  3.4539  1.1908
  102MOL0     H13723   1.590   6.944  11.215  1.8642  1.4603  0.4480
  102MOL0     H13724   1.811   6.987  11.259  0.0379 -0.8158  0.0884
  102MOL0     H13725   1.868   6.854  11.155  0.2088  1.1488  0.0568
  102MOL0     H13726   1.905   7.108  11.075 -0.5690  1.6797 -1.8690
  102MOL0     H13727   1.732   7.119  11.053 -0.6531 -0.4366 -1.3210
  102MOL0     H13728   1.822   7.051  10.826 -2.4143 -1.5889  0.4123
  102MOL0     H13729   1.757   6.911  10.893 -2.1461  2.5796 -1.3096
  102MOL0     H13730   2.210   6.862  10.898 -0.3108 -0.1591  0.0972
  102MOL0     H13731   2.414   6.997  10.872 -0.6240 -1.3136 -0.1543
  102MOL0     H13732   2.476   7.578  11.010 -1.6662 -2.2402 -0.1055
  102MOL0     H13733   2.703   7.675  11.051 -0.9206 -0.9937  0.8822
  102MOL0     H13734   3.036   7.604  10.757 -0.3006  0.7611 -1.4080
  102MOL0     H13735   2.905   7.716  10.724 -0.1045  1.3156  0.1231
  102MOL0     H13736   3.009   7.885  10.896 -1.7764  0.7663 -2.8607
  102MOL0     H13737   3.149   7.765  10.878 -1.4349 -1.0937  0.6912
  102MOL0     H13738   3.176   7.954  10.723 -0.7332  0.1976 -1.3742
  102MOL0     H13739   3.136   7.813  10.627  3.0138  1.2444 -0.6484
  102MOL0     H13740   2.928   8.012  10.739 -0.1820 -0.1609  0.8228
  102MOL0     H13741   2.917   7.909  10.589  1.0218  1.3999 -1.9699
  102MOL0     H13742   3.112   8.134  10.628  0.3926  2.7654 -1.5509
  102MOL0     H13743   2.972   8.150  10.520 -0.1657  3.6294  3.3729
  102MOL0     H13744   3.215   7.970  10.463 -0.1868  0.4647  0.3054
  102MOL0     H13745   3.057   7.976  10.377  1.9634  1.1989 -5.1286
  102MOL0     H13746   3.245   8.216  10.404 -2.3203  4.2591 -0.0969
  102MOL0     H13747   3.086   8.228  10.346 -0.7959 -0.5621 -1.9385
  102MOL0     H13748   3.119   8.078  10.162  0.7035  0.3970 -2.2712
  102MOL0     H13749   3.225   8.199  10.151  2.1284  1.2475  1.6949
  102MOL0     H13750   2.867   7.458  10.728  1.9995  4.5085 -1.0543
  102MOL0     H13751   2.631   7.378  10.669 -3.8198  0.7335  0.6566
  102MOL0     H13752   2.174   7.350  10.824 -0.2633 -0.8009 -1.5810
  102MOL0     H13753   1.979   7.218  10.841  1.7270  0.6978 -4.3689
  102MOL0     H13754   2.238   6.179  11.107  0.6034  4.2436 -1.7527
  102MOL0     H13755   2.392   6.243  11.257 -1.7194 -2.6536  2.1288
  102MOL0     H13756   2.876   6.052  11.365 -3.9820 -2.1093  3.3668
  102MOL0     H13757   3.062   6.040  11.520 -0.0011 -0.6080  3.2653
  102MOL0     H13758   3.264   6.317  11.533  1.8993  0.0999 -0.3062
  102MOL0     H13759   3.322   6.196  11.650 -1.1427 -0.5307  0.9116
  102MOL0     H13760   3.305   6.358  11.833 -3.0601 -1.1438 -1.4736
  102MOL0     H13761   3.246   6.491  11.732 -0.5230 -0.5055  0.4102
  102MOL0     H13762   3.459   6.504  11.617  1.2786 -1.2283 -1.0021
  102MOL0     H13763   3.516   6.354  11.670 -0.5738 -1.2686  0.3325
  102MOL0     H13764   3.626   6.527  11.756 -0.4883 -4.8599 -0.5141
  102MOL0     H13765   3.477   6.616  11.814 -0.2859 -0.0514  1.2699
  102MOL0     H13766   3.600   6.330  12.115  2.0607  1.8690  3.0072
  102MOL0     H13767   2.974   6.436  11.659  1.1855  0.5062 -0.6451
  102MOL0     H13768   2.647   6.471  11.546 -0.5454  2.8439  0.6199
  102MOL0     H13769   2.793   6.537  11.616  1.5258 -0.1523 -0.5324
  102MOL0     H13770   2.779   6.536  11.439  1.2015 -0.3757  0.0599
  103MOL0     O13771   8.261   3.374   1.499 -0.3699  0.3452  0.2217
  103MOL0     C13772   8.247   3.432   1.604 -0.5656  0.5243 -0.3973
  103MOL0     O13773   8.330   3.529   1.644 -0.3238  0.1715 -0.0868
  103MOL0     C13774   8.463   3.512   1.647 -0.1960  0.0478 -0.9409
  103MOL0     C13775   8.539   3.624   1.673 -0.2762  0.4402  0.3664
  103MOL0     C13776   8.679   3.628   1.669 -0.0948 -0.0291  0.4229
  103MOL0     C13777   8.743   3.503   1.647  0.6138 -0.1352 -0.6981
  103MOL0     O13778   8.879   3.494   1.630  0.1777 -0.2367 -0.0899
  103MOL0     C13779   8.956   3.616   1.627 -0.8435 -0.7711  0.9646
  103MOL0     C13780   9.104   3.574   1.622  0.0629  0.9189  0.0185
  103MOL0     C13781   9.210   3.681   1.605 -0.3113 -0.1940  0.9753
  103MOL0     C13782   9.345   3.606   1.606 -0.2120  0.1247  1.3381
  103MOL0     C13783   9.456   3.708   1.638 -0.2026 -0.2973 -0.1110
  103MOL0     C13784   9.583   3.650   1.576  0.0905 -0.4875 -0.0312
  103MOL0     C13785   9.708   3.713   1.651  0.8514 -0.0381  0.1360
  103MOL0     C13786   9.831   3.733   1.561  0.3904 -0.3760 -0.6638
  103MOL0     N13787   9.853   3.870   1.504  0.0344 -0.0283 -0.1208
  103MOL0     C13788   9.762   3.927   1.428 -0.5640 -0.0944 -0.1074
  103MOL0     C13789   9.814   4.046   1.379 -0.1554  1.0230 -0.4220
  103MOL0     C13790   9.737   4.148   1.295  0.5076  0.7275  0.8243
  103MOL0     C13791   9.807   4.174   1.158  0.1346  0.4776 -0.1550
  103MOL0     C13792   9.834   4.048   1.070  0.8186 -0.3839 -0.5767
  103MOL0     C13793   9.917   4.079   0.945  0.5209  0.7445 -0.2029
  103MOL0     O13794  10.008   4.193   0.944 -0.5585  0.2656 -0.5525
  103MOL0     C13795  10.100   4.171   0.846 -0.0136 -0.1914 -0.1593
  103MOL0     C13796  10.071   4.177   0.709  0.8595 -0.3431  0.6319
  103MOL0     C13797  10.171   4.165   0.609  0.1031 -0.3524 -1.3654
  103MOL0     C13798  10.307   4.145   0.642 -0.3499 -0.3883  0.3308
  103MOL0     C13799  10.410   4.105   0.543  0.5076  0.1605  0.9995
  103MOL0     O13800  10.535   4.086   0.595  0.0637  0.2137 -0.7218
  103MOL0     C13801  10.632   4.042   0.511  1.0554  0.2260  0.5872
  103MOL0     C13802  10.713   4.119   0.435 -0.1998 -0.2601 -0.3470
  103MOL0     C13803  10.801   4.058   0.341  0.0723  0.4272  0.3261
  103MOL0     C13804  10.806   3.922   0.322 -0.4592  1.1495 -0.1985
  103MOL0     O13805  10.889   3.847   0.230 -0.9095 -0.3261  0.4929
  103MOL0     C13806  10.928   3.912   0.109 -0.2887 -0.4171  0.1456
  103MOL0     C13807  11.036   3.815   0.038 -0.9447  0.8171 -0.6646
  103MOL0     C13808  10.981   3.667   0.004 -0.1702 -0.0748 -0.6666
  103MOL0     C13809  11.079   3.598  -0.091 -0.2632 -0.1903  0.2675
  103MOL0     C13810  11.114   3.461  -0.053 -0.3670  0.6572  0.2482
  103MOL0     C13811  11.215   3.384  -0.147 -0.5369 -0.7365 -0.0677
  103MOL0     C13812  11.233   3.238  -0.111  0.1421 -0.0601 -0.2497
  103MOL0     C13813  11.277   3.210   0.033 -0.4195  0.2916  0.6290
  103MOL0    Cl13814  11.408   3.316   0.092  0.2525 -0.2358  0.5923
  103MOL0     C13815  10.713   3.838   0.398  0.7128  0.5752 -0.5417
  103MOL0     C13816  10.637   3.900   0.489  0.8095 -0.1900 -1.0823
  103MOL0     O13817  10.373   4.078   0.427  0.1046  0.6370 -0.1427
  103MOL0     C13818  10.330   4.137   0.782 -0.8299  0.0815 -0.5010
  103MOL0     C13819  10.230   4.143   0.881  0.8046  0.4241  0.4182
  103MOL0     N13820   9.945   4.044   1.427 -0.1394  0.4151  0.3032
  103MOL0     N13821   9.967   3.939   1.499 -0.5008  0.2312  0.0240
  103MOL0     C13822   8.668   3.382   1.637  1.0826  0.0062 -0.1526
  103MOL0     C13823   8.524   3.387   1.626 -0.7291  0.0905 -0.4990
  103MOL0     C13824   8.147   3.389   1.705  0.2223  0.2218 -0.5302
  103MOL0     C13825   8.185   3.383   1.838  0.1057 -0.1924 -0.5106
  103MOL0     C13826   8.096   3.346   1.941  0.2819 -0.1540  0.6251
  103MOL0     C13827   7.961   3.324   1.919 -0.3426  0.1307 -0.0354
  103MOL0     O13828   7.882   3.300   2.023  0.5284 -0.0248 -0.5359
  103MOL0     C13829   7.824   3.177   2.041  0.0313 -0.2223 -0.1594
  103MOL0     C13830   7.760   3.165   2.177 -0.2056 -0.2296 -0.1660
  103MOL0     C13831   7.657   3.279   2.196 -0.0675  0.3497 -0.6654
  103MOL0     C13832   7.596   3.285   2.343 -0.5596  0.0439  0.2479
  103MOL0     C13833   7.526   3.164   2.372  0.7248  0.6547 -0.2447
  103MOL0     C13834   7.465   3.059   2.386 -0.0128  0.0809 -0.3986
  103MOL0     C13835   7.919   3.321   1.789  0.1124  0.4860  0.1644
  103MOL0     C13836   8.014   3.353   1.687  0.2674  0.7175 -0.4888
  103MOL0     C13837   7.951   3.363   1.551  0.3415 -0.3111 -0.7873
  103MOL0     H13838   8.483   3.715   1.694 -4.3917 -2.2591  2.2655
  103MOL0     H13839   8.732   3.722   1.682  1.5105 -0.6928 -0.8280
  103MOL0     H13840   8.930   3.671   1.537 -2.5359 -2.7759  0.1310
  103MOL0     H13841   8.942   3.673   1.719 -1.1032 -1.9240  1.6682
  103MOL0     H13842   9.111   3.509   1.534 -0.0659  1.5413 -0.4571
  103MOL0     H13843   9.127   3.514   1.710  2.5053  0.0145 -1.1550
  103MOL0     H13844   9.200   3.748   1.691  0.8339  1.0157  0.1975
  103MOL0     H13845   9.203   3.740   1.514  0.2230 -1.1417  0.3093
  103MOL0     H13846   9.345   3.525   1.680 -2.9315  2.1424  3.7631
  103MOL0     H13847   9.369   3.562   1.508 -2.0467  0.7953  0.5376
  103MOL0     H13848   9.437   3.807   1.594  0.1271 -0.0178  0.3676
  103MOL0     H13849   9.472   3.706   1.746  0.1952 -0.0734 -0.1629
  103MOL0     H13850   9.598   3.542   1.588  2.3837 -0.2332 -0.1325
  103MOL0     H13851   9.580   3.680   1.471 -1.1190 -2.1708 -0.5270
  103MOL0     H13852   9.731   3.648   1.736  0.4212 -2.7727 -1.7419
  103MOL0     H13853   9.681   3.806   1.703  0.5208  0.3303 -0.6819
  103MOL0     H13854   9.916   3.712   1.627 -0.1206 -1.5757 -0.3710
  103MOL0     H13855   9.832   3.646   1.496 -1.2945 -2.2033  1.5817
  103MOL0     H13856   9.666   3.884   1.402  0.4042 -1.0950 -2.2739
  103MOL0     H13857   9.635   4.110   1.283 -0.8058  2.0064  5.7623
  103MOL0     H13858   9.727   4.244   1.348  1.6893 -0.2048  2.8284
  103MOL0     H13859   9.746   4.252   1.111 -0.9655 -0.3409 -0.1069
  103MOL0     H13860   9.898   4.229   1.185 -0.2508  0.2861  1.6544
  103MOL0     H13861   9.734   4.016   1.040  1.0203 -0.7876 -0.8313
  103MOL0     H13862   9.886   3.972   1.130  1.9577 -0.0199 -1.0654
  103MOL0     H13863   9.837   4.103   0.875 -1.8320 -1.8831  1.3566
  103MOL0     H13864   9.978   3.990   0.927 -1.0254 -1.0397  2.5189
  103MOL0     H13865   9.969   4.198   0.677  0.8400 -1.1022  0.1667
  103MOL0     H13866  10.144   4.173   0.504  0.1991  1.8071 -1.2666
  103MOL0     H13867  10.712   4.226   0.455  1.6318 -0.2814 -0.0030
  103MOL0     H13868  10.869   4.122   0.287 -2.7528  1.2147 -2.5905
  103MOL0     H13869  10.849   3.938   0.038  1.1064  0.7815 -1.0307
  103MOL0     H13870  10.991   3.999   0.130  4.8223 -3.1907 -1.6910
  103MOL0     H13871  11.073   3.862  -0.054 -0.4448  0.3189 -0.7275
  103MOL0     H13872  11.125   3.801   0.100  0.1360 -0.9730 -2.4926
  103MOL0     H13873  10.966   3.601   0.090  2.9241 -2.3157 -1.6836
  103MOL0     H13874  10.883   3.676  -0.043  0.6141 -0.7948 -2.5125
  103MOL0     H13875  11.172   3.651  -0.066  0.2205 -1.0418  0.3149
  103MOL0     H13876  11.059   3.614  -0.198 -0.0418 -4.1327 -0.4912
  103MOL0     H13877  11.018   3.410  -0.058  0.6392 -1.4601  1.2600
  103MOL0     H13878  11.154   3.458   0.049  2.1011 -0.5142 -0.6690
  103MOL0     H13879  11.184   3.399  -0.251  2.2963  0.6944 -0.7873
  103MOL0     H13880  11.314   3.429  -0.136 -0.6763  0.0174 -1.6782
  103MOL0     H13881  11.297   3.197  -0.190  0.6236  1.7586 -0.8373
  103MOL0     H13882  11.137   3.188  -0.129  1.8643 -4.2626  0.8836
  103MOL0     H13883  11.193   3.215   0.103 -1.2899 -0.6701 -0.3223
  103MOL0     H13884  11.304   3.104   0.035  1.4227  0.6797 -0.9047
  103MOL0     H13885  10.700   3.732   0.378  1.4204 -0.0998  2.1344
  103MOL0     H13886  10.564   3.846   0.547  1.4423  0.0475 -0.0452
  103MOL0     H13887  10.430   4.114   0.817 -0.3344 -0.0955 -1.9401
  103MOL0     H13888  10.246   4.145   0.989 -0.3606 -2.4568  0.7364
  103MOL0     H13889   8.728   3.292   1.623  0.9586 -1.0814  4.6803
  103MOL0     H13890   8.474   3.290   1.622 -0.4277 -0.0842 -0.0330
  103MOL0     H13891   8.285   3.418   1.865  1.1413 -1.7868 -2.0729
  103MOL0     H13892   8.137   3.332   2.041 -0.2365  0.2373  0.8949
  103MOL0     H13893   7.895   3.094   2.035 -2.9483 -3.1900  1.8078
  103MOL0     H13894   7.758   3.163   1.955 -0.1270  4.1913 -0.9634
  103MOL0     H13895   7.835   3.174   2.255 -1.2200  0.6846  0.7329
  103MOL0     H13896   7.721   3.063   2.184  0.9607 -0.7925 -1.3493
  103MOL0     H13897   7.565   3.266   2.138 -0.0567  1.5676 -0.9782
  103MOL0     H13898   7.698   3.379   2.185 -0.8657  0.8012  0.3325
  103MOL0     H13899   7.679   3.294   2.413  0.1691  2.6609 -0.8331
  103MOL0     H13900   7.532   3.373   2.355 -0.3199  0.0117  1.8680
  103MOL0     H13901   7.406   2.970   2.393  0.1817  0.0488  1.0706
  103MOL0     H13902   7.817   3.301   1.759  0.0454  0.1647  0.5937
  103MOL0     H13903   7.870   3.291   1.541  1.7099 -1.7508 -1.9442
  103MOL0     H13904   7.921   3.468   1.537 -2.5650 -0.1872  3.9837
  103MOL0     H13905   8.016   3.335   1.468  0.6978 -1.4666 -0.1400
  104MOL0     O13906   1.191   6.286   7.621 -1.1458  0.5967  0.2366
  104MOL0     C13907   1.082   6.326   7.649  0.0868 -0.9362 -0.0692
  104MOL0     O13908   1.043   6.463   7.635  1.2650 -0.4056  0.3639
  104MOL0     C13909   1.141   6.559   7.669 -0.7498  0.6241 -0.5940
  104MOL0     C13910   1.223   6.559   7.789  0.4737  0.3710  1.3660
  104MOL0     C13911   1.308   6.668   7.811 -0.3517  0.5490 -0.2968
  104MOL0     C13912   1.321   6.776   7.722  0.3096 -0.3108 -0.7218
  104MOL0     O13913   1.418   6.870   7.738 -0.2284 -1.0083  0.1128
  104MOL0     C13914   1.553   6.837   7.716 -0.1029  0.0542  0.2295
  104MOL0     C13915   1.645   6.913   7.813  0.4069  0.1775 -0.6202
  104MOL0     C13916   1.792   6.868   7.799 -0.3579  1.0214  0.1337
  104MOL0     C13917   1.880   6.940   7.900 -0.6029  1.1026 -0.3725
  104MOL0     C13918   1.846   6.937   8.051  0.0458 -0.0446 -0.7763
  104MOL0     C13919   1.864   6.801   8.116 -0.2053  0.4523 -0.0530
  104MOL0     C13920   2.017   6.786   8.162 -1.2231  0.1842  0.4072
  104MOL0     C13921   2.076   6.885   8.258  0.3334 -0.0138  0.6144
  104MOL0     N13922   2.207   6.834   8.310 -0.1334 -0.6654 -0.3621
  104MOL0     C13923   2.324   6.867   8.251 -0.3885  0.2192  0.0884
  104MOL0     C13924   2.412   6.805   8.334 -0.0084  0.3366 -0.1712
  104MOL0     C13925   2.557   6.824   8.314 -0.1957 -0.3971  0.6853
  104MOL0     C13926   2.631   6.829   8.444  0.2977  0.4401 -0.4921
  104MOL0     C13927   2.784   6.855   8.430 -0.7691  0.4374 -0.7914
  104MOL0     C13928   2.866   6.738   8.382  0.5802  0.0026 -0.3538
  104MOL0     O13929   2.992   6.781   8.330 -0.2553  0.5686 -1.0305
  104MOL0     C13930   3.082   6.679   8.291  0.2813  0.0656 -0.1461
  104MOL0     C13931   3.192   6.713   8.210  0.1467 -0.5513  0.6405
  104MOL0     C13932   3.292   6.622   8.175 -0.2758  0.2180 -0.2608
  104MOL0     C13933   3.291   6.497   8.235 -0.4975  0.1383 -0.3455
  104MOL0     C13934   3.410   6.417   8.217 -0.3070  0.8526 -0.3901
  104MOL0     O13935   3.529   6.467   8.176  0.4047 -0.3427  0.5907
  104MOL0     C13936   3.636   6.380   8.178  0.1276 -0.2058  0.0532
  104MOL0     C13937   3.664   6.287   8.279  0.4198 -0.4306  0.2122
  104MOL0     C13938   3.777   6.202   8.268 -1.0490 -0.7462  0.3470
  104MOL0     C13939   3.877   6.231   8.168  0.7786  0.2989  0.6113
  104MOL0     O13940   3.996   6.169   8.153 -1.0214 -0.0975 -0.0328
  104MOL0     C13941   4.095   6.210   8.250  0.6153 -0.8376 -0.2051
  104MOL0     C13942   4.195   6.106   8.275 -0.1185  0.0381  0.7306
  104MOL0     C13943   4.289   6.138   8.397  0.2802 -0.1905  0.0745
  104MOL0     C13944   4.366   6.020   8.457 -0.4742 -0.4181  0.8981
  104MOL0     C13945   4.427   6.058   8.584  0.8792  0.5110 -0.1158
  104MOL0     C13946   4.503   5.939   8.654 -0.5742  0.0830  0.4279
  104MOL0     C13947   4.624   6.007   8.724 -0.1353 -0.9812  0.0192
  104MOL0     C13948   4.675   5.918   8.833  0.2523  0.8327  0.1917
  104MOL0    Cl13949   4.733   5.768   8.755  0.2913  0.0448 -0.1040
  104MOL0     C13950   3.847   6.327   8.074 -1.1806  0.4153  0.3071
  104MOL0     C13951   3.732   6.404   8.083 -0.3405 -0.0192  0.2920
  104MOL0     O13952   3.386   6.296   8.223 -0.3242 -0.3450  0.0174
  104MOL0     C13953   3.197   6.456   8.328  0.5968 -0.2771 -0.1550
  104MOL0     C13954   3.086   6.544   8.344  0.2613 -0.0136  0.5459
  104MOL0     N13955   2.352   6.749   8.441  0.5823 -0.6463  0.1669
  104MOL0     N13956   2.226   6.768   8.425  0.6862 -0.1264 -0.4773
  104MOL0     C13957   1.247   6.774   7.607 -0.3028 -0.0520  0.7964
  104MOL0     C13958   1.151   6.669   7.586  0.5460 -0.1853  0.3187
  104MOL0     C13959   0.973   6.233   7.672  0.7777 -0.1470 -0.6542
  104MOL0     C13960   0.851   6.282   7.632 -0.3593  0.7241  0.1533
  104MOL0     C13961   0.746   6.188   7.631 -0.6029  0.0763  0.7450
  104MOL0     C13962   0.758   6.055   7.679  1.0058 -0.0031 -0.1168
  104MOL0     O13963   0.642   5.978   7.669  0.0048 -0.1312  0.4486
  104MOL0     C13964   0.666   5.841   7.657  1.6780 -0.4288  1.2731
  104MOL0     C13965   0.548   5.766   7.590 -0.0945  0.3431  0.4606
  104MOL0     C13966   0.589   5.741   7.441 -0.2461  0.1192 -0.4839
  104MOL0     C13967   0.576   5.872   7.353 -0.2026  0.6633  0.8327
  104MOL0     C13968   0.541   5.828   7.218  0.2401  0.3417  1.2967
  104MOL0     C13969   0.506   5.799   7.100 -0.1033  0.8215 -0.7380
  104MOL0     C13970   0.879   6.020   7.740  0.6920  0.5791 -0.9137
  104MOL0     C13971   0.987   6.107   7.730  0.3161 -0.6043  0.4592
  104MOL0     C13972   1.117   6.070   7.788 -0.2126  0.4987 -1.1843
  104MOL0     H13973   1.221   6.470   7.851 -0.0659 -2.6060 -2.5054
  104MOL0     H13974   1.380   6.659   7.892  0.4995 -2.4246 -1.2748
  104MOL0     H13975   1.573   6.730   7.728  1.2609 -0.1159 -2.7314
  104MOL0     H13976   1.559   6.863   7.610  3.4705 -0.2194  0.2280
  104MOL0     H13977   1.618   6.888   7.916 -0.2273 -1.1703 -1.0915
  104MOL0     H13978   1.634   7.020   7.789 -0.3931  0.2867  0.1909
  104MOL0     H13979   1.827   6.891   7.697 -2.8103 -0.8068 -1.2289
  104MOL0     H13980   1.785   6.764   7.831 -2.9449  1.8907  2.7527
  104MOL0     H13981   1.983   6.907   7.884  0.1680  1.8241  2.6306
  104MOL0     H13982   1.890   7.047   7.880  1.3573  0.9801 -0.1972
  104MOL0     H13983   1.904   7.008   8.112  1.0042  0.0192 -1.7311
  104MOL0     H13984   1.743   6.968   8.071  0.1006 -0.4329  0.1589
  104MOL0     H13985   1.800   6.788   8.203 -0.5546  0.4734 -0.3074
  104MOL0     H13986   1.850   6.723   8.041 -2.3414  0.3155  0.4278
  104MOL0     H13987   2.081   6.775   8.074 -1.3962 -0.3924  0.3518
  104MOL0     H13988   2.022   6.687   8.208 -0.0166 -0.9586 -1.9916
  104MOL0     H13989   2.090   6.987   8.220  1.2390  0.1641  1.3779
  104MOL0     H13990   1.995   6.898   8.330 -0.3870 -1.1879  0.0285
  104MOL0     H13991   2.339   6.921   8.159  0.7198 -0.4205 -0.1275
  104MOL0     H13992   2.589   6.739   8.253 -0.5125 -1.2101  1.6158
  104MOL0     H13993   2.571   6.917   8.258  2.1145 -0.3272  1.2834
  104MOL0     H13994   2.584   6.905   8.507 -0.6161  0.4114 -1.1238
  104MOL0     H13995   2.617   6.729   8.487 -1.6830 -0.5078 -3.0518
  104MOL0     H13996   2.824   6.897   8.522 -2.2700  0.8693 -0.3040
  104MOL0     H13997   2.785   6.929   8.349 -3.1142 -0.9506 -2.2121
  104MOL0     H13998   2.814   6.673   8.312 -0.4305  0.4966 -0.0744
  104MOL0     H13999   2.881   6.671   8.468 -2.8469 -1.9837 -1.1201
  104MOL0     H14000   3.199   6.816   8.177  0.7771  0.0347  2.4904
  104MOL0     H14001   3.367   6.653   8.103  1.0093 -0.8616  0.5499
  104MOL0     H14002   3.599   6.262   8.363  1.7970 -1.1943  1.0817
  104MOL0     H14003   3.795   6.124   8.341  1.0557  3.4061  4.8519
  104MOL0     H14004   4.149   6.294   8.206 -2.9895  0.6899 -2.2621
  104MOL0     H14005   4.047   6.247   8.341  1.4324 -1.7095  0.5956
  104MOL0     H14006   4.144   6.018   8.315 -1.6682  1.4103  1.8946
  104MOL0     H14007   4.248   6.090   8.181 -1.5226 -1.6397  0.1749
  104MOL0     H14008   4.358   6.220   8.377 -0.7203  0.9267  1.0682
  104MOL0     H14009   4.212   6.167   8.469  1.6476  0.7043  1.2405
  104MOL0     H14010   4.432   5.975   8.382 -0.4452  2.0061 -0.6668
  104MOL0     H14011   4.284   5.949   8.474  0.9094 -1.8429  1.8573
  104MOL0     H14012   4.356   6.101   8.655 -0.1839 -0.7576 -0.3517
  104MOL0     H14013   4.507   6.127   8.557  1.0219 -0.4030 -2.2578
  104MOL0     H14014   4.448   5.880   8.728  2.0077 -1.9127  0.9061
  104MOL0     H14015   4.537   5.866   8.580 -1.6475  1.5352 -1.6162
  104MOL0     H14016   4.591   6.101   8.769 -3.4532 -1.3511 -1.3002
  104MOL0     H14017   4.705   6.017   8.651 -1.2514  1.0888 -1.0426
  104MOL0     H14018   4.762   5.968   8.877  0.7617  1.8166 -1.8042
  104MOL0     H14019   4.598   5.898   8.908 -0.8132  0.7788 -0.8957
  104MOL0     H14020   3.917   6.348   7.994 -1.2066  1.2732  0.5023
  104MOL0     H14021   3.710   6.481   8.010  0.4133  3.4121  3.3644
  104MOL0     H14022   3.184   6.358   8.373 -1.4406 -0.0153 -0.0873
  104MOL0     H14023   3.007   6.516   8.414 -2.2932 -0.5535 -2.3373
  104MOL0     H14024   1.254   6.862   7.543 -1.3697 -0.6421 -0.1648
  104MOL0     H14025   1.089   6.665   7.497  1.8864 -0.6838 -0.6362
  104MOL0     H14026   0.830   6.386   7.607 -1.8788  0.3239 -0.3752
  104MOL0     H14027   0.653   6.233   7.597 -0.5718 -0.9807 -0.8136
  104MOL0     H14028   0.680   5.796   7.756  1.9288 -1.0035  0.9810
  104MOL0     H14029   0.759   5.823   7.601  1.1013 -1.4988  0.6288
  104MOL0     H14030   0.450   5.816   7.592 -1.8046 -2.7350  0.6715
  104MOL0     H14031   0.543   5.672   7.647 -2.2141 -0.2424 -0.5839
  104MOL0     H14032   0.513   5.670   7.407 -0.5256  0.8906 -1.5168
  104MOL0     H14033   0.691   5.702   7.429  0.4984  1.4958  1.0022
  104MOL0     H14034   0.484   5.923   7.384 -1.3869 -2.0872  2.1922
  104MOL0     H14035   0.665   5.935   7.348  0.6710 -0.5803  0.0340
  104MOL0     H14036   0.475   5.772   7.001 -1.9926 -0.0875  0.0574
  104MOL0     H14037   0.904   5.930   7.796 -1.0591  0.6955  0.1147
  104MOL0     H14038   1.158   6.007   7.708 -1.6758 -1.8195 -0.2079
  104MOL0     H14039   1.192   6.148   7.805  1.3091 -1.0613 -0.4867
  104MOL0     H14040   1.105   6.004   7.874 -0.5727  2.7554  0.5820
  105MOL0     O14041  10.257   4.517   6.405 -0.1143 -0.3654 -0.0569
  105MOL0     C14042  10.298   4.630   6.417 -0.1770 -0.5360  0.4436
  105MOL0     O14043  10.271   4.736   6.336 -0.0224 -0.7059 -0.2404
  105MOL0     C14044  10.208   4.713   6.210  0.0526  0.6487 -0.5159
  105MOL0     C14045  10.234   4.613   6.123 -0.1438 -0.3257 -0.0803
  105MOL0     C14046  10.157   4.581   6.010  0.1479  0.2934  0.4785
  105MOL0     C14047  10.046   4.663   5.986 -0.0101  0.3529  0.0856
  105MOL0     O14048   9.965   4.611   5.883  0.0500  0.2783  0.8176
  105MOL0     C14049   9.843   4.678   5.857  0.9455  0.2022 -0.1722
  105MOL0     C14050   9.754   4.597   5.764  0.5048  0.1790 -0.1666
  105MOL0     C14051   9.797   4.627   5.613  0.5504 -0.1644  0.2052
  105MOL0     C14052   9.688   4.619   5.503  0.1870  0.4657  0.5137
  105MOL0     C14053   9.748   4.603   5.361 -0.3854  0.8302 -0.7004
  105MOL0     C14054   9.632   4.560   5.271  0.4341  0.6283  0.2296
  105MOL0     C14055   9.586   4.415   5.289 -0.4390 -1.2276 -0.1120
  105MOL0     C14056   9.674   4.307   5.228 -0.4346 -0.6789 -0.9996
  105MOL0     N14057   9.804   4.285   5.288 -1.6301  0.3116  0.5584
  105MOL0     C14058   9.925   4.305   5.222  0.2718 -0.2982  1.1597
  105MOL0     C14059  10.013   4.276   5.305  0.3182 -0.2442  0.7017
  105MOL0     C14060  10.156   4.296   5.276  0.4540  0.0406 -0.3573
  105MOL0     C14061  10.254   4.224   5.373 -0.1888 -0.6753  0.0959
  105MOL0     C14062  10.247   4.076   5.352  0.0287  0.0591 -0.4979
  105MOL0     C14063  10.329   4.012   5.459 -0.7747  0.4899 -0.2165
  105MOL0     O14064  10.469   4.042   5.435 -0.5156 -0.1261  0.1157
  105MOL0     C14065  10.564   4.011   5.533  0.4128  1.2451  0.1168
  105MOL0     C14066  10.695   4.061   5.516 -0.3806  0.5342 -0.7896
  105MOL0     C14067  10.811   4.028   5.585  0.4529 -0.5548 -0.7052
  105MOL0     C14068  10.797   3.930   5.684  0.1628  0.0130 -0.0167
  105MOL0     C14069  10.917   3.874   5.758 -0.0771  0.4625 -0.5446
  105MOL0     O14070  10.899   3.777   5.858 -0.2714 -0.0801 -0.0250
  105MOL0     C14071  11.010   3.718   5.917 -0.1547  0.0344  0.0238
  105MOL0     C14072  11.090   3.783   6.017  0.2214  0.4096 -0.5014
  105MOL0     C14073  11.202   3.720   6.080 -0.4638 -0.3071 -0.1271
  105MOL0     C14074  11.216   3.581   6.063 -0.0186 -0.4735 -0.0155
  105MOL0     O14075  11.307   3.499   6.122 -0.6526 -0.2361 -0.2888
  105MOL0     C14076  11.436   3.504   6.076  0.6940  0.4756 -0.5553
  105MOL0     C14077  11.541   3.486   6.192  0.2022  0.7179  0.9038
  105MOL0     C14078  11.561   3.605   6.280 -1.4727 -0.2089  0.5532
  105MOL0     C14079  11.687   3.572   6.370  0.3142 -0.0637  0.5341
  105MOL0     C14080  11.712   3.702   6.448 -0.6297 -0.3135  0.0738
  105MOL0     C14081  11.838   3.697   6.539 -0.1173 -0.1068  0.4353
  105MOL0     C14082  11.831   3.588   6.656  0.2976 -0.0567 -0.1931
  105MOL0     C14083  11.959   3.567   6.725  0.1601  1.0124 -0.6335
  105MOL0    Cl14084  12.060   3.442   6.653  0.6208 -0.3000 -0.1164
  105MOL0     C14085  11.130   3.521   5.969 -0.4185 -0.2292  0.3578
  105MOL0     C14086  11.037   3.588   5.898  0.7291  0.8144 -0.1412
  105MOL0     O14087  11.027   3.924   5.736 -0.0848  0.5013 -0.4919
  105MOL0     C14088  10.668   3.870   5.702 -0.3974  0.3443 -0.8677
  105MOL0     C14089  10.551   3.910   5.631  1.1971  0.7601  0.0986
  105MOL0     N14090   9.955   4.238   5.425 -0.3156  0.1356 -0.8911
  105MOL0     N14091   9.831   4.247   5.414  0.4039  0.0669 -0.7800
  105MOL0     C14092  10.020   4.772   6.071  0.2117 -0.5722 -0.1577
  105MOL0     C14093  10.106   4.792   6.182 -0.2075 -0.9419  0.6872
  105MOL0     C14094  10.395   4.655   6.535  0.2640  0.0335 -0.2657
  105MOL0     C14095  10.488   4.758   6.531  0.5249  0.1586  0.0887
  105MOL0     C14096  10.566   4.794   6.633 -0.4731 -0.5032 -1.5947
  105MOL0     C14097  10.559   4.733   6.756 -0.1336  0.5925 -0.0348
  105MOL0     O14098  10.638   4.785   6.856  0.7776  0.5454  0.3906
  105MOL0     C14099  10.656   4.704   6.973 -0.8687  0.4643 -0.1177
  105MOL0     C14100  10.808   4.707   7.010 -0.2820  0.3930 -0.2779
  105MOL0     C14101  10.865   4.843   7.044  0.4238 -0.5169 -0.1450
  105MOL0     C14102  11.014   4.841   7.097 -1.0295 -0.2895  0.8673
  105MOL0     C14103  11.031   4.775   7.223  1.0721 -0.0696 -0.1226
  105MOL0     C14104  11.049   4.724   7.328  0.5093  0.4145 -0.2711
  105MOL0     C14105  10.479   4.623   6.761  0.5178 -0.8330  0.2654
  105MOL0     C14106  10.396   4.589   6.658 -0.4106  0.3237 -0.0019
  105MOL0     C14107  10.319   4.467   6.680 -0.2475 -0.1916 -0.1378
  105MOL0     H14108  10.325   4.566   6.158  0.1451  1.4689  1.7434
  105MOL0     H14109  10.192   4.504   5.941 -1.8770 -1.3075  1.1246
  105MOL0     H14110   9.773   4.696   5.939 -0.2371  1.0794 -1.3172
  105MOL0     H14111   9.865   4.773   5.808  0.7659 -0.2532 -1.1649
  105MOL0     H14112   9.655   4.641   5.774  0.7904  0.9094 -0.4753
  105MOL0     H14113   9.749   4.489   5.782 -2.1727  0.4694  1.2121
  105MOL0     H14114   9.880   4.558   5.592 -0.8206 -2.2619  1.2688
  105MOL0     H14115   9.835   4.729   5.618  0.2405 -0.0831  1.0448
  105MOL0     H14116   9.613   4.542   5.524  0.8406 -1.5539 -3.4994
  105MOL0     H14117   9.628   4.711   5.497 -0.9391 -0.2424  0.6755
  105MOL0     H14118   9.794   4.699   5.336 -1.4964  2.2012  2.0773
  105MOL0     H14119   9.826   4.526   5.368  1.1258  2.4806  2.2844
  105MOL0     H14120   9.550   4.630   5.286  0.5797  1.5260 -2.6567
  105MOL0     H14121   9.656   4.566   5.165  0.3876 -2.2293 -0.0310
  105MOL0     H14122   9.488   4.404   5.242 -2.9257  5.6724  2.2441
  105MOL0     H14123   9.570   4.402   5.396  1.5139 -0.9012  0.2628
  105MOL0     H14124   9.610   4.219   5.234 -0.0637 -0.8255  1.3828
  105MOL0     H14125   9.689   4.331   5.122 -0.3322  1.2964 -0.5826
  105MOL0     H14126   9.942   4.349   5.124  3.8142  1.1971  2.2972
  105MOL0     H14127  10.170   4.253   5.176  0.0730 -0.3568 -0.2441
  105MOL0     H14128  10.180   4.403   5.273 -2.4466  0.7471 -1.0922
  105MOL0     H14129  10.353   4.260   5.346 -1.3163  0.3191 -3.0998
  105MOL0     H14130  10.227   4.254   5.475 -0.7921 -0.8911  0.0023
  105MOL0     H14131  10.293   4.061   5.254  1.8422  0.8478  0.1838
  105MOL0     H14132  10.148   4.031   5.356  1.7687 -4.0757  1.1684
  105MOL0     H14133  10.316   3.903   5.450  0.1351  0.2925  0.7059
  105MOL0     H14134  10.306   4.032   5.564  1.7235 -1.4517  0.8285
  105MOL0     H14135  10.703   4.133   5.434  1.7854  1.0949 -0.1552
  105MOL0     H14136  10.903   4.081   5.562  0.8784 -0.7443  0.4581
  105MOL0     H14137  11.075   3.888   6.037  0.9301  0.9183 -2.4245
  105MOL0     H14138  11.267   3.770   6.151  0.1140 -1.8021  0.4256
  105MOL0     H14139  11.448   3.430   5.997  0.5788 -1.5579  1.2472
  105MOL0     H14140  11.457   3.601   6.030  0.6152  0.6414 -0.2424
  105MOL0     H14141  11.498   3.407   6.254  0.2534  0.5222  0.6909
  105MOL0     H14142  11.632   3.448   6.144 -0.9622  2.0921 -2.7154
  105MOL0     H14143  11.578   3.696   6.222  0.1200  0.5616  2.1189
  105MOL0     H14144  11.470   3.621   6.338 -2.3296  0.0131 -0.8185
  105MOL0     H14145  11.768   3.544   6.302  2.1902  2.3200  1.6607
  105MOL0     H14146  11.656   3.482   6.425 -0.2434 -1.0875 -1.3643
  105MOL0     H14147  11.625   3.729   6.508  0.6281 -1.3680  2.5215
  105MOL0     H14148  11.737   3.777   6.372 -0.0353 -1.0452 -0.4701
  105MOL0     H14149  11.925   3.670   6.479 -1.1828 -0.7770 -0.8667
  105MOL0     H14150  11.843   3.801   6.575  1.4410 -0.3684  1.0250
  105MOL0     H14151  11.816   3.486   6.621  0.4723 -0.1983  0.1457
  105MOL0     H14152  11.757   3.624   6.729 -1.0751  0.7605 -1.8960
  105MOL0     H14153  12.012   3.663   6.732 -0.9227  1.5908 -0.0921
  105MOL0     H14154  11.949   3.523   6.824 -4.1472 -1.9298 -2.0431
  105MOL0     H14155  11.139   3.417   5.937  1.4718  1.1085 -4.3817
  105MOL0     H14156  11.005   3.533   5.809 -0.3730 -0.2513  0.8807
  105MOL0     H14157  10.661   3.785   5.770 -1.4416  0.2535 -1.0628
  105MOL0     H14158  10.458   3.855   5.643  0.4284  1.9197 -0.3627
  105MOL0     H14159   9.945   4.848   6.050  0.0864 -0.8422 -0.7123
  105MOL0     H14160  10.099   4.871   6.256 -0.4387 -0.3236  0.0204
  105MOL0     H14161  10.494   4.821   6.443 -0.2446  0.0096 -0.0773
  105MOL0     H14162  10.647   4.866   6.626 -0.8273  0.0089 -0.6102
  105MOL0     H14163  10.625   4.599   6.968 -1.4416  0.6678 -1.0229
  105MOL0     H14164  10.593   4.755   7.046  0.0406 -0.1085  1.1053
  105MOL0     H14165  10.856   4.656   6.926 -0.7241 -0.0092 -0.2963
  105MOL0     H14166  10.820   4.641   7.096  1.5836  3.2254  1.7965
  105MOL0     H14167  10.808   4.895   7.121  1.3475 -0.0820  0.2739
  105MOL0     H14168  10.870   4.911   6.958 -0.3020  0.1908  0.3556
  105MOL0     H14169  11.070   4.780   7.024 -4.5397 -2.3683 -0.3221
  105MOL0     H14170  11.063   4.938   7.103 -3.1557  0.9484 -0.7385
  105MOL0     H14171  11.060   4.677   7.424 -0.4488 -0.0491 -0.3679
  105MOL0     H14172  10.470   4.568   6.854  0.0480  0.0619  0.7703
  105MOL0     H14173  10.211   4.478   6.685 -0.2243 -0.2950  0.7660
  105MOL0     H14174  10.345   4.396   6.600  3.3465 -1.1981  1.7151
  105MOL0     H14175  10.334   4.426   6.780 -1.2485 -0.1031  0.0556
  106MOL0     O14176   9.752  11.125   1.689  1.1182  0.5866 -0.2004
  106MOL0     C14177   9.763  11.132   1.814  0.5404 -0.7628  0.6546
  106MOL0     O14178   9.860  11.209   1.880 -0.2484  0.9366  0.1325
  106MOL0     C14179   9.981  11.240   1.815 -0.3391 -0.5069 -0.1985
  106MOL0     C14180  10.035  11.164   1.710  0.6706  0.0747 -0.1294
  106MOL0     C14181  10.162  11.190   1.660 -0.3804 -0.1733 -0.3027
  106MOL0     C14182  10.234  11.304   1.710 -0.3376  0.2691 -0.1245
  106MOL0     O14183  10.355  11.323   1.654 -0.1465 -0.1658  0.0246
  106MOL0     C14184  10.455  11.393   1.726 -0.1517 -0.3486 -0.1843
  106MOL0     C14185  10.592  11.330   1.673  0.0391 -0.5641 -0.2633
  106MOL0     C14186  10.624  11.192   1.724  0.2652 -0.0776 -0.6746
  106MOL0     C14187  10.756  11.142   1.679  0.6683 -0.7242  0.6692
  106MOL0     C14188  10.785  11.021   1.754 -0.3840 -0.3458 -0.8400
  106MOL0     C14189  10.891  10.926   1.692 -1.0038  0.6704  0.8028
  106MOL0     C14190  11.027  10.992   1.674 -0.0151 -0.8215  0.6245
  106MOL0     C14191  11.132  10.885   1.648 -0.4754 -0.2059 -1.0238
  106MOL0     N14192  11.262  10.936   1.635 -0.2645 -0.0899  0.3347
  106MOL0     C14193  11.335  10.944   1.516  0.8987 -0.3959 -0.3803
  106MOL0     C14194  11.457  10.983   1.562  1.4761  0.5259 -0.3600
  106MOL0     C14195  11.582  10.993   1.483 -1.2096  0.7798  0.5937
  106MOL0     C14196  11.684  10.875   1.492  1.0258  0.1675  0.5083
  106MOL0     C14197  11.798  10.898   1.401  0.3542  0.2807  0.4830
  106MOL0     C14198  11.894  10.977   1.482  0.2000  0.4139  0.5833
  106MOL0     O14199  12.013  11.007   1.395  1.3544  0.2100 -0.9607
  106MOL0     C14200  12.125  11.036   1.460  0.1598  0.2433  0.2582
  106MOL0     C14201  12.134  11.057   1.605 -0.4180 -0.5208  0.3283
  106MOL0     C14202  12.256  11.062   1.672 -0.8921 -0.1834  1.0639
  106MOL0     C14203  12.368  11.017   1.608 -0.0136 -0.7917  1.1391
  106MOL0     C14204  12.502  11.007   1.669 -0.0164  0.1590 -0.2844
  106MOL0     O14205  12.598  10.942   1.592 -0.3461  0.1661  0.1456
  106MOL0     C14206  12.728  10.951   1.640 -1.1001 -0.2160 -0.6967
  106MOL0     C14207  12.819  10.994   1.541 -0.3955  0.9509 -0.1695
  106MOL0     C14208  12.958  11.007   1.560 -0.2453  0.2588 -0.8563
  106MOL0     C14209  13.004  10.971   1.685  0.1312 -0.0540  0.2697
  106MOL0     O14210  13.135  10.980   1.724 -1.0534 -0.2397  0.1640
  106MOL0     C14211  13.212  11.086   1.653 -0.3690  0.0952 -0.4631
  106MOL0     C14212  13.342  11.117   1.713 -0.0290  0.4834  0.3522
  106MOL0     C14213  13.434  10.993   1.688  0.0310  0.0441 -1.7585
  106MOL0     C14214  13.580  11.022   1.730 -0.0172  0.0055  0.0509
  106MOL0     C14215  13.627  10.891   1.795 -0.6031 -0.2603 -0.1831
  106MOL0     C14216  13.767  10.899   1.845 -0.3539 -0.5054 -1.3228
  106MOL0     C14217  13.870  10.915   1.736 -0.7085 -1.1702  0.7298
  106MOL0     C14218  14.018  10.908   1.794  0.0333 -0.8848  0.2042
  106MOL0    Cl14219  14.123  10.902   1.643  0.2692  0.2032 -0.1722
  106MOL0     C14220  12.916  10.925   1.782 -1.0659  1.1115  0.5883
  106MOL0     C14221  12.784  10.917   1.766 -0.5702  0.0424 -0.0626
  106MOL0     O14222  12.533  11.071   1.774  0.7315 -0.4038 -0.5758
  106MOL0     C14223  12.355  10.977   1.478 -0.9121  0.1356  0.5837
  106MOL0     C14224  12.246  10.997   1.392 -0.3872 -0.5701  0.0096
  106MOL0     N14225  11.453  11.011   1.695  0.3868 -0.6398 -0.0007
  106MOL0     N14226  11.330  10.985   1.740  0.1281  0.2244  0.2363
  106MOL0     C14227  10.179  11.381   1.816 -0.2453  0.3841  0.6907
  106MOL0     C14228  10.060  11.347   1.873  0.3772 -0.1645  0.4186
  106MOL0     C14229   9.660  11.078   1.901 -0.1704  0.6201 -0.9874
  106MOL0     C14230   9.694  11.047   2.029 -0.7462 -0.5599 -0.7744
  106MOL0     C14231   9.604  10.990   2.120  1.0269 -0.1051  0.6121
  106MOL0     C14232   9.478  10.952   2.076 -0.1342 -0.1562 -0.4948
  106MOL0     O14233   9.399  10.881   2.168 -0.0524 -0.3459 -0.6748
  106MOL0     C14234   9.350  10.757   2.122 -0.5548  0.7879  0.1061
  106MOL0     C14235   9.205  10.772   2.100  0.0282  0.5513 -0.1379
  106MOL0     C14236   9.120  10.849   2.205 -1.3864  0.5764  0.2432
  106MOL0     C14237   8.979  10.796   2.199  0.8747 -0.4167 -0.1305
  106MOL0     C14238   8.962  10.651   2.231 -0.0688 -0.2866 -0.0040
  106MOL0     C14239   8.939  10.538   2.268  0.5118 -0.0065  0.7319
  106MOL0     C14240   9.440  10.990   1.949 -0.1094 -0.2839  0.3368
  106MOL0     C14241   9.525  11.057   1.854 -0.4714  0.9084 -1.0107
  106MOL0     C14242   9.460  11.089   1.713 -0.2729  0.3424 -0.0643
  106MOL0     H14243   9.987  11.080   1.662 -1.9277  0.7166  1.1745
  106MOL0     H14244  10.203  11.122   1.587  0.7616 -0.5522  0.6724
  106MOL0     H14245  10.442  11.499   1.705 -1.5604 -0.8724 -2.2899
  106MOL0     H14246  10.449  11.377   1.834 -0.0233 -0.2721 -0.1666
  106MOL0     H14247  10.669  11.398   1.713 -0.7285 -1.2406  2.5797
  106MOL0     H14248  10.593  11.322   1.564  1.7214 -0.2381 -0.3035
  106MOL0     H14249  10.535  11.136   1.695 -0.2167  1.1532 -1.6590
  106MOL0     H14250  10.629  11.195   1.833  0.2736  0.5426 -0.6890
  106MOL0     H14251  10.755  11.112   1.574 -1.9352  0.3156  0.3171
  106MOL0     H14252  10.832  11.219   1.696 -0.9579  1.0265  0.4002
  106MOL0     H14253  10.808  11.050   1.856 -0.5045  1.2280 -1.2335
  106MOL0     H14254  10.691  10.966   1.755 -0.7701  0.3236  0.3343
  106MOL0     H14255  10.895  10.837   1.754  0.7868  0.7862  0.9106
  106MOL0     H14256  10.859  10.894   1.592  0.6500  2.1026 -0.2572
  106MOL0     H14257  11.040  11.052   1.765 -2.0025  0.2923  0.2299
  106MOL0     H14258  11.038  11.069   1.596  2.3502 -2.2980 -0.6418
  106MOL0     H14259  11.130  10.822   1.738  0.4935  0.2004 -0.7098
  106MOL0     H14260  11.099  10.828   1.560  0.6123  1.9887 -2.9525
  106MOL0     H14261  11.308  10.908   1.417  0.7103  0.0698 -0.5045
  106MOL0     H14262  11.549  11.005   1.379 -0.0001  1.6258  0.2844
  106MOL0     H14263  11.636  11.087   1.498  0.4929  0.3556 -2.2634
  106MOL0     H14264  11.704  10.858   1.598  0.7714  0.0077  0.5311
  106MOL0     H14265  11.634  10.785   1.454 -0.1721  1.8215 -2.1999
  106MOL0     H14266  11.760  10.955   1.316  1.2101 -1.1423 -0.9080
  106MOL0     H14267  11.838  10.803   1.366  1.1329 -0.4352  3.0567
  106MOL0     H14268  11.931  10.916   1.565  1.6673 -0.1225 -0.4099
  106MOL0     H14269  11.852  11.067   1.527 -1.9289  0.6328 -1.6519
  106MOL0     H14270  12.045  11.080   1.663 -1.0607 -1.5121 -0.2310
  106MOL0     H14271  12.267  11.092   1.776  3.5776 -1.2330  1.0792
  106MOL0     H14272  12.788  11.004   1.437  3.9577 -0.3024 -1.7909
  106MOL0     H14273  13.026  11.037   1.482  1.2676 -1.1053 -0.1462
  106MOL0     H14274  13.236  11.036   1.558 -2.9591 -0.0312 -1.1304
  106MOL0     H14275  13.164  11.181   1.631  1.2420  0.4328 -3.0252
  106MOL0     H14276  13.377  11.211   1.669 -0.4555  0.0685 -0.9260
  106MOL0     H14277  13.326  11.136   1.820 -0.1231  1.1985  0.2178
  106MOL0     H14278  13.400  10.909   1.748  1.7355  0.7252  0.2864
  106MOL0     H14279  13.440  10.966   1.583  2.1556  2.5420 -2.3867
  106MOL0     H14280  13.574  11.094   1.812 -3.9064  0.6073 -0.5871
  106MOL0     H14281  13.638  11.061   1.646 -0.3097 -0.5958 -0.4403
  106MOL0     H14282  13.620  10.811   1.721 -1.1480  0.7380 -1.2473
  106MOL0     H14283  13.560  10.870   1.879  0.3360  0.1511  0.6821
  106MOL0     H14284  13.770  10.986   1.912 -2.5797  0.7073 -2.6740
  106MOL0     H14285  13.778  10.802   1.894 -1.5900 -0.0442 -0.0484
  106MOL0     H14286  13.854  11.000   1.668  0.2193  0.1300  2.0548
  106MOL0     H14287  13.869  10.828   1.670  3.5761 -1.4126  0.7532
  106MOL0     H14288  14.048  10.997   1.851  1.1457 -0.5634 -0.8300
  106MOL0     H14289  14.017  10.820   1.858  1.0798 -0.3059  1.0669
  106MOL0     H14290  12.964  10.894   1.875 -1.8623 -0.7594  0.4066
  106MOL0     H14291  12.723  10.880   1.848 -1.0257  1.0057  0.0501
  106MOL0     H14292  12.439  10.938   1.420 -1.0656 -1.1674  1.1910
  106MOL0     H14293  12.248  10.965   1.289  1.7871 -2.3039  0.5025
  106MOL0     H14294  10.229  11.472   1.847  2.0173 -0.7543  0.6336
  106MOL0     H14295  10.014  11.396   1.958  2.0783 -0.7374  1.7265
  106MOL0     H14296   9.789  11.088   2.062 -2.2433  3.7983 -1.3656
  106MOL0     H14297   9.633  10.963   2.222  0.1190 -1.9824  0.4169
  106MOL0     H14298   9.382  10.693   2.205 -1.0808  0.7616  0.2879
  106MOL0     H14299   9.407  10.727   2.033  1.7533  1.5583  1.2364
  106MOL0     H14300   9.173  10.669   2.083  1.1392  0.6819 -3.6356
  106MOL0     H14301   9.186  10.816   2.002 -1.7748  1.1786  0.4354
  106MOL0     H14302   9.131  10.955   2.180  0.0956 -0.1185 -2.4384
  106MOL0     H14303   9.153  10.822   2.306 -1.3134  0.0759  0.0894
  106MOL0     H14304   8.917  10.853   2.270  2.6007 -0.4671  1.5149
  106MOL0     H14305   8.941  10.802   2.097  2.0756 -2.3614 -0.7343
  106MOL0     H14306   8.917  10.440   2.307 -0.1126 -0.1541  0.0373
  106MOL0     H14307   9.337  10.983   1.919 -0.4841  4.3430 -0.1841
  106MOL0     H14308   9.498  11.024   1.634  0.2856  1.5730 -0.8498
  106MOL0     H14309   9.351  11.083   1.711 -0.2516 -0.0238 -0.1474
  106MOL0     H14310   9.473  11.194   1.686 -0.5550  0.5818  0.7035
  107MOL0     O14311   5.228   1.094   0.826  0.0005 -0.5419  0.1633
  107MOL0     C14312   5.190   1.038   0.728  0.1349 -0.8717  0.6427
  107MOL0     O14313   5.260   1.015   0.615  0.7206  0.0133 -0.1614
  107MOL0     C14314   5.396   0.992   0.619  0.2196 -0.0496  0.9344
  107MOL0     C14315   5.485   0.987   0.730  1.0451  0.1849  0.5069
  107MOL0     C14316   5.622   0.970   0.711 -0.0564  0.3207 -0.2505
  107MOL0     C14317   5.682   0.943   0.584  0.3779 -0.5360 -1.3271
  107MOL0     O14318   5.815   0.936   0.582 -0.2775 -0.5632  0.0689
  107MOL0     C14319   5.894   0.903   0.470 -0.3766 -0.2141 -0.1116
  107MOL0     C14320   6.042   0.924   0.483  0.3526  0.0743 -0.3415
  107MOL0     C14321   6.099   0.869   0.609  0.3297 -0.3356 -0.2154
  107MOL0     C14322   6.253   0.879   0.616 -0.2118 -0.1791 -0.1958
  107MOL0     C14323   6.290   1.019   0.672  0.1214 -0.9077  1.7385
  107MOL0     C14324   6.444   1.051   0.679 -0.3904 -0.5177 -0.6390
  107MOL0     C14325   6.520   1.017   0.550 -0.0250  0.4542  1.1251
  107MOL0     C14326   6.668   1.022   0.573 -0.0042  0.3150 -0.6348
  107MOL0     N14327   6.752   0.999   0.455  0.2033 -0.0601 -0.9443
  107MOL0     C14328   6.862   1.071   0.425  0.7527  0.1949 -0.0950
  107MOL0     C14329   6.918   1.008   0.323 -0.1192  0.2836  1.0708
  107MOL0     C14330   7.024   1.060   0.232 -1.1056 -0.6910  0.1558
  107MOL0     C14331   6.984   1.085   0.084 -0.3807 -0.3074 -0.5088
  107MOL0     C14332   6.847   1.150   0.041 -0.5680 -0.3337  1.0335
  107MOL0     C14333   6.713   1.075   0.065 -0.3104 -0.0623 -0.0668
  107MOL0     O14334   6.614   1.168   0.044 -0.5102  0.0443  0.6721
  107MOL0     C14335   6.480   1.121   0.051  0.6925  0.5114 -0.5929
  107MOL0     C14336   6.445   0.985   0.090  0.2779  0.5794 -0.2807
  107MOL0     C14337   6.312   0.949   0.094 -0.2877  0.0977 -0.9733
  107MOL0     C14338   6.213   1.021   0.038 -0.0356 -1.0845 -0.2720
  107MOL0     C14339   6.070   0.959   0.034 -0.0008  0.0377  0.4438
  107MOL0     O14340   5.973   1.024  -0.036 -0.4261 -0.3288 -0.8066
  107MOL0     C14341   5.844   0.999   0.009 -0.2971  0.3811 -0.2648
  107MOL0     C14342   5.781   1.096   0.093 -0.8594 -0.0616 -0.3406
  107MOL0     C14343   5.647   1.075   0.134 -0.8695 -0.9000  0.4949
  107MOL0     C14344   5.568   0.966   0.093 -0.3287 -1.3979  0.4440
  107MOL0     O14345   5.433   0.955   0.113  0.6572 -0.5475  0.1014
  107MOL0     C14346   5.354   1.073   0.125  0.9937  0.3612  1.0341
  107MOL0     C14347   5.210   1.056   0.072  0.4902  0.1558  0.9402
  107MOL0     C14348   5.138   0.960   0.177  0.2314 -1.3566 -0.3562
  107MOL0     C14349   4.993   0.942   0.135 -1.3783 -0.5018  0.2204
  107MOL0     C14350   4.916   0.859   0.231  0.3845  0.1517 -0.3247
  107MOL0     C14351   4.772   0.856   0.164  0.4853 -0.3950 -1.0567
  107MOL0     C14352   4.672   0.755   0.206  0.8238  1.1971  0.6937
  107MOL0     C14353   4.551   0.730   0.116 -0.0579 -0.1073 -0.3251
  107MOL0    Cl14354   4.457   0.883   0.108 -0.0887  0.5159 -0.1209
  107MOL0     C14355   5.638   0.869   0.019 -0.1136  1.2016  0.5609
  107MOL0     C14356   5.771   0.883  -0.016  0.3096  0.1406 -0.4153
  107MOL0     O14357   6.050   0.852   0.087  0.8759 -0.2741 -0.0877
  107MOL0     C14358   6.249   1.154  -0.012 -0.4403 -1.1193  0.5085
  107MOL0     C14359   6.377   1.207   0.006 -0.8799 -0.0490 -0.8361
  107MOL0     N14360   6.854   0.890   0.302  0.2616 -0.3421  0.8205
  107MOL0     N14361   6.756   0.878   0.392 -0.1446  0.4715 -0.2446
  107MOL0     C14362   5.592   0.938   0.481  0.2644  0.9445 -0.0752
  107MOL0     C14363   5.458   0.965   0.490 -1.0522  0.0963  0.1135
  107MOL0     C14364   5.043   1.000   0.730 -0.5236  0.1046 -0.3114
  107MOL0     C14365   4.970   1.015   0.609 -0.1299  0.1602  0.7870
  107MOL0     C14366   4.835   0.979   0.598  0.9641  0.6950 -0.6865
  107MOL0     C14367   4.769   0.933   0.722 -0.2339 -0.0051  0.5971
  107MOL0     O14368   4.634   0.889   0.735  0.0088 -0.0718  0.3466
  107MOL0     C14369   4.559   0.844   0.622 -0.3705 -0.7960  1.1369
  107MOL0     C14370   4.435   0.932   0.583 -0.9016  0.2799 -0.4790
  107MOL0     C14371   4.367   0.873   0.455  0.0716  0.2861  0.6385
  107MOL0     C14372   4.268   0.984   0.401 -0.5712 -0.1548 -0.0158
  107MOL0     C14373   4.342   1.090   0.328 -0.0392  0.3685 -0.0934
  107MOL0     C14374   4.400   1.179   0.270 -0.3679 -0.7767 -0.2428
  107MOL0     C14375   4.839   0.924   0.839  0.1318 -0.3478 -0.2836
  107MOL0     C14376   4.978   0.944   0.844  1.2390 -0.9307 -0.2657
  107MOL0     C14377   5.036   0.897   0.968 -0.3563 -0.8707 -0.6324
  107MOL0     H14378   5.442   0.993   0.829  1.5482 -1.5892  0.8547
  107MOL0     H14379   5.694   0.979   0.792 -0.0963  0.9625 -0.2888
  107MOL0     H14380   5.870   0.803   0.432 -2.9849  0.2159  0.1947
  107MOL0     H14381   5.862   0.970   0.389 -0.7778  0.4576  0.5965
  107MOL0     H14382   6.052   1.032   0.482 -2.0288  0.4603  2.6104
  107MOL0     H14383   6.096   0.884   0.397  2.0216  1.1185  0.1814
  107MOL0     H14384   6.066   0.766   0.593 -3.0837  0.4178  1.1132
  107MOL0     H14385   6.036   0.906   0.690  0.7941  2.6879 -1.0976
  107MOL0     H14386   6.287   0.800   0.684  1.6117  0.5517 -0.2013
  107MOL0     H14387   6.305   0.862   0.522  0.0534 -2.0765  0.2656
  107MOL0     H14388   6.253   1.101   0.609  1.0220 -1.6198  0.2278
  107MOL0     H14389   6.246   1.040   0.770  2.1791  0.3783  2.4564
  107MOL0     H14390   6.464   1.155   0.705 -1.2987 -0.7715  1.2461
  107MOL0     H14391   6.482   0.993   0.764 -1.6009  0.6723  0.7612
  107MOL0     H14392   6.484   1.073   0.464 -0.2767 -0.8976  0.3073
  107MOL0     H14393   6.489   0.915   0.525 -1.6271  0.6488  2.1848
  107MOL0     H14394   6.698   1.118   0.617  0.3151  0.0636 -0.2945
  107MOL0     H14395   6.692   0.944   0.646 -1.9854 -3.1516 -3.3784
  107MOL0     H14396   6.888   1.170   0.462  5.6644 -1.0283  0.3324
  107MOL0     H14397   7.056   1.161   0.259  1.7628 -1.1025 -1.2450
  107MOL0     H14398   7.111   0.994   0.246  3.0721  4.3624  1.0597
  107MOL0     H14399   7.064   1.152   0.052 -1.0200  1.0258  0.5848
  107MOL0     H14400   6.989   0.992   0.027  0.3241  1.2661 -3.2254
  107MOL0     H14401   6.858   1.166  -0.066  1.6480  0.3231  1.3024
  107MOL0     H14402   6.831   1.250   0.083 -2.0735 -0.3072  0.4499
  107MOL0     H14403   6.706   1.052   0.172  1.0694  0.9521  0.2693
  107MOL0     H14404   6.703   0.982   0.009  1.2130  0.9641 -2.1497
  107MOL0     H14405   6.517   0.911   0.122  1.1631  0.7019 -1.8733
  107MOL0     H14406   6.296   0.851   0.140  0.4604  0.2818 -0.3031
  107MOL0     H14407   5.818   1.197   0.101 -5.0354  1.9278 -2.5069
  107MOL0     H14408   5.598   1.142   0.204 -3.5672  0.2434 -2.2658
  107MOL0     H14409   5.344   1.101   0.230  1.2671  2.5825  0.5134
  107MOL0     H14410   5.396   1.158   0.070  2.4983 -1.4099 -0.7075
  107MOL0     H14411   5.148   1.146   0.066 -1.3791 -0.9006  3.0144
  107MOL0     H14412   5.219   1.016  -0.030  3.1387  1.8135  0.4236
  107MOL0     H14413   5.185   0.861   0.172  1.1208 -0.9331 -0.5604
  107MOL0     H14414   5.162   0.992   0.279  0.0747 -1.8862 -0.1511
  107MOL0     H14415   4.994   0.880   0.044 -2.0765 -2.4157  1.4586
  107MOL0     H14416   4.951   1.042   0.121 -0.5947 -0.2712 -0.5987
  107MOL0     H14417   4.907   0.904   0.330  5.7273  0.1482  0.4443
  107MOL0     H14418   4.962   0.761   0.243  2.0876  0.7733 -1.3893
  107MOL0     H14419   4.723   0.953   0.178  0.4162 -0.7605  1.9193
  107MOL0     H14420   4.790   0.840   0.058  3.4298  1.3452 -0.9338
  107MOL0     H14421   4.638   0.762   0.310  1.6015 -0.1945  1.0669
  107MOL0     H14422   4.733   0.665   0.195 -1.0066  0.0598 -0.5472
  107MOL0     H14423   4.560   0.688   0.016 -0.3931 -1.8477  0.3405
  107MOL0     H14424   4.491   0.659   0.174  0.5382 -0.9435 -0.7036
  107MOL0     H14425   5.590   0.779  -0.020  1.6891  0.2122  0.5233
  107MOL0     H14426   5.816   0.804  -0.076  1.2403 -0.0675  0.5225
  107MOL0     H14427   6.186   1.218  -0.072  0.5552 -0.3680  0.2405
  107MOL0     H14428   6.408   1.307  -0.024  0.7854 -0.2462  0.1243
  107MOL0     H14429   5.621   0.917   0.378 -0.7470  0.8133 -0.3483
  107MOL0     H14430   5.391   0.960   0.405  1.4318  0.8415 -2.0333
  107MOL0     H14431   5.021   1.052   0.521  1.1123 -0.9523  1.0138
  107MOL0     H14432   4.787   1.000   0.504  1.0964 -1.2289 -1.2339
  107MOL0     H14433   4.523   0.743   0.642  0.0835 -0.9267  1.3080
  107MOL0     H14434   4.623   0.836   0.534 -3.3356  0.1609 -1.2452
  107MOL0     H14435   4.459   1.036   0.560 -2.2165  0.2831 -2.0480
  107MOL0     H14436   4.367   0.927   0.668  1.4842 -2.0651  1.4453
  107MOL0     H14437   4.316   0.780   0.482  1.6814 -1.2163 -1.1606
  107MOL0     H14438   4.441   0.841   0.380 -1.4341  0.8516 -1.1387
  107MOL0     H14439   4.195   0.933   0.339  0.8377 -1.6874 -0.4855
  107MOL0     H14440   4.215   1.041   0.479 -0.2915 -2.0186  1.6150
  107MOL0     H14441   4.446   1.258   0.214 -0.4739 -1.4965 -1.3650
  107MOL0     H14442   4.787   0.878   0.923  0.8396 -0.0230  0.3468
  107MOL0     H14443   5.144   0.880   0.957 -0.4077 -0.7699 -1.3658
  107MOL0     H14444   5.019   0.968   1.049  0.7876 -2.4733  1.1030
  107MOL0     H14445   4.986   0.807   1.005  1.0566 -0.7420  1.8156
  108MOL0     O14446   9.227  10.004   1.923 -0.0544 -0.3753 -0.6433
  108MOL0     C14447   9.189  10.059   2.032  0.8709 -0.1079  0.1913
  108MOL0     O14448   9.153  10.193   2.049 -0.6441 -0.1580  0.2944
  108MOL0     C14449   9.141  10.286   1.947 -0.1014 -0.2527  0.2571
  108MOL0     C14450   9.157  10.270   1.809 -0.4071  0.6235  0.3759
  108MOL0     C14451   9.135  10.383   1.724  0.4341  0.4927 -0.7921
  108MOL0     C14452   9.096  10.506   1.769 -0.6586 -0.2450  0.5924
  108MOL0     O14453   9.058  10.613   1.683  0.1178  0.6831  0.4155
  108MOL0     C14454   9.122  10.734   1.693 -0.0926 -0.2019 -0.0452
  108MOL0     C14455   9.165  10.788   1.556 -0.9250  1.1589  1.4243
  108MOL0     C14456   9.284  10.703   1.493  0.3253 -0.4174  0.5257
  108MOL0     C14457   9.378  10.788   1.402 -1.0038  0.2480  1.5267
  108MOL0     C14458   9.495  10.703   1.338 -0.0824  0.0569 -0.2287
  108MOL0     C14459   9.614  10.676   1.425  0.2552  0.1308 -0.6311
  108MOL0     C14460   9.719  10.602   1.347 -0.2069  0.7222  0.7431
  108MOL0     C14461   9.844  10.570   1.422 -0.0695 -0.6580  1.1443
  108MOL0     N14462   9.859  10.424   1.418 -0.2681  0.4622  0.0103
  108MOL0     C14463   9.914  10.353   1.311  0.3726  0.2591  0.1769
  108MOL0     C14464   9.909  10.220   1.347 -0.6814 -0.1633 -0.2801
  108MOL0     C14465   9.947  10.114   1.257 -0.1631 -0.2269  0.4373
  108MOL0     C14466   9.830  10.049   1.179  0.1238 -0.0964 -0.0751
  108MOL0     C14467   9.864   9.955   1.069  0.2028  0.1174  0.4232
  108MOL0     C14468   9.764   9.827   1.059 -0.3316  0.2198  0.6425
  108MOL0     O14469   9.817   9.734   0.965  0.1165 -0.0136 -0.9721
  108MOL0     C14470   9.927   9.648   1.005 -0.2602  0.4628 -0.1854
  108MOL0     C14471   9.996   9.649   1.127  0.5907 -0.2955 -1.3873
  108MOL0     C14472  10.095   9.556   1.163 -1.2522 -0.3597  0.2584
  108MOL0     C14473  10.122   9.456   1.073 -0.1469  1.2112  0.7242
  108MOL0     C14474  10.226   9.346   1.113  0.0296  0.1579 -0.3590
  108MOL0     O14475  10.291   9.279   1.008  0.9361  0.5650 -0.4245
  108MOL0     C14476  10.387   9.184   1.028 -0.4013  0.2511 -1.1180
  108MOL0     C14477  10.509   9.224   1.076  0.9540  0.4080 -0.4824
  108MOL0     C14478  10.608   9.127   1.106  0.4989  0.2213 -0.2395
  108MOL0     C14479  10.575   8.991   1.098 -0.4157 -0.4027 -0.3296
  108MOL0     O14480  10.666   8.894   1.109 -0.0006  0.0990 -0.5593
  108MOL0     C14481  10.765   8.895   1.219  1.0033 -0.1706 -0.7652
  108MOL0     C14482  10.823   8.757   1.229  0.1007  0.8540 -0.2017
  108MOL0     C14483  10.966   8.749   1.286  0.0851 -0.1070  0.0661
  108MOL0     C14484  11.019   8.610   1.264  0.6574 -0.3495  0.4230
  108MOL0     C14485  11.153   8.597   1.336  0.3004 -0.0134 -0.0400
  108MOL0     C14486  11.201   8.445   1.350 -0.2305  0.6388 -0.2232
  108MOL0     C14487  11.260   8.402   1.216  0.8657  0.6007 -0.2285
  108MOL0     C14488  11.274   8.255   1.207  0.4824  0.4544  0.6052
  108MOL0    Cl14489  11.435   8.214   1.294 -0.1589 -0.5583 -0.3090
  108MOL0     C14490  10.451   8.949   1.051 -0.5946  0.2742 -0.2381
  108MOL0     C14491  10.356   9.046   1.019 -0.2602 -1.3394  0.5186
  108MOL0     O14492  10.260   9.340   1.231  0.0512  0.2793  0.3258
  108MOL0     C14493  10.049   9.440   0.954 -0.2316 -0.7526  0.9338
  108MOL0     C14494   9.958   9.542   0.922 -0.8446  0.4283  0.1985
  108MOL0     N14495   9.868  10.219   1.479  0.4372 -0.0041  0.4247
  108MOL0     N14496   9.837  10.337   1.514  0.5203 -0.0837  0.4887
  108MOL0     C14497   9.077  10.518   1.906  0.4075  0.4197  0.9394
  108MOL0     C14498   9.105  10.415   1.995 -0.6275 -0.0061  0.0390
  108MOL0     C14499   9.191   9.980   2.152 -0.3536  0.4417 -0.3656
  108MOL0     C14500   9.142  10.045   2.275  0.1980 -0.2329  0.1055
  108MOL0     C14501   9.116   9.969   2.391 -0.0305 -0.8577 -0.5661
  108MOL0     C14502   9.142   9.828   2.392  0.6907 -0.2682 -1.3036
  108MOL0     O14503   9.118   9.740   2.491  0.1166  0.2977 -0.7139
  108MOL0     C14504   9.090   9.810   2.616 -0.0675 -0.1019  0.0957
  108MOL0     C14505   9.049   9.703   2.714 -0.0454 -0.5043 -0.0205
  108MOL0     C14506   8.943   9.596   2.662  0.9509 -0.7395 -0.9817
  108MOL0     C14507   8.794   9.652   2.644  0.3878 -0.9315 -0.1407
  108MOL0     C14508   8.697   9.557   2.585  0.8077 -0.5678  0.8617
  108MOL0     C14509   8.621   9.485   2.528  0.9141 -0.2145  0.1970
  108MOL0     C14510   9.181   9.774   2.271  0.2448  0.1039 -0.1802
  108MOL0     C14511   9.215   9.839   2.155  0.1766  1.5138  0.1649
  108MOL0     C14512   9.268   9.752   2.046 -0.9891  0.5646  0.1898
  108MOL0     H14513   9.181  10.171   1.770  2.3087  2.0371 -1.9076
  108MOL0     H14514   9.142  10.367   1.617 -0.5262  0.9283 -0.9284
  108MOL0     H14515   9.066  10.809   1.749  0.8541  0.2458  0.3202
  108MOL0     H14516   9.208  10.716   1.758 -1.2387  1.5362  2.0835
  108MOL0     H14517   9.201  10.891   1.564  1.5120  0.7612 -2.1609
  108MOL0     H14518   9.086  10.790   1.481  0.8622 -0.0792 -0.5944
  108MOL0     H14519   9.250  10.627   1.422 -0.1751 -0.7247  1.0869
  108MOL0     H14520   9.333  10.655   1.578 -1.3708  0.1081  1.8640
  108MOL0     H14521   9.323  10.845   1.326 -0.5772  0.8463  1.6607
  108MOL0     H14522   9.422  10.869   1.462  3.1937  0.5608 -1.4901
  108MOL0     H14523   9.454  10.617   1.284 -0.3431  1.2980 -2.0534
  108MOL0     H14524   9.530  10.782   1.271 -0.0835  0.5240  0.3121
  108MOL0     H14525   9.651  10.771   1.464  0.7589 -1.6209  3.6537
  108MOL0     H14526   9.573  10.629   1.515  0.4149  3.9026  1.6127
  108MOL0     H14527   9.740  10.661   1.258 -2.9616  1.6351  0.5892
  108MOL0     H14528   9.671  10.506   1.326 -0.1121 -0.1512  3.9496
  108MOL0     H14529   9.925  10.619   1.367 -2.3667  1.7916 -0.3212
  108MOL0     H14530   9.848  10.612   1.522 -0.0177  0.9577  0.4920
  108MOL0     H14531   9.964  10.396   1.226  0.7690  1.0913  0.8188
  108MOL0     H14532  10.019  10.156   1.187 -0.0736  1.7257  1.6338
  108MOL0     H14533  10.009  10.031   1.292 -2.0227 -3.8405 -3.8994
  108MOL0     H14534   9.771  10.012   1.263  0.5858  3.4129  1.9697
  108MOL0     H14535   9.758  10.124   1.145  2.2332  0.9148 -2.7075
  108MOL0     H14536   9.965   9.916   1.084 -0.5246 -0.5538  4.9192
  108MOL0     H14537   9.851  10.008   0.974 -0.4032 -0.3623  0.2303
  108MOL0     H14538   9.663   9.850   1.022 -0.6569 -1.4268  0.4390
  108MOL0     H14539   9.754   9.780   1.157  1.8203 -0.1982  0.6944
  108MOL0     H14540   9.965   9.723   1.200 -1.1620  0.1576 -2.5094
  108MOL0     H14541  10.137   9.558   1.263  0.0031 -1.3322 -0.2278
  108MOL0     H14542  10.535   9.327   1.099  0.5914  0.1838  1.0176
  108MOL0     H14543  10.711   9.154   1.127  1.4780 -3.4641  0.5905
  108MOL0     H14544  10.838   8.974   1.200  1.2511 -0.0145  0.6802
  108MOL0     H14545  10.717   8.917   1.315  0.5894 -1.2566 -0.7032
  108MOL0     H14546  10.758   8.683   1.275 -1.0323  2.6750  1.2927
  108MOL0     H14547  10.834   8.731   1.123  0.6713  2.5172 -0.5971
  108MOL0     H14548  11.027   8.827   1.239  0.3763  0.3360  1.1619
  108MOL0     H14549  10.967   8.755   1.395  2.0014 -2.1925  0.2404
  108MOL0     H14550  11.019   8.587   1.157 -2.0465 -3.5554  0.9498
  108MOL0     H14551  10.940   8.539   1.292  0.8130 -1.6483 -2.1012
  108MOL0     H14552  11.158   8.650   1.432  1.7529 -0.0883 -0.0517
  108MOL0     H14553  11.232   8.654   1.286  0.3432  0.3300  0.4066
  108MOL0     H14554  11.271   8.432   1.433  0.7224 -2.2080 -1.3415
  108MOL0     H14555  11.112   8.388   1.379 -0.3310  0.8074 -0.2028
  108MOL0     H14556  11.352   8.457   1.196  0.9282  0.4835 -0.2673
  108MOL0     H14557  11.190   8.436   1.139  1.9996 -1.6467 -2.4010
  108MOL0     H14558  11.194   8.191   1.246  0.7405 -1.4033 -1.6922
  108MOL0     H14559  11.283   8.228   1.101  3.0102 -0.3526  0.9666
  108MOL0     H14560  10.437   8.842   1.034  1.1962 -0.3663  1.7659
  108MOL0     H14561  10.254   9.017   0.997 -1.5767  2.8515  0.1937
  108MOL0     H14562  10.066   9.349   0.897  0.5530 -0.4583  0.6876
  108MOL0     H14563   9.909   9.528   0.826  1.8645 -0.0694 -1.2260
  108MOL0     H14564   9.051  10.616   1.945 -0.8678 -0.6233  2.9108
  108MOL0     H14565   9.085  10.425   2.101 -1.0557  2.4280 -0.2195
  108MOL0     H14566   9.124  10.151   2.284 -1.0048 -0.5165  1.5085
  108MOL0     H14567   9.071  10.026   2.471  1.0558  0.2996 -0.7650
  108MOL0     H14568   9.013   9.888   2.618  3.0299  3.1896 -0.1261
  108MOL0     H14569   9.188   9.846   2.645 -0.7370  0.6983  1.4665
  108MOL0     H14570   9.026   9.754   2.808 -0.8818  2.5883 -1.7818
  108MOL0     H14571   9.147   9.656   2.726  0.6441  0.3215 -2.0133
  108MOL0     H14572   8.932   9.514   2.733 -2.4359  1.7595  1.7888
  108MOL0     H14573   8.968   9.559   2.563  0.4900  0.5430 -1.6061
  108MOL0     H14574   8.749   9.670   2.743 -1.7030  0.0806 -1.2148
  108MOL0     H14575   8.805   9.747   2.591  1.9466  0.5627  2.6337
  108MOL0     H14576   8.543   9.422   2.491  0.4547  0.3495  0.2029
  108MOL0     H14577   9.197   9.667   2.281  2.7247  0.4713  0.6277
  108MOL0     H14578   9.187   9.708   1.987 -1.4095 -0.0291  1.1733
  108MOL0     H14579   9.339   9.806   1.983 -0.3527 -1.2089 -0.6613
  108MOL0     H14580   9.310   9.661   2.091 -0.9570  0.8784  0.8127
  109MOL0     O14581   2.888   8.473  10.627 -0.0299 -0.0404  0.4434
  109MOL0     C14582   2.775   8.511  10.609 -0.5224 -0.0127 -0.2181
  109MOL0     O14583   2.749   8.644  10.590  0.5495 -0.4983  0.2052
  109MOL0     C14584   2.850   8.736  10.602  0.1354  0.1814 -0.0092
  109MOL0     C14585   2.966   8.739  10.523 -0.0266 -0.9170 -0.3491
  109MOL0     C14586   3.065   8.831  10.552  0.6577 -0.5056  0.5487
  109MOL0     C14587   3.036   8.945  10.633 -0.9148  0.1218 -0.0190
  109MOL0     O14588   3.122   9.053  10.660  0.0954  0.2010  0.4023
  109MOL0     C14589   3.259   9.030  10.642 -0.0729 -0.2123  0.4225
  109MOL0     C14590   3.315   9.061  10.505  1.0548 -0.0916  0.0889
  109MOL0     C14591   3.271   9.198  10.452 -0.0477 -0.5648 -0.0095
  109MOL0     C14592   3.350   9.317  10.528  0.3650  1.3705 -0.2202
  109MOL0     C14593   3.319   9.451  10.461 -0.0515 -0.6457  0.8715
  109MOL0     C14594   3.381   9.468  10.323  0.6910  0.1190  0.2321
  109MOL0     C14595   3.534   9.469  10.323  0.0779  0.5283 -0.8437
  109MOL0     C14596   3.593   9.463  10.184 -1.2688 -0.0473 -0.1695
  109MOL0     N14597   3.586   9.323  10.141  0.0366 -0.3697 -0.7686
  109MOL0     C14598   3.556   9.210  10.214  0.7159 -0.2875  0.2430
  109MOL0     C14599   3.510   9.115  10.129 -0.1536  0.5934 -0.0116
  109MOL0     C14600   3.454   8.978  10.155 -0.1345  0.4707  0.0891
  109MOL0     C14601   3.543   8.887  10.244  0.8190 -0.8899 -0.4746
  109MOL0     C14602   3.674   8.839  10.179 -0.5491  0.6280  0.6129
  109MOL0     C14603   3.656   8.741  10.063 -0.3067 -0.0887  0.1177
  109MOL0     O14604   3.580   8.624  10.106  0.0973 -0.0669 -0.7768
  109MOL0     C14605   3.572   8.521  10.009  0.2790 -0.2375  0.5847
  109MOL0     C14606   3.491   8.406  10.044 -0.0509 -0.6981  0.9599
  109MOL0     C14607   3.467   8.306   9.954 -0.8436  0.2736  0.1754
  109MOL0     C14608   3.515   8.310   9.821  0.6698 -0.1265  0.9747
  109MOL0     C14609   3.490   8.196   9.722  0.7161  0.4227  0.3268
  109MOL0     O14610   3.533   8.207   9.594 -0.9000 -0.5070  0.0955
  109MOL0     C14611   3.514   8.106   9.510 -1.0305  1.0497 -0.5317
  109MOL0     C14612   3.621   8.019   9.482 -0.1672 -0.5078  0.2979
  109MOL0     C14613   3.602   7.908   9.395 -0.3099 -0.2844 -0.2125
  109MOL0     C14614   3.471   7.878   9.347 -0.4849 -0.6111  0.3216
  109MOL0     O14615   3.455   7.769   9.279 -0.4224  0.1615  0.1795
  109MOL0     C14616   3.422   7.788   9.140  0.6801 -0.4299 -0.0307
  109MOL0     C14617   3.394   7.646   9.076 -0.0821  0.0354 -0.1763
  109MOL0     C14618   3.260   7.651   8.997 -0.8055  0.3250  0.1539
  109MOL0     C14619   3.277   7.733   8.875  0.1123  0.1097 -0.4914
  109MOL0     C14620   3.357   7.650   8.772  0.4283  0.1274  0.5187
  109MOL0     C14621   3.374   7.714   8.634 -0.8379  0.5491  0.1564
  109MOL0     C14622   3.448   7.631   8.525 -0.7222 -0.1746  0.5410
  109MOL0     C14623   3.468   7.706   8.394 -1.6017  0.4423  0.6172
  109MOL0    Cl14624   3.572   7.605   8.289  0.1240  0.4617  0.2747
  109MOL0     C14625   3.367   7.966   9.379 -0.0144  0.2162 -0.3502
  109MOL0     C14626   3.386   8.073   9.463 -0.7010  0.5353 -0.1347
  109MOL0     O14627   3.413   8.103   9.757 -0.9837  0.4191  0.4950
  109MOL0     C14628   3.596   8.421   9.786 -0.5951 -0.5362  0.3618
  109MOL0     C14629   3.618   8.523   9.880 -0.1764 -0.0993  0.7968
  109MOL0     N14630   3.538   9.164  10.005  0.6820  0.8539  0.1600
  109MOL0     N14631   3.576   9.282  10.013  0.1524 -1.1409 -0.0174
  109MOL0     C14632   2.912   8.950  10.690  0.9112  0.3765 -0.3776
  109MOL0     C14633   2.819   8.845  10.676  0.5350 -0.7106  0.3848
  109MOL0     C14634   2.668   8.403  10.610 -0.3736  0.7268  0.0524
  109MOL0     C14635   2.691   8.269  10.578  0.2785  0.5076 -0.4546
  109MOL0     C14636   2.591   8.164  10.581 -0.9368 -0.4370  0.8135
  109MOL0     C14637   2.463   8.205  10.597  0.1440  0.2834  0.0192
  109MOL0     O14638   2.372   8.099  10.588  1.1638 -0.4771  0.4855
  109MOL0     C14639   2.229   8.135  10.599 -0.2082 -0.2575 -0.1725
  109MOL0     C14640   2.132   8.010  10.596 -0.3380  0.0069  0.3307
  109MOL0     C14641   2.161   7.929  10.721  0.1652 -0.0560 -0.1322
  109MOL0     C14642   2.094   7.795  10.723  0.4512  0.4203 -0.6046
  109MOL0     C14643   1.949   7.824  10.761 -0.3562 -0.1698  0.7179
  109MOL0     C14644   1.831   7.840  10.779 -0.2439 -0.4848 -0.0591
  109MOL0     C14645   2.428   8.333  10.643  0.0773  0.6376 -0.1408
  109MOL0     C14646   2.529   8.431  10.644 -0.1172  0.0281 -0.1120
  109MOL0     C14647   2.482   8.573  10.685  0.2882 -0.4750  0.0521
  109MOL0     H14648   3.002   8.652  10.468 -0.0249 -0.7827 -0.5593
  109MOL0     H14649   3.155   8.797  10.501  0.6931 -0.7317  0.7615
  109MOL0     H14650   3.321   9.094  10.705  0.4528 -0.4482  0.1495
  109MOL0     H14651   3.277   8.923  10.656  1.1842 -0.6906 -3.5738
  109MOL0     H14652   3.276   8.977  10.446 -1.7513  0.9839  0.2404
  109MOL0     H14653   3.424   9.050  10.505  1.0881  0.1460 -0.7653
  109MOL0     H14654   3.162   9.210  10.453 -0.2695 -1.8640 -2.5644
  109MOL0     H14655   3.287   9.199  10.344 -1.9969 -1.4314 -0.3423
  109MOL0     H14656   3.311   9.323  10.630 -0.1922 -0.6931 -0.2649
  109MOL0     H14657   3.456   9.294  10.543 -0.3589 -1.7986  0.9935
  109MOL0     H14658   3.211   9.449  10.449  0.0442  0.1246 -0.3817
  109MOL0     H14659   3.345   9.536  10.526  1.6052 -0.3283 -0.1484
  109MOL0     H14660   3.345   9.388  10.257 -0.8119 -0.3067  1.5204
  109MOL0     H14661   3.341   9.566  10.295 -1.0425  0.4440  3.3652
  109MOL0     H14662   3.565   9.383  10.383 -4.9018  0.1593  1.6778
  109MOL0     H14663   3.573   9.558  10.375 -0.0907  0.2697 -0.2704
  109MOL0     H14664   3.544   9.536  10.119  0.2844 -1.2668 -2.8585
  109MOL0     H14665   3.698   9.494  10.182 -1.0839 -0.7172 -0.8893
  109MOL0     H14666   3.548   9.195  10.321 -2.6845 -1.8254 -0.1081
  109MOL0     H14667   3.356   8.994  10.202  0.7843  0.7443  1.9827
  109MOL0     H14668   3.433   8.918  10.066  3.0640 -1.3694  0.4165
  109MOL0     H14669   3.578   8.938  10.334 -0.4500 -0.5830 -0.1302
  109MOL0     H14670   3.485   8.801  10.281  0.6100 -0.0407  1.2845
  109MOL0     H14671   3.731   8.795  10.261  1.3657  2.4039  0.3237
  109MOL0     H14672   3.737   8.921  10.142 -1.8232  1.4672  0.2113
  109MOL0     H14673   3.756   8.716  10.024  0.2658 -1.7457  2.4094
  109MOL0     H14674   3.598   8.792   9.986  0.2587  2.2057  1.1471
  109MOL0     H14675   3.465   8.405  10.150 -2.6191  3.7426  0.6356
  109MOL0     H14676   3.405   8.225   9.988 -1.5891  1.2382  1.1948
  109MOL0     H14677   3.716   8.018   9.535 -1.0494 -2.8203  2.0110
  109MOL0     H14678   3.678   7.832   9.385  0.6858  0.7417 -0.7655
  109MOL0     H14679   3.336   7.853   9.118 -0.5595 -1.5611  1.2673
  109MOL0     H14680   3.507   7.821   9.080  1.2511 -0.3402  0.8097
  109MOL0     H14681   3.482   7.615   9.019  0.9424  3.7367 -0.8830
  109MOL0     H14682   3.391   7.574   9.158  1.2365 -1.0531 -1.0195
  109MOL0     H14683   3.225   7.551   8.969 -1.5322  0.6475 -0.1063
  109MOL0     H14684   3.182   7.692   9.063  0.1795 -0.8970  2.2017
  109MOL0     H14685   3.330   7.828   8.887  1.9128 -1.0754  1.6193
  109MOL0     H14686   3.171   7.757   8.858 -0.7771 -1.8160  1.7504
  109MOL0     H14687   3.297   7.561   8.752  0.8786 -0.4036  1.5082
  109MOL0     H14688   3.457   7.630   8.810  1.7966 -3.0463 -3.9018
  109MOL0     H14689   3.284   7.753   8.585 -1.1222  0.6854  0.7724
  109MOL0     H14690   3.433   7.805   8.643 -1.7546  1.0301  1.9214
  109MOL0     H14691   3.402   7.535   8.501  0.8618 -1.0378  0.8102
  109MOL0     H14692   3.544   7.606   8.572 -0.0838  2.3951  0.8001
  109MOL0     H14693   3.381   7.729   8.332 -0.2867  2.1492 -0.7327
  109MOL0     H14694   3.508   7.807   8.407 -2.6881  1.1929 -1.4371
  109MOL0     H14695   3.265   7.947   9.348 -1.8161  1.8292  3.8578
  109MOL0     H14696   3.296   8.131   9.478 -1.7147 -0.7866 -1.0057
  109MOL0     H14697   3.674   8.420   9.710  1.0709 -0.3747  1.9920
  109MOL0     H14698   3.674   8.613   9.860  1.5083 -0.0559  4.7656
  109MOL0     H14699   2.890   9.030  10.761  0.5554  0.3301 -0.4330
  109MOL0     H14700   2.724   8.859  10.726 -0.3569 -1.5492 -1.0050
  109MOL0     H14701   2.792   8.233  10.559 -1.0670 -2.9190 -2.1293
  109MOL0     H14702   2.627   8.064  10.560  0.4780 -0.1625  1.7035
  109MOL0     H14703   2.210   8.193  10.508  2.0081 -0.1657 -0.6506
  109MOL0     H14704   2.208   8.194  10.688  0.5560 -0.2051 -0.0148
  109MOL0     H14705   2.144   7.951  10.505  0.2498  0.2161  0.2652
  109MOL0     H14706   2.028   8.043  10.590 -0.7072 -1.3380 -1.2080
  109MOL0     H14707   2.134   7.973  10.817 -2.2814 -1.4469 -0.0912
  109MOL0     H14708   2.268   7.906  10.716  0.3491  0.7595 -0.1360
  109MOL0     H14709   2.112   7.750  10.625 -1.0000  2.6611 -2.0181
  109MOL0     H14710   2.134   7.732  10.803 -2.1415 -1.1339 -0.4448
  109MOL0     H14711   1.727   7.860  10.786  0.0001  0.7454  0.2558
  109MOL0     H14712   2.330   8.356  10.686 -0.0408  2.1358 -1.1226
  109MOL0     H14713   2.562   8.622  10.742  1.4899 -0.3212 -1.6953
  109MOL0     H14714   2.467   8.632  10.594 -0.0029 -0.6470 -0.0121
  109MOL0     H14715   2.391   8.579  10.746 -0.4580  0.2885 -1.1021
  110MOL0     O14716   4.150  11.085   5.799  0.1068  0.3553 -0.0873
  110MOL0     C14717   4.245  11.069   5.723  0.6300  0.1383 -0.3181
  110MOL0     O14718   4.364  11.128   5.739 -0.2599 -0.8193  0.2614
  110MOL0     C14719   4.401  11.195   5.853 -0.6975  0.0664 -0.5183
  110MOL0     C14720   4.423  11.333   5.857  0.1939  0.3073 -0.3401
  110MOL0     C14721   4.474  11.398   5.978  0.2838  0.3178  0.3156
  110MOL0     C14722   4.505  11.319   6.090  0.1613 -0.3853  0.0771
  110MOL0     O14723   4.564  11.361   6.211 -0.1572 -0.2945  0.0283
  110MOL0     C14724   4.625  11.492   6.214  0.1789 -0.0754  0.2367
  110MOL0     C14725   4.695  11.518   6.351 -0.8512 -0.0901  0.5606
  110MOL0     C14726   4.786  11.399   6.390 -0.3145 -0.3994  0.4741
  110MOL0     C14727   4.842  11.410   6.528 -0.2195 -0.3567  1.0519
  110MOL0     C14728   4.892  11.277   6.588  0.4011  0.5778  0.2613
  110MOL0     C14729   4.796  11.220   6.696 -0.5855 -0.6692  0.3895
  110MOL0     C14730   4.831  11.071   6.715  0.9105  0.0051 -0.3083
  110MOL0     C14731   4.732  10.974   6.643  0.0762 -0.6183 -0.7717
  110MOL0     N14732   4.590  10.967   6.678  0.0868 -0.2418  0.0103
  110MOL0     C14733   4.497  10.958   6.591  0.9282  1.3514  1.0814
  110MOL0     C14734   4.380  10.935   6.656 -0.1074 -0.6352 -0.5202
  110MOL0     C14735   4.234  10.931   6.594 -0.6502  0.7284 -0.1622
  110MOL0     C14736   4.184  10.786   6.589 -0.0454  0.9678  0.1149
  110MOL0     C14737   4.260  10.683   6.500 -0.3089 -0.4427  0.0474
  110MOL0     C14738   4.188  10.549   6.520  0.2672  0.8887  0.2533
  110MOL0     O14739   4.177  10.508   6.664 -0.0140 -0.6922  0.2529
  110MOL0     C14740   4.290  10.465   6.733  0.3585 -0.0086 -0.3493
  110MOL0     C14741   4.395  10.394   6.666  0.6285  0.3400  0.8809
  110MOL0     C14742   4.503  10.341   6.747  0.1784  0.3166  0.5083
  110MOL0     C14743   4.497  10.338   6.884  0.0428 -0.3609 -0.3636
  110MOL0     C14744   4.619  10.283   6.964 -0.4674  0.4457  0.8832
  110MOL0     O14745   4.612  10.295   7.102 -0.0604 -0.1276  0.4915
  110MOL0     C14746   4.693  10.228   7.188  0.0435  0.8746 -0.1339
  110MOL0     C14747   4.672  10.263   7.317  0.1892 -0.6045 -0.0645
  110MOL0     C14748   4.758  10.232   7.427 -0.0980 -0.6930  0.0457
  110MOL0     C14749   4.862  10.153   7.400 -0.7583  0.0193 -0.0131
  110MOL0     O14750   4.947  10.110   7.501  0.1431 -0.8083  0.2103
  110MOL0     C14751   4.900   9.993   7.567  0.6108 -0.5721  0.1058
  110MOL0     C14752   5.018   9.915   7.634  0.9559 -0.5505 -0.1922
  110MOL0     C14753   5.115   9.871   7.524  0.3191 -0.0330 -0.4599
  110MOL0     C14754   5.220   9.978   7.475  0.3852  0.0926 -0.2768
  110MOL0     C14755   5.314   9.916   7.377 -0.4776 -0.0089  0.2853
  110MOL0     C14756   5.424   9.853   7.464 -0.0713  0.0291 -0.0387
  110MOL0     C14757   5.519   9.754   7.383  0.5052  0.0253 -0.7760
  110MOL0     C14758   5.475   9.619   7.326 -0.7928  0.1344  0.1670
  110MOL0    Cl14759   5.608   9.522   7.256 -0.0890 -0.3661  0.3759
  110MOL0     C14760   4.895  10.113   7.266  0.0695 -0.5653  0.4061
  110MOL0     C14761   4.806  10.148   7.158  0.7298  0.0898  0.5775
  110MOL0     O14762   4.711  10.232   6.897 -0.5990 -0.1296  0.1293
  110MOL0     C14763   4.387  10.403   6.947  0.6932  0.0621  0.3532
  110MOL0     C14764   4.289  10.464   6.873  0.0689 -0.8185 -0.2054
  110MOL0     N14765   4.411  10.943   6.796  0.2106 -0.5883  0.5490
  110MOL0     N14766   4.535  10.955   6.804 -0.7959 -1.2682  0.2451
  110MOL0     C14767   4.480  11.183   6.090  0.1427  0.4031  0.0386
  110MOL0     C14768   4.441  11.118   5.969 -0.0408 -0.8751 -0.9930
  110MOL0     C14769   4.230  10.983   5.608  0.4398  0.1341  0.6606
  110MOL0     C14770   4.140  10.869   5.625 -0.1354  0.3963 -0.3224
  110MOL0     C14771   4.116  10.793   5.509 -0.2716  0.7416 -0.2977
  110MOL0     C14772   4.174  10.818   5.387  0.0375 -0.4046  0.3502
  110MOL0     O14773   4.158  10.737   5.273  0.2762  0.3042 -0.3846
  110MOL0     C14774   4.023  10.720   5.241  0.6386  0.1999  0.9998
  110MOL0     C14775   3.988  10.818   5.144  0.4342 -0.8224  0.1184
  110MOL0     C14776   3.858  10.776   5.073  0.2912 -0.0128  0.1283
  110MOL0     C14777   3.900  10.743   4.925 -0.0686 -0.5264  0.1456
  110MOL0     C14778   3.779  10.699   4.863  0.0655  0.0816 -0.8199
  110MOL0     C14779   3.679  10.672   4.794 -1.3772  0.1560  0.4094
  110MOL0     C14780   4.269  10.921   5.374  0.2522 -1.2417  0.6048
  110MOL0     C14781   4.284  11.014   5.474 -0.2662  0.1300  0.6418
  110MOL0     C14782   4.359  11.140   5.452 -0.1242  0.2968  0.4144
  110MOL0     H14783   4.389  11.397   5.776 -0.2283  1.2936  0.5946
  110MOL0     H14784   4.485  11.506   5.983 -1.7604  0.5287  0.9823
  110MOL0     H14785   4.706  11.484   6.141  0.7472 -4.0711  1.0468
  110MOL0     H14786   4.560  11.576   6.192  0.5936  0.5496  1.3058
  110MOL0     H14787   4.617  11.543   6.424  1.1891 -0.0923  2.8763
  110MOL0     H14788   4.751  11.611   6.336  0.1942 -0.5830  1.3020
  110MOL0     H14789   4.869  11.391   6.319 -0.4102 -2.3845  0.5510
  110MOL0     H14790   4.734  11.306   6.368  1.3375 -1.3378  0.4043
  110MOL0     H14791   4.924  11.482   6.524 -0.2546 -0.3444  0.4480
  110MOL0     H14792   4.774  11.461   6.596 -0.9753  1.1412 -0.7115
  110MOL0     H14793   4.927  11.212   6.507 -1.0237 -0.5227  0.4950
  110MOL0     H14794   4.983  11.295   6.646  0.8408  1.4551 -0.6796
  110MOL0     H14795   4.813  11.270   6.792 -1.2150 -2.6343  1.5685
  110MOL0     H14796   4.694  11.237   6.659  0.1485  0.0119 -1.4298
  110MOL0     H14797   4.833  11.050   6.822 -2.8640 -2.5996 -0.5404
  110MOL0     H14798   4.928  11.055   6.668  0.3402 -1.5522 -1.0167
  110MOL0     H14799   4.726  11.000   6.537 -0.9698  1.5395 -0.2386
  110MOL0     H14800   4.776  10.874   6.640  0.5769 -0.4330 -0.0128
  110MOL0     H14801   4.519  10.939   6.486 -0.4703  0.1162  0.9826
  110MOL0     H14802   4.178  11.000   6.658 -1.7307 -0.1764 -0.1162
  110MOL0     H14803   4.242  10.967   6.491  2.1901 -1.4652 -0.8409
  110MOL0     H14804   4.182  10.758   6.694  0.8728  1.5420  0.3064
  110MOL0     H14805   4.081  10.792   6.554 -0.3224 -2.8370 -0.0984
  110MOL0     H14806   4.360  10.662   6.540 -2.7865 -3.8356  5.6859
  110MOL0     H14807   4.266  10.722   6.398 -1.9042 -0.2640  0.0013
  110MOL0     H14808   4.229  10.465   6.463  0.0281  1.3171 -0.5595
  110MOL0     H14809   4.084  10.551   6.487  0.9217  3.6901 -2.0665
  110MOL0     H14810   4.399  10.385   6.558 -0.8211 -2.5899  0.9921
  110MOL0     H14811   4.588  10.290   6.703 -1.3343 -2.6057  0.7580
  110MOL0     H14812   4.587  10.324   7.346 -2.0674 -3.6888  0.3002
  110MOL0     H14813   4.747  10.279   7.524 -1.5633  3.9220 -2.0673
  110MOL0     H14814   4.824  10.027   7.638 -0.6137 -2.2093 -0.3618
  110MOL0     H14815   4.862   9.915   7.501  3.7605 -0.8032 -1.6007
  110MOL0     H14816   5.068   9.962   7.719  0.7679  0.4072 -0.5984
  110MOL0     H14817   4.963   9.829   7.673 -0.2832 -0.7698 -2.3146
  110MOL0     H14818   5.158   9.787   7.578 -3.4011  0.1960  3.3878
  110MOL0     H14819   5.053   9.833   7.442 -1.6343  1.5872  0.1760
  110MOL0     H14820   5.279  10.031   7.551  0.7027 -0.5840 -0.0420
  110MOL0     H14821   5.162  10.055   7.423 -2.2907 -1.0175  0.9023
  110MOL0     H14822   5.358   9.991   7.312 -2.3444  0.6103 -0.3260
  110MOL0     H14823   5.262   9.844   7.313  0.3051  0.8038 -1.3162
  110MOL0     H14824   5.464   9.933   7.527 -3.1082  0.9670  0.8864
  110MOL0     H14825   5.379   9.788   7.540  0.2859 -1.1861 -0.8420
  110MOL0     H14826   5.604   9.745   7.451  1.5662  1.9627 -1.7639
  110MOL0     H14827   5.558   9.818   7.303 -1.7928  3.2729  0.4978
  110MOL0     H14828   5.437   9.564   7.413  2.5254  1.9219  3.0093
  110MOL0     H14829   5.403   9.628   7.244 -0.4784 -1.7673 -0.3670
  110MOL0     H14830   4.976  10.043   7.245  0.4140 -0.0392 -0.0561
  110MOL0     H14831   4.816  10.111   7.057  2.1289  0.0282  0.7187
  110MOL0     H14832   4.395  10.424   7.053  0.0841 -1.3430  0.7057
  110MOL0     H14833   4.205  10.517   6.918  0.6731  0.6694 -0.7781
  110MOL0     H14834   4.501  11.122   6.178  2.4090 -0.5551 -1.0815
  110MOL0     H14835   4.432  11.010   5.967 -0.4994 -0.8464 -0.5064
  110MOL0     H14836   4.099  10.865   5.725 -0.8414  3.1180 -0.4377
  110MOL0     H14837   4.038  10.718   5.517 -0.0070  0.2406 -1.9714
  110MOL0     H14838   3.963  10.720   5.332  1.8168 -1.3167  1.8169
  110MOL0     H14839   4.013  10.626   5.185 -2.5135  1.8190 -1.4861
  110MOL0     H14840   4.074  10.828   5.076  1.0639  1.8003  1.1527
  110MOL0     H14841   3.972  10.913   5.197  2.7950 -1.4332  2.1134
  110MOL0     H14842   3.782  10.854   5.070 -0.5557 -0.8450 -1.6386
  110MOL0     H14843   3.812  10.689   5.120 -0.1666 -2.2130 -3.9544
  110MOL0     H14844   3.939  10.833   4.877 -2.0679  0.4021  0.1654
  110MOL0     H14845   3.972  10.661   4.919 -0.3292 -1.1570  3.4341
  110MOL0     H14846   3.591  10.637   4.743 -0.2916 -0.0871 -1.3814
  110MOL0     H14847   4.320  10.949   5.282 -2.1213  2.5178  0.1912
  110MOL0     H14848   4.321  11.221   5.514 -0.3883  1.2322 -0.9358
  110MOL0     H14849   4.466  11.124   5.471 -0.1134 -0.4299 -0.1766
  110MOL0     H14850   4.344  11.180   5.351  0.1519 -0.6321 -0.0111
  111MOL0     O14851   6.650   0.347   1.426 -0.2506  0.2333  0.6837
  111MOL0     C14852   6.697   0.321   1.536  1.1446  0.0567  0.6631
  111MOL0     O14853   6.625   0.237   1.623  0.0221 -0.2210 -0.4360
  111MOL0     C14854   6.498   0.206   1.593  0.7148 -0.3890  0.4086
  111MOL0     C14855   6.419   0.203   1.708 -0.2404  0.1960 -0.1079
  111MOL0     C14856   6.282   0.167   1.697  0.5313 -0.2791 -0.3378
  111MOL0     C14857   6.226   0.139   1.576  0.0283 -0.2159  0.3732
  111MOL0     O14858   6.084   0.117   1.575  0.1207 -0.0986 -0.7969
  111MOL0     C14859   6.027   0.095   1.447  0.7849  0.0847 -0.2475
  111MOL0     C14860   5.882   0.103   1.485 -0.3718  0.8579 -0.8420
  111MOL0     C14861   5.795   0.105   1.354  0.4448 -0.1058  0.4486
  111MOL0     C14862   5.651   0.081   1.406 -0.6664 -0.1845 -0.5577
  111MOL0     C14863   5.527   0.092   1.320 -0.5376  0.3042  1.0689
  111MOL0     C14864   5.504  -0.028   1.237 -0.7222 -0.0616  0.2645
  111MOL0     C14865   5.356  -0.044   1.193 -0.2238  0.9227 -0.7791
  111MOL0     C14866   5.312  -0.177   1.124 -0.0378  0.0603 -0.5998
  111MOL0     N14867   5.359  -0.289   1.218  0.6536 -0.7844 -0.2127
  111MOL0     C14868   5.326  -0.292   1.348  0.5628 -0.4411 -0.2755
  111MOL0     C14869   5.405  -0.389   1.394  0.3972 -0.1263 -0.5886
  111MOL0     C14870   5.400  -0.439   1.536  1.0754  0.4536  0.0213
  111MOL0     C14871   5.537  -0.411   1.608  0.0994  0.0007  0.0608
  111MOL0     C14872   5.536  -0.289   1.705  0.1097 -0.1494 -0.6329
  111MOL0     C14873   5.672  -0.274   1.781  0.6824  0.2360  0.6728
  111MOL0     O14874   5.772  -0.230   1.680 -0.1097  0.0686  0.1644
  111MOL0     C14875   5.907  -0.241   1.702  0.0856  0.1222 -0.0099
  111MOL0     C14876   5.988  -0.210   1.592 -0.3074  0.1930 -0.6028
  111MOL0     C14877   6.126  -0.211   1.608  0.6042 -0.5769 -0.1080
  111MOL0     C14878   6.185  -0.258   1.729 -0.7119  0.3892 -0.4080
  111MOL0     C14879   6.332  -0.267   1.753  0.4443  0.6851 -0.6246
  111MOL0     O14880   6.402  -0.282   1.644  0.1030 -0.2117  0.2400
  111MOL0     C14881   6.535  -0.312   1.667 -0.8827 -0.1507  0.5703
  111MOL0     C14882   6.568  -0.447   1.676  0.1313  0.6598 -0.3229
  111MOL0     C14883   6.696  -0.486   1.716  0.4288  0.3665 -0.0445
  111MOL0     C14884   6.803  -0.392   1.712 -0.7354 -0.4674 -0.1268
  111MOL0     O14885   6.927  -0.418   1.745  0.4651  0.1262 -0.6756
  111MOL0     C14886   6.981  -0.529   1.665 -0.2620 -0.3810  0.4727
  111MOL0     C14887   7.126  -0.517   1.658 -0.6918 -0.3310 -0.0042
  111MOL0     C14888   7.186  -0.378   1.666 -0.1226  0.0042  0.6622
  111MOL0     C14889   7.333  -0.366   1.614 -0.3046  0.2966  0.6899
  111MOL0     C14890   7.379  -0.220   1.604  0.3857 -0.2506  0.2146
  111MOL0     C14891   7.535  -0.202   1.607  0.4020  0.6278  0.5180
  111MOL0     C14892   7.569  -0.051   1.592 -0.1198  0.4893  0.8580
  111MOL0     C14893   7.703  -0.032   1.515 -0.2892 -0.3280 -0.1471
  111MOL0    Cl14894   7.653  -0.032   1.347  0.1668  0.1875  0.0493
  111MOL0     C14895   6.778  -0.256   1.693 -0.0225 -0.4379 -0.7924
  111MOL0     C14896   6.638  -0.217   1.665  0.1941  0.4979 -0.3098
  111MOL0     O14897   6.372  -0.270   1.872  0.0529 -0.9097 -0.2618
  111MOL0     C14898   6.106  -0.287   1.836 -0.7267 -1.3653  0.1911
  111MOL0     C14899   5.968  -0.284   1.826 -0.5929  0.1302  0.6021
  111MOL0     N14900   5.489  -0.429   1.297  0.1130  0.5171 -0.2545
  111MOL0     N14901   5.458  -0.373   1.193  0.8400  0.1479  0.8207
  111MOL0     C14902   6.310   0.136   1.458  0.2060 -0.5746  0.2215
  111MOL0     C14903   6.448   0.166   1.465  0.3501 -0.4493 -0.2002
  111MOL0     C14904   6.817   0.398   1.577 -0.0376  0.9867 -0.2311
  111MOL0     C14905   6.859   0.383   1.712  0.2109 -0.8078  0.2027
  111MOL0     C14906   6.972   0.443   1.758 -0.6053 -0.1731 -0.1133
  111MOL0     C14907   7.047   0.531   1.678 -0.0318  0.0625  0.3075
  111MOL0     O14908   7.153   0.596   1.738 -0.0873  0.2772  0.8932
  111MOL0     C14909   7.246   0.514   1.797 -0.4638  1.0805  0.0442
  111MOL0     C14910   7.352   0.602   1.856 -0.2722 -0.0905 -1.6497
  111MOL0     C14911   7.442   0.693   1.759  0.0031 -0.0843  0.2010
  111MOL0     C14912   7.540   0.761   1.851 -0.0088  0.2314  0.6311
  111MOL0     C14913   7.666   0.814   1.784  1.0561 -0.7008 -0.1183
  111MOL0     C14914   7.767   0.862   1.743 -0.1766 -0.2762  0.6859
  111MOL0     C14915   7.010   0.547   1.546 -0.1779  0.7540  0.0122
  111MOL0     C14916   6.908   0.478   1.490  0.0284  0.0490  0.7133
  111MOL0     C14917   6.900   0.483   1.342  1.2420 -0.8758 -0.4426
  111MOL0     H14918   6.463   0.234   1.802 -1.7469 -0.0529  0.7143
  111MOL0     H14919   6.217   0.162   1.784  0.0350 -0.6431 -0.7175
  111MOL0     H14920   6.049   0.173   1.374 -0.2537 -0.4313 -1.1565
  111MOL0     H14921   6.054  -0.001   1.401  2.5175  0.2119  0.4266
  111MOL0     H14922   5.861   0.195   1.540 -1.0531  0.0763  0.2523
  111MOL0     H14923   5.847   0.021   1.549 -0.9242  1.8557  0.1701
  111MOL0     H14924   5.820   0.028   1.281  0.7752  1.0575 -0.6982
  111MOL0     H14925   5.807   0.202   1.306  0.2490  0.0623  0.7338
  111MOL0     H14926   5.640  -0.007   1.471  3.4634 -1.0159 -0.7394
  111MOL0     H14927   5.644   0.169   1.471  2.4829  0.9699 -1.5870
  111MOL0     H14928   5.451   0.085   1.398 -0.5904 -1.2330  0.9068
  111MOL0     H14929   5.520   0.180   1.255  2.1874  0.8765  1.4290
  111MOL0     H14930   5.560  -0.029   1.143  0.6651  0.3694  1.0554
  111MOL0     H14931   5.534  -0.117   1.293 -2.3202 -0.3012  0.7852
  111MOL0     H14932   5.361   0.027   1.110  1.5811  0.9803 -0.6783
  111MOL0     H14933   5.287  -0.011   1.270  1.2476 -4.7582  3.7017
  111MOL0     H14934   5.204  -0.185   1.106 -0.1247 -0.5347  0.1217
  111MOL0     H14935   5.361  -0.190   1.027 -3.0930  0.1963 -2.3178
  111MOL0     H14936   5.252  -0.228   1.395  4.6610  3.4253  1.6713
  111MOL0     H14937   5.331  -0.384   1.600 -0.5443 -1.6329  0.1973
  111MOL0     H14938   5.379  -0.546   1.544  1.9704  0.3628  1.5979
  111MOL0     H14939   5.549  -0.494   1.678 -2.4968  0.3563  1.0714
  111MOL0     H14940   5.612  -0.400   1.529 -0.4872  3.7401 -0.1889
  111MOL0     H14941   5.460  -0.310   1.781  4.0649 -1.7352  3.3531
  111MOL0     H14942   5.513  -0.200   1.646  0.2493 -1.2360 -2.4045
  111MOL0     H14943   5.714  -0.361   1.833 -1.0194  0.0620  1.8421
  111MOL0     H14944   5.671  -0.198   1.859 -0.1703 -0.2453  1.1411
  111MOL0     H14945   5.931  -0.169   1.510 -2.8792  0.5900  1.2599
  111MOL0     H14946   6.179  -0.176   1.520 -0.6854  1.1995 -0.2407
  111MOL0     H14947   6.482  -0.513   1.662 -0.6887  1.8936 -1.2615
  111MOL0     H14948   6.716  -0.591   1.735 -2.4291 -0.0487  1.1024
  111MOL0     H14949   6.946  -0.618   1.717 -1.8459  0.4183  0.8425
  111MOL0     H14950   6.949  -0.535   1.561 -0.4802  1.9171  0.3576
  111MOL0     H14951   7.165  -0.569   1.747 -2.1954 -1.5688 -0.0286
  111MOL0     H14952   7.177  -0.574   1.580  1.0093 -0.9993  1.5155
  111MOL0     H14953   7.118  -0.315   1.608 -0.3360  2.2324  3.1417
  111MOL0     H14954   7.184  -0.333   1.766  0.1510  0.1555  0.6028
  111MOL0     H14955   7.352  -0.407   1.514 -1.0037 -1.3859  1.2265
  111MOL0     H14956   7.395  -0.420   1.685 -0.9570 -0.2267  0.8740
  111MOL0     H14957   7.352  -0.164   1.693 -0.8922 -0.2698 -0.1476
  111MOL0     H14958   7.341  -0.171   1.514  2.2460  0.8786 -0.0161
  111MOL0     H14959   7.572  -0.247   1.700  2.9714  0.6064 -0.4172
  111MOL0     H14960   7.580  -0.253   1.522  0.8861  0.6892  0.7298
  111MOL0     H14961   7.581  -0.010   1.693  0.0443  0.8996  0.6752
  111MOL0     H14962   7.480  -0.004   1.549 -0.2814  0.9849  1.7135
  111MOL0     H14963   7.752   0.065   1.526 -1.7708  0.4570 -0.1054
  111MOL0     H14964   7.776  -0.106   1.548  0.3459  2.1858  5.1630
  111MOL0     H14965   6.863  -0.189   1.702  0.0164 -0.7890  3.1763
  111MOL0     H14966   6.619  -0.111   1.660 -0.2221  0.3779 -1.9718
  111MOL0     H14967   6.165  -0.306   1.926 -1.4921  0.4608  1.1300
  111MOL0     H14968   5.914  -0.284   1.920  1.0974 -0.4020  1.6098
  111MOL0     H14969   6.265   0.110   1.362  1.3003  2.5591 -1.2832
  111MOL0     H14970   6.505   0.168   1.372  0.9842 -1.5398  0.1376
  111MOL0     H14971   6.804   0.313   1.773 -2.3754  0.5029 -0.4904
  111MOL0     H14972   6.982   0.414   1.862 -3.5251 -0.5802  0.1457
  111MOL0     H14973   7.287   0.434   1.734 -0.7513  0.6267  0.4301
  111MOL0     H14974   7.200   0.469   1.885 -3.6470  1.1518 -1.4410
  111MOL0     H14975   7.418   0.535   1.912  1.8635  1.9256 -1.6070
  111MOL0     H14976   7.306   0.668   1.930 -0.6599  1.9272 -3.5850
  111MOL0     H14977   7.389   0.773   1.707 -0.7753 -0.9843 -0.4384
  111MOL0     H14978   7.501   0.628   1.694 -1.0845 -0.4335 -0.4577
  111MOL0     H14979   7.480   0.835   1.905  1.4939  0.5050  1.9928
  111MOL0     H14980   7.572   0.682   1.920 -0.9866 -3.4197 -2.6995
  111MOL0     H14981   7.858   0.895   1.697 -1.0527  0.8893 -0.2644
  111MOL0     H14982   7.092   0.602   1.500  2.6460 -2.5758  0.6240
  111MOL0     H14983   6.861   0.390   1.300 -0.1601 -0.1141 -0.8720
  111MOL0     H14984   6.848   0.573   1.310 -2.1904 -1.9488  1.6261
  111MOL0     H14985   6.998   0.497   1.295  0.2853  5.2475 -1.4080
  112MOL0     O14986   6.743  10.757   3.107  0.1652  0.5491 -0.7181
  112MOL0     C14987   6.654  10.807   3.040  0.0207  0.2945  0.3981
  112MOL0     O14988   6.544  10.739   2.998 -0.4085 -0.6774 -0.1134
  112MOL0     C14989   6.535  10.599   3.003 -0.4579 -0.5242 -0.0143
  112MOL0     C14990   6.405  10.544   3.003 -0.1122 -0.0605  0.4002
  112MOL0     C14991   6.392  10.411   2.993 -0.3952  0.0985  0.8176
  112MOL0     C14992   6.489  10.318   2.965 -0.1160 -0.2063 -0.6506
  112MOL0     O14993   6.451  10.193   2.967 -0.3538 -0.5569  0.5505
  112MOL0     C14994   6.519  10.116   2.866  0.4938 -0.7879  0.3057
  112MOL0     C14995   6.449   9.981   2.842  0.0090  0.3423 -0.2714
  112MOL0     C14996   6.297   9.979   2.828  0.8416  0.8677 -0.5404
  112MOL0     C14997   6.245   9.857   2.764 -0.2951  0.1698  1.2663
  112MOL0     C14998   6.095   9.841   2.757  0.2334  0.6791  0.8171
  112MOL0     C14999   6.067   9.718   2.680  0.1291  0.7174 -0.3836
  112MOL0     C15000   5.919   9.708   2.674  1.0911  0.2464 -0.1645
  112MOL0     C15001   5.885   9.592   2.583  0.0972  0.0254  0.1317
  112MOL0     N15002   5.739   9.584   2.553 -0.1209 -0.6469 -0.6196
  112MOL0     C15003   5.656   9.683   2.514 -0.7995 -0.1870 -0.2963
  112MOL0     C15004   5.541   9.619   2.499 -0.4681 -0.0874 -0.7270
  112MOL0     C15005   5.403   9.665   2.469 -0.3959  0.4386  0.2288
  112MOL0     C15006   5.308   9.564   2.412 -0.1463  0.4525  0.7981
  112MOL0     C15007   5.180   9.636   2.373  0.1832 -0.3615 -0.1544
  112MOL0     C15008   5.067   9.551   2.409 -1.0025  0.0553 -0.6113
  112MOL0     O15009   4.953   9.633   2.423  0.6144 -0.1485  0.0626
  112MOL0     C15010   4.835   9.566   2.450  0.3042  0.0468 -0.0048
  112MOL0     C15011   4.822   9.429   2.475 -0.0298  0.0250 -0.1723
  112MOL0     C15012   4.701   9.364   2.518 -0.2537 -1.6045  0.2271
  112MOL0     C15013   4.586   9.451   2.534  0.5478  0.3790  0.5913
  112MOL0     C15014   4.453   9.402   2.572  0.4259 -0.2585 -0.1601
  112MOL0     O15015   4.406   9.304   2.501  0.0292 -0.0370 -0.2471
  112MOL0     C15016   4.268   9.263   2.502 -0.1357 -0.8136 -0.2490
  112MOL0     C15017   4.241   9.138   2.443 -0.0344 -0.3426  0.3527
  112MOL0     C15018   4.110   9.093   2.433 -0.1371 -1.0851 -1.0569
  112MOL0     C15019   4.004   9.172   2.495 -0.1227  0.3115  0.0817
  112MOL0     O15020   3.874   9.119   2.472  0.3473  0.8910  1.0344
  112MOL0     C15021   3.765   9.188   2.531  0.4274  0.1688 -0.1852
  112MOL0     C15022   3.635   9.107   2.551 -0.4337  0.3096 -0.0711
  112MOL0     C15023   3.637   8.991   2.656  0.2833  0.0657  0.1964
  112MOL0     C15024   3.552   8.871   2.618 -0.3650  0.1916  1.1968
  112MOL0     C15025   3.560   8.767   2.727 -0.0453 -0.4338  0.0206
  112MOL0     C15026   3.458   8.650   2.712 -0.2433 -0.5070 -0.3072
  112MOL0     C15027   3.463   8.546   2.829 -0.2279  0.6154  0.1243
  112MOL0     C15028   3.319   8.536   2.893 -0.3227 -0.2637 -0.1310
  112MOL0    Cl15029   3.192   8.484   2.781 -0.1830 -0.0540  0.0681
  112MOL0     C15030   4.029   9.293   2.541  0.2776 -0.3742  0.1091
  112MOL0     C15031   4.156   9.346   2.550 -0.1461 -0.4128 -0.0677
  112MOL0     O15032   4.398   9.451   2.674 -0.2250  0.0133  0.0493
  112MOL0     C15033   4.602   9.586   2.510  0.0679 -0.5212  0.1545
  112MOL0     C15034   4.720   9.641   2.469  0.2016 -0.3165 -0.4839
  112MOL0     N15035   5.558   9.478   2.522  0.4074  0.3382  0.3796
  112MOL0     N15036   5.684   9.464   2.556  0.8561  0.2052 -0.1676
  112MOL0     C15037   6.619  10.370   2.952  0.8716  0.0552  0.0563
  112MOL0     C15038   6.639  10.509   2.969  0.7859 -1.1818  0.5564
  112MOL0     C15039   6.659  10.944   2.988 -0.0467  0.0208  0.6051
  112MOL0     C15040   6.600  10.969   2.857  1.1480 -0.1649  0.1134
  112MOL0     C15041   6.614  11.088   2.786 -0.0645 -0.1139 -0.6265
  112MOL0     C15042   6.700  11.186   2.835  0.1800  0.4874 -0.0126
  112MOL0     O15043   6.716  11.315   2.782 -0.3313 -0.2406  0.0567
  112MOL0     C15044   6.659  11.354   2.657  0.1248  1.1454  0.7036
  112MOL0     C15045   6.742  11.325   2.519  1.0797  0.8712 -0.3554
  112MOL0     C15046   6.891  11.326   2.542  0.2841 -0.9575  0.4587
  112MOL0     C15047   6.944  11.324   2.397  0.2301 -1.1598  0.2075
  112MOL0     C15048   7.087  11.346   2.407  0.2764 -0.4403 -0.3809
  112MOL0     C15049   7.207  11.375   2.408  0.1364 -0.7324  0.3882
  112MOL0     C15050   6.777  11.162   2.953  0.4166  0.3560  0.0192
  112MOL0     C15051   6.752  11.042   3.035 -1.3934 -0.1404 -0.4463
  112MOL0     C15052   6.810  11.038   3.174  0.0350 -0.0489 -0.5932
  112MOL0     H15053   6.331  10.613   3.043  0.3909  1.3718 -1.0391
  112MOL0     H15054   6.296  10.376   3.031 -2.6123  2.3427 -2.1981
  112MOL0     H15055   6.521  10.168   2.770  1.0794 -1.5997 -0.1234
  112MOL0     H15056   6.623  10.106   2.900  1.0681  3.6679  0.5436
  112MOL0     H15057   6.482   9.914   2.922  1.0811 -1.6176 -2.2287
  112MOL0     H15058   6.504   9.945   2.754  0.3957 -0.2263  0.1906
  112MOL0     H15059   6.269  10.064   2.764  1.8030  0.9887 -0.8061
  112MOL0     H15060   6.241   9.994   2.921  0.5853 -0.8920 -0.3764
  112MOL0     H15061   6.282   9.846   2.662  0.3817 -2.4644  1.7102
  112MOL0     H15062   6.282   9.769   2.817 -1.4915 -1.1416 -0.0049
  112MOL0     H15063   6.058   9.836   2.860  0.3153 -0.2929  0.8118
  112MOL0     H15064   6.050   9.935   2.725 -0.4696 -0.2171 -0.9976
  112MOL0     H15065   6.105   9.737   2.580 -1.6299 -0.8595 -1.4074
  112MOL0     H15066   6.115   9.624   2.707 -0.1678 -0.0922 -2.5267
  112MOL0     H15067   5.872   9.802   2.641  0.3298  0.1138  0.5027
  112MOL0     H15068   5.878   9.682   2.772  0.0010  0.1693 -0.6297
  112MOL0     H15069   5.932   9.609   2.485 -0.0071  4.0034  0.5982
  112MOL0     H15070   5.926   9.505   2.634  0.6069  0.6615  0.8357
  112MOL0     H15071   5.672   9.786   2.486 -3.8822  0.6113  0.4409
  112MOL0     H15072   5.363   9.710   2.560 -1.2960  1.3714 -0.6051
  112MOL0     H15073   5.409   9.748   2.398 -2.0328  0.0834 -0.3660
  112MOL0     H15074   5.351   9.509   2.327  1.5408 -0.5615  2.2523
  112MOL0     H15075   5.294   9.488   2.489  2.1526  1.2947  2.1428
  112MOL0     H15076   5.186   9.658   2.266 -1.8254 -1.7256 -0.6046
  112MOL0     H15077   5.170   9.732   2.425  3.3900  0.9432 -1.7140
  112MOL0     H15078   5.085   9.515   2.511  1.7434  0.9485 -0.6799
  112MOL0     H15079   5.052   9.475   2.333 -0.4173  1.6955 -2.4590
  112MOL0     H15080   4.909   9.365   2.474 -0.4401 -0.5303 -0.7670
  112MOL0     H15081   4.690   9.257   2.534 -0.1265 -2.1691 -2.8361
  112MOL0     H15082   4.323   9.077   2.405  0.1933  0.5735 -0.6630
  112MOL0     H15083   4.083   9.001   2.382  0.6680 -1.6849 -0.4270
  112MOL0     H15084   3.796   9.222   2.630  0.4351  1.6494 -0.6685
  112MOL0     H15085   3.738   9.277   2.474  0.9505  1.0162  0.8551
  112MOL0     H15086   3.547   9.171   2.565 -3.2998 -3.0334 -1.3714
  112MOL0     H15087   3.617   9.047   2.461 -0.0725 -2.2422  1.4742
  112MOL0     H15088   3.740   8.965   2.679  0.9885 -0.1315 -2.7950
  112MOL0     H15089   3.584   9.027   2.745 -2.9404 -0.5383 -1.3247
  112MOL0     H15090   3.592   8.831   2.525  1.1695  1.2730  1.3628
  112MOL0     H15091   3.449   8.903   2.602 -0.4083 -0.4657  0.0832
  112MOL0     H15092   3.548   8.814   2.825  2.0323  0.6763 -0.2195
  112MOL0     H15093   3.658   8.722   2.713  0.3537  1.3495 -4.2048
  112MOL0     H15094   3.360   8.697   2.703 -1.0739 -2.1758 -0.3807
  112MOL0     H15095   3.458   8.602   2.614 -1.0068 -1.2484  0.0520
  112MOL0     H15096   3.529   8.575   2.912  0.3992  1.3986 -0.6298
  112MOL0     H15097   3.497   8.449   2.793 -1.8460 -1.2624  3.1707
  112MOL0     H15098   3.310   8.456   2.967 -1.4268  0.9987  1.1660
  112MOL0     H15099   3.276   8.630   2.929  1.4431  0.2918  0.6720
  112MOL0     H15100   3.949   9.358   2.576  1.6323  1.8085 -0.6196
  112MOL0     H15101   4.170   9.450   2.578  0.1985 -0.3775 -0.3647
  112MOL0     H15102   4.515   9.649   2.524  0.0609 -0.5482  0.2322
  112MOL0     H15103   4.727   9.746   2.442 -2.9574  0.0812 -0.0808
  112MOL0     H15104   6.699  10.313   2.907 -1.1517 -1.3160 -2.0706
  112MOL0     H15105   6.737  10.555   2.959  1.2482 -2.6100 -3.6788
  112MOL0     H15106   6.536  10.900   2.804 -0.1288 -0.5265  2.0045
  112MOL0     H15107   6.569  11.093   2.687 -0.3437 -2.3505 -0.6595
  112MOL0     H15108   6.649  11.462   2.669 -0.5163  1.1389  0.2630
  112MOL0     H15109   6.562  11.312   2.628  0.8889 -0.9796  0.9865
  112MOL0     H15110   6.713  11.407   2.453 -0.2171 -0.3833 -1.4046
  112MOL0     H15111   6.697  11.240   2.467  1.1204  1.5630 -1.5468
  112MOL0     H15112   6.921  11.237   2.598 -1.2817 -1.8971 -0.1303
  112MOL0     H15113   6.921  11.406   2.610 -2.8026 -0.9556  1.9886
  112MOL0     H15114   6.922  11.229   2.347 -0.2510 -1.7098  1.4058
  112MOL0     H15115   6.909  11.415   2.348  2.0603  0.4155  1.6963
  112MOL0     H15116   7.306  11.410   2.425 -0.1060  0.0124  0.3184
  112MOL0     H15117   6.848  11.237   2.988  1.6321 -0.3558 -0.8504
  112MOL0     H15118   6.729  11.014   3.243 -1.5016  2.4031 -1.4060
  112MOL0     H15119   6.885  10.959   3.178 -0.3006 -0.4850 -2.1720
  112MOL0     H15120   6.852  11.135   3.201  1.4580 -1.0713  1.0440
  113MOL0     O15121   4.262   9.274   7.178 -0.7110  0.1891 -0.0255
  113MOL0     C15122   4.320   9.378   7.145 -0.5741 -0.5450  0.1066
  113MOL0     O15123   4.435   9.423   7.185  0.2604  0.4375 -0.2308
  113MOL0     C15124   4.488   9.352   7.287  0.3590  0.2921  0.3245
  113MOL0     C15125   4.570   9.248   7.250  0.1878 -0.2166  0.1087
  113MOL0     C15126   4.653   9.197   7.345 -1.0839  0.3365 -0.1362
  113MOL0     C15127   4.652   9.232   7.478  0.9981  0.3347  0.8123
  113MOL0     O15128   4.730   9.164   7.568  1.1317  0.1691  0.3925
  113MOL0     C15129   4.815   9.246   7.638 -0.6214 -0.3912 -0.5782
  113MOL0     C15130   4.930   9.163   7.699  0.0202 -0.4293 -0.0807
  113MOL0     C15131   4.981   9.075   7.582  0.8013  0.5263 -0.0815
  113MOL0     C15132   5.136   9.042   7.597 -0.3834 -0.1342  0.0694
  113MOL0     C15133   5.216   8.965   7.487  0.1077 -0.2345  0.2231
  113MOL0     C15134   5.362   8.945   7.535 -0.3694 -0.0978  0.3423
  113MOL0     C15135   5.455   8.909   7.419 -0.2807  0.6038  0.1237
  113MOL0     C15136   5.517   9.026   7.356 -0.3704  0.8737 -0.3075
  113MOL0     N15137   5.607   9.099   7.433  0.5973  0.4202 -0.5948
  113MOL0     C15138   5.615   9.234   7.442 -0.6371  0.5113  0.2587
  113MOL0     C15139   5.740   9.257   7.488 -0.7593  0.2740  0.2749
  113MOL0     C15140   5.796   9.394   7.520  0.8470 -0.5555  0.1706
  113MOL0     C15141   5.719   9.467   7.634  0.4956  0.1785  0.3432
  113MOL0     C15142   5.781   9.599   7.668  0.6605 -0.0747 -0.6669
  113MOL0     C15143   5.688   9.672   7.758  0.4378 -0.1677  0.0449
  113MOL0     O15144   5.715   9.613   7.888 -0.1993  0.6022  0.2567
  113MOL0     C15145   5.821   9.668   7.954  0.5845 -0.5882  0.4188
  113MOL0     C15146   5.829   9.810   7.967 -0.0103 -0.4435  0.4066
  113MOL0     C15147   5.937   9.864   8.040  0.5446  0.0056  0.0711
  113MOL0     C15148   6.032   9.783   8.101  0.4030  0.0291 -0.1686
  113MOL0     C15149   6.147   9.849   8.179  0.6241 -0.2998  0.4923
  113MOL0     O15150   6.172   9.975   8.152 -0.4429 -0.2835 -0.0434
  113MOL0     C15151   6.285  10.022   8.215  1.4248  1.2878  0.3223
  113MOL0     C15152   6.269  10.087   8.333  0.0404 -0.3114 -0.1606
  113MOL0     C15153   6.383  10.145   8.398 -0.1127 -0.6480 -0.4682
  113MOL0     C15154   6.514  10.121   8.357  0.1484  0.0394  0.1226
  113MOL0     O15155   6.626  10.162   8.416 -0.6541 -0.7452 -0.5652
  113MOL0     C15156   6.642  10.156   8.554  0.6653 -0.2092 -0.9518
  113MOL0     C15157   6.783  10.216   8.588 -0.0269  0.3961  0.2531
  113MOL0     C15158   6.888  10.109   8.569  0.2806  0.0539  0.1361
  113MOL0     C15159   7.007  10.117   8.670  0.4434 -0.1188 -0.3038
  113MOL0     C15160   7.112  10.004   8.672 -0.4862 -0.5021 -0.1172
  113MOL0     C15161   7.226  10.025   8.568 -0.3030 -0.0096  0.0404
  113MOL0     C15162   7.314   9.892   8.553 -0.7523 -0.1250 -1.3115
  113MOL0     C15163   7.243   9.770   8.500 -0.6897  0.2547 -0.0616
  113MOL0    Cl15164   7.341   9.618   8.536  0.2375  0.3892  0.2527
  113MOL0     C15165   6.523  10.056   8.235  0.4537 -0.4922  0.7134
  113MOL0     C15166   6.417   9.993   8.168  0.3594 -0.0046  0.4565
  113MOL0     O15167   6.200   9.774   8.264  0.4244  0.7249  0.3671
  113MOL0     C15168   6.020   9.641   8.098  0.5624 -0.9699  0.1174
  113MOL0     C15169   5.913   9.587   8.024  0.0872  0.3033  0.0868
  113MOL0     N15170   5.806   9.137   7.516  0.1786  0.2555 -0.6981
  113MOL0     N15171   5.731   9.047   7.467  0.1626  0.0007  0.0068
  113MOL0     C15172   4.562   9.333   7.521 -0.2998  0.4232  0.4818
  113MOL0     C15173   4.482   9.389   7.425  0.0329 -0.5404  0.5109
  113MOL0     C15174   4.252   9.459   7.041  0.9925 -0.7662  0.0401
  113MOL0     C15175   4.110   9.468   7.037 -0.2272  0.6378 -0.9436
  113MOL0     C15176   4.040   9.535   6.934 -0.3209  0.1318  0.6751
  113MOL0     C15177   4.110   9.595   6.834  1.4002  1.0306 -0.2327
  113MOL0     O15178   4.036   9.647   6.731  0.7242  0.4911 -1.0884
  113MOL0     C15179   4.092   9.686   6.602 -0.3444  0.3371 -0.3856
  113MOL0     C15180   4.114   9.839   6.596 -0.4107 -0.5849  1.1833
  113MOL0     C15181   3.974   9.916   6.608 -0.0661 -0.1963 -0.4144
  113MOL0     C15182   3.912   9.924   6.748 -0.3801 -1.1721  0.3220
  113MOL0     C15183   3.818  10.035   6.766 -0.4120  0.1322 -0.2389
  113MOL0     C15184   3.752  10.137   6.780  0.6584  1.3230 -0.3209
  113MOL0     C15185   4.241   9.591   6.836 -1.0571 -0.7782 -0.3238
  113MOL0     C15186   4.323   9.528   6.932  0.4560  0.4427 -0.0415
  113MOL0     C15187   4.470   9.513   6.917 -0.6253  0.5205  0.4044
  113MOL0     H15188   4.586   9.231   7.145 -0.8291  0.4862 -0.1780
  113MOL0     H15189   4.731   9.128   7.314  1.5934  2.3492  1.6514
  113MOL0     H15190   4.843   9.334   7.579 -1.9872 -0.9444 -2.1287
  113MOL0     H15191   4.765   9.284   7.728  0.3311 -0.5400  0.0320
  113MOL0     H15192   4.902   9.120   7.795  2.6999  0.7448  1.3193
  113MOL0     H15193   5.006   9.232   7.737 -0.6098 -0.9068  2.1961
  113MOL0     H15194   4.972   9.125   7.485 -1.9962 -1.9309 -1.2277
  113MOL0     H15195   4.920   8.984   7.585  1.1029  0.3089 -0.4788
  113MOL0     H15196   5.191   9.133   7.624 -0.2319 -0.9868  3.0721
  113MOL0     H15197   5.149   8.982   7.688  0.9272  3.1055  2.2310
  113MOL0     H15198   5.155   8.877   7.463 -3.7259  2.5276 -1.2972
  113MOL0     H15199   5.219   9.025   7.396  0.7283 -0.3892  0.1386
  113MOL0     H15200   5.398   9.039   7.576 -2.2089  1.6064 -1.6915
  113MOL0     H15201   5.363   8.865   7.609 -0.1460 -0.2657  0.1623
  113MOL0     H15202   5.399   8.860   7.338 -2.3204  1.6306  0.8395
  113MOL0     H15203   5.536   8.844   7.451 -0.4360 -0.0982 -0.8455
  113MOL0     H15204   5.569   8.986   7.268 -2.8758 -1.4603 -0.8779
  113MOL0     H15205   5.438   9.086   7.309 -1.8121 -0.3307  0.4766
  113MOL0     H15206   5.541   9.310   7.421  2.0625  3.2116 -0.1847
  113MOL0     H15207   5.901   9.380   7.547  0.7610 -1.1479  0.2110
  113MOL0     H15208   5.789   9.447   7.424 -0.3531 -0.0371  0.5172
  113MOL0     H15209   5.621   9.486   7.588  1.2164 -0.0442 -1.3664
  113MOL0     H15210   5.702   9.401   7.719 -0.7127  1.0436  0.8079
  113MOL0     H15211   5.788   9.660   7.578 -0.2387  0.6290 -0.2764
  113MOL0     H15212   5.878   9.590   7.717 -0.5309 -0.0459  1.8423
  113MOL0     H15213   5.584   9.658   7.728 -0.4139 -0.4912  2.8392
  113MOL0     H15214   5.703   9.780   7.762 -2.7432  0.3138  1.9998
  113MOL0     H15215   5.766   9.882   7.916  1.4593  0.6277  0.0253
  113MOL0     H15216   5.942   9.971   8.057  1.0048  0.1594 -0.9698
  113MOL0     H15217   6.168  10.115   8.360  0.1033  0.0260 -0.2723
  113MOL0     H15218   6.368  10.197   8.491  0.8710 -2.2225  0.6265
  113MOL0     H15219   6.571  10.221   8.606  0.6615  0.4182 -1.7130
  113MOL0     H15220   6.626  10.056   8.594  2.5541  0.4897  1.8378
  113MOL0     H15221   6.803  10.303   8.525 -0.4964 -0.0571 -0.5402
  113MOL0     H15222   6.768  10.250   8.691 -4.5382 -0.1621 -0.0180
  113MOL0     H15223   6.847  10.007   8.565  3.0205 -1.1517  0.8662
  113MOL0     H15224   6.934  10.122   8.471 -2.3176 -4.0177 -1.9193
  113MOL0     H15225   6.962  10.116   8.770  0.3668  1.2176 -0.3126
  113MOL0     H15226   7.048  10.217   8.660  0.9910 -0.1975  0.9807
  113MOL0     H15227   7.051   9.914   8.665 -0.7405 -0.5834  2.2368
  113MOL0     H15228   7.167   9.986   8.765  0.6801 -0.2175 -0.7293
  113MOL0     H15229   7.184  10.045   8.469  0.3154  1.7550  0.1015
  113MOL0     H15230   7.282  10.117   8.588 -2.2334  1.2078  0.0578
  113MOL0     H15231   7.355   9.876   8.653 -3.6451 -2.1609 -0.3212
  113MOL0     H15232   7.391   9.918   8.479  0.3671 -1.4459 -0.6595
  113MOL0     H15233   7.143   9.766   8.543 -0.4375  2.1542  0.8289
  113MOL0     H15234   7.241   9.789   8.392  2.1116  3.1760  0.2484
  113MOL0     H15235   6.623  10.028   8.205  0.1355 -0.6600 -0.2224
  113MOL0     H15236   6.433   9.934   8.079 -0.4260 -0.2863  0.4897
  113MOL0     H15237   6.079   9.574   8.160 -0.1452 -1.0866  0.6826
  113MOL0     H15238   5.896   9.480   8.028 -0.2063  0.3343 -0.2906
  113MOL0     H15239   4.556   9.368   7.623 -0.6513  1.3044  0.1694
  113MOL0     H15240   4.431   9.477   7.463  1.7501 -0.6056  3.1737
  113MOL0     H15241   4.050   9.415   7.110  1.8538  1.3797  1.4534
  113MOL0     H15242   3.932   9.544   6.925 -0.0786  1.2309 -3.0924
  113MOL0     H15243   4.012   9.680   6.527 -1.6229  2.1655  0.7296
  113MOL0     H15244   4.177   9.629   6.564 -2.4569 -1.9065 -2.0506
  113MOL0     H15245   4.147   9.877   6.499  1.0231  1.6134  2.4137
  113MOL0     H15246   4.188   9.880   6.666 -0.6621  3.9441 -0.8417
  113MOL0     H15247   3.899   9.865   6.549  0.3246 -0.9827 -0.2401
  113MOL0     H15248   3.995  10.018   6.574 -2.3551 -0.9982 -5.0215
  113MOL0     H15249   3.863   9.828   6.769  0.2712 -1.3557  1.0564
  113MOL0     H15250   3.991   9.939   6.822  1.6684 -0.7744 -1.8530
  113MOL0     H15251   3.691  10.224   6.789 -0.0441  0.7109  1.5175
  113MOL0     H15252   4.290   9.649   6.758 -1.5259 -1.5194 -1.1924
  113MOL0     H15253   4.489   9.405   6.915 -1.9539  0.2705 -0.1105
  113MOL0     H15254   4.500   9.557   6.822 -0.4696 -2.3170 -0.9732
  113MOL0     H15255   4.529   9.567   6.992  0.8548  1.0914 -1.1374
  114MOL0     O15256   9.811   8.346   2.708 -0.1562  0.5606 -0.1400
  114MOL0     C15257   9.876   8.351   2.607 -0.4370 -0.2601 -0.3157
  114MOL0     O15258  10.014   8.356   2.606 -0.6949 -0.5563  0.0032
  114MOL0     C15259  10.084   8.402   2.721  0.6566  0.2918 -0.0468
  114MOL0     C15260  10.034   8.493   2.813  0.1337 -0.5609 -0.4920
  114MOL0     C15261  10.111   8.551   2.917 -0.3960  0.5391 -0.2290
  114MOL0     C15262  10.244   8.501   2.928  1.0176  0.6442 -0.4418
  114MOL0     O15263  10.333   8.528   3.028  0.3827 -0.5584  0.2877
  114MOL0     C15264  10.287   8.615   3.127  0.4173 -0.1322  0.0276
  114MOL0     C15265  10.385   8.597   3.247  0.6157 -0.0883  0.2397
  114MOL0     C15266  10.318   8.628   3.379  0.1554 -0.5921 -1.7478
  114MOL0     C15267  10.356   8.776   3.414  0.1177 -0.3100  0.5351
  114MOL0     C15268  10.292   8.829   3.541 -0.5130 -0.4813  0.3960
  114MOL0     C15269  10.349   8.783   3.671  0.2957 -0.4321 -0.4278
  114MOL0     C15270  10.490   8.845   3.702  0.0443 -0.2603  1.1474
  114MOL0     C15271  10.518   8.812   3.850 -0.7223 -0.1926  0.7052
  114MOL0     N15272  10.667   8.838   3.879 -0.5474  0.0047 -0.6369
  114MOL0     C15273  10.773   8.741   3.867  0.2089 -0.4824  0.4528
  114MOL0     C15274  10.875   8.807   3.911  0.0241 -0.0283  1.0196
  114MOL0     C15275  11.018   8.765   3.927  0.0495 -0.4223  0.0177
  114MOL0     C15276  11.055   8.637   3.848  1.0047 -0.5653  0.1824
  114MOL0     C15277  11.187   8.560   3.887 -0.1852  0.3261 -0.1605
  114MOL0     C15278  11.320   8.639   3.866 -0.3017 -0.1995  0.1944
  114MOL0     O15279  11.318   8.776   3.916 -0.0249 -0.6159 -0.5849
  114MOL0     C15280  11.437   8.842   3.915  0.1960  0.6059  0.3725
  114MOL0     C15281  11.419   8.979   3.932  0.3742  0.1402 -1.1611
  114MOL0     C15282  11.528   9.066   3.944  0.0329  0.7203 -0.5139
  114MOL0     C15283  11.660   9.009   3.930  0.0289  0.8851  0.7882
  114MOL0     C15284  11.785   9.106   3.926 -0.1147  0.0102  0.6386
  114MOL0     O15285  11.905   9.058   3.868 -0.0342  0.0824  0.0073
  114MOL0     C15286  12.001   9.158   3.851  0.0518 -0.0594 -0.7446
  114MOL0     C15287  11.981   9.245   3.743 -0.0978 -1.0232 -0.1975
  114MOL0     C15288  12.063   9.354   3.726  0.3640  0.4954  0.0954
  114MOL0     C15289  12.174   9.365   3.814 -0.0058  0.8416 -0.2695
  114MOL0     O15290  12.272   9.463   3.810  0.7419  0.2762  0.3156
  114MOL0     C15291  12.226   9.588   3.752 -0.2413  0.3165 -0.3778
  114MOL0     C15292  12.310   9.701   3.820 -0.4733  0.2604  1.0656
  114MOL0     C15293  12.461   9.671   3.803  1.0064 -0.1518  0.2487
  114MOL0     C15294  12.516   9.596   3.925  0.5515  0.1646 -0.6263
  114MOL0     C15295  12.673   9.594   3.928  0.7844  0.3154 -1.0994
  114MOL0     C15296  12.722   9.563   4.066 -0.0462 -0.0488 -0.2010
  114MOL0     C15297  12.873   9.576   4.075 -0.3386  0.2415 -0.1778
  114MOL0     C15298  12.925   9.588   4.217 -0.3808  0.5507  0.7443
  114MOL0    Cl15299  12.860   9.728   4.309  0.3413  0.0537 -0.2001
  114MOL0     C15300  12.198   9.271   3.914 -0.2431 -0.0156  0.2468
  114MOL0     C15301  12.105   9.167   3.938 -1.0802 -0.4947 -0.0124
  114MOL0     O15302  11.767   9.218   3.967  0.2116  0.1178 -0.8039
  114MOL0     C15303  11.680   8.868   3.911  0.3962 -0.4759  0.9912
  114MOL0     C15304  11.569   8.790   3.904 -0.4734 -0.3062 -0.2379
  114MOL0     N15305  10.839   8.928   3.959  0.1801  0.1476  0.0471
  114MOL0     N15306  10.708   8.945   3.941  0.0591 -0.4001 -0.0259
  114MOL0     C15307  10.295   8.410   2.838 -0.6009  0.3994  0.0705
  114MOL0     C15308  10.213   8.361   2.735  0.1365 -0.3727 -0.6444
  114MOL0     C15309   9.803   8.332   2.485  0.2501 -0.1021 -0.2377
  114MOL0     C15310   9.869   8.259   2.374  0.7446 -0.0561 -0.5633
  114MOL0     C15311   9.811   8.239   2.253 -1.1674  0.2404  0.0476
  114MOL0     C15312   9.685   8.291   2.236  0.8409 -0.7454 -0.3425
  114MOL0     O15313   9.617   8.284   2.117  0.5083  0.7508  0.5505
  114MOL0     C15314   9.672   8.205   2.011  0.9596  0.1683 -0.6798
  114MOL0     C15315   9.557   8.178   1.917 -0.8679  0.2623 -0.1375
  114MOL0     C15316   9.602   8.109   1.782 -0.0840  0.4966  0.0928
  114MOL0     C15317   9.496   8.127   1.668 -0.3735 -0.1266  0.2478
  114MOL0     C15318   9.574   8.089   1.552  0.3847  0.0344  0.5608
  114MOL0     C15319   9.640   8.078   1.457 -0.2444  1.0958  0.2107
  114MOL0     C15320   9.611   8.359   2.338 -0.3344  0.0906  0.8737
  114MOL0     C15321   9.674   8.387   2.460 -0.3482 -0.2676  0.0728
  114MOL0     C15322   9.599   8.470   2.561 -0.8703 -0.0489  0.3110
  114MOL0     H15323   9.930   8.523   2.800  0.9641  1.8517 -2.2539
  114MOL0     H15324  10.075   8.635   2.976  2.1042 -0.0417  2.3444
  114MOL0     H15325  10.294   8.722   3.106 -2.6545  0.3740  1.0756
  114MOL0     H15326  10.188   8.589   3.165  0.1404  1.6730  0.6374
  114MOL0     H15327  10.478   8.653   3.231  0.7849  0.2330  2.1576
  114MOL0     H15328  10.406   8.490   3.260 -1.3975 -0.6359 -0.7108
  114MOL0     H15329  10.356   8.578   3.468 -0.9158 -0.3875 -1.1520
  114MOL0     H15330  10.210   8.611   3.385 -0.2776  1.9732 -0.8335
  114MOL0     H15331  10.465   8.788   3.420  0.3118 -1.7899  0.3376
  114MOL0     H15332  10.320   8.840   3.332  0.4966  2.4345  2.3703
  114MOL0     H15333  10.294   8.938   3.550 -2.9081 -0.0366 -2.5373
  114MOL0     H15334  10.190   8.788   3.539 -0.7566  0.1012  0.4483
  114MOL0     H15335  10.283   8.807   3.756  0.4204 -2.2606  0.2408
  114MOL0     H15336  10.355   8.674   3.678 -0.0270 -0.5835 -2.1259
  114MOL0     H15337  10.484   8.953   3.690 -0.5272 -0.3004  1.0495
  114MOL0     H15338  10.573   8.806   3.642  0.1122 -0.2907  1.2621
  114MOL0     H15339  10.455   8.868   3.919 -0.5358  0.3497  0.4432
  114MOL0     H15340  10.498   8.706   3.869 -0.5558 -0.2903  0.3385
  114MOL0     H15341  10.760   8.636   3.842 -1.2794 -0.0012 -1.0174
  114MOL0     H15342  11.085   8.844   3.892  0.1925  1.3624  3.7709
  114MOL0     H15343  11.038   8.750   4.034 -2.2902 -5.5008  0.0292
  114MOL0     H15344  10.968   8.572   3.862  2.0434 -1.5805  2.4918
  114MOL0     H15345  11.043   8.669   3.744  0.3730 -0.2217  0.3544
  114MOL0     H15346  11.193   8.471   3.823  0.3652  0.1639  0.1050
  114MOL0     H15347  11.190   8.529   3.992  0.4593 -0.1778 -0.3166
  114MOL0     H15348  11.352   8.630   3.761 -0.9234 -3.6117  0.1933
  114MOL0     H15349  11.401   8.587   3.919  1.0907 -0.9200 -2.4175
  114MOL0     H15350  11.314   9.005   3.938  0.3274  0.4732 -2.9945
  114MOL0     H15351  11.527   9.171   3.972  2.2205  0.7683 -0.4302
  114MOL0     H15352  11.908   9.211   3.669 -1.5029 -2.0918  1.6030
  114MOL0     H15353  12.051   9.420   3.640 -0.0021 -0.4133 -0.5599
  114MOL0     H15354  12.245   9.598   3.645  1.0204  4.0259  0.0601
  114MOL0     H15355  12.117   9.598   3.766 -0.2774 -0.9055  0.3748
  114MOL0     H15356  12.282   9.789   3.762 -2.0940 -2.0920 -2.0142
  114MOL0     H15357  12.277   9.712   3.924 -2.5449 -1.8249  0.7118
  114MOL0     H15358  12.487   9.625   3.707  3.5894 -0.9187  1.2009
  114MOL0     H15359  12.505   9.770   3.794 -1.9965  1.1146 -2.0936
  114MOL0     H15360  12.478   9.494   3.934 -1.1393  0.9120  1.8567
  114MOL0     H15361  12.483   9.644   4.018  1.9504  0.0587 -0.0489
  114MOL0     H15362  12.717   9.692   3.905  2.5117  0.4256  2.1047
  114MOL0     H15363  12.703   9.518   3.855  1.1073  0.0829 -0.7299
  114MOL0     H15364  12.672   9.623   4.142 -0.3081  1.1553 -1.2912
  114MOL0     H15365  12.697   9.458   4.083  0.7023 -0.2570 -0.3442
  114MOL0     H15366  12.903   9.666   4.020 -0.9440  0.0000 -0.9134
  114MOL0     H15367  12.912   9.483   4.031 -3.2957 -2.3823  2.2886
  114MOL0     H15368  12.901   9.496   4.271 -1.3329  0.2231 -0.2055
  114MOL0     H15369  13.034   9.585   4.214 -0.1059  3.6295  2.9796
  114MOL0     H15370  12.286   9.291   3.975  0.3694 -0.1807 -0.5561
  114MOL0     H15371  12.120   9.107   4.027  2.2446  0.5940  0.3158
  114MOL0     H15372  11.782   8.831   3.904  0.1240 -0.9516 -1.9320
  114MOL0     H15373  11.590   8.684   3.891  1.3641  0.2116 -2.0165
  114MOL0     H15374  10.396   8.371   2.850 -1.5054 -1.9814  0.4006
  114MOL0     H15375  10.250   8.287   2.665 -1.2973 -1.4629 -0.3128
  114MOL0     H15376   9.962   8.213   2.406 -0.7463 -3.1818 -0.3866
  114MOL0     H15377   9.876   8.190   2.181 -0.5773 -0.6119  1.1146
  114MOL0     H15378   9.714   8.112   2.049  0.0305 -0.0985 -0.2891
  114MOL0     H15379   9.750   8.269   1.968  0.5765  1.1261  0.0135
  114MOL0     H15380   9.504   8.269   1.887 -2.9070 -1.0113 -0.5702
  114MOL0     H15381   9.485   8.123   1.978  0.7376  0.7102  2.2866
  114MOL0     H15382   9.633   8.005   1.791 -0.7801 -0.0348 -2.7235
  114MOL0     H15383   9.694   8.157   1.747  0.6617 -1.3444 -0.5556
  114MOL0     H15384   9.415   8.055   1.684 -0.5376 -0.1722 -0.7201
  114MOL0     H15385   9.462   8.231   1.669 -0.8245 -0.2595  1.8545
  114MOL0     H15386   9.714   8.047   1.385  2.2447  0.2069  2.9268
  114MOL0     H15387   9.510   8.380   2.307 -0.1942 -2.9203 -2.1357
  114MOL0     H15388   9.673   8.535   2.607 -1.2176 -0.1181  0.9838
  114MOL0     H15389   9.525   8.535   2.513 -1.3695 -1.5838 -1.1154
  114MOL0     H15390   9.552   8.413   2.642 -2.5968  0.2861 -0.3961
  115MOL0     O15391   3.931   0.406   8.992  0.9501  0.1868  0.6260
  115MOL0     C15392   3.857   0.442   9.088 -0.7808  0.3993  0.6085
  115MOL0     O15393   3.907   0.480   9.208 -0.1499 -0.3646  0.2051
  115MOL0     C15394   4.035   0.439   9.248  0.4925  0.5599 -0.0085
  115MOL0     C15395   4.134   0.535   9.289  0.2835  1.0095  0.0340
  115MOL0     C15396   4.260   0.489   9.336  1.0197 -0.7184 -0.5920
  115MOL0     C15397   4.281   0.355   9.343 -0.4678  0.2216 -1.2137
  115MOL0     O15398   4.385   0.306   9.415 -0.0202 -0.0075  0.1566
  115MOL0     C15399   4.505   0.297   9.340  0.4343 -0.1294  0.4731
  115MOL0     C15400   4.605   0.222   9.431 -0.0062  0.4699  0.4085
  115MOL0     C15401   4.684   0.304   9.533 -0.1572  0.3238  0.4958
  115MOL0     C15402   4.808   0.222   9.562  0.5286  0.1737  0.1832
  115MOL0     C15403   4.898   0.309   9.666 -0.6466 -0.0865  0.5569
  115MOL0     C15404   5.043   0.264   9.658 -0.5583  0.1702 -0.0852
  115MOL0     C15405   5.144   0.298   9.773 -1.0633  0.4866 -0.6714
  115MOL0     C15406   5.162   0.445   9.782 -0.3615  0.6755  0.4545
  115MOL0     N15407   5.301   0.490   9.808 -0.3898  0.0855 -0.6337
  115MOL0     C15408   5.366   0.469   9.929 -0.2124 -0.2290 -0.8683
  115MOL0     C15409   5.476   0.538   9.926  0.0159  0.0529 -0.0414
  115MOL0     C15410   5.564   0.571  10.050 -0.5449  1.1449 -0.3172
  115MOL0     C15411   5.685   0.478  10.075 -0.8864  0.0700 -0.8334
  115MOL0     C15412   5.786   0.495   9.960 -0.4389  0.3276 -0.2312
  115MOL0     C15413   5.896   0.387   9.966  0.1789 -0.1288  0.8757
  115MOL0     O15414   5.992   0.422  10.065  0.0891  0.0093  0.7123
  115MOL0     C15415   6.095   0.512  10.065  0.2622  0.0755 -0.4790
  115MOL0     C15416   6.125   0.577   9.952  0.5776  0.9317 -0.0554
  115MOL0     C15417   6.233   0.668   9.940 -0.1809  0.5288 -0.6564
  115MOL0     C15418   6.315   0.693  10.054  0.6201  0.8071 -0.8638
  115MOL0     C15419   6.435   0.770  10.046 -0.4864 -0.2118 -0.1694
  115MOL0     O15420   6.505   0.752   9.928 -0.0372  0.9400  0.1652
  115MOL0     C15421   6.632   0.811   9.919 -0.0389 -0.4159 -0.6815
  115MOL0     C15422   6.659   0.861   9.792  0.3719  0.1440 -0.3422
  115MOL0     C15423   6.794   0.906   9.761 -0.4579  0.0575  0.0822
  115MOL0     C15424   6.893   0.907   9.857  0.8971  1.4293 -0.1533
  115MOL0     O15425   7.012   0.962   9.820  0.6104 -0.0398 -0.2796
  115MOL0     C15426   7.124   0.909   9.886 -1.0739  0.2749  0.0786
  115MOL0     C15427   7.240   0.995   9.845  0.1319  0.2884 -0.4298
  115MOL0     C15428   7.363   0.979   9.939 -0.9083 -0.3483  0.3292
  115MOL0     C15429   7.486   1.055   9.879 -0.0248  0.5583  0.6291
  115MOL0     C15430   7.611   1.079   9.968 -0.4273  0.0681 -0.3270
  115MOL0     C15431   7.664   0.948  10.020  0.3732  0.7795 -0.5280
  115MOL0     C15432   7.810   0.971  10.024  0.3515  0.0241  0.2486
  115MOL0     C15433   7.886   0.876  10.121 -0.0859 -0.3307  0.3700
  115MOL0    Cl15434   7.821   0.891  10.288  0.2374  0.1027 -0.3586
  115MOL0     C15435   6.866   0.857   9.993  1.1615  0.1133  0.0637
  115MOL0     C15436   6.736   0.806  10.017  0.1713  0.2996 -0.7391
  115MOL0     O15437   6.478   0.842  10.142 -0.3028  0.5054 -0.2640
  115MOL0     C15438   6.283   0.625  10.176 -0.1867 -0.7335 -0.0593
  115MOL0     C15439   6.164   0.549  10.179 -0.2038  0.4736  0.0853
  115MOL0     N15440   5.484   0.594   9.795 -0.2031  0.0954  0.3936
  115MOL0     N15441   5.380   0.569   9.727 -0.0929  0.8281  0.1069
  115MOL0     C15442   4.193   0.256   9.306  0.3769 -0.4042  0.0610
  115MOL0     C15443   4.071   0.302   9.245 -0.3951 -0.1998  0.0088
  115MOL0     C15444   3.725   0.499   9.062  0.6205  0.5452  0.6139
  115MOL0     C15445   3.669   0.581   9.159 -0.5319  0.4095 -0.6976
  115MOL0     C15446   3.542   0.635   9.144 -0.5448 -0.4633  0.0772
  115MOL0     C15447   3.467   0.595   9.041  0.5937  0.7836 -0.2967
  115MOL0     O15448   3.335   0.622   9.020  0.3699  0.3907  0.8589
  115MOL0     C15449   3.262   0.719   9.098  0.3658  0.2845  0.4741
  115MOL0     C15450   3.117   0.713   9.043 -0.4952 -0.6598  0.4243
  115MOL0     C15451   3.023   0.814   9.097  0.0148  0.3216  0.2400
  115MOL0     C15452   2.881   0.808   9.035  0.5724 -0.1747 -0.6879
  115MOL0     C15453   2.792   0.883   9.123 -0.3596 -0.0251  0.3652
  115MOL0     C15454   2.716   0.940   9.197  0.6969 -0.7369  0.0641
  115MOL0     C15455   3.518   0.504   8.946  0.7190 -0.5788  0.5024
  115MOL0     C15456   3.647   0.464   8.950  0.2316 -0.0418 -0.2473
  115MOL0     C15457   3.701   0.379   8.831 -0.4434  0.0368 -0.3577
  115MOL0     H15458   4.111   0.639   9.310  0.1600  0.8767  0.5768
  115MOL0     H15459   4.334   0.555   9.380  1.3387 -0.4723 -1.4933
  115MOL0     H15460   4.495   0.238   9.248 -0.5232  0.9959 -0.1761
  115MOL0     H15461   4.549   0.393   9.309  3.1862 -0.4893  2.8152
  115MOL0     H15462   4.677   0.178   9.362  1.0714 -0.1715  1.8898
  115MOL0     H15463   4.554   0.138   9.479  4.6183 -1.2143  2.9748
  115MOL0     H15464   4.631   0.322   9.627 -2.0784 -2.2586  0.0358
  115MOL0     H15465   4.711   0.397   9.483 -2.1574 -0.0378 -1.4006
  115MOL0     H15466   4.786   0.129   9.615  2.4286 -0.3859  0.0588
  115MOL0     H15467   4.869   0.196   9.475  0.7641  0.9402  0.1119
  115MOL0     H15468   4.895   0.416   9.646 -1.0298  0.0546  1.3069
  115MOL0     H15469   4.878   0.303   9.774  0.7348  1.0735  0.8945
  115MOL0     H15470   5.037   0.155   9.643  1.7655 -0.2207  1.2397
  115MOL0     H15471   5.090   0.296   9.564  1.4220 -2.1648  0.0080
  115MOL0     H15472   5.238   0.249   9.746  0.0617  0.2988  2.9807
  115MOL0     H15473   5.117   0.253   9.869  0.9060  3.0197  1.2484
  115MOL0     H15474   5.132   0.501   9.693  2.8860 -2.2531 -2.7843
  115MOL0     H15475   5.095   0.470   9.866  0.6477  4.5259  0.2851
  115MOL0     H15476   5.324   0.436  10.024  0.1124  1.9819  0.1250
  115MOL0     H15477   5.589   0.677  10.040 -2.4435  1.7289  0.7481
  115MOL0     H15478   5.495   0.580  10.134  0.6080  1.8449  0.5801
  115MOL0     H15479   5.728   0.509  10.170 -1.5071 -0.8606 -0.2359
  115MOL0     H15480   5.664   0.372  10.086 -0.4231  0.0228 -0.3713
  115MOL0     H15481   5.834   0.593   9.955  1.0508 -0.0746  3.1595
  115MOL0     H15482   5.727   0.485   9.868  1.3342  2.1018 -1.6461
  115MOL0     H15483   5.942   0.366   9.869 -2.4189 -0.6622 -0.3169
  115MOL0     H15484   5.854   0.290   9.995 -3.5789  1.1308  0.1336
  115MOL0     H15485   6.063   0.569   9.864  1.9261 -0.2696 -0.9526
  115MOL0     H15486   6.248   0.715   9.844 -0.0604  2.5706  0.3012
  115MOL0     H15487   6.590   0.844   9.709 -1.5273  0.6054  1.0716
  115MOL0     H15488   6.829   0.946   9.667  3.2559  0.3681  1.4397
  115MOL0     H15489   7.107   0.916   9.994 -2.1229  3.8313 -0.1916
  115MOL0     H15490   7.139   0.803   9.861  2.9377  1.5543 -4.3535
  115MOL0     H15491   7.254   0.975   9.738 -2.3916 -1.5200 -0.5043
  115MOL0     H15492   7.212   1.101   9.851 -4.2419 -0.7548  0.5845
  115MOL0     H15493   7.335   1.031  10.031  0.4266  0.2792  0.4157
  115MOL0     H15494   7.388   0.874   9.956 -3.1266 -1.2920 -1.7611
  115MOL0     H15495   7.437   1.149   9.849 -0.8431 -0.4955 -1.5424
  115MOL0     H15496   7.516   1.003   9.787 -0.2884  0.8551  0.3690
  115MOL0     H15497   7.596   1.149  10.051 -1.2219 -0.0912 -0.3332
  115MOL0     H15498   7.681   1.124   9.896 -2.0460  3.5785  0.0864
  115MOL0     H15499   7.621   0.926  10.119 -1.1025  1.6415 -0.9534
  115MOL0     H15500   7.644   0.867   9.949  1.4810  1.5250 -1.7303
  115MOL0     H15501   7.829   1.073  10.059  0.5188  0.2901 -0.5901
  115MOL0     H15502   7.857   0.970   9.926  1.9434  1.2188  0.9429
  115MOL0     H15503   7.876   0.771  10.095 -0.4208  0.0322 -1.0484
  115MOL0     H15504   7.993   0.897  10.129  0.2090 -1.9532  1.0779
  115MOL0     H15505   6.928   0.851  10.082 -0.6078 -4.2887  1.2538
  115MOL0     H15506   6.712   0.766  10.115 -3.6699 -1.0697 -2.0493
  115MOL0     H15507   6.331   0.657  10.269  2.2050  0.7742 -1.7021
  115MOL0     H15508   6.158   0.510  10.280  0.8539 -0.3086 -0.1370
  115MOL0     H15509   4.216   0.150   9.301  2.4538  0.0112 -0.2271
  115MOL0     H15510   3.991   0.236   9.215 -0.5227 -0.4717  0.9155
  115MOL0     H15511   3.720   0.609   9.251 -2.5678  1.4353  0.1863
  115MOL0     H15512   3.516   0.703   9.224  0.7497  0.2912 -0.1254
  115MOL0     H15513   3.307   0.816   9.078 -2.0305  1.2149 -0.8631
  115MOL0     H15514   3.273   0.681   9.200 -0.0757 -0.1436  0.3690
  115MOL0     H15515   3.081   0.614   9.072  0.9959 -0.7855  2.0358
  115MOL0     H15516   3.107   0.718   8.934  1.5451 -1.1757  0.1619
  115MOL0     H15517   3.061   0.912   9.068 -1.3873  0.1302 -2.5767
  115MOL0     H15518   3.028   0.815   9.206 -0.0443  0.0634  0.2445
  115MOL0     H15519   2.880   0.858   8.937 -1.8694 -1.3939 -1.3882
  115MOL0     H15520   2.832   0.711   9.025 -1.0129  0.2863  1.8264
  115MOL0     H15521   2.643   1.005   9.241  0.0142  0.0326 -2.0779
  115MOL0     H15522   3.454   0.464   8.867 -0.4879 -2.2572  2.2312
  115MOL0     H15523   3.623   0.346   8.761  1.4680 -0.0912 -2.5561
  115MOL0     H15524   3.777   0.428   8.769 -0.6662  1.2118  0.2632
  115MOL0     H15525   3.744   0.294   8.883  1.8030  1.0956 -0.3731
  116MOL0     O15526   9.621  10.682   7.077 -0.5100  0.0875 -0.4595
  116MOL0     C15527   9.688  10.656   7.178  0.7204  0.7007  0.6441
  116MOL0     O15528   9.638  10.585   7.290  0.0163 -0.0656  0.4506
  116MOL0     C15529   9.502  10.586   7.311  0.3391 -0.0992  0.5303
  116MOL0     C15530   9.423  10.702   7.325 -0.0695 -0.4415  0.4008
  116MOL0     C15531   9.285  10.704   7.339 -0.6002  0.2516 -0.4672
  116MOL0     C15532   9.213  10.582   7.356 -0.2147 -0.7075 -0.0722
  116MOL0     O15533   9.072  10.567   7.367  0.4240  0.2357 -0.1508
  116MOL0     C15534   8.993  10.684   7.409 -0.3755  0.7836  0.4812
  116MOL0     C15535   8.846  10.643   7.437 -0.4220 -0.7175 -0.2499
  116MOL0     C15536   8.776  10.571   7.312  1.4125 -0.1834 -0.1214
  116MOL0     C15537   8.628  10.568   7.336  0.6400  0.0574 -1.1389
  116MOL0     C15538   8.536  10.515   7.232  0.1199  0.2855  0.8963
  116MOL0     C15539   8.564  10.367   7.192 -0.1342  0.5605  0.3136
  116MOL0     C15540   8.435  10.318   7.114  0.5088 -1.4692  0.7836
  116MOL0     C15541   8.436  10.362   6.967 -0.5889 -0.3864  0.1649
  116MOL0     N15542   8.314  10.345   6.898 -0.3309 -0.3260 -0.2535
  116MOL0     C15543   8.252  10.227   6.883 -0.0798  0.3785 -0.8955
  116MOL0     C15544   8.136  10.263   6.823  0.2805 -0.3092 -0.1299
  116MOL0     C15545   8.018  10.181   6.801 -0.1192 -0.9158 -1.2812
  116MOL0     C15546   7.950  10.198   6.676  0.8705 -0.7632 -0.6940
  116MOL0     C15547   8.031  10.186   6.543 -0.2368 -0.0511  0.2758
  116MOL0     C15548   8.076  10.046   6.516 -0.4317 -0.0087 -0.0878
  116MOL0     O15549   8.074   9.999   6.379 -0.4266 -0.0241 -0.3111
  116MOL0     C15550   8.160  10.046   6.280  0.0987 -0.6174 -0.1441
  116MOL0     C15551   8.152  10.003   6.149  0.7092 -0.2894 -0.1689
  116MOL0     C15552   8.252  10.031   6.054  1.1533  0.1714  0.4038
  116MOL0     C15553   8.362  10.118   6.097 -0.2417  0.9551  0.4714
  116MOL0     C15554   8.483  10.146   6.005  1.1335  0.5703  0.1952
  116MOL0     O15555   8.600  10.181   6.064 -0.2743 -0.6810  0.7820
  116MOL0     C15556   8.716  10.210   5.995  0.5507 -1.0637 -0.4311
  116MOL0     C15557   8.809  10.299   6.055 -0.4019 -0.0128 -1.2295
  116MOL0     C15558   8.937  10.328   6.005  0.1875  0.3668  0.4228
  116MOL0     C15559   8.969  10.276   5.878 -0.7146  0.1727 -0.1079
  116MOL0     O15560   9.090  10.295   5.813  0.5023  0.0201 -0.8419
  116MOL0     C15561   9.143  10.428   5.807 -0.1852 -0.3197  0.7255
  116MOL0     C15562   9.257  10.460   5.892  0.3355  0.2422 -0.4058
  116MOL0     C15563   9.353  10.336   5.917 -0.1702  0.0008 -0.7106
  116MOL0     C15564   9.432  10.309   5.791  0.6842  0.0838  0.4056
  116MOL0     C15565   9.552  10.223   5.802  0.9535  0.2365  0.1335
  116MOL0     C15566   9.670  10.313   5.834 -0.4020  0.2561 -0.0595
  116MOL0     C15567   9.799  10.227   5.838 -0.2824 -0.1485 -0.4911
  116MOL0     C15568   9.859  10.204   5.704  0.5108  0.0297 -0.5225
  116MOL0    Cl15569  10.038  10.211   5.698 -0.0819 -0.2771 -0.0349
  116MOL0     C15570   8.888  10.177   5.823  0.3358 -0.1389 -0.5902
  116MOL0     C15571   8.761  10.138   5.886 -0.8438  0.3306 -0.0029
  116MOL0     O15572   8.453  10.139   5.885  0.1166  0.2496  0.3404
  116MOL0     C15573   8.365  10.156   6.232  0.0036 -0.2137  0.4283
  116MOL0     C15574   8.270  10.129   6.317  0.2787  0.3508  0.2313
  116MOL0     N15575   8.133  10.408   6.803  0.4548  0.7819  0.6970
  116MOL0     N15576   8.244  10.452   6.849  0.9235 -0.1221  0.7843
  116MOL0     C15577   9.296  10.467   7.346  0.3172  0.6171  0.0054
  116MOL0     C15578   9.436  10.472   7.325 -0.4485  0.1573 -0.1026
  116MOL0     C15579   9.833  10.697   7.188  0.2185 -0.2913 -0.1602
  116MOL0     C15580   9.924  10.612   7.259 -0.8472  0.1936  0.8745
  116MOL0     C15581  10.057  10.656   7.270  1.0656  0.9037 -0.9489
  116MOL0     C15582  10.100  10.776   7.226 -0.3667 -0.1115 -1.0156
  116MOL0     O15583  10.236  10.810   7.233  0.4056  0.3686  0.0604
  116MOL0     C15584  10.257  10.937   7.295 -0.6289  1.1193  0.1232
  116MOL0     C15585  10.226  10.924   7.448  0.1056 -0.1829 -0.2895
  116MOL0     C15586  10.303  10.803   7.512 -0.6912  0.3968 -0.5891
  116MOL0     C15587  10.335  10.814   7.657  0.2507 -0.3353  0.6111
  116MOL0     C15588  10.240  10.861   7.749 -0.1474 -0.5456  0.5671
  116MOL0     C15589  10.184  10.930   7.836 -0.4683  0.3217  0.1784
  116MOL0     C15590  10.013  10.854   7.153  0.7122  0.1379  0.1625
  116MOL0     C15591   9.881  10.817   7.126 -0.7764  0.2422 -0.9175
  116MOL0     C15592   9.791  10.916   7.048  0.0753  0.1224  0.0253
  116MOL0     H15593   9.486  10.791   7.324 -1.4089  0.5594 -1.6245
  116MOL0     H15594   9.239  10.802   7.341 -1.8616 -0.2001 -2.8788
  116MOL0     H15595   9.037  10.735   7.495  0.2509  0.4540  0.3616
  116MOL0     H15596   8.990  10.761   7.331 -0.2896  0.6455  0.3402
  116MOL0     H15597   8.790  10.733   7.465 -1.5006 -1.0210 -1.3356
  116MOL0     H15598   8.849  10.584   7.529  0.4741  2.5277  1.9762
  116MOL0     H15599   8.822  10.473   7.294 -0.4111 -1.1208  0.0914
  116MOL0     H15600   8.792  10.628   7.220 -0.3439 -1.4314 -1.2474
  116MOL0     H15601   8.610  10.499   7.419 -0.8436  2.5784  0.7743
  116MOL0     H15602   8.598  10.668   7.368 -1.3930 -0.7433 -0.3644
  116MOL0     H15603   8.432  10.509   7.267  0.0057 -2.7121  0.2986
  116MOL0     H15604   8.539  10.576   7.141  0.7537  0.0875  0.7810
  116MOL0     H15605   8.650  10.348   7.127 -0.8047 -0.9251 -0.1854
  116MOL0     H15606   8.571  10.304   7.282 -0.4810 -0.1022 -0.1180
  116MOL0     H15607   8.344  10.354   7.162  0.7527 -1.2925  1.1216
  116MOL0     H15608   8.414  10.210   7.108 -4.0677 -0.7053 -0.1017
  116MOL0     H15609   8.468  10.467   6.957  1.0800 -0.8449  0.2642
  116MOL0     H15610   8.511  10.302   6.915 -2.8417  0.0586 -3.9564
  116MOL0     H15611   8.287  10.128   6.908 -1.2445  0.4362  1.2445
  116MOL0     H15612   8.050  10.076   6.801 -0.4682 -1.1102  1.9163
  116MOL0     H15613   7.947  10.205   6.880  2.5882  2.9524  0.2901
  116MOL0     H15614   7.881  10.114   6.673  0.6327 -0.5563 -1.0390
  116MOL0     H15615   7.895  10.293   6.673  0.6828 -0.8655 -3.5236
  116MOL0     H15616   8.117  10.252   6.548 -0.0526 -0.3508  1.3031
  116MOL0     H15617   7.970  10.211   6.455  0.6065  2.6433  0.3766
  116MOL0     H15618   7.998   9.985   6.563  0.8764  0.5983  3.1719
  116MOL0     H15619   8.160  10.029   6.583 -0.5963  2.1731  0.7311
  116MOL0     H15620   8.064   9.942   6.127 -0.4364  1.7885 -1.6724
  116MOL0     H15621   8.246   9.995   5.952 -1.8205  0.1031  0.5048
  116MOL0     H15622   8.780  10.328   6.156 -0.2259 -0.1427 -1.1401
  116MOL0     H15623   9.020  10.366   6.063 -0.0159 -2.4130  2.7898
  116MOL0     H15624   9.172  10.437   5.702 -2.6272  0.7463  0.0763
  116MOL0     H15625   9.072  10.510   5.815  1.5514  1.4391 -0.7269
  116MOL0     H15626   9.311  10.541   5.843 -2.9281  2.1893 -1.0486
  116MOL0     H15627   9.219  10.498   5.987  3.0475  2.1375  0.0327
  116MOL0     H15628   9.434  10.353   5.988  1.2137 -1.5842 -1.8341
  116MOL0     H15629   9.292  10.252   5.950  0.3599  0.0616  0.4596
  116MOL0     H15630   9.455  10.410   5.755  0.4373  1.0906  2.8938
  116MOL0     H15631   9.358  10.262   5.725  0.5378  0.1201  0.5431
  116MOL0     H15632   9.574  10.190   5.700  0.5365  3.2177 -1.0250
  116MOL0     H15633   9.542  10.133   5.863  1.1060 -0.2882 -0.6007
  116MOL0     H15634   9.688  10.391   5.760  1.8769 -0.8179 -0.7127
  116MOL0     H15635   9.646  10.369   5.925 -2.0060  1.6449 -1.2466
  116MOL0     H15636   9.780  10.131   5.887 -1.9574 -0.1739 -1.1163
  116MOL0     H15637   9.867  10.280   5.905  1.5699  0.1191 -2.4554
  116MOL0     H15638   9.811  10.114   5.666 -1.1933  1.3184 -1.5562
  116MOL0     H15639   9.822  10.279   5.634  0.8051 -0.0388 -0.7537
  116MOL0     H15640   8.920  10.136   5.727  1.6776  0.4415 -0.4038
  116MOL0     H15641   8.706  10.060   5.835 -2.4875  1.0936  0.5200
  116MOL0     H15642   8.456  10.211   6.258  1.4118 -0.3166 -3.5736
  116MOL0     H15643   8.281  10.165   6.419  1.4714  2.7226 -0.6637
  116MOL0     H15644   9.255  10.367   7.349  1.7013  0.0494  1.3358
  116MOL0     H15645   9.478  10.377   7.293  0.6388  0.1516  1.2441
  116MOL0     H15646   9.889  10.518   7.300 -1.7347 -0.3769 -1.0637
  116MOL0     H15647  10.124  10.598   7.333 -0.0413 -0.0558 -0.6244
  116MOL0     H15648  10.208  11.026   7.255 -1.5446  2.1150  3.1477
  116MOL0     H15649  10.363  10.962   7.284  0.1076  0.0231  3.5075
  116MOL0     H15650  10.122  10.934   7.478  0.0189  0.7978 -0.8787
  116MOL0     H15651  10.265  11.018   7.489  1.5547 -0.6414 -0.5662
  116MOL0     H15652  10.408  10.797   7.481 -0.4761  0.8725  0.0183
  116MOL0     H15653  10.248  10.711   7.493  0.1686 -0.1574 -0.4363
  116MOL0     H15654  10.364  10.715   7.695 -2.0901 -0.6099  1.9120
  116MOL0     H15655  10.419  10.883   7.666  1.1696 -1.4477  0.8420
  116MOL0     H15656  10.113  10.966   7.908 -1.9806 -3.7595  1.0020
  116MOL0     H15657  10.062  10.940   7.110 -2.8533  2.0549 -0.3886
  116MOL0     H15658   9.776  10.879   6.946 -3.1822  2.6137 -0.5722
  116MOL0     H15659   9.694  10.923   7.098  0.6368 -1.6390  1.4595
  116MOL0     H15660   9.836  11.015   7.060  2.7013 -0.7841 -1.5541
  117MOL0     O15661  10.649   3.238   8.339  0.1944  0.3891 -0.2414
  117MOL0     C15662  10.552   3.169   8.363  0.5172 -0.3178 -0.4279
  117MOL0     O15663  10.553   3.069   8.447  0.2359 -0.0765 -0.5766
  117MOL0     C15664  10.660   3.049   8.531 -0.0343  0.4867  0.2230
  117MOL0     C15665  10.781   3.000   8.486  0.0762  0.9357 -0.4824
  117MOL0     C15666  10.893   2.981   8.572  0.4523 -0.1694 -0.8215
  117MOL0     C15667  10.880   3.031   8.697 -0.3668 -0.7447 -0.4287
  117MOL0     O15668  10.991   3.013   8.782  0.0354  1.1280  0.6829
  117MOL0     C15669  10.974   2.955   8.911 -0.2081  0.5381 -0.3764
  117MOL0     C15670  10.972   2.809   8.884  0.3700 -0.5421 -0.3919
  117MOL0     C15671  11.117   2.763   8.880 -0.3544  0.7160  0.5285
  117MOL0     C15672  11.109   2.630   8.817  0.4792 -0.4286 -0.9298
  117MOL0     C15673  11.247   2.569   8.796  0.0107  0.2986  0.4081
  117MOL0     C15674  11.221   2.422   8.753 -0.3095  0.0212 -0.2767
  117MOL0     C15675  11.353   2.347   8.741  0.5047 -1.1949 -0.5558
  117MOL0     C15676  11.355   2.226   8.648 -0.1582 -0.3871 -0.2498
  117MOL0     N15677  11.381   2.263   8.508  0.0800 -0.0035  0.1840
  117MOL0     C15678  11.299   2.340   8.426  0.1917 -1.0170 -0.3579
  117MOL0     C15679  11.360   2.336   8.304  0.5594  0.1699  0.0265
  117MOL0     C15680  11.317   2.423   8.190  0.5225  0.4338  1.1816
  117MOL0     C15681  11.228   2.347   8.091  1.0156 -0.5648 -0.0730
  117MOL0     C15682  11.175   2.442   7.981  0.3310 -0.2735 -0.2088
  117MOL0     C15683  11.032   2.398   7.922 -0.4089  0.3411 -0.9406
  117MOL0     O15684  11.052   2.363   7.784  0.4481 -0.4754 -0.0050
  117MOL0     C15685  10.941   2.353   7.702  0.3691 -0.4029 -0.4866
  117MOL0     C15686  10.806   2.384   7.741  0.0542  0.2868 -0.3600
  117MOL0     C15687  10.697   2.391   7.651 -1.3801 -0.6635 -0.1906
  117MOL0     C15688  10.727   2.349   7.520  0.7251 -0.4595  0.3635
  117MOL0     C15689  10.604   2.342   7.428 -0.2965 -0.6956 -0.5170
  117MOL0     O15690  10.481   2.376   7.477 -0.3736 -0.0381 -0.0896
  117MOL0     C15691  10.362   2.379   7.397 -0.2555 -0.0475 -0.2907
  117MOL0     C15692  10.341   2.299   7.283  0.1050 -0.2005  0.0331
  117MOL0     C15693  10.216   2.297   7.221 -0.4162  0.0767 -0.5565
  117MOL0     C15694  10.110   2.370   7.264 -0.0467 -1.4303 -0.8083
  117MOL0     O15695   9.989   2.384   7.197  0.4962 -0.5657 -0.8491
  117MOL0     C15696   9.979   2.370   7.058 -0.3372  0.1295 -0.1600
  117MOL0     C15697   9.836   2.359   7.012 -0.6022  0.1344 -0.8055
  117MOL0     C15698   9.827   2.337   6.865  0.3193  0.9694  0.0659
  117MOL0     C15699   9.845   2.193   6.818 -0.1328 -0.7419 -0.5411
  117MOL0     C15700   9.810   2.157   6.673 -1.4662 -0.8658 -0.2387
  117MOL0     C15701   9.663   2.165   6.632 -0.1300  0.7933  0.9463
  117MOL0     C15702   9.573   2.055   6.704 -0.1742 -0.2784 -0.4507
  117MOL0     C15703   9.432   2.054   6.650  1.7115 -0.8986  0.1586
  117MOL0    Cl15704   9.352   1.899   6.682  0.4210 -0.0482 -0.1296
  117MOL0     C15705  10.128   2.441   7.383 -0.0403  0.3516 -0.0495
  117MOL0     C15706  10.262   2.460   7.440 -0.0857 -0.6148  0.2573
  117MOL0     O15707  10.623   2.324   7.308 -0.3736 -0.2466 -0.0324
  117MOL0     C15708  10.855   2.309   7.478  0.1722  0.3455  0.6780
  117MOL0     C15709  10.960   2.320   7.570  0.1543 -0.1991  0.5759
  117MOL0     N15710  11.472   2.256   8.311  0.3524  0.3615  0.1484
  117MOL0     N15711  11.475   2.207   8.431 -0.7442  0.7106 -0.0165
  117MOL0     C15712  10.758   3.077   8.743 -0.7328 -0.5233 -0.5905
  117MOL0     C15713  10.646   3.088   8.660  0.2607  0.0638 -0.1795
  117MOL0     C15714  10.424   3.194   8.293  0.2009  0.2101 -0.1987
  117MOL0     C15715  10.407   3.161   8.161 -0.2653 -0.4400 -0.2024
  117MOL0     C15716  10.281   3.159   8.103 -0.2331  0.0124  0.2749
  117MOL0     C15717  10.169   3.210   8.166 -0.3309 -0.8607 -0.1988
  117MOL0     O15718  10.046   3.204   8.096 -0.5898  0.0417 -0.1959
  117MOL0     C15719   9.926   3.252   8.161 -0.0435  0.6032  0.1990
  117MOL0     C15720   9.806   3.179   8.111 -0.0455 -0.1863 -0.3898
  117MOL0     C15721   9.808   3.157   7.958  0.1116 -0.1903 -0.4742
  117MOL0     C15722   9.808   3.269   7.858  0.0909  0.2195 -0.0992
  117MOL0     C15723   9.671   3.331   7.852  0.2035  0.7056 -0.0445
  117MOL0     C15724   9.554   3.362   7.845  0.3098  0.5096  0.0391
  117MOL0     C15725  10.188   3.253   8.294  0.0824 -0.0832  0.4957
  117MOL0     C15726  10.310   3.239   8.367 -0.5513  0.9301 -0.4857
  117MOL0     C15727  10.308   3.254   8.523  0.0883 -0.5185 -0.5903
  117MOL0     H15728  10.800   2.976   8.382  6.4561 -0.4550  0.5580
  117MOL0     H15729  10.978   2.918   8.546 -1.4084 -2.7925 -0.9866
  117MOL0     H15730  11.051   2.983   8.984  0.6717 -0.6746 -0.7940
  117MOL0     H15731  10.879   2.984   8.956 -0.8838 -0.6104 -1.0272
  117MOL0     H15732  10.929   2.782   8.787  1.1758 -4.7688  0.2382
  117MOL0     H15733  10.920   2.760   8.967  1.7971  0.7025  1.3113
  117MOL0     H15734  11.172   2.766   8.974 -0.9765  1.8571  0.8852
  117MOL0     H15735  11.171   2.824   8.807  1.0896 -1.7334 -0.5673
  117MOL0     H15736  11.038   2.570   8.875 -1.5179 -0.6845 -3.4839
  117MOL0     H15737  11.067   2.640   8.717 -1.4693  1.8629  0.0169
  117MOL0     H15738  11.288   2.623   8.711 -1.2559 -0.7801 -0.9381
  117MOL0     H15739  11.304   2.582   8.889 -1.0709  0.4271  1.0679
  117MOL0     H15740  11.179   2.374   8.842 -0.1990 -1.8130 -1.1730
  117MOL0     H15741  11.167   2.412   8.659 -4.1482 -0.0705  1.7310
  117MOL0     H15742  11.384   2.308   8.838 -1.6383  1.0209  1.1601
  117MOL0     H15743  11.428   2.417   8.702 -1.7798  2.6714  1.4175
  117MOL0     H15744  11.421   2.156   8.699 -0.4204  0.7521  1.7639
  117MOL0     H15745  11.252   2.194   8.629 -0.6558  2.6350 -4.0632
  117MOL0     H15746  11.216   2.407   8.445 -0.7794 -1.3915 -2.8728
  117MOL0     H15747  11.269   2.512   8.234  0.2435  1.6924 -1.4765
  117MOL0     H15748  11.407   2.449   8.134  0.5108  0.2958  1.1016
  117MOL0     H15749  11.277   2.264   8.040  2.2250 -0.2728  0.5742
  117MOL0     H15750  11.142   2.316   8.150  0.6288  0.2779 -0.1783
  117MOL0     H15751  11.252   2.461   7.906  2.6946 -0.4881  1.9764
  117MOL0     H15752  11.150   2.534   8.034 -1.7103 -0.5389 -0.6575
  117MOL0     H15753  10.959   2.474   7.950 -1.0170 -0.6918  0.4029
  117MOL0     H15754  11.003   2.306   7.974 -4.3544  0.9392 -1.8253
  117MOL0     H15755  10.778   2.413   7.841 -2.0223 -0.6495 -0.6223
  117MOL0     H15756  10.596   2.413   7.684 -2.2780 -3.3206 -0.9187
  117MOL0     H15757  10.423   2.236   7.252  0.1490 -0.0757 -0.1025
  117MOL0     H15758  10.191   2.222   7.146  0.3130 -0.5030 -0.2376
  117MOL0     H15759  10.023   2.456   7.006 -2.6614  0.3928 -1.8856
  117MOL0     H15760  10.030   2.278   7.028 -1.4668 -0.2424 -1.0164
  117MOL0     H15761   9.789   2.279   7.071  0.1475 -0.9673 -1.6571
  117MOL0     H15762   9.785   2.455   7.024 -2.6387 -0.8260 -1.3244
  117MOL0     H15763   9.723   2.364   6.843 -0.2930  1.7591  3.4116
  117MOL0     H15764   9.887   2.401   6.800 -0.4816  0.6321 -1.0434
  117MOL0     H15765   9.796   2.124   6.888 -2.7214  0.0614 -1.4525
  117MOL0     H15766   9.951   2.170   6.835  0.3907  1.1062 -0.9672
  117MOL0     H15767   9.842   2.053   6.660  1.3681  0.0259 -1.1785
  117MOL0     H15768   9.873   2.219   6.609 -0.0515 -0.4878  1.4701
  117MOL0     H15769   9.614   2.260   6.658 -2.1279 -0.1151  0.6817
  117MOL0     H15770   9.651   2.155   6.524 -1.0337  0.1891  1.0910
  117MOL0     H15771   9.578   2.061   6.813  0.8681 -0.1868 -0.4858
  117MOL0     H15772   9.619   1.965   6.662  0.1813 -0.8827  1.1385
  117MOL0     H15773   9.376   2.136   6.695  0.8373  0.2392 -2.7922
  117MOL0     H15774   9.433   2.068   6.542 -1.1563  1.5361  0.3103
  117MOL0     H15775  10.045   2.491   7.433  1.5198  0.0433  3.0813
  117MOL0     H15776  10.277   2.531   7.521  1.4504  0.7221 -1.1343
  117MOL0     H15777  10.855   2.283   7.372 -0.4867  1.3500  0.4155
  117MOL0     H15778  11.065   2.303   7.551  0.3594  3.2449 -2.3350
  117MOL0     H15779  10.755   3.121   8.842 -1.0763 -1.5585 -0.1293
  117MOL0     H15780  10.551   3.123   8.700 -1.1490 -2.1825 -1.3304
  117MOL0     H15781  10.490   3.112   8.113 -0.5301 -0.7689 -0.3325
  117MOL0     H15782  10.266   3.126   8.000 -1.5252  1.3574 -0.0088
  117MOL0     H15783   9.912   3.357   8.134  1.4262  0.6524 -0.4649
  117MOL0     H15784   9.921   3.253   8.270  1.1624  1.3820  0.2631
  117MOL0     H15785   9.717   3.238   8.134 -1.6358 -2.8056  0.6602
  117MOL0     H15786   9.793   3.088   8.169 -2.3356 -0.5488 -1.3317
  117MOL0     H15787   9.721   3.100   7.923 -3.1867  2.6433  2.3413
  117MOL0     H15788   9.893   3.089   7.944  1.3734  1.5631 -1.6906
  117MOL0     H15789   9.876   3.348   7.889  0.9307 -0.3888 -0.3455
  117MOL0     H15790   9.844   3.230   7.762  1.0304 -0.2138  0.4101
  117MOL0     H15791   9.455   3.400   7.854  1.0089  2.2108  0.8883
  117MOL0     H15792  10.107   3.295   8.353  2.4039 -0.1096  3.9790
  117MOL0     H15793  10.217   3.229   8.579  2.3292 -0.4015  3.5429
  117MOL0     H15794  10.386   3.204   8.581 -0.1319  0.0840  0.2472
  117MOL0     H15795  10.317   3.361   8.546 -0.2506 -0.5838 -0.1379
  118MOL0     O15796   0.063   4.174   9.667 -0.4372 -0.3280 -0.9252
  118MOL0     C15797   0.111   4.263   9.604  0.3165 -0.0299 -0.0357
  118MOL0     O15798   0.225   4.324   9.637 -0.3936  0.4790  0.1203
  118MOL0     C15799   0.282   4.294   9.756 -0.0648 -0.7871  0.1406
  118MOL0     C15800   0.415   4.233   9.755  0.6056  0.3357  0.2664
  118MOL0     C15801   0.474   4.205   9.883 -0.0927 -0.0477  0.3928
  118MOL0     C15802   0.409   4.221  10.000  0.3865  0.7079 -0.4580
  118MOL0     O15803   0.473   4.174  10.108 -0.0084 -0.3415  0.4322
  118MOL0     C15804   0.395   4.113  10.207  0.0660  0.4775  0.2065
  118MOL0     C15805   0.471   4.009  10.282  0.7743  0.4522 -0.4398
  118MOL0     C15806   0.490   3.884  10.192  0.1493  0.0145  0.4401
  118MOL0     C15807   0.551   3.770  10.285  1.2252 -0.0586  0.7085
  118MOL0     C15808   0.564   3.646  10.204  0.0505 -0.3237 -0.0643
  118MOL0     C15809   0.582   3.520  10.282 -0.3791 -0.4929 -1.2216
  118MOL0     C15810   0.700   3.530  10.381  0.1679  0.0431  0.2157
  118MOL0     C15811   0.822   3.477  10.313 -0.5818  0.3505  0.5417
  118MOL0     N15812   0.947   3.489  10.387  0.3368  0.0008 -0.0421
  118MOL0     C15813   1.053   3.550  10.332 -0.2752 -0.4269 -0.6785
  118MOL0     C15814   1.149   3.547  10.434  0.4610  0.6725 -0.5315
  118MOL0     C15815   1.290   3.592  10.417  0.7549  0.7720 -0.1882
  118MOL0     C15816   1.289   3.740  10.437 -0.2124 -0.5647 -0.2561
  118MOL0     C15817   1.427   3.799  10.465 -0.9518  0.0819 -0.8039
  118MOL0     C15818   1.495   3.741  10.583 -0.7593  0.5054 -0.2193
  118MOL0     O15819   1.566   3.622  10.555 -0.8289 -0.4141 -0.1773
  118MOL0     C15820   1.696   3.634  10.505 -0.4041 -0.7895  0.0538
  118MOL0     C15821   1.773   3.515  10.492  0.6387 -0.6583  0.5711
  118MOL0     C15822   1.909   3.524  10.448 -0.3762  0.6268 -0.3684
  118MOL0     C15823   1.964   3.649  10.409 -0.3726 -0.6856 -0.1076
  118MOL0     C15824   2.093   3.675  10.357 -0.3171 -0.2679 -0.2003
  118MOL0     O15825   2.181   3.578  10.390 -0.3737 -0.3392 -0.0734
  118MOL0     C15826   2.317   3.594  10.406 -0.2413 -0.3710  0.6359
  118MOL0     C15827   2.398   3.482  10.419  0.0586  0.1955  0.1938
  118MOL0     C15828   2.538   3.487  10.433  0.0558 -0.4229 -0.3997
  118MOL0     C15829   2.600   3.612  10.453 -0.1966 -0.0178  0.3797
  118MOL0     O15830   2.732   3.623  10.486 -0.0567 -0.2866 -0.6888
  118MOL0     C15831   2.822   3.514  10.469 -0.6389  0.0088  0.0052
  118MOL0     C15832   2.963   3.528  10.526 -0.2306  0.0471 -0.0601
  118MOL0     C15833   3.040   3.655  10.467 -0.5246 -0.0348  0.5197
  118MOL0     C15834   3.190   3.651  10.508 -0.2896  0.1842 -0.0121
  118MOL0     C15835   3.258   3.774  10.447 -0.7278 -0.3738 -0.0992
  118MOL0     C15836   3.398   3.784  10.506  0.8742  0.0278  0.0697
  118MOL0     C15837   3.473   3.866  10.403  0.8617  0.3951 -0.0044
  118MOL0     C15838   3.594   3.934  10.465  0.2433 -0.8771 -0.8130
  118MOL0    Cl15839   3.710   3.814  10.517 -0.2462  0.6459  0.2976
  118MOL0     C15840   2.522   3.726  10.436  0.2658  0.0718  0.4521
  118MOL0     C15841   2.382   3.716  10.419 -0.4996 -1.0514 -0.3296
  118MOL0     O15842   2.115   3.775  10.298  0.1426 -0.3694  0.7001
  118MOL0     C15843   1.880   3.762  10.409  0.6305 -0.2938 -0.0534
  118MOL0     C15844   1.755   3.753  10.464 -0.2095  0.2689 -0.1156
  118MOL0     N15845   1.090   3.495  10.546 -0.1611 -0.5631  0.2583
  118MOL0     N15846   0.969   3.469  10.515 -0.2211  0.2997 -0.1524
  118MOL0     C15847   0.287   4.279   9.996  0.7500  0.4843  1.5856
  118MOL0     C15848   0.220   4.318   9.877 -0.4296 -0.6376 -0.0863
  118MOL0     C15849   0.031   4.320   9.486 -0.5224  0.2550  0.3440
  118MOL0     C15850   0.108   4.372   9.373 -0.0302  0.5043 -1.6461
  118MOL0     C15851   0.060   4.416   9.259  0.4688 -0.6443  0.5488
  118MOL0     C15852  -0.073   4.398   9.237 -0.4708  0.0641 -0.2073
  118MOL0     O15853  -0.143   4.451   9.129  0.5361 -0.1652 -0.3832
  118MOL0     C15854  -0.066   4.498   9.023 -0.3441 -0.4125  0.3905
  118MOL0     C15855  -0.155   4.536   8.906 -0.1470 -0.8065  0.4162
  118MOL0     C15856  -0.198   4.414   8.822  0.4108 -1.1230 -0.7876
  118MOL0     C15857  -0.322   4.444   8.740 -0.3298 -0.2179 -0.6342
  118MOL0     C15858  -0.304   4.546   8.637  0.4179  0.2306 -1.0277
  118MOL0     C15859  -0.267   4.634   8.563  0.3496  0.6847  0.4563
  118MOL0     C15860  -0.155   4.339   9.334 -0.7053 -0.7464 -0.0540
  118MOL0     C15861  -0.105   4.296   9.455 -0.2377  0.0919 -0.9894
  118MOL0     C15862  -0.202   4.224   9.546  0.3138  0.0690  0.3779
  118MOL0     H15863   0.466   4.217   9.660 -1.5239  0.5036 -0.9615
  118MOL0     H15864   0.575   4.167   9.895  0.9284  0.9516 -3.5600
  118MOL0     H15865   0.372   4.192  10.279  0.3224  0.4213  0.3512
  118MOL0     H15866   0.300   4.074  10.168  0.4516 -1.3147  0.9250
  118MOL0     H15867   0.419   3.982  10.375  1.7745  0.9788  0.2981
  118MOL0     H15868   0.573   4.044  10.301  1.0194 -0.4235 -0.0737
  118MOL0     H15869   0.559   3.904  10.110 -1.0667  0.5046 -0.4812
  118MOL0     H15870   0.398   3.836  10.156  0.3974 -2.5445  2.8044
  118MOL0     H15871   0.644   3.814  10.323  1.4975 -0.0030  0.0049
  118MOL0     H15872   0.480   3.749  10.365 -0.7588 -0.2105 -0.9946
  118MOL0     H15873   0.474   3.636  10.143  1.1406 -2.1564 -1.4589
  118MOL0     H15874   0.643   3.660  10.130  1.9661  1.2727  2.1493
  118MOL0     H15875   0.491   3.505  10.341 -1.2919 -0.1709 -2.5050
  118MOL0     H15876   0.607   3.428  10.229  1.7356 -0.7014  0.0227
  118MOL0     H15877   0.668   3.475  10.470 -0.9738  1.9849  1.0719
  118MOL0     H15878   0.714   3.631  10.421 -0.0681  0.6456 -1.1615
  118MOL0     H15879   0.798   3.370  10.302  1.2073  0.1917 -3.9903
  118MOL0     H15880   0.830   3.508  10.208 -0.4418 -1.7129 -0.1068
  118MOL0     H15881   1.060   3.591  10.232 -0.2108  2.5871  0.4662
  118MOL0     H15882   1.351   3.533  10.486  0.7142  0.8014 -0.1259
  118MOL0     H15883   1.328   3.581  10.315  2.0295  0.6920  0.2768
  118MOL0     H15884   1.252   3.802  10.355 -0.8942  3.0323  2.4854
  118MOL0     H15885   1.226   3.771  10.521  1.0607 -1.7020  1.1768
  118MOL0     H15886   1.423   3.906  10.488  1.6844 -0.6481  4.8298
  118MOL0     H15887   1.493   3.794  10.378 -1.1003 -3.3672 -0.8723
  118MOL0     H15888   1.427   3.698  10.657  2.2214 -2.0762  1.2550
  118MOL0     H15889   1.564   3.812  10.629 -1.8065  1.3133  0.1463
  118MOL0     H15890   1.716   3.426  10.516 -2.1113  0.6936 -0.4801
  118MOL0     H15891   1.964   3.430  10.451  1.0162  1.4377  1.3863
  118MOL0     H15892   2.343   3.388  10.412 -0.2277  0.4681 -1.8733
  118MOL0     H15893   2.597   3.396  10.442 -1.0341 -1.5320 -3.2707
  118MOL0     H15894   2.784   3.429  10.528  1.5937 -0.7684  0.4109
  118MOL0     H15895   2.818   3.486  10.363  1.6652  3.8838 -1.2833
  118MOL0     H15896   2.954   3.537  10.635 -0.5828  0.3206 -0.1104
  118MOL0     H15897   3.019   3.438  10.499 -0.5897  0.2768 -1.6389
  118MOL0     H15898   3.036   3.660  10.357 -1.0061 -0.4338  0.5143
  118MOL0     H15899   2.984   3.740  10.508  1.8037  0.6614  2.4115
  118MOL0     H15900   3.244   3.569  10.461  1.3583  0.5368  1.1832
  118MOL0     H15901   3.179   3.638  10.616 -2.2429 -1.4004 -0.3504
  118MOL0     H15902   3.201   3.866  10.463  0.3405  0.3884 -0.5651
  118MOL0     H15903   3.267   3.771  10.338  2.9861  0.2868  0.0494
  118MOL0     H15904   3.394   3.831  10.605 -0.0007 -0.2012  0.1440
  118MOL0     H15905   3.441   3.684  10.514 -0.0280 -0.2580  1.6525
  118MOL0     H15906   3.405   3.933  10.350 -0.0855 -0.6438 -0.1514
  118MOL0     H15907   3.512   3.799  10.326  3.2811  3.2160 -1.4292
  118MOL0     H15908   3.631   4.011  10.396  0.8894  0.0698  0.5342
  118MOL0     H15909   3.556   3.986  10.553 -2.2887  1.1895 -2.9295
  118MOL0     H15910   2.570   3.823  10.450 -2.4627  1.2628  2.3652
  118MOL0     H15911   2.341   3.816  10.408  1.5202  0.4997  3.8812
  118MOL0     H15912   1.915   3.857  10.369 -0.5356 -0.4776 -1.6041
  118MOL0     H15913   1.712   3.852  10.475 -1.1105 -0.2872  1.8172
  118MOL0     H15914   0.252   4.299  10.096  0.1314 -0.0955  1.4897
  118MOL0     H15915   0.121   4.362   9.890 -0.5581 -0.3167 -1.9761
  118MOL0     H15916   0.216   4.367   9.384 -0.0499  1.2711 -1.0195
  118MOL0     H15917   0.126   4.455   9.183  0.2309  0.5484  0.9414
  118MOL0     H15918  -0.014   4.411   8.981 -3.1187 -0.8302 -2.5856
  118MOL0     H15919   0.010   4.573   9.045 -0.3740 -0.4912  0.7863
  118MOL0     H15920  -0.091   4.612   8.860  1.4001  0.5307  4.3346
  118MOL0     H15921  -0.245   4.583   8.946  0.8759 -0.6713  2.7501
  118MOL0     H15922  -0.225   4.335   8.892  3.2894 -2.8189 -1.4536
  118MOL0     H15923  -0.123   4.382   8.749 -0.1871 -2.2335 -0.9393
  118MOL0     H15924  -0.360   4.354   8.692 -1.5955  0.2953 -0.6305
  118MOL0     H15925  -0.390   4.482   8.817  2.3883  2.2387  0.7638
  118MOL0     H15926  -0.219   4.705   8.499  1.0905 -0.6390 -0.5101
  118MOL0     H15927  -0.259   4.315   9.316 -1.2713 -1.3282  3.3924
  118MOL0     H15928  -0.304   4.221   9.507  0.4388  0.3481  0.0253
  118MOL0     H15929  -0.168   4.120   9.557  1.5868  0.4147 -0.1174
  118MOL0     H15930  -0.214   4.263   9.647  0.0230 -1.5018  0.9817
  119MOL0     O15931  10.250   0.795   3.057  0.1776  0.6687  0.5467
  119MOL0     C15932  10.211   0.707   3.138 -1.3955 -0.2131  0.8859
  119MOL0     O15933  10.289   0.651   3.233 -0.7099 -0.6189  0.4697
  119MOL0     C15934  10.399   0.719   3.268  0.4156  0.6561  0.0210
  119MOL0     C15935  10.411   0.788   3.388 -0.0019  0.5815 -0.7184
  119MOL0     C15936  10.531   0.839   3.435  0.8517 -0.3825  0.1569
  119MOL0     C15937  10.645   0.829   3.356  0.2721  0.1547 -0.1490
  119MOL0     O15938  10.771   0.876   3.388  0.2815 -0.4962 -0.3574
  119MOL0     C15939  10.786   0.996   3.476  0.0869 -0.2274 -0.6276
  119MOL0     C15940  10.934   1.032   3.502  0.4360 -1.0318 -0.3081
  119MOL0     C15941  10.998   0.932   3.597  0.8194  0.0226 -0.5291
  119MOL0     C15942  11.155   0.974   3.598 -0.1907 -0.1786  0.2207
  119MOL0     C15943  11.233   0.890   3.710  0.8685 -0.6226 -0.3922
  119MOL0     C15944  11.382   0.909   3.706 -1.1462  0.1801 -1.5503
  119MOL0     C15945  11.451   0.814   3.605 -0.8160  0.1844  0.2873
  119MOL0     C15946  11.493   0.675   3.647  0.4092  0.8688 -0.3180
  119MOL0     N15947  11.610   0.660   3.732  0.2682 -0.4144  0.7747
  119MOL0     C15948  11.735   0.633   3.676 -0.2955  0.1273 -0.4405
  119MOL0     C15949  11.805   0.572   3.772  0.2302  0.2803  1.0131
  119MOL0     C15950  11.949   0.513   3.775 -0.5380  0.0908  0.6204
  119MOL0     C15951  12.056   0.604   3.711  0.0436 -0.4716  0.3171
  119MOL0     C15952  12.164   0.526   3.639 -1.2429  0.1693 -0.1977
  119MOL0     C15953  12.305   0.583   3.635  0.7536 -0.7281  0.5219
  119MOL0     O15954  12.395   0.500   3.562  0.7686 -0.1606 -0.8592
  119MOL0     C15955  12.528   0.532   3.551 -0.6225  0.0311 -0.1515
  119MOL0     C15956  12.612   0.448   3.476 -0.0465 -0.2653  0.3872
  119MOL0     C15957  12.735   0.484   3.427 -0.6985 -0.4427  0.5150
  119MOL0     C15958  12.797   0.600   3.478  0.4214  0.0658 -0.9568
  119MOL0     C15959  12.930   0.644   3.420 -0.5567 -0.0200  0.6971
  119MOL0     O15960  13.007   0.554   3.350  0.3118  0.1424  0.2126
  119MOL0     C15961  13.117   0.598   3.276  0.9787 -0.1519 -0.9172
  119MOL0     C15962  13.117   0.608   3.142  0.6174 -0.4368  0.4476
  119MOL0     C15963  13.235   0.659   3.076  0.0873  0.8191 -0.1064
  119MOL0     C15964  13.356   0.675   3.147 -0.4320  0.0389  0.8287
  119MOL0     O15965  13.473   0.711   3.079 -0.0167 -0.2897 -0.0732
  119MOL0     C15966  13.581   0.780   3.139 -0.2931 -0.5987 -0.7109
  119MOL0     C15967  13.704   0.690   3.136 -0.6095 -0.7445  0.2486
  119MOL0     C15968  13.799   0.723   3.020 -1.2590 -0.2537 -0.1721
  119MOL0     C15969  13.927   0.801   3.062 -0.6311  1.0370  1.0384
  119MOL0     C15970  14.047   0.777   2.963 -0.9075 -0.1093  0.4141
  119MOL0     C15971  14.022   0.844   2.825  0.2094 -0.3890 -1.2524
  119MOL0     C15972  13.999   0.998   2.830  0.0809  0.0572 -0.2309
  119MOL0     C15973  14.039   1.057   2.691 -0.2482 -0.4815  0.8685
  119MOL0    Cl15974  14.002   1.230   2.701 -0.1810 -0.2198 -0.3884
  119MOL0     C15975  13.350   0.652   3.281 -0.0563 -0.0351 -0.1454
  119MOL0     C15976  13.240   0.617   3.347  0.5185 -0.2394 -0.3361
  119MOL0     O15977  12.962   0.760   3.444  0.0471  0.6678  0.3762
  119MOL0     C15978  12.720   0.675   3.568  0.1888 -0.3696  0.1008
  119MOL0     C15979  12.590   0.649   3.603  0.6345  0.1958 -1.4275
  119MOL0     N15980  11.715   0.547   3.875  0.2347  0.1708 -0.0414
  119MOL0     N15981  11.601   0.601   3.849 -0.2022  0.2853 -0.4454
  119MOL0     C15982  10.647   0.757   3.238  0.3756 -0.9482 -0.1288
  119MOL0     C15983  10.524   0.706   3.195 -0.0323  0.6450  0.9092
  119MOL0     C15984  10.078   0.654   3.102  0.1809 -0.6347 -0.2466
  119MOL0     C15985  10.054   0.525   3.153 -0.2140 -0.5138  0.1845
  119MOL0     C15986   9.939   0.462   3.119  0.5797  0.4421  0.1964
  119MOL0     C15987   9.834   0.521   3.050 -0.1222 -0.3719  0.2041
  119MOL0     O15988   9.715   0.457   3.035 -0.2526 -1.2198 -0.4120
  119MOL0     C15989   9.604   0.531   3.001  0.3640 -0.1360  0.0424
  119MOL0     C15990   9.475   0.454   3.006  0.8909  0.8557  0.3818
  119MOL0     C15991   9.455   0.398   3.158  0.6012  0.1044  0.5356
  119MOL0     C15992   9.331   0.299   3.149 -0.1321  0.4473 -1.0821
  119MOL0     C15993   9.201   0.363   3.185 -0.6387  0.2734  0.5017
  119MOL0     C15994   9.097   0.407   3.219  0.1846  0.2398  0.5558
  119MOL0     C15995   9.854   0.660   3.009  0.7897  0.7408 -0.0673
  119MOL0     C15996   9.979   0.725   3.024  0.2722 -0.5952 -0.3536
  119MOL0     C15997   9.983   0.858   2.965 -0.5357  0.1416 -0.3679
  119MOL0     H15998  10.335   0.801   3.464 -0.3263 -1.6614 -0.5936
  119MOL0     H15999  10.536   0.890   3.531 -0.9391 -1.7777  1.0520
  119MOL0     H16000  10.749   1.086   3.426  0.5140  0.6247  0.5235
  119MOL0     H16001  10.730   0.992   3.570  1.9008 -0.4277  0.5074
  119MOL0     H16002  10.933   1.133   3.545 -0.9737 -1.4392  0.6809
  119MOL0     H16003  10.992   1.037   3.409  1.7498 -2.0650  0.4271
  119MOL0     H16004  10.967   0.839   3.549 -0.0939  0.3129 -0.5165
  119MOL0     H16005  10.960   0.953   3.697 -0.1228  1.2844 -1.1229
  119MOL0     H16006  11.208   0.961   3.504 -2.1338  0.6832 -1.0590
  119MOL0     H16007  11.171   1.078   3.625 -1.7515  0.4142 -1.0023
  119MOL0     H16008  11.187   0.936   3.797 -1.0434  0.7815 -2.0388
  119MOL0     H16009  11.210   0.783   3.716  0.6740 -0.4903  2.4811
  119MOL0     H16010  11.399   1.015   3.684 -0.2644  0.1548 -1.0547
  119MOL0     H16011  11.419   0.879   3.805 -0.0872 -1.0482 -2.2953
  119MOL0     H16012  11.541   0.864   3.567 -0.0358 -2.5802 -1.8338
  119MOL0     H16013  11.380   0.791   3.525 -0.5875  1.5393 -0.3271
  119MOL0     H16014  11.399   0.637   3.687 -0.5522  1.8289 -1.6000
  119MOL0     H16015  11.514   0.611   3.560  0.6997 -0.6427  0.8120
  119MOL0     H16016  11.772   0.658   3.577  2.0232 -1.0077  0.0671
  119MOL0     H16017  11.980   0.501   3.879  0.1248 -1.3773  0.2793
  119MOL0     H16018  11.956   0.411   3.736  2.4302 -0.0033  1.1284
  119MOL0     H16019  12.004   0.675   3.647 -0.4325  2.5938  3.7411
  119MOL0     H16020  12.104   0.663   3.791 -1.0800  0.5220  0.2880
  119MOL0     H16021  12.124   0.522   3.538 -3.4448  0.4372  0.6050
  119MOL0     H16022  12.167   0.423   3.674 -0.4076  0.1331 -0.3602
  119MOL0     H16023  12.351   0.605   3.732 -1.2930  0.1803  1.3497
  119MOL0     H16024  12.292   0.677   3.580  1.4983 -1.1914 -0.4739
  119MOL0     H16025  12.559   0.355   3.457 -0.7469  0.3780 -0.9447
  119MOL0     H16026  12.791   0.423   3.357  1.7263  0.9919  1.0951
  119MOL0     H16027  13.023   0.594   3.090  1.3086  0.2912 -1.0471
  119MOL0     H16028  13.238   0.671   2.968  2.1173  0.2796 -0.1518
  119MOL0     H16029  13.604   0.872   3.086  0.5466 -2.1512 -3.2524
  119MOL0     H16030  13.563   0.805   3.244  0.7429  0.2698 -0.7293
  119MOL0     H16031  13.763   0.708   3.227 -3.7067  1.1992  2.0627
  119MOL0     H16032  13.668   0.587   3.138  0.8680 -1.2770  1.1301
  119MOL0     H16033  13.821   0.631   2.966 -0.8958  0.5752 -1.4953
  119MOL0     H16034  13.751   0.778   2.938  1.5179  1.6060 -0.6877
  119MOL0     H16035  13.963   0.776   3.162 -1.1741  1.4013  1.3272
  119MOL0     H16036  13.903   0.907   3.059  1.1739  1.5572  2.8095
  119MOL0     H16037  14.070   0.671   2.954  0.6795  0.0781  1.7993
  119MOL0     H16038  14.135   0.831   2.999 -1.4923 -0.3050  2.2312
  119MOL0     H16039  14.108   0.802   2.772 -0.5914 -3.5379 -0.3007
  119MOL0     H16040  13.931   0.805   2.778 -0.2252 -0.3254 -0.4760
  119MOL0     H16041  14.074   1.026   2.905  2.0405 -2.7615 -0.9670
  119MOL0     H16042  13.893   1.011   2.852 -0.2480 -1.3855 -0.8516
  119MOL0     H16043  14.145   1.049   2.662 -1.3119 -0.9474 -3.7141
  119MOL0     H16044  13.986   1.020   2.603  1.7227  0.0111 -0.6070
  119MOL0     H16045  13.447   0.647   3.330  0.9221  0.7300 -1.9011
  119MOL0     H16046  13.242   0.582   3.449  1.4520 -0.8821 -0.5561
  119MOL0     H16047  12.763   0.769   3.601  1.0418 -0.3811 -0.9496
  119MOL0     H16048  12.537   0.726   3.658 -1.3541 -1.4091 -0.9651
  119MOL0     H16049  10.738   0.759   3.179  0.0520  1.0704 -0.6372
  119MOL0     H16050  10.538   0.659   3.099 -0.9587  0.1788  0.9902
  119MOL0     H16051  10.125   0.483   3.224  1.2983 -0.5884 -1.3025
  119MOL0     H16052   9.909   0.365   3.159 -4.6695  1.5933 -0.2707
  119MOL0     H16053   9.624   0.577   2.904 -2.1501  1.8443  0.3690
  119MOL0     H16054   9.605   0.614   3.071 -1.6535  1.8366 -2.1083
  119MOL0     H16055   9.484   0.368   2.940 -2.0575  0.6443  0.1493
  119MOL0     H16056   9.395   0.522   2.975 -1.5342  0.0848  4.2669
  119MOL0     H16057   9.437   0.489   3.216  2.2454  0.6766  0.2170
  119MOL0     H16058   9.540   0.356   3.213 -0.0458 -0.4401  1.1470
  119MOL0     H16059   9.320   0.259   3.047  1.0005  0.1781 -1.1128
  119MOL0     H16060   9.344   0.220   3.223  1.0585  1.7960  0.1907
  119MOL0     H16061   9.003   0.438   3.261 -1.1509 -0.0090 -2.0417
  119MOL0     H16062   9.782   0.710   2.945 -1.0577 -0.2688  1.1048
  119MOL0     H16063   9.882   0.899   2.959 -0.5343  0.0568 -1.0627
  119MOL0     H16064  10.050   0.927   3.018 -3.5591  1.0813  2.5910
  119MOL0     H16065  10.001   0.838   2.859  0.2487  0.1876 -0.2533
  120MOL0     O16066   9.093   1.436  10.317 -1.2371 -0.0735  0.0579
  120MOL0     C16067   9.006   1.368  10.267  1.0642 -0.3154  0.1683
  120MOL0     O16068   9.011   1.312  10.140 -0.9811 -0.2434  0.0846
  120MOL0     C16069   9.138   1.285  10.091  0.6531 -0.9959  0.2857
  120MOL0     C16070   9.183   1.154  10.087 -0.6752  0.0448  0.1570
  120MOL0     C16071   9.320   1.125  10.041 -0.2918  0.0030 -0.3999
  120MOL0     C16072   9.402   1.232  10.006  0.3994  0.0199  0.3583
  120MOL0     O16073   9.526   1.204   9.971  0.0619  0.1351 -0.0015
  120MOL0     C16074   9.547   1.111   9.863  0.0370 -0.0776 -0.2323
  120MOL0     C16075   9.667   1.162   9.782 -0.3951 -0.5575 -0.3698
  120MOL0     C16076   9.795   1.143   9.868  0.0191 -0.0676  0.2718
  120MOL0     C16077   9.914   1.232   9.814  0.0535  0.2559 -0.6363
  120MOL0     C16078  10.040   1.209   9.886 -0.1424 -0.3653  0.1011
  120MOL0     C16079  10.085   1.068   9.867  0.2533 -0.4470  0.0615
  120MOL0     C16080  10.236   1.046   9.870  0.4782  0.2566 -0.2853
  120MOL0     C16081  10.266   0.902   9.881  0.3624 -0.1133 -0.5465
  120MOL0     N16082  10.397   0.851   9.908  0.5574  0.2150 -0.8765
  120MOL0     C16083  10.481   0.799   9.811  0.4934  0.1320 -0.6244
  120MOL0     C16084  10.601   0.775   9.876  0.0386 -0.1676  0.3577
  120MOL0     C16085  10.728   0.742   9.807 -0.1248  1.2817  0.5476
  120MOL0     C16086  10.796   0.634   9.891 -0.4146  0.6002  0.1608
  120MOL0     C16087  10.939   0.606   9.827  0.0410  0.2616  0.3008
  120MOL0     C16088  11.025   0.484   9.864  0.2448  0.0789  0.0077
  120MOL0     O16089  11.109   0.452   9.752  0.4938 -1.0107 -0.0189
  120MOL0     C16090  11.225   0.381   9.784 -0.9532  0.4428  0.3672
  120MOL0     C16091  11.241   0.289   9.888 -0.2561 -0.5317  0.1842
  120MOL0     C16092  11.358   0.212   9.907  0.0311 -0.0184  0.4580
  120MOL0     C16093  11.472   0.232   9.817  0.0130  0.1447 -0.0610
  120MOL0     C16094  11.593   0.136   9.814  0.9106 -0.3126 -0.2080
  120MOL0     O16095  11.696   0.173   9.731 -0.0687  0.3968 -0.3602
  120MOL0     C16096  11.803   0.094   9.708 -0.0238  0.3597  0.3335
  120MOL0     C16097  11.923   0.144   9.731  0.0434  0.1375 -0.5590
  120MOL0     C16098  12.042   0.076   9.705 -1.5083 -0.5392 -0.2015
  120MOL0     C16099  12.048  -0.053   9.662 -0.0139 -0.3657  0.8027
  120MOL0     O16100  12.172  -0.104   9.635  0.7990  0.6493  0.2530
  120MOL0     C16101  12.167  -0.242   9.583  0.1599 -0.2979 -0.9979
  120MOL0     C16102  12.313  -0.292   9.569  0.0553 -0.6905  0.3740
  120MOL0     C16103  12.398  -0.217   9.469 -0.9089  0.0372 -0.4905
  120MOL0     C16104  12.527  -0.298   9.451  0.0850  0.6452  0.0046
  120MOL0     C16105  12.613  -0.247   9.339 -0.1775  0.3214  0.1458
  120MOL0     C16106  12.739  -0.333   9.326  0.1202  0.2159  0.0695
  120MOL0     C16107  12.818  -0.311   9.188  0.9722  0.8812 -0.6995
  120MOL0     C16108  12.961  -0.323   9.206 -0.6798 -0.4650  0.8204
  120MOL0    Cl16109  13.051  -0.256   9.069 -0.1268  0.2853 -0.0592
  120MOL0     C16110  11.919  -0.111   9.637 -0.4008 -0.1928  0.1441
  120MOL0     C16111  11.801  -0.039   9.660  0.4503  0.0800  0.4148
  120MOL0     O16112  11.585   0.034   9.884  0.4826 -0.5209  0.0860
  120MOL0     C16113  11.455   0.318   9.710 -0.0947  0.0919  0.0794
  120MOL0     C16114  11.338   0.388   9.694 -0.0865 -1.1091 -0.8396
  120MOL0     N16115  10.585   0.818  10.013  0.6149  0.0034  0.0423
  120MOL0     N16116  10.465   0.865  10.030 -0.2473 -0.9224  1.1115
  120MOL0     C16117   9.350   1.356  10.016  0.0772 -1.0392  0.1891
  120MOL0     C16118   9.220   1.387  10.057  0.3752 -0.2732  0.6801
  120MOL0     C16119   8.873   1.342  10.333  0.8420  0.4242 -0.5994
  120MOL0     C16120   8.778   1.272  10.257  0.1680  0.5846 -0.3161
  120MOL0     C16121   8.644   1.273  10.302  0.4203  0.4117 -0.1542
  120MOL0     C16122   8.611   1.330  10.426 -0.1684  0.0400  0.1102
  120MOL0     O16123   8.478   1.334  10.463  0.3005 -0.1947 -0.0175
  120MOL0     C16124   8.414   1.461  10.440  0.9465 -0.0021 -0.0961
  120MOL0     C16125   8.338   1.507  10.564  0.3125 -0.2764 -0.6395
  120MOL0     C16126   8.230   1.609  10.517 -0.0143  0.6439  1.2204
  120MOL0     C16127   8.160   1.678  10.638  0.2257 -0.4395 -0.3204
  120MOL0     C16128   8.097   1.576  10.717  0.1517  0.6587 -0.0652
  120MOL0     C16129   8.034   1.488  10.769  0.6621 -0.6057 -0.8483
  120MOL0     C16130   8.717   1.376  10.506 -0.7032 -0.4574 -0.3468
  120MOL0     C16131   8.848   1.387  10.462  0.0125 -0.2781  0.5428
  120MOL0     C16132   8.946   1.427  10.560 -1.1697 -0.2093 -1.1745
  120MOL0     H16133   9.117   1.068  10.103  1.1575 -1.1501  1.6726
  120MOL0     H16134   9.357   1.027  10.014  1.0303  0.9058 -2.0506
  120MOL0     H16135   9.559   1.005   9.889 -2.0792 -0.9684 -2.4863
  120MOL0     H16136   9.461   1.114   9.796 -1.1122 -0.5603  1.1686
  120MOL0     H16137   9.654   1.268   9.758  0.7222 -0.3324 -0.0371
  120MOL0     H16138   9.678   1.106   9.689  0.5871  1.1239 -1.3081
  120MOL0     H16139   9.808   1.035   9.868 -0.6110 -0.1599 -0.7549
  120MOL0     H16140   9.770   1.159   9.973 -0.3770  0.0195  0.1667
  120MOL0     H16141   9.922   1.203   9.709  3.0431 -2.3190  0.1446
  120MOL0     H16142   9.888   1.338   9.817 -1.4443  0.0566 -3.3249
  120MOL0     H16143  10.116   1.273   9.841  2.1784 -0.3046  3.6496
  120MOL0     H16144  10.033   1.240   9.991 -0.9396  2.3989 -0.6922
  120MOL0     H16145  10.030   1.008   9.939  0.5069  0.8943  1.4242
  120MOL0     H16146  10.061   1.047   9.762  1.9881 -0.7848 -0.2967
  120MOL0     H16147  10.285   1.082   9.961  1.1913  4.9220 -2.2744
  120MOL0     H16148  10.287   1.100   9.789 -1.1947  0.3142 -1.3406
  120MOL0     H16149  10.196   0.870   9.959  0.1856  0.4003 -0.4935
  120MOL0     H16150  10.240   0.863   9.781  1.9646 -3.7476  0.2767
  120MOL0     H16151  10.469   0.788   9.704 -1.9579 -1.1312 -0.3016
  120MOL0     H16152  10.710   0.718   9.702  2.9656  0.2318  0.1756
  120MOL0     H16153  10.808   0.817   9.801  1.1561 -0.1663 -2.0202
  120MOL0     H16154  10.810   0.665   9.995 -0.1823 -0.0369  0.3280
  120MOL0     H16155  10.729   0.547   9.895  0.9375 -0.4867  3.9657
  120MOL0     H16156  11.006   0.692   9.837  1.4004 -0.6876 -0.4117
  120MOL0     H16157  10.930   0.596   9.718  0.3598  0.6303  0.2362
  120MOL0     H16158  10.967   0.392   9.873 -0.7461  0.6756 -0.0822
  120MOL0     H16159  11.078   0.496   9.959 -2.0923  0.5060  1.3494
  120MOL0     H16160  11.165   0.289   9.966 -0.3685  0.1254  0.0819
  120MOL0     H16161  11.351   0.144   9.991 -1.0551 -0.2728  0.1678
  120MOL0     H16162  11.916   0.241   9.779 -3.9966  0.1662 -0.9356
  120MOL0     H16163  12.133   0.119   9.744 -1.1430 -1.5804  0.1323
  120MOL0     H16164  12.108  -0.306   9.650 -0.3756  1.6873  0.5077
  120MOL0     H16165  12.118  -0.239   9.485  1.5049  0.2444 -1.6825
  120MOL0     H16166  12.371  -0.296   9.662 -2.5840 -1.6913  2.0928
  120MOL0     H16167  12.301  -0.398   9.543 -0.4378 -1.4278  3.1955
  120MOL0     H16168  12.342  -0.208   9.375 -2.1372  1.3487  0.3243
  120MOL0     H16169  12.418  -0.118   9.510  1.9294  0.2821 -2.1973
  120MOL0     H16170  12.506  -0.405   9.442  2.7733  0.0710 -0.1723
  120MOL0     H16171  12.587  -0.297   9.542 -0.9643  0.2794  0.7240
  120MOL0     H16172  12.638  -0.141   9.340  0.9663  0.0643  0.1237
  120MOL0     H16173  12.554  -0.254   9.247  0.1711 -0.5363 -0.0238
  120MOL0     H16174  12.812  -0.316   9.405  0.8714 -3.5168  0.3559
  120MOL0     H16175  12.716  -0.440   9.333 -0.4697  0.3055 -0.4146
  120MOL0     H16176  12.798  -0.208   9.156  0.8426  2.3361  3.5184
  120MOL0     H16177  12.771  -0.388   9.126 -0.6687 -1.5590  3.1991
  120MOL0     H16178  13.005  -0.262   9.286  5.4866  0.9061 -2.9256
  120MOL0     H16179  12.986  -0.429   9.215  0.4998 -0.6944 -3.1176
  120MOL0     H16180  11.887  -0.203   9.590  0.5039 -0.5520  0.2162
  120MOL0     H16181  11.706  -0.091   9.644 -0.4189  1.9809 -1.0237
  120MOL0     H16182  11.535   0.345   9.641  0.7436  0.7603  1.2700
  120MOL0     H16183  11.319   0.459   9.614  0.0118 -0.9268 -0.7017
  120MOL0     H16184   9.419   1.435   9.988  0.9650 -1.3307  1.4801
  120MOL0     H16185   9.189   1.490  10.057  0.5092 -0.2225 -0.4748
  120MOL0     H16186   8.783   1.240  10.153  2.6907  0.6261 -0.2528
  120MOL0     H16187   8.572   1.234  10.232  1.1562 -1.5082  0.1139
  120MOL0     H16188   8.347   1.445  10.355  1.0205 -1.3715  0.0810
  120MOL0     H16189   8.496   1.528  10.414  2.7690 -1.8304  0.6368
  120MOL0     H16190   8.410   1.544  10.638  1.7539  1.1370 -2.6024
  120MOL0     H16191   8.290   1.417  10.604  2.3315 -0.4380  1.6250
  120MOL0     H16192   8.157   1.557  10.455  1.6834 -2.2168  1.4025
  120MOL0     H16193   8.279   1.683  10.452 -0.3177 -0.7209 -0.6563
  120MOL0     H16194   8.229   1.734  10.701 -0.1483 -1.4200  1.0138
  120MOL0     H16195   8.087   1.750  10.602  1.4290 -0.0786 -2.1451
  120MOL0     H16196   7.970   1.421  10.824 -0.0967  1.6358  1.1825
  120MOL0     H16197   8.696   1.405  10.608  0.7678 -1.4859  0.2903
  120MOL0     H16198   8.908   1.416  10.662  1.3335 -3.5075 -0.4119
  120MOL0     H16199   9.034   1.362  10.548  0.4923  1.9698 -1.4960
  120MOL0     H16200   8.974   1.530  10.533 -1.8449  0.3276  0.0829
  121MOL0     O16201   6.239   3.306   2.189 -0.1780  0.5528  0.5096
  121MOL0     C16202   6.287   3.398   2.251 -0.6515 -0.1709 -0.3955
  121MOL0     O16203   6.213   3.503   2.294  0.6487 -0.1888  0.6316
  121MOL0     C16204   6.083   3.497   2.261  0.5348 -0.4169  0.2864
  121MOL0     C16205   6.048   3.548   2.140  1.0361 -1.2096 -0.4410
  121MOL0     C16206   5.916   3.529   2.097  0.5380 -0.4252  0.1069
  121MOL0     C16207   5.820   3.481   2.185  0.9912 -0.4808  0.7914
  121MOL0     O16208   5.690   3.475   2.137  0.2195  0.4977 -0.6160
  121MOL0     C16209   5.580   3.468   2.229  0.2200 -0.2677  0.4373
  121MOL0     C16210   5.446   3.502   2.171 -0.9958  0.1549 -0.1923
  121MOL0     C16211   5.452   3.598   2.049  0.4593  0.3342  0.0448
  121MOL0     C16212   5.316   3.670   2.027 -0.4693 -0.6955 -0.3264
  121MOL0     C16213   5.326   3.771   1.907 -0.5051 -0.3179 -0.0335
  121MOL0     C16214   5.378   3.710   1.780  0.1468 -1.1303  0.1660
  121MOL0     C16215   5.402   3.818   1.671 -0.8035  0.1887  0.5888
  121MOL0     C16216   5.382   3.759   1.534 -0.9363  0.5553 -0.2152
  121MOL0     N16217   5.435   3.844   1.430 -0.7828  0.2313  0.5006
  121MOL0     C16218   5.502   3.797   1.319 -0.5560 -0.4142 -0.3898
  121MOL0     C16219   5.574   3.901   1.267 -0.2217  0.9890  0.4900
  121MOL0     C16220   5.663   3.877   1.146  0.0874  0.5442 -0.0960
  121MOL0     C16221   5.785   3.973   1.165  0.3598  0.1452 -0.1439
  121MOL0     C16222   5.893   3.943   1.071 -0.2577  1.8828  0.8885
  121MOL0     C16223   6.025   3.975   1.140  0.2518 -0.5055  0.6402
  121MOL0     O16224   6.125   3.998   1.040 -0.1903  0.1064  0.0541
  121MOL0     C16225   6.244   3.925   1.044  0.1735  0.2110  0.6511
  121MOL0     C16226   6.274   3.808   1.117 -1.1118  0.3092 -0.0199
  121MOL0     C16227   6.398   3.747   1.121  0.4865  0.0071  0.3109
  121MOL0     C16228   6.499   3.810   1.036 -0.6006 -0.3162 -0.0835
  121MOL0     C16229   6.639   3.768   1.033  0.2792  0.7051  0.6505
  121MOL0     O16230   6.679   3.717   1.152  0.3847 -0.1145  0.1989
  121MOL0     C16231   6.804   3.657   1.154 -0.3678  0.3705  0.3554
  121MOL0     C16232   6.896   3.687   1.252  0.8549 -0.0614  0.1880
  121MOL0     C16233   7.015   3.613   1.277  0.5300 -0.0512 -0.5292
  121MOL0     C16234   7.052   3.514   1.188  0.1722  0.3650  0.5242
  121MOL0     O16235   7.167   3.437   1.203 -0.5389  0.1387  0.3555
  121MOL0     C16236   7.259   3.445   1.319 -0.2429 -1.0285 -0.7562
  121MOL0     C16237   7.387   3.356   1.286  0.1711  0.5083 -0.5863
  121MOL0     C16238   7.492   3.418   1.184 -0.7645  0.1843  0.3819
  121MOL0     C16239   7.592   3.309   1.150  0.1009 -0.1800 -0.4269
  121MOL0     C16240   7.689   3.358   1.037 -0.7840  0.2545  0.1622
  121MOL0     C16241   7.807   3.262   1.014  0.1087  0.4820  0.3714
  121MOL0     C16242   7.912   3.338   0.940  0.3668 -0.1678  0.1491
  121MOL0     C16243   8.046   3.265   0.920  0.4212 -0.0858  0.3910
  121MOL0    Cl16244   8.032   3.127   0.806  0.0957  0.9105 -0.0581
  121MOL0     C16245   6.964   3.483   1.085 -0.5897  0.4905  0.1676
  121MOL0     C16246   6.842   3.555   1.066 -0.2634  0.4332  0.5682
  121MOL0     O16247   6.712   3.801   0.936  1.1027 -0.0854 -0.3760
  121MOL0     C16248   6.462   3.924   0.958 -0.4312  0.4219 -0.1632
  121MOL0     C16249   6.347   3.985   0.968  0.2955  0.4609 -0.2637
  121MOL0     N16250   5.550   4.006   1.347  0.1231 -0.0125  0.1958
  121MOL0     N16251   5.476   3.974   1.447 -1.3053 -0.5817 -0.7625
  121MOL0     C16252   5.859   3.439   2.318  0.6749  0.2213  1.0030
  121MOL0     C16253   5.986   3.449   2.353 -0.4103 -0.0108  0.7443
  121MOL0     C16254   6.438   3.407   2.260 -0.5135 -0.9811  0.7550
  121MOL0     C16255   6.485   3.528   2.313  0.6333  0.0449  0.4174
  121MOL0     C16256   6.621   3.545   2.347 -0.7509 -0.4039  0.4545
  121MOL0     C16257   6.709   3.445   2.317 -0.1493  0.1303  0.5010
  121MOL0     O16258   6.841   3.438   2.351  0.3173  0.3527 -0.0435
  121MOL0     C16259   6.894   3.559   2.408 -0.4265  0.8055 -0.8567
  121MOL0     C16260   7.051   3.530   2.437 -0.7801  0.6069  0.8194
  121MOL0     C16261   7.072   3.422   2.546  1.0160  0.2551  0.6132
  121MOL0     C16262   7.213   3.436   2.611  0.7124 -0.3010 -1.1548
  121MOL0     C16263   7.210   3.532   2.725  0.3172 -1.3456 -0.0595
  121MOL0     C16264   7.203   3.593   2.832  0.9202  1.0327 -0.2686
  121MOL0     C16265   6.660   3.323   2.268 -0.0286  0.8506  0.4476
  121MOL0     C16266   6.523   3.293   2.248 -0.3590 -0.2739  0.3264
  121MOL0     C16267   6.478   3.162   2.184 -0.2928  0.4388 -0.2011
  121MOL0     H16268   6.120   3.615   2.094  0.6672  2.5090  3.7458
  121MOL0     H16269   5.885   3.572   2.003 -0.1771 -0.8875  0.1195
  121MOL0     H16270   5.586   3.375   2.286  0.5085  0.3380  1.4319
  121MOL0     H16271   5.587   3.538   2.313 -1.1574 -3.0005  3.0089
  121MOL0     H16272   5.382   3.554   2.243 -1.8152  0.8909 -1.4313
  121MOL0     H16273   5.395   3.412   2.134 -0.2090 -0.0765 -0.7393
  121MOL0     H16274   5.468   3.548   1.953 -2.2105  0.0512 -0.3410
  121MOL0     H16275   5.531   3.671   2.065  0.2981  0.2002  1.6524
  121MOL0     H16276   5.233   3.599   2.014  0.0693 -1.2436 -0.8231
  121MOL0     H16277   5.290   3.719   2.121  1.1541 -0.4835  0.0501
  121MOL0     H16278   5.222   3.800   1.888 -1.8849 -2.7696  3.0079
  121MOL0     H16279   5.372   3.863   1.945 -0.6965 -0.7170  1.1874
  121MOL0     H16280   5.480   3.671   1.795  0.7858 -1.0808 -3.2268
  121MOL0     H16281   5.310   3.633   1.742 -0.0973 -1.1084  0.5597
  121MOL0     H16282   5.511   3.829   1.677 -0.5739  0.6371 -2.4512
  121MOL0     H16283   5.358   3.918   1.681 -1.4472  0.1273 -1.2306
  121MOL0     H16284   5.437   3.664   1.539  0.1558  1.1500 -0.8613
  121MOL0     H16285   5.274   3.745   1.520 -0.9557 -1.3740  1.3303
  121MOL0     H16286   5.496   3.692   1.292  0.5769 -0.3119 -1.1204
  121MOL0     H16287   5.700   3.775   1.132 -0.4245  0.5118 -1.3414
  121MOL0     H16288   5.604   3.896   1.056 -2.1524 -2.5924  0.5250
  121MOL0     H16289   5.749   4.075   1.150 -2.5135 -0.7618  0.0803
  121MOL0     H16290   5.828   3.961   1.265  1.5604  2.2217 -0.3489
  121MOL0     H16291   5.881   4.001   0.979 -0.5122  1.2121  0.4891
  121MOL0     H16292   5.883   3.839   1.037 -1.2169  2.3744 -0.4301
  121MOL0     H16293   6.043   3.914   1.229  0.7699 -2.4385 -0.7473
  121MOL0     H16294   6.009   4.075   1.183 -0.3658  0.2762 -1.2979
  121MOL0     H16295   6.205   3.767   1.191  0.2765 -1.1130  0.5371
  121MOL0     H16296   6.430   3.657   1.172 -0.3628 -2.6790 -3.4674
  121MOL0     H16297   6.863   3.764   1.321 -3.3204  0.8965 -2.4718
  121MOL0     H16298   7.083   3.638   1.358 -0.1039  0.4857 -0.1579
  121MOL0     H16299   7.287   3.549   1.341 -1.1012 -1.1108  0.8966
  121MOL0     H16300   7.204   3.403   1.404  3.6889 -1.3756  1.8378
  121MOL0     H16301   7.440   3.340   1.381 -1.3330  1.8990  0.5517
  121MOL0     H16302   7.352   3.262   1.242  0.3736  0.7354 -1.2343
  121MOL0     H16303   7.438   3.454   1.097 -0.3687 -1.9317 -0.8087
  121MOL0     H16304   7.535   3.508   1.231  0.8292  0.5744 -1.6638
  121MOL0     H16305   7.550   3.213   1.122 -0.1742  0.0540 -0.8280
  121MOL0     H16306   7.642   3.312   1.247 -2.9040 -0.5857  1.2600
  121MOL0     H16307   7.722   3.460   1.057 -0.4671  0.8734 -2.9268
  121MOL0     H16308   7.640   3.357   0.939 -0.4108  0.0933 -0.0286
  121MOL0     H16309   7.839   3.239   1.116 -1.2751  3.4331  1.5783
  121MOL0     H16310   7.780   3.169   0.964  0.2587  1.3752 -1.4474
  121MOL0     H16311   7.928   3.435   0.988 -0.0606 -0.4999  0.9884
  121MOL0     H16312   7.869   3.350   0.840 -1.5578 -0.1979  0.9165
  121MOL0     H16313   8.130   3.324   0.883  1.7837 -0.0748  3.2590
  121MOL0     H16314   8.076   3.233   1.020 -1.3805  0.4788  1.1612
  121MOL0     H16315   6.987   3.405   1.013 -2.4443  0.8158 -0.8263
  121MOL0     H16316   6.777   3.536   0.981 -1.3585  0.7925  1.2995
  121MOL0     H16317   6.525   3.972   0.883 -3.3995  3.1613 -1.1273
  121MOL0     H16318   6.336   4.069   0.900  5.4279  3.3489  1.9225
  121MOL0     H16319   5.792   3.408   2.398  0.6708  0.5017  1.1110
  121MOL0     H16320   6.013   3.404   2.449 -0.8264 -3.3589 -0.5576
  121MOL0     H16321   6.408   3.603   2.329 -1.1623 -1.4047 -0.9225
  121MOL0     H16322   6.661   3.633   2.395 -0.9653  0.0175 -0.1331
  121MOL0     H16323   6.843   3.578   2.503  4.1523 -2.7532  2.8272
  121MOL0     H16324   6.891   3.646   2.342  1.3497  1.7484  0.2217
  121MOL0     H16325   7.096   3.624   2.469  0.8405  0.1415  0.0270
  121MOL0     H16326   7.111   3.492   2.353 -0.2464  2.8506  0.1291
  121MOL0     H16327   7.065   3.324   2.499  2.6144 -0.0604  0.9605
  121MOL0     H16328   6.997   3.436   2.624  0.0611 -0.3217 -0.1753
  121MOL0     H16329   7.248   3.337   2.640 -3.2940 -1.3216  0.9139
  121MOL0     H16330   7.279   3.475   2.534  2.6971  0.2282  0.7211
  121MOL0     H16331   7.179   3.626   2.931  0.3482 -0.6922  0.2146
  121MOL0     H16332   6.734   3.245   2.262 -1.7008 -0.7076 -1.1109
  121MOL0     H16333   6.395   3.132   2.248 -0.9927 -1.8818 -2.0245
  121MOL0     H16334   6.438   3.185   2.085  0.3462 -0.5117 -0.6956
  121MOL0     H16335   6.551   3.080   2.185  0.6621  1.2542 -1.0239
  122MOL0     O16336   4.870  10.926   8.842 -0.0133  0.2866 -0.5923
  122MOL0     C16337   4.747  10.931   8.853  0.5492  0.2701 -0.5019
  122MOL0     O16338   4.672  11.025   8.785  0.0675 -0.1464  0.3866
  122MOL0     C16339   4.737  11.103   8.694 -0.1703 -0.6866  0.0966
  122MOL0     C16340   4.815  11.217   8.727  0.9853 -0.2667  0.0930
  122MOL0     C16341   4.889  11.291   8.637 -0.1258  0.6953  0.2331
  122MOL0     C16342   4.878  11.267   8.498 -0.2241  0.3689 -0.1394
  122MOL0     O16343   4.947  11.330   8.395 -0.2326  0.7072 -0.2492
  122MOL0     C16344   4.886  11.444   8.327  0.1090  0.6066  0.3535
  122MOL0     C16345   4.937  11.572   8.391  0.1011 -0.2453 -0.9547
  122MOL0     C16346   4.922  11.706   8.309  0.2179 -0.5548 -0.5402
  122MOL0     C16347   4.998  11.827   8.381  0.7818  0.9577 -0.0103
  122MOL0     C16348   4.961  11.962   8.321  0.3689  0.2147  0.2160
  122MOL0     C16349   4.964  11.970   8.166 -0.2576 -0.1156  0.5501
  122MOL0     C16350   4.986  12.107   8.109 -0.2649 -0.6723  0.4743
  122MOL0     C16351   5.135  12.150   8.088 -0.8437 -0.0590  0.9066
  122MOL0     N16352   5.162  12.278   8.022  0.6794 -0.1499  0.3887
  122MOL0     C16353   5.071  12.389   8.020 -0.7687  1.2768 -0.4220
  122MOL0     C16354   5.127  12.480   7.938  0.4828  1.1466 -0.0154
  122MOL0     C16355   5.043  12.601   7.910 -0.7282 -0.7123  0.0326
  122MOL0     C16356   5.089  12.680   7.788 -0.9259 -1.2316 -0.0859
  122MOL0     C16357   5.199  12.789   7.799 -0.0483  0.3324  0.1163
  122MOL0     C16358   5.334  12.734   7.824  0.2445  0.1384 -0.2638
  122MOL0     O16359   5.425  12.838   7.845 -0.0090 -0.0559 -0.6726
  122MOL0     C16360   5.560  12.814   7.869  0.6311 -0.7328  0.4436
  122MOL0     C16361   5.647  12.920   7.882 -0.1452  0.2788  0.5473
  122MOL0     C16362   5.783  12.894   7.912 -0.0697  1.0144 -0.8954
  122MOL0     C16363   5.840  12.772   7.924 -0.1980  0.2928 -0.1928
  122MOL0     C16364   5.982  12.742   7.947 -0.4805  0.3171 -0.1178
  122MOL0     O16365   6.054  12.842   8.001  0.1384 -0.0420 -0.2504
  122MOL0     C16366   6.190  12.812   8.027 -0.7921 -0.1361  0.4179
  122MOL0     C16367   6.232  12.800   8.164 -0.0646  0.4776 -0.4471
  122MOL0     C16368   6.361  12.792   8.206 -0.6157  0.4686 -0.1574
  122MOL0     C16369   6.459  12.791   8.102  0.1753 -0.0684 -0.0136
  122MOL0     O16370   6.592  12.795   8.135  0.6398  0.3095 -0.1992
  122MOL0     C16371   6.682  12.748   8.040 -0.2728 -0.6336  0.8341
  122MOL0     C16372   6.832  12.751   8.089  0.1529 -0.6399  0.2202
  122MOL0     C16373   6.934  12.715   7.977  0.6075  0.2374 -0.5441
  122MOL0     C16374   7.076  12.755   8.007 -0.8320  0.0564  0.2283
  122MOL0     C16375   7.169  12.681   7.916 -0.4311  0.1404  1.1280
  122MOL0     C16376   7.314  12.739   7.934  0.0336  0.8718 -0.2586
  122MOL0     C16377   7.342  12.851   7.844 -0.6098  0.4665 -0.1522
  122MOL0     C16378   7.478  12.900   7.859  0.0477  0.6586  0.2478
  122MOL0    Cl16379   7.493  12.994   8.012 -0.0841  0.3118  0.0475
  122MOL0     C16380   6.422  12.809   7.970  0.0243 -0.4352  0.7812
  122MOL0     C16381   6.283  12.812   7.928 -0.4519 -0.2729  0.1437
  122MOL0     O16382   6.027  12.630   7.920 -0.5333 -0.9166  0.2878
  122MOL0     C16383   5.754  12.669   7.882 -1.0186  0.0009 -0.3356
  122MOL0     C16384   5.616  12.687   7.858 -0.4683 -0.6265  0.6951
  122MOL0     N16385   5.253  12.426   7.899 -0.4670  0.4199  0.3065
  122MOL0     N16386   5.274  12.306   7.948  0.1816 -0.0291 -0.7167
  122MOL0     C16387   4.790  11.156   8.461 -0.4226 -1.4769  0.6579
  122MOL0     C16388   4.730  11.071   8.558 -0.0876 -0.7615 -0.8520
  122MOL0     C16389   4.673  10.829   8.927  0.7934 -0.6005 -0.5730
  122MOL0     C16390   4.535  10.811   8.905  1.1629 -0.3811  0.5095
  122MOL0     C16391   4.463  10.714   8.977 -0.8010 -0.3684  0.1418
  122MOL0     C16392   4.515  10.629   9.071  0.1737  0.0990 -0.6465
  122MOL0     O16393   4.433  10.545   9.146 -0.0061  0.0854  0.4772
  122MOL0     C16394   4.467  10.492   9.282  0.2435  0.1380 -0.2807
  122MOL0     C16395   4.363  10.387   9.331  1.1769 -0.8802  0.8664
  122MOL0     C16396   4.392  10.372   9.472 -0.1794  0.1508 -0.5585
  122MOL0     C16397   4.282  10.299   9.545 -0.2106 -0.9840 -0.6850
  122MOL0     C16398   4.228  10.356   9.671 -0.4423 -0.5806 -0.2340
  122MOL0     C16399   4.187  10.416   9.765 -0.4258 -0.7544 -0.5878
  122MOL0     C16400   4.651  10.647   9.088  0.5014  0.2746  0.5799
  122MOL0     C16401   4.729  10.747   9.022 -0.0017  0.5369  0.7527
  122MOL0     C16402   4.875  10.770   9.065  0.1442 -0.4664 -0.1241
  122MOL0     H16403   4.829  11.242   8.832 -1.9977  0.7005  0.3454
  122MOL0     H16404   4.957  11.369   8.669  0.6321  0.9115 -1.7415
  122MOL0     H16405   4.913  11.445   8.221  1.9428  0.3385  0.7716
  122MOL0     H16406   4.777  11.442   8.328  0.1045 -1.4538  1.6037
  122MOL0     H16407   5.045  11.559   8.407 -0.2837 -3.4961 -0.3912
  122MOL0     H16408   4.885  11.586   8.486 -3.0334 -0.3170 -2.5416
  122MOL0     H16409   4.814  11.719   8.295 -0.1936 -1.8490  1.1173
  122MOL0     H16410   4.955  11.696   8.205 -0.5286 -1.5573 -0.6922
  122MOL0     H16411   4.981  11.835   8.489  1.3631  3.0217 -0.0227
  122MOL0     H16412   5.103  11.799   8.367 -0.1734 -3.0392 -0.1751
  122MOL0     H16413   4.859  11.985   8.350 -0.1878 -0.8796 -0.7662
  122MOL0     H16414   5.039  12.029   8.359  0.7790 -1.8236  3.2953
  122MOL0     H16415   5.039  11.900   8.127 -0.3527 -0.7250  1.4386
  122MOL0     H16416   4.867  11.929   8.137 -1.6152  1.7025  2.3344
  122MOL0     H16417   4.937  12.188   8.164  0.2891 -0.6160  0.8953
  122MOL0     H16418   4.948  12.102   8.007  3.9670  2.0493 -1.5424
  122MOL0     H16419   5.184  12.151   8.185  0.7344 -0.8540  0.1600
  122MOL0     H16420   5.183  12.067   8.035  1.5948  2.3977 -1.0639
  122MOL0     H16421   4.980  12.390   8.078 -1.8094 -0.8960 -1.8987
  122MOL0     H16422   4.941  12.563   7.899 -1.0395 -1.4255  3.9109
  122MOL0     H16423   5.056  12.660   8.000  1.7855  0.3457 -0.9337
  122MOL0     H16424   5.132  12.604   7.721 -0.2903 -1.6588  0.7864
  122MOL0     H16425   5.000  12.725   7.743  0.3375 -0.8592 -2.4026
  122MOL0     H16426   5.185  12.853   7.886 -1.5773  1.9761 -1.2516
  122MOL0     H16427   5.186  12.860   7.716 -1.7800  0.4577  0.4561
  122MOL0     H16428   5.361  12.671   7.739  1.8483  0.2847  0.1011
  122MOL0     H16429   5.328  12.676   7.917  0.4853 -0.1705 -0.4374
  122MOL0     H16430   5.617  13.025   7.877  2.0784  0.9299 -0.8362
  122MOL0     H16431   5.851  12.975   7.933 -0.7779  1.3238  0.3324
  122MOL0     H16432   6.163  12.797   8.248  3.0117 -0.7179  2.2625
  122MOL0     H16433   6.395  12.786   8.309 -0.2989  0.1422 -0.2805
  122MOL0     H16434   6.646  12.649   8.012  1.8243 -1.0759 -0.4205
  122MOL0     H16435   6.679  12.809   7.949  2.0100 -0.6580  0.6963
  122MOL0     H16436   6.853  12.854   8.119  0.8854 -1.9453  4.9212
  122MOL0     H16437   6.842  12.686   8.176 -1.0171 -0.2076  0.6922
  122MOL0     H16438   6.918  12.609   7.953  1.4095  0.2618 -1.2673
  122MOL0     H16439   6.895  12.772   7.892 -0.1955 -0.5810 -0.7441
  122MOL0     H16440   7.105  12.721   8.107 -0.2486  0.6704  0.2742
  122MOL0     H16441   7.095  12.862   7.998 -0.7356 -0.0682 -1.3398
  122MOL0     H16442   7.134  12.685   7.813  2.8863  2.1018 -0.0505
  122MOL0     H16443   7.175  12.577   7.949  0.0756 -0.1378  0.1843
  122MOL0     H16444   7.340  12.762   8.038  1.4410 -1.9144  0.1026
  122MOL0     H16445   7.379  12.655   7.909 -1.9424 -1.0327  0.6946
  122MOL0     H16446   7.269  12.930   7.865 -0.0372  0.3478  2.6580
  122MOL0     H16447   7.327  12.820   7.741 -1.4971 -2.2205  0.6980
  122MOL0     H16448   7.545  12.813   7.858 -2.7258 -1.5981 -0.4893
  122MOL0     H16449   7.513  12.969   7.782 -0.9325  1.8437  0.8311
  122MOL0     H16450   6.496  12.842   7.897 -1.8094 -0.2426 -1.0909
  122MOL0     H16451   6.254  12.834   7.825 -1.6956 -0.3054  0.4645
  122MOL0     H16452   5.786  12.566   7.883 -2.9792 -0.6639  1.2371
  122MOL0     H16453   5.558  12.601   7.825 -1.4464  1.9974 -6.1670
  122MOL0     H16454   4.774  11.139   8.355 -2.3423 -1.9234  0.9886
  122MOL0     H16455   4.667  10.984   8.543 -3.1740  0.9832  0.9620
  122MOL0     H16456   4.476  10.874   8.839 -0.9517 -1.1978  1.5540
  122MOL0     H16457   4.356  10.706   8.957 -0.5632 -0.1697 -1.3368
  122MOL0     H16458   4.470  10.579   9.348 -1.0108 -0.4933  0.6655
  122MOL0     H16459   4.562  10.439   9.274 -0.8292 -2.2059  1.3402
  122MOL0     H16460   4.372  10.295   9.271  0.5301 -0.4744  0.1313
  122MOL0     H16461   4.266  10.435   9.315  2.1409  1.2851  1.1544
  122MOL0     H16462   4.408  10.470   9.518 -0.5841  0.0423 -0.1787
  122MOL0     H16463   4.488  10.320   9.483  0.1550  1.1541  1.9586
  122MOL0     H16464   4.189  10.308   9.489 -1.2170  1.7953  1.2158
  122MOL0     H16465   4.312  10.194   9.553  0.8231 -0.5912  1.5515
  122MOL0     H16466   4.155  10.461   9.857  1.9489 -0.0279 -0.0299
  122MOL0     H16467   4.700  10.594   9.169  0.4647  0.7944  0.9525
  122MOL0     H16468   4.949  10.748   8.988 -0.3721  0.9504 -1.0609
  122MOL0     H16469   4.882  10.876   9.091 -1.7055  0.0534 -1.5016
  122MOL0     H16470   4.909  10.715   9.153 -2.4432  1.1914  2.0879
  123MOL0     O16471  11.071   9.693  10.145 -0.2161 -0.4378  0.3080
  123MOL0     C16472  10.980   9.767  10.099  0.4276  0.4002 -0.7193
  123MOL0     O16473  10.855   9.762  10.136  0.0266 -1.2598  0.1197
  123MOL0     C16474  10.799   9.668  10.221  1.1043 -0.1660 -0.5092
  123MOL0     C16475  10.670   9.620  10.185 -0.3130 -0.4983  0.4443
  123MOL0     C16476  10.600   9.530  10.264 -0.4244 -0.2881 -0.5552
  123MOL0     C16477  10.671   9.469  10.378 -0.5915  0.3843  0.5244
  123MOL0     O16478  10.614   9.369  10.459  0.3666  0.8066  0.5164
  123MOL0     C16479  10.485   9.323  10.428  0.1567 -0.0970 -0.7737
  123MOL0     C16480  10.377   9.417  10.498 -0.2243  1.8493  0.7014
  123MOL0     C16481  10.248   9.385  10.440  0.8926 -0.5396  0.2928
  123MOL0     C16482  10.182   9.513  10.374 -0.4849 -0.4109 -0.8364
  123MOL0     C16483  10.043   9.492  10.323  0.3149  1.0647 -0.0460
  123MOL0     C16484   9.952   9.412  10.421  0.2190  0.3900  0.4674
  123MOL0     C16485   9.807   9.407  10.377  0.1861 -0.1007 -0.3694
  123MOL0     C16486   9.794   9.300  10.270 -0.9091 -0.7948 -0.6539
  123MOL0     N16487   9.654   9.279  10.232 -0.2403 -0.8791  0.6229
  123MOL0     C16488   9.565   9.379  10.201 -0.2008 -0.9805  0.5235
  123MOL0     C16489   9.445   9.317  10.174 -0.8671  0.1577 -1.1731
  123MOL0     C16490   9.319   9.372  10.138  0.5940 -0.5134  0.1481
  123MOL0     C16491   9.328   9.495  10.043 -0.5255 -0.4004 -0.7902
  123MOL0     C16492   9.372   9.462   9.897  0.3095 -0.4739 -0.7269
  123MOL0     C16493   9.483   9.562   9.838  0.6022  0.5450  0.5767
  123MOL0     O16494   9.597   9.538   9.924 -0.6129  0.2104  0.5998
  123MOL0     C16495   9.717   9.580   9.875  0.7251 -0.0404 -0.3941
  123MOL0     C16496   9.827   9.557   9.957  0.7388  0.2039 -0.1157
  123MOL0     C16497   9.953   9.604   9.921  0.2904 -1.0009  0.4736
  123MOL0     C16498   9.976   9.675   9.803 -0.2367  0.5906  0.0386
  123MOL0     C16499  10.100   9.725   9.762  0.4791 -0.6966 -0.4940
  123MOL0     O16500  10.191   9.726   9.866  0.3736 -0.4241  0.6324
  123MOL0     C16501  10.318   9.764   9.832 -0.3857 -0.5296 -0.5840
  123MOL0     C16502  10.386   9.681   9.744 -0.4930 -0.1996  0.5290
  123MOL0     C16503  10.512   9.719   9.699  0.8975 -0.3192 -0.4581
  123MOL0     C16504  10.576   9.840   9.741  0.5938  0.3488  0.6011
  123MOL0     O16505  10.690   9.899   9.689 -0.5630  0.0526  0.2890
  123MOL0     C16506  10.769   9.817   9.601  0.4180 -0.4249 -0.5382
  123MOL0     C16507  10.892   9.896   9.554 -0.4904 -0.0444  0.7495
  123MOL0     C16508  10.997   9.797   9.484  0.8778 -0.9076 -0.4132
  123MOL0     C16509  11.129   9.871   9.456  0.1775  0.8716  0.5203
  123MOL0     C16510  11.119   9.986   9.355 -0.4469  0.2375  0.5181
  123MOL0     C16511  11.260  10.021   9.318 -0.3386  0.6166  0.6416
  123MOL0     C16512  11.267  10.152   9.235  0.1578  0.7095 -0.6562
  123MOL0     C16513  11.406  10.188   9.175 -0.3962 -0.4959 -0.5572
  123MOL0    Cl16514  11.499  10.069   9.081  0.5680  0.3931  0.1751
  123MOL0     C16515  10.511   9.913   9.848  0.2972 -0.2556  0.6439
  123MOL0     C16516  10.386   9.865   9.892 -0.0699 -0.3150  0.4816
  123MOL0     O16517  10.103   9.796   9.664 -0.2530 -0.3362  0.0677
  123MOL0     C16518   9.863   9.695   9.719 -0.0123 -0.0912 -0.2968
  123MOL0     C16519   9.737   9.650   9.755 -0.3015  0.3759 -0.2693
  123MOL0     N16520   9.466   9.186  10.189  0.5114 -0.6338 -1.2735
  123MOL0     N16521   9.591   9.158  10.230  0.7126 -0.6387  0.2368
  123MOL0     C16522  10.801   9.511  10.408  0.7869  1.1997 -0.9209
  123MOL0     C16523  10.855   9.615  10.332 -0.4343 -0.3346 -0.7139
  123MOL0     C16524  11.013   9.888  10.018 -0.1851 -0.0123  0.6192
  123MOL0     C16525  10.903   9.964   9.971  0.3819 -0.5092 -1.2433
  123MOL0     C16526  10.916  10.075   9.884  0.3854  0.5491 -0.2199
  123MOL0     C16527  11.037  10.105   9.829 -0.2153  0.7323 -0.0449
  123MOL0     O16528  11.029  10.186   9.724  0.0917  0.0784 -0.7016
  123MOL0     C16529  11.139  10.215   9.635 -0.4910  0.4470 -0.4804
  123MOL0     C16530  11.218  10.336   9.690  0.6052  0.0661 -0.9545
  123MOL0     C16531  11.357  10.324   9.631 -0.0343  0.1896 -0.8588
  123MOL0     C16532  11.441  10.448   9.685  0.3099  0.6375 -0.0809
  123MOL0     C16533  11.562  10.473   9.609 -0.3616  0.2765 -0.2243
  123MOL0     C16534  11.670  10.479   9.555 -0.1403  0.2148  0.6764
  123MOL0     C16535  11.151  10.035   9.871  0.1432 -0.2634 -0.6066
  123MOL0     C16536  11.144   9.930   9.966 -0.4876  0.0125  0.0114
  123MOL0     C16537  11.282   9.875  10.019  1.1141  0.3952 -0.5299
  123MOL0     H16538  10.619   9.680  10.110  1.7042  1.3843  0.4758
  123MOL0     H16539  10.498   9.515  10.233 -1.5123  1.9691  1.6151
  123MOL0     H16540  10.472   9.311  10.320 -2.1989 -1.0492 -0.4406
  123MOL0     H16541  10.460   9.225  10.471  0.1840  0.0927 -0.3280
  123MOL0     H16542  10.416   9.519  10.495  2.9914  0.7248 -0.5398
  123MOL0     H16543  10.379   9.386  10.603 -0.9770 -2.4913 -0.3794
  123MOL0     H16544  10.184   9.345  10.519 -1.3161  1.2573 -0.4647
  123MOL0     H16545  10.257   9.306  10.365  0.0490 -0.1415 -0.2422
  123MOL0     H16546  10.180   9.591  10.451 -1.9167 -1.5993  0.3955
  123MOL0     H16547  10.250   9.557  10.300  1.2258  1.5173  1.6859
  123MOL0     H16548   9.998   9.589  10.302 -0.1944  1.2079  1.5591
  123MOL0     H16549  10.041   9.438  10.228  2.2208 -1.5204  1.2267
  123MOL0     H16550   9.987   9.309  10.428 -2.6819 -0.8822 -1.4718
  123MOL0     H16551   9.954   9.446  10.525  0.0885 -2.6120  1.5590
  123MOL0     H16552   9.781   9.498  10.322  3.1886 -0.1948 -2.1325
  123MOL0     H16553   9.737   9.386  10.459  2.5486  1.1022  2.1437
  123MOL0     H16554   9.862   9.327  10.189 -0.2384  2.5959  0.8740
  123MOL0     H16555   9.834   9.203  10.301  1.6547 -0.1981 -1.8762
  123MOL0     H16556   9.573   9.487  10.202 -1.7724 -0.8256  2.0561
  123MOL0     H16557   9.241   9.300  10.112 -1.8983  1.3111  2.1461
  123MOL0     H16558   9.271   9.405  10.230  0.2996  0.5050 -0.3460
  123MOL0     H16559   9.228   9.537  10.034 -0.4273 -0.1866 -0.8758
  123MOL0     H16560   9.395   9.566  10.092 -0.6283  0.6178 -2.0662
  123MOL0     H16561   9.282   9.453   9.836 -0.9632 -1.6566  1.1916
  123MOL0     H16562   9.412   9.360   9.893 -1.0705 -1.0251 -0.9093
  123MOL0     H16563   9.449   9.666   9.842  2.6268  1.2370  1.0013
  123MOL0     H16564   9.499   9.532   9.734 -2.2900 -0.2150  0.2705
  123MOL0     H16565   9.827   9.495  10.046 -2.2293 -1.6128 -1.1972
  123MOL0     H16566  10.036   9.591   9.990 -0.7208  1.2189  2.2301
  123MOL0     H16567  10.341   9.601   9.686  0.5166  0.1213 -0.7609
  123MOL0     H16568  10.561   9.656   9.626 -0.6000 -1.5857 -0.4362
  123MOL0     H16569  10.810   9.731   9.655  1.9967  1.0691  0.7840
  123MOL0     H16570  10.710   9.775   9.519  0.2063  0.2079 -0.7168
  123MOL0     H16571  10.874   9.973   9.479  1.2727  0.2591  0.5941
  123MOL0     H16572  10.948   9.933   9.641 -2.0494  1.0080  1.3441
  123MOL0     H16573  11.013   9.710   9.548  2.1369 -0.8665 -0.6405
  123MOL0     H16574  10.958   9.760   9.389 -0.6259  1.1945 -0.6792
  123MOL0     H16575  11.205   9.800   9.420  4.0040  3.6671  2.3323
  123MOL0     H16576  11.179   9.911   9.545  0.2925 -1.9253  1.8287
  123MOL0     H16577  11.062  10.069   9.398 -0.7295  0.1106  0.3949
  123MOL0     H16578  11.065   9.942   9.271 -1.8588  0.6910  1.1383
  123MOL0     H16579  11.318  10.040   9.408 -2.1565  2.0034  1.5947
  123MOL0     H16580  11.297   9.933   9.263  1.4172  1.5423  0.3039
  123MOL0     H16581  11.236  10.223   9.312  3.6562 -0.4926  2.0905
  123MOL0     H16582  11.194  10.160   9.153 -0.0769  2.2862 -0.3399
  123MOL0     H16583  11.401  10.279   9.114 -1.3134 -0.6641 -0.7446
  123MOL0     H16584  11.454  10.210   9.271 -1.3408 -2.6062  0.4689
  123MOL0     H16585  10.563   9.997   9.891  2.7229 -0.9398 -0.7720
  123MOL0     H16586  10.337   9.919   9.972  0.6824 -0.5691  1.1202
  123MOL0     H16587   9.854   9.739   9.620  3.4107  1.6659  0.0167
  123MOL0     H16588   9.657   9.670   9.684  1.1589  1.2707 -1.7490
  123MOL0     H16589  10.853   9.467  10.492 -1.8677 -0.2526  0.0968
  123MOL0     H16590  10.957   9.641  10.356 -0.3395 -0.5290 -0.9022
  123MOL0     H16591  10.807   9.939  10.016  1.2721 -1.4680  0.2455
  123MOL0     H16592  10.824  10.116   9.845  0.8723 -0.1035 -2.1680
  123MOL0     H16593  11.101  10.229   9.534  1.4618 -0.1361 -1.3465
  123MOL0     H16594  11.199  10.124   9.629 -0.4604  0.2921  1.5968
  123MOL0     H16595  11.221  10.331   9.799 -0.8990 -0.1618 -0.8992
  123MOL0     H16596  11.173  10.433   9.665  2.9503  0.7183 -2.9828
  123MOL0     H16597  11.355  10.323   9.522  1.4113  3.2932 -1.0192
  123MOL0     H16598  11.408  10.236   9.671 -1.1648  0.4462  1.3414
  123MOL0     H16599  11.377  10.535   9.699 -1.9003 -0.4605 -2.5702
  123MOL0     H16600  11.483  10.428   9.784  3.1807  2.0509 -0.8872
  123MOL0     H16601  11.768  10.490   9.513 -1.3658 -1.1887 -2.8871
  123MOL0     H16602  11.249  10.068   9.839 -0.3519  1.3952 -0.5124
  123MOL0     H16603  11.288   9.879  10.128  4.0660  1.6365 -0.6558
  123MOL0     H16604  11.292   9.777   9.972  0.7691  1.5095 -3.0777
  123MOL0     H16605  11.368   9.934   9.989  2.1962  0.7582  2.8725
  124MOL0     O16606   6.235   8.558   6.683  0.4142  0.5352 -0.4827
  124MOL0     C16607   6.205   8.674   6.712  0.1693 -0.2789 -0.1316
  124MOL0     O16608   6.290   8.772   6.766  0.1149 -0.2992  0.9686
  124MOL0     C16609   6.420   8.779   6.733  0.3064 -1.0307 -0.3258
  124MOL0     C16610   6.502   8.838   6.827 -0.2843  0.1641 -0.4097
  124MOL0     C16611   6.644   8.839   6.809  0.4241  0.5665  0.1018
  124MOL0     C16612   6.693   8.772   6.696  0.5847  0.7319 -0.7536
  124MOL0     O16613   6.830   8.754   6.697 -0.2480  0.2307  0.1221
  124MOL0     C16614   6.890   8.656   6.613 -0.4888 -0.1657  0.6517
  124MOL0     C16615   7.044   8.649   6.631 -0.1920  0.3652 -0.6447
  124MOL0     C16616   7.127   8.568   6.535  0.1669 -0.8353 -0.1314
  124MOL0     C16617   7.278   8.613   6.537 -0.3724  0.1688 -0.5103
  124MOL0     C16618   7.381   8.524   6.461 -0.0648  0.2758  0.1298
  124MOL0     C16619   7.329   8.502   6.317  0.8674 -0.0812 -0.4775
  124MOL0     C16620   7.431   8.421   6.235 -0.4687  0.0901  0.1941
  124MOL0     C16621   7.428   8.277   6.278  0.2708  0.0372  0.4241
  124MOL0     N16622   7.505   8.188   6.194  0.7386  0.0013 -0.6110
  124MOL0     C16623   7.627   8.231   6.142 -0.4740 -0.3236  0.6827
  124MOL0     C16624   7.669   8.116   6.075  0.0029  0.0178 -0.6054
  124MOL0     C16625   7.805   8.094   6.018 -0.3173  0.1596 -0.1429
  124MOL0     C16626   7.895   8.003   6.098  0.7068  0.0508  0.3597
  124MOL0     C16627   8.006   7.935   6.013 -0.6833 -0.6549 -0.2866
  124MOL0     C16628   8.087   8.030   5.924 -0.2145 -0.4587 -0.5306
  124MOL0     O16629   8.192   7.958   5.873 -0.4652  0.4742 -0.1471
  124MOL0     C16630   8.321   7.998   5.881 -0.5973  0.8951  0.5322
  124MOL0     C16631   8.360   8.134   5.915  1.1441  0.2210 -0.0424
  124MOL0     C16632   8.490   8.178   5.924 -0.3881 -0.4505  1.4056
  124MOL0     C16633   8.589   8.089   5.876 -0.3118  0.5686 -0.4445
  124MOL0     C16634   8.731   8.131   5.877 -0.0563 -0.8194 -0.5971
  124MOL0     O16635   8.765   8.251   5.938 -0.1635 -0.3209 -0.3379
  124MOL0     C16636   8.896   8.289   5.927 -1.3995 -0.6828  0.5026
  124MOL0     C16637   8.996   8.239   6.007 -1.3739  0.0535 -0.4386
  124MOL0     C16638   9.136   8.284   6.008 -0.2055  0.8994 -0.2841
  124MOL0     C16639   9.165   8.391   5.923  0.0251 -0.9682  0.3404
  124MOL0     O16640   9.292   8.442   5.913  0.3734  0.1287  0.1966
  124MOL0     C16641   9.400   8.349   5.875 -0.0224 -0.1799 -0.1941
  124MOL0     C16642   9.489   8.383   5.743  0.2197 -0.4850 -0.0628
  124MOL0     C16643   9.624   8.444   5.780 -0.5292 -0.2117  0.3862
  124MOL0     C16644   9.712   8.333   5.832 -0.5291  0.6413 -0.6446
  124MOL0     C16645   9.852   8.382   5.893  0.0631 -0.7715  0.1317
  124MOL0     C16646   9.978   8.324   5.828  0.1541 -0.8556  0.2950
  124MOL0     C16647  10.085   8.309   5.944 -1.0592  0.3973  0.5400
  124MOL0     C16648  10.195   8.214   5.889 -0.2068  0.1491  0.7848
  124MOL0    Cl16649  10.290   8.298   5.758 -0.3681  0.1480 -0.4398
  124MOL0     C16650   9.064   8.449   5.839  0.0447 -0.6518 -0.5881
  124MOL0     C16651   8.938   8.395   5.847 -0.4177 -0.5213 -0.4151
  124MOL0     O16652   8.800   8.053   5.822  0.1414 -0.1895 -0.0032
  124MOL0     C16653   8.550   7.960   5.845  0.1458  0.2363  0.5950
  124MOL0     C16654   8.424   7.908   5.852  0.1348 -0.1954 -0.5078
  124MOL0     N16655   7.571   8.013   6.099 -0.3499 -0.2862 -0.7548
  124MOL0     N16656   7.473   8.061   6.171  0.5435 -0.4072  0.4532
  124MOL0     C16657   6.611   8.707   6.600  0.7444  0.4888  0.1902
  124MOL0     C16658   6.474   8.719   6.626  1.5134  0.4181 -0.0896
  124MOL0     C16659   6.060   8.712   6.694 -0.2320 -0.0052  0.4903
  124MOL0     C16660   6.011   8.795   6.795 -0.0258  0.1694 -0.2686
  124MOL0     C16661   5.877   8.835   6.790 -0.7984 -0.1230 -0.1978
  124MOL0     C16662   5.796   8.792   6.684 -0.0305  0.1400 -0.6586
  124MOL0     O16663   5.663   8.826   6.701  0.2133 -0.0271 -0.1543
  124MOL0     C16664   5.556   8.747   6.643 -0.7801 -0.3416 -0.8257
  124MOL0     C16665   5.416   8.755   6.714  0.9105  0.0983 -0.3589
  124MOL0     C16666   5.370   8.906   6.717 -0.2107  0.1719 -0.1350
  124MOL0     C16667   5.222   8.905   6.758  0.1689  0.0985  0.1838
  124MOL0     C16668   5.177   9.043   6.756 -0.4028  0.0245  0.1504
  124MOL0     C16669   5.144   9.160   6.747 -0.4186  0.2377  0.1537
  124MOL0     C16670   5.847   8.720   6.580 -0.2701  0.7650  0.0907
  124MOL0     C16671   5.980   8.675   6.581 -0.4490 -0.4245 -0.1832
  124MOL0     C16672   6.021   8.598   6.457  0.1608  0.0586  0.2006
  124MOL0     H16673   6.457   8.876   6.919  1.8962 -0.0380  0.8010
  124MOL0     H16674   6.717   8.887   6.874 -1.2523  2.4743  0.6904
  124MOL0     H16675   6.837   8.561   6.624 -1.8579  0.5408  0.4136
  124MOL0     H16676   6.887   8.684   6.507  1.5496  2.7001  1.2330
  124MOL0     H16677   7.055   8.616   6.735  1.8196  1.4311 -0.4711
  124MOL0     H16678   7.085   8.749   6.618 -0.2337  0.7340  1.6661
  124MOL0     H16679   7.089   8.588   6.434  2.2397  1.5057 -0.5451
  124MOL0     H16680   7.114   8.462   6.559 -0.2730 -0.2066  2.7164
  124MOL0     H16681   7.279   8.713   6.492 -1.1008  0.3387 -0.1719
  124MOL0     H16682   7.317   8.615   6.639 -1.6239 -1.6397  0.0526
  124MOL0     H16683   7.484   8.560   6.466 -0.6662  2.1565 -0.0734
  124MOL0     H16684   7.389   8.430   6.515  0.7853  2.4817  4.2046
  124MOL0     H16685   7.242   8.435   6.327  1.9070 -1.1328  2.9022
  124MOL0     H16686   7.317   8.596   6.264 -2.2265 -0.2095 -0.2445
  124MOL0     H16687   7.533   8.460   6.243 -0.4325 -0.3153  1.9456
  124MOL0     H16688   7.398   8.415   6.131  0.4375  0.3050 -0.1176
  124MOL0     H16689   7.454   8.267   6.383  2.3029  3.2742  0.3347
  124MOL0     H16690   7.323   8.248   6.263 -0.3827  2.2043  0.5014
  124MOL0     H16691   7.694   8.316   6.150  0.4985 -0.8214 -1.4580
  124MOL0     H16692   7.801   8.049   5.918  0.1681 -3.6578  1.3857
  124MOL0     H16693   7.853   8.191   6.020  2.4451 -1.1298  0.6651
  124MOL0     H16694   7.935   8.075   6.170 -2.2229  3.0922 -0.7746
  124MOL0     H16695   7.841   7.920   6.143 -0.6217  0.4342 -0.4691
  124MOL0     H16696   7.961   7.859   5.948 -0.2834  0.1156 -1.5033
  124MOL0     H16697   8.079   7.884   6.077  0.0705 -1.4797 -1.7550
  124MOL0     H16698   8.113   8.114   5.989  0.1642 -0.5833 -0.5174
  124MOL0     H16699   8.035   8.078   5.840 -1.5894 -3.0380 -1.2538
  124MOL0     H16700   8.279   8.200   5.943  0.6089 -0.3789 -0.1416
  124MOL0     H16701   8.511   8.284   5.933 -1.9727  0.0671 -0.3687
  124MOL0     H16702   8.967   8.157   6.072 -2.9222 -1.0685 -2.4221
  124MOL0     H16703   9.205   8.231   6.072 -0.3740 -0.0197 -0.8536
  124MOL0     H16704   9.466   8.352   5.961  1.7277  2.1465 -1.4823
  124MOL0     H16705   9.350   8.252   5.865  0.6799 -0.5344 -0.3517
  124MOL0     H16706   9.508   8.288   5.694 -0.0131 -0.5173 -0.0941
  124MOL0     H16707   9.427   8.450   5.683  0.9102  0.5878  0.3844
  124MOL0     H16708   9.664   8.501   5.696 -0.4007 -1.4588 -0.4112
  124MOL0     H16709   9.602   8.512   5.863  1.4309 -0.0431  0.8180
  124MOL0     H16710   9.733   8.270   5.746  0.2946 -2.4298  1.6539
  124MOL0     H16711   9.664   8.260   5.898 -0.3882  1.2069  0.1032
  124MOL0     H16712   9.847   8.367   6.001  0.6331 -1.4853  0.0687
  124MOL0     H16713   9.858   8.490   5.877  2.6285 -1.1856 -2.4718
  124MOL0     H16714   9.949   8.224   5.796  1.6742 -1.4056  0.5734
  124MOL0     H16715  10.014   8.390   5.749  0.2492  2.0978  2.5962
  124MOL0     H16716  10.050   8.255   6.032 -0.8576 -1.5864 -0.5447
  124MOL0     H16717  10.134   8.406   5.957 -0.2580 -0.2959  3.1273
  124MOL0     H16718  10.266   8.195   5.971  0.1888 -2.3669 -0.0831
  124MOL0     H16719  10.151   8.116   5.873  2.3629 -1.2257  1.5677
  124MOL0     H16720   9.090   8.540   5.786  2.4548  2.5000  5.0277
  124MOL0     H16721   8.864   8.431   5.777  0.0349 -0.6082 -0.9519
  124MOL0     H16722   8.624   7.891   5.806  1.4641  0.7830  1.9916
  124MOL0     H16723   8.389   7.811   5.817 -2.6875  0.4872  0.1663
  124MOL0     H16724   6.629   8.650   6.509 -1.0071  0.8881 -0.4465
  124MOL0     H16725   6.416   8.672   6.547 -1.1435 -0.4473  2.2071
  124MOL0     H16726   6.066   8.815   6.887  0.0686 -0.4289 -0.1924
  124MOL0     H16727   5.841   8.889   6.877 -0.6493  1.0736 -0.8478
  124MOL0     H16728   5.576   8.640   6.655  0.9266 -0.1053 -1.1974
  124MOL0     H16729   5.562   8.774   6.537 -0.1102 -1.4968 -1.0995
  124MOL0     H16730   5.435   8.725   6.818  3.9627  2.3729 -0.1301
  124MOL0     H16731   5.343   8.688   6.668 -1.0603 -1.1291  3.9483
  124MOL0     H16732   5.376   8.957   6.620 -0.8865 -1.2736 -0.9659
  124MOL0     H16733   5.426   8.964   6.791  0.6617 -1.1612  0.2698
  124MOL0     H16734   5.155   8.854   6.688 -1.6292  0.9843  1.1613
  124MOL0     H16735   5.206   8.861   6.857  0.4997 -0.3165  0.0550
  124MOL0     H16736   5.104   9.258   6.759 -3.1035 -0.6662 -0.5829
  124MOL0     H16737   5.776   8.698   6.501  0.8762  0.3323 -0.8582
  124MOL0     H16738   6.087   8.514   6.478  0.8823  0.5611 -0.0471
  124MOL0     H16739   5.924   8.561   6.421 -1.0476  3.3480 -0.3587
  124MOL0     H16740   6.062   8.663   6.379 -1.3917  1.7008  0.6752
  125MOL0     O16741   3.147   7.056   0.891  0.4109 -0.0271 -0.3662
  125MOL0     C16742   3.084   7.141   0.952  0.1036 -0.0379 -0.6583
  125MOL0     O16743   3.138   7.231   1.037  0.1374 -0.4033 -0.0642
  125MOL0     C16744   3.274   7.221   1.083 -0.1106 -0.1373  0.1646
  125MOL0     C16745   3.328   7.103   1.122 -0.1759 -0.0546 -0.3357
  125MOL0     C16746   3.453   7.102   1.172 -0.4800 -1.1463 -0.8955
  125MOL0     C16747   3.535   7.214   1.180  0.0784  0.5621 -0.4978
  125MOL0     O16748   3.653   7.213   1.251 -0.4070  0.0429 -0.4677
  125MOL0     C16749   3.774   7.223   1.181 -0.2338 -0.0635  0.2322
  125MOL0     C16750   3.887   7.227   1.297  0.0459 -0.2444 -0.2209
  125MOL0     C16751   4.024   7.268   1.234 -0.0486  0.9236  0.0963
  125MOL0     C16752   4.145   7.223   1.322  0.4007 -0.0014  0.4000
  125MOL0     C16753   4.204   7.342   1.405  0.4162 -0.5102 -0.5129
  125MOL0     C16754   4.296   7.284   1.510 -0.1762  0.1893  0.1101
  125MOL0     C16755   4.418   7.215   1.460 -1.0817  0.3303  0.2525
  125MOL0     C16756   4.508   7.303   1.374  0.2263 -0.3885 -0.2965
  125MOL0     N16757   4.627   7.231   1.315  0.8084 -0.9013 -0.5719
  125MOL0     C16758   4.637   7.187   1.189  0.2358 -0.6229 -0.2448
  125MOL0     C16759   4.753   7.106   1.193 -0.0829 -0.8224  0.8187
  125MOL0     C16760   4.824   7.037   1.078  0.4794  0.8175  0.5233
  125MOL0     C16761   4.960   7.107   1.063 -0.5504  0.1343 -0.0212
  125MOL0     C16762   5.076   7.006   1.084 -0.7744 -0.2893  0.0379
  125MOL0     C16763   5.216   7.063   1.060 -0.0162  0.1853 -1.1183
  125MOL0     O16764   5.302   6.949   1.064 -0.5329 -0.9184  0.2391
  125MOL0     C16765   5.439   6.976   1.063  0.1993  0.5794  0.5103
  125MOL0     C16766   5.526   6.869   1.086 -0.0093  0.0017 -0.5024
  125MOL0     C16767   5.662   6.883   1.093  0.6597  0.3693 -0.8343
  125MOL0     C16768   5.727   7.002   1.072 -0.2182  1.1739 -0.4163
  125MOL0     C16769   5.871   7.023   1.091 -0.3390  0.5365  0.6668
  125MOL0     O16770   5.942   6.927   1.165 -1.0399 -0.0414  0.4905
  125MOL0     C16771   6.086   6.943   1.165  0.5987  0.0705  0.5417
  125MOL0     C16772   6.145   6.931   1.288 -0.9194  0.6497 -0.3595
  125MOL0     C16773   6.286   6.947   1.301  0.0211 -1.0698  0.2559
  125MOL0     C16774   6.371   6.981   1.190  0.1046 -0.5866  0.0547
  125MOL0     O16775   6.508   6.994   1.201  0.0223  0.6990  0.8729
  125MOL0     C16776   6.579   7.007   1.325 -0.7565  0.3090 -0.0858
  125MOL0     C16777   6.727   7.046   1.307 -0.0907 -0.1729  0.6106
  125MOL0     C16778   6.746   7.187   1.244 -0.2313  0.3668  0.1627
  125MOL0     C16779   6.699   7.303   1.333 -0.2202  0.5450 -0.2886
  125MOL0     C16780   6.771   7.434   1.331 -0.2436 -0.2938 -0.7771
  125MOL0     C16781   6.890   7.426   1.431 -0.1215 -0.4680 -0.2151
  125MOL0     C16782   6.968   7.556   1.410 -0.9628 -1.0676  0.0713
  125MOL0     C16783   7.105   7.553   1.469 -0.5682  0.1466  0.3145
  125MOL0    Cl16784   7.204   7.426   1.398  0.5701 -0.1378  0.1842
  125MOL0     C16785   6.307   6.992   1.068  1.4945 -0.4372  0.2379
  125MOL0     C16786   6.163   6.971   1.055 -0.4124  0.2294 -0.3365
  125MOL0     O16787   5.916   7.125   1.039  0.5716  0.0307 -0.0149
  125MOL0     C16788   5.646   7.119   1.047  0.1194  0.5534 -0.0417
  125MOL0     C16789   5.505   7.103   1.046 -0.9086 -0.4196  0.0718
  125MOL0     N16790   4.804   7.109   1.323  1.1711 -0.1622 -0.7695
  125MOL0     N16791   4.731   7.191   1.395  0.5794 -0.8140  0.5820
  125MOL0     C16792   3.480   7.338   1.139  0.5449 -0.6194  0.3731
  125MOL0     C16793   3.344   7.344   1.093 -0.5984 -0.1392 -0.1322
  125MOL0     C16794   2.937   7.121   0.948  0.4765 -0.3468 -0.2262
  125MOL0     C16795   2.878   7.062   0.834 -0.2352  0.5709 -0.2426
  125MOL0     C16796   2.741   7.040   0.820  0.0885 -0.7048 -0.5795
  125MOL0     C16797   2.656   7.069   0.931 -0.5480  0.4190 -0.9521
  125MOL0     O16798   2.526   7.020   0.923  0.2558  0.0568 -0.0831
  125MOL0     C16799   2.416   7.109   0.948  0.0662  0.8579  0.5316
  125MOL0     C16800   2.290   7.025   0.976  0.3119 -0.8443 -0.0184
  125MOL0     C16801   2.207   6.945   0.864 -0.5128  0.5099 -0.7473
  125MOL0     C16802   2.093   6.866   0.932  0.6454  0.2797 -0.0074
  125MOL0     C16803   1.996   6.942   1.008  0.4832  0.4000  0.1353
  125MOL0     C16804   1.918   7.003   1.080  0.7094  0.0498  0.8195
  125MOL0     C16805   2.713   7.127   1.048  0.1612 -0.2294 -0.0332
  125MOL0     C16806   2.847   7.155   1.054 -0.2823 -0.0213 -0.4397
  125MOL0     C16807   2.889   7.210   1.187 -0.2888 -0.1988 -0.0429
  125MOL0     H16808   3.258   7.021   1.126  0.4009 -0.5469 -0.1830
  125MOL0     H16809   3.487   7.010   1.218 -1.7623 -0.2666  2.0618
  125MOL0     H16810   3.796   7.134   1.122 -0.4766  1.8059 -2.8863
  125MOL0     H16811   3.794   7.314   1.123  0.4490 -0.3311  0.0375
  125MOL0     H16812   3.887   7.127   1.342  1.7733 -1.0753 -1.9289
  125MOL0     H16813   3.866   7.302   1.373  0.3041 -0.1918 -0.2017
  125MOL0     H16814   4.023   7.376   1.215 -4.2387  0.8072 -1.4833
  125MOL0     H16815   4.043   7.227   1.134  1.1944 -1.2079  1.1323
  125MOL0     H16816   4.108   7.144   1.389  1.4981 -1.2421 -0.3977
  125MOL0     H16817   4.222   7.181   1.257  0.6546 -1.3047  1.5003
  125MOL0     H16818   4.248   7.416   1.337 -2.5831  2.0639  0.0885
  125MOL0     H16819   4.126   7.404   1.450 -0.0911 -0.1123 -1.8675
  125MOL0     H16820   4.328   7.362   1.579 -1.3556  1.4715 -0.7201
  125MOL0     H16821   4.247   7.201   1.563 -2.3619  1.6287  0.4966
  125MOL0     H16822   4.383   7.132   1.398  1.7330  0.3786 -1.6093
  125MOL0     H16823   4.484   7.178   1.540  0.9153  1.5552 -0.7397
  125MOL0     H16824   4.455   7.351   1.291 -2.0967  2.1372  2.4299
  125MOL0     H16825   4.550   7.387   1.430  1.4061  0.4516 -2.2944
  125MOL0     H16826   4.573   7.203   1.103  0.2236  2.6322  0.2228
  125MOL0     H16827   4.842   6.932   1.104 -4.4068 -0.7720 -1.4379
  125MOL0     H16828   4.757   7.026   0.993 -0.8110 -2.4137  1.8017
  125MOL0     H16829   4.961   7.153   0.964 -1.1470 -4.0913 -2.2176
  125MOL0     H16830   4.981   7.187   1.135  4.8071 -0.0284 -0.9697
  125MOL0     H16831   5.059   6.917   1.023  0.3057 -1.2200  1.0421
  125MOL0     H16832   5.070   6.969   1.187 -0.2217 -0.9277 -0.1563
  125MOL0     H16833   5.236   7.135   1.139 -0.8249  0.5244 -1.2101
  125MOL0     H16834   5.224   7.110   0.961 -2.0122 -0.5204 -1.6871
  125MOL0     H16835   5.481   6.771   1.077 -2.1574  0.8938 -0.2832
  125MOL0     H16836   5.737   6.807   1.114 -0.5927 -0.8184 -0.4149
  125MOL0     H16837   6.087   6.905   1.376  1.1134  1.1309  1.2055
  125MOL0     H16838   6.315   6.928   1.404 -1.2161 -0.2486  0.7823
  125MOL0     H16839   6.532   7.079   1.392  1.0722  1.9421 -0.4670
  125MOL0     H16840   6.570   6.907   1.368  3.2910 -1.0555 -1.8359
  125MOL0     H16841   6.767   7.037   1.408 -0.1671  0.1694  0.6724
  125MOL0     H16842   6.767   6.965   1.245 -1.3029  1.3061 -2.3052
  125MOL0     H16843   6.854   7.204   1.231 -0.0437 -0.3842  0.7134
  125MOL0     H16844   6.705   7.190   1.143 -1.1663 -2.0704  0.4237
  125MOL0     H16845   6.690   7.288   1.441 -1.3876 -1.0838 -0.5735
  125MOL0     H16846   6.595   7.321   1.304 -1.8415 -3.8366  1.9695
  125MOL0     H16847   6.697   7.510   1.362 -0.6078 -1.5629  1.7595
  125MOL0     H16848   6.806   7.471   1.234 -1.9735  2.5152 -0.4690
  125MOL0     H16849   6.858   7.417   1.535  0.6485 -2.0262 -0.0878
  125MOL0     H16850   6.952   7.344   1.392  0.6255  0.9713 -2.2143
  125MOL0     H16851   6.909   7.638   1.450  0.9834  0.1976  0.4626
  125MOL0     H16852   6.972   7.585   1.305 -3.2031  1.1463  0.5063
  125MOL0     H16853   7.153   7.651   1.456  0.9091  0.0707  4.0993
  125MOL0     H16854   7.098   7.529   1.575 -0.3796  0.9270  0.5122
  125MOL0     H16855   6.376   7.020   0.989 -0.6419  1.7975 -0.9946
  125MOL0     H16856   6.119   6.983   0.956  0.1349 -2.2492 -0.9336
  125MOL0     H16857   5.677   7.223   1.051 -2.9233  1.6044 -1.4769
  125MOL0     H16858   5.449   7.197   1.043  1.4544  1.2119  2.2965
  125MOL0     H16859   3.525   7.437   1.138 -1.1118  0.2087 -1.3878
  125MOL0     H16860   3.310   7.446   1.072 -3.1432 -0.4508  1.9449
  125MOL0     H16861   2.940   7.040   0.747 -1.9747 -1.5336 -1.0590
  125MOL0     H16862   2.701   7.005   0.725 -1.6317  2.5910 -1.2159
  125MOL0     H16863   2.396   7.175   0.864  1.0366  1.0657  0.4421
  125MOL0     H16864   2.445   7.157   1.042 -0.3807 -1.7471  2.1037
  125MOL0     H16865   2.223   7.084   1.038 -2.2934 -0.5673 -2.8178
  125MOL0     H16866   2.314   6.939   1.040  0.2602  0.5763  1.9712
  125MOL0     H16867   2.272   6.881   0.803  1.0323 -0.5708  1.8258
  125MOL0     H16868   2.168   7.017   0.791 -0.1324 -1.6749 -3.2472
  125MOL0     H16869   2.039   6.826   0.846 -0.9295  1.0927  0.5696
  125MOL0     H16870   2.126   6.785   0.998  0.9273  0.4611  0.0768
  125MOL0     H16871   1.849   7.051   1.146  3.0643  4.6340  0.4284
  125MOL0     H16872   2.651   7.146   1.134 -1.1965 -0.4455 -0.9419
  125MOL0     H16873   2.979   7.158   1.222 -0.2736 -0.0017  0.2132
  125MOL0     H16874   2.912   7.317   1.187  2.4424 -0.6906 -1.5772
  125MOL0     H16875   2.813   7.198   1.264  1.0757  0.2016  1.4099
  126MOL0     O16876   8.260   2.400   5.984 -0.2863  0.0209  0.2492
  126MOL0     C16877   8.312   2.379   6.093 -0.2845 -0.1631 -0.2498
  126MOL0     O16878   8.429   2.424   6.138 -0.2371  0.0171  0.2558
  126MOL0     C16879   8.489   2.518   6.059  0.5555  1.1325  0.2767
  126MOL0     C16880   8.606   2.493   5.991 -0.1079 -0.0815  0.1239
  126MOL0     C16881   8.661   2.587   5.900 -1.3378  0.3380 -0.5225
  126MOL0     C16882   8.600   2.706   5.873 -0.1680  0.2520 -0.6520
  126MOL0     O16883   8.656   2.779   5.769  0.1057 -0.1900  0.2084
  126MOL0     C16884   8.617   2.912   5.754  0.4293 -0.6307 -0.5214
  126MOL0     C16885   8.699   2.982   5.650  0.1851  0.0571 -0.0801
  126MOL0     C16886   8.659   3.128   5.629  0.3343 -0.0918 -0.7332
  126MOL0     C16887   8.758   3.211   5.536 -0.6047  0.9144  0.8389
  126MOL0     C16888   8.705   3.350   5.502  0.0046 -0.2057 -0.4578
  126MOL0     C16889   8.755   3.418   5.374 -0.1736 -0.5244  0.9367
  126MOL0     C16890   8.723   3.338   5.238 -0.6063 -0.6989  0.7575
  126MOL0     C16891   8.835   3.358   5.130 -0.1575 -0.9158 -0.0025
  126MOL0     N16892   8.961   3.303   5.185  0.3427  0.1729  0.5213
  126MOL0     C16893   8.990   3.174   5.212  0.0169 -0.3890  0.0772
  126MOL0     C16894   9.120   3.173   5.215 -0.0331  0.5760 -0.8250
  126MOL0     C16895   9.205   3.062   5.248  0.6229  0.0526 -0.4791
  126MOL0     C16896   9.166   2.984   5.378  0.2435  0.0781  0.0520
  126MOL0     C16897   9.185   3.079   5.500  0.6978  0.2146 -0.1441
  126MOL0     C16898   9.114   3.022   5.630  0.6090  0.3174  1.2246
  126MOL0     O16899   9.116   3.121   5.737  0.4429  0.3651  0.1127
  126MOL0     C16900   9.239   3.168   5.781 -0.5410 -0.9951  0.5492
  126MOL0     C16901   9.359   3.095   5.786  0.1404 -0.2782  0.4960
  126MOL0     C16902   9.478   3.146   5.826  0.2162  0.3644 -0.6607
  126MOL0     C16903   9.489   3.281   5.866 -0.1993  0.3876 -0.5210
  126MOL0     C16904   9.609   3.344   5.918 -0.5161  0.8957  0.6655
  126MOL0     O16905   9.713   3.259   5.933 -0.1168  0.0821 -0.3785
  126MOL0     C16906   9.828   3.287   5.997  0.5643 -0.8646 -0.1053
  126MOL0     C16907   9.852   3.384   6.096 -0.2186  0.5425  0.0579
  126MOL0     C16908   9.982   3.407   6.150  0.5208  0.6079 -0.1005
  126MOL0     C16909  10.080   3.316   6.110 -0.0276  0.4850 -0.2611
  126MOL0     O16910  10.220   3.320   6.142 -0.0849  0.3521  0.7021
  126MOL0     C16911  10.264   3.411   6.244 -0.8563  0.6855  0.6486
  126MOL0     C16912  10.390   3.372   6.325 -0.5297 -0.4495  0.0169
  126MOL0     C16913  10.403   3.449   6.459 -0.0441 -0.3131  0.2618
  126MOL0     C16914  10.539   3.430   6.509  0.1568 -1.0680  0.5853
  126MOL0     C16915  10.579   3.530   6.620 -0.8561  0.3343  0.0259
  126MOL0     C16916  10.508   3.493   6.747  0.3964 -0.1168 -0.3644
  126MOL0     C16917  10.559   3.584   6.866 -1.2812 -0.3543  0.8461
  126MOL0     C16918  10.505   3.569   7.012 -0.7993  0.0506 -0.2875
  126MOL0    Cl16919  10.334   3.543   7.018 -0.0339 -0.3846  0.0283
  126MOL0     C16920  10.059   3.209   6.027  0.3281  0.8757  0.0283
  126MOL0     C16921   9.932   3.198   5.968  0.0180 -0.4868  0.1289
  126MOL0     O16922   9.611   3.457   5.955  0.0702 -0.3856  0.4198
  126MOL0     C16923   9.363   3.354   5.878 -0.5822  0.0196 -0.4362
  126MOL0     C16924   9.244   3.299   5.833 -0.3034  0.5637 -0.2580
  126MOL0     N16925   9.170   3.297   5.216 -0.4933  0.1138  0.0269
  126MOL0     N16926   9.074   3.373   5.179 -0.3078  0.0458  0.1464
  126MOL0     C16927   8.492   2.741   5.956  0.5163  0.3079  0.6614
  126MOL0     C16928   8.435   2.648   6.051 -0.3358  0.1499  0.2406
  126MOL0     C16929   8.234   2.293   6.185  0.3279  0.9121  0.4040
  126MOL0     C16930   8.232   2.154   6.151  0.4080  0.3926  0.0503
  126MOL0     C16931   8.186   2.059   6.250  1.9309  0.6142  0.4823
  126MOL0     C16932   8.155   2.099   6.376  0.1579  0.7048  0.2379
  126MOL0     O16933   8.123   2.005   6.472 -0.4333 -0.1312 -0.9362
  126MOL0     C16934   7.985   1.967   6.450  0.0517  0.0522  0.7251
  126MOL0     C16935   7.928   1.897   6.572 -0.3373  0.4655 -0.6342
  126MOL0     C16936   7.916   1.989   6.694 -0.3029  0.8244 -0.7610
  126MOL0     C16937   7.791   1.956   6.783  0.1807 -0.1536  0.5071
  126MOL0     C16938   7.667   2.032   6.738 -0.5564  0.4135  0.1186
  126MOL0     C16939   7.577   2.085   6.692  0.3974  0.8114 -0.5814
  126MOL0     C16940   8.146   2.237   6.398 -0.3052  0.5106  0.1678
  126MOL0     C16941   8.180   2.335   6.306 -0.6013 -0.4491 -0.2299
  126MOL0     C16942   8.164   2.474   6.348  1.1826 -0.8316  0.3418
  126MOL0     H16943   8.650   2.395   6.003  0.9961  0.5023  1.0803
  126MOL0     H16944   8.747   2.556   5.841 -0.5136 -3.4418  2.2512
  126MOL0     H16945   8.510   2.902   5.731  0.2295 -2.5107  0.9553
  126MOL0     H16946   8.613   2.969   5.847 -0.7841 -2.0623  0.3691
  126MOL0     H16947   8.682   2.927   5.557 -2.6511 -1.4555  1.1847
  126MOL0     H16948   8.804   2.970   5.678  0.1816  0.9433  0.3513
  126MOL0     H16949   8.668   3.169   5.730  1.8929 -2.0949 -0.0057
  126MOL0     H16950   8.556   3.137   5.593  0.4813  0.4997 -1.0295
  126MOL0     H16951   8.861   3.217   5.571 -0.5222  2.2727  0.4011
  126MOL0     H16952   8.769   3.157   5.441 -0.2481  0.4291  1.1554
  126MOL0     H16953   8.597   3.341   5.486 -0.0229 -0.3113 -0.2224
  126MOL0     H16954   8.712   3.422   5.584 -1.0492 -1.2634  0.5997
  126MOL0     H16955   8.695   3.509   5.368 -0.2852 -0.5495  1.6050
  126MOL0     H16956   8.855   3.454   5.401 -0.7913  1.6757  0.5597
  126MOL0     H16957   8.630   3.385   5.204 -0.0888 -0.2662 -0.0961
  126MOL0     H16958   8.706   3.231   5.252  3.2510 -1.4635  0.6477
  126MOL0     H16959   8.818   3.311   5.033  0.3899 -0.5323 -0.2822
  126MOL0     H16960   8.853   3.465   5.121 -0.4434 -0.8681 -0.0097
  126MOL0     H16961   8.923   3.089   5.222 -1.2600  0.7477  1.8101
  126MOL0     H16962   9.213   2.992   5.164 -0.6177 -1.6905  0.7881
  126MOL0     H16963   9.306   3.097   5.267  1.4183 -1.7281 -1.1954
  126MOL0     H16964   9.063   2.948   5.380 -0.3216  1.6744  0.9096
  126MOL0     H16965   9.233   2.900   5.399  0.2501  0.5037  1.9500
  126MOL0     H16966   9.143   3.180   5.489 -0.3498 -0.3780 -2.0773
  126MOL0     H16967   9.293   3.076   5.515  0.5690 -2.0718  0.8071
  126MOL0     H16968   9.159   2.925   5.654 -0.8555 -1.5853 -2.8545
  126MOL0     H16969   9.010   3.003   5.603  0.9890  0.3749 -0.3815
  126MOL0     H16970   9.363   2.993   5.748  6.8493 -0.2046 -0.2512
  126MOL0     H16971   9.559   3.074   5.824 -0.9089 -0.9295 -0.7915
  126MOL0     H16972   9.771   3.450   6.123 -0.7629 -0.1503  0.1291
  126MOL0     H16973   9.991   3.485   6.225  0.6523  0.7189 -0.2311
  126MOL0     H16974  10.265   3.512   6.201 -2.7064  0.0027 -1.1921
  126MOL0     H16975  10.188   3.411   6.323 -0.6568 -0.2061  0.8487
  126MOL0     H16976  10.395   3.263   6.335  2.3863 -0.2488  1.9359
  126MOL0     H16977  10.479   3.411   6.274 -0.4152  0.9591  1.2438
  126MOL0     H16978  10.364   3.551   6.457 -2.1218 -1.0506 -0.0758
  126MOL0     H16979  10.328   3.400   6.523 -0.7699 -0.2358 -0.5128
  126MOL0     H16980  10.609   3.447   6.427 -0.3009  3.0798  0.8135
  126MOL0     H16981  10.552   3.331   6.554 -0.7467 -0.4472  2.2847
  126MOL0     H16982  10.566   3.635   6.591 -0.7880  0.1859 -0.5527
  126MOL0     H16983  10.687   3.526   6.635 -0.7642  2.5612  0.2875
  126MOL0     H16984  10.400   3.505   6.738  0.3164 -1.1715 -0.9517
  126MOL0     H16985  10.534   3.389   6.767 -1.3515 -0.9521 -2.0944
  126MOL0     H16986  10.539   3.683   6.823  3.0885 -0.4407 -1.9055
  126MOL0     H16987  10.667   3.577   6.876 -1.2540 -0.3651  0.5443
  126MOL0     H16988  10.550   3.476   7.045  0.9744  1.0198  0.1436
  126MOL0     H16989  10.547   3.643   7.080  0.2666  1.5795 -2.4675
  126MOL0     H16990  10.137   3.139   5.999  0.1807  0.5047  0.5394
  126MOL0     H16991   9.915   3.129   5.886 -1.6884  0.2944 -0.2293
  126MOL0     H16992   9.356   3.456   5.913 -1.1594  0.3404 -1.4340
  126MOL0     H16993   9.151   3.354   5.824 -0.8850 -0.3425 -0.0025
  126MOL0     H16994   8.435   2.830   5.932  0.9763  1.0815  2.3123
  126MOL0     H16995   8.351   2.687   6.107 -1.8258  0.3264 -1.9882
  126MOL0     H16996   8.278   2.118   6.060  0.5104  0.2678  0.1525
  126MOL0     H16997   8.196   1.954   6.224  2.5867  1.1364 -1.6298
  126MOL0     H16998   7.969   1.900   6.365 -0.7995 -2.4297  2.7070
  126MOL0     H16999   7.918   2.053   6.433  0.5846  0.9877  2.9160
  126MOL0     H17000   7.991   1.811   6.597 -1.6923 -0.2709  0.4194
  126MOL0     H17001   7.833   1.851   6.542  0.6707 -1.1330 -1.5640
  126MOL0     H17002   7.922   2.092   6.658  0.0619  0.9822 -0.2521
  126MOL0     H17003   8.007   1.965   6.749 -1.5848 -2.6228  0.1022
  126MOL0     H17004   7.772   1.849   6.798 -0.3458 -0.1027  0.2380
  126MOL0     H17005   7.813   1.991   6.884  1.3038 -1.1806  0.6305
  126MOL0     H17006   7.490   2.137   6.658 -2.0028 -1.7299  1.2114
  126MOL0     H17007   8.100   2.260   6.494 -1.0637  2.6567 -0.6523
  126MOL0     H17008   8.056   2.487   6.361  1.6601  1.7412  2.7205
  126MOL0     H17009   8.210   2.482   6.447 -0.0249 -0.8132  0.9214
  126MOL0     H17010   8.196   2.552   6.278 -0.6465 -1.0542 -0.8390
  127MOL0     O17011   4.444   1.331   9.854 -1.2743 -0.4126  0.1990
  127MOL0     C17012   4.365   1.357   9.947  0.3044 -0.6517  0.0620
  127MOL0     O17013   4.386   1.447  10.045  0.3761  0.4345 -0.0507
  127MOL0     C17014   4.506   1.515  10.054  0.4550  0.1549 -0.2994
  127MOL0     C17015   4.604   1.471  10.139 -0.6410 -0.0138 -0.5553
  127MOL0     C17016   4.724   1.547  10.148 -0.2978 -0.5373  0.2864
  127MOL0     C17017   4.745   1.667  10.076  0.4118  1.1961  0.0404
  127MOL0     O17018   4.874   1.719  10.084 -0.5738 -0.4674  0.3114
  127MOL0     C17019   4.922   1.825   9.995 -0.3956 -0.2423 -0.1627
  127MOL0     C17020   5.069   1.859  10.037 -0.3563  0.5208  0.2332
  127MOL0     C17021   5.132   1.989   9.981  0.0431  0.4656 -0.9642
  127MOL0     C17022   5.270   2.011  10.056  0.3682 -0.9148  0.0534
  127MOL0     C17023   5.360   2.127  10.008  0.1979  0.5491 -0.6468
  127MOL0     C17024   5.466   2.158  10.113 -0.2742 -0.6386 -0.4598
  127MOL0     C17025   5.575   2.244  10.056  0.5383 -0.2400  0.9086
  127MOL0     C17026   5.689   2.268  10.149 -0.6820  0.2775  0.7011
  127MOL0     N17027   5.811   2.332  10.089 -0.0190 -0.4138  0.1074
  127MOL0     C17028   5.936   2.281  10.077  0.2936 -0.1337 -0.0613
  127MOL0     C17029   6.018   2.391  10.054 -0.6483  0.2250  0.2114
  127MOL0     C17030   6.166   2.380  10.033  0.3003  0.6543 -0.7259
  127MOL0     C17031   6.230   2.518  10.072 -0.4054 -0.6427 -0.3234
  127MOL0     C17032   6.223   2.550  10.215 -0.1921  0.0805 -0.4095
  127MOL0     C17033   6.332   2.489  10.310 -0.8042  0.5401  0.0645
  127MOL0     O17034   6.451   2.541  10.251 -0.3037  0.0985 -0.3377
  127MOL0     C17035   6.570   2.524  10.320  0.1756  0.2229  0.0275
  127MOL0     C17036   6.676   2.611  10.300  0.4222 -0.1411 -0.0384
  127MOL0     C17037   6.801   2.586  10.353  0.3711  0.8411  0.4506
  127MOL0     C17038   6.823   2.470  10.438  0.6309  0.1118 -1.3426
  127MOL0     C17039   6.963   2.435  10.481  0.8643 -0.0722  0.0811
  127MOL0     O17040   7.058   2.509  10.410 -0.3954 -0.3973  0.6878
  127MOL0     C17041   7.193   2.472  10.422 -0.3382 -0.5440 -0.1964
  127MOL0     C17042   7.292   2.563  10.427  0.2777 -0.3704  0.6670
  127MOL0     C17043   7.428   2.525  10.428 -0.1103 -0.3174 -0.3994
  127MOL0     C17044   7.471   2.391  10.417 -0.0543  0.6656 -0.7827
  127MOL0     O17045   7.601   2.344  10.422  0.2699  0.6236  0.0567
  127MOL0     C17046   7.705   2.416  10.363  0.4034 -0.2394  0.7747
  127MOL0     C17047   7.837   2.359  10.422  0.3773  0.3864  0.5432
  127MOL0     C17048   7.958   2.412  10.344 -0.7071 -0.1104 -0.0760
  127MOL0     C17049   8.086   2.344  10.399  0.2920  0.5411 -0.1450
  127MOL0     C17050   8.216   2.404  10.361 -0.7900  0.1861 -0.3725
  127MOL0     C17051   8.328   2.381  10.465  0.0133 -0.2440 -0.6581
  127MOL0     C17052   8.463   2.441  10.439  0.6582  0.0348  0.0920
  127MOL0     C17053   8.547   2.361  10.343 -0.5587  0.1132  0.4801
  127MOL0    Cl17054   8.713   2.421  10.356 -0.2488 -0.1713  0.1545
  127MOL0     C17055   7.360   2.297  10.408 -0.3002 -0.4456  0.7251
  127MOL0     C17056   7.231   2.332  10.410 -0.9520 -0.0774 -0.2559
  127MOL0     O17057   6.983   2.339  10.553 -0.0521 -0.1596  0.0651
  127MOL0     C17058   6.706   2.401  10.475  0.2233  1.2067  0.2309
  127MOL0     C17059   6.586   2.416  10.409 -0.0901 -0.2765  0.1427
  127MOL0     N17060   5.942   2.503  10.028 -0.1515  0.5575 -0.0612
  127MOL0     N17061   5.818   2.470  10.050  0.0794  0.7140 -0.5664
  127MOL0     C17062   4.645   1.703   9.990 -0.0607  0.5949  0.4784
  127MOL0     C17063   4.528   1.633   9.976  0.4730  0.7008  0.2280
  127MOL0     C17064   4.221   1.318   9.939 -0.3720 -0.7723  0.1172
  127MOL0     C17065   4.130   1.423   9.977  0.2402  0.6975  0.3390
  127MOL0     C17066   3.989   1.404   9.984  0.0206  0.1784  0.3397
  127MOL0     C17067   3.940   1.285   9.922 -0.3997 -0.6798 -0.3966
  127MOL0     O17068   3.807   1.273   9.908  0.2924 -0.0928 -0.5191
  127MOL0     C17069   3.750   1.140   9.920 -0.8657  0.2155 -0.3369
  127MOL0     C17070   3.598   1.136   9.905  0.2595 -0.5607  0.0452
  127MOL0     C17071   3.522   1.188  10.030 -0.5321 -0.6280  0.2562
  127MOL0     C17072   3.374   1.178  10.012 -0.3652 -0.4191 -0.4761
  127MOL0     C17073   3.301   1.237  10.130  0.4067 -0.8237  0.1002
  127MOL0     C17074   3.243   1.273  10.227 -1.2528  0.4946  0.7307
  127MOL0     C17075   4.033   1.187   9.877  0.1102 -0.0804  0.2787
  127MOL0     C17076   4.173   1.200   9.880 -0.4714 -0.1875  0.0291
  127MOL0     C17077   4.254   1.086   9.814  0.6841  0.4984  0.4944
  127MOL0     H17078   4.594   1.376  10.190  0.4582  0.7179  1.1142
  127MOL0     H17079   4.795   1.493  10.210  0.9034 -0.7956 -1.2514
  127MOL0     H17080   4.917   1.788   9.892  1.0956 -1.1234  0.0399
  127MOL0     H17081   4.872   1.922   9.998  0.2365  0.0764  1.2062
  127MOL0     H17082   5.140   1.777  10.019 -1.5098 -0.7097  1.0549
  127MOL0     H17083   5.064   1.865  10.147 -0.7970 -2.2702  0.4550
  127MOL0     H17084   5.070   2.075  10.008 -2.0481 -1.2180 -0.1522
  127MOL0     H17085   5.133   1.981   9.872 -2.1066 -1.4581 -0.9077
  127MOL0     H17086   5.247   2.027  10.162 -0.6443 -1.8437 -0.0003
  127MOL0     H17087   5.327   1.918  10.042 -0.8449 -1.3699 -2.3510
  127MOL0     H17088   5.400   2.091   9.913  2.3851 -3.7632  1.5781
  127MOL0     H17089   5.290   2.208   9.985 -2.2610 -1.1830  0.2824
  127MOL0     H17090   5.424   2.221  10.191 -0.4038 -2.8026  1.3039
  127MOL0     H17091   5.509   2.070  10.161 -0.1506 -2.6070 -3.8524
  127MOL0     H17092   5.536   2.341  10.023  0.1555 -0.0579  1.8606
  127MOL0     H17093   5.605   2.196   9.962 -2.7575  0.3770 -0.5848
  127MOL0     H17094   5.663   2.335  10.231 -0.7980  0.3152  0.6349
  127MOL0     H17095   5.724   2.174  10.193  2.4351  0.5604 -0.9191
  127MOL0     H17096   5.967   2.180  10.103 -3.8326 -0.9853  2.5426
  127MOL0     H17097   6.202   2.302  10.100 -2.3261 -0.3766 -0.3684
  127MOL0     H17098   6.196   2.361   9.929  1.3939  1.7065 -0.6191
  127MOL0     H17099   6.335   2.522  10.042 -0.1845 -0.5795  0.4326
  127MOL0     H17100   6.178   2.600  10.021 -1.5709 -1.5211 -0.5835
  127MOL0     H17101   6.123   2.539  10.258  1.0523  0.6921  2.9035
  127MOL0     H17102   6.248   2.657  10.210 -0.6196  0.3384  1.9085
  127MOL0     H17103   6.335   2.379  10.309  3.9979  0.4147  0.9565
  127MOL0     H17104   6.328   2.535  10.409  0.2902 -0.8351  0.7888
  127MOL0     H17105   6.646   2.691  10.233 -1.9288 -2.1035 -1.4722
  127MOL0     H17106   6.889   2.643  10.325  1.1827 -1.3132 -1.8311
  127MOL0     H17107   7.248   2.661  10.443 -0.4423 -0.1409 -2.2196
  127MOL0     H17108   7.501   2.604  10.436 -0.8048  0.1357  2.5527
  127MOL0     H17109   7.703   2.423  10.254 -0.2513 -0.0796  0.7887
  127MOL0     H17110   7.706   2.520  10.396  6.3513 -0.1202  1.1694
  127MOL0     H17111   7.837   2.395  10.525 -0.8853 -0.0958  0.7271
  127MOL0     H17112   7.842   2.250  10.419 -1.6402  0.2211 -2.6217
  127MOL0     H17113   7.950   2.385  10.239 -2.3596  0.5146 -0.1388
  127MOL0     H17114   7.957   2.521  10.342 -1.3256 -0.1114 -2.6169
  127MOL0     H17115   8.082   2.243  10.357  0.9681 -0.3649  1.8188
  127MOL0     H17116   8.089   2.333  10.508 -0.7852 -1.4840 -0.2701
  127MOL0     H17117   8.202   2.513  10.357  0.5696  0.3711 -0.5762
  127MOL0     H17118   8.262   2.368  10.268 -1.4965 -1.1761 -0.2140
  127MOL0     H17119   8.285   2.415  10.560 -5.8968 -0.3122 -2.8527
  127MOL0     H17120   8.340   2.273  10.478  0.7041  0.1451  3.5345
  127MOL0     H17121   8.520   2.452  10.531  2.3259  0.6778 -0.9823
  127MOL0     H17122   8.443   2.543  10.404  1.9202  0.8787  1.7144
  127MOL0     H17123   8.539   2.260  10.385  0.1302  0.5994  1.8157
  127MOL0     H17124   8.509   2.372  10.240  0.3531  0.9853  0.2304
  127MOL0     H17125   7.388   2.194  10.386  2.4517  0.8178 -2.6434
  127MOL0     H17126   7.156   2.256  10.390  1.5071 -3.1198  1.1492
  127MOL0     H17127   6.721   2.327  10.553 -0.6479 -2.2161 -2.5580
  127MOL0     H17128   6.505   2.349  10.436  3.2547 -4.1800  1.5365
  127MOL0     H17129   4.650   1.799   9.939 -1.9726  0.8774  0.7553
  127MOL0     H17130   4.455   1.673   9.906  0.9461  0.6930 -0.2846
  127MOL0     H17131   4.167   1.524   9.992  2.9703 -0.1705 -0.1116
  127MOL0     H17132   3.912   1.468  10.026  0.6929  0.6335  0.9138
  127MOL0     H17133   3.778   1.100  10.018 -1.4691  0.3701 -0.0945
  127MOL0     H17134   3.792   1.076   9.843 -0.5008 -1.1493  0.9466
  127MOL0     H17135   3.578   1.030   9.887 -0.5467 -0.3496 -0.3536
  127MOL0     H17136   3.554   1.194   9.824 -1.0474 -1.2665  0.2143
  127MOL0     H17137   3.549   1.294  10.027  1.1701 -0.9892 -4.2342
  127MOL0     H17138   3.553   1.141  10.124 -1.8947 -1.3496  0.3619
  127MOL0     H17139   3.358   1.239   9.923  3.9097 -0.9162 -1.8067
  127MOL0     H17140   3.348   1.077   9.980  1.3533 -0.7616 -0.9090
  127MOL0     H17141   3.176   1.315  10.299 -1.6587 -1.0682  1.2809
  127MOL0     H17142   3.997   1.097   9.828  0.7716 -2.1371  3.3087
  127MOL0     H17143   4.247   1.089   9.705 -0.4438  1.6980  0.5728
  127MOL0     H17144   4.362   1.089   9.831  1.1089 -0.6366 -1.6700
  127MOL0     H17145   4.224   0.987   9.847  2.1817  0.4141  1.7256
  128MOL0     O17146   0.797  10.633   5.162 -0.3162 -0.0075  0.0827
  128MOL0     C17147   0.791  10.547   5.248 -0.2690 -0.4238 -0.3241
  128MOL0     O17148   0.858  10.559   5.372  0.4906 -0.9355 -0.1346
  128MOL0     C17149   0.926  10.669   5.410 -0.4359 -1.5641  0.1494
  128MOL0     C17150   1.063  10.651   5.406 -0.3506 -0.3812 -0.7417
  128MOL0     C17151   1.150  10.759   5.451 -0.2463  0.6166  0.1732
  128MOL0     C17152   1.088  10.873   5.505 -0.5255 -0.3341 -0.0029
  128MOL0     O17153   1.179  10.963   5.558 -0.1877 -0.5968 -0.1063
  128MOL0     C17154   1.140  11.100   5.585 -0.0689  0.0658 -0.6754
  128MOL0     C17155   1.256  11.179   5.659 -0.4702  0.2834  0.0735
  128MOL0     C17156   1.262  11.327   5.622  0.0899 -0.1101  0.1332
  128MOL0     C17157   1.383  11.385   5.703  0.1416 -0.4245 -0.7275
  128MOL0     C17158   1.422  11.534   5.690  0.1927  0.2150  0.2357
  128MOL0     C17159   1.307  11.617   5.749  0.4843  0.7403  0.4689
  128MOL0     C17160   1.353  11.771   5.755  0.3946  0.4981  0.5762
  128MOL0     C17161   1.328  11.833   5.888  0.3512 -0.2030  0.4035
  128MOL0     N17162   1.396  11.782   6.001 -0.6343 -0.3229  0.1388
  128MOL0     C17163   1.356  11.676   6.082 -1.1651 -0.9469 -0.4294
  128MOL0     C17164   1.462  11.627   6.153  0.0293 -0.7309 -0.1544
  128MOL0     C17165   1.461  11.520   6.251 -0.1444  1.1065 -0.2696
  128MOL0     C17166   1.438  11.381   6.180  0.7543 -0.3932  0.2357
  128MOL0     C17167   1.565  11.333   6.108  0.1153 -0.3493 -0.1784
  128MOL0     C17168   1.684  11.299   6.188 -0.1414  0.4801  1.1093
  128MOL0     O17169   1.801  11.273   6.100 -0.3597 -0.1595  0.3843
  128MOL0     C17170   1.912  11.209   6.150  0.2996  0.1370 -0.5857
  128MOL0     C17171   1.923  11.148   6.278 -0.2178 -1.3979 -0.8000
  128MOL0     C17172   2.033  11.088   6.313 -0.1065  1.0791 -0.1517
  128MOL0     C17173   2.150  11.088   6.235  0.1377 -0.0381  1.1362
  128MOL0     C17174   2.277  11.050   6.296  0.3777  0.0892 -0.8273
  128MOL0     O17175   2.280  11.027   6.430  0.3612 -0.8553 -0.5090
  128MOL0     C17176   2.404  11.002   6.491 -0.4674 -0.1906 -0.0254
  128MOL0     C17177   2.401  11.015   6.633  0.9387  0.4844  0.7223
  128MOL0     C17178   2.504  10.992   6.718  0.1169  0.1319  0.1446
  128MOL0     C17179   2.631  10.974   6.663 -0.6852 -0.1081 -0.1373
  128MOL0     O17180   2.740  10.952   6.744  0.7693  0.0798 -0.2652
  128MOL0     C17181   2.846  10.868   6.691 -0.3905  0.0940 -0.0655
  128MOL0     C17182   2.911  10.790   6.802 -0.3721 -1.2125 -0.6210
  128MOL0     C17183   3.009  10.678   6.758  0.4474 -0.5175  0.3424
  128MOL0     C17184   3.082  10.628   6.879 -0.0978 -0.5304  0.0464
  128MOL0     C17185   3.208  10.721   6.894  0.2235  1.0381 -0.8835
  128MOL0     C17186   3.301  10.686   7.009 -0.2933 -0.0678 -0.7434
  128MOL0     C17187   3.428  10.605   6.954  0.4469 -0.4257  0.0353
  128MOL0     C17188   3.524  10.548   7.061 -0.2733  0.0667 -0.6010
  128MOL0    Cl17189   3.435  10.434   7.166 -0.4921  0.0848  0.2637
  128MOL0     C17190   2.639  10.972   6.518 -0.3936 -0.4706 -0.0854
  128MOL0     C17191   2.529  10.980   6.433 -0.5702 -0.5449 -0.0050
  128MOL0     O17192   2.374  11.054   6.215  0.0068  0.7380  0.7188
  128MOL0     C17193   2.139  11.150   6.104  0.4652  1.2360 -0.0175
  128MOL0     C17194   2.021  11.204   6.065  0.5201 -0.2388  0.0944
  128MOL0     N17195   1.572  11.688   6.098  1.0686  0.4642 -0.9293
  128MOL0     N17196   1.534  11.782   6.012 -0.9238 -0.3557 -0.3863
  128MOL0     C17197   0.951  10.884   5.517 -0.0097  0.2605  0.6730
  128MOL0     C17198   0.865  10.785   5.467  0.4177  0.0965 -0.2691
  128MOL0     C17199   0.687  10.439   5.229  0.3227 -0.3849 -0.5510
  128MOL0     C17200   0.585  10.461   5.139  0.5901 -1.1252  0.9675
  128MOL0     C17201   0.490  10.370   5.107  0.3157 -0.0785 -0.0185
  128MOL0     C17202   0.472  10.249   5.173  0.7749  0.7444 -0.1081
  128MOL0     O17203   0.367  10.162   5.146 -0.6524 -0.7291 -0.5417
  128MOL0     C17204   0.367  10.036   5.204 -0.4476  0.0912 -0.7791
  128MOL0     C17205   0.459   9.936   5.127  0.0260  0.5176 -0.1185
  128MOL0     C17206   0.485   9.821   5.225 -0.2564  0.3798  0.3725
  128MOL0     C17207   0.381   9.710   5.230  0.4392 -0.2519  0.3099
  128MOL0     C17208   0.451   9.582   5.238 -0.0437  0.1280  0.1229
  128MOL0     C17209   0.497   9.466   5.245  0.6896 -0.8077 -0.1758
  128MOL0     C17210   0.580  10.214   5.255 -0.7522 -0.6736  0.7012
  128MOL0     C17211   0.692  10.300   5.278 -0.4291 -0.2961 -0.0641
  128MOL0     C17212   0.807  10.246   5.369  0.3205  0.2563  0.4157
  128MOL0     H17213   1.120  10.568   5.365  2.5010 -0.6118  3.1326
  128MOL0     H17214   1.259  10.755   5.449 -0.2831 -0.8318 -0.6625
  128MOL0     H17215   1.122  11.151   5.489  1.3294  3.4133  0.7213
  128MOL0     H17216   1.049  11.098   5.646  1.3648 -0.2689  1.5469
  128MOL0     H17217   1.348  11.125   5.637 -1.5201 -0.4966 -2.7361
  128MOL0     H17218   1.242  11.170   5.767 -2.1247 -0.7690 -0.1925
  128MOL0     H17219   1.170  11.385   5.632  1.0731  1.3067  1.3689
  128MOL0     H17220   1.285  11.329   5.515  0.8473 -4.2784  0.0617
  128MOL0     H17221   1.360  11.363   5.807 -0.2788  0.2106 -0.6807
  128MOL0     H17222   1.463  11.320   5.666  1.3225  0.4831  0.1348
  128MOL0     H17223   1.517  11.553   5.741  2.0944 -0.0043 -2.9412
  128MOL0     H17224   1.441  11.561   5.585  2.7799  2.7151  1.2125
  128MOL0     H17225   1.213  11.601   5.695  1.4392 -1.3598 -0.6692
  128MOL0     H17226   1.292  11.573   5.848 -4.0917 -1.7980 -1.0252
  128MOL0     H17227   1.304  11.827   5.675 -2.3730  0.0239  1.8309
  128MOL0     H17228   1.460  11.786   5.743  0.1243  0.6927 -2.2926
  128MOL0     H17229   1.353  11.939   5.875 -1.2386  0.3427  1.4328
  128MOL0     H17230   1.220  11.833   5.905  0.3881 -2.7804  1.0006
  128MOL0     H17231   1.254  11.647   6.104 -1.4469 -0.0895 -0.5686
  128MOL0     H17232   1.546  11.532   6.318  0.5456  0.3613 -0.9826
  128MOL0     H17233   1.372  11.530   6.314 -0.7836 -1.6816 -0.6044
  128MOL0     H17234   1.407  11.325   6.269  0.6838 -0.2801  0.2811
  128MOL0     H17235   1.359  11.388   6.105 -0.0317  0.9668  1.1674
  128MOL0     H17236   1.597  11.418   6.047 -0.6499 -0.6093 -0.9480
  128MOL0     H17237   1.545  11.250   6.040 -0.7833  0.5044 -0.9794
  128MOL0     H17238   1.657  11.215   6.252 -0.8131  0.0366  0.2611
  128MOL0     H17239   1.703  11.387   6.250  0.1208  0.5934  0.8715
  128MOL0     H17240   1.843  11.155   6.351  1.3405 -1.1187  0.9483
  128MOL0     H17241   2.043  11.048   6.413  1.7227 -2.0911 -1.4395
  128MOL0     H17242   2.305  11.044   6.673 -1.4731 -2.5804 -2.2472
  128MOL0     H17243   2.503  10.994   6.827  1.1945 -3.1116  0.3135
  128MOL0     H17244   2.807  10.787   6.630  0.9970 -0.0172 -0.8365
  128MOL0     H17245   2.915  10.930   6.634  1.5514  0.3418  2.3792
  128MOL0     H17246   2.958  10.869   6.862 -0.5624 -1.0909 -0.6337
  128MOL0     H17247   2.837  10.744   6.868  0.5201 -2.5745 -0.5188
  128MOL0     H17248   2.934  10.608   6.719  0.0591 -0.5407  1.0973
  128MOL0     H17249   3.078  10.709   6.680 -0.7283  1.2122 -0.0897
  128MOL0     H17250   3.112  10.526   6.854 -2.3457 -1.5015  1.0863
  128MOL0     H17251   3.012  10.637   6.962 -1.6611  1.7978 -1.3867
  128MOL0     H17252   3.170  10.823   6.907 -0.2405  0.7501  0.0947
  128MOL0     H17253   3.262  10.714   6.799 -0.7770  1.6492 -1.5097
  128MOL0     H17254   3.328  10.774   7.069 -0.3248 -1.1272  0.8859
  128MOL0     H17255   3.250  10.622   7.082  1.7910  0.6329  1.4906
  128MOL0     H17256   3.487  10.666   6.885 -0.7115  2.3768  1.3639
  128MOL0     H17257   3.386  10.526   6.892  0.5690  0.3274 -1.0358
  128MOL0     H17258   3.606  10.488   7.022  0.0217  1.2665 -1.9109
  128MOL0     H17259   3.548  10.633   7.125 -1.4979 -1.8029  2.6041
  128MOL0     H17260   2.742  10.965   6.484  0.1541  2.1300  0.8084
  128MOL0     H17261   2.546  10.948   6.331  0.1898 -1.1918  0.3140
  128MOL0     H17262   2.218  11.137   6.031  2.0584  1.8060  1.5252
  128MOL0     H17263   2.000  11.233   5.962  1.1071  0.6368  0.2085
  128MOL0     H17264   0.900  10.961   5.574 -1.9474 -1.8159  1.8856
  128MOL0     H17265   0.758  10.797   5.484  0.0218 -2.3872 -0.5942
  128MOL0     H17266   0.570  10.557   5.092  1.2393  0.5876  4.0424
  128MOL0     H17267   0.424  10.399   5.026 -1.2252 -1.7269  0.6024
  128MOL0     H17268   0.263  10.004   5.207 -2.0649  4.6346  0.1853
  128MOL0     H17269   0.382  10.036   5.312 -0.9308 -2.3009 -0.6635
  128MOL0     H17270   0.553   9.983   5.097 -0.4127  1.3472 -0.2204
  128MOL0     H17271   0.405   9.912   5.035  2.7536 -0.5332 -1.5438
  128MOL0     H17272   0.514   9.861   5.322 -1.3301 -0.2968  0.9966
  128MOL0     H17273   0.578   9.774   5.189  0.5187 -1.0665  3.8926
  128MOL0     H17274   0.319   9.722   5.320  1.2081 -1.0285  0.9584
  128MOL0     H17275   0.312   9.712   5.145 -0.2460  0.0801  0.8612
  128MOL0     H17276   0.511   9.361   5.258 -0.2536 -0.9850 -0.4806
  128MOL0     H17277   0.606  10.121   5.305  1.4399  0.1654  1.2244
  128MOL0     H17278   0.803  10.285   5.471  0.2325  0.7960  0.2142
  128MOL0     H17279   0.800  10.138   5.375  2.2716 -0.1473 -2.4697
  128MOL0     H17280   0.907  10.265   5.328  0.0086  0.0747 -0.4459
  129MOL0     O17281   8.482  11.353  10.359 -0.1248  0.1285  0.1960
  129MOL0     C17282   8.396  11.444  10.379 -0.1873 -0.3868 -0.5620
  129MOL0     O17283   8.432  11.559  10.439 -0.3169  0.2503 -0.6699
  129MOL0     C17284   8.559  11.584  10.486  0.1504  0.1370  0.8028
  129MOL0     C17285   8.606  11.515  10.595 -0.1458  0.4707  0.9885
  129MOL0     C17286   8.734  11.542  10.633  0.7222  0.2140  0.2355
  129MOL0     C17287   8.816  11.631  10.559  0.2562  1.5951 -0.1019
  129MOL0     O17288   8.939  11.660  10.618 -0.4638 -0.2314 -0.4680
  129MOL0     C17289   9.038  11.745  10.548  1.3206  0.5229  0.0275
  129MOL0     C17290   9.112  11.639  10.460 -0.1523 -0.4041  0.6565
  129MOL0     C17291   9.231  11.690  10.366 -0.0104  0.5778  0.4164
  129MOL0     C17292   9.359  11.687  10.452 -0.0296  0.2222  0.1370
  129MOL0     C17293   9.468  11.783  10.404  0.3649 -0.5004 -0.3593
  129MOL0     C17294   9.512  11.745  10.266 -0.1284  0.4220 -0.0167
  129MOL0     C17295   9.633  11.823  10.217  0.3294 -0.1225 -0.2508
  129MOL0     C17296   9.676  11.772  10.086 -0.1626  0.3168 -0.0220
  129MOL0     N17297   9.785  11.857  10.025 -0.0433  1.4385 -0.4847
  129MOL0     C17298   9.903  11.805   9.978 -0.2721  0.7525  0.0421
  129MOL0     C17299   9.974  11.917   9.938 -0.2214 -0.1535  0.2838
  129MOL0     C17300  10.116  11.929   9.878  0.8776  1.0236  0.1292
  129MOL0     C17301  10.210  11.821   9.920 -0.1995  0.5072  0.7543
  129MOL0     C17302  10.366  11.868   9.915  1.0458  0.4139 -0.6371
  129MOL0     C17303  10.464  11.766   9.971  0.2180 -0.4065 -0.0813
  129MOL0     O17304  10.495  11.651   9.883  0.3513  0.3003  0.4001
  129MOL0     C17305  10.590  11.561   9.914 -0.2143 -0.4639  0.9144
  129MOL0     C17306  10.709  11.600   9.971 -0.4767 -0.3763 -0.3472
  129MOL0     C17307  10.811  11.515   9.971  1.0882  0.1209  0.1685
  129MOL0     C17308  10.804  11.385   9.919 -1.1326  0.7337 -0.7393
  129MOL0     C17309  10.921  11.292   9.921  0.0356 -1.0186 -0.2206
  129MOL0     O17310  11.038  11.363   9.949  0.9188 -0.3657 -0.2394
  129MOL0     C17311  11.159  11.291   9.951 -0.0072  0.0650  0.0916
  129MOL0     C17312  11.206  11.231  10.071  0.5883 -0.6674 -0.0879
  129MOL0     C17313  11.332  11.169  10.067  0.6157 -0.2865  0.0792
  129MOL0     C17314  11.408  11.147   9.953  0.0457  0.2752  0.5998
  129MOL0     O17315  11.529  11.082   9.973  0.0977 -0.1230  0.4313
  129MOL0     C17316  11.625  11.069   9.865 -0.4944  0.4031  0.6145
  129MOL0     C17317  11.762  11.036   9.940  0.5683  0.1067 -0.8403
  129MOL0     C17318  11.851  11.155   9.982 -0.0551  0.0184 -0.2225
  129MOL0     C17319  11.788  11.244  10.093 -0.3631  0.7686 -0.0920
  129MOL0     C17320  11.871  11.371  10.115 -0.9456  0.3391 -0.1305
  129MOL0     C17321  11.997  11.351  10.191  0.4810 -0.4681 -0.0641
  129MOL0     C17322  12.047  11.487  10.257  0.0023 -0.1730 -0.7319
  129MOL0     C17323  12.077  11.600  10.155  0.5371  0.8317 -0.9606
  129MOL0    Cl17324  12.123  11.754  10.227  0.2254  0.3241 -0.5077
  129MOL0     C17325  11.361  11.197   9.831 -0.2067  0.3733  0.2995
  129MOL0     C17326  11.237  11.275   9.837 -0.1472  0.6655 -0.2451
  129MOL0     O17327  10.908  11.172   9.915 -0.7896  0.2474 -0.5315
  129MOL0     C17328  10.685  11.336   9.878 -0.9157 -0.0412  0.4542
  129MOL0     C17329  10.576  11.428   9.859  0.1440 -0.8952  0.5409
  129MOL0     N17330   9.901  12.027   9.970  0.1382 -1.0164 -0.3610
  129MOL0     N17331   9.789  11.987  10.020 -0.0305  0.0708  0.5055
  129MOL0     C17332   8.762  11.697  10.446 -0.6613  0.6374  0.2245
  129MOL0     C17333   8.631  11.673  10.412  0.6525 -0.5029 -0.3856
  129MOL0     C17334   8.252  11.425  10.337 -1.2100  1.0823  0.4758
  129MOL0     C17335   8.157  11.526  10.349  0.0970  0.1106 -0.0300
  129MOL0     C17336   8.024  11.500  10.315 -0.1661  0.0530 -0.3336
  129MOL0     C17337   7.970  11.380  10.261 -0.3316  0.2411 -0.3462
  129MOL0     O17338   7.835  11.380  10.230  1.0063 -0.9029  0.2879
  129MOL0     C17339   7.777  11.258  10.171  0.0040  0.3393  0.4597
  129MOL0     C17340   7.622  11.281  10.152  0.8289  0.1169  0.9334
  129MOL0     C17341   7.575  11.413  10.090  1.2140  0.3216  0.0164
  129MOL0     C17342   7.416  11.408  10.067  0.1922  0.9323 -0.2544
  129MOL0     C17343   7.372  11.313   9.962 -0.0391 -0.0956 -0.0119
  129MOL0     C17344   7.349  11.227   9.874  0.4513 -0.2918 -0.3385
  129MOL0     C17345   8.061  11.280  10.242 -0.8539 -0.5267 -0.1013
  129MOL0     C17346   8.196  11.302  10.272  0.1180 -0.5500 -0.3819
  129MOL0     C17347   8.286  11.193  10.236  0.1219 -0.7441 -0.7019
  129MOL0     H17348   8.537  11.456  10.654 -0.3641 -0.3803 -0.0816
  129MOL0     H17349   8.766  11.514  10.733  2.5454  2.2617  0.2989
  129MOL0     H17350   8.994  11.823  10.485 -1.6497 -1.6606 -0.8580
  129MOL0     H17351   9.103  11.787  10.625  0.1709  1.0843  0.7283
  129MOL0     H17352   9.031  11.612  10.392 -0.4426  1.0841  0.3768
  129MOL0     H17353   9.138  11.548  10.514 -1.0676 -0.7153  0.5934
  129MOL0     H17354   9.223  11.792  10.326  1.8900  0.5804 -0.0593
  129MOL0     H17355   9.230  11.624  10.279 -2.5031  1.4357 -0.3138
  129MOL0     H17356   9.353  11.704  10.560  4.6010  2.0467  0.3491
  129MOL0     H17357   9.393  11.583  10.442 -2.8982 -0.6823 -1.2101
  129MOL0     H17358   9.424  11.883  10.410 -0.4778 -0.8258 -0.9036
  129MOL0     H17359   9.552  11.770  10.472 -1.8608  1.5607  3.1202
  129MOL0     H17360   9.538  11.639  10.268 -1.2190  0.1218 -0.8622
  129MOL0     H17361   9.426  11.764  10.201  0.4668  1.4173 -0.5368
  129MOL0     H17362   9.719  11.816  10.284 -0.0114  1.7921  0.4542
  129MOL0     H17363   9.601  11.927  10.227 -4.9603 -1.6784  3.5914
  129MOL0     H17364   9.707  11.669  10.104 -2.6363 -0.2921  1.1964
  129MOL0     H17365   9.592  11.765  10.016  0.4802 -2.7662 -0.6186
  129MOL0     H17366   9.933  11.701   9.983  0.2552  0.9545  1.9337
  129MOL0     H17367  10.113  11.931   9.768  2.4888  2.9378  0.0539
  129MOL0     H17368  10.172  12.018   9.911  0.2948  0.4814  2.7795
  129MOL0     H17369  10.200  11.807  10.028  0.3950 -1.6827  0.5644
  129MOL0     H17370  10.194  11.730   9.862 -4.5622  0.6615  1.3929
  129MOL0     H17371  10.380  11.964   9.964  0.9074  0.5471 -0.8541
  129MOL0     H17372  10.399  11.892   9.813  0.1118 -1.4436 -1.4297
  129MOL0     H17373  10.422  11.731  10.066 -2.9652  1.1368 -0.7768
  129MOL0     H17374  10.554  11.828   9.979 -0.1243  0.2009 -0.8055
  129MOL0     H17375  10.722  11.699  10.012  2.1747 -1.2503  1.1367
  129MOL0     H17376  10.905  11.555  10.008  2.5986 -2.2322 -0.8798
  129MOL0     H17377  11.157  11.230  10.168  0.6694 -1.5373 -0.0514
  129MOL0     H17378  11.383  11.130  10.155  0.8358 -3.4510 -1.3092
  129MOL0     H17379  11.581  10.988   9.806  1.0164 -1.1231  1.4879
  129MOL0     H17380  11.635  11.161   9.807 -2.6150 -0.1757 -0.7778
  129MOL0     H17381  11.748  10.970  10.026  3.9222  0.0393 -0.2240
  129MOL0     H17382  11.813  10.981   9.861 -2.1255  0.3230 -2.8527
  129MOL0     H17383  11.945  11.112  10.016 -0.6138 -1.4110 -0.4096
  129MOL0     H17384  11.867  11.223   9.897  0.1848  1.7728  1.1686
  129MOL0     H17385  11.767  11.184  10.182 -0.4418  0.4044 -0.3507
  129MOL0     H17386  11.695  11.279  10.047 -0.8566  0.0204  0.3103
  129MOL0     H17387  11.814  11.446  10.169  0.4012  2.1884 -1.1677
  129MOL0     H17388  11.914  11.404  10.020  1.8854  1.9102  1.5522
  129MOL0     H17389  11.987  11.275  10.270  3.4413 -0.5402  0.3739
  129MOL0     H17390  12.072  11.297  10.133 -2.0402 -1.5671 -2.5508
  129MOL0     H17391  12.143  11.468  10.306  0.6752  0.4140 -1.7691
  129MOL0     H17392  11.968  11.528  10.320 -1.6134 -0.2905 -2.6030
  129MOL0     H17393  12.163  11.570  10.094  0.5377 -2.1088  0.3293
  129MOL0     H17394  11.992  11.620  10.089  0.2427 -0.8275 -1.1113
  129MOL0     H17395  11.410  11.181   9.735 -1.2520 -3.3674  0.2137
  129MOL0     H17396  11.185  11.320   9.753 -2.1195  0.4621  0.7995
  129MOL0     H17397  10.675  11.233   9.844  2.0603  0.1968 -1.5229
  129MOL0     H17398  10.480  11.395   9.819 -0.7474 -0.6794  2.4007
  129MOL0     H17399   8.814  11.772  10.387 -1.3421  0.1679 -1.0121
  129MOL0     H17400   8.582  11.728  10.332  0.5200 -0.9516 -0.6172
  129MOL0     H17401   8.178  11.624  10.391  0.2685  0.2988 -0.5409
  129MOL0     H17402   7.954  11.581  10.334  1.1521  0.6513  2.4390
  129MOL0     H17403   7.794  11.170  10.233 -0.8051  0.6149  1.0853
  129MOL0     H17404   7.822  11.233  10.074  2.1090  1.5166  1.0807
  129MOL0     H17405   7.571  11.264  10.247 -1.1258 -1.6793 -0.3464
  129MOL0     H17406   7.590  11.200  10.084  4.2704 -0.7244  0.1150
  129MOL0     H17407   7.616  11.432   9.990  2.7548  0.6406  0.6923
  129MOL0     H17408   7.595  11.501  10.151 -0.0854  0.5253  0.1720
  129MOL0     H17409   7.373  11.358  10.154  1.6380 -3.5266 -1.8156
  129MOL0     H17410   7.357  11.499  10.056 -0.2920  0.5767 -0.7014
  129MOL0     H17411   7.347  11.147   9.802 -0.8848 -2.2112  1.7278
  129MOL0     H17412   8.025  11.188  10.197 -0.1390  0.2997 -2.5265
  129MOL0     H17413   8.342  11.164  10.325 -0.6695  3.5665  1.4892
  129MOL0     H17414   8.227  11.112  10.191 -1.1972 -0.9873  1.3627
  129MOL0     H17415   8.350  11.236  10.158 -0.7691  2.2277  0.0651
  130MOL0     O17416   8.098   0.384   0.473 -0.2511 -0.0160 -0.5011
  130MOL0     C17417   8.013   0.437   0.400 -0.3092 -0.6930 -0.0514
  130MOL0     O17418   8.046   0.508   0.293 -0.2296  0.5063 -0.2223
  130MOL0     C17419   8.174   0.554   0.271 -0.7404  0.5068  0.1476
  130MOL0     C17420   8.199   0.687   0.301  0.2345 -0.1225 -0.0259
  130MOL0     C17421   8.319   0.749   0.258 -0.0937  0.2531  0.6066
  130MOL0     C17422   8.418   0.674   0.196  1.5719 -0.1562 -0.4579
  130MOL0     O17423   8.527   0.743   0.160  0.4752 -0.5781  0.2220
  130MOL0     C17424   8.628   0.680   0.078  0.3132  0.4833 -0.4100
  130MOL0     C17425   8.734   0.775   0.031 -0.0260 -0.2699 -0.4860
  130MOL0     C17426   8.852   0.730  -0.066  0.3347  0.4034  0.2047
  130MOL0     C17427   8.922   0.857  -0.098 -0.0420  0.2947  0.1639
  130MOL0     C17428   9.041   0.837  -0.191  0.1317 -0.1311 -0.1244
  130MOL0     C17429   9.169   0.778  -0.121  0.1810 -0.1117  0.4586
  130MOL0     C17430   9.281   0.758  -0.219 -0.2788 -0.0286  0.4645
  130MOL0     C17431   9.321   0.900  -0.278  0.2462 -0.2155 -0.1363
  130MOL0     N17432   9.461   0.884  -0.321 -0.3020  0.2691  0.0097
  130MOL0     C17433   9.504   0.872  -0.449 -0.0242 -0.3616 -1.1130
  130MOL0     C17434   9.639   0.899  -0.442 -0.9127  0.0315  0.9143
  130MOL0     C17435   9.720   0.920  -0.567 -0.0774 -0.1328  0.6055
  130MOL0     C17436   9.735   1.074  -0.589  0.0339  0.3692 -0.4724
  130MOL0     C17437   9.865   1.125  -0.520  0.8726  0.8018  0.4886
  130MOL0     C17438   9.916   1.249  -0.591 -0.2334  0.0118 -0.7066
  130MOL0     O17439   9.989   1.230  -0.720  0.5136 -0.4682 -0.5186
  130MOL0     C17440  10.125   1.211  -0.732  0.1402 -0.3324  0.1053
  130MOL0     C17441  10.179   1.206  -0.866  0.3962  0.4283  0.9346
  130MOL0     C17442  10.309   1.166  -0.901 -0.6155 -0.0212 -0.5427
  130MOL0     C17443  10.399   1.154  -0.784  0.4818  0.2623  1.1679
  130MOL0     C17444  10.541   1.118  -0.820 -0.6143  0.2348 -0.3653
  130MOL0     O17445  10.562   1.077  -0.951  0.1169  0.4775  0.5311
  130MOL0     C17446  10.680   1.030  -0.995  0.4875 -0.0445  0.4175
  130MOL0     C17447  10.683   0.929  -1.080 -0.8675 -0.1071  0.4737
  130MOL0     C17448  10.809   0.903  -1.143  0.8046  0.1376  0.4268
  130MOL0     C17449  10.925   0.974  -1.118 -0.6582 -0.0376 -0.0059
  130MOL0     O17450  11.047   0.945  -1.176 -0.8960  0.0574 -0.3039
  130MOL0     C17451  11.078   0.819  -1.236 -0.8904 -0.9651 -0.6836
  130MOL0     C17452  11.226   0.786  -1.258 -0.1490 -1.3196  0.4582
  130MOL0     C17453  11.312   0.797  -1.130  0.2569 -0.0637 -0.1086
  130MOL0     C17454  11.454   0.770  -1.177 -0.8329  0.4906  0.0993
  130MOL0     C17455  11.484   0.620  -1.174  0.2509 -0.3391 -0.9620
  130MOL0     C17456  11.629   0.587  -1.185 -0.0883 -0.2119 -0.6724
  130MOL0     C17457  11.701   0.609  -1.321  0.3886  0.3941 -0.6060
  130MOL0     C17458  11.842   0.545  -1.296 -0.9229 -0.6329  0.1652
  130MOL0    Cl17459  11.918   0.498  -1.452  0.1002  0.5950  0.5336
  130MOL0     C17460  10.919   1.079  -1.023 -0.2775  0.3495  0.3743
  130MOL0     C17461  10.792   1.105  -0.965 -0.6265 -0.1386  0.2897
  130MOL0     O17462  10.628   1.129  -0.729  0.7392  0.4434  0.4628
  130MOL0     C17463  10.355   1.186  -0.651 -0.3093  0.7580  0.4478
  130MOL0     C17464  10.218   1.207  -0.632  0.1323 -0.1003 -1.0998
  130MOL0     N17465   9.676   0.929  -0.315  0.1644  0.4564 -0.1095
  130MOL0     N17466   9.573   0.914  -0.244  0.7682  0.2088  0.1314
  130MOL0     C17467   8.393   0.537   0.172  0.0650  0.5249  0.4427
  130MOL0     C17468   8.274   0.472   0.217 -0.1393 -0.1684  0.6733
  130MOL0     C17469   7.871   0.436   0.443  0.3382  0.3853 -1.0394
  130MOL0     C17470   7.846   0.358   0.556 -0.6072  0.1053 -0.0646
  130MOL0     C17471   7.721   0.369   0.621  0.3955 -0.2158  0.9910
  130MOL0     C17472   7.619   0.449   0.584  0.1826 -0.1440  0.2513
  130MOL0     O17473   7.512   0.460   0.657 -0.0089 -0.3065 -0.1545
  130MOL0     C17474   7.441   0.581   0.654  1.6842 -0.5063 -0.4895
  130MOL0     C17475   7.438   0.639   0.787 -0.6189  0.7702 -0.0260
  130MOL0     C17476   7.350   0.563   0.883  0.1141 -0.3303  0.5432
  130MOL0     C17477   7.340   0.618   1.023  0.3276 -0.1257 -1.3108
  130MOL0     C17478   7.276   0.747   1.022  0.3766  0.5376 -0.5830
  130MOL0     C17479   7.216   0.857   1.024  0.5689 -0.2769  0.0638
  130MOL0     C17480   7.635   0.507   0.455  0.5110 -1.5384 -0.0759
  130MOL0     C17481   7.759   0.500   0.383 -0.2949 -0.3306 -0.4901
  130MOL0     C17482   7.752   0.540   0.237 -0.1188  0.2556 -0.1528
  130MOL0     H17483   8.110   0.728   0.347 -0.1409 -3.7810  3.0117
  130MOL0     H17484   8.345   0.854   0.266 -0.1017  0.3234 -0.1705
  130MOL0     H17485   8.666   0.588   0.124 -3.4932 -0.7420  0.7114
  130MOL0     H17486   8.564   0.655  -0.007 -3.5070  0.1244  2.2935
  130MOL0     H17487   8.777   0.813   0.124 -0.9060 -1.4263  0.4159
  130MOL0     H17488   8.685   0.868  -0.001  1.8596  1.2205  0.7597
  130MOL0     H17489   8.810   0.689  -0.159 -1.5646 -1.6187  1.8476
  130MOL0     H17490   8.917   0.655  -0.020 -0.3974 -1.0150 -0.9609
  130MOL0     H17491   8.850   0.925  -0.146  0.7865  0.6017 -0.6759
  130MOL0     H17492   8.947   0.911  -0.006  2.0274  0.7035 -0.5978
  130MOL0     H17493   9.003   0.778  -0.275  2.1608 -1.4436 -0.1976
  130MOL0     H17494   9.072   0.930  -0.240 -1.8224 -0.6403 -2.5471
  130MOL0     H17495   9.203   0.845  -0.042  1.7123  1.7914 -1.6600
  130MOL0     H17496   9.147   0.682  -0.074  1.6479  0.0913  1.6388
  130MOL0     H17497   9.245   0.696  -0.302 -1.5878  0.6168  0.5282
  130MOL0     H17498   9.372   0.712  -0.179  0.3944  0.8098 -0.0615
  130MOL0     H17499   9.245   0.918  -0.355 -2.1394 -0.8801  1.9367
  130MOL0     H17500   9.314   0.978  -0.201 -0.9188 -1.4909  1.1169
  130MOL0     H17501   9.442   0.853  -0.535 -0.8781  2.8559 -1.3188
  130MOL0     H17502   9.822   0.879  -0.570 -0.4729 -1.2072 -3.5056
  130MOL0     H17503   9.667   0.866  -0.645 -2.8966 -2.2534  3.7131
  130MOL0     H17504   9.745   1.103  -0.694  0.3667  1.0910 -0.2465
  130MOL0     H17505   9.648   1.135  -0.562  0.3605  0.3169  0.7519
  130MOL0     H17506   9.937   1.042  -0.524 -1.0396 -0.9933  1.1925
  130MOL0     H17507   9.847   1.142  -0.413 -2.4945  1.8533 -0.1361
  130MOL0     H17508   9.967   1.312  -0.517 -2.6472 -2.2349  3.2143
  130MOL0     H17509   9.826   1.306  -0.615 -0.7704  0.5134  2.1063
  130MOL0     H17510  10.103   1.218  -0.942  2.1057  2.9924 -0.5331
  130MOL0     H17511  10.345   1.148  -1.001 -0.7271 -0.6643 -0.4712
  130MOL0     H17512  10.594   0.883  -1.121 -1.1810 -0.5566  1.6108
  130MOL0     H17513  10.801   0.834  -1.227 -1.2026  0.9890 -0.1321
  130MOL0     H17514  11.043   0.751  -1.158  1.0872 -2.2093 -0.8015
  130MOL0     H17515  11.017   0.798  -1.324 -1.1878 -1.3524 -0.3871
  130MOL0     H17516  11.222   0.682  -1.290  1.0673 -1.3809  0.4784
  130MOL0     H17517  11.262   0.850  -1.339  1.4268  1.6432  3.2434
  130MOL0     H17518  11.307   0.901  -1.096  2.0668  1.0805 -2.9418
  130MOL0     H17519  11.282   0.726  -1.052  1.1839 -0.1886  0.1517
  130MOL0     H17520  11.519   0.822  -1.107  0.0452 -0.1754 -0.2069
  130MOL0     H17521  11.468   0.817  -1.275  0.5163 -0.4521 -0.1785
  130MOL0     H17522  11.431   0.575  -1.259 -0.0915 -0.0061 -0.9281
  130MOL0     H17523  11.448   0.587  -1.076 -0.0165  2.0523 -0.1772
  130MOL0     H17524  11.690   0.632  -1.107  2.3212 -3.4661 -0.4227
  130MOL0     H17525  11.636   0.482  -1.153 -0.0361  0.8255  3.2164
  130MOL0     H17526  11.705   0.714  -1.351  2.8025  0.7357  0.6397
  130MOL0     H17527  11.644   0.561  -1.401  2.2755 -2.3406 -0.4319
  130MOL0     H17528  11.917   0.606  -1.244  0.5605 -0.2510 -2.2797
  130MOL0     H17529  11.825   0.459  -1.230  0.1707  0.5582  2.0927
  130MOL0     H17530  11.007   1.139  -1.006 -1.2529  1.6706  0.8855
  130MOL0     H17531  10.773   1.195  -0.906  1.4013  0.6705 -0.2158
  130MOL0     H17532  10.429   1.182  -0.571  0.4705 -0.0151 -0.2798
  130MOL0     H17533  10.190   1.227  -0.529  1.7807  2.0910 -1.0127
  130MOL0     H17534   8.466   0.473   0.124 -1.2582 -0.9892  0.3844
  130MOL0     H17535   8.248   0.367   0.207  0.6143 -0.2061 -1.4190
  130MOL0     H17536   7.924   0.291   0.591 -1.1916 -0.6197 -0.1310
  130MOL0     H17537   7.700   0.297   0.699  1.2492 -0.5082  0.9598
  130MOL0     H17538   7.342   0.560   0.614  0.8825 -1.1864  1.7000
  130MOL0     H17539   7.486   0.659   0.591 -1.8338  0.5823 -1.9050
  130MOL0     H17540   7.410   0.744   0.786  1.2547  1.2957 -0.9362
  130MOL0     H17541   7.542   0.651   0.817 -0.4639  3.0418 -1.2390
  130MOL0     H17542   7.385   0.460   0.883  1.4353  0.0979 -0.6040
  130MOL0     H17543   7.250   0.554   0.839  0.1020  2.1241 -0.0988
  130MOL0     H17544   7.290   0.542   1.085  1.9123 -1.4466 -1.5814
  130MOL0     H17545   7.440   0.614   1.067  0.4065 -0.6430 -1.5284
  130MOL0     H17546   7.153   0.943   1.033  1.0075 -0.0586  1.3077
  130MOL0     H17547   7.557   0.574   0.422  1.0603  0.6774  2.7004
  130MOL0     H17548   7.742   0.447   0.181 -1.7632  1.3128 -1.7059
  130MOL0     H17549   7.662   0.597   0.213 -0.7736  0.1379  1.8164
  130MOL0     H17550   7.830   0.610   0.205 -0.3603 -0.0070 -1.3531
  131MOL0     O17551   1.156   7.346   7.606 -0.1980  0.0592 -0.1568
  131MOL0     C17552   1.122   7.228   7.613  0.7102  0.1309 -0.5300
  131MOL0     O17553   1.189   7.127   7.560  0.0926  0.2661 -0.0114
  131MOL0     C17554   1.308   7.141   7.502  0.1321 -0.3313  0.1021
  131MOL0     C17555   1.433   7.137   7.572 -0.0221 -0.8036  0.3108
  131MOL0     C17556   1.561   7.129   7.506 -0.2221 -0.6643  0.6994
  131MOL0     C17557   1.554   7.122   7.366 -0.0347  0.1496 -0.4268
  131MOL0     O17558   1.671   7.121   7.291 -0.9537  0.5553 -0.3511
  131MOL0     C17559   1.718   6.990   7.237  0.7385  0.5201 -0.3952
  131MOL0     C17560   1.822   6.937   7.339 -0.0536 -0.1437 -0.8724
  131MOL0     C17561   1.945   7.023   7.351 -0.8404  0.0399 -0.4535
  131MOL0     C17562   2.043   6.973   7.462  1.0214  1.4484  0.5135
  131MOL0     C17563   2.149   7.081   7.490 -0.2694 -0.1465 -0.3027
  131MOL0     C17564   2.251   7.027   7.602  0.3338  0.4907  0.4130
  131MOL0     C17565   2.342   6.903   7.569  0.0152  0.0385  0.6767
  131MOL0     C17566   2.445   6.870   7.678  0.2385  0.0218  0.0891
  131MOL0     N17567   2.568   6.803   7.620  0.3950  0.0070 -0.1476
  131MOL0     C17568   2.649   6.842   7.516 -0.1530  0.3930 -0.3224
  131MOL0     C17569   2.736   6.739   7.492  0.1065 -0.5182 -0.4078
  131MOL0     C17570   2.843   6.731   7.387 -0.8763 -0.2598 -0.1492
  131MOL0     C17571   2.965   6.652   7.422  1.0357 -0.4798  0.4834
  131MOL0     C17572   3.056   6.735   7.513  0.1590  0.5778  0.3021
  131MOL0     C17573   3.204   6.717   7.505  0.1875 -0.3701  1.1602
  131MOL0     O17574   3.273   6.804   7.593  0.3538 -0.6147  0.0137
  131MOL0     C17575   3.405   6.787   7.633 -0.0816 -0.2018  0.1869
  131MOL0     C17576   3.482   6.679   7.599 -0.2301 -0.1284 -0.2989
  131MOL0     C17577   3.614   6.659   7.653  0.0156  0.4066  0.4312
  131MOL0     C17578   3.661   6.752   7.738  0.6945  0.9513 -0.6047
  131MOL0     C17579   3.783   6.734   7.808 -0.1262 -0.0263  0.2431
  131MOL0     O17580   3.836   6.608   7.818  0.1717  0.5457  0.4564
  131MOL0     C17581   3.964   6.603   7.870  0.1658 -0.9657 -0.2467
  131MOL0     C17582   4.061   6.562   7.786 -0.4180 -0.7712  0.6636
  131MOL0     C17583   4.187   6.547   7.843 -0.2548  0.4988 -0.0017
  131MOL0     C17584   4.215   6.565   7.980  0.2801 -0.3545  0.1033
  131MOL0     O17585   4.328   6.545   8.049 -0.7346  0.0439 -0.1610
  131MOL0     C17586   4.432   6.473   7.975 -0.1980  0.4122 -0.7128
  131MOL0     C17587   4.562   6.503   8.066 -0.9314 -0.1769  0.2131
  131MOL0     C17588   4.668   6.404   8.046 -0.0544  0.2515  0.8676
  131MOL0     C17589   4.687   6.322   8.176 -0.2428 -0.8122  0.5860
  131MOL0     C17590   4.784   6.205   8.159  0.2256 -0.0662  0.7044
  131MOL0     C17591   4.937   6.253   8.162  0.7942  1.1626 -0.0263
  131MOL0     C17592   5.043   6.131   8.154  0.4223  0.4356 -0.4203
  131MOL0     C17593   5.174   6.188   8.127 -0.0248 -0.6094 -0.7612
  131MOL0    Cl17594   5.246   6.277   8.269 -0.2694  0.1009  0.3344
  131MOL0     C17595   4.114   6.620   8.062 -0.3938  0.1548  0.5510
  131MOL0     C17596   3.986   6.638   8.010 -0.3223 -0.8507  0.6535
  131MOL0     O17597   3.848   6.842   7.833 -0.0293  0.4084  0.8776
  131MOL0     C17598   3.579   6.863   7.777  0.5982 -0.3301  0.4951
  131MOL0     C17599   3.453   6.874   7.725 -0.5273 -0.9329  0.0013
  131MOL0     N17600   2.695   6.631   7.572 -0.3682 -0.4269 -1.0942
  131MOL0     N17601   2.597   6.672   7.640  0.2848  1.0117  0.0546
  131MOL0     C17602   1.439   7.115   7.296  0.7041  0.7228  0.4410
  131MOL0     C17603   1.313   7.127   7.355  0.0654 -0.0719 -0.6033
  131MOL0     C17604   0.995   7.198   7.691 -0.2329  0.3455 -0.3775
  131MOL0     C17605   0.956   7.300   7.789 -0.7069  0.2479  0.0998
  131MOL0     C17606   0.852   7.282   7.875 -0.5245  0.5495 -0.6357
  131MOL0     C17607   0.783   7.161   7.875  0.2418 -0.3071  0.4770
  131MOL0     O17608   0.663   7.140   7.939  0.6097  0.0255 -0.2987
  131MOL0     C17609   0.637   7.193   8.070  0.8406  0.0052  0.8347
  131MOL0     C17610   0.708   7.112   8.173 -0.4548 -0.0781  0.1772
  131MOL0     C17611   0.700   6.953   8.167  0.2267  0.0035 -0.2881
  131MOL0     C17612   0.719   6.896   8.304  0.9488 -0.7266 -0.3482
  131MOL0     C17613   0.705   6.748   8.293 -0.1914  0.4370 -0.8209
  131MOL0     C17614   0.689   6.631   8.291 -0.1475  0.8952 -0.1775
  131MOL0     C17615   0.817   7.058   7.789  0.5113  0.6354  1.0108
  131MOL0     C17616   0.923   7.074   7.694  0.5272  0.1340  0.1065
  131MOL0     C17617   0.943   6.967   7.597  0.9521  0.9430  0.5074
  131MOL0     H17618   1.447   7.140   7.680  1.7637  0.9424  0.0869
  131MOL0     H17619   1.656   7.132   7.559  0.1771  1.5986 -0.0673
  131MOL0     H17620   1.634   6.922   7.224  0.0356  1.4501 -0.7911
  131MOL0     H17621   1.763   6.991   7.137 -1.3723  1.5342 -1.3930
  131MOL0     H17622   1.850   6.840   7.296  1.4093  0.2639 -0.9022
  131MOL0     H17623   1.768   6.923   7.433 -1.5778  1.4682 -1.4573
  131MOL0     H17624   1.907   7.122   7.378 -1.7811 -1.2417  3.5669
  131MOL0     H17625   1.992   7.029   7.252 -1.9098 -0.4112 -1.0013
  131MOL0     H17626   1.982   6.962   7.552  0.8204  0.9510  0.3218
  131MOL0     H17627   2.092   6.882   7.425 -1.4996  0.4190 -0.6181
  131MOL0     H17628   2.204   7.113   7.401 -0.2725  1.0808  0.1237
  131MOL0     H17629   2.099   7.172   7.525 -0.0684  0.2165 -0.9422
  131MOL0     H17630   2.317   7.112   7.618  0.5197  0.5330 -0.5196
  131MOL0     H17631   2.186   7.009   7.688  0.1371  1.8967  0.5717
  131MOL0     H17632   2.393   6.932   7.476 -0.2273  0.4240  0.6643
  131MOL0     H17633   2.281   6.813   7.559 -0.4876  0.6537 -3.1297
  131MOL0     H17634   2.473   6.967   7.720 -1.3470 -0.0024  1.2848
  131MOL0     H17635   2.391   6.815   7.755 -3.3231  0.9233 -1.5464
  131MOL0     H17636   2.654   6.937   7.464  1.7819 -0.4591 -1.8455
  131MOL0     H17637   2.800   6.690   7.295  0.5705 -3.2560  0.3665
  131MOL0     H17638   2.880   6.832   7.368 -1.5742  0.0499  0.1211
  131MOL0     H17639   2.936   6.563   7.480  0.0030  1.7185  3.6232
  131MOL0     H17640   3.013   6.624   7.328  1.1103 -0.1354  0.4176
  131MOL0     H17641   3.012   6.729   7.613 -2.1407  2.0423 -0.5201
  131MOL0     H17642   3.057   6.842   7.490  1.2240  0.4519 -0.3160
  131MOL0     H17643   3.236   6.714   7.400  0.1769 -1.2898  1.1790
  131MOL0     H17644   3.225   6.613   7.530  0.4878 -0.3581  0.9740
  131MOL0     H17645   3.436   6.606   7.533 -0.5083  1.0614 -1.4653
  131MOL0     H17646   3.676   6.572   7.632  0.6787  0.8692  0.4553
  131MOL0     H17647   4.048   6.539   7.680  2.0039  1.8026 -0.3023
  131MOL0     H17648   4.267   6.510   7.780 -1.3356 -2.5981  0.2672
  131MOL0     H17649   4.405   6.368   7.961 -1.1603  0.5481  0.0265
  131MOL0     H17650   4.452   6.503   7.872  0.9344 -0.8220 -0.8914
  131MOL0     H17651   4.595   6.607   8.056 -2.3098  0.3186  0.5666
  131MOL0     H17652   4.540   6.506   8.173 -3.0788 -0.9544 -0.1572
  131MOL0     H17653   4.642   6.339   7.961 -0.4811  1.2350  0.2319
  131MOL0     H17654   4.763   6.451   8.018  1.0279 -1.4010  1.5705
  131MOL0     H17655   4.592   6.278   8.208 -0.5168 -0.3120  0.4636
  131MOL0     H17656   4.731   6.388   8.251  2.1357 -1.7198  0.0895
  131MOL0     H17657   4.777   6.164   8.058  5.2311  1.0181 -0.3177
  131MOL0     H17658   4.760   6.127   8.232  0.1451  0.9518  1.7994
  131MOL0     H17659   4.949   6.322   8.077 -0.5786  0.2733 -0.9798
  131MOL0     H17660   4.948   6.306   8.257 -1.2546 -1.8917  2.0820
  131MOL0     H17661   5.008   6.056   8.083 -0.3929 -0.5669  0.9992
  131MOL0     H17662   5.040   6.072   8.246 -1.1883  0.9254 -0.1280
  131MOL0     H17663   5.245   6.106   8.114  0.8604  0.2493 -1.5577
  131MOL0     H17664   5.173   6.252   8.038 -3.9095  0.6111 -0.0570
  131MOL0     H17665   4.124   6.639   8.168 -0.7060  2.1515  0.2577
  131MOL0     H17666   3.915   6.689   8.074  0.8702  3.7894 -1.2788
  131MOL0     H17667   3.615   6.934   7.851  3.1192  0.0471 -0.9669
  131MOL0     H17668   3.383   6.947   7.765  1.9402  2.6095 -1.6199
  131MOL0     H17669   1.456   7.111   7.189  0.9782  0.7844  0.4805
  131MOL0     H17670   1.228   7.141   7.289  1.6692 -0.3664 -2.8286
  131MOL0     H17671   1.014   7.392   7.786  1.8827 -1.3101 -2.3232
  131MOL0     H17672   0.837   7.361   7.948  3.6584 -0.1241  1.2327
  131MOL0     H17673   0.528   7.197   8.073  0.6750 -1.6902 -1.0448
  131MOL0     H17674   0.679   7.294   8.078 -1.2343  0.8403  1.9964
  131MOL0     H17675   0.664   7.146   8.267  0.6842 -0.5809  0.9252
  131MOL0     H17676   0.814   7.137   8.185 -0.3483  0.1723 -1.2192
  131MOL0     H17677   0.777   6.919   8.097 -1.0067  1.2430 -2.3772
  131MOL0     H17678   0.607   6.907   8.132 -0.4951  0.1479  1.3461
  131MOL0     H17679   0.819   6.912   8.347 -1.0163 -1.4473  5.3142
  131MOL0     H17680   0.649   6.940   8.374  0.4875 -1.0032 -0.6275
  131MOL0     H17681   0.654   6.530   8.294 -2.2381  1.5672 -0.1301
  131MOL0     H17682   0.762   6.964   7.791  1.0281  0.3046  0.4573
  131MOL0     H17683   0.947   7.016   7.500  1.5611  1.9416  1.0264
  131MOL0     H17684   1.037   6.912   7.609  1.7756  1.2323 -3.4609
  131MOL0     H17685   0.872   6.886   7.618  1.2868  0.8196  1.2107
  132MOL0     O17686   0.389   2.278   9.519 -0.0378 -0.4391  0.0990
  132MOL0     C17687   0.317   2.194   9.473  0.7664 -0.8100  0.3776
  132MOL0     O17688   0.349   2.071   9.443  0.0825  0.4989  0.2895
  132MOL0     C17689   0.468   2.012   9.481  0.3878  0.3576 -0.2337
  132MOL0     C17690   0.468   1.882   9.528 -0.6001 -0.2875 -0.3718
  132MOL0     C17691   0.580   1.822   9.584  0.1311  0.0135 -0.0361
  132MOL0     C17692   0.699   1.892   9.587 -0.0907 -0.0546 -0.5370
  132MOL0     O17693   0.811   1.833   9.641  0.4362 -0.0027 -0.7109
  132MOL0     C17694   0.883   1.739   9.564 -0.1983  0.4420 -0.7251
  132MOL0     C17695   1.018   1.735   9.640  0.2213 -0.2524 -0.1086
  132MOL0     C17696   1.128   1.639   9.584 -0.8509  0.4942 -0.0696
  132MOL0     C17697   1.269   1.661   9.647 -0.3313  0.7497  0.4010
  132MOL0     C17698   1.359   1.537   9.620 -0.4806  0.0196 -0.8398
  132MOL0     C17699   1.480   1.535   9.716  0.3920  0.4976 -0.0646
  132MOL0     C17700   1.574   1.415   9.699 -0.0158 -0.3948  0.7728
  132MOL0     C17701   1.624   1.375   9.553 -0.3659  0.3633  0.8523
  132MOL0     N17702   1.736   1.284   9.549 -0.3676 -0.5008  0.3021
  132MOL0     C17703   1.734   1.150   9.528 -0.4037  0.4680 -0.2418
  132MOL0     C17704   1.850   1.097   9.574 -0.3740  0.4566  0.3446
  132MOL0     C17705   1.909   0.955   9.576 -0.0730  0.2589 -0.0144
  132MOL0     C17706   2.057   0.959   9.552 -0.3187  1.1011 -0.4071
  132MOL0     C17707   2.095   0.859   9.443  0.4008 -1.1620  0.1879
  132MOL0     C17708   2.079   0.936   9.310 -0.1021 -0.7706 -1.1238
  132MOL0     O17709   2.078   0.841   9.206 -0.2704  0.4245 -0.4273
  132MOL0     C17710   2.182   0.856   9.121 -0.3812  1.4312  0.5103
  132MOL0     C17711   2.208   0.747   9.041 -0.1190  1.0083 -0.4021
  132MOL0     C17712   2.320   0.735   8.955 -0.8556  0.5380 -0.1290
  132MOL0     C17713   2.412   0.842   8.938 -0.0612  0.8230 -0.2466
  132MOL0     C17714   2.534   0.836   8.849  0.2682  1.0245 -0.1478
  132MOL0     O17715   2.571   0.716   8.796  0.0035  0.1651 -0.5818
  132MOL0     C17716   2.695   0.707   8.726 -0.9077 -0.6934  0.3167
  132MOL0     C17717   2.803   0.633   8.770  0.2903  0.7690  0.2417
  132MOL0     C17718   2.922   0.617   8.701  0.8005  0.6144  0.4129
  132MOL0     C17719   2.937   0.682   8.582 -0.8109  0.4561 -0.3205
  132MOL0     O17720   3.057   0.650   8.528  1.1678 -0.0027 -0.1483
  132MOL0     C17721   3.062   0.664   8.383  0.8090  0.8932  0.1516
  132MOL0     C17722   3.205   0.681   8.338  0.2168 -0.2207 -0.0838
  132MOL0     C17723   3.300   0.558   8.355  0.9072 -0.2611  0.2908
  132MOL0     C17724   3.448   0.608   8.342 -0.3387 -0.3275  0.1422
  132MOL0     C17725   3.556   0.496   8.338  0.6922 -0.1047  0.6599
  132MOL0     C17726   3.683   0.537   8.410  0.1453  0.9777  0.1785
  132MOL0     C17727   3.780   0.420   8.397 -0.0142  0.2529  0.9134
  132MOL0     C17728   3.920   0.463   8.436  0.4452  0.4278 -0.2631
  132MOL0    Cl17729   4.035   0.316   8.412 -0.0798 -0.0350 -0.2395
  132MOL0     C17730   2.837   0.764   8.536  0.4056  0.5071 -0.1856
  132MOL0     C17731   2.722   0.783   8.604  0.3955  0.1851 -0.4545
  132MOL0     O17732   2.593   0.943   8.828  0.3101 -0.3814  0.2672
  132MOL0     C17733   2.380   0.955   9.012 -0.1512 -0.3897  1.0007
  132MOL0     C17734   2.264   0.963   9.094  1.0064  0.6709 -0.4856
  132MOL0     N17735   1.917   1.202   9.627  0.4328 -0.3608 -0.5521
  132MOL0     N17736   1.857   1.313   9.609  0.0729 -0.2401 -0.1601
  132MOL0     C17737   0.710   2.022   9.534 -0.3210  0.7692  0.1111
  132MOL0     C17738   0.596   2.080   9.490  0.5343  0.0025  0.8231
  132MOL0     C17739   0.173   2.238   9.439 -0.6883  0.7096 -0.8912
  132MOL0     C17740   0.082   2.144   9.424 -0.2147  0.4900 -0.6966
  132MOL0     C17741  -0.050   2.175   9.393  0.3377  1.0188  0.2308
  132MOL0     C17742  -0.091   2.306   9.374  0.2694 -0.3766  0.2885
  132MOL0     O17743  -0.217   2.350   9.361 -0.0977  0.6531 -0.6499
  132MOL0     C17744  -0.334   2.266   9.348  0.2552 -0.0104 -0.2653
  132MOL0     C17745  -0.359   2.198   9.487  0.5311  0.0904  0.7323
  132MOL0     C17746  -0.488   2.104   9.491  0.2321 -0.0020 -0.1664
  132MOL0     C17747  -0.454   1.974   9.564  0.3290  0.0814 -0.6807
  132MOL0     C17748  -0.342   1.898   9.498  0.9982 -0.1159 -0.5032
  132MOL0     C17749  -0.249   1.831   9.462  0.1099  0.4553  1.0381
  132MOL0     C17750   0.006   2.399   9.375 -0.0250 -0.3898  0.1427
  132MOL0     C17751   0.140   2.368   9.405 -0.5549 -0.1408  0.4384
  132MOL0     C17752   0.238   2.494   9.412 -0.6442  0.4178 -0.2100
  132MOL0     H17753   0.375   1.827   9.515  0.3616 -1.7530 -1.3988
  132MOL0     H17754   0.571   1.733   9.646 -1.4860  1.3937  1.8341
  132MOL0     H17755   0.844   1.636   9.564  0.3703  0.2214 -1.2707
  132MOL0     H17756   0.893   1.764   9.458  0.8294 -0.7116 -0.9211
  132MOL0     H17757   0.990   1.710   9.743 -0.3727  2.1200  0.3561
  132MOL0     H17758   1.047   1.840   9.642 -1.6266  0.3693  3.6769
  132MOL0     H17759   1.144   1.657   9.477 -1.8168 -0.1017 -0.3275
  132MOL0     H17760   1.104   1.533   9.602  2.7429 -0.4388  0.0546
  132MOL0     H17761   1.310   1.749   9.597  0.5580  0.5458  0.7424
  132MOL0     H17762   1.262   1.675   9.755  2.9233 -2.0616  1.1736
  132MOL0     H17763   1.297   1.447   9.625  0.9033 -0.9059 -0.0951
  132MOL0     H17764   1.379   1.535   9.512 -3.9160  0.4607 -1.6344
  132MOL0     H17765   1.527   1.633   9.707  0.5498  0.8879  3.5501
  132MOL0     H17766   1.447   1.530   9.820  1.5614 -0.1554  0.2937
  132MOL0     H17767   1.530   1.332   9.754  0.4663 -0.9467  0.3412
  132MOL0     H17768   1.666   1.436   9.754  1.4671  0.5239 -1.8337
  132MOL0     H17769   1.543   1.316   9.510  1.0108 -1.4632  0.6728
  132MOL0     H17770   1.645   1.463   9.492  1.5906  0.1763  1.2105
  132MOL0     H17771   1.652   1.098   9.478  1.7985 -2.1719 -1.3858
  132MOL0     H17772   1.897   0.922   9.679 -0.9295  1.2116  0.2049
  132MOL0     H17773   1.842   0.897   9.511  0.5093 -1.0860  0.5561
  132MOL0     H17774   2.103   1.056   9.532 -2.1589  2.4360  1.3990
  132MOL0     H17775   2.105   0.923   9.644 -2.4062  0.7276  0.5774
  132MOL0     H17776   2.029   0.772   9.442 -0.6756 -0.4421  2.0150
  132MOL0     H17777   2.197   0.827   9.464  0.9248  0.6818  0.5758
  132MOL0     H17778   2.162   1.007   9.310  0.1066 -1.0113 -0.7495
  132MOL0     H17779   1.986   0.993   9.305  0.6185  0.5297 -0.2008
  132MOL0     H17780   2.141   0.662   9.050 -0.4126  1.4112  1.7291
  132MOL0     H17781   2.333   0.655   8.883 -0.9844  1.9967 -1.8480
  132MOL0     H17782   2.779   0.578   8.861  0.9466  0.1719  0.0675
  132MOL0     H17783   3.001   0.557   8.745  1.4757  0.7546 -0.5811
  132MOL0     H17784   3.024   0.580   8.323 -2.2008  1.6001  0.8889
  132MOL0     H17785   2.996   0.741   8.341 -0.0009  0.6142  0.8837
  132MOL0     H17786   3.208   0.718   8.235 -0.6985  1.1990  0.3687
  132MOL0     H17787   3.248   0.763   8.397  0.8874 -0.8213  0.2719
  132MOL0     H17788   3.288   0.496   8.444  1.2020  0.0680  0.5659
  132MOL0     H17789   3.271   0.490   8.274  2.2955 -3.7186  2.4298
  132MOL0     H17790   3.471   0.661   8.434 -0.5484 -1.3432  0.8013
  132MOL0     H17791   3.458   0.669   8.252  1.0837  1.0706  1.1924
  132MOL0     H17792   3.583   0.483   8.233 -1.9054 -2.8749  0.2053
  132MOL0     H17793   3.518   0.405   8.386  0.8569 -0.0389  0.9194
  132MOL0     H17794   3.723   0.632   8.375 -1.2457  0.8493 -1.9289
  132MOL0     H17795   3.666   0.546   8.518 -2.8541 -1.8147  0.1070
  132MOL0     H17796   3.786   0.387   8.293  2.0945  1.2709  0.6331
  132MOL0     H17797   3.739   0.344   8.463  0.4088 -1.5317 -0.8047
  132MOL0     H17798   3.968   0.545   8.381  2.8993 -0.2849  0.6497
  132MOL0     H17799   3.914   0.490   8.542 -2.0513  0.3556 -0.3376
  132MOL0     H17800   2.837   0.809   8.438  1.2601  1.3603  0.1888
  132MOL0     H17801   2.638   0.840   8.566 -0.0056 -0.3127 -0.3456
  132MOL0     H17802   2.432   1.049   9.002  1.9537 -1.1849  3.5292
  132MOL0     H17803   2.250   1.061   9.138 -1.0859  0.7168 -1.1642
  132MOL0     H17804   0.806   2.069   9.555  1.1800 -1.6988 -0.7960
  132MOL0     H17805   0.612   2.181   9.455 -0.5264 -0.8318 -2.4770
  132MOL0     H17806   0.099   2.042   9.454  2.2793  1.2265  0.6822
  132MOL0     H17807  -0.121   2.094   9.376 -0.4655  1.8351 -0.4561
  132MOL0     H17808  -0.322   2.189   9.271  1.8423  0.0733 -0.1292
  132MOL0     H17809  -0.423   2.325   9.322 -2.4942 -1.8402  3.8884
  132MOL0     H17810  -0.388   2.275   9.559  1.0223 -1.6057  2.8464
  132MOL0     H17811  -0.274   2.142   9.527  0.5015 -0.0059  0.6623
  132MOL0     H17812  -0.520   2.077   9.390 -0.8294  0.4480  0.0363
  132MOL0     H17813  -0.565   2.159   9.546 -0.6845  0.4082 -1.7919
  132MOL0     H17814  -0.425   2.001   9.666  0.9814 -3.7447  0.2996
  132MOL0     H17815  -0.545   1.913   9.570  0.6095 -0.2082  1.6998
  132MOL0     H17816  -0.182   1.752   9.437 -1.6553 -1.3184  1.6873
  132MOL0     H17817  -0.011   2.506   9.382  2.0002 -0.0075 -0.1330
  132MOL0     H17818   0.291   2.495   9.508  2.2665 -0.1816 -1.6810
  132MOL0     H17819   0.306   2.466   9.330 -2.0206 -5.8858  0.2485
  132MOL0     H17820   0.197   2.591   9.384 -0.0098  1.0316  0.9194
  133MOL0     O17821   8.938   3.999   6.985  0.5152 -0.7943 -0.6156
  133MOL0     C17822   8.944   4.054   6.871  0.5966  0.4733  0.0081
  133MOL0     O17823   9.024   4.008   6.766  0.6420  0.0934 -0.1234
  133MOL0     C17824   9.107   3.906   6.806 -0.2713 -0.4264  1.0377
  133MOL0     C17825   9.245   3.932   6.784 -0.2234 -0.1787 -0.3589
  133MOL0     C17826   9.345   3.835   6.807 -0.3291 -0.2046  0.1819
  133MOL0     C17827   9.307   3.707   6.842  0.3698  0.2974  0.3940
  133MOL0     O17828   9.404   3.616   6.870  0.4421  0.5898  0.4708
  133MOL0     C17829   9.476   3.567   6.755  0.5318  0.3586 -0.0297
  133MOL0     C17830   9.625   3.573   6.764  0.1443  0.0776 -0.1261
  133MOL0     C17831   9.661   3.508   6.899  0.8629 -0.4449  0.1269
  133MOL0     C17832   9.799   3.562   6.928  0.0378  0.1692 -0.8170
  133MOL0     C17833   9.890   3.474   7.010  0.2330  0.9509 -1.0284
  133MOL0     C17834   9.940   3.351   6.939 -0.5518  0.4517 -0.0805
  133MOL0     C17835  10.037   3.274   7.030 -0.6025  0.2039 -0.2113
  133MOL0     C17836  10.104   3.146   6.976 -1.1737 -0.4788 -0.1138
  133MOL0     N17837  10.228   3.132   7.060  0.3757  0.0933 -0.5315
  133MOL0     C17838  10.357   3.186   7.038 -0.3308  0.5643 -0.7353
  133MOL0     C17839  10.420   3.174   7.149  0.3511  0.0405 -0.5646
  133MOL0     C17840  10.564   3.217   7.183  0.2975  0.5938  0.6523
  133MOL0     C17841  10.623   3.174   7.320  0.0845  0.5089 -0.6887
  133MOL0     C17842  10.774   3.212   7.337  0.2696 -0.8241  0.0163
  133MOL0     C17843  10.826   3.192   7.473 -1.2172  0.8851 -0.0993
  133MOL0     O17844  10.832   3.051   7.512  0.5557  0.3533 -0.1077
  133MOL0     C17845  10.895   3.018   7.629  0.3593  0.6280  0.1902
  133MOL0     C17846  10.899   3.097   7.743 -0.0008 -0.0414 -0.5801
  133MOL0     C17847  10.965   3.047   7.855 -0.1968  0.0618 -0.4501
  133MOL0     C17848  11.034   2.921   7.860 -0.0137 -0.2875 -0.6183
  133MOL0     C17849  11.111   2.880   7.978  0.5116 -0.8543  1.0609
  133MOL0     O17850  11.109   2.960   8.092 -0.3013 -0.5375  1.0125
  133MOL0     C17851  11.194   2.904   8.181 -0.1931 -0.1014  0.0016
  133MOL0     C17852  11.146   2.820   8.275 -0.5094 -0.1280  0.1568
  133MOL0     C17853  11.236   2.749   8.349  0.1719 -0.7545  0.2786
  133MOL0     C17854  11.372   2.774   8.347 -0.7273  0.8345  0.0089
  133MOL0     O17855  11.439   2.692   8.430 -0.0429  0.2437  0.2551
  133MOL0     C17856  11.587   2.709   8.443 -0.3558 -0.8200 -0.4557
  133MOL0     C17857  11.643   2.603   8.538  0.2018 -0.1023 -0.0632
  133MOL0     C17858  11.660   2.643   8.691 -0.4150 -0.5327 -0.2179
  133MOL0     C17859  11.762   2.753   8.700  0.3145 -0.2804 -0.2705
  133MOL0     C17860  11.900   2.712   8.735  0.5242  0.7065 -0.2010
  133MOL0     C17861  12.009   2.826   8.717 -0.2869  0.1154  0.0933
  133MOL0     C17862  12.149   2.784   8.762  0.8953 -0.5195 -0.0394
  133MOL0     C17863  12.212   2.713   8.645  0.2163  0.0456  1.8579
  133MOL0    Cl17864  12.372   2.688   8.684 -0.2957  0.7668  0.1802
  133MOL0     C17865  11.419   2.876   8.262 -0.6898 -0.0316 -0.3905
  133MOL0     C17866  11.334   2.937   8.181 -0.4732 -0.0278 -0.5412
  133MOL0     O17867  11.153   2.765   7.974 -0.2225  0.1639  0.6337
  133MOL0     C17868  11.020   2.844   7.746  0.1988 -1.1847 -1.1404
  133MOL0     C17869  10.952   2.893   7.636  0.1333  0.0240 -1.3244
  133MOL0     N17870  10.349   3.096   7.238 -0.0325 -0.3466 -0.0067
  133MOL0     N17871  10.235   3.074   7.187 -0.2524  0.4703  0.5152
  133MOL0     C17872   9.170   3.686   6.855  0.1436  0.1303  0.7286
  133MOL0     C17873   9.063   3.777   6.832 -0.5014 -0.1118 -0.0857
  133MOL0     C17874   8.862   4.182   6.843 -0.4217  0.5381 -0.1988
  133MOL0     C17875   8.746   4.212   6.913  1.3701 -1.0819  0.2138
  133MOL0     C17876   8.667   4.328   6.889  0.2199  0.2518 -0.4456
  133MOL0     C17877   8.712   4.415   6.799 -0.5607 -0.2618 -0.0065
  133MOL0     O17878   8.623   4.511   6.748 -0.6740 -0.3864 -0.0274
  133MOL0     C17879   8.675   4.634   6.682 -0.1999  0.1120  0.7824
  133MOL0     C17880   8.745   4.721   6.783  0.0801 -0.0699 -0.0751
  133MOL0     C17881   8.641   4.773   6.884  0.4887  0.8532  0.0175
  133MOL0     C17882   8.686   4.899   6.955 -0.5176 -0.0939 -0.3507
  133MOL0     C17883   8.703   5.014   6.863  0.4594 -0.2392 -0.0322
  133MOL0     C17884   8.734   5.116   6.812 -1.1403 -0.0172  0.4892
  133MOL0     C17885   8.832   4.389   6.726 -0.2015 -1.1430 -0.4973
  133MOL0     C17886   8.905   4.277   6.745  0.7105  0.7152  0.3765
  133MOL0     C17887   9.038   4.267   6.663 -1.2659 -0.4362  0.1578
  133MOL0     H17888   9.257   4.038   6.766  0.7425  0.3056  2.5905
  133MOL0     H17889   9.450   3.863   6.804 -0.7038  1.2072 -1.4750
  133MOL0     H17890   9.450   3.462   6.734 -1.5908  0.2881  2.4137
  133MOL0     H17891   9.439   3.613   6.663  3.0613  0.3151 -1.1633
  133MOL0     H17892   9.655   3.676   6.744 -0.4234 -0.1021 -2.0666
  133MOL0     H17893   9.680   3.522   6.685 -1.5960  0.4400 -1.6282
  133MOL0     H17894   9.662   3.400   6.884 -2.2481 -0.3684 -1.4761
  133MOL0     H17895   9.593   3.520   6.983  1.4890  0.1135  0.5620
  133MOL0     H17896   9.851   3.586   6.834 -0.2468  0.1205 -0.9895
  133MOL0     H17897   9.780   3.655   6.982  0.8513 -0.8767  1.3576
  133MOL0     H17898   9.980   3.532   7.033  0.0543  0.9176 -0.1835
  133MOL0     H17899   9.838   3.443   7.102  2.2722 -2.6180 -0.8726
  133MOL0     H17900   9.856   3.291   6.904 -0.6203  0.2471  0.4177
  133MOL0     H17901   9.999   3.397   6.860  0.2965  0.7044  0.6786
  133MOL0     H17902   9.984   3.239   7.119  0.1507 -0.0425  0.1426
  133MOL0     H17903  10.109   3.348   7.067 -2.8418  2.2257  0.3956
  133MOL0     H17904  10.033   3.063   6.983 -1.9466  0.0492 -1.2617
  133MOL0     H17905  10.131   3.165   6.871 -3.2461  1.0373 -0.4343
  133MOL0     H17906  10.396   3.220   6.943  0.2149  2.4220  0.1031
  133MOL0     H17907  10.633   3.167   7.114  0.0110  0.0525  0.7480
  133MOL0     H17908  10.579   3.325   7.186  3.9623  0.1819  3.7413
  133MOL0     H17909  10.562   3.209   7.404  3.0557  2.2092  0.9313
  133MOL0     H17910  10.622   3.065   7.317 -2.6622  0.4916 -3.0126
  133MOL0     H17911  10.767   3.320   7.325 -0.2090 -0.7710  0.7030
  133MOL0     H17912  10.834   3.164   7.260  0.5661  1.2389 -1.1084
  133MOL0     H17913  10.757   3.237   7.545 -1.7740  0.5015 -0.3869
  133MOL0     H17914  10.922   3.243   7.483 -1.8996  2.1781  0.0260
  133MOL0     H17915  10.851   3.194   7.733 -0.7208 -0.5528 -2.4123
  133MOL0     H17916  10.957   3.105   7.946 -0.1675  2.0037 -1.6418
  133MOL0     H17917  11.043   2.788   8.288 -0.2092 -1.0939  0.2543
  133MOL0     H17918  11.211   2.673   8.423  3.7904  1.1706  3.8875
  133MOL0     H17919  11.636   2.705   8.345  0.6826  0.3858 -0.0109
  133MOL0     H17920  11.599   2.809   8.485 -2.0630 -0.6026 -0.4146
  133MOL0     H17921  11.562   2.530   8.534 -1.3852  1.6178 -0.5097
  133MOL0     H17922  11.738   2.562   8.501  0.8827 -0.7213  2.1998
  133MOL0     H17923  11.566   2.690   8.723  1.4984  3.0733  0.5788
  133MOL0     H17924  11.669   2.554   8.753 -0.9479 -0.9923 -0.7725
  133MOL0     H17925  11.730   2.825   8.776  2.8108  0.4059  0.1930
  133MOL0     H17926  11.766   2.810   8.607 -1.3574 -1.0774 -0.8961
  133MOL0     H17927  11.926   2.635   8.662 -0.1174 -0.2717  0.5799
  133MOL0     H17928  11.906   2.663   8.833 -0.7587 -0.2413 -0.5656
  133MOL0     H17929  12.006   2.864   8.614  0.5117  0.2214  0.1070
  133MOL0     H17930  11.972   2.916   8.768 -1.7616  0.4392 -1.4654
  133MOL0     H17931  12.138   2.728   8.855 -3.9537 -1.7047 -1.0051
  133MOL0     H17932  12.207   2.876   8.772 -1.0967  0.7043  1.0307
  133MOL0     H17933  12.154   2.623   8.623  0.7844  0.3852 -1.5650
  133MOL0     H17934  12.218   2.766   8.550  0.0206  0.2946  1.9834
  133MOL0     H17935  11.523   2.902   8.247  0.5862 -4.4659 -0.6072
  133MOL0     H17936  11.353   3.010   8.104 -2.0822  2.5774  1.3440
  133MOL0     H17937  11.081   2.754   7.746  0.7058 -0.9692  2.3879
  133MOL0     H17938  10.944   2.834   7.546  0.6261  0.6609 -1.7921
  133MOL0     H17939   9.144   3.582   6.872 -2.8292  0.7316  0.4469
  133MOL0     H17940   8.959   3.749   6.817 -1.0027 -0.7348  3.6298
  133MOL0     H17941   8.710   4.151   6.995  0.3892  0.2662  0.8330
  133MOL0     H17942   8.579   4.346   6.949  0.2343 -1.9549  0.3241
  133MOL0     H17943   8.584   4.689   6.657 -0.6718  0.4526  3.0003
  133MOL0     H17944   8.746   4.613   6.601 -0.7240  1.8503 -0.1746
  133MOL0     H17945   8.772   4.804   6.716  0.2966  0.4053  0.5958
  133MOL0     H17946   8.827   4.673   6.837 -2.4505 -3.6475  0.9146
  133MOL0     H17947   8.619   4.701   6.964  0.4214  2.3035  1.3481
  133MOL0     H17948   8.544   4.799   6.841  0.4127 -0.5060 -0.6906
  133MOL0     H17949   8.620   4.938   7.033  2.0122  0.1509  1.8458
  133MOL0     H17950   8.782   4.875   7.001 -0.6436 -1.4868 -0.7620
  133MOL0     H17951   8.749   5.196   6.742 -1.4947 -0.3694  0.0025
  133MOL0     H17952   8.857   4.455   6.644 -1.7066 -0.1254 -0.1755
  133MOL0     H17953   9.039   4.201   6.576  1.3683 -0.7827  0.3829
  133MOL0     H17954   9.059   4.365   6.618 -2.5672  0.4187  1.3079
  133MOL0     H17955   9.122   4.238   6.726 -1.1068  0.6967  0.4974
  134MOL0     O17956   3.706   1.356   0.158 -0.4468 -0.0626  0.0944
  134MOL0     C17957   3.650   1.427   0.067 -0.8425  0.7631  0.1360
  134MOL0     O17958   3.726   1.490  -0.040  0.3486  0.0271 -0.2957
  134MOL0     C17959   3.861   1.466  -0.063 -0.1658 -0.1635  0.1931
  134MOL0     C17960   3.964   1.558  -0.030  0.9626 -0.6437  0.5349
  134MOL0     C17961   4.094   1.518  -0.047  0.1737  0.0414  0.8313
  134MOL0     C17962   4.132   1.415  -0.132 -0.0963  0.1535 -0.4010
  134MOL0     O17963   4.263   1.397  -0.149  0.6686 -0.1197  0.6336
  134MOL0     C17964   4.303   1.290  -0.237  0.4356 -1.2345 -0.6049
  134MOL0     C17965   4.453   1.283  -0.233  0.0307 -0.4142  0.3939
  134MOL0     C17966   4.522   1.251  -0.095  0.8207  0.3977 -0.1863
  134MOL0     C17967   4.673   1.240  -0.125 -0.1624  0.0247  0.2818
  134MOL0     C17968   4.753   1.360  -0.085  0.9327  0.1592 -0.4023
  134MOL0     C17969   4.882   1.367  -0.170  0.4302  0.4966 -0.3107
  134MOL0     C17970   4.964   1.495  -0.132  0.4023  0.1234 -1.0301
  134MOL0     C17971   5.079   1.483  -0.027  0.0511 -0.5039  0.2553
  134MOL0     N17972   5.208   1.484  -0.088  0.2982 -0.3484  0.1622
  134MOL0     C17973   5.257   1.371  -0.154  0.7008 -0.1150  0.3239
  134MOL0     C17974   5.368   1.414  -0.218 -0.9284  0.3540  0.3016
  134MOL0     C17975   5.473   1.326  -0.298 -0.3650  0.2700 -0.0908
  134MOL0     C17976   5.602   1.302  -0.231  0.5577  0.0206 -0.5525
  134MOL0     C17977   5.713   1.281  -0.329 -0.1093 -0.1079 -0.1656
  134MOL0     C17978   5.833   1.220  -0.265  0.9741  0.0149 -0.3849
  134MOL0     O17979   5.857   1.300  -0.149 -0.2111 -0.2482 -0.3075
  134MOL0     C17980   5.976   1.376  -0.146  1.3469 -0.3798  0.3793
  134MOL0     C17981   6.024   1.404  -0.019  0.4684  0.4775  0.8357
  134MOL0     C17982   6.148   1.468  -0.004 -1.4786 -0.3252  1.0271
  134MOL0     C17983   6.234   1.500  -0.113 -0.4953  0.3052  0.5370
  134MOL0     C17984   6.366   1.551  -0.089  0.3599  0.5172  0.2626
  134MOL0     O17985   6.432   1.606  -0.198  0.0545  0.1683  0.1607
  134MOL0     C17986   6.545   1.679  -0.189  0.5430 -0.0094 -0.0598
  134MOL0     C17987   6.544   1.806  -0.244 -0.1011  0.0175  0.2490
  134MOL0     C17988   6.646   1.892  -0.222  1.0313 -0.2096 -0.3442
  134MOL0     C17989   6.762   1.853  -0.141  0.0520  0.0774 -0.1161
  134MOL0     O17990   6.860   1.949  -0.125 -0.0740 -0.5715 -0.4222
  134MOL0     C17991   6.971   1.937  -0.034 -0.1896 -0.3890  0.3884
  134MOL0     C17992   7.091   1.895  -0.127 -0.7067  0.3925 -0.7944
  134MOL0     C17993   7.168   2.018  -0.185 -0.0358  0.8619 -0.0712
  134MOL0     C17994   7.265   2.076  -0.073  0.1344  0.3274  0.8924
  134MOL0     C17995   7.354   2.188  -0.130 -0.1399 -0.6099 -1.0350
  134MOL0     C17996   7.426   2.247  -0.008  0.3526 -0.2710  0.5070
  134MOL0     C17997   7.533   2.353  -0.065 -0.7563  0.1625 -0.5052
  134MOL0     C17998   7.613   2.410   0.056  0.0240  0.2076  0.1566
  134MOL0    Cl17999   7.746   2.503  -0.030  0.3029 -0.2700 -0.2367
  134MOL0     C18000   6.752   1.721  -0.092 -0.4806 -0.6543  0.3415
  134MOL0     C18001   6.649   1.629  -0.122 -0.6642  0.4610 -0.8053
  134MOL0     O18002   6.404   1.555   0.025  0.1931  0.1854 -0.4790
  134MOL0     C18003   6.183   1.471  -0.236  0.2545  0.0067 -0.9003
  134MOL0     C18004   6.055   1.419  -0.250  0.5329  0.7415  0.2119
  134MOL0     N18005   5.386   1.551  -0.190 -0.7398  0.0017  0.1431
  134MOL0     N18006   5.284   1.597  -0.124 -0.6311 -0.1207  0.4431
  134MOL0     C18007   4.031   1.331  -0.171 -0.6306  0.1265  0.5078
  134MOL0     C18008   3.904   1.351  -0.130  1.3591 -0.7116 -0.4424
  134MOL0     C18009   3.507   1.456   0.074 -0.4732 -0.1223  0.6276
  134MOL0     C18010   3.430   1.499  -0.044 -0.6493  0.5902 -0.4895
  134MOL0     C18011   3.303   1.544  -0.045 -0.1045 -0.4277  0.8495
  134MOL0     C18012   3.235   1.554   0.077 -0.4817 -0.4159  0.4260
  134MOL0     O18013   3.101   1.586   0.072 -0.1606  0.5721  0.3073
  134MOL0     C18014   3.046   1.654   0.189 -0.2228 -0.0704 -0.3096
  134MOL0     C18015   2.968   1.772   0.150  0.2017 -1.0688  1.1571
  134MOL0     C18016   3.063   1.900   0.129 -0.2288  0.1766 -0.1220
  134MOL0     C18017   2.994   2.018   0.079  0.2987  0.3978 -0.0676
  134MOL0     C18018   2.897   2.064   0.181 -0.9519 -0.7509  0.3719
  134MOL0     C18019   2.829   2.088   0.275  0.4665  0.0866  0.8526
  134MOL0     C18020   3.297   1.511   0.198 -0.1836 -0.0224  0.6306
  134MOL0     C18021   3.424   1.451   0.194 -0.0748 -0.6556  0.6937
  134MOL0     C18022   3.494   1.423   0.330  1.2759  0.3322  0.2833
  134MOL0     H18023   3.937   1.651   0.019  0.2253  0.8091 -2.4328
  134MOL0     H18024   4.183   1.567  -0.008  2.0247 -1.9759 -0.6070
  134MOL0     H18025   4.259   1.197  -0.200 -0.7527  0.6117  3.1124
  134MOL0     H18026   4.266   1.301  -0.339  0.3362  0.4552 -0.4192
  134MOL0     H18027   4.497   1.373  -0.276  2.6264 -2.1246 -0.7745
  134MOL0     H18028   4.497   1.217  -0.308 -0.4022  1.5400 -1.6857
  134MOL0     H18029   4.497   1.154  -0.052 -2.3208  0.9959 -0.4427
  134MOL0     H18030   4.504   1.338  -0.031  0.6684  1.4177 -1.5580
  134MOL0     H18031   4.704   1.143  -0.085 -0.0629 -0.4699 -0.9563
  134MOL0     H18032   4.696   1.222  -0.230 -0.5140  1.6938 -0.1069
  134MOL0     H18033   4.700   1.451  -0.117 -1.0107 -1.0034 -0.6777
  134MOL0     H18034   4.771   1.366   0.022  0.2071  2.6119 -0.3501
  134MOL0     H18035   4.935   1.272  -0.156 -1.2030 -0.8977 -2.8748
  134MOL0     H18036   4.861   1.374  -0.277 -2.6743  1.0536  0.2555
  134MOL0     H18037   4.896   1.575  -0.102 -0.4684 -1.3879  1.2672
  134MOL0     H18038   5.015   1.530  -0.223 -0.2958 -0.2911 -1.5945
  134MOL0     H18039   5.084   1.576   0.031  1.4341  0.7367 -1.7054
  134MOL0     H18040   5.067   1.394   0.035  0.7207 -0.3780  0.5784
  134MOL0     H18041   5.222   1.269  -0.142  1.0302 -0.1797  0.7302
  134MOL0     H18042   5.431   1.227  -0.321 -1.8118  0.7373  0.3795
  134MOL0     H18043   5.489   1.374  -0.395  1.8163 -0.3241 -0.0677
  134MOL0     H18044   5.624   1.397  -0.181 -1.3665  0.8028 -1.1091
  134MOL0     H18045   5.592   1.218  -0.162  0.3134  1.7401  1.6432
  134MOL0     H18046   5.735   1.372  -0.385  1.4756 -0.0497  0.5137
  134MOL0     H18047   5.677   1.203  -0.397  2.0254 -2.7086  1.4457
  134MOL0     H18048   5.911   1.208  -0.340  2.2858  0.0505  0.9288
  134MOL0     H18049   5.802   1.117  -0.244 -0.2953 -0.2595 -3.1378
  134MOL0     H18050   5.961   1.375   0.065  1.8847 -2.8985  0.8841
  134MOL0     H18051   6.160   1.492   0.101 -0.9653 -2.3040  1.4465
  134MOL0     H18052   6.458   1.847  -0.296 -1.5209  1.4741  3.4402
  134MOL0     H18053   6.634   1.993  -0.262 -1.4589 -0.6473 -0.8568
  134MOL0     H18054   6.982   2.035   0.014  0.7822 -0.7619  0.9593
  134MOL0     H18055   6.948   1.861   0.041  1.1541 -0.4959  0.7178
  134MOL0     H18056   7.157   1.833  -0.066  0.3860 -1.5855 -3.8034
  134MOL0     H18057   7.057   1.825  -0.203  0.0958 -2.1519  1.0592
  134MOL0     H18058   7.219   1.984  -0.276 -1.1678  2.8753 -1.5237
  134MOL0     H18059   7.096   2.096  -0.211 -0.6037  1.0919  2.0259
  134MOL0     H18060   7.322   1.995  -0.027  0.9236  0.4214  0.0918
  134MOL0     H18061   7.196   2.124  -0.003  0.0789 -1.3408  2.0494
  134MOL0     H18062   7.287   2.266  -0.165  0.4098 -0.4542 -1.7683
  134MOL0     H18063   7.422   2.150  -0.207 -1.3047 -1.1077 -1.8497
  134MOL0     H18064   7.359   2.292   0.067 -0.8234 -2.5896  0.9231
  134MOL0     H18065   7.478   2.166   0.043 -0.5756 -3.1972 -2.8885
  134MOL0     H18066   7.475   2.425  -0.123 -1.4914  0.3714  0.4569
  134MOL0     H18067   7.592   2.304  -0.143  0.8772  1.7903 -0.3750
  134MOL0     H18068   7.544   2.465   0.120  0.1452 -0.0717  0.5335
  134MOL0     H18069   7.650   2.326   0.116  0.6335  1.4179  1.5254
  134MOL0     H18070   6.824   1.683  -0.021 -0.7649 -3.8513 -0.9065
  134MOL0     H18071   6.639   1.534  -0.070 -0.3579  0.8375 -0.0358
  134MOL0     H18072   6.242   1.506  -0.321  1.8408 -1.6918 -0.5437
  134MOL0     H18073   6.020   1.410  -0.352 -2.7517  2.2964  1.0825
  134MOL0     H18074   4.051   1.239  -0.224  1.4706  0.6141  0.3319
  134MOL0     H18075   3.821   1.284  -0.147 -0.6670  0.5905  3.1914
  134MOL0     H18076   3.478   1.482  -0.140  1.5027 -0.5501  0.7173
  134MOL0     H18077   3.244   1.580  -0.128  1.4664  0.3908  0.0478
  134MOL0     H18078   3.128   1.698   0.247  1.2333 -1.2793 -1.3477
  134MOL0     H18079   2.999   1.584   0.258  0.9878  3.0231  4.1242
  134MOL0     H18080   2.885   1.786   0.220 -0.2709 -5.2760  1.6775
  134MOL0     H18081   2.926   1.768   0.049 -1.0803 -3.7669  1.7152
  134MOL0     H18082   3.148   1.871   0.067  1.1575 -0.5641  2.0166
  134MOL0     H18083   3.106   1.924   0.226  0.7195 -0.4007 -0.3841
  134MOL0     H18084   3.075   2.092   0.071 -0.2871  0.8914 -1.9228
  134MOL0     H18085   2.955   2.012  -0.023 -0.2496 -1.7604  0.2246
  134MOL0     H18086   2.787   2.109   0.372  0.8262  2.0153  0.6315
  134MOL0     H18087   3.242   1.511   0.292 -2.1676  0.9676 -0.4633
  134MOL0     H18088   3.590   1.472   0.347  1.1614 -0.3877  3.6539
  134MOL0     H18089   3.425   1.449   0.410  0.9815  3.3036 -0.7809
  134MOL0     H18090   3.514   1.316   0.318  2.6521  0.5814  0.2655
  135MOL0     O18091   3.492   1.587   7.265  0.6699  0.4284 -0.0208
  135MOL0     C18092   3.487   1.634   7.377 -0.4540 -0.5383 -0.3009
  135MOL0     O18093   3.597   1.666   7.452  0.4436  0.6761  0.3313
  135MOL0     C18094   3.717   1.644   7.393 -0.3087 -2.1851 -0.2413
  135MOL0     C18095   3.784   1.526   7.357 -0.5598 -0.9998  0.0828
  135MOL0     C18096   3.914   1.539   7.303  0.7473 -0.2870 -0.0507
  135MOL0     C18097   3.978   1.662   7.282 -0.0251 -0.2010  0.4144
  135MOL0     O18098   4.103   1.670   7.226 -0.2383 -0.5378 -0.3084
  135MOL0     C18099   4.159   1.800   7.190 -0.7486 -0.2099 -0.1951
  135MOL0     C18100   4.297   1.780   7.126 -0.5748  0.4619 -0.5480
  135MOL0     C18101   4.397   1.727   7.236  0.4873  0.4230 -0.1044
  135MOL0     C18102   4.529   1.735   7.176 -0.0223 -0.3082 -0.1333
  135MOL0     C18103   4.637   1.689   7.279  0.0830 -0.2542  0.7473
  135MOL0     C18104   4.769   1.651   7.206  1.1537 -0.3428 -0.6712
  135MOL0     C18105   4.874   1.624   7.316 -0.4461  0.8214 -0.0888
  135MOL0     C18106   5.015   1.600   7.254 -0.1310 -1.0977  0.1639
  135MOL0     N18107   5.108   1.610   7.370 -0.8609  1.2459  0.5239
  135MOL0     C18108   5.168   1.729   7.416  0.2265 -0.2692 -0.2684
  135MOL0     C18109   5.268   1.692   7.505  0.0913 -0.1983  0.5261
  135MOL0     C18110   5.356   1.781   7.578 -0.0421 -0.1296 -0.1889
  135MOL0     C18111   5.449   1.868   7.490  0.2377  0.7645 -1.7778
  135MOL0     C18112   5.548   1.954   7.579 -0.1643 -0.2919  0.8921
  135MOL0     C18113   5.639   1.873   7.666  0.1060 -0.7082  0.1831
  135MOL0     O18114   5.716   1.963   7.746  0.3687 -0.1034  0.0034
  135MOL0     C18115   5.846   1.925   7.768  0.0126 -0.0589  0.0730
  135MOL0     C18116   5.870   1.860   7.888 -0.5530 -0.0162  1.4163
  135MOL0     C18117   5.998   1.823   7.919 -0.0901 -0.1723 -0.0932
  135MOL0     C18118   6.113   1.845   7.837  0.4084  0.5715 -0.3772
  135MOL0     C18119   6.251   1.818   7.877  0.0177  0.7359 -0.6351
  135MOL0     O18120   6.352   1.873   7.802 -0.2517  0.6991  0.2240
  135MOL0     C18121   6.480   1.866   7.858  0.2760 -0.4804 -0.0764
  135MOL0     C18122   6.521   1.982   7.932  0.0044  0.4644 -0.1109
  135MOL0     C18123   6.645   1.977   7.991 -0.2399 -0.0153  0.4977
  135MOL0     C18124   6.738   1.880   7.964  1.2622  0.3908  0.9048
  135MOL0     O18125   6.855   1.889   8.021 -0.1996 -0.3696 -0.1694
  135MOL0     C18126   6.944   1.777   8.034 -0.0334 -0.2863 -0.2276
  135MOL0     C18127   7.066   1.833   8.117  0.2620  0.0607 -0.4714
  135MOL0     C18128   7.123   1.961   8.057 -0.8534 -0.0047  0.3101
  135MOL0     C18129   7.269   1.991   8.112  0.5490  0.0918 -0.0895
  135MOL0     C18130   7.290   1.997   8.268 -0.2648 -0.4454  0.9009
  135MOL0     C18131   7.444   1.987   8.292 -0.0441  0.0162 -0.3095
  135MOL0     C18132   7.489   2.034   8.423  0.7387  0.3154  0.5477
  135MOL0     C18133   7.404   1.990   8.544  0.6309 -0.0549 -0.7366
  135MOL0    Cl18134   7.241   2.088   8.572  0.0785 -0.1021  0.5367
  135MOL0     C18135   6.701   1.770   7.884  0.2556  0.4262 -0.2251
  135MOL0     C18136   6.570   1.761   7.829  0.0266 -0.7218  0.3853
  135MOL0     O18137   6.271   1.750   7.978  0.1437 -0.6107  0.2434
  135MOL0     C18138   6.078   1.891   7.707 -0.3554  0.0915 -0.2340
  135MOL0     C18139   5.955   1.935   7.676  0.3888 -0.3194  0.4844
  135MOL0     N18140   5.260   1.549   7.513 -0.8560  0.0276  0.2427
  135MOL0     N18141   5.171   1.506   7.428  0.9886  0.2229 -0.3364
  135MOL0     C18142   3.907   1.778   7.312  0.9816 -0.2170  0.0103
  135MOL0     C18143   3.778   1.771   7.369 -0.0435  0.5833 -0.8934
  135MOL0     C18144   3.354   1.642   7.449 -0.0438 -0.1630  0.0855
  135MOL0     C18145   3.339   1.731   7.554  0.9448  0.4474 -0.0104
  135MOL0     C18146   3.207   1.755   7.602 -0.1262  0.2616  1.7289
  135MOL0     C18147   3.093   1.684   7.565  0.7070  0.0169 -0.4221
  135MOL0     O18148   2.963   1.703   7.603 -0.5724 -0.4403  0.3078
  135MOL0     C18149   2.945   1.770   7.726  1.2742 -0.4243 -0.0291
  135MOL0     C18150   2.802   1.823   7.729 -0.2386  0.5806  0.6367
  135MOL0     C18151   2.687   1.715   7.704 -0.2797  1.2406  0.1725
  135MOL0     C18152   2.574   1.728   7.817  0.5535  0.1505 -0.8927
  135MOL0     C18153   2.499   1.861   7.812 -0.3961  0.1402 -0.7905
  135MOL0     C18154   2.440   1.966   7.814  0.1792  0.1141  0.4353
  135MOL0     C18155   3.114   1.599   7.457  0.1524 -0.3480  0.1035
  135MOL0     C18156   3.238   1.576   7.399  0.2055 -0.2755 -0.5090
  135MOL0     C18157   3.258   1.468   7.297  0.7008  0.4822  0.0410
  135MOL0     H18158   3.759   1.421   7.367 -4.0564 -0.4207 -1.0977
  135MOL0     H18159   3.974   1.454   7.273  1.6975 -0.0850  1.2304
  135MOL0     H18160   4.100   1.863   7.123 -0.3296 -1.1252 -1.4525
  135MOL0     H18161   4.158   1.869   7.275 -2.7259 -0.2181 -0.1708
  135MOL0     H18162   4.334   1.872   7.080  1.1775  1.2950  2.2788
  135MOL0     H18163   4.282   1.702   7.051  4.2874  0.5291 -1.8605
  135MOL0     H18164   4.377   1.626   7.271  2.3444 -0.1914 -0.6887
  135MOL0     H18165   4.405   1.799   7.318  0.3385 -0.8529  1.0654
  135MOL0     H18166   4.538   1.671   7.087 -3.6940 -1.3192  0.0680
  135MOL0     H18167   4.544   1.835   7.136  1.9824 -0.3861  0.3398
  135MOL0     H18168   4.658   1.762   7.357  0.5398 -0.0311  0.4189
  135MOL0     H18169   4.614   1.593   7.327  0.7005 -0.8415 -0.0803
  135MOL0     H18170   4.742   1.570   7.138 -3.8062  0.7561 -0.3524
  135MOL0     H18171   4.810   1.735   7.150 -2.1315  2.1189  0.3288
  135MOL0     H18172   4.856   1.536   7.379 -0.1565 -0.4988 -1.7720
  135MOL0     H18173   4.884   1.716   7.374  0.8129  3.2771 -3.9103
  135MOL0     H18174   5.017   1.499   7.212  0.0103 -1.6364  1.3988
  135MOL0     H18175   5.041   1.662   7.168 -1.9496 -2.8168 -1.7359
  135MOL0     H18176   5.143   1.827   7.377 -1.8481 -1.2652 -1.5882
  135MOL0     H18177   5.295   1.838   7.649  0.8458 -0.6409  1.0226
  135MOL0     H18178   5.418   1.726   7.649  0.0802  1.0977  0.6926
  135MOL0     H18179   5.500   1.808   7.415 -0.3383  0.8860 -2.2754
  135MOL0     H18180   5.379   1.936   7.442 -1.3675  0.5419  0.1009
  135MOL0     H18181   5.499   2.025   7.646  2.5151  2.5200  0.0766
  135MOL0     H18182   5.603   2.022   7.514 -0.7003 -1.1375 -0.5024
  135MOL0     H18183   5.705   1.823   7.594  0.0865  0.4818 -0.6929
  135MOL0     H18184   5.583   1.805   7.731  1.4159  0.1555  2.3016
  135MOL0     H18185   5.787   1.843   7.956 -2.2463 -4.7334 -1.3394
  135MOL0     H18186   6.021   1.770   8.011  0.9104 -0.4900 -0.5193
  135MOL0     H18187   6.454   2.067   7.939 -3.0795 -1.6722 -1.2667
  135MOL0     H18188   6.676   2.062   8.052  1.2782  0.4279 -0.8230
  135MOL0     H18189   6.887   1.704   8.092 -1.3852 -0.6987 -1.9592
  135MOL0     H18190   6.965   1.737   7.934 -2.9760  1.1235 -1.5333
  135MOL0     H18191   7.035   1.870   8.215 -4.1683 -1.7370 -0.9995
  135MOL0     H18192   7.138   1.754   8.138 -1.6724 -1.5272  0.4469
  135MOL0     H18193   7.134   1.943   7.949  1.9229 -0.1215  0.5258
  135MOL0     H18194   7.063   2.052   8.070  0.3469  0.8734 -0.0717
  135MOL0     H18195   7.297   2.086   8.065  2.2117  0.1916  0.9935
  135MOL0     H18196   7.330   1.908   8.075 -1.6103 -1.8007  0.3585
  135MOL0     H18197   7.254   1.906   8.318  1.9223 -3.2087 -2.0641
  135MOL0     H18198   7.249   2.087   8.314 -0.9822 -1.9067  3.2893
  135MOL0     H18199   7.472   1.882   8.291  1.9164  0.4810  0.3679
  135MOL0     H18200   7.496   2.041   8.212  0.5114  0.6882  0.4820
  135MOL0     H18201   7.497   2.143   8.417 -0.5749  0.4300  0.5983
  135MOL0     H18202   7.591   1.995   8.433  1.6234  2.7898  1.9719
  135MOL0     H18203   7.393   1.881   8.535 -0.6744 -0.2103  1.8130
  135MOL0     H18204   7.454   2.014   8.638  0.8854 -1.7671 -0.3916
  135MOL0     H18205   6.769   1.692   7.852  2.3699  0.9430  2.6216
  135MOL0     H18206   6.550   1.672   7.770 -0.1563  0.4928 -1.4713
  135MOL0     H18207   6.163   1.915   7.645  2.1171 -2.4057  1.9058
  135MOL0     H18208   5.942   1.993   7.586 -0.4768  0.1022  0.8665
  135MOL0     H18209   3.952   1.875   7.293  0.8162  0.0227  0.7944
  135MOL0     H18210   3.724   1.859   7.403  0.7545  0.7271  0.0403
  135MOL0     H18211   3.421   1.790   7.594  0.3153  1.0087  0.4594
  135MOL0     H18212   3.204   1.835   7.676  0.7512  2.2815 -0.2848
  135MOL0     H18213   3.021   1.848   7.737 -1.1543  2.1933 -0.6715
  135MOL0     H18214   2.950   1.697   7.807 -0.3407 -1.3756 -0.7379
  135MOL0     H18215   2.795   1.900   7.652  1.5264  0.8961  0.7457
  135MOL0     H18216   2.786   1.872   7.825 -0.1295  2.8682 -0.4507
  135MOL0     H18217   2.731   1.616   7.687  0.7951  1.8847 -0.9889
  135MOL0     H18218   2.637   1.741   7.610 -0.1562  1.9691  0.3062
  135MOL0     H18219   2.509   1.641   7.828  0.5852  0.1789 -0.4449
  135MOL0     H18220   2.617   1.716   7.917 -1.8969 -3.6308 -0.0845
  135MOL0     H18221   2.390   2.060   7.822  0.6979  0.4454 -0.1138
  135MOL0     H18222   3.029   1.538   7.426  0.9168 -0.3033 -2.2475
  135MOL0     H18223   3.339   1.399   7.319 -0.3210 -0.5663  0.6705
  135MOL0     H18224   3.161   1.417   7.289  0.0596  1.8382 -1.3581
  135MOL0     H18225   3.256   1.514   7.198 -1.2923  2.0590  0.7446
  136MOL0     O18226   2.860   8.231   4.621  0.1786 -0.5674  0.2490
  136MOL0     C18227   2.762   8.195   4.679 -0.2928  0.0202  0.5125
  136MOL0     O18228   2.762   8.187   4.818  0.3209  0.8480 -0.7424
  136MOL0     C18229   2.850   8.244   4.899 -0.5034 -0.3590 -0.3199
  136MOL0     C18230   2.806   8.306   5.020  0.0650  0.1567 -0.5016
  136MOL0     C18231   2.887   8.351   5.118 -0.0421  0.6339  0.2915
  136MOL0     C18232   3.026   8.348   5.090  0.3889  0.2452  0.4008
  136MOL0     O18233   3.115   8.383   5.181 -0.3421 -0.0413 -0.1428
  136MOL0     C18234   3.113   8.518   5.232  0.4827 -0.9244  0.5057
  136MOL0     C18235   3.001   8.545   5.335  0.2543  0.0551 -0.2711
  136MOL0     C18236   2.887   8.636   5.282  0.0652 -0.6026  0.5632
  136MOL0     C18237   2.895   8.778   5.339 -0.2786  0.5792 -0.1900
  136MOL0     C18238   2.783   8.862   5.277  0.3834 -0.3030 -0.6775
  136MOL0     C18239   2.751   8.993   5.352  0.3852 -0.1478 -0.5548
  136MOL0     C18240   2.879   9.066   5.355  1.2000 -0.2449 -0.2733
  136MOL0     C18241   2.855   9.205   5.414  0.1813  0.0767  0.4674
  136MOL0     N18242   2.965   9.295   5.375  0.4960  0.0891  0.4562
  136MOL0     C18243   3.098   9.261   5.338  0.0815 -0.9421 -0.0369
  136MOL0     C18244   3.161   9.377   5.325  0.1229 -0.1131  0.5286
  136MOL0     C18245   3.306   9.406   5.300 -1.2094  0.7705 -0.0447
  136MOL0     C18246   3.390   9.301   5.372 -1.0921  0.0098  0.0389
  136MOL0     C18247   3.431   9.341   5.515  0.4582  0.0695  0.1584
  136MOL0     C18248   3.490   9.224   5.602 -0.5011 -0.8538  0.5168
  136MOL0     O18249   3.607   9.166   5.542  0.5357  0.3235  0.5643
  136MOL0     C18250   3.731   9.222   5.542 -0.2385  0.8398  0.2213
  136MOL0     C18251   3.830   9.162   5.465 -0.3776 -0.8090 -0.1241
  136MOL0     C18252   3.958   9.221   5.450  0.3569 -0.7302  0.0612
  136MOL0     C18253   3.990   9.343   5.513  0.3341 -0.3772  0.4984
  136MOL0     C18254   4.128   9.394   5.510  0.1654  0.0517 -0.2478
  136MOL0     O18255   4.134   9.527   5.549  0.0753 -0.1310 -0.1222
  136MOL0     C18256   4.252   9.598   5.546 -0.5074 -0.1915 -0.6679
  136MOL0     C18257   4.390   9.545   5.541  0.3034  0.8562 -0.5153
  136MOL0     C18258   4.503   9.627   5.525 -0.6180 -0.9443  0.2294
  136MOL0     C18259   4.477   9.768   5.540 -0.2100 -1.0564  1.2826
  136MOL0     O18260   4.573   9.865   5.520 -0.1890  0.1788 -0.2726
  136MOL0     C18261   4.660   9.838   5.412 -0.0253 -0.0591 -0.3923
  136MOL0     C18262   4.682   9.969   5.338 -0.7898 -0.3882 -0.2357
  136MOL0     C18263   4.562  10.037   5.286 -0.2247  0.0223 -0.7175
  136MOL0     C18264   4.609  10.126   5.175 -0.8028 -0.6821  0.5626
  136MOL0     C18265   4.504  10.224   5.122 -0.3397  0.4649  0.2227
  136MOL0     C18266   4.546  10.297   4.995 -0.7987 -0.0265  0.2732
  136MOL0     C18267   4.432  10.399   4.944 -0.7437  0.0838  0.3488
  136MOL0     C18268   4.433  10.523   5.030  1.0519  0.1113 -0.6127
  136MOL0    Cl18269   4.307  10.650   4.981  0.0070 -0.1106 -0.2510
  136MOL0     C18270   4.348   9.816   5.566 -0.4587  0.8348  0.0268
  136MOL0     C18271   4.238   9.732   5.554 -0.0866 -0.7840  1.0514
  136MOL0     O18272   4.223   9.327   5.453 -0.0882  0.0676 -0.0849
  136MOL0     C18273   3.889   9.403   5.588  0.7576  0.0149  0.5717
  136MOL0     C18274   3.761   9.344   5.603  0.0481  1.5725  0.6630
  136MOL0     N18275   3.067   9.478   5.347  0.3875  0.1083  0.7571
  136MOL0     N18276   2.950   9.424   5.379  0.5377 -0.3012  0.9453
  136MOL0     C18277   3.073   8.287   4.975 -0.6025 -0.1409  0.1973
  136MOL0     C18278   2.988   8.237   4.883  1.0595  0.0955  0.5154
  136MOL0     C18279   2.628   8.187   4.604 -0.6753 -0.1701  0.6974
  136MOL0     C18280   2.504   8.201   4.668 -0.7607  0.8222  0.1825
  136MOL0     C18281   2.383   8.209   4.602  0.7077 -0.2248  0.6176
  136MOL0     C18282   2.366   8.179   4.466 -0.2138 -0.4598  0.0617
  136MOL0     O18283   2.254   8.141   4.404  0.4455  0.6619  0.1796
  136MOL0     C18284   2.126   8.165   4.461  0.5282 -0.4151 -0.0776
  136MOL0     C18285   2.097   8.308   4.455  0.1636  0.7089  0.6504
  136MOL0     C18286   1.968   8.349   4.524 -0.5860  0.2458 -0.4353
  136MOL0     C18287   1.959   8.506   4.500  0.7256 -0.7998  0.2656
  136MOL0     C18288   1.861   8.568   4.587  0.1389  0.3006 -0.4841
  136MOL0     C18289   1.781   8.627   4.653 -0.3707 -0.4966 -0.2389
  136MOL0     C18290   2.486   8.178   4.393 -0.6581 -0.5035  0.2837
  136MOL0     C18291   2.615   8.183   4.457  1.3379 -0.2635 -0.3355
  136MOL0     C18292   2.730   8.197   4.360 -0.0659  0.6646 -0.0921
  136MOL0     H18293   2.697   8.310   5.024 -0.0117 -1.4069 -0.0409
  136MOL0     H18294   2.836   8.390   5.206 -0.7081  0.7214 -0.1253
  136MOL0     H18295   3.212   8.544   5.269 -0.2525 -0.3141  2.1568
  136MOL0     H18296   3.089   8.588   5.151 -0.1271  0.1670  1.6005
  136MOL0     H18297   3.041   8.598   5.423 -1.5818  3.5070 -1.3110
  136MOL0     H18298   2.955   8.455   5.376 -1.7469  2.0431  2.2542
  136MOL0     H18299   2.794   8.599   5.326  0.8901 -0.2064  2.7895
  136MOL0     H18300   2.885   8.619   5.174  2.8054  0.6483  0.2268
  136MOL0     H18301   2.898   8.765   5.448  0.6830 -2.3719 -0.4804
  136MOL0     H18302   2.990   8.821   5.306 -0.5642  1.4453  0.0933
  136MOL0     H18303   2.810   8.883   5.173  3.7931 -0.5172  0.0487
  136MOL0     H18304   2.690   8.805   5.266  0.5708 -0.6003 -0.7036
  136MOL0     H18305   2.665   9.042   5.306 -0.2068 -0.6067  0.0396
  136MOL0     H18306   2.724   8.965   5.455 -1.3600  0.5941 -0.7760
  136MOL0     H18307   2.921   9.071   5.254  0.5463 -0.6607 -0.5704
  136MOL0     H18308   2.949   9.022   5.426  1.8119  0.0337 -0.6936
  136MOL0     H18309   2.764   9.235   5.361 -0.1689 -3.0764 -0.9702
  136MOL0     H18310   2.835   9.206   5.521 -2.0065 -0.2283  0.1068
  136MOL0     H18311   3.130   9.157   5.331  0.2278 -0.8913 -0.1217
  136MOL0     H18312   3.331   9.422   5.194 -0.0883  4.0624  0.5816
  136MOL0     H18313   3.332   9.501   5.348  1.8553 -0.9822  2.1173
  136MOL0     H18314   3.332   9.209   5.381 -1.1453 -0.2549 -2.3621
  136MOL0     H18315   3.469   9.266   5.304 -1.4861 -0.7959 -0.0174
  136MOL0     H18316   3.338   9.373   5.564  0.1051  1.2018 -1.2089
  136MOL0     H18317   3.506   9.420   5.510 -1.0375  1.5272 -0.1649
  136MOL0     H18318   3.415   9.144   5.613 -0.4818 -0.9986 -0.3360
  136MOL0     H18319   3.506   9.275   5.697  0.6861  0.9360 -0.6005
  136MOL0     H18320   3.818   9.070   5.408 -1.5757 -1.5776  1.2900
  136MOL0     H18321   4.035   9.186   5.382  1.6485  0.8041  0.6650
  136MOL0     H18322   4.414   9.440   5.527  2.9648  1.4728 -1.0636
  136MOL0     H18323   4.603   9.588   5.508  0.2578  1.2962 -0.1141
  136MOL0     H18324   4.763   9.815   5.441  0.1235 -1.7415 -2.0342
  136MOL0     H18325   4.626   9.760   5.342  2.2785 -1.6111  0.0933
  136MOL0     H18326   4.726  10.038   5.411 -3.8517 -0.1076  1.4754
  136MOL0     H18327   4.753   9.953   5.256 -1.7912  0.0411 -1.2168
  136MOL0     H18328   4.483   9.967   5.255 -1.4899  0.8368  0.5429
  136MOL0     H18329   4.519  10.095   5.368  0.4581  0.6526 -0.7936
  136MOL0     H18330   4.638  10.060   5.093 -0.1657 -2.0776  1.8735
  136MOL0     H18331   4.694  10.185   5.209 -0.7569 -0.3122 -0.1873
  136MOL0     H18332   4.471  10.294   5.199 -0.5829 -0.9520  1.4514
  136MOL0     H18333   4.420  10.161   5.090  1.4645 -1.6733 -0.5212
  136MOL0     H18334   4.638  10.353   5.012 -0.1231 -0.1066 -2.6098
  136MOL0     H18335   4.561  10.221   4.917 -1.3628 -3.1178  2.9702
  136MOL0     H18336   4.336  10.348   4.943 -1.6501  1.7457 -0.9800
  136MOL0     H18337   4.465  10.433   4.846  0.4264 -2.9954 -0.4253
  136MOL0     H18338   4.421  10.498   5.136 -2.4913 -1.0916 -1.1800
  136MOL0     H18339   4.525  10.580   5.014 -0.2890  2.2962 -0.9178
  136MOL0     H18340   4.353   9.923   5.586 -0.1030  0.7829  0.2265
  136MOL0     H18341   4.139   9.776   5.546 -0.3498 -1.4581  0.4616
  136MOL0     H18342   3.906   9.498   5.638 -2.2577  1.0493 -0.1646
  136MOL0     H18343   3.691   9.411   5.652 -0.9576  1.5290 -0.6602
  136MOL0     H18344   3.180   8.280   4.956 -0.6037  2.3793 -1.2331
  136MOL0     H18345   3.019   8.187   4.792 -0.1912  2.8242 -1.5380
  136MOL0     H18346   2.503   8.213   4.776 -0.7634 -1.1417  0.4440
  136MOL0     H18347   2.303   8.232   4.672 -0.2166 -1.3005 -0.0460
  136MOL0     H18348   2.122   8.119   4.560 -0.5783  0.3885  0.2675
  136MOL0     H18349   2.050   8.116   4.398 -1.9156  1.1440  1.4965
  136MOL0     H18350   2.077   8.343   4.353  0.0393  0.4778  0.5935
  136MOL0     H18351   2.175   8.363   4.509  1.3122  0.3448 -0.5730
  136MOL0     H18352   1.972   8.328   4.631  1.1358 -0.2228 -0.5734
  136MOL0     H18353   1.892   8.286   4.477  1.1381 -1.9977 -0.3681
  136MOL0     H18354   2.056   8.556   4.508 -0.5001  1.6061  0.8563
  136MOL0     H18355   1.932   8.514   4.394  0.2080 -2.6637  0.2148
  136MOL0     H18356   1.712   8.691   4.705  0.8215 -0.0423  0.8297
  136MOL0     H18357   2.470   8.159   4.287 -0.2292  0.5994  0.0043
  136MOL0     H18358   2.796   8.114   4.386 -1.2421 -0.7586 -1.4786
  136MOL0     H18359   2.709   8.195   4.253 -0.4819  2.6438 -0.0904
  136MOL0     H18360   2.779   8.294   4.369 -0.0909  0.7854 -1.1234
  137MOL0     O18361   6.307   1.398  10.403  0.1877  0.1109 -0.2830
  137MOL0     C18362   6.301   1.318  10.310  0.5172 -0.2118 -0.2253
  137MOL0     O18363   6.409   1.245  10.263 -0.1148 -0.1646 -0.5626
  137MOL0     C18364   6.539   1.264  10.314  0.8729  1.5248 -0.2254
  137MOL0     C18365   6.596   1.388  10.336  1.6266  0.0993 -0.5602
  137MOL0     C18366   6.727   1.397  10.382 -0.2209 -0.2306 -0.7375
  137MOL0     C18367   6.811   1.277  10.406  0.4123 -0.4422 -0.3030
  137MOL0     O18368   6.941   1.275  10.459  0.2755  0.4678  0.0594
  137MOL0     C18369   7.016   1.387  10.491 -0.2452 -0.0935 -0.7027
  137MOL0     C18370   7.161   1.363  10.538 -0.9780 -0.7829  1.2834
  137MOL0     C18371   7.160   1.258  10.649  0.1547 -0.6074  0.2894
  137MOL0     C18372   7.302   1.247  10.695 -0.3605  0.8598 -0.3006
  137MOL0     C18373   7.320   1.109  10.759  0.1404 -0.0604 -0.0181
  137MOL0     C18374   7.467   1.095  10.794 -0.0086 -0.2182  0.2375
  137MOL0     C18375   7.499   0.947  10.848  0.2861 -0.5158 -0.3002
  137MOL0     C18376   7.646   0.919  10.822 -0.3806  0.8162 -0.6879
  137MOL0     N18377   7.729   1.026  10.875 -0.5993  0.7633  0.2646
  137MOL0     C18378   7.748   1.068  11.005  0.3582  0.7823  0.0069
  137MOL0     C18379   7.832   1.173  11.001  0.2818 -0.0526 -0.6946
  137MOL0     C18380   7.868   1.266  11.121  0.8608  0.6391 -0.1955
  137MOL0     C18381   7.826   1.410  11.119  0.1859 -0.1961  0.8556
  137MOL0     C18382   7.858   1.499  11.239  0.2927 -0.6144 -1.5505
  137MOL0     C18383   8.004   1.541  11.232 -0.6057 -0.4310  0.2036
  137MOL0     O18384   8.024   1.620  11.113 -0.5299  0.8571 -0.3911
  137MOL0     C18385   8.125   1.713  11.101  0.0852 -1.5252 -0.8214
  137MOL0     C18386   8.227   1.735  11.199 -0.1669 -0.1020 -0.3350
  137MOL0     C18387   8.339   1.817  11.171 -0.7285 -0.2514  0.8441
  137MOL0     C18388   8.368   1.873  11.042  0.1445  0.1265 -0.0227
  137MOL0     C18389   8.497   1.925  11.008  0.2053 -0.2681  0.0530
  137MOL0     O18390   8.504   1.986  10.887  0.0054  0.0078  0.3021
  137MOL0     C18391   8.615   2.040  10.828 -0.8589 -0.7269 -0.2814
  137MOL0     C18392   8.719   2.109  10.907 -0.0158 -0.5331  0.8951
  137MOL0     C18393   8.825   2.159  10.839  0.1030 -0.0343  0.4690
  137MOL0     C18394   8.840   2.156  10.700  0.0896 -0.0152  0.3255
  137MOL0     O18395   8.951   2.203  10.635  0.9871 -0.3784  0.6550
  137MOL0     C18396   9.015   2.324  10.671 -0.1023  0.1897 -0.7033
  137MOL0     C18397   9.109   2.363  10.562  0.6725  0.0163  0.2741
  137MOL0     C18398   9.225   2.264  10.549 -0.7970  0.4751 -0.3118
  137MOL0     C18399   9.270   2.233  10.404  0.5018 -0.0465  0.1235
  137MOL0     C18400   9.386   2.134  10.393 -0.2491 -0.2968  0.3163
  137MOL0     C18401   9.448   2.157  10.260 -0.1082 -0.3704  0.6760
  137MOL0     C18402   9.564   2.061  10.253 -0.2963  1.1375 -0.5199
  137MOL0     C18403   9.636   2.092  10.128  0.0680 -0.4783  0.2169
  137MOL0    Cl18404   9.761   1.975  10.078  0.6356  0.4509  0.5302
  137MOL0     C18405   8.741   2.090  10.628  0.4075 -0.2357  0.4097
  137MOL0     C18406   8.627   2.044  10.691  0.5535 -0.1220  0.4798
  137MOL0     O18407   8.581   1.930  11.096  0.2832  0.1862 -0.9167
  137MOL0     C18408   8.262   1.854  10.950  0.6941 -0.6259 -0.2219
  137MOL0     C18409   8.142   1.781  10.983  0.1132  0.1929 -0.3839
  137MOL0     N18410   7.860   1.184  10.875 -0.0445 -0.1280 -0.3098
  137MOL0     N18411   7.822   1.084  10.799  0.2464 -0.6350 -0.3529
  137MOL0     C18412   6.755   1.155  10.373 -0.2908 -0.5244  0.2306
  137MOL0     C18413   6.621   1.148  10.328  0.4936 -0.8345  0.1914
  137MOL0     C18414   6.169   1.308  10.241  0.0431 -0.7535  0.2041
  137MOL0     C18415   6.150   1.189  10.177 -0.2913 -0.1773 -0.5006
  137MOL0     C18416   6.034   1.168  10.112 -0.8753  0.7438  0.4148
  137MOL0     C18417   5.945   1.272  10.088 -0.8164  0.7026  0.1705
  137MOL0     O18418   5.831   1.236  10.016 -0.0543  0.3112 -0.4021
  137MOL0     C18419   5.759   1.332   9.945  0.6853  0.1004  0.1624
  137MOL0     C18420   5.691   1.283   9.817  0.0028 -0.1010 -0.3739
  137MOL0     C18421   5.604   1.380   9.733 -0.2382 -1.0506 -0.0292
  137MOL0     C18422   5.683   1.515   9.721 -0.1302  0.0989 -0.1141
  137MOL0     C18423   5.619   1.595   9.618 -0.0850 -0.0834  0.1883
  137MOL0     C18424   5.578   1.660   9.525  0.0384 -0.1375  1.0044
  137MOL0     C18425   5.961   1.395  10.155 -0.3399 -0.0901  0.0712
  137MOL0     C18426   6.071   1.413  10.230 -0.9348 -0.0185 -0.1743
  137MOL0     C18427   6.082   1.545  10.305 -0.0520  0.5722  0.6279
  137MOL0     H18428   6.545   1.480  10.308 -0.4447  0.6447  4.0475
  137MOL0     H18429   6.769   1.497  10.391  0.1075 -0.5959  3.9353
  137MOL0     H18430   7.023   1.453  10.404  1.6580 -0.0061 -0.5306
  137MOL0     H18431   6.970   1.441  10.574  1.4164 -2.0219  1.6259
  137MOL0     H18432   7.211   1.456  10.567  0.4790 -0.3817 -2.0677
  137MOL0     H18433   7.210   1.323  10.449  0.9305  3.5494  0.1377
  137MOL0     H18434   7.115   1.170  10.601 -0.1316 -1.2933  1.7583
  137MOL0     H18435   7.104   1.297  10.734  2.1105  2.0359  0.4871
  137MOL0     H18436   7.366   1.247  10.606  1.6355 -0.5071  1.0543
  137MOL0     H18437   7.331   1.331  10.759 -2.5965  0.8232  0.8673
  137MOL0     H18438   7.252   1.101  10.845  0.1443  2.0005  0.2297
  137MOL0     H18439   7.294   1.034  10.684 -2.0965 -0.7188  1.3253
  137MOL0     H18440   7.529   1.106  10.705  0.4803  0.5316  0.6664
  137MOL0     H18441   7.497   1.179  10.857  0.2795 -0.5048  0.4868
  137MOL0     H18442   7.448   0.871  10.787  0.8241 -1.9280  0.9507
  137MOL0     H18443   7.462   0.922  10.948 -1.1540 -0.9662 -0.9155
  137MOL0     H18444   7.671   0.816  10.848 -3.4373 -0.5843 -2.7335
  137MOL0     H18445   7.653   0.933  10.713 -0.9297  0.8539 -0.7165
  137MOL0     H18446   7.693   1.025  11.088 -0.6537  0.7140 -0.6820
  137MOL0     H18447   7.828   1.227  11.216 -1.2608 -1.0687 -1.6825
  137MOL0     H18448   7.977   1.266  11.126  1.0055 -0.6984 -2.4269
  137MOL0     H18449   7.870   1.443  11.025  0.4806 -1.7443  0.4229
  137MOL0     H18450   7.719   1.429  11.107 -0.2270 -0.9702  2.8272
  137MOL0     H18451   7.827   1.459  11.336  0.0151 -0.7834 -1.7094
  137MOL0     H18452   7.803   1.593  11.243  1.5083  0.2251  4.2029
  137MOL0     H18453   8.070   1.456  11.210 -0.4877  0.5243 -4.1342
  137MOL0     H18454   8.043   1.587  11.323 -1.8859 -0.2546  0.6729
  137MOL0     H18455   8.224   1.675  11.289 -2.3644 -0.0721 -0.3313
  137MOL0     H18456   8.410   1.811  11.253 -0.3633 -0.4054  0.5175
  137MOL0     H18457   8.707   2.135  11.012 -1.6174  2.0683  0.1542
  137MOL0     H18458   8.898   2.210  10.901  0.1951  1.8487 -1.0708
  137MOL0     H18459   8.934   2.397  10.680 -1.2780 -0.8754 -2.0453
  137MOL0     H18460   9.073   2.309  10.762 -1.5116  1.9148  0.5498
  137MOL0     H18461   9.050   2.373  10.471  2.7195  1.7037 -0.9604
  137MOL0     H18462   9.144   2.465  10.578  0.2376  0.0368  1.1296
  137MOL0     H18463   9.309   2.293  10.612  0.7465 -2.2526 -0.9280
  137MOL0     H18464   9.205   2.169  10.601  2.7646  0.7705  1.9420
  137MOL0     H18465   9.291   2.330  10.359 -1.1587  0.6040  0.6981
  137MOL0     H18466   9.185   2.203  10.343 -0.2505  1.8979  0.1529
  137MOL0     H18467   9.343   2.034  10.396 -1.4929  0.2371  2.1272
  137MOL0     H18468   9.451   2.155  10.478 -0.6050  3.5458 -0.1663
  137MOL0     H18469   9.374   2.137  10.182  2.1390  1.2712 -2.0863
  137MOL0     H18470   9.480   2.261  10.256 -0.6940 -0.1748  0.9594
  137MOL0     H18471   9.531   1.958  10.265  1.8492  0.6893  2.6894
  137MOL0     H18472   9.629   2.068  10.340 -0.7388  0.2648 -0.1128
  137MOL0     H18473   9.565   2.093  10.044 -5.6818  2.4491  4.4081
  137MOL0     H18474   9.684   2.190  10.123  0.0735 -0.5276 -1.4152
  137MOL0     H18475   8.736   2.067  10.522 -0.5232 -3.4320  1.0598
  137MOL0     H18476   8.543   2.001  10.639 -0.5031  0.7856  1.3783
  137MOL0     H18477   8.275   1.894  10.850  0.0861  0.5459  0.1585
  137MOL0     H18478   8.076   1.760  10.900  0.5371  0.0367 -0.6846
  137MOL0     H18479   6.809   1.061  10.386 -0.3303 -0.7261 -0.9748
  137MOL0     H18480   6.589   1.047  10.306  2.0953 -1.3615  0.1144
  137MOL0     H18481   6.217   1.109  10.207  0.3451  0.1437 -1.0689
  137MOL0     H18482   6.012   1.071  10.068 -0.1208  0.5735  0.4066
  137MOL0     H18483   5.821   1.421   9.936 -0.1398  0.6543 -0.2032
  137MOL0     H18484   5.685   1.376  10.013  1.6145  1.9565  0.0182
  137MOL0     H18485   5.634   1.193   9.845 -0.1297  0.9311  3.2352
  137MOL0     H18486   5.777   1.251   9.758  0.5913  0.4938  0.1500
  137MOL0     H18487   5.504   1.402   9.772 -0.2942 -4.4494  2.1948
  137MOL0     H18488   5.582   1.329   9.639 -0.7158  0.9553 -1.0499
  137MOL0     H18489   5.668   1.569   9.815  1.4965  0.3270  0.0544
  137MOL0     H18490   5.789   1.498   9.701 -0.2613  1.0728 -1.8573
  137MOL0     H18491   5.556   1.696   9.426 -2.0624  0.6722  1.7206
  137MOL0     H18492   5.879   1.465  10.164  0.3981  0.7674  0.2712
  137MOL0     H18493   6.179   1.590  10.284  0.9070 -0.1150  3.1494
  137MOL0     H18494   6.000   1.612  10.278 -0.3986 -0.2031 -0.3159
  137MOL0     H18495   6.088   1.533  10.414 -1.5831  1.2103  0.8172
  138MOL0     O18496   7.963   2.032   5.341 -0.4433  0.3439  0.2090
  138MOL0     C18497   7.950   2.103   5.437  0.7282  0.4511 -0.7249
  138MOL0     O18498   8.050   2.185   5.489 -0.4579 -0.0367  0.1584
  138MOL0     C18499   8.171   2.166   5.440  0.3155  0.5502  0.3605
  138MOL0     C18500   8.253   2.079   5.515  0.2229 -0.8156 -1.0586
  138MOL0     C18501   8.368   2.041   5.458 -0.4852  0.3670  0.2233
  138MOL0     C18502   8.423   2.115   5.346 -0.3250  0.7571 -1.7385
  138MOL0     O18503   8.547   2.073   5.300 -0.2872  0.7204  0.2343
  138MOL0     C18504   8.638   2.172   5.251  0.6346 -0.1180 -0.0495
  138MOL0     C18505   8.789   2.144   5.264  0.2818  0.0293 -0.1017
  138MOL0     C18506   8.815   2.045   5.387 -0.8749 -0.1905 -0.3649
  138MOL0     C18507   8.962   2.023   5.432 -0.1135 -0.3980  0.2162
  138MOL0     C18508   8.988   1.906   5.528 -0.4560  0.6324 -0.1054
  138MOL0     C18509   9.137   1.921   5.569 -0.2154  0.9737 -0.2869
  138MOL0     C18510   9.195   1.793   5.637 -0.2427 -0.9242 -0.7101
  138MOL0     C18511   9.311   1.831   5.731 -0.5906 -0.0577  0.2136
  138MOL0     N18512   9.437   1.794   5.667 -0.8342 -0.6767  0.5008
  138MOL0     C18513   9.504   1.682   5.685  0.2096 -0.1472 -0.5106
  138MOL0     C18514   9.623   1.697   5.622  0.5619  0.3640  0.4180
  138MOL0     C18515   9.726   1.587   5.632  0.1725 -0.1734  0.1116
  138MOL0     C18516   9.865   1.631   5.605 -0.3028  0.0393 -0.1168
  138MOL0     C18517   9.941   1.670   5.738  0.0689  0.5126 -1.3080
  138MOL0     C18518  10.087   1.714   5.718 -0.1376 -0.1038 -0.5089
  138MOL0     O18519  10.160   1.596   5.692 -0.4517  0.3392 -0.3163
  138MOL0     C18520  10.286   1.599   5.734 -0.9283 -0.6474  0.6105
  138MOL0     C18521  10.390   1.675   5.675  0.2982  0.1918 -0.4690
  138MOL0     C18522  10.520   1.680   5.710  0.2869 -0.3206  0.0549
  138MOL0     C18523  10.567   1.596   5.810  0.4786 -0.2345 -0.2662
  138MOL0     C18524  10.707   1.609   5.857 -0.2432  0.0111 -0.1247
  138MOL0     O18525  10.720   1.591   5.990  0.8389 -0.2711  0.1614
  138MOL0     C18526  10.843   1.587   6.052  0.2437 -0.1252  0.4491
  138MOL0     C18527  10.843   1.505   6.171  0.0495 -0.2831  0.3130
  138MOL0     C18528  10.956   1.511   6.249 -0.7181 -0.0853  0.5284
  138MOL0     C18529  11.070   1.581   6.207  0.0100 -0.0997 -1.0947
  138MOL0     O18530  11.179   1.595   6.295 -0.1387 -0.4163  0.8673
  138MOL0     C18531  11.221   1.498   6.386  0.7703 -0.2291 -0.1207
  138MOL0     C18532  11.356   1.534   6.458 -0.4719  0.1380  0.2671
  138MOL0     C18533  11.378   1.420   6.558 -0.2371 -0.4477 -0.1305
  138MOL0     C18534  11.506   1.461   6.637  0.6814  0.6588 -0.8120
  138MOL0     C18535  11.544   1.342   6.728  0.5167  0.4263 -0.2954
  138MOL0     C18536  11.450   1.325   6.851  0.4934 -0.1562 -0.3918
  138MOL0     C18537  11.460   1.451   6.942  0.3114  0.1545 -0.4303
  138MOL0     C18538  11.385   1.433   7.073  0.6528  0.2479  0.0077
  138MOL0    Cl18539  11.213   1.407   7.041  0.5770  0.3578  0.0803
  138MOL0     C18540  11.069   1.653   6.094  0.2659  1.0151  0.1612
  138MOL0     C18541  10.954   1.659   6.017  0.1410  0.9264  0.1156
  138MOL0     O18542  10.793   1.628   5.779 -0.3166  0.2456 -0.0694
  138MOL0     C18543  10.472   1.522   5.881  0.3152  0.5126  0.1355
  138MOL0     C18544  10.339   1.528   5.846  0.1832 -0.0419 -0.5171
  138MOL0     N18545   9.624   1.814   5.550  0.2322 -0.8557  0.8389
  138MOL0     N18546   9.509   1.869   5.574  0.1753  0.4220  0.0416
  138MOL0     C18547   8.350   2.218   5.282 -0.3550 -0.0646  0.1901
  138MOL0     C18548   8.215   2.229   5.323 -0.4530  0.9309  0.1976
  138MOL0     C18549   7.817   2.093   5.509 -0.4654 -0.2681  0.2589
  138MOL0     C18550   7.716   2.008   5.457  0.4970 -0.5686  0.3756
  138MOL0     C18551   7.596   1.986   5.530  0.1576  0.6362  0.3759
  138MOL0     C18552   7.572   2.052   5.656  0.2345 -0.0056  0.5519
  138MOL0     O18553   7.464   2.024   5.735  0.1057 -0.1122  0.0203
  138MOL0     C18554   7.410   1.889   5.750  0.5880  0.7392 -1.0522
  138MOL0     C18555   7.518   1.781   5.752 -0.2228 -0.4444  0.0522
  138MOL0     C18556   7.473   1.664   5.844  0.3756  0.5195 -1.3194
  138MOL0     C18557   7.366   1.585   5.779  0.3355  0.6890  0.6443
  138MOL0     C18558   7.295   1.489   5.865 -0.5045 -0.2288 -0.0789
  138MOL0     C18559   7.259   1.406   5.943  0.7270 -0.0417 -0.4898
  138MOL0     C18560   7.665   2.148   5.699  0.3276  0.5046  0.1938
  138MOL0     C18561   7.781   2.175   5.628 -1.0430  0.2325  0.4816
  138MOL0     C18562   7.872   2.281   5.689 -0.1330 -0.2305  0.3884
  138MOL0     H18563   8.219   2.038   5.610  3.4212 -1.9886 -0.3180
  138MOL0     H18564   8.428   1.957   5.492  1.4032  1.4921 -0.1912
  138MOL0     H18565   8.619   2.183   5.144 -0.3586  1.4626  0.2672
  138MOL0     H18566   8.628   2.271   5.295  2.4034 -0.2472  0.7262
  138MOL0     H18567   8.852   2.233   5.257  1.1893 -0.5490  0.4127
  138MOL0     H18568   8.816   2.092   5.171 -2.6822  1.4965 -1.9140
  138MOL0     H18569   8.783   1.943   5.361  0.8594 -0.7763 -0.3133
  138MOL0     H18570   8.767   2.087   5.475 -1.4898  0.9227 -1.2102
  138MOL0     H18571   9.030   2.012   5.347  1.4458 -1.4749  1.5380
  138MOL0     H18572   8.999   2.115   5.480  3.3856 -1.0215 -1.0032
  138MOL0     H18573   8.906   1.909   5.599 -1.3701  0.7405 -1.1441
  138MOL0     H18574   8.975   1.814   5.471  1.9525  1.0661 -1.5197
  138MOL0     H18575   9.190   1.953   5.478 -1.4030  2.5300 -0.4731
  138MOL0     H18576   9.145   2.007   5.636 -0.5445  0.2341  0.7156
  138MOL0     H18577   9.227   1.722   5.561 -0.6856  0.7639 -2.5653
  138MOL0     H18578   9.117   1.753   5.703 -0.8310 -0.6047 -1.1977
  138MOL0     H18579   9.310   1.938   5.756 -0.2709  0.0415 -0.1892
  138MOL0     H18580   9.309   1.769   5.822  0.4669 -1.9279 -0.9736
  138MOL0     H18581   9.478   1.603   5.755  1.0729  0.0210  0.0179
  138MOL0     H18582   9.724   1.534   5.728 -0.0836 -0.2396  0.0716
  138MOL0     H18583   9.695   1.513   5.558 -1.0577 -0.2818  0.6991
  138MOL0     H18584   9.920   1.545   5.565 -2.4715 -0.2722 -2.7361
  138MOL0     H18585   9.879   1.711   5.533 -0.4283  0.2983  0.1464
  138MOL0     H18586   9.938   1.581   5.801 -3.5660 -0.0851 -2.0741
  138MOL0     H18587   9.881   1.747   5.788 -0.9853 -1.3341  0.4270
  138MOL0     H18588  10.116   1.760   5.813 -6.0903 -0.1420  1.7864
  138MOL0     H18589  10.093   1.799   5.649 -0.3981  2.6754  2.6048
  138MOL0     H18590  10.366   1.736   5.588  1.8518  1.2514 -0.2057
  138MOL0     H18591  10.593   1.748   5.668 -0.1874  2.6003  3.4789
  138MOL0     H18592  10.756   1.455   6.211  1.3834 -1.4581  1.8985
  138MOL0     H18593  10.950   1.454   6.341 -0.4596 -2.1314 -0.6382
  138MOL0     H18594  11.140   1.506   6.459 -0.0301  3.9008 -1.2304
  138MOL0     H18595  11.225   1.400   6.337 -2.3856  0.0739 -1.1732
  138MOL0     H18596  11.428   1.508   6.379 -0.0019  2.3015 -0.0901
  138MOL0     H18597  11.354   1.636   6.497 -0.3630 -0.3378  1.5447
  138MOL0     H18598  11.297   1.430   6.631  0.8154  1.3545  0.8549
  138MOL0     H18599  11.377   1.321   6.512  0.3667 -0.4009 -0.2480
  138MOL0     H18600  11.491   1.556   6.690 -1.6849  0.7953 -1.6001
  138MOL0     H18601  11.590   1.475   6.568  2.4969 -0.0818  1.1594
  138MOL0     H18602  11.643   1.361   6.772  0.8580  2.4198 -1.7615
  138MOL0     H18603  11.559   1.245   6.679 -1.7800  0.2757 -0.8089
  138MOL0     H18604  11.350   1.331   6.806 -0.9753 -0.9396  2.5166
  138MOL0     H18605  11.463   1.228   6.899  0.9015  1.0626  2.1479
  138MOL0     H18606  11.421   1.535   6.883 -2.1000 -1.4699 -1.3018
  138MOL0     H18607  11.567   1.468   6.958  0.4703 -1.2964  0.1985
  138MOL0     H18608  11.421   1.350   7.134  0.4491  0.6098  0.6343
  138MOL0     H18609  11.390   1.526   7.131 -1.8535  1.2052 -1.1580
  138MOL0     H18610  11.154   1.715   6.070  0.6412 -0.0803 -1.5560
  138MOL0     H18611  10.946   1.719   5.927  2.9205  1.7222  0.3088
  138MOL0     H18612  10.510   1.471   5.969 -5.1558  0.9481  3.1894
  138MOL0     H18613  10.267   1.481   5.912  0.6604  0.5180  0.4414
  138MOL0     H18614   8.386   2.278   5.200  1.2275 -0.2706  0.6894
  138MOL0     H18615   8.165   2.311   5.271  1.1874 -0.1863 -3.4875
  138MOL0     H18616   7.732   1.967   5.358  1.0072 -0.1513  0.2733
  138MOL0     H18617   7.520   1.917   5.494 -0.0472  0.2430  1.4909
  138MOL0     H18618   7.332   1.864   5.677 -1.1455 -2.3914  1.6265
  138MOL0     H18619   7.369   1.890   5.851 -2.0289  1.2646 -2.0232
  138MOL0     H18620   7.610   1.827   5.787  0.8860 -2.3391 -0.2002
  138MOL0     H18621   7.531   1.750   5.648  2.3492 -0.7621  0.4024
  138MOL0     H18622   7.439   1.707   5.938  1.5359  2.4676 -1.7385
  138MOL0     H18623   7.557   1.595   5.854 -1.6952 -1.8387  1.8034
  138MOL0     H18624   7.296   1.655   5.732  0.0399  1.7249  2.5169
  138MOL0     H18625   7.410   1.518   5.705 -1.4951 -0.6073  0.6860
  138MOL0     H18626   7.238   1.344   6.028 -1.6218  0.1538 -0.8431
  138MOL0     H18627   7.645   2.187   5.798  0.9904  0.7784  0.2264
  138MOL0     H18628   7.964   2.238   5.730 -0.3737 -1.0583  0.0726
  138MOL0     H18629   7.889   2.355   5.610 -0.6403 -0.7798 -0.2544
  138MOL0     H18630   7.828   2.321   5.780  2.4309  0.0583  1.5884
  139MOL0     O18631   9.979   9.275   9.885 -0.4694  0.5317  0.6864
  139MOL0     C18632   9.986   9.305   9.771  0.6409 -0.4709 -0.1456
  139MOL0     O18633  10.104   9.306   9.703  0.9116 -0.5443 -0.2676
  139MOL0     C18634  10.218   9.332   9.768 -0.8935 -0.2133 -0.4657
  139MOL0     C18635  10.331   9.287   9.695  0.3864  0.2992 -0.1972
  139MOL0     C18636  10.456   9.296   9.745 -0.1334  0.3005 -0.4840
  139MOL0     C18637  10.475   9.379   9.853 -0.2371  1.2268 -1.2080
  139MOL0     O18638  10.603   9.405   9.888 -0.4278 -0.3621 -0.1477
  139MOL0     C18639  10.684   9.294   9.942  0.3177  0.1295  0.2498
  139MOL0     C18640  10.826   9.341   9.964  0.8832 -0.3545  0.1200
  139MOL0     C18641  10.879   9.356   9.819  0.5037 -0.0367  0.4537
  139MOL0     C18642  11.017   9.420   9.839  0.0179  0.6532 -1.1499
  139MOL0     C18643  11.107   9.404   9.714 -0.0858  0.0868 -0.0415
  139MOL0     C18644  11.249   9.450   9.726 -0.0702  0.0356  0.3743
  139MOL0     C18645  11.279   9.597   9.725 -0.5683 -0.4417 -0.6614
  139MOL0     C18646  11.384   9.639   9.621 -0.7025  1.1584  0.5196
  139MOL0     N18647  11.445   9.777   9.645  0.6566 -0.2636 -0.1470
  139MOL0     C18648  11.493   9.862   9.540 -0.3082 -0.4111 -0.8185
  139MOL0     C18649  11.536   9.976   9.604 -0.0467 -0.3450 -0.0988
  139MOL0     C18650  11.600  10.103   9.552 -0.1565  0.7595  0.7701
  139MOL0     C18651  11.707  10.076   9.454 -0.0444  0.3230  0.2282
  139MOL0     C18652  11.823  10.177   9.457  0.4649 -1.2528 -0.2616
  139MOL0     C18653  11.947  10.138   9.375  0.7714  0.6255  0.1912
  139MOL0     O18654  12.051  10.241   9.394 -0.6796  0.6267  0.1213
  139MOL0     C18655  12.185  10.211   9.391  0.1608 -0.1434  0.1531
  139MOL0     C18656  12.282  10.313   9.411 -1.3806  0.3602 -0.9156
  139MOL0     C18657  12.420  10.279   9.421  0.4384  0.1331  0.5365
  139MOL0     C18658  12.464  10.148   9.388  0.2655  0.8563  0.3805
  139MOL0     C18659  12.609  10.113   9.379  0.3605 -0.6624 -0.6759
  139MOL0     O18660  12.699  10.201   9.428  0.3647 -0.4337 -0.2076
  139MOL0     C18661  12.834  10.169   9.439 -0.5471 -0.5455 -0.2898
  139MOL0     C18662  12.925  10.228   9.346 -0.0295  0.2482 -0.0741
  139MOL0     C18663  13.066  10.227   9.357  0.2810 -0.0300 -0.6411
  139MOL0     C18664  13.124  10.144   9.453 -0.3030  0.9018  0.9193
  139MOL0     O18665  13.264  10.127   9.461  0.2804  0.3051  0.1753
  139MOL0     C18666  13.348  10.196   9.360  0.0732  0.0641 -0.2830
  139MOL0     C18667  13.347  10.134   9.225 -1.0229 -0.4598  0.1235
  139MOL0     C18668  13.397  10.238   9.117  1.0735  0.4902 -0.3866
  139MOL0     C18669  13.545  10.267   9.135  0.0612 -0.7656  0.1778
  139MOL0     C18670  13.592  10.343   9.010 -0.7375 -0.5586  0.0800
  139MOL0     C18671  13.741  10.388   9.008 -0.5986  0.2857 -0.7800
  139MOL0     C18672  13.798  10.473   8.887 -0.4962 -0.5525 -0.0796
  139MOL0     C18673  13.749  10.625   8.908 -0.4748  0.2034  0.1830
  139MOL0    Cl18674  13.710  10.712   8.751  0.0341  0.2889  0.0254
  139MOL0     C18675  13.039  10.071   9.540 -0.2769 -0.1359 -0.4789
  139MOL0     C18676  12.897  10.087   9.534  0.2528 -1.6538  0.4071
  139MOL0     O18677  12.634  10.000   9.327 -0.3712  0.2078  0.4702
  139MOL0     C18678  12.364  10.049   9.364  0.7278  0.4864 -0.5899
  139MOL0     C18679  12.230  10.080   9.362  0.0407 -1.0064 -0.9714
  139MOL0     N18680  11.496   9.962   9.736 -0.3081  0.4768  0.0182
  139MOL0     N18681  11.450   9.844   9.761  0.2068 -0.5182  0.3004
  139MOL0     C18682  10.370   9.422   9.931 -0.3393 -0.4480 -0.1997
  139MOL0     C18683  10.242   9.394   9.895  0.7069 -0.0556  0.9135
  139MOL0     C18684   9.859   9.324   9.693 -0.6735 -0.3252  0.3782
  139MOL0     C18685   9.865   9.400   9.572 -0.3865  0.1882 -0.0474
  139MOL0     C18686   9.755   9.422   9.497  0.0575  0.5375 -0.3339
  139MOL0     C18687   9.635   9.350   9.528 -0.1094 -0.9301 -0.1220
  139MOL0     O18688   9.524   9.371   9.450  0.0671 -0.3089  0.6587
  139MOL0     C18689   9.453   9.262   9.392  0.2543  0.4432  0.5269
  139MOL0     C18690   9.303   9.265   9.387  0.1864 -0.6853 -0.6774
  139MOL0     C18691   9.245   9.254   9.537  0.7238  0.2493  0.2088
  139MOL0     C18692   9.096   9.205   9.535  1.1666 -0.0337  0.3351
  139MOL0     C18693   9.043   9.242   9.662  0.8929  0.1250  0.0580
  139MOL0     C18694   9.009   9.268   9.775 -0.1124 -0.4203  0.3185
  139MOL0     C18695   9.626   9.285   9.649  0.6257  0.1735  0.4087
  139MOL0     C18696   9.736   9.275   9.739  0.1708  0.3193  0.1715
  139MOL0     C18697   9.704   9.207   9.873  0.2818 -0.1854  0.7616
  139MOL0     H18698  10.317   9.240   9.598 -0.2566 -2.4930  1.1477
  139MOL0     H18699  10.539   9.259   9.685  1.7280  0.3782  1.8747
  139MOL0     H18700  10.630   9.260  10.031 -0.0600  0.4693  0.1601
  139MOL0     H18701  10.694   9.204   9.881 -0.9508  0.3578 -0.3392
  139MOL0     H18702  10.880   9.276  10.033 -1.2870  1.5740  3.9515
  139MOL0     H18703  10.823   9.436  10.019 -1.0417 -1.7061  2.5461
  139MOL0     H18704  10.814   9.424   9.763  1.4986  1.3823  0.9559
  139MOL0     H18705  10.876   9.258   9.770  0.3702 -0.6662  1.6778
  139MOL0     H18706  11.022   9.528   9.856 -1.1890  0.7501 -1.3539
  139MOL0     H18707  11.070   9.369   9.921  0.0088 -0.1966 -1.6638
  139MOL0     H18708  11.100   9.296   9.702 -0.9319  0.3186 -2.2296
  139MOL0     H18709  11.069   9.468   9.633  2.2122 -0.4536 -1.6406
  139MOL0     H18710  11.289   9.391   9.810 -2.2659 -2.4495 -0.1774
  139MOL0     H18711  11.306   9.412   9.641  2.2100  0.8410  1.4679
  139MOL0     H18712  11.328   9.626   9.818 -2.5305  2.1821 -0.3421
  139MOL0     H18713  11.191   9.660   9.709 -0.7919 -0.5304  0.1659
  139MOL0     H18714  11.469   9.571   9.628  0.5614  2.7713  1.8553
  139MOL0     H18715  11.336   9.632   9.523 -1.0811 -4.0978  0.8170
  139MOL0     H18716  11.516   9.837   9.437  0.1921  0.5229 -0.9410
  139MOL0     H18717  11.516  10.146   9.496  0.1602  0.7076  0.2448
  139MOL0     H18718  11.639  10.160   9.636 -0.2194  2.2125 -0.1617
  139MOL0     H18719  11.760   9.982   9.472 -1.2847  0.2028  4.1304
  139MOL0     H18720  11.657  10.067   9.357 -0.5998  0.8801  0.4533
  139MOL0     H18721  11.840  10.179   9.565 -0.5695  2.7116 -0.0152
  139MOL0     H18722  11.791  10.278   9.427 -1.4364 -0.8630  2.6838
  139MOL0     H18723  11.923  10.122   9.270 -4.1589  2.1971  0.7871
  139MOL0     H18724  11.972  10.042   9.420 -3.9477  1.0214  4.7453
  139MOL0     H18725  12.252  10.415   9.432 -2.4722  0.0335 -0.8255
  139MOL0     H18726  12.497  10.354   9.436 -0.7834  2.0944 -2.2665
  139MOL0     H18727  12.882  10.291   9.268  0.1438  1.3140  0.6708
  139MOL0     H18728  13.120  10.289   9.286  0.7339  1.4938  0.9665
  139MOL0     H18729  13.316  10.301   9.362 -1.8720 -0.4826 -0.9390
  139MOL0     H18730  13.447  10.208   9.406  0.8192  1.8403 -2.2091
  139MOL0     H18731  13.410  10.045   9.227  0.5510  0.3986 -3.2037
  139MOL0     H18732  13.246  10.099   9.201 -0.5504 -1.4281 -0.4853
  139MOL0     H18733  13.387  10.204   9.013  2.9556  2.9786 -1.5074
  139MOL0     H18734  13.340  10.331   9.124  0.6058  0.1496  0.4088
  139MOL0     H18735  13.601  10.178   9.164  0.4618 -0.4273  0.4510
  139MOL0     H18736  13.548  10.330   9.225 -1.2361 -0.3491 -0.0434
  139MOL0     H18737  13.530  10.431   8.992 -0.4547 -0.6615 -1.6119
  139MOL0     H18738  13.582  10.275   8.925  1.0645 -2.6486  1.4310
  139MOL0     H18739  13.767  10.439   9.101 -1.0515  1.9495 -1.5147
  139MOL0     H18740  13.791  10.291   9.014 -0.7435  0.3042  2.5255
  139MOL0     H18741  13.770  10.427   8.792 -1.0820 -0.8981  0.2480
  139MOL0     H18742  13.907  10.476   8.888 -0.4775  0.6894  2.0703
  139MOL0     H18743  13.673  10.643   8.985 -1.1035 -0.6547 -0.2120
  139MOL0     H18744  13.837  10.673   8.951  0.7145 -2.0172  0.3994
  139MOL0     H18745  13.077   9.992   9.604  2.8408  1.8376  0.3117
  139MOL0     H18746  12.829  10.031   9.598 -1.5105  1.4205  1.4209
  139MOL0     H18747  12.381   9.942   9.353 -0.6555  0.3219 -1.3202
  139MOL0     H18748  12.164   9.997   9.336 -2.6384 -0.4921  3.2734
  139MOL0     H18749  10.396   9.483  10.017  0.4107 -0.3338 -0.5032
  139MOL0     H18750  10.153   9.405   9.956  1.2481  1.0091  1.5543
  139MOL0     H18751   9.955   9.454   9.542  0.2774 -0.0490  1.4431
  139MOL0     H18752   9.745   9.489   9.413 -0.5688  2.2707  1.0539
  139MOL0     H18753   9.488   9.165   9.428  0.4223 -1.9382 -5.0110
  139MOL0     H18754   9.480   9.262   9.286  0.1535 -0.1941  0.4944
  139MOL0     H18755   9.265   9.185   9.322 -0.0670 -0.5629 -0.6828
  139MOL0     H18756   9.269   9.356   9.336  0.9453  1.0932  1.7860
  139MOL0     H18757   9.247   9.347   9.593  0.9169 -0.2207  1.0029
  139MOL0     H18758   9.303   9.180   9.593  1.4342  0.9633  0.4297
  139MOL0     H18759   9.038   9.257   9.459  1.5099  2.1636  1.5051
  139MOL0     H18760   9.089   9.097   9.516  0.7656 -0.2033  1.3880
  139MOL0     H18761   8.995   9.294   9.878  0.2190  1.4634 -0.0816
  139MOL0     H18762   9.524   9.252   9.668 -0.2603  1.8936 -0.9927
  139MOL0     H18763   9.713   9.282   9.952  0.5004  1.3909 -0.7083
  139MOL0     H18764   9.606   9.160   9.864  0.2737  0.0723 -0.7198
  139MOL0     H18765   9.770   9.121   9.886  1.4237  0.6087  0.3213
  140MOL0     O18766   1.711   4.413  11.020  0.4336 -0.2977 -0.5782
  140MOL0     C18767   1.694   4.435  11.135 -0.2197 -0.0306 -0.0161
  140MOL0     O18768   1.770   4.393  11.236  0.1686  0.2899  0.3116
  140MOL0     C18769   1.881   4.321  11.196 -0.2040  0.7526  0.1456
  140MOL0     C18770   1.893   4.182  11.184  0.7926  0.3402  0.0049
  140MOL0     C18771   1.995   4.124  11.111 -0.1880 -0.0424 -0.2488
  140MOL0     C18772   2.116   4.197  11.077  1.0242  0.6569 -0.3199
  140MOL0     O18773   2.221   4.125  11.033 -0.4775  0.4738  0.1587
  140MOL0     C18774   2.352   4.177  11.036  0.3001 -0.7644 -0.3089
  140MOL0     C18775   2.459   4.109  11.109  0.3080  0.5666 -0.3430
  140MOL0     C18776   2.599   4.130  11.040 -1.1123 -0.9403 -0.2105
  140MOL0     C18777   2.638   4.282  11.032 -0.5639 -0.0283 -1.1275
  140MOL0     C18778   2.775   4.295  10.970 -0.6663 -0.0049  1.1274
  140MOL0     C18779   2.785   4.267  10.822 -0.4040  1.0116 -0.1612
  140MOL0     C18780   2.919   4.287  10.759 -0.1999 -0.3105  0.0445
  140MOL0     C18781   2.924   4.436  10.708 -0.4543  0.6632  0.2535
  140MOL0     N18782   3.066   4.480  10.701  0.7691 -0.6868  0.2281
  140MOL0     C18783   3.110   4.514  10.577 -0.3352 -0.0234  0.5049
  140MOL0     C18784   3.239   4.528  10.594  0.5862  0.0033  0.5878
  140MOL0     C18785   3.310   4.582  10.472  0.1462  0.4462  0.0439
  140MOL0     C18786   3.465   4.595  10.491 -0.6711  0.0093 -0.0704
  140MOL0     C18787   3.506   4.720  10.579  0.5911  0.9358 -0.4554
  140MOL0     C18788   3.525   4.848  10.503  0.1890  0.4468 -0.4651
  140MOL0     O18789   3.642   4.823  10.429  0.7396 -0.0999  0.3621
  140MOL0     C18790   3.756   4.883  10.453  0.4738 -0.7021  0.3052
  140MOL0     C18791   3.780   5.002  10.512  0.6364 -0.0632  0.2385
  140MOL0     C18792   3.910   5.045  10.538  0.0301  0.3257  0.6998
  140MOL0     C18793   4.019   4.965  10.488  0.5606  0.3832 -0.2850
  140MOL0     C18794   4.156   5.001  10.506  0.1191 -1.1394 -0.6159
  140MOL0     O18795   4.253   4.915  10.470  0.5392  0.7522 -0.4210
  140MOL0     C18796   4.388   4.951  10.468 -0.0290  0.1981  0.5460
  140MOL0     C18797   4.465   4.856  10.539 -1.0744 -0.0227  1.2149
  140MOL0     C18798   4.591   4.881  10.574 -0.6852 -0.5209  0.1599
  140MOL0     C18799   4.655   5.002  10.536  0.5114 -0.8906  0.0936
  140MOL0     O18800   4.783   5.044  10.555  0.4646  0.3096  0.4366
  140MOL0     C18801   4.863   4.989  10.659  0.0518  0.0333  1.3423
  140MOL0     C18802   4.985   5.085  10.665 -0.4393  0.4070  0.1300
  140MOL0     C18803   5.080   5.039  10.771 -0.0099  0.0221  0.7108
  140MOL0     C18804   5.185   5.142  10.816  0.9408  0.5581  0.3017
  140MOL0     C18805   5.263   5.088  10.947  0.4773  0.0384  0.7460
  140MOL0     C18806   5.362   4.975  10.915 -0.0104  0.8145  0.9844
  140MOL0     C18807   5.475   5.022  10.827  0.5101  0.0569 -0.0289
  140MOL0     C18808   5.589   4.924  10.827  1.1487  0.0217 -0.5091
  140MOL0    Cl18809   5.747   4.977  10.760 -0.6351  0.2112 -0.2280
  140MOL0     C18810   4.579   5.097  10.463  0.4184  0.2558 -0.1487
  140MOL0     C18811   4.445   5.066  10.422  0.2604  0.2353  0.9257
  140MOL0     O18812   4.179   5.105  10.577 -0.1429  0.0474 -0.3164
  140MOL0     C18813   3.986   4.846  10.422 -0.7135  0.9586 -0.5429
  140MOL0     C18814   3.860   4.799  10.406 -0.7416  0.4135  0.0288
  140MOL0     N18815   3.272   4.507  10.730  0.1984  0.9096  0.7488
  140MOL0     N18816   3.164   4.482  10.795 -0.0391  0.0775  1.0030
  140MOL0     C18817   2.109   4.334  11.091  0.6613  0.1439 -0.4337
  140MOL0     C18818   1.988   4.394  11.140 -0.1049  0.4448 -0.2316
  140MOL0     C18819   1.588   4.540  11.161  0.1281 -0.3833 -0.5637
  140MOL0     C18820   1.515   4.582  11.056 -1.2489 -0.6906  0.2210
  140MOL0     C18821   1.406   4.670  11.071 -0.8199 -0.2303  0.2277
  140MOL0     C18822   1.381   4.727  11.189  0.3943 -0.0104  0.1067
  140MOL0     O18823   1.287   4.828  11.191 -0.6338  0.1886 -0.2105
  140MOL0     C18824   1.253   4.895  11.314  0.3992 -0.5942 -0.1280
  140MOL0     C18825   1.158   5.010  11.286  0.0712  0.2232 -0.5536
  140MOL0     C18826   1.018   4.963  11.236 -0.0699  0.4047  0.1539
  140MOL0     C18827   0.907   5.059  11.251  0.5644 -0.4217 -0.4390
  140MOL0     C18828   0.787   4.999  11.199 -0.0455  0.1707 -0.5422
  140MOL0     C18829   0.687   4.945  11.155  0.3024  0.1081  0.0495
  140MOL0     C18830   1.464   4.692  11.304  0.6579  0.0452  0.5109
  140MOL0     C18831   1.557   4.584  11.294  0.4919  0.1730  0.1488
  140MOL0     C18832   1.626   4.541  11.426 -0.4448  0.5172 -0.1201
  140MOL0     H18833   1.814   4.126  11.233 -0.8867  1.9380 -0.7670
  140MOL0     H18834   1.974   4.018  11.105 -1.8428  0.2917 -0.6221
  140MOL0     H18835   2.376   4.159  10.931  1.4733 -2.2367  0.1659
  140MOL0     H18836   2.346   4.281  11.070  2.9567 -0.8698  0.7060
  140MOL0     H18837   2.447   4.000  11.116 -1.8671  0.7407 -0.6507
  140MOL0     H18838   2.440   4.151  11.209 -4.4106  2.3156 -1.6784
  140MOL0     H18839   2.593   4.085  10.940 -1.4668 -3.6334  0.9470
  140MOL0     H18840   2.666   4.064  11.096 -1.1952 -1.4016 -0.6443
  140MOL0     H18841   2.561   4.330  10.970 -1.5841  1.2620  1.0151
  140MOL0     H18842   2.634   4.330  11.130  0.3580 -3.2722  0.6323
  140MOL0     H18843   2.812   4.396  10.989 -1.4012  1.3006 -3.2322
  140MOL0     H18844   2.823   4.220  11.033 -1.1485 -1.4236 -0.1331
  140MOL0     H18845   2.750   4.165  10.806 -3.1867  2.2395 -2.7467
  140MOL0     H18846   2.705   4.318  10.768 -1.2528  2.5067  2.3478
  140MOL0     H18847   2.934   4.208  10.686  1.0177 -0.5395  0.5265
  140MOL0     H18848   3.000   4.283  10.833 -0.7626  2.1280  0.8969
  140MOL0     H18849   2.877   4.453  10.611  3.4740  3.3367 -1.4455
  140MOL0     H18850   2.889   4.509  10.782  2.2436  3.0436 -0.6793
  140MOL0     H18851   3.053   4.525  10.485 -0.1615  2.1933  0.6056
  140MOL0     H18852   3.302   4.513  10.388  0.3529 -2.3836  2.1854
  140MOL0     H18853   3.271   4.680  10.444 -0.9099  1.0362  3.1892
  140MOL0     H18854   3.517   4.509  10.534  2.7504  1.1595 -1.5814
  140MOL0     H18855   3.508   4.609  10.392  0.2257 -2.8925 -0.1701
  140MOL0     H18856   3.601   4.694  10.627 -0.0913 -0.3707  0.2506
  140MOL0     H18857   3.432   4.731  10.660  1.5630  1.2902  0.4030
  140MOL0     H18858   3.519   4.943  10.556  2.9415  0.8268 -0.7108
  140MOL0     H18859   3.441   4.861  10.434 -0.0383  1.8294  0.0294
  140MOL0     H18860   3.698   5.070  10.535 -0.2399 -0.1786 -2.2410
  140MOL0     H18861   3.918   5.145  10.579  1.0792 -0.6509  3.1282
  140MOL0     H18862   4.435   4.760  10.579  2.3482 -1.7900 -0.0901
  140MOL0     H18863   4.650   4.801  10.618 -0.3756 -0.8373 -0.8159
  140MOL0     H18864   4.812   4.980  10.756  0.7537  1.4193  1.8792
  140MOL0     H18865   4.898   4.890  10.628  1.2242  0.5984  0.7867
  140MOL0     H18866   5.036   5.082  10.568  1.1674 -4.6236  0.8124
  140MOL0     H18867   4.951   5.187  10.685  1.1944  0.6182  2.0609
  140MOL0     H18868   5.025   5.003  10.859  1.1465 -1.3149  0.9110
  140MOL0     H18869   5.131   4.953  10.727  2.2995  0.6746  1.9646
  140MOL0     H18870   5.139   5.239  10.832 -2.2865 -0.8724  0.4347
  140MOL0     H18871   5.251   5.155  10.729  3.2060 -0.3886  1.7859
  140MOL0     H18872   5.183   5.058  11.016 -0.6702 -0.1828 -0.6328
  140MOL0     H18873   5.321   5.166  10.997  1.7002 -1.6530  2.1184
  140MOL0     H18874   5.395   4.928  11.008  1.2822  0.3035  0.2928
  140MOL0     H18875   5.302   4.899  10.866  2.7925 -0.4666 -0.7324
  140MOL0     H18876   5.528   5.104  10.876  0.4328 -0.6561  1.2835
  140MOL0     H18877   5.435   5.048  10.728 -3.6473  3.2164  2.1965
  140MOL0     H18878   5.606   4.897  10.932 -0.9492 -0.3775 -0.2360
  140MOL0     H18879   5.560   4.838  10.766  0.4478 -1.1882  1.4345
  140MOL0     H18880   4.634   5.181  10.422  2.7918 -1.5581 -0.9184
  140MOL0     H18881   4.384   5.140  10.372 -1.9097 -1.3163  1.1096
  140MOL0     H18882   4.062   4.783  10.379 -0.8571  0.8922 -0.7032
  140MOL0     H18883   3.837   4.704  10.361 -2.6810  0.0686  1.5966
  140MOL0     H18884   2.180   4.408  11.056 -1.0872  1.4370 -1.3679
  140MOL0     H18885   1.991   4.500  11.163  1.2691 -0.0184  1.9355
  140MOL0     H18886   1.532   4.561  10.951 -1.4432  0.1726  0.0031
  140MOL0     H18887   1.339   4.693  10.988  1.0908  2.5823 -0.6709
  140MOL0     H18888   1.333   4.939  11.374  0.2277 -1.2961  0.6359
  140MOL0     H18889   1.207   4.822  11.380  0.1942 -0.1285  0.2441
  140MOL0     H18890   1.209   5.077  11.216  1.6812  0.0211  0.3790
  140MOL0     H18891   1.145   5.070  11.376  0.4994  0.6864 -0.8010
  140MOL0     H18892   0.995   4.873  11.295  0.9567  1.3820  2.1110
  140MOL0     H18893   1.030   4.931  11.132  2.7682 -1.4345  0.9378
  140MOL0     H18894   0.894   5.083  11.357 -1.5005 -3.4549  0.1430
  140MOL0     H18895   0.926   5.153  11.200 -0.7400 -1.3776 -2.8312
  140MOL0     H18896   0.605   4.895  11.108  1.3980 -0.2553 -1.5612
  140MOL0     H18897   1.449   4.732  11.404 -1.1913 -2.0549  1.1521
  140MOL0     H18898   1.576   4.566  11.520 -2.3446 -1.4230 -0.5228
  140MOL0     H18899   1.635   4.432  11.432 -0.1602  0.5482  0.0379
  140MOL0     H18900   1.728   4.577  11.439  0.8566 -2.8678  0.0918
  141MOL0     O18901  11.355  10.127   6.398  0.0007 -0.1124  0.0472
  141MOL0     C18902  11.297  10.232   6.403  0.8841  0.2399 -0.2599
  141MOL0     O18903  11.265  10.302   6.286  0.2299 -0.3329  0.1536
  141MOL0     C18904  11.289  10.237   6.169  0.8723  0.0263 -0.1219
  141MOL0     C18905  11.395  10.282   6.098 -0.6443 -0.6255 -0.8073
  141MOL0     C18906  11.428  10.227   5.972 -0.3745 -0.4628  0.3811
  141MOL0     C18907  11.359  10.120   5.921 -0.2673  0.4834  0.0329
  141MOL0     O18908  11.406  10.053   5.811 -0.7098  0.1249 -1.3309
  141MOL0     C18909  11.367   9.917   5.780  0.6541  0.3618  0.5862
  141MOL0     C18910  11.408   9.884   5.633  0.3219 -0.1077 -0.2545
  141MOL0     C18911  11.330   9.964   5.535 -0.3599  0.2986  0.1115
  141MOL0     C18912  11.368   9.949   5.383 -0.0808  0.4619  0.6697
  141MOL0     C18913  11.358   9.800   5.346 -0.3612  0.6006 -0.7398
  141MOL0     C18914  11.371   9.774   5.197 -0.7302 -0.4735 -0.1079
  141MOL0     C18915  11.394   9.616   5.170 -0.1089 -1.3787 -0.7982
  141MOL0     C18916  11.275   9.529   5.221 -0.3657 -0.1785 -0.4322
  141MOL0     N18917  11.301   9.481   5.362  1.4742 -0.2885  0.6528
  141MOL0     C18918  11.407   9.416   5.413 -0.2948 -0.0711  0.5053
  141MOL0     C18919  11.394   9.421   5.548 -0.4527  0.4123  0.4995
  141MOL0     C18920  11.481   9.376   5.665 -0.3739  0.2751 -0.0132
  141MOL0     C18921  11.623   9.436   5.641  0.0282  0.8472  0.0606
  141MOL0     C18922  11.703   9.426   5.776 -0.8386 -0.4192  0.7153
  141MOL0     C18923  11.818   9.533   5.766 -0.7098 -0.4417 -1.8337
  141MOL0     O18924  11.916   9.511   5.664  0.6300  0.3761 -0.0252
  141MOL0     C18925  12.018   9.599   5.657  0.2572  0.3874 -0.8601
  141MOL0     C18926  12.076   9.627   5.536  0.0398  0.1424 -0.5081
  141MOL0     C18927  12.179   9.727   5.520  0.6088  1.1233  0.3751
  141MOL0     C18928  12.237   9.781   5.633 -0.7961 -0.0053  0.0274
  141MOL0     C18929  12.346   9.882   5.612  0.1340  0.2124 -0.7852
  141MOL0     O18930  12.346   9.948   5.497  0.4616  0.3368 -0.4330
  141MOL0     C18931  12.452  10.034   5.462  0.1472 -0.1017 -0.6912
  141MOL0     C18932  12.513  10.129   5.542  0.6952  0.2864  0.0804
  141MOL0     C18933  12.618  10.207   5.494 -0.0068  0.1343  0.0592
  141MOL0     C18934  12.660  10.197   5.364 -0.7080 -0.1071  0.2797
  141MOL0     O18935  12.745  10.288   5.310 -0.0499  0.1895 -0.2572
  141MOL0     C18936  12.802  10.389   5.392  0.2252  0.0348 -0.2853
  141MOL0     C18937  12.876  10.478   5.295 -0.3658  0.3252 -0.3698
  141MOL0     C18938  12.972  10.575   5.352 -0.3328 -0.4083 -0.4690
  141MOL0     C18939  13.056  10.658   5.245  0.2681 -0.1591  0.2222
  141MOL0     C18940  13.171  10.728   5.321 -0.2797  0.0788 -0.6464
  141MOL0     C18941  13.259  10.798   5.221 -0.3790  0.1576  0.2195
  141MOL0     C18942  13.370  10.867   5.294 -0.7086 -0.2843  0.4373
  141MOL0     C18943  13.452  10.961   5.208 -0.0159  0.2553 -0.6228
  141MOL0    Cl18944  13.564  10.865   5.104  0.0224  0.0023 -0.4234
  141MOL0     C18945  12.601  10.099   5.278  0.3485  0.1019 -0.1036
  141MOL0     C18946  12.494  10.023   5.326 -0.6062 -1.1381 -0.0176
  141MOL0     O18947  12.432   9.892   5.697  0.5515 -0.2716 -0.5375
  141MOL0     C18948  12.190   9.739   5.760 -0.2802 -0.2895  0.6307
  141MOL0     C18949  12.084   9.649   5.772  0.3543  0.8373 -0.1419
  141MOL0     N18950  11.292   9.503   5.571  0.0581  0.3924 -0.1230
  141MOL0     N18951  11.225   9.534   5.464 -0.8327 -0.2292 -0.3048
  141MOL0     C18952  11.245  10.087   5.985 -0.0572 -0.8344  0.0514
  141MOL0     C18953  11.204  10.150   6.106  0.1223 -0.3622 -0.2568
  141MOL0     C18954  11.255  10.274   6.535 -0.2507 -0.1725 -0.1902
  141MOL0     C18955  11.337  10.227   6.642 -0.4675  0.0676  0.4107
  141MOL0     C18956  11.311  10.261   6.771  1.3456  0.3569 -0.5088
  141MOL0     C18957  11.214  10.353   6.810 -0.5599 -0.1073 -0.0148
  141MOL0     O18958  11.198  10.369   6.942  0.7197 -0.7352  0.2306
  141MOL0     C18959  11.129  10.488   6.980  0.1138 -0.5575 -0.6163
  141MOL0     C18960  11.118  10.484   7.136 -0.6554  0.1123  0.1231
  141MOL0     C18961  11.056  10.357   7.180  0.7075  0.2193 -0.6707
  141MOL0     C18962  11.044  10.352   7.342 -0.0106  0.4048  1.0759
  141MOL0     C18963  11.170  10.302   7.393 -0.7081 -0.0837 -0.9802
  141MOL0     C18964  11.267  10.269   7.455  0.1739 -0.2359 -1.0994
  141MOL0     C18965  11.131  10.400   6.703 -0.1695 -0.1719  1.2226
  141MOL0     C18966  11.155  10.370   6.566  0.3332 -0.5238  0.5069
  141MOL0     C18967  11.066  10.451   6.458  0.5329  0.4519  0.3384
  141MOL0     H18968  11.461  10.363   6.129 -0.4445 -1.2458  0.4584
  141MOL0     H18969  11.524  10.254   5.930 -1.0278  3.9606  1.2522
  141MOL0     H18970  11.414   9.850   5.853 -1.1832 -0.1720  1.3342
  141MOL0     H18971  11.258   9.904   5.776  0.8119 -2.7689  3.1253
  141MOL0     H18972  11.388   9.779   5.608  3.2654 -0.6203 -0.7808
  141MOL0     H18973  11.513   9.903   5.611  0.2626 -1.4637 -1.9285
  141MOL0     H18974  11.345  10.069   5.562  0.8150  0.2981 -0.4707
  141MOL0     H18975  11.224   9.938   5.544 -0.1900 -1.4008 -2.0746
  141MOL0     H18976  11.280   9.997   5.339  0.5342  2.0986  1.1655
  141MOL0     H18977  11.465   9.990   5.354  0.9347 -0.7605  2.1412
  141MOL0     H18978  11.443   9.754   5.399  1.4627  2.2373 -2.0974
  141MOL0     H18979  11.259   9.766   5.377  0.1300 -1.0444 -0.8397
  141MOL0     H18980  11.275   9.799   5.150  0.1774 -1.1815 -2.4629
  141MOL0     H18981  11.455   9.827   5.150  0.0971 -0.7333  1.0329
  141MOL0     H18982  11.483   9.578   5.220 -0.9435  0.9329  2.8169
  141MOL0     H18983  11.398   9.602   5.061 -2.4500  2.0841 -1.5124
  141MOL0     H18984  11.178   9.577   5.209  0.4883  1.5432 -0.8234
  141MOL0     H18985  11.270   9.433   5.169 -1.2624  0.5795 -1.7975
  141MOL0     H18986  11.489   9.363   5.367 -1.0190 -0.4030 -0.4144
  141MOL0     H18987  11.444   9.407   5.763  2.1322 -1.9585  1.7977
  141MOL0     H18988  11.492   9.269   5.683  1.5804  0.6224  1.1580
  141MOL0     H18989  11.675   9.380   5.563  1.3987 -1.6714  2.6067
  141MOL0     H18990  11.617   9.539   5.604 -1.5463  0.6431 -0.3345
  141MOL0     H18991  11.741   9.324   5.788  0.5499 -0.0536 -0.2999
  141MOL0     H18992  11.640   9.462   5.858 -1.5739 -1.1528  0.4839
  141MOL0     H18993  11.867   9.522   5.864 -1.7496  0.7678 -1.1538
  141MOL0     H18994  11.792   9.639   5.758  3.2900  0.7804 -0.9147
  141MOL0     H18995  12.028   9.591   5.446 -1.2013  0.7527 -0.1035
  141MOL0     H18996  12.219   9.745   5.421  0.6002  0.7351  0.3013
  141MOL0     H18997  12.475  10.128   5.643  1.3678  2.7191  0.4110
  141MOL0     H18998  12.652  10.287   5.560  1.4860 -1.6254  1.5528
  141MOL0     H18999  12.735  10.446   5.456 -0.3749  0.7181 -1.4795
  141MOL0     H19000  12.882  10.350   5.456  1.6084  1.1663 -1.2532
  141MOL0     H19001  12.926  10.418   5.218  0.9291  0.4961  0.3109
  141MOL0     H19002  12.799  10.538   5.247  0.2489  0.3592 -1.3463
  141MOL0     H19003  12.915  10.639   5.419  0.7443 -2.3349  2.4863
  141MOL0     H19004  13.042  10.521   5.416 -0.0813  0.4525 -0.0067
  141MOL0     H19005  12.985  10.727   5.197 -1.4189 -1.8494  0.1832
  141MOL0     H19006  13.090  10.586   5.170 -1.4844 -2.2209  1.3003
  141MOL0     H19007  13.233  10.663   5.384  0.6893  0.8302 -0.7985
  141MOL0     H19008  13.124  10.802   5.388  0.2540  0.0542 -0.2383
  141MOL0     H19009  13.298  10.729   5.145 -1.3704  0.8036 -0.9134
  141MOL0     H19010  13.201  10.873   5.166 -1.9299 -1.1946 -0.0581
  141MOL0     H19011  13.433  10.789   5.337 -2.0168 -2.0038 -0.6623
  141MOL0     H19012  13.331  10.924   5.379 -1.4035  0.0905 -0.1245
  141MOL0     H19013  13.378  11.019   5.153 -2.0033 -1.5295  0.0439
  141MOL0     H19014  13.514  11.020   5.276  0.2499  0.0784 -0.7101
  141MOL0     H19015  12.631  10.101   5.174  0.1327 -1.3166 -0.2073
  141MOL0     H19016  12.442   9.966   5.249 -0.0341  0.6679 -1.8406
  141MOL0     H19017  12.245   9.753   5.853 -0.7814  0.0735  0.8829
  141MOL0     H19018  12.059   9.617   5.873 -0.1699 -1.5074 -0.9363
  141MOL0     H19019  11.185  10.004   5.950 -4.8678  2.3309 -0.0945
  141MOL0     H19020  11.113  10.109   6.150  0.5628  0.1408  1.1807
  141MOL0     H19021  11.416  10.155   6.626 -3.1249 -2.8229 -0.7994
  141MOL0     H19022  11.368  10.225   6.856  1.6933  1.0243 -0.4489
  141MOL0     H19023  11.029  10.492   6.937 -0.7398  2.3306  1.4034
  141MOL0     H19024  11.182  10.579   6.953  3.2804 -2.3158 -0.8184
  141MOL0     H19025  11.055  10.558   7.186 -0.1695 -0.1105  1.0877
  141MOL0     H19026  11.220  10.490   7.176  0.8207 -4.5901 -2.1222
  141MOL0     H19027  11.113  10.274   7.139  1.7255 -0.1568  1.3994
  141MOL0     H19028  10.957  10.362   7.132  1.3595  2.6639 -1.9298
  141MOL0     H19029  11.024  10.452   7.380  1.5287  0.7237  1.1127
  141MOL0     H19030  10.959  10.293   7.379 -0.1884  0.0581  0.1378
  141MOL0     H19031  11.355  10.245   7.513  0.5629  2.4650 -0.4286
  141MOL0     H19032  11.037  10.453   6.714  0.1334  1.3705 -2.4368
  141MOL0     H19033  11.029  10.388   6.377  3.0975 -1.6918  0.6800
  141MOL0     H19034  10.988  10.512   6.504  0.8869  2.4621 -1.5855
  141MOL0     H19035  11.131  10.525   6.410  0.9093  0.5550  0.9861
  142MOL0     O19036   0.942   9.114  10.055  0.3748  0.0476 -1.0552
  142MOL0     C19037   0.910   9.001  10.021 -0.1032 -0.2503  0.2481
  142MOL0     O19038   0.914   8.956   9.888  0.0943  0.0850 -0.2719
  142MOL0     C19039   0.999   9.018   9.810  0.2711  0.1724  0.0700
  142MOL0     C19040   1.128   8.972   9.819  0.0223 -0.8902 -0.4381
  142MOL0     C19041   1.227   9.046   9.757 -0.9247 -0.2921  0.3336
  142MOL0     C19042   1.204   9.148   9.670  0.0404  0.0989 -0.1240
  142MOL0     O19043   1.316   9.204   9.615  0.8588 -0.4520  0.2249
  142MOL0     C19044   1.303   9.313   9.520 -0.1876  0.4243  0.6020
  142MOL0     C19045   1.430   9.319   9.433 -0.0203  0.4549 -0.0832
  142MOL0     C19046   1.550   9.326   9.528 -0.7089 -0.4852 -0.6472
  142MOL0     C19047   1.669   9.378   9.453 -0.2581 -0.4348 -0.3211
  142MOL0     C19048   1.734   9.267   9.371 -0.4878  0.3107 -0.4523
  142MOL0     C19049   1.820   9.302   9.245 -0.0113  0.3671  0.3789
  142MOL0     C19050   1.921   9.418   9.287 -0.2169  0.2465 -0.1135
  142MOL0     C19051   2.051   9.425   9.207  0.3749  0.0934 -0.0236
  142MOL0     N19052   2.027   9.403   9.070 -0.1686 -0.1374 -0.8328
  142MOL0     C19053   2.027   9.281   9.014  0.0488  0.1390  0.6946
  142MOL0     C19054   2.039   9.309   8.883  0.3751 -0.2039  0.9359
  142MOL0     C19055   2.061   9.213   8.776 -0.4714  0.2091  0.2759
  142MOL0     C19056   2.208   9.221   8.721  0.3883  0.8051 -0.4505
  142MOL0     C19057   2.211   9.117   8.607 -0.3538 -0.6641 -0.2146
  142MOL0     C19058   2.340   9.040   8.602 -0.3728 -0.2286  0.0349
  142MOL0     O19059   2.303   8.903   8.583 -0.4145 -0.1465 -0.2334
  142MOL0     C19060   2.388   8.812   8.543  0.0249  0.2565  0.2651
  142MOL0     C19061   2.342   8.693   8.500  0.4987 -0.2716 -0.0237
  142MOL0     C19062   2.423   8.600   8.427 -1.3659  0.1231  0.2806
  142MOL0     C19063   2.568   8.626   8.421  0.4986  0.6018  0.0336
  142MOL0     C19064   2.658   8.537   8.348  0.9683  1.2351  0.5985
  142MOL0     O19065   2.792   8.533   8.385 -0.1060  0.1674  1.0235
  142MOL0     C19066   2.882   8.448   8.309 -0.0449 -0.9417  0.2580
  142MOL0     C19067   2.856   8.336   8.228 -0.0019 -0.9516  0.2458
  142MOL0     C19068   2.959   8.283   8.145  1.0692  1.0760  0.1568
  142MOL0     C19069   3.084   8.340   8.143  0.1995  0.5301  0.1577
  142MOL0     O19070   3.190   8.298   8.069 -0.1496 -0.0825 -0.0292
  142MOL0     C19071   3.186   8.192   7.969  1.1984 -0.8742 -0.0951
  142MOL0     C19072   3.222   8.051   8.022 -0.7353 -0.0326  0.9800
  142MOL0     C19073   3.370   8.023   8.047 -0.7122  0.1079 -0.7234
  142MOL0     C19074   3.450   7.982   7.927  0.0663 -0.0374  0.3069
  142MOL0     C19075   3.601   8.016   7.945 -0.1957  0.0417  0.2034
  142MOL0     C19076   3.664   7.932   8.064 -0.3131  0.8007  0.8546
  142MOL0     C19077   3.817   7.944   8.063 -0.0697  0.8931 -0.0228
  142MOL0     C19078   3.883   7.870   8.169 -0.0965 -0.7916 -0.0944
  142MOL0    Cl19079   3.830   7.914   8.342  0.0023 -0.0918 -0.7171
  142MOL0     C19080   3.107   8.446   8.225  0.2468 -0.2167 -0.0003
  142MOL0     C19081   3.004   8.504   8.303  0.7256  0.4327 -0.1237
  142MOL0     O19082   2.602   8.473   8.255 -0.0756  0.0988  0.1865
  142MOL0     C19083   2.612   8.742   8.478 -0.1564 -0.2887 -0.7343
  142MOL0     C19084   2.525   8.837   8.534  0.0192 -0.1081  0.5130
  142MOL0     N19085   2.030   9.442   8.854 -0.0313  0.0844 -0.0664
  142MOL0     N19086   2.026   9.501   8.971 -0.2063  0.7532 -0.8814
  142MOL0     C19087   1.072   9.195   9.658 -0.3908 -0.4214  0.0415
  142MOL0     C19088   0.967   9.127   9.725  0.4027  0.1488  0.0766
  142MOL0     C19089   0.874   8.896  10.117  0.1263  0.9216  0.6224
  142MOL0     C19090   0.796   8.780  10.068  0.9553 -0.4382 -0.6334
  142MOL0     C19091   0.743   8.683  10.158 -0.5125 -0.2168 -0.2091
  142MOL0     C19092   0.750   8.696  10.299 -0.0454  1.5273 -0.6568
  142MOL0     O19093   0.694   8.620  10.393  0.7929  0.0409 -0.9660
  142MOL0     C19094   0.571   8.543  10.362 -0.0029  0.6292 -0.1630
  142MOL0     C19095   0.456   8.637  10.329 -0.1504  0.1494  0.0652
  142MOL0     C19096   0.407   8.728  10.438  0.1980 -0.3298 -0.4055
  142MOL0     C19097   0.371   8.653  10.567  0.4434 -0.4427  0.3475
  142MOL0     C19098   0.237   8.581  10.567 -0.3548 -1.0870  0.2664
  142MOL0     C19099   0.127   8.521  10.584 -0.6148  0.4062  0.2027
  142MOL0     C19100   0.818   8.812  10.345 -0.3954 -0.8221 -0.4155
  142MOL0     C19101   0.881   8.906  10.253 -0.2949 -0.4281  0.2546
  142MOL0     C19102   0.959   9.015  10.328  0.8122 -0.8573 -0.2211
  142MOL0     H19103   1.142   8.881   9.876 -2.4976 -1.0813  0.0047
  142MOL0     H19104   1.333   9.025   9.766 -0.3201  1.8954 -0.8858
  142MOL0     H19105   1.216   9.297   9.456 -0.3352  0.1732  0.8632
  142MOL0     H19106   1.278   9.411   9.563 -2.2924 -0.5061  1.6403
  142MOL0     H19107   1.436   9.397   9.357  2.4999 -0.4656 -0.9408
  142MOL0     H19108   1.429   9.219   9.389 -1.4916 -1.2629  3.4496
  142MOL0     H19109   1.565   9.230   9.579 -3.5502 -0.4518  0.4541
  142MOL0     H19110   1.526   9.402   9.604  0.9219 -0.5487 -0.0259
  142MOL0     H19111   1.647   9.462   9.387 -2.3103  0.1888  1.0637
  142MOL0     H19112   1.738   9.416   9.530 -1.4422 -0.6272  0.8717
  142MOL0     H19113   1.792   9.200   9.435 -1.6222  0.1141  0.4181
  142MOL0     H19114   1.650   9.206   9.334  0.6860 -3.1195  1.9642
  142MOL0     H19115   1.859   9.212   9.197 -0.8372  0.1951  0.0128
  142MOL0     H19116   1.757   9.344   9.165 -1.0370 -1.1447  0.3477
  142MOL0     H19117   1.939   9.404   9.394 -0.5262 -1.5966 -0.2695
  142MOL0     H19118   1.879   9.518   9.281  1.2087  0.8695 -0.2327
  142MOL0     H19119   2.098   9.523   9.219  0.3844 -0.2692  4.5207
  142MOL0     H19120   2.120   9.347   9.241 -0.1355  0.3497  1.6978
  142MOL0     H19121   2.025   9.188   9.070 -2.6146  0.5733  1.4788
  142MOL0     H19122   2.056   9.114   8.823 -0.9072  0.0378 -0.1278
  142MOL0     H19123   1.983   9.217   8.699 -0.8995 -1.3750  0.5861
  142MOL0     H19124   2.228   9.322   8.684 -0.4919  1.3352  0.4747
  142MOL0     H19125   2.284   9.193   8.795  2.9260  2.5917 -2.2121
  142MOL0     H19126   2.204   9.181   8.519 -1.0113 -0.0878  0.2403
  142MOL0     H19127   2.125   9.050   8.601 -1.7228  1.1233 -1.7532
  142MOL0     H19128   2.398   9.047   8.695  0.3349 -0.8691 -0.3509
  142MOL0     H19129   2.394   9.069   8.512 -2.8811 -3.4722 -2.8104
  142MOL0     H19130   2.236   8.670   8.503  1.2610 -4.5980  0.0651
  142MOL0     H19131   2.382   8.509   8.387 -1.8340  0.6918 -0.5420
  142MOL0     H19132   2.761   8.284   8.228  0.8653 -2.7000  2.5184
  142MOL0     H19133   2.930   8.199   8.083  3.3310  0.7713 -0.5774
  142MOL0     H19134   3.085   8.187   7.926  1.2120 -2.8194  0.0415
  142MOL0     H19135   3.256   8.216   7.888 -0.2891 -2.0810 -1.8208
  142MOL0     H19136   3.178   8.036   8.121 -1.4122 -2.3701  0.3956
  142MOL0     H19137   3.188   7.972   7.954 -0.8494  1.5535 -0.8634
  142MOL0     H19138   3.411   8.117   8.084  1.9289 -1.0288 -0.5170
  142MOL0     H19139   3.375   7.957   8.134  0.7539  0.8946 -0.1798
  142MOL0     H19140   3.423   8.046   7.843  1.4065 -2.8824 -2.5119
  142MOL0     H19141   3.437   7.875   7.905  2.7266 -0.3943  0.2014
  142MOL0     H19142   3.612   8.122   7.970  3.4429 -0.3755  0.8646
  142MOL0     H19143   3.666   8.007   7.858  1.4789  0.1233  1.3930
  142MOL0     H19144   3.622   7.955   8.162 -0.3450 -0.8521  1.2560
  142MOL0     H19145   3.638   7.827   8.053  0.4056  0.7072 -0.0847
  142MOL0     H19146   3.845   8.050   8.069 -0.2113  1.3396 -4.2546
  142MOL0     H19147   3.852   7.903   7.968 -1.8541  1.1930 -0.8546
  142MOL0     H19148   3.868   7.761   8.165  0.3702 -0.8551 -0.1748
  142MOL0     H19149   3.990   7.892   8.164  0.3908 -2.6246  1.1798
  142MOL0     H19150   3.206   8.490   8.232  2.0118 -2.3187 -5.8751
  142MOL0     H19151   3.025   8.596   8.358  0.6892  0.4259 -0.0982
  142MOL0     H19152   2.716   8.766   8.495 -0.8371  2.3118  0.4333
  142MOL0     H19153   2.572   8.922   8.582  0.9227  0.2014 -0.8407
  142MOL0     H19154   1.055   9.273   9.585 -2.0688 -1.9615 -1.3260
  142MOL0     H19155   0.865   9.162   9.710  1.0193  3.0076  1.9136
  142MOL0     H19156   0.774   8.763   9.963  0.6636  1.0237 -0.8193
  142MOL0     H19157   0.693   8.599  10.112 -3.7646  0.7797  1.1897
  142MOL0     H19158   0.567   8.473  10.447  5.9546 -1.7990 -1.3288
  142MOL0     H19159   0.590   8.482  10.274 -0.7678  0.6016 -0.3146
  142MOL0     H19160   0.371   8.581  10.288  0.4776  0.0511 -1.1504
  142MOL0     H19161   0.487   8.695  10.242 -3.3304 -1.9912 -2.8001
  142MOL0     H19162   0.314   8.771  10.401  0.1456 -0.6330 -0.6350
  142MOL0     H19163   0.479   8.808  10.456 -0.8072  0.4192  0.3824
  142MOL0     H19164   0.447   8.578  10.591  1.6402  0.6235 -0.0223
  142MOL0     H19165   0.365   8.720  10.653  1.7655  0.5382 -0.2990
  142MOL0     H19166   0.032   8.477  10.608 -0.7391 -0.1081 -1.1864
  142MOL0     H19167   0.829   8.831  10.452  2.6387 -1.4564 -0.5406
  142MOL0     H19168   1.052   9.037  10.275  0.0694  0.9651 -0.8370
  142MOL0     H19169   0.883   9.094  10.330 -1.9795 -3.3114  3.0122
  142MOL0     H19170   0.970   8.985  10.433 -1.9633 -0.3991  0.2892
  143MOL0     O19171  11.282   6.714   1.776 -0.0873  0.2750  0.0033
  143MOL0     C19172  11.237   6.787   1.861 -0.5832 -0.1220  0.0436
  143MOL0     O19173  11.127   6.867   1.840  0.8505  0.7340  0.4766
  143MOL0     C19174  11.061   6.851   1.719  0.0835  1.0180 -0.3144
  143MOL0     C19175  11.060   6.950   1.622  0.1388 -0.6691 -0.5239
  143MOL0     C19176  10.985   6.937   1.504 -0.2843  0.0430 -0.1802
  143MOL0     C19177  10.900   6.825   1.497 -0.2323  0.0920 -0.1201
  143MOL0     O19178  10.819   6.836   1.390 -0.2254 -0.2397 -0.6240
  143MOL0     C19179  10.753   6.715   1.364 -1.2681 -1.1553 -0.4215
  143MOL0     C19180  10.673   6.720   1.219  0.5790 -0.6358  0.1522
  143MOL0     C19181  10.577   6.832   1.205 -0.0937 -0.0287  1.1924
  143MOL0     C19182  10.495   6.824   1.072  0.1851 -0.1719  0.1838
  143MOL0     C19183  10.416   6.949   1.057  0.2434  0.4960 -0.1140
  143MOL0     C19184  10.357   6.950   0.906  0.0410  0.2890 -0.1700
  143MOL0     C19185  10.242   7.052   0.895  0.0424  0.4160  0.2034
  143MOL0     C19186  10.283   7.188   0.940 -0.5251 -0.1603  0.0476
  143MOL0     N19187  10.210   7.305   0.876 -0.9702 -0.2005  0.4258
  143MOL0     C19188  10.075   7.342   0.895 -1.0588 -0.1218  0.2920
  143MOL0     C19189  10.071   7.459   0.832 -0.0856 -0.0468  0.9204
  143MOL0     C19190   9.949   7.550   0.829 -0.8021  0.0457 -0.9241
  143MOL0     C19191   9.943   7.660   0.936  0.1493 -0.5831 -0.3226
  143MOL0     C19192   9.990   7.622   1.080  0.1589  0.1229 -0.7210
  143MOL0     C19193  10.143   7.607   1.095 -0.1488 -0.0847 -1.3070
  143MOL0     O19194  10.163   7.560   1.230  0.2478  0.0754 -0.2345
  143MOL0     C19195  10.280   7.495   1.251 -0.8391  0.9110 -0.1113
  143MOL0     C19196  10.290   7.359   1.257 -0.6927  0.3406 -0.0406
  143MOL0     C19197  10.418   7.299   1.267 -0.7622  0.1305  0.6897
  143MOL0     C19198  10.539   7.378   1.294 -0.2733  0.5054  0.4201
  143MOL0     C19199  10.675   7.325   1.290 -0.8616  0.1384 -0.2255
  143MOL0     O19200  10.782   7.411   1.321  0.4414 -0.3393  0.1151
  143MOL0     C19201  10.908   7.363   1.313  0.2556  0.7594 -0.4363
  143MOL0     C19202  10.963   7.293   1.426 -0.1504  0.4805 -1.2593
  143MOL0     C19203  11.101   7.271   1.431 -0.1128 -0.5696 -0.4603
  143MOL0     C19204  11.189   7.308   1.325  0.5049 -0.4522 -0.1071
  143MOL0     O19205  11.321   7.286   1.311  0.5004  0.1487 -1.1930
  143MOL0     C19206  11.405   7.353   1.405  0.6254 -0.9118  0.4300
  143MOL0     C19207  11.545   7.349   1.347  1.3138 -0.0698 -0.4046
  143MOL0     C19208  11.630   7.445   1.429 -0.4262  0.3115 -0.6205
  143MOL0     C19209  11.778   7.405   1.445 -0.3084 -0.4055  0.9390
  143MOL0     C19210  11.839   7.469   1.569  0.0803 -0.0663 -0.4232
  143MOL0     C19211  11.822   7.378   1.700 -0.3512  0.6517 -1.9040
  143MOL0     C19212  11.853   7.228   1.671 -0.5468  0.1179  0.0890
  143MOL0     C19213  11.867   7.160   1.807  0.7763  0.1207  1.1734
  143MOL0    Cl19214  11.904   6.993   1.772 -0.1530  0.1940  0.4912
  143MOL0     C19215  11.131   7.369   1.219  0.0720 -0.0281  0.3531
  143MOL0     C19216  10.988   7.397   1.204 -0.5967  0.2063 -1.0147
  143MOL0     O19217  10.684   7.209   1.275 -0.4693  0.2900 -0.5832
  143MOL0     C19218  10.522   7.512   1.284  0.4198  0.7367  0.0961
  143MOL0     C19219  10.400   7.573   1.262 -0.4719 -0.2833  0.0255
  143MOL0     N19220  10.190   7.478   0.768  0.4134 -0.3677  0.3774
  143MOL0     N19221  10.275   7.381   0.791  0.9785 -0.6600  0.0300
  143MOL0     C19222  10.898   6.729   1.594 -0.5731  0.1895  0.1625
  143MOL0     C19223  10.984   6.736   1.697  0.5284  0.0886  0.2045
  143MOL0     C19224  11.292   6.783   2.007  0.4235 -0.1032  0.3026
  143MOL0     C19225  11.225   6.862   2.107  0.0640  0.7469  0.0493
  143MOL0     C19226  11.262   6.877   2.242 -0.0951 -0.5726 -0.0629
  143MOL0     C19227  11.373   6.801   2.281  0.5290  1.0060  0.6294
  143MOL0     O19228  11.403   6.800   2.416  0.7615  0.4301  0.6166
  143MOL0     C19229  11.349   6.691   2.488  0.2008  0.7629 -0.4017
  143MOL0     C19230  11.197   6.698   2.502 -0.0684  0.0911 -0.0163
  143MOL0     C19231  11.159   6.616   2.626 -0.3076 -0.7099  0.6023
  143MOL0     C19232  11.014   6.622   2.639 -1.2287  0.6921  0.8160
  143MOL0     C19233  10.960   6.570   2.762 -0.3655  0.9492  0.1861
  143MOL0     C19234  10.920   6.534   2.867  0.8829  0.4279 -0.9726
  143MOL0     C19235  11.444   6.724   2.185 -0.3344  0.1415  0.0547
  143MOL0     C19236  11.405   6.718   2.049  0.1844  0.7189 -0.6297
  143MOL0     C19237  11.492   6.633   1.956  0.1469 -0.1841  0.5647
  143MOL0     H19238  11.128   7.034   1.631  1.9498 -1.9464 -1.6041
  143MOL0     H19239  11.009   7.009   1.426  1.3757 -1.0596 -0.7501
  143MOL0     H19240  10.824   6.633   1.354 -0.7716 -0.6507 -1.2034
  143MOL0     H19241  10.685   6.687   1.445  0.5644 -0.3027  1.5067
  143MOL0     H19242  10.617   6.629   1.197 -1.9620  1.2799 -2.0072
  143MOL0     H19243  10.748   6.734   1.140  1.8895 -2.2415  1.0513
  143MOL0     H19244  10.632   6.924   1.224  1.5818 -0.2276 -2.0885
  143MOL0     H19245  10.504   6.810   1.284 -1.1956 -1.9818 -0.2705
  143MOL0     H19246  10.568   6.820   0.991  1.1884  3.9188  0.6403
  143MOL0     H19247  10.428   6.738   1.068 -0.0503  0.0542 -1.4196
  143MOL0     H19248  10.346   6.979   1.136 -1.0181  1.4677 -1.5539
  143MOL0     H19249  10.493   7.027   1.058  0.7536 -0.0059  0.4969
  143MOL0     H19250  10.441   6.968   0.838  0.1662  1.1703  0.2041
  143MOL0     H19251  10.328   6.848   0.879  1.5355 -0.1154 -0.3396
  143MOL0     H19252  10.154   7.023   0.953 -0.5342  0.2383 -0.7419
  143MOL0     H19253  10.218   7.049   0.788  3.1514 -0.0413 -0.5708
  143MOL0     H19254  10.269   7.188   1.048 -2.1305  2.3088 -0.0677
  143MOL0     H19255  10.391   7.200   0.929 -0.6086  1.0828  0.4084
  143MOL0     H19256   9.994   7.289   0.945 -1.7036 -1.2307 -1.7911
  143MOL0     H19257   9.943   7.586   0.726  0.1487  1.3891 -0.5405
  143MOL0     H19258   9.864   7.483   0.845  2.0787 -4.1993 -1.7407
  143MOL0     H19259   9.997   7.751   0.912 -2.6689  0.9941 -1.1770
  143MOL0     H19260   9.837   7.688   0.931 -0.0576 -0.8232  1.7526
  143MOL0     H19261   9.943   7.530   1.117 -0.1892  0.9400  0.9370
  143MOL0     H19262   9.950   7.706   1.138 -1.3562 -0.6942 -0.5225
  143MOL0     H19263  10.196   7.703   1.096 -0.0825 -0.0387  1.8107
  143MOL0     H19264  10.206   7.549   1.028  0.7150  0.3759 -0.9068
  143MOL0     H19265  10.205   7.294   1.242 -0.8759  1.0226 -2.3300
  143MOL0     H19266  10.434   7.193   1.252  3.3560  0.5950  0.6840
  143MOL0     H19267  10.888   7.267   1.500 -0.8936 -0.0946 -2.1939
  143MOL0     H19268  11.154   7.219   1.511 -1.8304  0.2427  1.2970
  143MOL0     H19269  11.380   7.457   1.424  1.2969 -1.3923  5.1387
  143MOL0     H19270  11.407   7.290   1.495  1.4256 -1.8395 -0.2108
  143MOL0     H19271  11.572   7.244   1.366 -3.0365 -1.0990  1.3282
  143MOL0     H19272  11.539   7.379   1.242 -3.2605  0.4628 -0.1872
  143MOL0     H19273  11.626   7.546   1.387 -0.2483  0.6564  0.1737
  143MOL0     H19274  11.592   7.454   1.531  0.6675  2.2588 -0.3207
  143MOL0     H19275  11.830   7.451   1.360 -2.4832  1.0076  0.2879
  143MOL0     H19276  11.786   7.297   1.436  0.2704 -0.2881 -0.1674
  143MOL0     H19277  11.789   7.561   1.600  2.1899  0.7611  0.7379
  143MOL0     H19278  11.943   7.495   1.546  0.3718  2.3897  2.8632
  143MOL0     H19279  11.888   7.409   1.781 -1.4461 -0.0174 -0.7178
  143MOL0     H19280  11.723   7.376   1.747  1.3371 -1.5659  2.0705
  143MOL0     H19281  11.950   7.220   1.622 -0.8454  1.1869 -0.7076
  143MOL0     H19282  11.768   7.176   1.626 -1.3317  1.4104  0.0097
  143MOL0     H19283  11.950   7.212   1.856  0.2872  1.1234  0.9570
  143MOL0     H19284  11.783   7.172   1.876 -0.8278  0.6793 -0.7542
  143MOL0     H19285  11.196   7.386   1.134 -1.1688 -2.6173 -1.2401
  143MOL0     H19286  10.952   7.446   1.114  0.4217 -1.1459 -2.2122
  143MOL0     H19287  10.603   7.585   1.287 -0.7012  2.0163  2.1023
  143MOL0     H19288  10.385   7.681   1.260  1.1234 -0.0369 -0.2517
  143MOL0     H19289  10.843   6.636   1.584 -0.0335 -0.2077  0.7469
  143MOL0     H19290  10.974   6.659   1.773 -4.4454 -0.0659 -0.2796
  143MOL0     H19291  11.130   6.909   2.081 -0.1841  0.0924 -0.2493
  143MOL0     H19292  11.208   6.926   2.322 -1.1844 -0.0573 -1.1012
  143MOL0     H19293  11.400   6.706   2.583 -0.7211 -0.9132  0.4111
  143MOL0     H19294  11.391   6.595   2.457  1.2506  0.7606  0.9386
  143MOL0     H19295  11.140   6.649   2.423 -1.6098 -0.9979  1.7098
  143MOL0     H19296  11.153   6.798   2.506 -0.7898 -0.1120 -1.7563
  143MOL0     H19297  11.214   6.661   2.710  1.7874 -0.4308 -0.8571
  143MOL0     H19298  11.186   6.511   2.612 -0.3052 -0.3927 -2.4311
  143MOL0     H19299  10.973   6.723   2.623  0.8579  1.1965 -2.3525
  143MOL0     H19300  10.977   6.557   2.559  0.8030 -1.8978  1.8512
  143MOL0     H19301  10.883   6.520   2.967 -1.5011 -2.5047 -2.1209
  143MOL0     H19302  11.531   6.668   2.217 -0.5679 -0.6520 -0.6579
  143MOL0     H19303  11.528   6.690   1.871 -1.8956 -1.7763 -1.4928
  143MOL0     H19304  11.581   6.595   2.008  1.6096  2.3597  0.0657
  143MOL0     H19305  11.428   6.551   1.920 -0.5837  0.2329  0.8824
  144MOL0     O19306   4.693   1.216   3.721  0.2035  1.6738 -0.0999
  144MOL0     C19307   4.630   1.311   3.766 -0.2023 -0.5472  0.4179
  144MOL0     O19308   4.498   1.319   3.785  0.3196  0.3082 -0.5920
  144MOL0     C19309   4.415   1.210   3.764  0.0625 -0.5496  0.7383
  144MOL0     C19310   4.312   1.232   3.674  1.2108  0.7176 -0.0218
  144MOL0     C19311   4.228   1.130   3.641 -0.2977  0.0779  0.0186
  144MOL0     C19312   4.239   1.008   3.704 -0.1744 -0.2758  1.1782
  144MOL0     O19313   4.143   0.908   3.674 -0.7609 -0.6550  0.0833
  144MOL0     C19314   4.175   0.765   3.685 -0.0112 -0.5236  0.0484
  144MOL0     C19315   4.098   0.672   3.584 -0.2178 -0.2950  0.0399
  144MOL0     C19316   4.076   0.736   3.451 -0.2135  0.0707  0.3135
  144MOL0     C19317   4.209   0.748   3.377 -0.4082  0.2350 -0.4347
  144MOL0     C19318   4.182   0.828   3.240 -0.4608  0.5987 -0.0879
  144MOL0     C19319   4.171   0.977   3.260 -0.5890  0.0714  0.5917
  144MOL0     C19320   4.312   1.045   3.256 -0.7881 -0.2716  0.8472
  144MOL0     C19321   4.298   1.203   3.262 -0.1884 -0.7826  0.3865
  144MOL0     N19322   4.429   1.259   3.236 -0.9184 -0.7701 -0.6934
  144MOL0     C19323   4.510   1.322   3.325 -0.5328 -0.0566 -0.1304
  144MOL0     C19324   4.619   1.359   3.263 -0.1484  0.3588 -0.0922
  144MOL0     C19325   4.744   1.436   3.313 -0.1202 -0.4380 -0.1232
  144MOL0     C19326   4.874   1.350   3.330  0.3569  0.5183 -0.1609
  144MOL0     C19327   4.989   1.429   3.384  0.0381  0.2085  0.0502
  144MOL0     C19328   5.119   1.354   3.383  0.6088 -0.6598  0.6284
  144MOL0     O19329   5.225   1.451   3.395  0.1497  0.4055 -0.3624
  144MOL0     C19330   5.350   1.412   3.439  0.2124 -0.0196 -0.2008
  144MOL0     C19331   5.424   1.512   3.494 -0.4873 -0.0662  0.2561
  144MOL0     C19332   5.547   1.487   3.547 -1.0322 -0.1759 -0.7347
  144MOL0     C19333   5.608   1.355   3.533  0.3577  0.0978  0.3511
  144MOL0     C19334   5.741   1.337   3.580  0.1984  0.1989 -0.6412
  144MOL0     O19335   5.828   1.452   3.602 -0.2426 -0.7008 -0.3534
  144MOL0     C19336   5.957   1.431   3.636  0.0962  0.4519 -0.2050
  144MOL0     C19337   5.998   1.445   3.767  0.3007  0.0458 -0.7713
  144MOL0     C19338   6.135   1.424   3.809  0.0100 -0.2937 -0.0115
  144MOL0     C19339   6.232   1.394   3.708  0.0686 -0.0471 -0.3196
  144MOL0     O19340   6.357   1.354   3.735 -0.0667 -0.5278  0.6823
  144MOL0     C19341   6.381   1.216   3.711  0.3000  0.7206 -0.2112
  144MOL0     C19342   6.517   1.181   3.774  0.3210  0.1829  0.7060
  144MOL0     C19343   6.639   1.231   3.701 -0.0363  0.3352  0.4911
  144MOL0     C19344   6.769   1.186   3.753  1.0519  0.0169 -0.1472
  144MOL0     C19345   6.881   1.270   3.691 -0.0708 -0.1805 -0.5164
  144MOL0     C19346   7.008   1.202   3.730  0.1071 -0.4360 -0.6133
  144MOL0     C19347   7.125   1.283   3.729  0.3471 -0.0253  0.3952
  144MOL0     C19348   7.238   1.220   3.803  0.5444  0.3881  0.0611
  144MOL0    Cl19349   7.282   1.082   3.708  0.0060 -0.0471 -0.2242
  144MOL0     C19350   6.185   1.393   3.572 -0.1670  1.1742  0.9780
  144MOL0     C19351   6.050   1.413   3.536  0.7175 -0.7863 -1.2919
  144MOL0     O19352   5.779   1.220   3.593  0.8709  0.0824  0.6607
  144MOL0     C19353   5.520   1.258   3.486  0.7536 -0.3658  0.1448
  144MOL0     C19354   5.390   1.278   3.441  0.0702  0.7628 -0.5745
  144MOL0     N19355   4.594   1.330   3.137 -0.7379  1.0047 -0.2457
  144MOL0     N19356   4.487   1.271   3.111 -0.4510 -0.3697 -0.4274
  144MOL0     C19357   4.342   0.983   3.790 -0.8945 -0.5590 -1.0651
  144MOL0     C19358   4.437   1.080   3.816  0.1853 -0.3484  0.1419
  144MOL0     C19359   4.687   1.449   3.750  0.1101 -0.3341 -0.4938
  144MOL0     C19360   4.608   1.566   3.721  0.4642  0.2111  0.2575
  144MOL0     C19361   4.648   1.693   3.701 -0.2266 -0.5138 -0.4397
  144MOL0     C19362   4.780   1.714   3.723 -0.5174  0.5318  0.0706
  144MOL0     O19363   4.844   1.831   3.732  0.0553 -0.9638 -0.2782
  144MOL0     C19364   4.767   1.954   3.724 -0.7821  0.3961  0.0878
  144MOL0     C19365   4.860   2.080   3.693 -0.0645 -0.2089 -0.6285
  144MOL0     C19366   5.007   2.073   3.763 -0.9229  0.5708  0.7224
  144MOL0     C19367   4.988   2.079   3.918 -0.0446  0.4905 -0.4172
  144MOL0     C19368   4.925   2.200   3.972  0.3571  0.4212 -0.6255
  144MOL0     C19369   4.871   2.300   4.019 -0.1007 -0.3169 -0.6042
  144MOL0     C19370   4.870   1.606   3.746 -0.1390  0.2550 -0.1462
  144MOL0     C19371   4.830   1.476   3.762 -0.0165  0.1573 -0.3143
  144MOL0     C19372   4.928   1.382   3.805 -0.0670 -0.2680  0.2129
  144MOL0     H19373   4.298   1.330   3.630 -0.6594 -0.2021 -1.6563
  144MOL0     H19374   4.145   1.147   3.573  1.1694  2.0347 -1.4037
  144MOL0     H19375   4.283   0.758   3.668  0.0102  1.5832 -1.0530
  144MOL0     H19376   4.145   0.713   3.776  0.8219 -0.6310  0.2732
  144MOL0     H19377   4.006   0.635   3.630 -0.1377 -0.1931  0.2871
  144MOL0     H19378   4.159   0.583   3.565  1.6312  1.4864 -3.2588
  144MOL0     H19379   4.029   0.834   3.465 -0.2922  0.1471 -0.4744
  144MOL0     H19380   4.000   0.683   3.393  1.0500 -2.8641  1.1562
  144MOL0     H19381   4.293   0.798   3.427  0.3300 -0.5141 -0.9018
  144MOL0     H19382   4.238   0.647   3.347  1.4805  0.1997  1.2984
  144MOL0     H19383   4.260   0.804   3.167 -1.3870 -1.0888 -0.5558
  144MOL0     H19384   4.095   0.790   3.187 -0.0084  1.5896 -1.6137
  144MOL0     H19385   4.116   1.020   3.175  2.2171 -1.0451 -2.0078
  144MOL0     H19386   4.122   1.008   3.352 -0.2787 -0.1700  0.8389
  144MOL0     H19387   4.362   1.016   3.163 -3.8440  0.5512 -1.2070
  144MOL0     H19388   4.375   1.007   3.336  0.2124  1.3140  0.8682
  144MOL0     H19389   4.226   1.244   3.190 -1.6336 -2.5764  0.7228
  144MOL0     H19390   4.253   1.232   3.358 -2.5946  1.4155 -1.2759
  144MOL0     H19391   4.504   1.317   3.434  3.3596  3.0197  0.4116
  144MOL0     H19392   4.770   1.526   3.256  0.1413 -0.1677  0.4212
  144MOL0     H19393   4.717   1.472   3.412  1.4018  1.0882 -0.2414
  144MOL0     H19394   4.853   1.269   3.401  2.2605 -0.6674 -0.8648
  144MOL0     H19395   4.901   1.305   3.234 -2.1828 -0.6702 -0.3937
  144MOL0     H19396   4.968   1.465   3.485  1.2700 -0.3511  0.5098
  144MOL0     H19397   5.005   1.517   3.320  0.8230  2.5318  3.1998
  144MOL0     H19398   5.131   1.294   3.292  2.7914  0.7115 -0.0827
  144MOL0     H19399   5.121   1.288   3.469  0.0838  2.8701  3.5806
  144MOL0     H19400   5.382   1.612   3.502 -2.0621 -0.7806  1.7262
  144MOL0     H19401   5.613   1.566   3.582 -0.6556 -1.8541  2.8255
  144MOL0     H19402   5.914   1.461   3.833  1.7781  1.5610  0.8239
  144MOL0     H19403   6.156   1.433   3.915 -2.8526  1.0460  0.5352
  144MOL0     H19404   6.300   1.159   3.757  0.4508  0.6630 -0.0164
  144MOL0     H19405   6.382   1.187   3.606 -1.5096 -2.6671  0.5590
  144MOL0     H19406   6.523   1.217   3.877  2.6810  2.5162 -0.1272
  144MOL0     H19407   6.534   1.073   3.779  4.9586  0.4797 -2.2787
  144MOL0     H19408   6.638   1.198   3.597  2.8122 -1.5456  0.9365
  144MOL0     H19409   6.649   1.339   3.716  3.1470  0.1418  0.4264
  144MOL0     H19410   6.780   1.078   3.737 -1.4996 -0.6620  1.9740
  144MOL0     H19411   6.772   1.206   3.860 -2.1558  1.7955 -0.2654
  144MOL0     H19412   6.875   1.369   3.738  0.2912 -1.3906  2.3072
  144MOL0     H19413   6.867   1.268   3.583  1.5016 -2.4742 -0.7316
  144MOL0     H19414   7.006   1.169   3.834  0.7878 -2.4126 -1.1921
  144MOL0     H19415   7.026   1.111   3.672  1.0819 -1.8385  1.7444
  144MOL0     H19416   7.104   1.377   3.781 -0.2803 -0.6256  1.2692
  144MOL0     H19417   7.143   1.306   3.624 -2.5099 -0.4592 -0.2963
  144MOL0     H19418   7.323   1.287   3.786  2.2570 -1.6933 -0.0093
  144MOL0     H19419   7.223   1.202   3.909  2.3927  0.8524  0.4356
  144MOL0     H19420   6.263   1.381   3.497 -1.0654 -0.9791  0.3169
  144MOL0     H19421   6.011   1.417   3.435 -2.3023  1.5985 -0.1786
  144MOL0     H19422   5.545   1.153   3.482 -2.4913 -1.2161 -1.5892
  144MOL0     H19423   5.346   1.186   3.404 -0.1793  0.5044  0.3593
  144MOL0     H19424   4.372   0.884   3.824 -2.0888 -1.1522 -1.6893
  144MOL0     H19425   4.518   1.059   3.886 -1.5355  1.5069  2.9268
  144MOL0     H19426   4.505   1.540   3.698  0.0562  2.4749 -0.7001
  144MOL0     H19427   4.578   1.770   3.671 -0.7950 -1.8815 -2.9760
  144MOL0     H19428   4.709   1.970   3.815  0.6857  2.9127  0.6829
  144MOL0     H19429   4.701   1.951   3.637  2.1249  1.8388 -2.3904
  144MOL0     H19430   4.813   2.174   3.723  1.0685  0.6222 -1.3577
  144MOL0     H19431   4.871   2.088   3.584  0.7245  1.3636 -0.4670
  144MOL0     H19432   5.078   2.152   3.736 -0.0823 -0.5337 -0.3744
  144MOL0     H19433   5.058   1.981   3.733  0.2260  1.9926 -2.0205
  144MOL0     H19434   4.930   1.990   3.943  0.2041 -0.0194 -1.5910
  144MOL0     H19435   5.086   2.065   3.966  0.4629  0.3314 -1.4800
  144MOL0     H19436   4.822   2.390   4.050  0.9437  0.0781 -0.0560
  144MOL0     H19437   4.975   1.630   3.756 -0.5397  2.1421 -0.0081
  144MOL0     H19438   4.963   1.344   3.708  1.6055  4.1789 -1.1451
  144MOL0     H19439   5.016   1.427   3.851 -0.0977 -0.1274  0.1325
  144MOL0     H19440   4.887   1.307   3.874  0.3156  0.2762  1.0423
  145MOL0     O19441   0.701   9.600  10.576 -0.4735  0.4247 -0.2939
  145MOL0     C19442   0.590   9.545  10.565  0.0351 -0.1818 -0.1567
  145MOL0     O19443   0.515   9.548  10.453  0.2399  0.1508  0.5999
  145MOL0     C19444   0.587   9.541  10.340  0.7174  0.2015  0.4135
  145MOL0     C19445   0.606   9.645  10.244  0.1680  0.3127  0.4016
  145MOL0     C19446   0.690   9.627  10.130  0.1295 -1.1309 -0.0695
  145MOL0     C19447   0.740   9.500  10.098  0.5014  0.8036 -0.1057
  145MOL0     O19448   0.818   9.509   9.984 -0.6323 -0.5924 -0.2923
  145MOL0     C19449   0.917   9.419   9.960  0.0702 -0.1724  0.0596
  145MOL0     C19450   1.038   9.497   9.908 -0.1802 -0.0189 -0.0069
  145MOL0     C19451   1.114   9.594  10.006  0.2362  0.5900  0.3955
  145MOL0     C19452   1.239   9.626   9.944 -0.7180 -0.3515 -0.5130
  145MOL0     C19453   1.303   9.751   9.999  0.0770  0.2328  0.1866
  145MOL0     C19454   1.401   9.722  10.118  0.0873 -0.4032 -0.0853
  145MOL0     C19455   1.461   9.857  10.175 -0.3484  0.7017 -0.0981
  145MOL0     C19456   1.583   9.835  10.252 -0.5084  0.1212  0.2530
  145MOL0     N19457   1.586   9.737  10.352  0.1688 -0.0325 -0.4594
  145MOL0     C19458   1.496   9.725  10.458  0.6457  0.2412  0.4394
  145MOL0     C19459   1.510   9.597  10.499 -0.2032 -0.6512 -0.1148
  145MOL0     C19460   1.440   9.556  10.622 -0.0055  0.4090 -0.2686
  145MOL0     C19461   1.518   9.583  10.746 -0.1184 -0.2476 -0.1248
  145MOL0     C19462   1.626   9.481  10.766 -0.3896 -0.2502  1.1171
  145MOL0     C19463   1.711   9.504  10.891 -0.0394 -0.5799  0.1783
  145MOL0     O19464   1.781   9.628  10.889 -0.1100  0.3805  0.1741
  145MOL0     C19465   1.867   9.640  10.778  0.0900 -0.4598  0.1479
  145MOL0     C19466   1.827   9.718  10.665  0.2490 -0.0522 -0.5591
  145MOL0     C19467   1.914   9.740  10.561  0.1286 -0.6238 -0.5047
  145MOL0     C19468   2.040   9.689  10.560  0.2623 -0.4926  0.6012
  145MOL0     C19469   2.148   9.722  10.463 -0.0162  0.4605 -0.7962
  145MOL0     O19470   2.269   9.680  10.491  1.1269  0.6427 -0.0630
  145MOL0     C19471   2.377   9.672  10.398 -0.2914  0.1599  0.4651
  145MOL0     C19472   2.366   9.678  10.264  0.8263 -0.9864 -0.2347
  145MOL0     C19473   2.475   9.669  10.183  0.2174  0.4545  0.3499
  145MOL0     C19474   2.603   9.659  10.234 -0.4955  0.2232 -1.7215
  145MOL0     O19475   2.718   9.658  10.161  0.2418  0.1106  0.2848
  145MOL0     C19476   2.714   9.684  10.019  0.0415  0.7154  0.3368
  145MOL0     C19477   2.851   9.687   9.961  0.6062  0.3027 -0.0137
  145MOL0     C19478   2.948   9.579  10.024  0.0834  0.2179 -0.1049
  145MOL0     C19479   3.071   9.549   9.929 -0.5272  0.7545 -0.8448
  145MOL0     C19480   3.144   9.422   9.997  0.3756  0.0186 -0.5468
  145MOL0     C19481   3.256   9.366   9.904  0.1444 -0.3158 -0.6501
  145MOL0     C19482   3.371   9.460   9.870  0.0296 -0.1569 -0.7638
  145MOL0     C19483   3.468   9.414   9.763 -0.8480  0.0865 -0.6129
  145MOL0    Cl19484   3.413   9.464   9.599 -0.3505  0.3260  0.1900
  145MOL0     C19485   2.613   9.655  10.379 -0.6790  0.2719 -0.3489
  145MOL0     C19486   2.502   9.651  10.463  0.3133 -0.2204 -0.3610
  145MOL0     O19487   2.119   9.799  10.372  0.0379 -0.2536  0.5593
  145MOL0     C19488   2.075   9.604  10.666  0.4493  0.5247 -0.6552
  145MOL0     C19489   1.995   9.580  10.780  0.1045  0.7458  0.0241
  145MOL0     N19490   1.597   9.532  10.419 -0.4622 -1.2024  1.3641
  145MOL0     N19491   1.633   9.619  10.323  0.6480 -0.7034  0.6559
  145MOL0     C19492   0.717   9.394  10.188 -0.2587 -1.0013 -0.0011
  145MOL0     C19493   0.631   9.414  10.299  1.2960  0.6667 -0.3709
  145MOL0     C19494   0.528   9.487  10.686  0.3040  0.3609 -0.2569
  145MOL0     C19495   0.614   9.443  10.788 -0.5407  0.1283 -0.0441
  145MOL0     C19496   0.563   9.380  10.907  0.1431 -1.0043  0.1772
  145MOL0     C19497   0.427   9.379  10.934 -0.1259  0.4657 -0.4889
  145MOL0     O19498   0.361   9.327  11.041 -0.0809  0.7563  0.2458
  145MOL0     C19499   0.441   9.237  11.118  0.0895  0.8920 -0.1086
  145MOL0     C19500   0.356   9.156  11.227  0.3506  0.6306  0.7915
  145MOL0     C19501   0.434   9.033  11.282 -1.1257  0.1018  0.6470
  145MOL0     C19502   0.394   8.897  11.220 -0.2941 -0.0754 -0.6088
  145MOL0     C19503   0.422   8.881  11.076 -0.0437  0.1537  0.6407
  145MOL0     C19504   0.447   8.844  10.959 -1.4191  0.7376 -0.3688
  145MOL0     C19505   0.339   9.434  10.839 -0.9546 -0.8739  0.2987
  145MOL0     C19506   0.387   9.483  10.715 -1.0925 -0.1514 -0.3459
  145MOL0     C19507   0.286   9.563  10.645  0.5034  0.7035  0.1799
  145MOL0     H19508   0.563   9.744  10.256 -1.0327  0.2056 -2.3008
  145MOL0     H19509   0.713   9.717  10.073  0.0690  1.9393  4.2239
  145MOL0     H19510   0.952   9.360  10.045 -0.8620 -1.1462 -0.2142
  145MOL0     H19511   0.875   9.358   9.879  1.4677 -0.3128 -0.5942
  145MOL0     H19512   0.999   9.552   9.822  1.5054  0.8924 -0.2302
  145MOL0     H19513   1.108   9.425   9.865 -0.2626  0.9158 -1.8155
  145MOL0     H19514   1.147   9.548  10.099  1.7080  1.3375  0.2717
  145MOL0     H19515   1.059   9.684  10.035 -0.6770  0.1553  0.0748
  145MOL0     H19516   1.308   9.542   9.930 -0.7093 -0.0192 -2.9624
  145MOL0     H19517   1.211   9.646   9.840  1.1472 -5.4923 -2.2990
  145MOL0     H19518   1.343   9.812   9.917  0.3469  2.3071  1.7807
  145MOL0     H19519   1.225   9.816  10.039 -0.4066  1.1499 -2.0877
  145MOL0     H19520   1.367   9.659  10.201  1.0431 -0.0781  0.5703
  145MOL0     H19521   1.485   9.666  10.075 -0.6858  0.0697 -2.3883
  145MOL0     H19522   1.390   9.896  10.248 -1.3096 -4.4095  2.1421
  145MOL0     H19523   1.482   9.921  10.089 -0.6624  1.4310  0.3632
  145MOL0     H19524   1.659   9.809  10.177  0.9953  0.4488  1.5929
  145MOL0     H19525   1.616   9.932  10.289 -0.5495  0.0528  0.4673
  145MOL0     H19526   1.436   9.803  10.504 -0.3729 -0.1831 -0.1408
  145MOL0     H19527   1.346   9.611  10.632 -1.6166 -2.3194  0.5948
  145MOL0     H19528   1.415   9.450  10.607  0.9932 -0.4989  3.4601
  145MOL0     H19529   1.559   9.684  10.747  1.4269 -0.8595  0.3351
  145MOL0     H19530   1.455   9.580  10.836  2.2778  0.7967  1.6738
  145MOL0     H19531   1.688   9.468  10.677 -0.4707  0.9526  0.8656
  145MOL0     H19532   1.578   9.384  10.780 -1.9065  0.7520  3.5331
  145MOL0     H19533   1.787   9.426  10.901 -0.5500 -1.4221 -1.8286
  145MOL0     H19534   1.651   9.510  10.982 -0.9508  1.6766 -0.4781
  145MOL0     H19535   1.732   9.771  10.670  0.9804  1.2329  3.0663
  145MOL0     H19536   1.880   9.803  10.480 -1.1562 -3.7163 -2.5685
  145MOL0     H19537   2.273   9.703  10.215  0.9264  1.1381  0.5392
  145MOL0     H19538   2.465   9.679  10.076 -1.9865  1.7114  0.6058
  145MOL0     H19539   2.658   9.607   9.967  2.5015  0.1209 -1.6028
  145MOL0     H19540   2.664   9.779   9.999 -0.4638 -0.0741 -2.4815
  145MOL0     H19541   2.843   9.671   9.853 -3.4733 -3.3175  0.5217
  145MOL0     H19542   2.899   9.784   9.975 -1.7492  1.7530 -1.4014
  145MOL0     H19543   2.990   9.618  10.117 -0.2634 -1.1563  0.6621
  145MOL0     H19544   2.895   9.488  10.055  2.3047 -2.0172 -2.2960
  145MOL0     H19545   3.143   9.631   9.930  3.7255 -2.6212  0.1809
  145MOL0     H19546   3.048   9.530   9.824 -0.4054 -0.6287 -0.6411
  145MOL0     H19547   3.084   9.334  10.021 -1.0311  1.1727  0.3659
  145MOL0     H19548   3.180   9.444  10.098 -0.2531  0.8590 -0.4963
  145MOL0     H19549   3.312   9.284   9.951 -2.7800 -1.7159  0.6131
  145MOL0     H19550   3.205   9.330   9.814  0.3322  0.8508 -1.2480
  145MOL0     H19551   3.428   9.476   9.962  0.1726  0.0182 -0.8812
  145MOL0     H19552   3.332   9.556   9.834  3.1932  1.0966 -1.2108
  145MOL0     H19553   3.563   9.466   9.782 -0.1076 -1.2542 -0.5459
  145MOL0     H19554   3.493   9.308   9.773  1.0486  0.7122  3.3951
  145MOL0     H19555   2.710   9.665  10.425  0.0559 -2.4561 -1.1392
  145MOL0     H19556   2.517   9.659  10.570 -2.3242 -1.4004  0.1816
  145MOL0     H19557   2.174   9.558  10.671 -0.6343 -2.1776 -2.1186
  145MOL0     H19558   2.027   9.513  10.859  4.6065  2.1372 -0.3034
  145MOL0     H19559   0.741   9.290  10.164 -3.4527 -3.2439  4.8563
  145MOL0     H19560   0.608   9.328  10.361 -0.1582 -0.5560 -2.4720
  145MOL0     H19561   0.721   9.440  10.770 -0.7215  0.8191 -1.3284
  145MOL0     H19562   0.631   9.343  10.983 -0.1520 -1.4208  0.2398
  145MOL0     H19563   0.522   9.291  11.168  2.0306 -1.8361 -0.0717
  145MOL0     H19564   0.491   9.168  11.049 -2.0228 -2.5552  1.5127
  145MOL0     H19565   0.271   9.121  11.169  2.5381 -3.3005 -0.3696
  145MOL0     H19566   0.326   9.221  11.310  0.2581 -1.6310  2.6333
  145MOL0     H19567   0.413   9.044  11.389  0.3506  1.9750  0.7951
  145MOL0     H19568   0.541   9.052  11.273 -1.2770  0.2612 -1.2118
  145MOL0     H19569   0.440   8.833  11.296 -1.1287  0.3763  0.2953
  145MOL0     H19570   0.288   8.886  11.244 -1.3908  2.4974 -3.5085
  145MOL0     H19571   0.478   8.795  10.869  0.8001  1.5452 -0.1094
  145MOL0     H19572   0.234   9.428  10.865 -0.7317  0.6602  1.7405
  145MOL0     H19573   0.281   9.543  10.537  0.6354  0.1495  0.2689
  145MOL0     H19574   0.181   9.549  10.672  0.5776 -2.0218 -0.6584
  145MOL0     H19575   0.302   9.668  10.670  2.2395  0.3240  0.8701
  146MOL0     O19576   8.048   9.793   6.725 -1.1599  0.0786  0.0499
  146MOL0     C19577   7.965   9.729   6.660  0.0222 -0.5149 -0.2835
  146MOL0     O19578   7.989   9.642   6.566 -0.4621  0.9117 -0.2068
  146MOL0     C19579   8.114   9.590   6.578 -0.3276 -0.5175  0.1502
  146MOL0     C19580   8.202   9.616   6.476  0.2348 -0.1227  0.9604
  146MOL0     C19581   8.315   9.542   6.463  0.0771 -0.1807  0.2687
  146MOL0     C19582   8.354   9.449   6.561  0.7664 -0.1344 -0.6596
  146MOL0     O19583   8.452   9.363   6.565  0.2468  0.3159  0.7339
  146MOL0     C19584   8.554   9.378   6.464 -0.3015 -0.0521 -0.1750
  146MOL0     C19585   8.669   9.276   6.503  0.4941 -0.4732  0.0014
  146MOL0     C19586   8.714   9.322   6.644  0.7515 -0.1693 -0.3327
  146MOL0     C19587   8.825   9.229   6.693  0.1743 -0.1615  0.5198
  146MOL0     C19588   8.875   9.283   6.823  0.2526 -0.2551 -0.1259
  146MOL0     C19589   8.973   9.187   6.893  0.8806  1.5877 -0.4053
  146MOL0     C19590   9.063   9.259   6.998 -0.1281  0.7244 -0.3735
  146MOL0     C19591   9.194   9.177   7.016 -0.5457  0.8036 -0.1499
  146MOL0     N19592   9.284   9.241   7.118 -0.4608 -0.1313  0.2989
  146MOL0     C19593   9.420   9.211   7.136  0.6362 -0.5413 -0.4716
  146MOL0     C19594   9.463   9.272   7.247 -0.3145 -0.1844  0.4662
  146MOL0     C19595   9.597   9.255   7.298  0.2060  0.3586  1.1927
  146MOL0     C19596   9.702   9.349   7.231 -0.3666  0.1869  0.4324
  146MOL0     C19597   9.843   9.292   7.260 -0.5778  0.1377 -0.1580
  146MOL0     C19598   9.958   9.359   7.176  0.0433 -0.9129  0.0789
  146MOL0     O19599  10.082   9.308   7.227 -0.2767 -0.1302 -0.3434
  146MOL0     C19600  10.199   9.369   7.182  0.3651  0.2206 -0.1915
  146MOL0     C19601  10.315   9.315   7.242 -0.0866 -0.5912 -0.3897
  146MOL0     C19602  10.441   9.350   7.201 -0.1370  0.1658 -0.5546
  146MOL0     C19603  10.458   9.458   7.119  1.2596  0.1415 -0.8290
  146MOL0     C19604  10.595   9.509   7.098  0.3193 -0.7156 -0.2083
  146MOL0     O19605  10.691   9.414   7.117 -0.3811  0.0028  0.4166
  146MOL0     C19606  10.829   9.436   7.098  0.8109  0.0987  0.0891
  146MOL0     C19607  10.886   9.533   7.015 -0.1778 -0.9694  0.2438
  146MOL0     C19608  11.025   9.539   6.993 -0.3862 -1.3955  1.3370
  146MOL0     C19609  11.110   9.451   7.061 -0.3503 -0.5924 -0.0732
  146MOL0     O19610  11.246   9.454   7.030 -0.2155  0.0679  0.0908
  146MOL0     C19611  11.324   9.398   7.142 -0.7030  0.0893  0.1527
  146MOL0     C19612  11.466   9.454   7.145  0.2173  0.9276  0.0442
  146MOL0     C19613  11.554   9.421   7.273  0.3888 -0.0924 -0.0068
  146MOL0     C19614  11.688   9.506   7.281  0.2498 -0.1781 -0.0098
  146MOL0     C19615  11.805   9.446   7.197 -0.3704 -0.0524 -0.3047
  146MOL0     C19616  11.928   9.542   7.178  0.2077 -1.4667 -0.1896
  146MOL0     C19617  12.038   9.476   7.095  0.0682  0.3230 -0.5727
  146MOL0     C19618  12.119   9.377   7.195 -0.7129 -1.4220  0.1666
  146MOL0    Cl19619  12.237   9.476   7.292 -0.4775  0.0295 -0.1135
  146MOL0     C19620  11.049   9.358   7.149 -0.3593 -0.1780 -0.9715
  146MOL0     C19621  10.911   9.356   7.167  0.5976 -0.3224 -1.3739
  146MOL0     O19622  10.606   9.627   7.075  0.4325  0.0713  0.0010
  146MOL0     C19623  10.339   9.522   7.069 -0.6722 -0.2359  0.7873
  146MOL0     C19624  10.212   9.467   7.093 -0.6523 -0.3929 -0.1138
  146MOL0     N19625   9.357   9.329   7.317  0.0515  0.4332  0.0129
  146MOL0     N19626   9.253   9.299   7.241 -0.0998  0.2213  1.6893
  146MOL0     C19627   8.265   9.441   6.677 -0.5110  0.0969  0.2240
  146MOL0     C19628   8.154   9.517   6.689 -0.6732 -0.3345  0.3442
  146MOL0     C19629   7.824   9.757   6.688 -0.7959  0.6859 -0.4190
  146MOL0     C19630   7.729   9.770   6.584 -0.5609 -0.0141  0.1822
  146MOL0     C19631   7.592   9.789   6.612  0.8287  0.2575  0.9945
  146MOL0     C19632   7.544   9.816   6.735  0.0518  0.7477 -0.2499
  146MOL0     O19633   7.410   9.831   6.758  0.3175  0.6331  0.2399
  146MOL0     C19634   7.307   9.847   6.658  0.3910  0.3415 -0.1780
  146MOL0     C19635   7.168   9.881   6.702 -0.4655  0.2941  0.1360
  146MOL0     C19636   7.106   9.743   6.746 -0.3384 -0.2267 -0.2473
  146MOL0     C19637   6.966   9.764   6.815 -0.3135  0.6800  0.8574
  146MOL0     C19638   6.870   9.838   6.733  0.2123 -0.8153  0.3934
  146MOL0     C19639   6.812   9.917   6.660  0.8224  0.8918 -0.5837
  146MOL0     C19640   7.638   9.818   6.835 -0.6622  0.1758 -0.0074
  146MOL0     C19641   7.777   9.795   6.817 -0.2336  0.4096  0.3103
  146MOL0     C19642   7.855   9.785   6.951 -0.3841  0.5262 -0.5152
  146MOL0     H19643   8.169   9.677   6.393 -0.6006 -1.9902 -0.1453
  146MOL0     H19644   8.367   9.547   6.367  1.3180 -2.0745  0.7892
  146MOL0     H19645   8.520   9.362   6.361  3.7590  1.1706 -1.8962
  146MOL0     H19646   8.603   9.475   6.472 -2.1077  0.9650 -0.8424
  146MOL0     H19647   8.746   9.276   6.427 -0.3977 -1.4898 -0.9374
  146MOL0     H19648   8.631   9.174   6.493  0.3504 -0.2341 -2.3325
  146MOL0     H19649   8.632   9.324   6.717  1.8283  1.2518  0.8782
  146MOL0     H19650   8.744   9.427   6.640 -1.1900  0.4467  0.0485
  146MOL0     H19651   8.770   9.137   6.717 -0.6332  1.0200  3.7353
  146MOL0     H19652   8.907   9.219   6.622  0.7039 -0.9143  1.2265
  146MOL0     H19653   8.929   9.377   6.805  1.0311 -0.6217  0.2520
  146MOL0     H19654   8.794   9.294   6.895  1.6755 -2.1198  1.8899
  146MOL0     H19655   8.922   9.110   6.951  1.4989  1.7969  0.4458
  146MOL0     H19656   9.030   9.140   6.813 -2.2087  1.4405 -2.6849
  146MOL0     H19657   9.024   9.285   7.096  2.7154  2.6350  0.3774
  146MOL0     H19658   9.096   9.357   6.962 -0.1125  1.6916  2.0872
  146MOL0     H19659   9.176   9.071   7.038  1.0627  0.2003 -1.5435
  146MOL0     H19660   9.247   9.184   6.920 -4.5488  0.1363 -2.6330
  146MOL0     H19661   9.475   9.145   7.070 -1.3723  0.4003 -3.2278
  146MOL0     H19662   9.608   9.281   7.403  0.9927  0.8605  0.9894
  146MOL0     H19663   9.629   9.151   7.282 -0.9926 -0.4499  3.5301
  146MOL0     H19664   9.698   9.346   7.121  0.2755  0.5697  0.3962
  146MOL0     H19665   9.708   9.450   7.272  3.5153  1.1318 -1.9654
  146MOL0     H19666   9.841   9.187   7.228 -4.0961  0.1288 -0.2481
  146MOL0     H19667   9.867   9.292   7.366  0.2727 -0.9048 -0.3292
  146MOL0     H19668   9.954   9.466   7.199  1.6375 -1.1983  2.0464
  146MOL0     H19669   9.938   9.346   7.070  2.1302  1.4771 -0.7031
  146MOL0     H19670  10.307   9.236   7.317  1.2770 -1.2399 -0.8918
  146MOL0     H19671  10.521   9.286   7.237 -1.0578 -1.2515 -0.9345
  146MOL0     H19672  10.828   9.601   6.954  0.4207 -0.5456  0.1451
  146MOL0     H19673  11.071   9.617   6.933 -2.5837 -0.0270  1.3305
  146MOL0     H19674  11.285   9.443   7.234  1.3992  0.5105  0.8791
  146MOL0     H19675  11.328   9.289   7.146 -1.9023  0.0775  2.3929
  146MOL0     H19676  11.514   9.417   7.054  0.5644 -0.8882  0.9263
  146MOL0     H19677  11.453   9.563   7.142  1.0128  1.0635  0.9443
  146MOL0     H19678  11.498   9.457   7.360 -1.9505 -0.4891 -1.2561
  146MOL0     H19679  11.561   9.312   7.280  0.0057 -0.0819  0.5891
  146MOL0     H19680  11.721   9.511   7.386 -0.6187 -0.2096  0.2678
  146MOL0     H19681  11.662   9.608   7.251  1.1606 -0.3874 -1.6016
  146MOL0     H19682  11.755   9.411   7.106  1.8070 -2.0200 -0.8624
  146MOL0     H19683  11.840   9.359   7.254  1.3607  0.5915 -0.3143
  146MOL0     H19684  11.900   9.639   7.135  3.1255 -2.0402 -3.8990
  146MOL0     H19685  11.954   9.566   7.282  1.9342 -2.0130 -0.4749
  146MOL0     H19686  12.110   9.545   7.050 -0.7794 -0.2272 -2.8988
  146MOL0     H19687  11.995   9.413   7.016  2.5813 -2.5958  0.2070
  146MOL0     H19688  12.046   9.322   7.253 -3.8780  0.9889 -1.2314
  146MOL0     H19689  12.180   9.305   7.140  3.1426  0.4495  1.6127
  146MOL0     H19690  11.103   9.282   7.204  2.0600  1.9450 -0.1718
  146MOL0     H19691  10.865   9.284   7.234  2.8613 -1.4828 -0.9943
  146MOL0     H19692  10.335   9.615   7.013 -2.8284 -1.2212 -0.8788
  146MOL0     H19693  10.127   9.490   7.031  0.3891 -1.1483 -1.8845
  146MOL0     H19694   8.286   9.364   6.751 -2.0525 -1.2774 -0.7002
  146MOL0     H19695   8.083   9.500   6.768 -2.4171  0.0187 -1.0885
  146MOL0     H19696   7.754   9.765   6.478  0.3353  4.5625 -0.0013
  146MOL0     H19697   7.534   9.779   6.521 -0.3085 -0.5253  1.7732
  146MOL0     H19698   7.306   9.761   6.590  0.7474 -0.1501  0.4353
  146MOL0     H19699   7.339   9.941   6.613  1.1316  1.2845  2.1704
  146MOL0     H19700   7.102   9.925   6.627  1.6193  0.5891 -1.6240
  146MOL0     H19701   7.177   9.946   6.791 -2.1380  1.5407 -0.5495
  146MOL0     H19702   7.170   9.672   6.799  1.0993  0.9974 -0.2556
  146MOL0     H19703   7.089   9.685   6.654  2.4813 -0.9420 -0.4101
  146MOL0     H19704   6.918   9.668   6.840 -0.6478  0.5848 -0.1082
  146MOL0     H19705   6.990   9.819   6.906  0.8393  1.1657  0.2829
  146MOL0     H19706   6.752   9.972   6.591  0.5628 -0.1182 -1.1939
  146MOL0     H19707   7.594   9.838   6.932  2.7853  2.8162  1.2240
  146MOL0     H19708   7.851   9.884   6.998 -4.2282  1.7829 -3.0109
  146MOL0     H19709   7.806   9.711   7.015  1.2553 -0.0863  0.0975
  146MOL0     H19710   7.959   9.752   6.940 -0.6408  0.3677 -3.1171
  147MOL0     O19711   0.528   1.865   9.983  0.2823  0.5943  0.3226
  147MOL0     C19712   0.556   1.982   9.945  0.8369  0.8046 -0.5149
  147MOL0     O19713   0.672   2.046   9.966  0.4574  0.0114  0.1033
  147MOL0     C19714   0.782   1.979  10.009  0.5441 -0.9201  0.3025
  147MOL0     C19715   0.888   1.962   9.921 -0.5587 -1.0319 -0.3188
  147MOL0     C19716   1.007   1.907   9.970  0.2999 -0.0625  0.6311
  147MOL0     C19717   1.014   1.862  10.102 -0.3829 -0.7201  0.9318
  147MOL0     O19718   1.130   1.815  10.161  0.2036  0.0940  0.3200
  147MOL0     C19719   1.183   1.713  10.079  0.0219 -0.3584 -0.8219
  147MOL0     C19720   1.311   1.641  10.138  0.3636  0.0606  0.6675
  147MOL0     C19721   1.306   1.640  10.293  0.0610  0.3804  0.5900
  147MOL0     C19722   1.435   1.574  10.348 -1.2022  0.0123 -0.2151
  147MOL0     C19723   1.555   1.669  10.344 -0.7973 -0.7950 -0.6128
  147MOL0     C19724   1.693   1.609  10.401  0.2457  0.5527 -0.2314
  147MOL0     C19725   1.728   1.624  10.546 -0.7260 -0.3559  0.0997
  147MOL0     C19726   1.634   1.554  10.637 -0.3166 -0.1096  0.0714
  147MOL0     N19727   1.635   1.409  10.630 -0.3858  0.6133 -0.7932
  147MOL0     C19728   1.714   1.334  10.710  0.8997 -0.7997 -0.6630
  147MOL0     C19729   1.657   1.215  10.710  0.6637  0.2638 -1.0085
  147MOL0     C19730   1.716   1.098  10.790  0.7350  0.0975 -0.7125
  147MOL0     C19731   1.759   1.132  10.929 -0.9107  0.2241 -0.1637
  147MOL0     C19732   1.653   1.205  11.012 -0.2468  0.1563 -0.2029
  147MOL0     C19733   1.554   1.107  11.053  0.3292 -0.7831 -1.2295
  147MOL0     O19734   1.484   1.156  11.170 -0.7185  0.0131  0.5084
  147MOL0     C19735   1.370   1.230  11.140  0.4800 -0.6494 -0.6569
  147MOL0     C19736   1.276   1.195  11.051  0.2021 -0.6224 -0.0585
  147MOL0     C19737   1.157   1.267  11.042  0.2437  0.3186 -0.6331
  147MOL0     C19738   1.138   1.388  11.109  0.3142 -0.5244 -0.1699
  147MOL0     C19739   1.004   1.453  11.098 -0.2548 -0.2652 -0.0811
  147MOL0     O19740   0.926   1.404  10.996 -0.0892 -0.4617 -0.7049
  147MOL0     C19741   0.785   1.427  10.992 -0.2036  0.4262  0.4140
  147MOL0     C19742   0.711   1.533  11.052  0.1181  0.2248 -0.4471
  147MOL0     C19743   0.574   1.540  11.030  0.1378  0.3269 -1.0019
  147MOL0     C19744   0.509   1.444  10.942  0.4773  1.0505  0.6225
  147MOL0     O19745   0.374   1.437  10.916 -0.2544 -0.9767  0.3988
  147MOL0     C19746   0.290   1.549  10.940 -0.4741  0.8388  0.6527
  147MOL0     C19747   0.137   1.508  10.938  0.5851  0.4258  1.0545
  147MOL0     C19748   0.047   1.624  10.966 -0.0989 -0.7263  0.4752
  147MOL0     C19749  -0.114   1.599  10.982 -0.9918 -0.0200  0.1003
  147MOL0     C19750  -0.183   1.739  10.972  1.2018  0.6163 -0.7546
  147MOL0     C19751  -0.340   1.730  10.969 -0.3536  0.2250 -0.1570
  147MOL0     C19752  -0.412   1.860  10.974 -0.8123 -0.9305 -0.0776
  147MOL0     C19753  -0.545   1.842  10.899 -0.0774  0.8546  0.4246
  147MOL0    Cl19754  -0.648   1.727  10.990 -0.1316 -0.0481 -0.1152
  147MOL0     C19755   0.586   1.340  10.884  0.0334 -0.3391  0.0481
  147MOL0     C19756   0.721   1.334  10.905  0.2087  0.6322  0.3265
  147MOL0     O19757   0.978   1.541  11.181  0.8192  0.4512 -0.6228
  147MOL0     C19758   1.239   1.433  11.201  0.3780  0.0608 -0.0586
  147MOL0     C19759   1.350   1.348  11.215  0.1660 -0.6533 -1.0784
  147MOL0     N19760   1.548   1.216  10.628  0.0199 -0.5933 -0.4846
  147MOL0     N19761   1.532   1.332  10.580 -0.6692  0.2838 -0.4436
  147MOL0     C19762   0.905   1.876  10.191  0.3900  1.0267  0.1769
  147MOL0     C19763   0.795   1.933  10.142 -0.3188 -0.7943  0.2188
  147MOL0     C19764   0.438   2.076   9.914 -0.1290 -0.3981  0.0338
  147MOL0     C19765   0.307   2.025   9.943 -0.1949  0.0541  0.5325
  147MOL0     C19766   0.196   2.110   9.917  0.3090  0.7276 -0.1688
  147MOL0     C19767   0.196   2.244   9.873  0.2434  0.6981 -0.3121
  147MOL0     O19768   0.083   2.311   9.848 -0.2012  0.4128  0.3359
  147MOL0     C19769   0.086   2.442   9.784 -0.5686 -0.1692 -1.4398
  147MOL0     C19770  -0.050   2.474   9.724  0.8892  0.5794  0.6481
  147MOL0     C19771  -0.071   2.622   9.694  0.2866 -0.7656  0.2210
  147MOL0     C19772  -0.225   2.656   9.661  0.0535 -1.4554 -0.6328
  147MOL0     C19773  -0.248   2.801   9.668 -0.4113 -0.4461  0.1239
  147MOL0     C19774  -0.270   2.924   9.668 -0.4050 -0.1854  0.4076
  147MOL0     C19775   0.321   2.282   9.848  0.2474  0.6499  0.4510
  147MOL0     C19776   0.440   2.210   9.874 -1.2557  0.5819  0.2103
  147MOL0     C19777   0.575   2.273   9.846  0.1052  0.0668  0.0186
  147MOL0     H19778   0.878   2.004   9.822  1.5814 -0.1208 -0.1895
  147MOL0     H19779   1.087   1.899   9.897  1.6613  2.6511  1.7101
  147MOL0     H19780   1.106   1.636  10.067  0.3328 -0.4340 -2.4783
  147MOL0     H19781   1.208   1.749   9.979  0.9603  1.3407 -0.0132
  147MOL0     H19782   1.403   1.688  10.102  1.0521 -1.9762 -0.4395
  147MOL0     H19783   1.309   1.536  10.107 -0.8858  0.4001 -0.5385
  147MOL0     H19784   1.217   1.589  10.332  2.0279 -2.9575  1.0616
  147MOL0     H19785   1.304   1.744  10.325 -2.0867  0.1632  1.3496
  147MOL0     H19786   1.409   1.537  10.447  2.7845 -1.9542  0.2935
  147MOL0     H19787   1.471   1.489  10.290  0.1034  1.4535 -1.6339
  147MOL0     H19788   1.581   1.678  10.238 -1.5158  0.8160 -0.6751
  147MOL0     H19789   1.536   1.764  10.395  2.6200 -0.9584  1.2859
  147MOL0     H19790   1.685   1.504  10.370  1.7501  0.9174 -2.0208
  147MOL0     H19791   1.780   1.651  10.351  1.5778  0.1287  1.6404
  147MOL0     H19792   1.731   1.730  10.572 -1.9431 -0.3684  0.3472
  147MOL0     H19793   1.831   1.590  10.560 -0.3565 -0.2135 -1.9530
  147MOL0     H19794   1.645   1.577  10.744 -2.6099  1.1687  0.0989
  147MOL0     H19795   1.532   1.583  10.607  0.0065  1.4736  0.4516
  147MOL0     H19796   1.802   1.360  10.768 -0.9936 -1.0439  2.5449
  147MOL0     H19797   1.632   1.028  10.788  1.0001 -0.2158 -0.8139
  147MOL0     H19798   1.799   1.055  10.733 -2.7651 -3.5365 -3.6891
  147MOL0     H19799   1.799   1.043  10.979  1.7806  1.3140 -0.1848
  147MOL0     H19800   1.844   1.201  10.917 -1.9818  1.2685 -2.2937
  147MOL0     H19801   1.597   1.280  10.955 -2.5354 -0.8070  0.6888
  147MOL0     H19802   1.708   1.243  11.099 -1.4255  1.0636  0.1700
  147MOL0     H19803   1.602   1.018  11.094 -0.2186  0.2654  2.0126
  147MOL0     H19804   1.492   1.071  10.970 -0.9384 -0.7522 -0.3352
  147MOL0     H19805   1.294   1.120  10.975  0.4337  0.8842 -1.5558
  147MOL0     H19806   1.099   1.231  10.957  2.0541  2.4101 -2.8758
  147MOL0     H19807   0.774   1.607  11.101  1.2827 -0.5005 -0.8161
  147MOL0     H19808   0.518   1.617  11.081  2.1021  2.1881 -1.5232
  147MOL0     H19809   0.314   1.599  11.034 -0.8613  0.2474  1.0737
  147MOL0     H19810   0.308   1.624  10.863  3.5128 -2.0523 -1.5892
  147MOL0     H19811   0.098   1.460  10.848 -4.5707  1.7353  2.2364
  147MOL0     H19812   0.124   1.428  11.011 -1.0120 -0.8360 -0.5438
  147MOL0     H19813   0.085   1.681  11.052  0.8798  0.9727 -1.0233
  147MOL0     H19814   0.068   1.690  10.881 -0.9301 -1.1478 -0.0698
  147MOL0     H19815  -0.138   1.540  11.071 -1.6879 -0.1087 -0.1400
  147MOL0     H19816  -0.137   1.543  10.891 -0.3905 -1.2401  0.6783
  147MOL0     H19817  -0.141   1.785  10.881  2.1481 -0.3599 -0.8387
  147MOL0     H19818  -0.157   1.796  11.061  0.0286 -0.4634  0.3261
  147MOL0     H19819  -0.364   1.677  10.877 -1.2645  2.0984 -1.0566
  147MOL0     H19820  -0.379   1.674  11.055  1.8721  1.7582  2.0041
  147MOL0     H19821  -0.352   1.931  10.916 -1.9887 -0.4287 -0.7119
  147MOL0     H19822  -0.442   1.888  11.075 -1.9745 -2.5137  0.0529
  147MOL0     H19823  -0.591   1.941  10.890 -0.4785  1.0419  3.5865
  147MOL0     H19824  -0.521   1.797  10.802  1.2540  0.7967  0.7634
  147MOL0     H19825   0.549   1.261  10.819 -1.3381 -0.0824  0.4925
  147MOL0     H19826   0.787   1.260  10.860 -0.1227 -0.4922  1.6426
  147MOL0     H19827   1.215   1.525  11.254 -1.1649 -1.0571  1.3244
  147MOL0     H19828   1.428   1.375  11.285 -0.7733  1.9992 -0.9156
  147MOL0     H19829   0.898   1.840  10.293  0.0370  1.2047  0.2156
  147MOL0     H19830   0.705   1.939  10.202 -1.2324 -3.4811 -0.7306
  147MOL0     H19831   0.286   1.923   9.975 -2.3143 -0.2670 -1.6031
  147MOL0     H19832   0.094   2.076   9.937 -0.0434 -0.1691 -3.0391
  147MOL0     H19833   0.159   2.431   9.704 -0.7751  1.6331 -1.9214
  147MOL0     H19834   0.098   2.522   9.858 -1.4540 -0.8561 -0.5252
  147MOL0     H19835  -0.130   2.443   9.792 -0.3891  0.9095 -0.6636
  147MOL0     H19836  -0.063   2.423   9.628  0.6138  2.4569 -0.3555
  147MOL0     H19837  -0.008   2.645   9.608 -3.7857 -1.0014 -3.1746
  147MOL0     H19838  -0.045   2.670   9.789  0.8728 -1.3679  0.3740
  147MOL0     H19839  -0.245   2.615   9.561  4.1953 -3.9229 -0.7260
  147MOL0     H19840  -0.294   2.609   9.731  0.9690  0.2784  1.5556
  147MOL0     H19841  -0.290   3.029   9.655 -2.1553 -0.3894  1.0723
  147MOL0     H19842   0.322   2.386   9.820 -1.1491  1.1861  2.1696
  147MOL0     H19843   0.633   2.212   9.776  1.1720  2.3771 -1.2225
  147MOL0     H19844   0.555   2.369   9.799 -0.2086  0.4067  0.8339
  147MOL0     H19845   0.626   2.285   9.941  0.1817 -3.6091  0.5975
  148MOL0     O19846   7.520   3.864   4.643 -0.3950  0.5889  0.5632
  148MOL0     C19847   7.405   3.860   4.676 -0.4219 -0.1975  0.1520
  148MOL0     O19848   7.359   3.941   4.783 -0.6204 -0.4977 -0.3762
  148MOL0     C19849   7.444   4.029   4.858 -0.5911  0.0630  1.5720
  148MOL0     C19850   7.396   4.149   4.908 -0.2186 -0.9979 -0.4989
  148MOL0     C19851   7.494   4.231   4.981 -0.0814  1.1987 -0.1555
  148MOL0     C19852   7.624   4.181   5.011 -0.2444  0.6308  0.3110
  148MOL0     O19853   7.721   4.254   5.082  0.2652  0.3517  0.9833
  148MOL0     C19854   7.694   4.376   5.144  0.3862 -0.9615 -0.1189
  148MOL0     C19855   7.817   4.403   5.228  0.3175  0.3946  0.3586
  148MOL0     C19856   7.817   4.552   5.280 -0.6212  0.3333  0.1458
  148MOL0     C19857   7.956   4.607   5.300 -0.0659  0.1626 -0.4053
  148MOL0     C19858   7.949   4.752   5.356 -0.2180  0.0988  0.0500
  148MOL0     C19859   8.093   4.811   5.372  0.7576 -0.7502  0.3528
  148MOL0     C19860   8.156   4.852   5.241 -0.0156  0.6102  0.3867
  148MOL0     C19861   8.309   4.875   5.239  0.4153  0.5922 -0.0460
  148MOL0     N19862   8.345   4.967   5.344  0.4266  0.4564 -0.3406
  148MOL0     C19863   8.324   5.105   5.346 -0.6610  0.1928 -0.6409
  148MOL0     C19864   8.359   5.151   5.469 -0.0867  0.1434  0.3487
  148MOL0     C19865   8.335   5.289   5.527 -1.0695 -0.3333 -0.1385
  148MOL0     C19866   8.458   5.383   5.517 -0.6242 -0.2302 -0.8814
  148MOL0     C19867   8.428   5.521   5.575 -0.6408  0.4172 -0.1943
  148MOL0     C19868   8.547   5.618   5.581 -0.5301  0.3530  0.7043
  148MOL0     O19869   8.585   5.671   5.453  0.0698 -0.7636  0.1869
  148MOL0     C19870   8.683   5.768   5.449 -0.3069 -0.3783 -0.8447
  148MOL0     C19871   8.773   5.774   5.339 -0.7677 -0.0118  0.2257
  148MOL0     C19872   8.862   5.882   5.318 -0.5041  0.0967  0.3516
  148MOL0     C19873   8.865   5.987   5.408  0.8709  0.4296 -0.6083
  148MOL0     C19874   8.939   6.115   5.382  0.7509  0.8633  0.7506
  148MOL0     O19875   8.912   6.222   5.460 -0.1451 -0.4226  0.1153
  148MOL0     C19876   8.972   6.344   5.427 -0.4828 -0.0629  0.2754
  148MOL0     C19877   8.960   6.413   5.301 -0.3415  1.2064  0.1125
  148MOL0     C19878   9.024   6.540   5.280  0.7322  0.5147  0.5178
  148MOL0     C19879   9.095   6.604   5.376  0.0424 -0.0453 -0.6253
  148MOL0     O19880   9.148   6.728   5.349  0.2167 -0.5851  0.2328
  148MOL0     C19881   9.248   6.769   5.447  0.5119 -0.6458 -0.7530
  148MOL0     C19882   9.344   6.866   5.379 -0.3742  0.4449  0.3362
  148MOL0     C19883   9.463   6.920   5.452  0.2811  0.5851  0.0599
  148MOL0     C19884   9.542   6.825   5.539 -0.2571 -0.7473 -0.5048
  148MOL0     C19885   9.655   6.915   5.593  0.1512 -0.5722  0.0528
  148MOL0     C19886   9.732   6.877   5.723 -0.7385  0.0145 -0.0163
  148MOL0     C19887   9.791   6.742   5.716  0.7578  0.2045  0.9238
  148MOL0     C19888   9.945   6.732   5.712 -0.0347 -0.3581  0.0401
  148MOL0    Cl19889  10.009   6.826   5.850 -0.1868 -0.1065  0.2381
  148MOL0     C19890   9.094   6.549   5.504  0.3628  0.5345  0.7653
  148MOL0     C19891   9.033   6.423   5.528  0.0042  0.2886 -0.5343
  148MOL0     O19892   9.006   6.121   5.279  0.2312 -0.3161 -0.1943
  148MOL0     C19893   8.779   5.983   5.515  0.4475  0.4308 -0.4161
  148MOL0     C19894   8.688   5.879   5.532 -0.6335  0.6284  0.4612
  148MOL0     N19895   8.410   5.044   5.534 -0.6227  0.2449 -0.4169
  148MOL0     N19896   8.402   4.937   5.460 -0.3478  0.2541  0.7483
  148MOL0     C19897   7.653   4.053   4.974  0.0058  0.7027  0.0805
  148MOL0     C19898   7.573   3.979   4.891 -0.3136 -0.3098 -1.1714
  148MOL0     C19899   7.318   3.762   4.596  0.2087 -0.1253 -0.0099
  148MOL0     C19900   7.382   3.642   4.563  0.7532 -0.0065 -0.2150
  148MOL0     C19901   7.322   3.546   4.483 -0.1331 -1.1606 -0.0350
  148MOL0     C19902   7.191   3.573   4.441  0.8873 -0.6118 -0.0395
  148MOL0     O19903   7.137   3.472   4.365  0.2791  0.6929  0.5210
  148MOL0     C19904   7.003   3.483   4.310 -0.1285  0.2996  0.4257
  148MOL0     C19905   6.989   3.375   4.196 -0.3604 -0.2105  0.1395
  148MOL0     C19906   6.997   3.231   4.251 -0.0003  0.1949 -0.2502
  148MOL0     C19907   7.039   3.131   4.142  0.8615  0.3882  0.0897
  148MOL0     C19908   6.924   3.123   4.049 -0.1992 -0.4995  0.0429
  148MOL0     C19909   6.822   3.132   3.985  0.5537  0.3074 -0.8254
  148MOL0     C19910   7.119   3.676   4.478 -0.8154 -1.1722  0.5726
  148MOL0     C19911   7.181   3.780   4.559  0.0863  0.2566 -0.4073
  148MOL0     C19912   7.100   3.897   4.606 -0.2809 -0.0891 -0.4583
  148MOL0     H19913   7.294   4.178   4.886 -0.7890 -2.4747  0.0735
  148MOL0     H19914   7.448   4.322   5.018  1.1148  1.1284  1.6843
  148MOL0     H19915   7.692   4.458   5.072  2.6252  0.3297  1.1332
  148MOL0     H19916   7.600   4.370   5.200  0.8621 -1.5511  0.6373
  148MOL0     H19917   7.903   4.407   5.160 -0.5060  0.3304 -0.7203
  148MOL0     H19918   7.834   4.332   5.309  1.0785  0.0958 -0.0471
  148MOL0     H19919   7.763   4.558   5.375 -4.0212  0.5453 -1.6418
  148MOL0     H19920   7.749   4.607   5.214  0.7463  0.5094 -1.1773
  148MOL0     H19921   8.013   4.539   5.365 -0.3442 -1.2509 -1.5982
  148MOL0     H19922   8.019   4.604   5.211  4.2187 -1.5621  2.3198
  148MOL0     H19923   7.889   4.817   5.292 -1.5410 -2.1357 -1.1156
  148MOL0     H19924   7.904   4.754   5.455 -1.3168 -0.3982 -0.4235
  148MOL0     H19925   8.076   4.900   5.433  0.5484 -2.6862  3.3522
  148MOL0     H19926   8.158   4.745   5.431 -0.1705 -0.1878  2.0852
  148MOL0     H19927   8.106   4.948   5.223 -0.4943  0.2802 -0.0933
  148MOL0     H19928   8.131   4.778   5.164  2.1468 -2.1350  2.1472
  148MOL0     H19929   8.356   4.776   5.245 -0.7868 -0.0071 -0.1559
  148MOL0     H19930   8.343   4.925   5.148 -1.7610 -0.7940 -1.7355
  148MOL0     H19931   8.277   5.176   5.278 -2.7296 -1.6099 -1.1832
  148MOL0     H19932   8.251   5.337   5.476 -1.4615 -1.0954 -0.2242
  148MOL0     H19933   8.319   5.277   5.635 -1.5487  1.8797  0.0979
  148MOL0     H19934   8.546   5.351   5.573  0.3293  1.5467 -1.2833
  148MOL0     H19935   8.494   5.394   5.414 -0.2333 -0.3352 -0.7553
  148MOL0     H19936   8.400   5.501   5.679  0.5812 -0.9729 -0.0905
  148MOL0     H19937   8.341   5.564   5.526 -2.1203  0.1137  2.0380
  148MOL0     H19938   8.632   5.558   5.615 -1.3506 -0.9906  0.4612
  148MOL0     H19939   8.531   5.687   5.664 -1.1457 -1.4386  2.1376
  148MOL0     H19940   8.764   5.691   5.269 -0.6391 -1.1543  1.5109
  148MOL0     H19941   8.921   5.895   5.227  0.6767  1.8864  1.3195
  148MOL0     H19942   8.914   6.359   5.219  1.0603 -0.8693  0.6354
  148MOL0     H19943   9.021   6.594   5.186  1.3703  0.5877  0.5367
  148MOL0     H19944   9.204   6.825   5.531  2.7779  1.8163 -1.0757
  148MOL0     H19945   9.314   6.688   5.479  1.0163  0.4887  1.2449
  148MOL0     H19946   9.391   6.822   5.291  2.0099  2.3379  0.5616
  148MOL0     H19947   9.276   6.938   5.332 -1.2214 -0.1519  0.6114
  148MOL0     H19948   9.528   6.974   5.383 -0.4268  0.4112 -0.7525
  148MOL0     H19949   9.416   7.002   5.508 -1.1636  0.8911 -1.5512
  148MOL0     H19950   9.580   6.738   5.484 -2.2905 -2.2294  0.3401
  148MOL0     H19951   9.487   6.786   5.624  1.4890 -0.2119  0.9279
  148MOL0     H19952   9.626   7.019   5.610 -1.6766 -0.4203 -3.2300
  148MOL0     H19953   9.719   6.945   5.509 -1.3464  0.3749 -0.8040
  148MOL0     H19954   9.809   6.954   5.725 -2.4935  1.8348  2.0172
  148MOL0     H19955   9.681   6.895   5.818 -0.7318 -0.3170  0.0490
  148MOL0     H19956   9.756   6.698   5.623  1.7630 -0.0204  0.6355
  148MOL0     H19957   9.746   6.685   5.798 -0.1656 -1.6671 -0.8255
  148MOL0     H19958   9.979   6.630   5.733 -0.5738 -0.7302 -0.8359
  148MOL0     H19959   9.975   6.770   5.614  0.3430  1.6580  0.8863
  148MOL0     H19960   9.139   6.596   5.591  0.6632 -1.3027  1.6537
  148MOL0     H19961   9.048   6.398   5.633  2.1950  1.6594 -0.4674
  148MOL0     H19962   8.781   6.064   5.587 -1.0743  0.3882 -0.3047
  148MOL0     H19963   8.624   5.888   5.620  1.0523 -0.2414  1.8298
  148MOL0     H19964   7.750   4.015   5.004 -0.2198  0.2673  0.2655
  148MOL0     H19965   7.587   3.874   4.869 -0.8982 -1.5223  3.2513
  148MOL0     H19966   7.478   3.626   4.612 -1.0026 -0.3262  3.5298
  148MOL0     H19967   7.369   3.450   4.466  2.2570  0.1306 -1.2924
  148MOL0     H19968   6.988   3.582   4.266 -2.6202  2.3347  5.0893
  148MOL0     H19969   6.927   3.474   4.388  0.4330 -1.0847  0.8406
  148MOL0     H19970   7.073   3.386   4.127  0.2852 -0.3863  0.8806
  148MOL0     H19971   6.897   3.374   4.137 -0.6989  1.0570  0.6196
  148MOL0     H19972   6.901   3.196   4.290  1.6697 -1.8547  2.3308
  148MOL0     H19973   7.067   3.204   4.330 -1.7073 -3.9726  0.1154
  148MOL0     H19974   7.121   3.173   4.082 -1.0904  1.5679 -1.8817
  148MOL0     H19975   7.081   3.044   4.193 -0.5213 -0.4309 -0.1488
  148MOL0     H19976   6.734   3.120   3.925  0.8846  0.9801 -1.4518
  148MOL0     H19977   7.013   3.690   4.462 -0.4117  0.0507 -1.4820
  148MOL0     H19978   7.149   3.995   4.611  1.4324 -0.9257 -0.4396
  148MOL0     H19979   7.016   3.915   4.539 -0.9231  2.0167  0.7993
  148MOL0     H19980   7.050   3.870   4.700  0.2320  3.2085  0.9139
  149MOL0     O19981  11.253   8.162   9.546 -0.3908 -0.0970 -0.1725
  149MOL0     C19982  11.247   8.214   9.658 -0.1589 -0.6896  0.4848
  149MOL0     O19983  11.341   8.213   9.750 -0.2033 -0.1611  0.3394
  149MOL0     C19984  11.468   8.153   9.735 -0.4127 -0.8822  0.8810
  149MOL0     C19985  11.577   8.229   9.693  0.2507  0.7651 -0.2506
  149MOL0     C19986  11.701   8.168   9.674  0.5254 -0.6132  0.6770
  149MOL0     C19987  11.724   8.029   9.704 -0.2361  0.9973 -0.1768
  149MOL0     O19988  11.855   7.977   9.711  0.1761  0.0281  0.1971
  149MOL0     C19989  11.878   7.837   9.672  0.1207  0.3686 -0.5937
  149MOL0     C19990  12.009   7.790   9.735 -0.3647  0.1979  1.0935
  149MOL0     C19991  12.056   7.650   9.687  0.0704  0.2356  0.9856
  149MOL0     C19992  12.205   7.603   9.713  0.6909 -0.3882 -0.0703
  149MOL0     C19993  12.248   7.639   9.854 -0.7768 -0.5280  0.3034
  149MOL0     C19994  12.380   7.576   9.886  0.4022 -0.6369 -0.4236
  149MOL0     C19995  12.428   7.632  10.019 -1.0099  0.6340 -0.3623
  149MOL0     C19996  12.539   7.546  10.080  0.1328  1.2569  0.0883
  149MOL0     N19997  12.665   7.596  10.031  0.1909 -0.3217  0.7019
  149MOL0     C19998  12.721   7.717  10.071  1.0036  0.9945  1.2128
  149MOL0     C19999  12.842   7.718  10.018 -0.2523  0.3763 -0.5872
  149MOL0     C20000  12.950   7.820  10.044 -0.3309 -0.2361  1.0327
  149MOL0     C20001  12.993   7.811  10.193  0.2305  0.2764  0.3859
  149MOL0     C20002  13.098   7.692  10.209  0.1921  0.8955  0.7732
  149MOL0     C20003  13.129   7.658  10.354 -0.2762 -0.1074 -0.3191
  149MOL0     O20004  13.001   7.640  10.417 -0.3513  0.2737  0.3805
  149MOL0     C20005  12.938   7.522  10.384 -0.0168  0.0237  0.7032
  149MOL0     C20006  13.003   7.393  10.354  0.1868 -0.0147 -0.0023
  149MOL0     C20007  12.917   7.286  10.336 -0.7995  0.6196  0.0361
  149MOL0     C20008  12.775   7.287  10.347 -0.5391  0.1785  0.2501
  149MOL0     C20009  12.695   7.159  10.326 -0.2309  0.0055 -0.8803
  149MOL0     O20010  12.563   7.191  10.310  0.3887  1.0758 -0.3193
  149MOL0     C20011  12.490   7.076  10.307 -0.1942 -0.5292  0.2729
  149MOL0     C20012  12.408   7.046  10.197  0.4235  0.1912  0.2105
  149MOL0     C20013  12.322   6.932  10.198 -0.0829 -1.4757  0.1631
  149MOL0     C20014  12.317   6.855  10.310 -0.5528  0.4887 -0.3779
  149MOL0     O20015  12.243   6.742  10.296  0.9508 -0.0119  1.3536
  149MOL0     C20016  12.246   6.634  10.385  0.2297  0.7634 -0.3189
  149MOL0     C20017  12.379   6.563  10.374 -1.0591 -0.0895 -0.8796
  149MOL0     C20018  12.379   6.492  10.245 -0.2524  0.7930 -0.4941
  149MOL0     C20019  12.502   6.400  10.231  0.3960 -0.5173 -0.2605
  149MOL0     C20020  12.497   6.319  10.101 -0.0145  0.3518  0.1914
  149MOL0     C20021  12.600   6.216  10.069  0.5417 -0.5770 -0.6658
  149MOL0     C20022  12.734   6.252  10.018 -0.4107 -0.5139  0.0502
  149MOL0     C20023  12.836   6.151  10.068 -0.0138 -1.0342 -0.2091
  149MOL0    Cl20024  12.838   6.183  10.248 -0.3353 -0.1007 -0.2595
  149MOL0     C20025  12.390   6.895  10.422 -0.3753 -0.4105 -0.7087
  149MOL0     C20026  12.477   7.006  10.423  0.9979 -0.0036  0.4646
  149MOL0     O20027  12.743   7.051  10.320  0.0624 -0.3547 -0.3135
  149MOL0     C20028  12.730   7.415  10.355  0.3514  0.2988 -0.5382
  149MOL0     C20029  12.805   7.530  10.372  0.6761 -1.0816 -0.0615
  149MOL0     N20030  12.870   7.587   9.957  0.3045 -0.6620  0.5734
  149MOL0     N20031  12.759   7.522   9.964  0.4292  0.2741  0.3636
  149MOL0     C20032  11.616   7.951   9.745  0.1109 -0.4779 -0.3778
  149MOL0     C20033  11.483   8.014   9.755  0.1456  0.8688  0.9072
  149MOL0     C20034  11.112   8.243   9.698 -0.0349 -0.7728 -0.1533
  149MOL0     C20035  11.008   8.238   9.599 -0.0954 -0.7159  0.4150
  149MOL0     C20036  10.870   8.270   9.625  0.8766  0.0985  0.4967
  149MOL0     C20037  10.833   8.298   9.761 -0.8208  1.4108  0.4821
  149MOL0     O20038  10.703   8.314   9.804  0.0483 -0.0634 -0.0282
  149MOL0     C20039  10.604   8.338   9.707 -0.3045 -1.1166  0.3468
  149MOL0     C20040  10.601   8.473   9.634 -0.5459  0.6053 -1.3089
  149MOL0     C20041  10.554   8.459   9.487 -0.0498  1.1670 -0.0218
  149MOL0     C20042  10.571   8.586   9.405  0.5610 -0.2294 -0.5815
  149MOL0     C20043  10.712   8.630   9.387  0.4319 -0.1740  0.0045
  149MOL0     C20044  10.825   8.662   9.353  0.1917 -0.5710  1.1774
  149MOL0     C20045  10.934   8.303   9.857  0.7886 -0.2986  0.2139
  149MOL0     C20046  11.067   8.282   9.831 -0.1444 -0.5049 -0.0095
  149MOL0     C20047  11.152   8.274   9.959  0.1341  0.0606  0.4492
  149MOL0     H20048  11.571   8.335   9.669 -2.6775  0.3491 -1.8769
  149MOL0     H20049  11.793   8.219   9.651  0.4342  0.1236  1.8651
  149MOL0     H20050  11.792   7.776   9.705  1.2481 -0.9162  0.0754
  149MOL0     H20051  11.873   7.823   9.564  0.6451 -2.2375 -0.3378
  149MOL0     H20052  12.000   7.787   9.844 -0.1867 -2.0558  1.0870
  149MOL0     H20053  12.091   7.857   9.709 -1.0998  0.7963  0.2610
  149MOL0     H20054  12.045   7.638   9.579  0.2832 -2.2354  1.1688
  149MOL0     H20055  11.985   7.579   9.731 -1.3570 -0.8736 -2.7076
  149MOL0     H20056  12.215   7.494   9.705 -1.7592 -0.6552 -0.2136
  149MOL0     H20057  12.264   7.654   9.636 -0.4586 -2.3077 -2.3599
  149MOL0     H20058  12.248   7.748   9.867 -0.2085 -0.5822  0.7748
  149MOL0     H20059  12.184   7.598   9.932 -2.3413 -0.7644 -1.0594
  149MOL0     H20060  12.363   7.468   9.891  2.1163 -1.0521 -2.2501
  149MOL0     H20061  12.452   7.606   9.810 -2.3651  2.7101 -1.9479
  149MOL0     H20062  12.345   7.633  10.090  0.2301  3.5485  1.2322
  149MOL0     H20063  12.466   7.734  10.009 -1.6526  0.6727 -3.2060
  149MOL0     H20064  12.532   7.558  10.188 -3.1333  0.3625  0.0764
  149MOL0     H20065  12.523   7.441  10.053  1.0567  1.4611 -1.3536
  149MOL0     H20066  12.679   7.788  10.143  3.7438  2.7746  1.2200
  149MOL0     H20067  13.029   7.772   9.986 -1.0434 -0.8164  0.5293
  149MOL0     H20068  12.921   7.922  10.019  3.5915  0.6138 -0.8024
  149MOL0     H20069  13.035   7.909  10.216 -0.4989  0.6353  0.2105
  149MOL0     H20070  12.909   7.804  10.262 -0.6017 -1.3765 -0.7306
  149MOL0     H20071  13.192   7.716  10.159  0.6703 -2.2993 -0.0711
  149MOL0     H20072  13.053   7.604  10.162  2.4095 -0.9726  1.9579
  149MOL0     H20073  13.180   7.746  10.395 -0.8028  0.8848 -1.7345
  149MOL0     H20074  13.194   7.569  10.359 -0.6476 -0.3575  4.3424
  149MOL0     H20075  13.109   7.382  10.335 -0.2403 -0.2268 -2.5536
  149MOL0     H20076  12.950   7.187  10.308 -1.6787 -0.0930  1.4171
  149MOL0     H20077  12.433   7.121  10.123  0.9826  2.2426  2.3235
  149MOL0     H20078  12.262   6.899  10.113  0.3603  2.0913 -1.7483
  149MOL0     H20079  12.219   6.673  10.484  1.5352 -0.9980  0.7968
  149MOL0     H20080  12.167   6.564  10.357 -1.0401  2.4064 -1.0403
  149MOL0     H20081  12.453   6.643  10.378 -1.9640  0.7058  0.5857
  149MOL0     H20082  12.387   6.494  10.458  0.9026 -0.1066 -1.0411
  149MOL0     H20083  12.296   6.421  10.238  1.1456 -0.8076 -2.0071
  149MOL0     H20084  12.360   6.569  10.169  0.2489  0.4197 -1.0064
  149MOL0     H20085  12.496   6.338  10.321 -0.3591 -1.0114 -0.6434
  149MOL0     H20086  12.593   6.460  10.240  0.3003 -0.1466 -1.5836
  149MOL0     H20087  12.509   6.393  10.021  0.0200 -0.8490 -0.9542
  149MOL0     H20088  12.395   6.281  10.087  0.3277 -0.0771 -1.3070
  149MOL0     H20089  12.610   6.139  10.146  2.6940  2.1048  1.9717
  149MOL0     H20090  12.552   6.155   9.992 -1.4553 -0.6345  0.5648
  149MOL0     H20091  12.761   6.356  10.037  0.8532 -0.2573 -2.6274
  149MOL0     H20092  12.735   6.235   9.909 -0.6740 -2.5072  0.3055
  149MOL0     H20093  12.794   6.053  10.044  1.1550 -1.4409 -0.6590
  149MOL0     H20094  12.932   6.172  10.021 -1.6768  1.3347 -2.8964
  149MOL0     H20095  12.377   6.844  10.517  2.0885  0.5219  0.2212
  149MOL0     H20096  12.512   7.044  10.518  1.0071  0.9037  0.1044
  149MOL0     H20097  12.622   7.420  10.352  0.1129 -2.7581 -1.3657
  149MOL0     H20098  12.762   7.627  10.394  0.1596 -1.4791  0.7109
  149MOL0     H20099  11.625   7.846   9.769  0.2250 -0.4009 -0.0699
  149MOL0     H20100  11.394   7.954   9.768  1.1529 -0.6056  1.2328
  149MOL0     H20101  11.032   8.228   9.493 -0.2984 -3.0242  0.5291
  149MOL0     H20102  10.801   8.273   9.542 -0.4841  0.3847  1.6072
  149MOL0     H20103  10.509   8.345   9.761 -0.1706 -2.3180  0.7586
  149MOL0     H20104  10.597   8.251   9.641 -1.6600 -0.4304 -0.4699
  149MOL0     H20105  10.704   8.511   9.631  0.1829 -1.2691 -1.8933
  149MOL0     H20106  10.547   8.542   9.699 -1.7389 -0.0946 -1.5205
  149MOL0     H20107  10.451   8.421   9.481  0.6475 -0.9819  0.7813
  149MOL0     H20108  10.618   8.382   9.443  1.0922  0.7123  2.2905
  149MOL0     H20109  10.528   8.569   9.305  2.2780  1.6488 -1.7023
  149MOL0     H20110  10.511   8.667   9.446  1.5703  0.4245 -0.3769
  149MOL0     H20111  10.928   8.678   9.330 -0.0390  0.3475  0.7217
  149MOL0     H20112  10.901   8.324   9.958 -0.3014 -0.9590  0.0163
  149MOL0     H20113  11.219   8.188   9.957 -0.0969 -0.1145 -1.1109
  149MOL0     H20114  11.226   8.353   9.948  0.1787 -0.0645 -0.1674
  149MOL0     H20115  11.102   8.289  10.056  0.2981  0.1892  0.5145
  150MOL0     O20116   3.524   0.158   0.175 -0.7504 -0.3060  0.1685
  150MOL0     C20117   3.408   0.130   0.196 -0.5191 -0.0665  0.2650
  150MOL0     O20118   3.364   0.033   0.296 -0.6777 -0.5671  0.9291
  150MOL0     C20119   3.462  -0.043   0.346  0.6269  0.2160  0.4735
  150MOL0     C20120   3.510  -0.161   0.281 -0.0267 -0.4677  0.1050
  150MOL0     C20121   3.604  -0.256   0.330  0.7734  0.4701 -0.8146
  150MOL0     C20122   3.654  -0.232   0.462  0.0098 -1.0433  0.8454
  150MOL0     O20123   3.736  -0.312   0.521  0.6621  0.3094 -0.1639
  150MOL0     C20124   3.866  -0.306   0.469  0.4252  0.5449  0.4026
  150MOL0     C20125   3.930  -0.438   0.514  0.0716  0.6659  1.2611
  150MOL0     C20126   3.958  -0.529   0.395 -0.0360 -0.9392 -0.1529
  150MOL0     C20127   4.083  -0.478   0.320 -0.4053  0.0215  0.3673
  150MOL0     C20128   4.147  -0.582   0.229  0.1476 -0.4282  0.3148
  150MOL0     C20129   4.230  -0.696   0.293 -0.1609 -0.0455  1.0757
  150MOL0     C20130   4.310  -0.776   0.174 -0.5807  0.2056 -0.3567
  150MOL0     C20131   4.361  -0.900   0.243 -0.7146  0.3436 -0.5429
  150MOL0     N20132   4.455  -0.980   0.161  0.2845 -0.2310 -0.6196
  150MOL0     C20133   4.542  -1.066   0.229 -0.4283 -0.2950  0.5188
  150MOL0     C20134   4.565  -1.156   0.129 -0.1932 -0.0234  0.0339
  150MOL0     C20135   4.633  -1.279   0.175  0.4272  0.4724 -0.0614
  150MOL0     C20136   4.755  -1.241   0.257  0.5388  0.4078 -0.3287
  150MOL0     C20137   4.848  -1.362   0.279 -0.0812  0.6064  0.2810
  150MOL0     C20138   4.967  -1.322   0.357 -0.4858 -0.7258  0.2970
  150MOL0     O20139   5.019  -1.453   0.403  1.1370 -0.9345 -0.6037
  150MOL0     C20140   5.153  -1.457   0.433  0.3350  0.4112  0.3177
  150MOL0     C20141   5.252  -1.409   0.349  0.3504  0.5982 -0.1877
  150MOL0     C20142   5.393  -1.409   0.390  0.2089  0.2964 -0.5165
  150MOL0     C20143   5.429  -1.469   0.515  0.5958  0.5839 -0.4034
  150MOL0     C20144   5.567  -1.481   0.554 -0.1991  0.3355  0.0025
  150MOL0     O20145   5.660  -1.476   0.454 -0.2023  0.2295 -0.4503
  150MOL0     C20146   5.798  -1.481   0.496  0.7200 -0.2554 -0.0890
  150MOL0     C20147   5.875  -1.545   0.397 -1.1575 -0.1778  0.1912
  150MOL0     C20148   6.013  -1.556   0.406 -0.8922  0.4020  0.4565
  150MOL0     C20149   6.078  -1.498   0.513 -1.3179 -0.3920 -0.2657
  150MOL0     O20150   6.215  -1.498   0.510 -0.3236  0.1101  0.4218
  150MOL0     C20151   6.297  -1.513   0.629 -0.6189  0.8038  0.0860
  150MOL0     C20152   6.432  -1.550   0.585 -0.1179  0.0367 -0.5875
  150MOL0     C20153   6.527  -1.570   0.704  0.2318 -0.0900 -0.3035
  150MOL0     C20154   6.652  -1.660   0.677 -0.0943 -0.4532 -0.5885
  150MOL0     C20155   6.774  -1.623   0.759  0.9591  0.1194  0.8054
  150MOL0     C20156   6.904  -1.689   0.712  0.9709 -0.0590  0.0230
  150MOL0     C20157   7.025  -1.667   0.798  0.0946  0.0368 -0.5677
  150MOL0     C20158   7.114  -1.801   0.799  0.0359 -0.7006 -0.1389
  150MOL0    Cl20159   7.283  -1.740   0.840 -0.2474 -0.0248  0.3603
  150MOL0     C20160   6.002  -1.420   0.607 -0.1900 -0.8058  0.5995
  150MOL0     C20161   5.857  -1.405   0.586 -0.1666 -0.7129 -1.6694
  150MOL0     O20162   5.593  -1.480   0.672  0.2489  0.6532  1.0069
  150MOL0     C20163   5.323  -1.520   0.590 -0.7571  0.5680  0.4059
  150MOL0     C20164   5.188  -1.513   0.551 -0.0635  0.8466 -0.2463
  150MOL0     N20165   4.502  -1.130   0.012 -0.4236 -0.4401  0.4201
  150MOL0     N20166   4.447  -1.015   0.030 -0.7203 -0.0488 -0.0839
  150MOL0     C20167   3.596  -0.127   0.538 -1.0008  0.1304  0.1016
  150MOL0     C20168   3.507  -0.034   0.484 -0.6114 -0.2384  0.7778
  150MOL0     C20169   3.301   0.201   0.111 -0.6867 -0.7851 -1.0245
  150MOL0     C20170   3.339   0.266  -0.008 -0.5263  0.8769 -0.0349
  150MOL0     C20171   3.262   0.356  -0.073  1.0873  0.3766 -0.0236
  150MOL0     C20172   3.128   0.375  -0.035 -0.1642 -0.1692  0.8964
  150MOL0     O20173   3.040   0.468  -0.086  0.4015  0.4668 -0.3503
  150MOL0     C20174   3.078   0.557  -0.196 -0.0553 -0.2582  0.4026
  150MOL0     C20175   2.965   0.653  -0.210  0.5143  0.3247  0.4729
  150MOL0     C20176   2.944   0.744  -0.089 -0.2269  0.1419  0.9282
  150MOL0     C20177   2.839   0.843  -0.121 -0.4516 -1.2776 -0.4015
  150MOL0     C20178   2.700   0.799  -0.151 -0.0888  0.1012 -0.3867
  150MOL0     C20179   2.585   0.760  -0.150  0.2211  0.4531 -1.3077
  150MOL0     C20180   3.076   0.287   0.063 -0.5495  0.1117  0.7099
  150MOL0     C20181   3.162   0.199   0.140  0.1591 -0.0755  0.3250
  150MOL0     C20182   3.095   0.134   0.256  1.1889  0.6819 -0.4806
  150MOL0     H20183   3.461  -0.188   0.188 -0.2941  1.3982 -0.3259
  150MOL0     H20184   3.626  -0.347   0.274 -0.2062 -0.1755 -0.1779
  150MOL0     H20185   3.880  -0.280   0.364  0.7910  1.2364  0.6146
  150MOL0     H20186   3.921  -0.229   0.523  2.1034 -1.0488  1.0764
  150MOL0     H20187   3.851  -0.488   0.571 -0.5701  0.4361  0.2126
  150MOL0     H20188   4.013  -0.419   0.582 -0.5905  3.9005  1.2956
  150MOL0     H20189   3.870  -0.518   0.331 -0.3651  1.0818  0.5775
  150MOL0     H20190   3.957  -0.633   0.429  0.5852 -0.4792  1.3493
  150MOL0     H20191   4.050  -0.397   0.254 -0.3135  0.1724  0.5033
  150MOL0     H20192   4.158  -0.430   0.385 -1.0271 -0.1653  1.2420
  150MOL0     H20193   4.076  -0.626   0.159  0.9844 -2.0657  0.4298
  150MOL0     H20194   4.215  -0.535   0.157 -2.4317  0.7485 -1.4627
  150MOL0     H20195   4.299  -0.655   0.367 -1.0147 -0.0306  1.8789
  150MOL0     H20196   4.159  -0.767   0.336 -0.8012 -0.6643 -0.8634
  150MOL0     H20197   4.385  -0.717   0.120 -0.1349 -2.4054 -2.8200
  150MOL0     H20198   4.235  -0.801   0.098 -0.0112  0.3167 -0.9612
  150MOL0     H20199   4.406  -0.874   0.339  0.4477  0.1202 -1.0155
  150MOL0     H20200   4.275  -0.968   0.248  2.5568 -4.1043  2.1168
  150MOL0     H20201   4.579  -1.074   0.330 -1.6355 -1.5321  0.8778
  150MOL0     H20202   4.559  -1.346   0.221 -1.6862  0.8768 -2.6239
  150MOL0     H20203   4.665  -1.338   0.088 -1.0144  1.7641 -1.5456
  150MOL0     H20204   4.805  -1.173   0.187  1.9084 -0.4251 -0.2064
  150MOL0     H20205   4.738  -1.203   0.359  1.1096  1.1295 -0.4897
  150MOL0     H20206   4.872  -1.412   0.185 -2.8560  0.4346 -0.4300
  150MOL0     H20207   4.798  -1.444   0.333  2.8868 -0.4286  1.7146
  150MOL0     H20208   4.931  -1.262   0.441 -1.8765  0.7336 -1.2590
  150MOL0     H20209   5.039  -1.271   0.292  1.2225 -1.8157  1.2608
  150MOL0     H20210   5.229  -1.376   0.249 -0.8894 -1.0778 -0.4935
  150MOL0     H20211   5.476  -1.388   0.324  1.1502  0.0975  0.5677
  150MOL0     H20212   5.832  -1.578   0.304 -0.2202  0.1036 -0.3530
  150MOL0     H20213   6.083  -1.605   0.339  1.4725  0.7601  2.5304
  150MOL0     H20214   6.300  -1.426   0.694 -1.2958  1.2541 -0.4621
  150MOL0     H20215   6.256  -1.594   0.690 -0.5091  2.1218  2.0087
  150MOL0     H20216   6.423  -1.648   0.537 -0.4795 -1.4393  2.2655
  150MOL0     H20217   6.468  -1.471   0.519  0.9827  1.0675  1.1832
  150MOL0     H20218   6.566  -1.477   0.746 -1.6490 -0.5971  2.9064
  150MOL0     H20219   6.466  -1.614   0.783  0.7404 -0.2090  0.0326
  150MOL0     H20220   6.688  -1.649   0.574 -0.1237  1.1713 -0.4470
  150MOL0     H20221   6.629  -1.766   0.696  0.4182 -0.1701  1.9575
  150MOL0     H20222   6.741  -1.654   0.858 -2.2061 -1.8571 -0.7013
  150MOL0     H20223   6.794  -1.516   0.748 -2.6261  0.8778  0.4801
  150MOL0     H20224   6.892  -1.796   0.697  0.9269 -0.5105  2.7872
  150MOL0     H20225   6.927  -1.648   0.613  1.2195 -0.8144 -0.2377
  150MOL0     H20226   6.985  -1.647   0.898 -2.0245  0.1440 -1.3829
  150MOL0     H20227   7.088  -1.586   0.759  1.6978  0.2615  2.1805
  150MOL0     H20228   7.081  -1.858   0.886 -0.1473 -0.2406  0.0994
  150MOL0     H20229   7.095  -1.874   0.720 -1.8584 -1.5012  1.0004
  150MOL0     H20230   6.071  -1.369   0.673  1.7604 -0.1497 -1.7827
  150MOL0     H20231   5.800  -1.340   0.652  1.3148 -1.2454  0.2552
  150MOL0     H20232   5.346  -1.579   0.678  2.5265  1.2450  0.1304
  150MOL0     H20233   5.106  -1.558   0.605  1.9903 -2.5873  0.3189
  150MOL0     H20234   3.647  -0.123   0.634 -0.8295 -1.3150  0.1066
  150MOL0     H20235   3.481   0.047   0.551  0.7234  1.2293 -0.4170
  150MOL0     H20236   3.444   0.279  -0.035 -0.4314  2.8617  1.1630
  150MOL0     H20237   3.297   0.412  -0.160  0.8921 -3.8407 -3.1305
  150MOL0     H20238   3.100   0.514  -0.294  1.8161  1.9772 -0.2611
  150MOL0     H20239   3.169   0.610  -0.165 -0.8428  2.1090 -1.0954
  150MOL0     H20240   2.886   0.579  -0.225  1.0664 -0.0163 -0.8541
  150MOL0     H20241   2.985   0.708  -0.302  0.7217 -1.1460 -0.3887
  150MOL0     H20242   3.041   0.792  -0.074  1.6629 -2.1519 -2.5900
  150MOL0     H20243   2.915   0.689   0.001  0.9221 -2.2642 -0.0707
  150MOL0     H20244   2.846   0.917  -0.041  0.7393  0.6262 -2.1610
  150MOL0     H20245   2.879   0.893  -0.210  1.0003 -1.9340 -0.1446
  150MOL0     H20246   2.481   0.733  -0.156 -0.1272  2.0401 -3.2979
  150MOL0     H20247   2.971   0.307   0.084 -0.6600  1.6474 -1.0208
  150MOL0     H20248   3.141   0.035   0.273 -0.8366 -0.0130  1.4323
  150MOL0     H20249   3.118   0.195   0.344  1.6655 -0.5022  0.2462
  150MOL0     H20250   2.992   0.107   0.231  1.6085 -1.3854 -0.1630
  151MOL0     O20251   2.327   1.663   3.067  0.2058 -0.9586 -0.5785
  151MOL0     C20252   2.326   1.581   3.154 -0.7027  0.9210  0.1175
  151MOL0     O20253   2.405   1.475   3.160 -0.1292 -0.0745 -0.5902
  151MOL0     C20254   2.534   1.476   3.113 -0.2376 -0.5786 -0.0586
  151MOL0     C20255   2.599   1.598   3.071  0.8596  0.0361  0.1317
  151MOL0     C20256   2.731   1.599   3.026  0.0829  0.5298  0.5071
  151MOL0     C20257   2.807   1.472   3.029  0.0832  0.0852 -0.1694
  151MOL0     O20258   2.934   1.484   2.978 -0.1548 -0.2316 -0.5124
  151MOL0     C20259   3.026   1.382   3.010 -0.2478 -0.0758  0.5279
  151MOL0     C20260   3.151   1.397   2.917 -0.2125 -0.5189  0.0871
  151MOL0     C20261   3.207   1.256   2.897 -0.4470  0.4539 -1.1958
  151MOL0     C20262   3.330   1.256   2.812 -0.6524  0.4104  0.8348
  151MOL0     C20263   3.390   1.117   2.803  0.2851 -0.0330  0.2952
  151MOL0     C20264   3.526   1.100   2.731  0.3422  1.1074 -0.3288
  151MOL0     C20265   3.570   0.963   2.700  0.2460  0.0743  0.0616
  151MOL0     C20266   3.703   0.965   2.606  1.2395  0.1282  0.2989
  151MOL0     N20267   3.824   1.008   2.670 -0.0874 -0.6548 -0.3023
  151MOL0     C20268   3.902   1.120   2.638 -0.1028  0.7057  0.3070
  151MOL0     C20269   4.005   1.113   2.727 -0.3227  0.5693  0.1612
  151MOL0     C20270   4.129   1.198   2.731 -0.4148 -0.1396 -0.7225
  151MOL0     C20271   4.247   1.111   2.778 -0.5330  0.4044  1.0007
  151MOL0     C20272   4.386   1.172   2.777 -0.5647  0.2562 -0.2274
  151MOL0     C20273   4.507   1.090   2.814 -0.2808 -0.3075  0.4563
  151MOL0     O20274   4.628   1.169   2.818  0.6521 -0.0704  0.8671
  151MOL0     C20275   4.739   1.129   2.894 -0.7603 -0.2888 -0.6392
  151MOL0     C20276   4.750   1.005   2.952  0.5834  0.2125 -0.5381
  151MOL0     C20277   4.870   0.974   3.027 -0.6017  0.2784 -0.3008
  151MOL0     C20278   4.976   1.068   3.044 -0.2839  0.4563  0.1292
  151MOL0     C20279   5.097   1.027   3.118 -0.2269 -0.3334 -1.2645
  151MOL0     O20280   5.103   0.911   3.187  0.1544  0.3846  0.5087
  151MOL0     C20281   5.215   0.896   3.254 -0.8381 -0.6003 -0.1146
  151MOL0     C20282   5.251   0.957   3.373 -0.3218 -0.3413  0.7362
  151MOL0     C20283   5.368   0.922   3.448  0.6057  0.6951  0.0678
  151MOL0     C20284   5.450   0.823   3.398  0.0644  0.0883  0.0545
  151MOL0     O20285   5.550   0.753   3.474  0.0375 -0.2940 -0.4333
  151MOL0     C20286   5.652   0.852   3.527 -1.3911  0.0721 -1.1291
  151MOL0     C20287   5.772   0.778   3.591  0.0754  0.8954 -0.1914
  151MOL0     C20288   5.858   0.711   3.477 -1.1090 -0.6619 -0.5398
  151MOL0     C20289   5.791   0.608   3.383  0.5222  0.1228  0.5839
  151MOL0     C20290   5.893   0.535   3.289 -0.2748  0.6500 -0.7059
  151MOL0     C20291   5.994   0.438   3.361 -0.5078  0.6856 -0.6741
  151MOL0     C20292   6.079   0.381   3.252 -0.2967 -0.3779 -0.9461
  151MOL0     C20293   6.195   0.294   3.310  0.0454 -0.0905  0.1914
  151MOL0    Cl20294   6.124   0.147   3.383  0.1811 -0.1213  0.0641
  151MOL0     C20295   5.406   0.767   3.278 -0.5540 -0.2769 -0.6043
  151MOL0     C20296   5.300   0.793   3.209  0.6051  0.1005  0.6255
  151MOL0     O20297   5.190   1.111   3.122  0.2699  0.8918  0.4864
  151MOL0     C20298   4.957   1.194   2.993  0.3813 -0.7554 -0.1700
  151MOL0     C20299   4.837   1.222   2.914 -1.0853  0.7885 -0.1135
  151MOL0     N20300   3.982   1.000   2.812  0.1845  0.9665 -0.5392
  151MOL0     N20301   3.871   0.941   2.776 -0.5152 -0.1129 -0.6801
  151MOL0     C20302   2.745   1.349   3.077  0.1145  0.4470  0.2712
  151MOL0     C20303   2.606   1.358   3.114  0.4998  0.2901  0.0829
  151MOL0     C20304   2.198   1.585   3.226 -0.4210 -0.1777 -0.0733
  151MOL0     C20305   2.102   1.490   3.206  0.1434 -0.0596 -0.5554
  151MOL0     C20306   1.967   1.510   3.265  0.3280 -0.9953  0.1380
  151MOL0     C20307   1.931   1.629   3.342  0.3647  0.6118  0.3217
  151MOL0     O20308   1.799   1.641   3.390  0.4895  0.5325  0.0369
  151MOL0     C20309   1.786   1.719   3.512  0.3400 -0.2075  0.2438
  151MOL0     C20310   1.642   1.697   3.569 -0.4446  0.5732  0.4138
  151MOL0     C20311   1.619   1.792   3.689  0.3972 -0.1529  0.4954
  151MOL0     C20312   1.476   1.779   3.745  0.3041 -1.3561  0.3885
  151MOL0     C20313   1.431   1.912   3.800  0.1706  1.4656 -0.0623
  151MOL0     C20314   1.390   2.019   3.835 -0.9221 -0.9018  0.6528
  151MOL0     C20315   2.030   1.713   3.367 -0.4452  0.3805 -0.8988
  151MOL0     C20316   2.168   1.692   3.315 -0.3443 -0.4397  0.4067
  151MOL0     C20317   2.277   1.790   3.361  0.1070 -0.3068 -0.1625
  151MOL0     H20318   2.562   1.700   3.075  4.9576  1.6934  0.2394
  151MOL0     H20319   2.778   1.690   2.990 -1.1056  1.1339  0.4485
  151MOL0     H20320   3.054   1.384   3.115  3.6576 -0.7402 -0.3628
  151MOL0     H20321   2.971   1.291   2.986 -1.7378  0.9407 -0.0784
  151MOL0     H20322   3.230   1.454   2.967  0.4522 -1.1817 -0.1809
  151MOL0     H20323   3.117   1.446   2.826 -4.0525 -2.5879  0.1951
  151MOL0     H20324   3.128   1.210   2.837 -0.4230  1.5266 -2.0784
  151MOL0     H20325   3.235   1.220   2.997  1.5116  3.7733 -0.3962
  151MOL0     H20326   3.311   1.307   2.718 -2.9089  0.4148  1.2264
  151MOL0     H20327   3.404   1.321   2.859  1.0463  2.1590 -3.7396
  151MOL0     H20328   3.397   1.076   2.905 -1.8429 -1.2509  0.0142
  151MOL0     H20329   3.310   1.059   2.757  0.8608  0.5803 -1.5354
  151MOL0     H20330   3.506   1.137   2.630 -1.4997 -2.4471 -1.4453
  151MOL0     H20331   3.597   1.163   2.784 -2.4643  4.9131 -0.6963
  151MOL0     H20332   3.492   0.910   2.644 -1.3853 -0.8202  2.9239
  151MOL0     H20333   3.593   0.915   2.796 -0.4060  1.1052  0.7508
  151MOL0     H20334   3.721   0.861   2.577  2.2374 -0.1854  1.9346
  151MOL0     H20335   3.676   1.017   2.514 -3.6585 -1.8069  0.3386
  151MOL0     H20336   3.899   1.178   2.546 -1.0537 -0.7481 -0.6242
  151MOL0     H20337   4.150   1.246   2.635 -0.9974  1.6850  0.0279
  151MOL0     H20338   4.111   1.281   2.801 -2.2907 -1.1936  0.1147
  151MOL0     H20339   4.241   1.085   2.884 -1.1779 -0.3091  0.8034
  151MOL0     H20340   4.247   1.023   2.712  1.3455  1.1723 -0.0972
  151MOL0     H20341   4.386   1.246   2.858  0.5775 -0.3382  0.3292
  151MOL0     H20342   4.403   1.216   2.678 -1.5467  1.0457 -0.0645
  151MOL0     H20343   4.522   1.010   2.741  1.3155  1.2276 -1.0085
  151MOL0     H20344   4.491   1.042   2.911 -1.0506  1.6938  1.3878
  151MOL0     H20345   4.675   0.930   2.930 -1.0241 -0.1419  4.7813
  151MOL0     H20346   4.873   0.869   3.056 -0.4435 -0.3737 -2.5276
  151MOL0     H20347   5.180   1.034   3.401 -1.2194 -1.1458  0.7295
  151MOL0     H20348   5.396   0.967   3.542 -2.4967  0.1800  1.3686
  151MOL0     H20349   5.675   0.910   3.437 -0.0129  0.6607 -0.4242
  151MOL0     H20350   5.609   0.931   3.590 -0.1283 -1.7651  2.3078
  151MOL0     H20351   5.832   0.852   3.645  0.3954  1.2571 -1.0185
  151MOL0     H20352   5.747   0.694   3.656  3.6195  0.2349  0.5202
  151MOL0     H20353   5.878   0.801   3.418 -2.5466  0.6724  0.9369
  151MOL0     H20354   5.950   0.670   3.521 -1.9964 -1.3399  0.7389
  151MOL0     H20355   5.742   0.681   3.318  4.4800  1.8254 -0.8265
  151MOL0     H20356   5.732   0.542   3.447  2.4787  2.3964  5.2539
  151MOL0     H20357   5.958   0.609   3.241  2.4181 -0.6712  0.6446
  151MOL0     H20358   5.836   0.488   3.208 -3.9293  2.8899  0.3233
  151MOL0     H20359   6.051   0.500   3.431 -0.7695 -0.7413  0.8592
  151MOL0     H20360   5.948   0.360   3.422 -1.7551  1.4254 -0.6265
  151MOL0     H20361   6.120   0.465   3.196 -0.6186 -0.9007 -1.9834
  151MOL0     H20362   6.014   0.324   3.185 -0.7245  1.1455 -1.8871
  151MOL0     H20363   6.261   0.258   3.230  0.4426  0.5950  0.2032
  151MOL0     H20364   6.250   0.354   3.382 -0.1425 -0.0977  0.3411
  151MOL0     H20365   5.468   0.681   3.254 -2.8144 -1.6852 -1.8000
  151MOL0     H20366   5.255   0.732   3.131 -2.7586  0.3409  2.1929
  151MOL0     H20367   5.024   1.276   3.019 -0.7607 -0.1361  0.9192
  151MOL0     H20368   4.832   1.316   2.859  2.5175  1.1245 -0.1095
  151MOL0     H20369   2.800   1.258   3.058  1.1848  1.4711 -1.8775
  151MOL0     H20370   2.552   1.268   3.140 -1.3588  1.4545  0.4715
  151MOL0     H20371   2.110   1.403   3.141 -0.0295  0.6988 -1.6068
  151MOL0     H20372   1.895   1.431   3.248 -0.5780  0.2891 -2.4665
  151MOL0     H20373   1.791   1.826   3.489 -1.0837 -0.7806 -3.5064
  151MOL0     H20374   1.861   1.699   3.589  0.5905  1.1789  0.3840
  151MOL0     H20375   1.626   1.592   3.598 -1.3322  0.5768 -0.0047
  151MOL0     H20376   1.579   1.724   3.484  0.9805 -2.7004 -1.9112
  151MOL0     H20377   1.640   1.894   3.656  0.8070 -0.3191  0.2369
  151MOL0     H20378   1.696   1.779   3.765 -0.6404 -2.3137  1.2336
  151MOL0     H20379   1.406   1.743   3.670 -0.0521  0.7140 -0.3552
  151MOL0     H20380   1.468   1.707   3.827  1.3031 -1.4048  0.4463
  151MOL0     H20381   1.364   2.119   3.864  3.3231  0.4589  0.4346
  151MOL0     H20382   2.013   1.815   3.402  2.7240  0.7821 -0.2533
  151MOL0     H20383   2.374   1.763   3.319  0.9931 -1.7218  2.5689
  151MOL0     H20384   2.237   1.880   3.313 -2.7025 -2.2647 -1.7985
  151MOL0     H20385   2.285   1.793   3.470 -0.8665 -1.2445 -0.0519
  152MOL0     O20386   7.656  11.115   4.473 -0.5066 -0.1924 -0.9492
  152MOL0     C20387   7.716  11.220   4.489  0.4189  0.1796  0.1137
  152MOL0     O20388   7.851  11.234   4.512 -0.4447  0.2512  0.6458
  152MOL0     C20389   7.943  11.134   4.482  0.5719 -0.7269  0.0691
  152MOL0     C20390   7.922  11.028   4.387 -0.5772  0.2102 -0.3711
  152MOL0     C20391   8.021  10.926   4.374  0.6675 -0.2300 -0.4660
  152MOL0     C20392   8.143  10.927   4.442  0.5807 -0.3553 -1.0541
  152MOL0     O20393   8.239  10.841   4.422  0.2241 -0.4852  0.6258
  152MOL0     C20394   8.198  10.706   4.434 -0.5022 -0.6570  0.2931
  152MOL0     C20395   8.161  10.650   4.572  0.8501  1.1617  0.0616
  152MOL0     C20396   8.275  10.673   4.672  0.2938 -0.0150  0.2868
  152MOL0     C20397   8.276  10.569   4.782  0.7447 -0.3975 -0.0686
  152MOL0     C20398   8.407  10.572   4.862  0.0648 -0.0570  0.3991
  152MOL0     C20399   8.422  10.456   4.959  0.6361  0.3289  0.3663
  152MOL0     C20400   8.429  10.500   5.102 -0.9173  0.4475 -0.2221
  152MOL0     C20401   8.560  10.565   5.147  0.0738 -1.7884 -0.2471
  152MOL0     N20402   8.679  10.542   5.061 -0.0131 -0.6584  0.0476
  152MOL0     C20403   8.740  10.628   4.976 -0.1670  0.2132 -0.2277
  152MOL0     C20404   8.841  10.557   4.925 -0.5135  0.0216 -0.1185
  152MOL0     C20405   8.921  10.610   4.817  0.7538 -0.4891  0.0581
  152MOL0     C20406   9.059  10.663   4.860  0.2880  0.4322 -0.3829
  152MOL0     C20407   9.055  10.810   4.890 -0.0071 -0.1099  0.8058
  152MOL0     C20408   9.173  10.870   4.965 -0.0663 -0.7920 -0.2400
  152MOL0     O20409   9.284  10.886   4.867 -0.0456 -0.4866 -0.5144
  152MOL0     C20410   9.408  10.851   4.904 -0.0413  0.5487  0.9438
  152MOL0     C20411   9.449  10.864   5.036  0.4093  1.0668  0.0282
  152MOL0     C20412   9.590  10.858   5.067  0.7599  0.2733 -1.3438
  152MOL0     C20413   9.680  10.835   4.960  0.4433 -0.0102 -0.5120
  152MOL0     C20414   9.826  10.820   4.988  0.3328  0.3160  0.0197
  152MOL0     O20415   9.911  10.815   4.875  0.6871 -0.7170 -0.1414
  152MOL0     C20416  10.047  10.810   4.889 -0.1947 -0.6258 -0.2683
  152MOL0     C20417  10.127  10.900   4.826  0.1989 -0.6630  0.0431
  152MOL0     C20418  10.265  10.882   4.820 -0.5083  0.0575 -0.4499
  152MOL0     C20419  10.327  10.774   4.882 -0.6134  0.5466 -0.0968
  152MOL0     O20420  10.463  10.752   4.896  0.0597 -0.0822  0.3718
  152MOL0     C20421  10.555  10.810   4.798  0.3701  0.1827  0.1711
  152MOL0     C20422  10.603  10.941   4.858  0.1837  0.4248  0.4171
  152MOL0     C20423  10.734  10.935   4.940 -0.0741  0.5582 -0.5430
  152MOL0     C20424  10.850  10.899   4.850  0.7368 -0.2641 -0.0365
  152MOL0     C20425  10.987  10.949   4.902  0.5486 -0.3777 -0.5740
  152MOL0     C20426  11.097  10.957   4.805 -0.0343  0.0519 -0.3696
  152MOL0     C20427  11.224  11.030   4.867  0.4571  0.3417  0.5037
  152MOL0     C20428  11.279  10.954   4.990  0.5540  0.2727  0.6191
  152MOL0    Cl20429  11.281  10.773   4.984 -0.1351  0.4235  0.3291
  152MOL0     C20430  10.235  10.684   4.935 -0.4464 -0.1922 -0.2081
  152MOL0     C20431  10.102  10.689   4.940 -0.2109 -1.1386  0.6303
  152MOL0     O20432   9.857  10.814   5.108 -0.0771  0.1301  0.4177
  152MOL0     C20433   9.634  10.835   4.827 -0.8284  0.9225 -0.2169
  152MOL0     C20434   9.501  10.833   4.799  0.1434  0.5033 -0.0136
  152MOL0     N20435   8.852  10.437   4.999  0.0273  0.4615 -0.2324
  152MOL0     N20436   8.747  10.423   5.070  0.5782 -0.1600  0.3197
  152MOL0     C20437   8.167  11.054   4.519 -0.4184  0.3103 -0.1979
  152MOL0     C20438   8.064  11.153   4.547 -1.2526 -0.2226 -0.6903
  152MOL0     C20439   7.630  11.347   4.495 -0.3555  0.6668  0.3969
  152MOL0     C20440   7.500  11.348   4.442 -0.2198 -0.4771  0.4637
  152MOL0     C20441   7.411  11.443   4.482  0.7389 -0.6566  0.2442
  152MOL0     C20442   7.455  11.554   4.545 -0.5173 -0.5749  0.5774
  152MOL0     O20443   7.360  11.650   4.570 -0.3699  0.1542 -0.1080
  152MOL0     C20444   7.359  11.722   4.700 -0.6059 -0.3983  0.6692
  152MOL0     C20445   7.225  11.708   4.766  0.7209  0.3792 -0.6397
  152MOL0     C20446   7.182  11.563   4.785  0.1250 -0.6550  0.4586
  152MOL0     C20447   7.049  11.546   4.845  0.5751  0.0566 -0.2265
  152MOL0     C20448   6.947  11.610   4.764  0.2381  0.1556 -0.2566
  152MOL0     C20449   6.869  11.659   4.692  0.3483 -0.0109  0.4686
  152MOL0     C20450   7.581  11.557   4.595  0.4446 -0.6815  0.3368
  152MOL0     C20451   7.679  11.460   4.564  0.4063  0.6643  0.9469
  152MOL0     C20452   7.811  11.475   4.616  0.3271  0.3883  0.6239
  152MOL0     H20453   7.836  11.020   4.322 -0.2601  2.1088 -1.0977
  152MOL0     H20454   8.002  10.840   4.311  1.7453 -2.4378  2.0564
  152MOL0     H20455   8.129  10.689   4.351  1.4342 -1.4937 -1.2394
  152MOL0     H20456   8.283  10.646   4.400  1.2522  1.3133  0.9771
  152MOL0     H20457   8.127  10.546   4.566 -2.8931  2.1459  1.0511
  152MOL0     H20458   8.072  10.703   4.608 -1.3392 -1.6368 -0.8636
  152MOL0     H20459   8.265  10.774   4.712  1.9450  0.8510 -1.3556
  152MOL0     H20460   8.375  10.674   4.628 -0.2346 -1.5766 -1.0659
  152MOL0     H20461   8.199  10.589   4.857  1.8383  0.7869  0.7787
  152MOL0     H20462   8.248  10.471   4.742  0.4597  0.3166 -1.6672
  152MOL0     H20463   8.488  10.558   4.789  1.3513  0.2977  1.7107
  152MOL0     H20464   8.442  10.670   4.897  1.4150 -0.3127 -0.1764
  152MOL0     H20465   8.336  10.389   4.963  1.6269 -0.9191  2.2291
  152MOL0     H20466   8.506  10.391   4.934 -0.5029 -0.8535 -0.4897
  152MOL0     H20467   8.426  10.407   5.160  2.0734  0.4444  0.1090
  152MOL0     H20468   8.343  10.567   5.107 -1.8702 -0.4298 -3.1623
  152MOL0     H20469   8.538  10.672   5.144  2.9993 -1.0681  0.4179
  152MOL0     H20470   8.582  10.544   5.253 -1.9154  0.8750  0.8025
  152MOL0     H20471   8.684  10.718   4.952 -1.3958 -0.1562  1.1168
  152MOL0     H20472   8.928  10.540   4.733  2.0029  2.1280 -2.1916
  152MOL0     H20473   8.870  10.698   4.777  1.6746 -0.7698 -1.8581
  152MOL0     H20474   9.096  10.604   4.945  0.6604 -1.1141 -1.5807
  152MOL0     H20475   9.133  10.653   4.781  1.2832  2.2199  0.2788
  152MOL0     H20476   8.969  10.829   4.955 -0.7856 -0.5461 -0.0627
  152MOL0     H20477   9.039  10.872   4.802  1.7289  4.9601  3.6137
  152MOL0     H20478   9.195  10.802   5.048 -0.5630 -2.4454 -1.4114
  152MOL0     H20479   9.157  10.965   5.016 -4.2543 -1.0120 -0.7933
  152MOL0     H20480   9.380  10.875   5.120  0.2168  0.6175 -0.0678
  152MOL0     H20481   9.629  10.869   5.167 -2.9256  2.2149  0.0514
  152MOL0     H20482  10.082  10.984   4.775  0.7130  1.1684  2.3952
  152MOL0     H20483  10.324  10.964   4.781 -0.6803  0.0668 -0.6912
  152MOL0     H20484  10.632  10.737   4.772 -0.4242 -0.2732 -0.9675
  152MOL0     H20485  10.499  10.831   4.707  1.3022  1.5399 -0.1218
  152MOL0     H20486  10.618  11.008   4.773 -1.9556 -2.2309 -2.2470
  152MOL0     H20487  10.523  10.996   4.909 -0.1719 -0.5215  0.8962
  152MOL0     H20488  10.745  11.038   4.976 -3.4261  0.6555  0.5872
  152MOL0     H20489  10.727  10.876   5.031  1.4438 -0.0686 -0.8079
  152MOL0     H20490  10.822  10.941   4.753 -3.5654  2.4797  2.0368
  152MOL0     H20491  10.848  10.791   4.836 -0.2252 -0.1889 -0.5905
  152MOL0     H20492  11.013  10.872   4.975 -2.3649 -0.3695  0.6420
  152MOL0     H20493  10.988  11.044   4.956 -2.7701 -0.9290  0.7138
  152MOL0     H20494  11.123  10.852   4.786  0.5391  0.5032 -2.3447
  152MOL0     H20495  11.063  11.007   4.714  4.3476  1.0973 -1.6396
  152MOL0     H20496  11.212  11.135   4.894  0.9670  0.4390  0.3481
  152MOL0     H20497  11.299  11.031   4.788  1.1310 -2.4199  1.0115
  152MOL0     H20498  11.381  10.993   4.992  0.4295  0.8262 -1.2383
  152MOL0     H20499  11.228  10.991   5.080  0.2022 -0.0105  0.5385
  152MOL0     H20500  10.270  10.593   4.984  2.0579 -0.0972 -1.6601
  152MOL0     H20501  10.042  10.604   4.969  0.0362 -1.2098  0.9403
  152MOL0     H20502   9.697  10.841   4.739 -0.0545  4.6137  0.4052
  152MOL0     H20503   9.456  10.826   4.700 -0.2725  1.6567  0.0752
  152MOL0     H20504   8.261  11.059   4.574 -1.6580  1.3204  1.9814
  152MOL0     H20505   8.086  11.236   4.614  1.1864  1.3277 -3.2220
  152MOL0     H20506   7.474  11.261   4.383  0.2935 -0.8446  0.7759
  152MOL0     H20507   7.310  11.427   4.445  0.1009  0.4560  1.4381
  152MOL0     H20508   7.389  11.826   4.684  0.5381 -0.7381  0.5165
  152MOL0     H20509   7.439  11.674   4.757 -0.4885 -1.6609 -0.5117
  152MOL0     H20510   7.154  11.769   4.710  0.2278  3.4572  2.9218
  152MOL0     H20511   7.241  11.765   4.858  2.0501 -0.0257 -0.6055
  152MOL0     H20512   7.258  11.503   4.838 -1.0428 -3.7232 -1.0729
  152MOL0     H20513   7.183  11.510   4.689  3.0050  1.3353 -0.7433
  152MOL0     H20514   7.034  11.440   4.868  4.3090 -0.3236  1.2741
  152MOL0     H20515   7.033  11.600   4.939 -2.1987 -1.7599  0.4593
  152MOL0     H20516   6.797  11.694   4.621 -0.5651  0.9139  1.8124
  152MOL0     H20517   7.618  11.626   4.671  2.0952 -2.4610  1.2427
  152MOL0     H20518   7.821  11.568   4.673 -1.1056 -0.8318  3.0264
  152MOL0     H20519   7.853  11.400   4.683 -1.0665 -0.4495  0.5924
  152MOL0     H20520   7.878  11.484   4.530 -0.0808  1.5730  0.4150
  153MOL0     O20521   9.322  11.256   0.347  0.4927 -0.3724  0.8185
  153MOL0     C20522   9.206  11.291   0.383 -0.6892  0.3135  0.0030
  153MOL0     O20523   9.159  11.296   0.507  0.2973 -0.5512 -0.2781
  153MOL0     C20524   9.232  11.240   0.610  0.0687 -0.5326 -0.2713
  153MOL0     C20525   9.250  11.326   0.724  1.0274  0.1644  1.5022
  153MOL0     C20526   9.326  11.300   0.838 -0.1825  0.1188  0.7627
  153MOL0     C20527   9.392  11.175   0.841 -0.1390  0.0529 -0.6102
  153MOL0     O20528   9.475  11.147   0.953  0.5745  0.2799 -0.0714
  153MOL0     C20529   9.445  11.227   1.074  0.3100 -0.0771  0.1420
  153MOL0     C20530   9.517  11.166   1.194 -0.7250  0.1151 -0.0138
  153MOL0     C20531   9.671  11.128   1.168  0.0186 -0.1767  0.1413
  153MOL0     C20532   9.746  11.080   1.297  0.3461  0.6385  0.1898
  153MOL0     C20533   9.873  11.015   1.271 -1.0174  0.4749  0.6171
  153MOL0     C20534   9.962  11.076   1.152 -0.0141 -0.4014 -0.7784
  153MOL0     C20535   9.996  11.218   1.179  0.7481 -0.2113  0.1666
  153MOL0     C20536  10.116  11.266   1.098 -0.7214  0.2997 -0.3420
  153MOL0     N20537  10.081  11.297   0.960 -0.3251 -0.7089 -0.7047
  153MOL0     C20538   9.970  11.361   0.911 -0.3467  0.0673  0.9577
  153MOL0     C20539   9.965  11.314   0.783  0.5350  0.1038 -0.6521
  153MOL0     C20540   9.865  11.364   0.684  0.1144  0.3169  0.1552
  153MOL0     C20541   9.720  11.408   0.735 -0.1582  0.6863  0.2882
  153MOL0     C20542   9.713  11.566   0.776 -0.5275  1.1035 -0.5027
  153MOL0     C20543   9.591  11.575   0.869  0.1571  0.4277  0.4094
  153MOL0     O20544   9.640  11.524   0.991  0.3077 -0.8515  0.6207
  153MOL0     C20545   9.622  11.627   1.088 -0.4654 -0.0551  0.3191
  153MOL0     C20546   9.497  11.688   1.111 -0.5215  0.0502  0.1629
  153MOL0     C20547   9.491  11.791   1.201 -0.9380 -0.0791  0.0435
  153MOL0     C20548   9.608  11.833   1.275  0.4073  0.6999  0.0781
  153MOL0     C20549   9.602  11.946   1.372 -0.4521  1.0232  0.0584
  153MOL0     O20550   9.491  12.019   1.379  0.0244  0.0122 -0.5260
  153MOL0     C20551   9.498  12.134   1.447 -0.4421  0.0790 -1.0045
  153MOL0     C20552   9.399  12.166   1.542  0.2884  0.5512 -0.0478
  153MOL0     C20553   9.389  12.294   1.593  0.4491  0.3323 -0.0667
  153MOL0     C20554   9.486  12.386   1.573 -0.3004 -0.0919  0.7909
  153MOL0     O20555   9.467  12.506   1.627 -0.2175 -0.0306 -0.1566
  153MOL0     C20556   9.585  12.564   1.698  0.0873  0.0939 -0.3329
  153MOL0     C20557   9.654  12.674   1.614  0.0221  0.7361 -0.0545
  153MOL0     C20558   9.772  12.750   1.671  0.0443  0.1656 -0.3128
  153MOL0     C20559   9.821  12.853   1.575 -0.7516  0.7160 -0.3646
  153MOL0     C20560   9.973  12.874   1.579  0.2331 -0.1514  1.0374
  153MOL0     C20561  10.023  12.918   1.715 -0.4078 -0.7085  0.2201
  153MOL0     C20562  10.161  12.993   1.706 -0.1526  0.2698  0.3155
  153MOL0     C20563  10.270  12.887   1.674  0.2474  0.2923 -0.4136
  153MOL0    Cl20564  10.275  12.737   1.766  0.2919  0.4620 -0.1009
  153MOL0     C20565   9.588  12.359   1.480  0.1391 -0.3724 -0.8528
  153MOL0     C20566   9.585  12.236   1.412  0.3834 -0.9025  0.0297
  153MOL0     O20567   9.706  11.963   1.441 -1.3352 -1.2229 -0.5007
  153MOL0     C20568   9.724  11.762   1.259  0.7796  0.4585  0.9723
  153MOL0     C20569   9.741  11.659   1.162 -0.2176  0.7882 -0.4703
  153MOL0     N20570  10.071  11.230   0.759 -0.3776 -0.5599 -0.5905
  153MOL0     N20571  10.146  11.226   0.862 -0.3541 -0.3244 -0.0792
  153MOL0     C20572   9.389  11.089   0.726 -0.8651  0.2210  0.3913
  153MOL0     C20573   9.310  11.120   0.614 -1.0695  0.0668 -0.0843
  153MOL0     C20574   9.098  11.292   0.277 -0.1545  0.5018  0.0741
  153MOL0     C20575   8.964  11.277   0.322  0.5943 -0.1026  0.7658
  153MOL0     C20576   8.859  11.250   0.235 -0.3455 -0.5992  0.9704
  153MOL0     C20577   8.880  11.258   0.095 -0.1075 -0.2997 -0.2409
  153MOL0     O20578   8.764  11.222   0.025  1.4285  0.2076 -0.0540
  153MOL0     C20579   8.770  11.223  -0.117 -0.1878 -0.0944  0.2127
  153MOL0     C20580   8.629  11.211  -0.165 -0.1769  0.3836  0.2460
  153MOL0     C20581   8.614  11.147  -0.307 -0.2507 -0.8217  0.5304
  153MOL0     C20582   8.698  11.191  -0.417 -0.3874  0.9865 -0.3370
  153MOL0     C20583   8.709  11.335  -0.403 -1.6556 -0.4507  0.3674
  153MOL0     C20584   8.715  11.455  -0.407  0.0143  0.0142  0.5232
  153MOL0     C20585   9.006  11.288   0.057  0.2298  0.1455  0.1268
  153MOL0     C20586   9.120  11.309   0.141  0.2284 -0.1094  0.3865
  153MOL0     C20587   9.251  11.334   0.074  0.6864 -0.4437  0.9618
  153MOL0     H20588   9.200  11.422   0.723  1.5800  0.5150  3.3133
  153MOL0     H20589   9.307  11.376   0.913 -1.5641 -1.6979  2.3510
  153MOL0     H20590   9.479  11.329   1.054 -0.6164  0.5088  1.3817
  153MOL0     H20591   9.342  11.215   1.108  0.1219  0.6063 -0.1711
  153MOL0     H20592   9.471  11.076   1.235  0.2555  0.4960  2.0732
  153MOL0     H20593   9.505  11.232   1.280 -0.4358 -1.7212  1.4955
  153MOL0     H20594   9.711  11.214   1.113  0.0221  1.3170  2.3536
  153MOL0     H20595   9.682  11.054   1.088  0.0647  2.1613 -2.1766
  153MOL0     H20596   9.774  11.167   1.357  3.0836 -1.9943  3.0347
  153MOL0     H20597   9.675  11.022   1.357  1.8705 -0.5968  0.8499
  153MOL0     H20598   9.920  11.009   1.370 -0.9972 -0.2739  0.5644
  153MOL0     H20599   9.859  10.916   1.226  0.6573 -0.0999  1.2809
  153MOL0     H20600  10.049  11.014   1.128  0.4216 -0.4944  0.9649
  153MOL0     H20601   9.903  11.073   1.059  1.3740  1.2185 -1.7841
  153MOL0     H20602  10.030  11.224   1.283  2.1688  1.3344 -0.3435
  153MOL0     H20603   9.913  11.289   1.173 -0.8899 -1.6263  3.4080
  153MOL0     H20604  10.151  11.366   1.122 -0.9932  1.2406 -3.4481
  153MOL0     H20605  10.185  11.181   1.103 -0.9813  0.1469  0.7786
  153MOL0     H20606   9.900  11.429   0.958 -1.3971 -1.0820  1.0954
  153MOL0     H20607   9.907  11.440   0.618  0.3750  0.5759  0.6138
  153MOL0     H20608   9.857  11.275   0.622  3.6649 -1.9163  2.4976
  153MOL0     H20609   9.652  11.406   0.649  0.3681 -0.9967 -0.1255
  153MOL0     H20610   9.686  11.336   0.811 -1.9684  0.3606 -0.7803
  153MOL0     H20611   9.686  11.629   0.691  0.2397 -0.4547 -1.9512
  153MOL0     H20612   9.801  11.601   0.832 -0.1749  1.0548 -1.0177
  153MOL0     H20613   9.508  11.521   0.823  0.1656 -0.3425  1.2853
  153MOL0     H20614   9.559  11.680   0.873 -0.7524  0.2322 -1.0520
  153MOL0     H20615   9.399  11.657   1.075 -0.6531 -2.0604  2.0312
  153MOL0     H20616   9.393  11.836   1.212 -2.7459 -2.8701 -2.7447
  153MOL0     H20617   9.322  12.094   1.568  1.4755 -1.2578 -1.3129
  153MOL0     H20618   9.314  12.309   1.670 -1.5193 -3.5319 -0.9769
  153MOL0     H20619   9.558  12.609   1.794  0.0991 -1.3222  0.3540
  153MOL0     H20620   9.651  12.486   1.736 -1.8028 -0.5830  1.7666
  153MOL0     H20621   9.697  12.616   1.532 -2.4192 -0.4667 -0.5758
  153MOL0     H20622   9.582  12.743   1.569  2.9442  2.9509 -1.6865
  153MOL0     H20623   9.754  12.791   1.770 -1.1853  2.1657 -1.3149
  153MOL0     H20624   9.843  12.667   1.682  0.1926  0.1513 -1.2394
  153MOL0     H20625   9.771  12.947   1.599 -0.2503  1.0362 -0.5531
  153MOL0     H20626   9.798  12.816   1.474 -1.9703 -1.2190  0.5784
  153MOL0     H20627   9.995  12.957   1.512  0.2440 -0.7444  0.2911
  153MOL0     H20628  10.018  12.781   1.543  0.1697  0.2605 -0.1551
  153MOL0     H20629   9.945  12.977   1.763  1.3804  2.9630 -1.0105
  153MOL0     H20630  10.035  12.830   1.779 -1.0579  0.5961  2.2135
  153MOL0     H20631  10.177  13.035   1.806  0.9581 -0.3582  0.4119
  153MOL0     H20632  10.153  13.070   1.629 -1.5407 -1.2004 -1.0868
  153MOL0     H20633  10.246  12.861   1.570 -1.7383 -3.3483  0.7713
  153MOL0     H20634  10.371  12.930   1.677  0.4384 -0.1936  0.4558
  153MOL0     H20635   9.671  12.419   1.445  1.2941 -1.7597 -0.5467
  153MOL0     H20636   9.664  12.222   1.340  0.1215  0.9693 -0.6799
  153MOL0     H20637   9.820  11.793   1.298  2.1285 -1.0040 -1.0149
  153MOL0     H20638   9.827  11.595   1.140  0.8007  1.9869 -0.1217
  153MOL0     H20639   9.459  11.007   0.734 -0.6446  0.3910  0.2402
  153MOL0     H20640   9.303  11.045   0.536 -2.0169 -2.1660  2.0220
  153MOL0     H20641   8.951  11.254   0.427  1.1193 -1.8211  0.4896
  153MOL0     H20642   8.763  11.224   0.280 -0.7940  0.0067  0.3832
  153MOL0     H20643   8.832  11.144  -0.161  0.5965 -0.3992  1.7933
  153MOL0     H20644   8.810  11.319  -0.151  0.1877  1.6279  4.7986
  153MOL0     H20645   8.583  11.310  -0.155  0.7822  1.0380 -1.3673
  153MOL0     H20646   8.574  11.141  -0.101 -1.3256 -0.9923 -2.1333
  153MOL0     H20647   8.512  11.164  -0.344 -0.0047 -0.3395  0.0569
  153MOL0     H20648   8.624  11.038  -0.310  0.6386 -0.7353 -1.1073
  153MOL0     H20649   8.800  11.153  -0.412 -0.3293  0.6976 -2.6418
  153MOL0     H20650   8.653  11.147  -0.507 -1.6669 -0.0079  0.7581
  153MOL0     H20651   8.713  11.561  -0.416 -2.6488 -0.0941 -1.7544
  153MOL0     H20652   9.017  11.288  -0.051 -2.3221 -1.3095 -0.2145
  153MOL0     H20653   9.301  11.419   0.122 -1.3389  1.3288  0.0764
  153MOL0     H20654   9.321  11.254   0.046  0.5368  0.0966 -1.1019
  153MOL0     H20655   9.219  11.377  -0.021 -1.0130 -2.1969  0.6931
  154MOL0     O20656   2.257   3.559   5.541  0.0672 -0.1070 -0.2527
  154MOL0     C20657   2.258   3.471   5.457 -0.3931 -0.5384 -0.0626
  154MOL0     O20658   2.227   3.344   5.473 -0.7369  0.0249  1.3113
  154MOL0     C20659   2.191   3.319   5.599 -0.0017  0.2310  1.0152
  154MOL0     C20660   2.050   3.284   5.618  0.0000 -0.0933 -0.2927
  154MOL0     C20661   1.991   3.252   5.744  0.7089  0.5207 -0.2226
  154MOL0     C20662   2.069   3.256   5.856  0.5767 -1.1438 -0.4671
  154MOL0     O20663   2.026   3.225   5.987  0.6596  0.6414  0.7463
  154MOL0     C20664   1.893   3.158   5.993 -0.1501  0.2741  0.0551
  154MOL0     C20665   1.859   3.112   6.133 -0.0076  0.2953  0.2002
  154MOL0     C20666   1.857   3.239   6.220 -0.3231 -0.7950 -1.2107
  154MOL0     C20667   1.825   3.200   6.367  0.0316 -0.4699  0.1021
  154MOL0     C20668   1.797   3.313   6.460 -1.1651 -0.1120  0.3573
  154MOL0     C20669   1.718   3.260   6.577 -0.4036  0.3401  0.4022
  154MOL0     C20670   1.721   3.333   6.708 -0.5197 -0.0008 -0.3129
  154MOL0     C20671   1.660   3.258   6.821  0.0981 -0.3165 -0.5145
  154MOL0     N20672   1.631   3.357   6.926  0.2051 -0.0266 -0.2786
  154MOL0     C20673   1.727   3.412   7.016  0.9843  0.1102 -0.0449
  154MOL0     C20674   1.662   3.521   7.073  0.1214  0.6380 -0.7055
  154MOL0     C20675   1.720   3.617   7.176 -0.4819  0.2602 -0.5244
  154MOL0     C20676   1.764   3.548   7.295 -0.7429  0.4721 -1.4786
  154MOL0     C20677   1.804   3.648   7.400  0.6643 -0.6737  0.3981
  154MOL0     C20678   1.812   3.598   7.547 -0.0396  0.9907 -0.3709
  154MOL0     O20679   1.856   3.460   7.546 -0.8296  0.1059  0.5473
  154MOL0     C20680   1.996   3.438   7.554 -0.5871 -0.4835  0.0954
  154MOL0     C20681   2.038   3.312   7.582 -0.1671  0.1255  0.6113
  154MOL0     C20682   2.175   3.285   7.602  0.2945  0.7830 -0.3233
  154MOL0     C20683   2.267   3.389   7.615  0.7147  0.7458 -0.0208
  154MOL0     C20684   2.404   3.345   7.660  0.3480 -0.2441  0.4876
  154MOL0     O20685   2.503   3.433   7.623  0.1762 -0.1465 -0.4983
  154MOL0     C20686   2.624   3.411   7.687 -0.1652  0.4340 -0.4575
  154MOL0     C20687   2.713   3.306   7.649 -0.2113  0.6183  0.4113
  154MOL0     C20688   2.840   3.302   7.699  0.1241  0.6219 -0.2551
  154MOL0     C20689   2.880   3.393   7.799  0.2314  0.1230 -0.1345
  154MOL0     O20690   2.993   3.366   7.864 -1.0444  0.1508 -0.0967
  154MOL0     C20691   3.061   3.473   7.926  0.3862 -0.3515 -0.3929
  154MOL0     C20692   3.192   3.419   7.962  0.1530 -0.3113 -0.1999
  154MOL0     C20693   3.189   3.301   8.072 -1.3097  0.4879  0.6648
  154MOL0     C20694   3.340   3.271   8.128  0.1080  0.1891 -0.0893
  154MOL0     C20695   3.354   3.210   8.259 -0.5935 -0.6383 -0.0897
  154MOL0     C20696   3.241   3.125   8.319 -0.0650 -0.0362 -0.1520
  154MOL0     C20697   3.293   3.055   8.447  0.1918 -0.2642 -0.4830
  154MOL0     C20698   3.189   3.015   8.550 -0.7506  0.2809 -0.1015
  154MOL0    Cl20699   3.053   2.921   8.475 -0.0284  0.2556 -0.2661
  154MOL0     C20700   2.796   3.497   7.827  0.8168  0.2768 -0.6372
  154MOL0     C20701   2.673   3.515   7.771  0.5546 -0.0077  0.3951
  154MOL0     O20702   2.417   3.242   7.721 -0.1038 -0.4365 -0.3160
  154MOL0     C20703   2.231   3.522   7.596 -0.0297  0.8255  0.2939
  154MOL0     C20704   2.092   3.544   7.568 -0.4005 -1.0846 -0.1690
  154MOL0     N20705   1.532   3.531   7.015  0.1098  0.4503 -0.1910
  154MOL0     N20706   1.518   3.435   6.924  0.3410  0.3382  0.5291
  154MOL0     C20707   2.201   3.293   5.842 -0.2540  0.8945  0.5034
  154MOL0     C20708   2.263   3.325   5.717 -0.5348 -0.6290  0.1202
  154MOL0     C20709   2.289   3.516   5.320 -0.0291  0.4012  0.9721
  154MOL0     C20710   2.227   3.438   5.211 -0.3611 -0.1305  0.7314
  154MOL0     C20711   2.225   3.486   5.077  0.4136  0.0862 -0.5103
  154MOL0     C20712   2.305   3.596   5.042 -0.0983 -1.2056 -0.2199
  154MOL0     O20713   2.308   3.634   4.904  0.6018 -0.5950 -0.1962
  154MOL0     C20714   2.388   3.740   4.859  0.0477 -0.2267 -0.1664
  154MOL0     C20715   2.376   3.761   4.708 -0.3865 -0.5296  0.3896
  154MOL0     C20716   2.483   3.672   4.630  0.3080 -0.9731  0.6868
  154MOL0     C20717   2.466   3.671   4.478  0.4964  0.7854  0.1521
  154MOL0     C20718   2.595   3.632   4.421  0.4299 -0.3561  0.5817
  154MOL0     C20719   2.696   3.589   4.374 -0.2279  0.5991 -0.5453
  154MOL0     C20720   2.370   3.664   5.146  0.0405  0.5004  0.1991
  154MOL0     C20721   2.367   3.629   5.283  0.1597  1.0696  0.0808
  154MOL0     C20722   2.445   3.714   5.373 -0.2595  0.7061 -0.8662
  154MOL0     H20723   1.998   3.271   5.523 -0.1739 -1.0983 -0.0732
  154MOL0     H20724   1.887   3.219   5.740  1.0769 -1.3337  2.6016
  154MOL0     H20725   1.811   3.227   5.971 -0.6241  0.3733  1.9479
  154MOL0     H20726   1.881   3.063   5.941 -0.6717 -0.7549  1.9413
  154MOL0     H20727   1.936   3.042   6.167  0.7538  0.3983 -1.2493
  154MOL0     H20728   1.769   3.050   6.127 -0.4096  0.8885  0.0531
  154MOL0     H20729   1.792   3.314   6.175 -1.7695  1.5208  3.9951
  154MOL0     H20730   1.959   3.276   6.231 -0.8713  0.1551  1.3122
  154MOL0     H20731   1.732   3.143   6.365 -0.7238  0.6755  1.5155
  154MOL0     H20732   1.902   3.137   6.415  1.0347 -0.4267 -1.3794
  154MOL0     H20733   1.894   3.345   6.499 -0.9200  2.7453 -2.1991
  154MOL0     H20734   1.747   3.396   6.409  2.1785  0.4848 -2.3790
  154MOL0     H20735   1.619   3.267   6.531  0.8144  1.9525 -2.2080
  154MOL0     H20736   1.742   3.156   6.603 -0.2044 -0.9536 -4.0839
  154MOL0     H20737   1.668   3.428   6.695 -0.4530  0.2996  1.3339
  154MOL0     H20738   1.826   3.356   6.730 -0.2687  1.7836 -2.9114
  154MOL0     H20739   1.565   3.210   6.793 -0.7170 -0.7550  2.6248
  154MOL0     H20740   1.727   3.181   6.861 -0.7208 -0.0923  1.3721
  154MOL0     H20741   1.832   3.384   7.019  0.3410 -2.4569  0.9463
  154MOL0     H20742   1.802   3.668   7.124 -0.1207 -0.2994 -0.5024
  154MOL0     H20743   1.637   3.686   7.197 -3.0481 -2.5405 -0.7947
  154MOL0     H20744   1.690   3.476   7.332  0.8446 -1.2544 -1.4626
  154MOL0     H20745   1.853   3.491   7.265  0.4283  2.2692 -1.5320
  154MOL0     H20746   1.739   3.735   7.395  1.1724 -0.1831  1.8545
  154MOL0     H20747   1.902   3.686   7.371 -0.1452  0.5314 -0.8292
  154MOL0     H20748   1.715   3.603   7.598  0.2577 -1.0186  0.5088
  154MOL0     H20749   1.877   3.662   7.606 -1.6527 -0.0321  2.7515
  154MOL0     H20750   1.960   3.237   7.581  2.3835 -2.7728 -1.7943
  154MOL0     H20751   2.196   3.184   7.636  0.2923  0.1313 -2.1234
  154MOL0     H20752   2.682   3.225   7.585  2.3898 -1.7711  1.9834
  154MOL0     H20753   2.902   3.218   7.669  2.0852  0.7572  2.9634
  154MOL0     H20754   3.054   3.560   7.861 -1.6003 -0.9357 -1.0249
  154MOL0     H20755   3.001   3.506   8.011 -0.8547 -2.1788 -0.5031
  154MOL0     H20756   3.243   3.379   7.874  0.0689 -1.1635  0.1237
  154MOL0     H20757   3.241   3.506   8.006  0.1985 -1.2870  1.7919
  154MOL0     H20758   3.132   3.333   8.159 -3.3023 -0.4189 -0.2539
  154MOL0     H20759   3.133   3.222   8.021  0.4450 -0.1245 -0.4202
  154MOL0     H20760   3.397   3.364   8.129 -1.1635  1.0802 -2.0746
  154MOL0     H20761   3.397   3.200   8.067 -0.9890 -2.6252  1.9349
  154MOL0     H20762   3.387   3.280   8.337  3.4842 -2.1167 -0.2301
  154MOL0     H20763   3.445   3.149   8.254  0.5987  0.7789  2.2133
  154MOL0     H20764   3.157   3.191   8.342  1.4977  0.9907  3.3821
  154MOL0     H20765   3.209   3.050   8.247  1.0086 -1.2153  0.5688
  154MOL0     H20766   3.363   3.115   8.506 -2.3350  0.0443  2.4854
  154MOL0     H20767   3.344   2.962   8.422 -2.6725 -2.0692 -0.1500
  154MOL0     H20768   3.246   2.951   8.617  0.8868  0.9754 -0.7724
  154MOL0     H20769   3.143   3.108   8.588 -1.7216  0.7743 -2.3093
  154MOL0     H20770   2.817   3.576   7.898  0.2906  3.5258 -3.8023
  154MOL0     H20771   2.610   3.600   7.797 -1.4082 -2.1795  3.5486
  154MOL0     H20772   2.296   3.607   7.613 -1.0718  1.7701 -0.3148
  154MOL0     H20773   2.076   3.650   7.549 -1.2548 -1.1611  0.0973
  154MOL0     H20774   2.246   3.296   5.940 -1.6080 -2.8111  1.4075
  154MOL0     H20775   2.370   3.343   5.715 -0.8907  2.1659  1.5450
  154MOL0     H20776   2.179   3.343   5.230 -1.0189  0.0639  0.0758
  154MOL0     H20777   2.177   3.429   4.998 -0.6436  0.7261 -0.3452
  154MOL0     H20778   2.497   3.746   4.872  0.0483  1.4997 -0.7151
  154MOL0     H20779   2.350   3.830   4.909 -3.0281 -0.1085 -2.4508
  154MOL0     H20780   2.392   3.868   4.688  0.0820 -0.4591  1.0892
  154MOL0     H20781   2.275   3.739   4.674  0.6185 -0.4677 -3.1421
  154MOL0     H20782   2.489   3.566   4.655  3.1751 -1.5700 -1.9602
  154MOL0     H20783   2.585   3.706   4.652  0.0207  0.4457 -0.0213
  154MOL0     H20784   2.385   3.608   4.441  1.1868  0.4886 -0.8922
  154MOL0     H20785   2.435   3.772   4.448 -0.9949 -0.0971 -1.4282
  154MOL0     H20786   2.790   3.549   4.341  1.2467  1.5311  2.1444
  154MOL0     H20787   2.429   3.749   5.112 -2.8210  2.2451 -0.7913
  154MOL0     H20788   2.491   3.802   5.327  1.8787 -0.1363 -0.4380
  154MOL0     H20789   2.384   3.776   5.440  0.4720 -0.3775  0.8688
  154MOL0     H20790   2.522   3.655   5.424 -1.5740  1.1365  1.8012
  155MOL0     O20791   8.492   6.105   1.607 -0.2688  0.2907 -0.2756
  155MOL0     C20792   8.380   6.068   1.644  0.2338 -1.1586 -0.3011
  155MOL0     O20793   8.354   5.953   1.703 -0.4716  0.3608 -0.2914
  155MOL0     C20794   8.459   5.883   1.753 -0.3870 -0.2060 -0.0907
  155MOL0     C20795   8.540   5.941   1.863  0.8358  0.2431  0.7551
  155MOL0     C20796   8.636   5.864   1.929  0.8212 -0.1954 -0.7563
  155MOL0     C20797   8.648   5.728   1.884  1.2446  0.2256  0.1465
  155MOL0     O20798   8.733   5.636   1.944 -0.2044  0.1015  0.7813
  155MOL0     C20799   8.839   5.603   1.849 -0.4145  0.3425 -0.5599
  155MOL0     C20800   8.951   5.508   1.911  0.0956 -1.0048  0.1762
  155MOL0     C20801   8.929   5.364   1.880 -0.1720  0.5387 -0.1827
  155MOL0     C20802   9.062   5.293   1.872 -0.2611 -0.0883  0.3445
  155MOL0     C20803   9.050   5.145   1.895 -1.1903  0.5284  0.3117
  155MOL0     C20804   9.180   5.096   1.950  0.0296 -0.2682 -0.0649
  155MOL0     C20805   9.167   4.941   1.937  0.5342 -0.9155  0.2660
  155MOL0     C20806   9.209   4.871   2.058 -0.3200  1.0107  0.2353
  155MOL0     N20807   9.189   4.932   2.190  0.5763 -0.0122 -0.0338
  155MOL0     C20808   9.070   4.982   2.232  0.0385 -1.0277 -0.0702
  155MOL0     C20809   9.073   4.990   2.364  0.9343  0.0797 -0.4277
  155MOL0     C20810   8.957   5.053   2.446 -0.2105  0.6988  0.4111
  155MOL0     C20811   8.948   5.207   2.437 -0.2507 -0.1472 -0.8619
  155MOL0     C20812   8.902   5.276   2.307 -0.2086  0.1288  0.1399
  155MOL0     C20813   8.746   5.268   2.289 -0.5967 -0.7045 -0.5868
  155MOL0     O20814   8.719   5.224   2.152  0.1398  0.6419 -0.8082
  155MOL0     C20815   8.598   5.263   2.101  0.9945  0.9756  0.0242
  155MOL0     C20816   8.591   5.247   1.966 -0.8400  0.2506  0.5460
  155MOL0     C20817   8.484   5.299   1.888 -0.4956  0.5237  0.2570
  155MOL0     C20818   8.379   5.359   1.951 -0.5946 -0.3629 -0.5111
  155MOL0     C20819   8.278   5.436   1.872  0.8890 -0.2708  0.2358
  155MOL0     O20820   8.192   5.515   1.939 -0.2335 -0.0190  0.0971
  155MOL0     C20821   8.111   5.604   1.874 -0.5324  0.5634 -0.1512
  155MOL0     C20822   8.108   5.742   1.902 -0.7347  0.0410 -0.2962
  155MOL0     C20823   8.005   5.832   1.863 -0.3305  1.2242 -0.1617
  155MOL0     C20824   7.897   5.781   1.788 -0.4627 -1.6446  0.6032
  155MOL0     O20825   7.804   5.867   1.728  0.6664  0.4254 -0.0728
  155MOL0     C20826   7.756   5.980   1.800 -0.6844  0.3514  1.1033
  155MOL0     C20827   7.616   6.031   1.749  0.0304  0.3818  0.1365
  155MOL0     C20828   7.644   6.111   1.619 -0.2388 -0.1152  0.1346
  155MOL0     C20829   7.510   6.164   1.548  0.0136 -0.5014 -0.0150
  155MOL0     C20830   7.556   6.282   1.454  0.8029 -0.1274 -0.2668
  155MOL0     C20831   7.418   6.360   1.414 -0.1503 -0.3902  0.8650
  155MOL0     C20832   7.453   6.493   1.345  0.6453  0.3591  0.5343
  155MOL0     C20833   7.331   6.569   1.306  0.3825 -0.9578 -0.0367
  155MOL0    Cl20834   7.226   6.484   1.183  0.0461 -0.2445 -0.4309
  155MOL0     C20835   7.899   5.646   1.745 -0.5138 -0.3035 -0.7105
  155MOL0     C20836   7.995   5.559   1.799 -0.3501 -0.4025 -0.3640
  155MOL0     O20837   8.287   5.424   1.753  0.3965 -0.7399 -0.7162
  155MOL0     C20838   8.374   5.358   2.087 -0.1608  0.5468 -0.1077
  155MOL0     C20839   8.484   5.318   2.164 -1.1060 -0.1283 -0.1290
  155MOL0     N20840   9.202   4.961   2.399 -0.2936  0.6956 -0.0361
  155MOL0     N20841   9.270   4.922   2.296  0.6681  0.2222 -0.3435
  155MOL0     C20842   8.557   5.680   1.782 -0.4862 -0.0952  0.4827
  155MOL0     C20843   8.465   5.752   1.719  0.5385 -0.4936 -0.6783
  155MOL0     C20844   8.262   6.153   1.629 -0.5889  0.5431 -0.0929
  155MOL0     C20845   8.138   6.092   1.642 -0.6438  0.2180  0.3143
  155MOL0     C20846   8.029   6.173   1.614  1.2754  0.1342 -0.0104
  155MOL0     C20847   8.035   6.305   1.587 -0.1009 -0.8343  0.3888
  155MOL0     O20848   7.914   6.378   1.565 -0.2724 -0.8484 -0.6047
  155MOL0     C20849   7.902   6.514   1.596 -0.2311 -0.6230 -0.2447
  155MOL0     C20850   7.905   6.599   1.470  0.1376 -0.2190 -0.1142
  155MOL0     C20851   7.766   6.656   1.423  0.4761  1.1439 -0.9402
  155MOL0     C20852   7.780   6.795   1.357 -0.4980 -0.3528 -0.6768
  155MOL0     C20853   7.646   6.842   1.316 -0.0479 -0.8798  0.6593
  155MOL0     C20854   7.537   6.892   1.287 -0.2820  0.0755  0.8794
  155MOL0     C20855   8.155   6.369   1.583 -0.0008 -0.3713  0.9892
  155MOL0     C20856   8.270   6.292   1.607  0.5484 -1.0082  0.5040
  155MOL0     C20857   8.398   6.374   1.595 -0.4021 -0.0311 -0.7074
  155MOL0     H20858   8.530   6.047   1.887  2.0039  0.4395  0.4237
  155MOL0     H20859   8.690   5.901   2.015  1.1806 -0.1087 -1.0166
  155MOL0     H20860   8.787   5.553   1.767 -0.0569 -1.2270  0.1196
  155MOL0     H20861   8.898   5.688   1.814  1.8075  0.2770  2.6287
  155MOL0     H20862   8.968   5.528   2.017  1.2148  0.6003 -0.2611
  155MOL0     H20863   9.042   5.542   1.861 -0.7553  0.0813 -0.6959
  155MOL0     H20864   8.882   5.347   1.783  1.1074 -1.3693 -0.5240
  155MOL0     H20865   8.866   5.326   1.961  0.7346  1.3207  0.9205
  155MOL0     H20866   9.105   5.317   1.774  0.4036  2.5145  1.2062
  155MOL0     H20867   9.123   5.330   1.955 -1.6489  0.1030  1.3011
  155MOL0     H20868   8.972   5.127   1.969 -1.2962  2.4226  0.7175
  155MOL0     H20869   9.024   5.086   1.807 -0.1044 -1.1679  1.0722
  155MOL0     H20870   9.258   5.137   1.885 -0.4306 -0.0211 -0.4678
  155MOL0     H20871   9.199   5.137   2.049  0.1311  2.1318 -1.0222
  155MOL0     H20872   9.225   4.919   1.847  0.5280  1.3083 -0.3345
  155MOL0     H20873   9.065   4.912   1.909  1.0977 -1.0792 -1.7767
  155MOL0     H20874   9.148   4.781   2.048 -0.1459  0.9655 -0.4829
  155MOL0     H20875   9.315   4.847   2.048 -0.3317  1.6689 -2.2911
  155MOL0     H20876   8.980   5.001   2.175 -2.0410 -1.0428  2.9686
  155MOL0     H20877   8.858   5.015   2.419  0.3846 -0.9000  0.3330
  155MOL0     H20878   8.984   5.017   2.545  1.7845 -0.5944 -0.5352
  155MOL0     H20879   8.861   5.243   2.491 -1.8896 -4.3833 -0.2552
  155MOL0     H20880   9.046   5.247   2.465 -1.6214  1.9504  1.3648
  155MOL0     H20881   8.958   5.235   2.222 -0.2443  1.0469 -0.3421
  155MOL0     H20882   8.924   5.382   2.324  0.0382 -0.0071  0.7117
  155MOL0     H20883   8.705   5.367   2.313  0.5550 -0.2736 -0.3138
  155MOL0     H20884   8.703   5.199   2.362  2.7073  0.3351  2.6657
  155MOL0     H20885   8.671   5.212   1.902 -3.6620 -0.0890 -3.1906
  155MOL0     H20886   8.485   5.297   1.780 -1.0649  0.7552  0.2449
  155MOL0     H20887   8.196   5.787   1.947 -2.5149  2.0297  1.4235
  155MOL0     H20888   8.008   5.935   1.897  0.9231  1.1097  0.1579
  155MOL0     H20889   7.750   5.955   1.907  1.3863  1.5632  1.5675
  155MOL0     H20890   7.826   6.064   1.799 -2.1827  1.6659  1.4072
  155MOL0     H20891   7.550   5.946   1.730 -0.7456  0.8402  0.7148
  155MOL0     H20892   7.569   6.098   1.821 -1.1938  1.2045 -1.3589
  155MOL0     H20893   7.690   6.202   1.658 -4.2713  1.3378  2.0216
  155MOL0     H20894   7.705   6.061   1.543  0.4626  1.4537 -0.3686
  155MOL0     H20895   7.458   6.211   1.632  0.0296 -0.5522  0.0226
  155MOL0     H20896   7.458   6.091   1.486  2.3107 -0.1041 -2.5847
  155MOL0     H20897   7.606   6.237   1.368 -0.6525  0.1373 -1.3032
  155MOL0     H20898   7.616   6.359   1.503 -0.7694  0.0642  1.4653
  155MOL0     H20899   7.357   6.293   1.353  1.8789 -0.2124 -1.5050
  155MOL0     H20900   7.365   6.381   1.508 -1.3571 -1.7035  0.5185
  155MOL0     H20901   7.528   6.470   1.269 -0.3317  1.8392 -0.9320
  155MOL0     H20902   7.508   6.556   1.416  1.1772  0.4285  0.0657
  155MOL0     H20903   7.269   6.600   1.391 -3.4230 -0.6479 -2.6682
  155MOL0     H20904   7.372   6.658   1.257 -1.3881 -1.6480 -3.0689
  155MOL0     H20905   7.806   5.614   1.699 -1.5420 -1.8195  2.1383
  155MOL0     H20906   7.991   5.457   1.762  3.1621 -0.2805 -1.5293
  155MOL0     H20907   8.292   5.399   2.145  1.0956 -0.7918  2.8422
  155MOL0     H20908   8.486   5.303   2.272  0.8108 -0.2816 -0.1588
  155MOL0     H20909   8.537   5.577   1.756 -0.1161 -0.0214 -0.1133
  155MOL0     H20910   8.396   5.704   1.651  1.3577 -3.3491  0.3571
  155MOL0     H20911   8.124   5.987   1.664  0.0831  0.3565  1.5706
  155MOL0     H20912   7.930   6.134   1.636  0.4738  2.4077  0.6761
  155MOL0     H20913   7.975   6.554   1.666 -1.7458 -1.0145  1.6405
  155MOL0     H20914   7.806   6.525   1.647  0.0076  0.3268  0.0224
  155MOL0     H20915   7.950   6.539   1.391 -0.1077  2.0138 -2.0375
  155MOL0     H20916   7.972   6.684   1.487 -0.6694  1.1716 -3.1761
  155MOL0     H20917   7.707   6.663   1.514  1.1109  0.8866 -0.5035
  155MOL0     H20918   7.718   6.589   1.351  3.5763 -2.9191  0.3599
  155MOL0     H20919   7.805   6.874   1.430 -0.9567  2.0817 -2.9971
  155MOL0     H20920   7.865   6.807   1.290  0.3051  1.4555  0.5753
  155MOL0     H20921   7.448   6.924   1.236 -1.0330 -3.1362 -0.0634
  155MOL0     H20922   8.160   6.476   1.562  2.2435 -0.6054  0.0946
  155MOL0     H20923   8.389   6.480   1.618  1.4122  0.4222 -1.9541
  155MOL0     H20924   8.478   6.335   1.659  0.6686  1.1002 -1.3134
  155MOL0     H20925   8.429   6.377   1.490  0.3857 -0.8945 -0.5179
  156MOL0     O20926   5.827   4.028  11.226 -0.4352 -0.3142 -0.5367
  156MOL0     C20927   5.789   4.027  11.110  0.0924 -0.1957 -0.1212
  156MOL0     O20928   5.865   4.035  10.998  0.1722  0.0142  0.1852
  156MOL0     C20929   6.003   4.020  11.004  0.4025  0.3150 -0.2109
  156MOL0     C20930   6.063   3.935  10.913 -1.2843 -0.0405  0.5115
  156MOL0     C20931   6.205   3.922  10.908 -0.9644  0.4836  0.1040
  156MOL0     C20932   6.279   4.001  11.001  0.2063 -0.3530 -0.7431
  156MOL0     O20933   6.415   4.002  10.984 -0.0185 -0.2200  0.7937
  156MOL0     C20934   6.480   3.895  11.052 -0.0962  0.6057  0.4358
  156MOL0     C20935   6.619   3.933  11.095 -0.9714 -0.1421 -0.2922
  156MOL0     C20936   6.720   3.873  10.998  0.0256 -0.8273  0.0324
  156MOL0     C20937   6.866   3.902  11.047 -0.3924  0.7276  0.7607
  156MOL0     C20938   6.968   3.811  10.966  0.5741  0.7849 -0.0654
  156MOL0     C20939   7.007   3.861  10.826 -0.5494 -0.3032  0.4837
  156MOL0     C20940   7.044   4.017  10.813  0.9276 -0.1722 -0.3441
  156MOL0     C20941   7.107   4.043  10.674  0.0140 -0.5912  0.3211
  156MOL0     N20942   7.158   4.182  10.647  0.0473  0.7398  0.9709
  156MOL0     C20943   7.288   4.224  10.678  0.0596  0.1758  0.3643
  156MOL0     C20944   7.289   4.358  10.660 -0.0304 -0.3251  0.2976
  156MOL0     C20945   7.415   4.442  10.678 -0.0791 -0.4257  0.3178
  156MOL0     C20946   7.461   4.510  10.548 -0.5317  0.2557  0.6515
  156MOL0     C20947   7.371   4.627  10.504 -0.0807 -0.9490  0.5674
  156MOL0     C20948   7.395   4.678  10.363 -0.1485 -1.0480 -0.1493
  156MOL0     O20949   7.322   4.801  10.343 -0.1143 -0.3756 -0.3918
  156MOL0     C20950   7.185   4.821  10.361 -0.0589 -0.5233  0.0921
  156MOL0     C20951   7.152   4.956  10.364  0.5178 -0.8415  1.0064
  156MOL0     C20952   7.019   4.996  10.384  0.3273 -0.9760 -0.0408
  156MOL0     C20953   6.919   4.896  10.381  1.3107  0.0317  0.4980
  156MOL0     C20954   6.779   4.937  10.389 -0.0703  0.1253  0.2906
  156MOL0     O20955   6.740   5.059  10.344 -0.4912  0.6126  0.8393
  156MOL0     C20956   6.608   5.074  10.334 -0.1430  0.3497  0.3280
  156MOL0     C20957   6.546   5.180  10.403  0.8394 -0.3339 -0.4050
  156MOL0     C20958   6.404   5.212  10.387 -0.5660  0.6602 -0.5820
  156MOL0     C20959   6.320   5.139  10.308  0.1579  0.2205  1.0583
  156MOL0     O20960   6.186   5.176  10.300  0.1934 -0.3243 -0.8321
  156MOL0     C20961   6.098   5.067  10.273 -0.8958 -0.8768 -0.0409
  156MOL0     C20962   5.964   5.130  10.269  0.3466  0.3126 -0.7899
  156MOL0     C20963   5.911   5.178  10.398 -0.1097 -0.1137  0.2792
  156MOL0     C20964   5.762   5.226  10.394  0.0847 -0.2560 -0.8453
  156MOL0     C20965   5.672   5.112  10.355  0.7973 -0.2154 -0.0242
  156MOL0     C20966   5.522   5.150  10.353 -0.1094  0.2585 -0.1385
  156MOL0     C20967   5.447   5.016  10.331 -1.0167  0.5228 -0.7186
  156MOL0     C20968   5.298   5.009  10.380 -0.3856 -0.5929  0.6264
  156MOL0    Cl20969   5.188   5.103  10.265  0.4414  0.4476 -0.1509
  156MOL0     C20970   6.381   5.031  10.234 -0.5175 -0.6245  0.3277
  156MOL0     C20971   6.524   5.007  10.241  0.7834  0.2789  0.0839
  156MOL0     O20972   6.709   4.837  10.424 -0.3614  0.1225  0.3307
  156MOL0     C20973   6.959   4.761  10.369  0.1986  1.2083 -0.7820
  156MOL0     C20974   7.089   4.718  10.362 -0.3129  0.1167 -0.6896
  156MOL0     N20975   7.157   4.403  10.632 -0.5884  0.4148  0.2536
  156MOL0     N20976   7.083   4.291  10.627 -0.3127  0.2813  0.5142
  156MOL0     C20977   6.220   4.085  11.091 -0.3976  0.8272  0.3032
  156MOL0     C20978   6.078   4.093  11.090 -0.7523  0.2157 -0.7675
  156MOL0     C20979   5.638   4.001  11.102  0.3666 -0.0750 -0.0918
  156MOL0     C20980   5.581   3.922  11.204 -0.0467 -0.0652 -0.2470
  156MOL0     C20981   5.449   3.886  11.199  0.1350  0.7275 -0.2507
  156MOL0     C20982   5.362   3.932  11.101 -0.4835 -0.2327  1.2486
  156MOL0     O20983   5.233   3.894  11.112 -0.6175 -0.1733  0.1029
  156MOL0     C20984   5.139   3.947  11.012 -1.2382 -0.3999 -0.0200
  156MOL0     C20985   5.091   4.095  11.050 -0.6224  0.2625 -0.0404
  156MOL0     C20986   4.993   4.164  10.948  0.8638  0.5972 -0.2767
  156MOL0     C20987   4.857   4.087  10.938  0.1271 -0.2132 -0.3476
  156MOL0     C20988   4.766   4.145  10.838  0.0531 -0.4952 -0.2194
  156MOL0     C20989   4.694   4.191  10.750  0.0034 -0.1770  0.1876
  156MOL0     C20990   5.417   4.004  10.992 -0.2096 -0.0351 -0.0330
  156MOL0     C20991   5.555   4.035  10.990  0.2583 -0.5263 -0.1428
  156MOL0     C20992   5.606   4.126  10.883 -1.0298  0.1817 -0.6827
  156MOL0     H20993   6.001   3.878  10.843 -1.2630  1.6154 -0.9379
  156MOL0     H20994   6.247   3.865  10.825 -2.1480  1.1207 -0.9661
  156MOL0     H20995   6.422   3.861  11.138  0.4235 -0.3964  0.4023
  156MOL0     H20996   6.492   3.801  10.998  0.5024 -0.3358  2.1522
  156MOL0     H20997   6.634   3.891  11.195 -1.9675  0.0471 -0.0434
  156MOL0     H20998   6.622   4.042  11.095 -1.0805 -0.1318 -1.4020
  156MOL0     H20999   6.716   3.933  10.906 -0.4305 -0.6372  0.1789
  156MOL0     H21000   6.704   3.770  10.966  2.1611 -1.2786  0.2541
  156MOL0     H21001   6.884   4.008  11.027 -2.3124  0.6663 -1.9817
  156MOL0     H21002   6.875   3.882  11.154 -2.4361  0.3079  0.9139
  156MOL0     H21003   7.064   3.802  11.019 -0.3038  4.1114  2.4176
  156MOL0     H21004   6.919   3.715  10.954  0.4922  0.6595  1.1636
  156MOL0     H21005   7.098   3.803  10.808 -0.0388 -0.4754  3.2139
  156MOL0     H21006   6.931   3.824  10.757 -1.2326 -0.5572  1.3461
  156MOL0     H21007   7.109   4.046  10.896 -3.4248  0.0987  3.3213
  156MOL0     H21008   6.953   4.076  10.827  0.8410 -0.3254 -0.2625
  156MOL0     H21009   7.189   3.971  10.668  0.3200 -0.1356 -1.4894
  156MOL0     H21010   7.037   4.017  10.594 -0.7846  0.4114  0.6607
  156MOL0     H21011   7.366   4.157  10.710 -2.0207 -2.6371 -0.0374
  156MOL0     H21012   7.400   4.526  10.746 -0.9573  2.7106 -3.3561
  156MOL0     H21013   7.499   4.377  10.705  0.6107  0.2447 -0.1733
  156MOL0     H21014   7.568   4.529  10.558  0.7505 -4.6772 -0.9918
  156MOL0     H21015   7.452   4.432  10.472  2.6445  0.4152 -0.0290
  156MOL0     H21016   7.402   4.707  10.572 -3.4098  1.6231 -0.6881
  156MOL0     H21017   7.267   4.609  10.533 -0.5329 -0.0203 -0.4237
  156MOL0     H21018   7.361   4.609  10.285 -0.8470  1.6776 -2.4063
  156MOL0     H21019   7.502   4.696  10.350  0.1695  0.5460  3.3915
  156MOL0     H21020   7.237   5.022  10.379  1.0879 -1.1235 -0.7989
  156MOL0     H21021   7.004   5.103  10.400 -1.5780 -1.0580 -1.0360
  156MOL0     H21022   6.611   5.249  10.456 -0.1482 -1.3375  2.2613
  156MOL0     H21023   6.354   5.300  10.427 -0.1022  0.2226  1.0633
  156MOL0     H21024   6.113   5.027  10.173 -3.0486 -0.5073 -0.5606
  156MOL0     H21025   6.109   4.982  10.341 -0.6334 -0.7155  0.1225
  156MOL0     H21026   5.968   5.200  10.185 -2.1023  0.6624 -0.6728
  156MOL0     H21027   5.898   5.048  10.240  1.4666 -1.6274  1.7274
  156MOL0     H21028   5.922   5.104  10.477 -0.4025 -0.4253  0.0311
  156MOL0     H21029   5.974   5.262  10.430 -0.8473  0.0331  1.4006
  156MOL0     H21030   5.747   5.316  10.333 -1.2192 -0.7856 -1.3231
  156MOL0     H21031   5.728   5.263  10.491 -0.0334  1.6424 -1.5608
  156MOL0     H21032   5.680   5.028  10.425 -2.0874 -1.3272 -0.8962
  156MOL0     H21033   5.701   5.080  10.255  1.3817  1.2941 -0.3586
  156MOL0     H21034   5.501   5.180  10.456 -1.1062  0.7756 -0.4753
  156MOL0     H21035   5.491   5.227  10.282 -1.1501  0.8006  0.8658
  156MOL0     H21036   5.499   4.941  10.391  0.1975 -1.0167 -3.5138
  156MOL0     H21037   5.447   4.986  10.226  1.2908 -3.4372  0.2362
  156MOL0     H21038   5.267   4.904  10.388 -1.4425 -0.4976 -1.4678
  156MOL0     H21039   5.302   5.060  10.476  0.5397  0.3922  0.0804
  156MOL0     H21040   6.334   4.961  10.165  0.3172 -1.6691  0.7883
  156MOL0     H21041   6.559   4.923  10.181 -0.3658  0.7270 -1.2774
  156MOL0     H21042   6.869   4.701  10.367  0.4679  0.4611  2.4771
  156MOL0     H21043   7.101   4.613  10.341 -3.5743 -0.1933 -1.5457
  156MOL0     H21044   6.293   4.139  11.151  0.0935  0.8358 -0.2805
  156MOL0     H21045   6.022   4.163  11.151  1.2972  3.1733 -2.0562
  156MOL0     H21046   5.646   3.891  11.285 -1.6113  2.0444  1.9737
  156MOL0     H21047   5.416   3.813  11.273  0.3322  2.5338  1.7183
  156MOL0     H21048   5.049   3.884  11.007 -0.6123 -1.2374 -2.4649
  156MOL0     H21049   5.185   3.947  10.912 -0.0630 -2.5986  0.4499
  156MOL0     H21050   5.180   4.154  11.075 -2.4519  2.0729  2.8457
  156MOL0     H21051   5.043   4.079  11.147 -2.5292 -1.6622 -1.2216
  156MOL0     H21052   5.045   4.158  10.852 -0.7200  0.5914 -1.1580
  156MOL0     H21053   4.974   4.270  10.966 -0.3928  0.5722 -1.3728
  156MOL0     H21054   4.871   3.982  10.911  2.5198 -0.5911  1.9067
  156MOL0     H21055   4.809   4.088  11.036  0.8098 -1.0462  0.0111
  156MOL0     H21056   4.633   4.230  10.671 -0.2192 -3.4297 -1.4161
  156MOL0     H21057   5.360   4.041  10.908 -1.2395  0.3444  0.7960
  156MOL0     H21058   5.527   4.182  10.832 -2.7657 -1.2876  0.2651
  156MOL0     H21059   5.675   4.201  10.922  1.5546 -1.3395 -2.1111
  156MOL0     H21060   5.658   4.070  10.806 -0.3292  0.7284 -0.6149
  157MOL0     O21061   3.345   9.561   7.996 -0.4738 -0.1977  0.3357
  157MOL0     C21062   3.336   9.497   7.890  0.2217 -0.0274  0.5294
  157MOL0     O21063   3.435   9.484   7.789  0.4064  0.5577 -0.3226
  157MOL0     C21064   3.552   9.554   7.788  0.1702 -0.1195  0.0436
  157MOL0     C21065   3.668   9.501   7.723  0.9810 -0.5474 -0.1051
  157MOL0     C21066   3.786   9.580   7.715 -0.4790 -0.4894 -0.5589
  157MOL0     C21067   3.799   9.706   7.781 -0.5020 -0.0119 -0.4938
  157MOL0     O21068   3.915   9.790   7.765 -0.0599 -0.0492 -0.0874
  157MOL0     C21069   4.033   9.749   7.841 -0.3830  0.5379  0.3128
  157MOL0     C21070   4.115   9.671   7.743 -0.1021  0.1017 -0.1680
  157MOL0     C21071   4.261   9.657   7.777  0.2623  0.5028 -0.0557
  157MOL0     C21072   4.284   9.616   7.923 -0.0394  0.0683 -0.7408
  157MOL0     C21073   4.425   9.599   7.976  0.7015 -0.2040 -0.0951
  157MOL0     C21074   4.506   9.723   7.943  0.5714  0.6572 -0.0013
  157MOL0     C21075   4.637   9.715   8.010 -0.4014  0.8782  0.3083
  157MOL0     C21076   4.741   9.815   7.963  0.6333 -0.6447  0.3085
  157MOL0     N21077   4.871   9.783   8.014  0.2815 -0.3873 -0.9795
  157MOL0     C21078   4.922   9.823   8.137  0.4807 -0.9171  0.0757
  157MOL0     C21079   5.041   9.762   8.153  0.5460  0.8598 -0.1704
  157MOL0     C21080   5.118   9.763   8.282 -0.2781  0.7356  0.7121
  157MOL0     C21081   5.077   9.651   8.384 -0.1981 -0.3395  0.5192
  157MOL0     C21082   5.086   9.507   8.314  0.0522 -0.3772 -0.3428
  157MOL0     C21083   4.941   9.460   8.280  0.4805  0.5214  1.0116
  157MOL0     O21084   4.884   9.389   8.396 -0.0647 -0.3943 -0.0720
  157MOL0     C21085   4.748   9.373   8.401 -0.3170  0.2823  0.0682
  157MOL0     C21086   4.701   9.360   8.532  0.6374  0.5893  1.2981
  157MOL0     C21087   4.569   9.341   8.553 -0.3533 -0.7008  0.5724
  157MOL0     C21088   4.482   9.322   8.447  0.3058  0.1524  0.6086
  157MOL0     C21089   4.339   9.285   8.468 -0.0934 -0.2972  0.4113
  157MOL0     O21090   4.301   9.260   8.595 -0.2215  0.0454  0.1808
  157MOL0     C21091   4.183   9.208   8.633  0.2987  0.3701  0.1880
  157MOL0     C21092   4.169   9.118   8.741 -0.0190 -0.1608 -1.4045
  157MOL0     C21093   4.050   9.057   8.783  0.2263 -0.3908  0.5321
  157MOL0     C21094   3.938   9.087   8.711  0.5300  0.2579  0.1675
  157MOL0     O21095   3.820   9.023   8.755  0.1412 -0.3441 -0.1050
  157MOL0     C21096   3.695   9.080   8.728  1.0489 -0.0950 -0.2410
  157MOL0     C21097   3.579   9.026   8.806  0.2203 -0.2291 -0.2954
  157MOL0     C21098   3.458   9.122   8.792  0.2286 -0.4718  0.2423
  157MOL0     C21099   3.331   9.077   8.874  0.0128  0.4034  0.3939
  157MOL0     C21100   3.225   9.185   8.881  0.7759  0.1578 -0.9682
  157MOL0     C21101   3.104   9.120   8.939  0.0442 -0.0171  0.1466
  157MOL0     C21102   3.127   9.046   9.075  0.2322 -0.4503 -0.5391
  157MOL0     C21103   2.987   9.046   9.141  0.1992 -0.5369  0.5843
  157MOL0    Cl21104   2.920   9.209   9.168  0.5403 -0.2031  0.6337
  157MOL0     C21105   3.939   9.193   8.612  0.3911  0.1935 -0.0442
  157MOL0     C21106   4.061   9.249   8.567 -0.1758 -0.1406  0.4842
  157MOL0     O21107   4.273   9.269   8.367 -0.5942  0.7531  0.3849
  157MOL0     C21108   4.527   9.328   8.315 -0.3791 -1.1552 -0.2372
  157MOL0     C21109   4.663   9.361   8.289 -0.4519  0.3342  0.6554
  157MOL0     N21110   5.067   9.702   8.030 -0.0878  0.3721  0.4801
  157MOL0     N21111   4.966   9.716   7.952 -0.5034 -0.3215  0.1010
  157MOL0     C21112   3.688   9.751   7.856  0.3390  0.9653  0.1819
  157MOL0     C21113   3.568   9.680   7.854 -0.0134 -0.3250  0.3301
  157MOL0     C21114   3.203   9.425   7.872 -1.2644  0.0250 -1.4405
  157MOL0     C21115   3.179   9.358   7.746 -0.6823 -1.2779 -1.2229
  157MOL0     C21116   3.063   9.287   7.713  0.3534  0.4609 -1.8961
  157MOL0     C21117   2.975   9.248   7.816  0.8146  0.2744 -0.6279
  157MOL0     O21118   2.880   9.151   7.803 -0.3222 -0.5951 -0.2053
  157MOL0     C21119   2.869   9.094   7.678 -0.5015  1.0369 -0.1384
  157MOL0     C21120   2.779   8.966   7.668 -0.3234 -0.8070  0.0224
  157MOL0     C21121   2.637   9.002   7.699 -0.2306 -0.2454  1.4488
  157MOL0     C21122   2.572   8.881   7.775 -0.5033  0.9441 -0.4736
  157MOL0     C21123   2.571   8.756   7.688  0.0781 -0.1713  0.6723
  157MOL0     C21124   2.581   8.653   7.627 -0.1526  0.9239  0.1272
  157MOL0     C21125   2.997   9.298   7.942  0.8662 -0.2934 -0.9881
  157MOL0     C21126   3.103   9.394   7.971 -0.1728 -0.5403 -0.4341
  157MOL0     C21127   3.119   9.434   8.114  0.3241 -0.8911  0.4343
  157MOL0     H21128   3.660   9.400   7.685 -1.6620  0.7066 -3.2993
  157MOL0     H21129   3.867   9.545   7.653 -0.9502 -0.2141 -1.3528
  157MOL0     H21130   4.100   9.824   7.884  1.9993 -2.6420  2.6469
  157MOL0     H21131   4.002   9.681   7.921 -1.4845 -0.6659 -1.0702
  157MOL0     H21132   4.114   9.717   7.643  1.1599  0.0431 -0.2228
  157MOL0     H21133   4.076   9.570   7.727 -0.1993  0.2260 -0.7497
  157MOL0     H21134   4.317   9.741   7.734  3.1735 -0.0479  2.3668
  157MOL0     H21135   4.296   9.568   7.725  0.5911  0.5687  0.0489
  157MOL0     H21136   4.236   9.692   7.986 -0.3455  0.5483 -1.5406
  157MOL0     H21137   4.240   9.517   7.939  1.5636 -0.5709 -0.0567
  157MOL0     H21138   4.434   9.575   8.082  0.1147  2.6241  0.6764
  157MOL0     H21139   4.471   9.519   7.917  1.0701  0.8880 -1.3372
  157MOL0     H21140   4.517   9.714   7.835 -3.7275  0.6395 -0.6146
  157MOL0     H21141   4.451   9.811   7.977 -2.1036 -0.9356  0.0795
  157MOL0     H21142   4.675   9.617   7.978 -0.8683  2.1647 -5.1242
  157MOL0     H21143   4.634   9.720   8.120  3.1536 -2.5507  0.8259
  157MOL0     H21144   4.749   9.804   7.854 -2.7249 -2.0085  0.0680
  157MOL0     H21145   4.704   9.916   7.986  0.3626 -0.7071  0.1503
  157MOL0     H21146   4.866   9.871   8.217 -2.1034 -0.6481 -1.7767
  157MOL0     H21147   5.224   9.746   8.262 -0.3119 -1.6712  2.1909
  157MOL0     H21148   5.097   9.861   8.326  0.7023  0.5823  1.5470
  157MOL0     H21149   5.149   9.648   8.466  1.9285 -1.4184 -1.2851
  157MOL0     H21150   4.978   9.677   8.423  0.1465 -0.3920  1.4487
  157MOL0     H21151   5.136   9.440   8.385 -3.0550  0.7320  3.2400
  157MOL0     H21152   5.145   9.525   8.224  0.3901  1.6620  0.2340
  157MOL0     H21153   4.960   9.382   8.205 -0.1208  0.7355  0.6204
  157MOL0     H21154   4.872   9.534   8.240  1.6815  0.7444 -0.7498
  157MOL0     H21155   4.768   9.366   8.617  2.0194 -1.7247  0.4421
  157MOL0     H21156   4.546   9.343   8.660 -0.3090 -0.7998  0.5836
  157MOL0     H21157   4.256   9.076   8.791 -2.4606 -1.6722  2.0285
  157MOL0     H21158   4.042   8.982   8.861 -1.2179 -1.8949 -0.9693
  157MOL0     H21159   3.700   9.185   8.760  1.7077  0.0579 -0.8321
  157MOL0     H21160   3.677   9.095   8.621  1.8034 -0.6294 -0.4449
  157MOL0     H21161   3.547   8.932   8.760 -0.5713  0.1818 -0.5933
  157MOL0     H21162   3.606   9.006   8.911  1.5870  0.2607 -0.5320
  157MOL0     H21163   3.504   9.216   8.826  0.4464 -0.4763 -0.0336
  157MOL0     H21164   3.425   9.123   8.688 -2.0221 -1.5223  0.8945
  157MOL0     H21165   3.371   9.056   8.974  2.1842  2.3909  0.0131
  157MOL0     H21166   3.294   8.984   8.829  1.9937 -1.1874  1.8358
  157MOL0     H21167   3.199   9.220   8.781  0.5563 -0.8109 -1.2586
  157MOL0     H21168   3.254   9.270   8.944 -1.6824  0.9492 -0.8250
  157MOL0     H21169   3.030   9.201   8.939  0.0308  0.0044 -1.8204
  157MOL0     H21170   3.072   9.038   8.875 -0.2611  0.7344 -0.6831
  157MOL0     H21171   3.195   9.091   9.148 -0.6397  0.8284 -0.4783
  157MOL0     H21172   3.166   8.948   9.043  0.1657  0.3855 -3.4844
  157MOL0     H21173   2.923   8.989   9.074 -3.1242  1.1946  2.0797
  157MOL0     H21174   2.991   8.987   9.233 -0.9975 -0.7643  0.4973
  157MOL0     H21175   3.855   9.231   8.554 -0.6085  0.4515  1.5044
  157MOL0     H21176   4.082   9.329   8.497  1.0207 -0.9703 -0.1449
  157MOL0     H21177   4.470   9.312   8.224  0.8438 -3.8676 -0.6227
  157MOL0     H21178   4.705   9.360   8.188 -0.1183  0.6466  0.7881
  157MOL0     H21179   3.709   9.841   7.913  1.3411  1.2189 -0.5528
  157MOL0     H21180   3.480   9.734   7.888 -1.8807 -0.9943 -2.9301
  157MOL0     H21181   3.261   9.370   7.676  1.1351 -2.7537  0.5295
  157MOL0     H21182   3.061   9.246   7.613  2.1914 -1.3708 -1.2556
  157MOL0     H21183   2.964   9.062   7.634 -0.0201  2.1140  0.0691
  157MOL0     H21184   2.829   9.171   7.611 -3.4410 -0.0309  0.2623
  157MOL0     H21185   2.831   8.892   7.730  1.6463 -0.1442 -0.7722
  157MOL0     H21186   2.784   8.921   7.569  1.0372  1.7844 -1.1863
  157MOL0     H21187   2.588   9.031   7.605  1.9443  3.6572  1.3322
  157MOL0     H21188   2.629   9.097   7.752  1.2648 -0.5484  2.2508
  157MOL0     H21189   2.625   8.874   7.870 -2.2667  1.5302  0.6041
  157MOL0     H21190   2.470   8.897   7.811 -0.8434 -0.3212 -0.8099
  157MOL0     H21191   2.582   8.562   7.571  0.9926 -0.3731  2.0961
  157MOL0     H21192   2.928   9.259   8.016  0.1089  1.1126 -0.9232
  157MOL0     H21193   3.085   9.536   8.130  1.2080 -0.3832 -0.7741
  157MOL0     H21194   3.057   9.366   8.174  0.4587 -0.7126  0.7771
  157MOL0     H21195   3.223   9.424   8.146  0.2729 -1.2181  0.5046
  158MOL0     O21196   5.670   9.056   5.141 -0.1587 -0.4930  1.0184
  158MOL0     C21197   5.669   8.941   5.178  0.9578 -0.4271 -0.2776
  158MOL0     O21198   5.768   8.881   5.249  0.7267  1.2779  0.6286
  158MOL0     C21199   5.883   8.937   5.233 -0.3276 -0.7584 -0.3065
  158MOL0     C21200   5.944   9.028   5.328 -0.8763  0.1496 -0.0787
  158MOL0     C21201   6.081   9.069   5.312 -0.3295  0.0178  0.1711
  158MOL0     C21202   6.165   9.011   5.214  0.0640 -1.2630 -0.1078
  158MOL0     O21203   6.306   9.027   5.211 -0.4183 -0.4184  0.2774
  158MOL0     C21204   6.355   9.157   5.205  0.8462 -0.8983 -0.1651
  158MOL0     C21205   6.505   9.151   5.154  0.4404  0.1863  0.0491
  158MOL0     C21206   6.504   9.095   5.010 -0.1797 -0.3451 -0.5192
  158MOL0     C21207   6.607   8.984   4.979  0.3192  0.0376  0.0939
  158MOL0     C21208   6.599   8.939   4.833 -0.5616 -0.0328  0.8593
  158MOL0     C21209   6.714   8.848   4.809  0.8054 -0.1056  1.9142
  158MOL0     C21210   6.718   8.804   4.660  1.0222 -1.0555  0.4700
  158MOL0     C21211   6.815   8.704   4.625 -0.6083  0.1548 -0.2113
  158MOL0     N21212   6.949   8.753   4.663  0.3764 -1.0334  0.8188
  158MOL0     C21213   7.013   8.736   4.782 -0.2706 -0.1653  0.6140
  158MOL0     C21214   7.103   8.837   4.780  0.0460 -0.6282 -0.1878
  158MOL0     C21215   7.209   8.860   4.883 -0.5673 -0.0395  0.4949
  158MOL0     C21216   7.330   8.772   4.880  0.0198 -0.3854 -0.1166
  158MOL0     C21217   7.414   8.789   4.756  0.3487 -0.0272  0.2018
  158MOL0     C21218   7.528   8.695   4.747  0.2158 -0.4873 -0.4281
  158MOL0     O21219   7.648   8.741   4.809 -0.3040  0.9123 -0.4121
  158MOL0     C21220   7.771   8.728   4.754  0.4449  0.7318 -0.1308
  158MOL0     C21221   7.833   8.606   4.744  0.1527  0.0095 -0.0955
  158MOL0     C21222   7.962   8.592   4.691  0.1288  0.4288 -0.0510
  158MOL0     C21223   8.033   8.698   4.649  0.0104  0.0046  0.7085
  158MOL0     C21224   8.164   8.689   4.596 -0.0437 -0.0985 -0.8265
  158MOL0     O21225   8.208   8.558   4.595  0.0134  0.1802  0.1684
  158MOL0     C21226   8.313   8.533   4.514  0.1399 -0.8604  0.0421
  158MOL0     C21227   8.434   8.481   4.567  0.0297 -0.8693  0.1271
  158MOL0     C21228   8.537   8.434   4.480  0.8332  0.5860  0.4411
  158MOL0     C21229   8.518   8.438   4.339  0.0834  0.2954 -0.8541
  158MOL0     O21230   8.637   8.410   4.275 -0.3094  0.0762  0.7329
  158MOL0     C21231   8.626   8.386   4.129  0.3031  0.2069  0.1927
  158MOL0     C21232   8.756   8.354   4.060 -0.0623  0.0070  0.3968
  158MOL0     C21233   8.861   8.465   4.059  0.2446  0.2257 -0.3958
  158MOL0     C21234   8.984   8.426   3.962  0.7387  0.0711  0.0735
  158MOL0     C21235   9.109   8.517   3.984  0.2123 -0.0629  0.0669
  158MOL0     C21236   9.078   8.658   3.931 -0.3395  0.5451 -0.3983
  158MOL0     C21237   9.183   8.755   3.975 -0.3869  0.6205  0.2974
  158MOL0     C21238   9.164   8.900   3.916  0.4576 -0.5452 -0.8705
  158MOL0    Cl21239   9.221   8.889   3.745 -0.1398  0.3107 -0.0679
  158MOL0     C21240   8.397   8.490   4.291 -0.8206  0.3388  0.4379
  158MOL0     C21241   8.306   8.549   4.371  0.2904  0.3384 -0.8119
  158MOL0     O21242   8.227   8.786   4.567 -0.3175 -0.5493 -0.4717
  158MOL0     C21243   7.961   8.819   4.637  0.1987  0.3106  1.0975
  158MOL0     C21244   7.839   8.835   4.696  0.3500 -1.0170  0.7060
  158MOL0     N21245   7.086   8.915   4.670  0.1299  0.7786  1.3955
  158MOL0     N21246   6.998   8.861   4.595  0.0120 -0.0213 -0.2362
  158MOL0     C21247   6.104   8.924   5.115  1.4341  0.4768 -0.7956
  158MOL0     C21248   5.963   8.896   5.126 -0.0233 -0.2269  0.0825
  158MOL0     C21249   5.532   8.864   5.175  0.7855 -1.8709  1.0028
  158MOL0     C21250   5.520   8.756   5.268 -0.1207 -0.5452  0.4532
  158MOL0     C21251   5.391   8.694   5.270 -0.6774  0.5262  1.0016
  158MOL0     C21252   5.281   8.735   5.197 -0.3660 -0.3895 -0.4778
  158MOL0     O21253   5.160   8.665   5.216  0.7342 -0.8494 -0.3508
  158MOL0     C21254   5.050   8.684   5.124  0.3112  0.4894 -0.0688
  158MOL0     C21255   4.938   8.580   5.160 -1.1445  0.1417  0.0272
  158MOL0     C21256   4.839   8.610   5.276 -1.0875  0.0729  0.6229
  158MOL0     C21257   4.760   8.731   5.265  0.9448 -0.2161 -0.4195
  158MOL0     C21258   4.675   8.733   5.144  0.1047 -0.1104  0.0382
  158MOL0     C21259   4.596   8.742   5.053 -0.5443 -0.4061 -0.3066
  158MOL0     C21260   5.305   8.835   5.099 -0.6944  0.2331  0.2632
  158MOL0     C21261   5.422   8.907   5.085  0.3040  0.2555  0.0202
  158MOL0     C21262   5.428   9.015   4.985 -1.5850  0.3390 -0.2956
  158MOL0     H21263   5.889   9.047   5.419  1.9460  0.6022  1.6462
  158MOL0     H21264   6.128   9.129   5.388  0.5433 -0.2979 -0.1073
  158MOL0     H21265   6.301   9.223   5.137 -2.5387 -2.2196  1.0270
  158MOL0     H21266   6.357   9.207   5.303 -1.1081  2.3920 -1.6035
  158MOL0     H21267   6.541   9.080   5.230 -2.0571 -1.3700 -0.0934
  158MOL0     H21268   6.559   9.244   5.168 -1.2797  0.9093  2.9400
  158MOL0     H21269   6.531   9.177   4.942  0.6916 -3.6133 -4.5417
  158MOL0     H21270   6.408   9.057   4.975 -0.5273 -0.2058  0.2801
  158MOL0     H21271   6.712   9.007   4.995  1.1965 -2.6646 -1.0547
  158MOL0     H21272   6.573   8.900   5.040  1.3406  0.1891  0.8867
  158MOL0     H21273   6.511   8.879   4.808 -0.9417  1.0395 -0.4746
  158MOL0     H21274   6.593   9.015   4.754 -2.6869 -1.2395 -0.2370
  158MOL0     H21275   6.812   8.891   4.834  1.7205 -0.9466 -0.0331
  158MOL0     H21276   6.702   8.759   4.872 -3.8994 -0.1416  1.3192
  158MOL0     H21277   6.727   8.895   4.601 -0.5829 -2.0832 -1.5015
  158MOL0     H21278   6.617   8.764   4.642  0.3121 -1.6946  4.7040
  158MOL0     H21279   6.789   8.620   4.690 -1.1551 -0.8177 -1.6471
  158MOL0     H21280   6.799   8.676   4.520  1.3661  1.6276 -0.9855
  158MOL0     H21281   6.980   8.678   4.867  0.6598  1.0984  1.8804
  158MOL0     H21282   7.237   8.966   4.878 -0.0158 -0.1997 -4.0612
  158MOL0     H21283   7.169   8.845   4.984 -0.7562 -0.1714  0.4003
  158MOL0     H21284   7.398   8.795   4.962  2.4555  1.3602 -2.4512
  158MOL0     H21285   7.300   8.667   4.877 -1.4392 -0.0166 -2.9807
  158MOL0     H21286   7.455   8.889   4.766  0.4177 -0.1813  1.8890
  158MOL0     H21287   7.343   8.778   4.674  0.3275 -1.5838  0.3861
  158MOL0     H21288   7.550   8.664   4.644  3.3422 -2.8965  0.7753
  158MOL0     H21289   7.499   8.601   4.796 -3.4793  0.2916 -0.8694
  158MOL0     H21290   7.776   8.528   4.794 -0.8330  1.3795  1.0103
  158MOL0     H21291   7.987   8.487   4.674  0.0609 -0.0428  2.3800
  158MOL0     H21292   8.441   8.481   4.675 -0.0766 -0.6643  0.1343
  158MOL0     H21293   8.629   8.397   4.523  0.7912  0.2736  0.2624
  158MOL0     H21294   8.552   8.308   4.108 -1.3920  0.9181  2.9767
  158MOL0     H21295   8.580   8.480   4.097  2.6903  1.5058  0.3349
  158MOL0     H21296   8.801   8.263   4.101 -1.9219 -1.6787 -1.0572
  158MOL0     H21297   8.728   8.315   3.962 -0.6081  0.2146  0.4676
  158MOL0     H21298   8.816   8.563   4.041 -1.1447 -0.2534  0.3229
  158MOL0     H21299   8.893   8.468   4.164 -0.0483  2.3423 -0.3248
  158MOL0     H21300   8.942   8.429   3.861 -1.7376  0.0186  1.0250
  158MOL0     H21301   9.009   8.323   3.986 -0.5262 -0.8503 -2.2588
  158MOL0     H21302   9.186   8.475   3.920 -0.5553  0.6667 -1.3849
  158MOL0     H21303   9.132   8.512   4.091  0.1224  0.1588  0.0970
  158MOL0     H21304   9.062   8.672   3.823 -0.3063  1.6639 -0.2715
  158MOL0     H21305   8.994   8.700   3.987  0.0721 -1.9556  2.3619
  158MOL0     H21306   9.276   8.715   3.933 -1.0794  0.3210 -1.0206
  158MOL0     H21307   9.186   8.757   4.084 -2.6392 -1.3184  0.4933
  158MOL0     H21308   9.062   8.932   3.935  0.0743 -2.6179  1.0695
  158MOL0     H21309   9.229   8.979   3.956  0.8836 -0.9272 -0.8021
  158MOL0     H21310   8.385   8.496   4.183  1.3281 -0.2016  0.1122
  158MOL0     H21311   8.224   8.596   4.318  0.2843 -1.4863 -2.5056
  158MOL0     H21312   8.001   8.903   4.581 -0.1433  1.5271  2.6089
  158MOL0     H21313   7.793   8.933   4.689  4.1727  0.9693  0.3726
  158MOL0     H21314   6.168   8.869   5.047  1.1559 -0.5291 -0.2683
  158MOL0     H21315   5.925   8.821   5.057  1.2238  0.9483 -1.9758
  158MOL0     H21316   5.601   8.726   5.334  0.1045 -1.7833 -0.3473
  158MOL0     H21317   5.379   8.615   5.343 -0.7275 -1.2099 -0.7845
  158MOL0     H21318   5.089   8.667   5.024 -2.7448  0.2513 -1.3236
  158MOL0     H21319   5.012   8.786   5.136  0.1173  0.9525 -3.6116
  158MOL0     H21320   5.001   8.494   5.184  2.3286  2.0734 -1.3566
  158MOL0     H21321   4.874   8.564   5.072 -0.5727 -1.4104 -0.1476
  158MOL0     H21322   4.890   8.613   5.374  1.2658 -1.6553 -0.4335
  158MOL0     H21323   4.778   8.520   5.284 -2.6469  0.4098 -4.5486
  158MOL0     H21324   4.693   8.740   5.351 -0.3073  0.8733 -1.4690
  158MOL0     H21325   4.817   8.825   5.259 -1.7781  1.6400  0.6541
  158MOL0     H21326   4.539   8.755   4.964  1.7111 -0.2184 -1.7891
  158MOL0     H21327   5.225   8.851   5.027 -0.5698 -0.9576 -0.1567
  158MOL0     H21328   5.361   9.002   4.899 -2.2733  0.5708  0.1962
  158MOL0     H21329   5.407   9.109   5.037 -4.1579  1.9143 -3.7362
  158MOL0     H21330   5.526   9.012   4.937 -1.0100 -0.7850  0.9007
  159MOL0     O21331   2.110   9.087   3.853  0.0878 -0.0456 -0.1315
  159MOL0     C21332   2.079   8.983   3.800 -0.2823 -0.6366  0.7585
  159MOL0     O21333   2.116   8.860   3.841  0.0845 -0.4228  0.1325
  159MOL0     C21334   2.172   8.834   3.961  0.2376 -0.5272 -0.4101
  159MOL0     C21335   2.281   8.903   4.019 -0.7141  0.1650  0.9240
  159MOL0     C21336   2.322   8.870   4.148 -0.6284  0.3747 -0.0240
  159MOL0     C21337   2.246   8.775   4.227  0.2866 -0.2432  0.4596
  159MOL0     O21338   2.270   8.737   4.362  0.2822  0.2992 -0.4157
  159MOL0     C21339   2.358   8.811   4.438  0.3128  1.1574 -0.1430
  159MOL0     C21340   2.299   8.939   4.486  0.2257  0.8024  0.7572
  159MOL0     C21341   2.182   8.919   4.587 -0.1957  0.7257  0.6788
  159MOL0     C21342   2.202   8.797   4.687 -0.1312  0.4573 -0.7765
  159MOL0     C21343   2.095   8.807   4.802 -0.5779 -0.5895 -0.3278
  159MOL0     C21344   2.116   8.685   4.895 -0.0481  0.0345 -0.0532
  159MOL0     C21345   2.008   8.668   5.007  0.5858  0.4232 -0.6503
  159MOL0     C21346   2.057   8.551   5.093 -0.1722  0.5054  0.8820
  159MOL0     N21347   2.050   8.417   5.024 -0.7864 -0.6144 -0.2397
  159MOL0     C21348   1.940   8.373   4.958  0.0096  0.2831 -0.9145
  159MOL0     C21349   1.974   8.237   4.931  0.2330  0.2693  0.9668
  159MOL0     C21350   1.896   8.132   4.870  0.4993  0.4366  0.5616
  159MOL0     C21351   1.961   7.993   4.861 -1.0463  1.3821 -0.1766
  159MOL0     C21352   1.876   7.915   4.763  0.5167  0.5637 -0.3179
  159MOL0     C21353   1.873   7.762   4.798 -0.3736 -1.4159  0.4541
  159MOL0     O21354   1.766   7.691   4.737  0.2744 -0.2341  0.3592
  159MOL0     C21355   1.629   7.713   4.763 -0.1880  0.3994 -0.2616
  159MOL0     C21356   1.571   7.815   4.855 -0.3340  0.2692  0.4328
  159MOL0     C21357   1.428   7.817   4.862 -0.7640  0.2264  0.2864
  159MOL0     C21358   1.351   7.737   4.778 -0.8510  1.0612  0.9683
  159MOL0     C21359   1.204   7.749   4.777  0.2192  0.4308 -0.4342
  159MOL0     O21360   1.170   7.883   4.814 -0.2308  0.4078 -0.1139
  159MOL0     C21361   1.039   7.906   4.817  0.3909 -0.1465 -0.4196
  159MOL0     C21362   0.952   7.912   4.703 -0.3569  0.3049 -0.8527
  159MOL0     C21363   0.809   7.937   4.720 -0.3223 -0.4987  0.7889
  159MOL0     C21364   0.756   7.959   4.845  0.4855  0.2269 -0.8422
  159MOL0     O21365   0.627   8.003   4.864  0.7382 -0.0440  1.0562
  159MOL0     C21366   0.537   8.008   4.748 -1.1254 -0.7565  0.9843
  159MOL0     C21367   0.392   7.992   4.804 -0.3390 -1.1808  1.0500
  159MOL0     C21368   0.355   7.855   4.863 -0.0338 -0.1623 -0.2501
  159MOL0     C21369   0.205   7.856   4.891 -1.4490  0.3592 -0.4213
  159MOL0     C21370   0.159   7.729   4.958 -1.0162  0.3424 -0.3852
  159MOL0     C21371   0.012   7.739   4.994  0.2480 -0.5056  0.2469
  159MOL0     C21372  -0.080   7.797   4.895  0.3121 -0.6207  1.2132
  159MOL0     C21373  -0.226   7.758   4.931 -0.3825 -0.1087  0.3528
  159MOL0    Cl21374  -0.271   7.829   5.093 -0.1833 -0.2074 -0.1522
  159MOL0     C21375   0.837   7.957   4.954 -0.0690 -0.2916  0.2172
  159MOL0     C21376   0.970   7.925   4.937 -0.0456  0.2636 -0.2020
  159MOL0     O21377   1.124   7.667   4.744 -0.5165 -0.2000 -0.7194
  159MOL0     C21378   1.404   7.646   4.688 -1.1078  0.5082 -0.2355
  159MOL0     C21379   1.543   7.635   4.683 -0.4399  0.8260  0.1341
  159MOL0     N21380   2.108   8.222   4.952  0.7087 -0.1370 -0.2761
  159MOL0     N21381   2.152   8.329   5.013  0.1730 -0.2565 -0.3480
  159MOL0     C21382   2.138   8.712   4.166  0.8765 -0.6194  0.0144
  159MOL0     C21383   2.115   8.736   4.035  1.1875  0.2153 -0.0624
  159MOL0     C21384   1.984   8.995   3.682  0.3120 -0.3360 -0.2901
  159MOL0     C21385   1.883   8.902   3.654  0.0567  0.9169  0.7549
  159MOL0     C21386   1.797   8.908   3.539 -0.5071  0.2699 -1.0825
  159MOL0     C21387   1.815   9.017   3.455  0.7004  0.4623 -0.6910
  159MOL0     O21388   1.748   9.040   3.340  1.1958 -0.6753 -0.0313
  159MOL0     C21389   1.664   8.939   3.287 -0.6915  0.6047 -0.4706
  159MOL0     C21390   1.527   8.951   3.354  0.0791 -0.3501 -0.1207
  159MOL0     C21391   1.462   9.089   3.326 -0.1714  0.5051  0.2223
  159MOL0     C21392   1.308   9.081   3.295 -0.0553 -0.3696 -0.4915
  159MOL0     C21393   1.280   9.038   3.158  0.2576 -0.8435 -1.0750
  159MOL0     C21394   1.261   8.979   3.049  0.8377 -0.2097  1.7464
  159MOL0     C21395   1.905   9.115   3.492 -0.1133  0.3358 -0.8747
  159MOL0     C21396   1.994   9.109   3.599 -0.3093  1.3920  0.2617
  159MOL0     C21397   2.109   9.214   3.599  0.0393  0.7679 -0.8262
  159MOL0     H21398   2.335   8.986   3.975  2.0527 -0.7479  2.3314
  159MOL0     H21399   2.415   8.910   4.188 -1.5715  2.1574  0.5209
  159MOL0     H21400   2.387   8.752   4.525  2.1782  2.1680 -0.0315
  159MOL0     H21401   2.443   8.841   4.376 -0.8113  3.3014 -0.7289
  159MOL0     H21402   2.274   9.012   4.409 -0.0397 -0.4493 -0.3755
  159MOL0     H21403   2.385   8.984   4.535 -0.9619  2.7083  1.1968
  159MOL0     H21404   2.082   8.909   4.544 -0.1640 -2.0118  1.0750
  159MOL0     H21405   2.171   9.015   4.639  1.2952  2.4001 -1.8970
  159MOL0     H21406   2.199   8.709   4.622 -2.0479  0.5913 -0.9139
  159MOL0     H21407   2.298   8.796   4.740  0.0445  0.6599 -1.0858
  159MOL0     H21408   2.106   8.898   4.861  4.2465 -0.5282 -0.9171
  159MOL0     H21409   1.998   8.791   4.753 -0.5055 -2.5858  0.0763
  159MOL0     H21410   2.126   8.593   4.837  0.0087 -0.5699  0.8928
  159MOL0     H21411   2.209   8.695   4.952 -0.5033  0.1035  0.6858
  159MOL0     H21412   1.910   8.647   4.964  1.1090 -0.9170 -1.2418
  159MOL0     H21413   1.992   8.756   5.071  2.4540 -1.7357  3.1403
  159MOL0     H21414   2.156   8.571   5.135  1.3435 -0.6244 -1.8793
  159MOL0     H21415   1.980   8.535   5.168 -1.1676 -2.3873 -0.6139
  159MOL0     H21416   1.846   8.424   4.943  0.6582  1.7823 -0.1001
  159MOL0     H21417   1.796   8.136   4.915  0.0762 -0.5489 -0.2538
  159MOL0     H21418   1.888   8.169   4.768  2.3395 -1.2067 -0.2384
  159MOL0     H21419   2.065   7.992   4.826 -0.3741  0.8693  1.7020
  159MOL0     H21420   1.969   7.954   4.963 -0.3196  2.6222  0.2591
  159MOL0     H21421   1.914   7.913   4.661 -1.2476  0.5261 -1.0144
  159MOL0     H21422   1.774   7.956   4.758 -0.9630 -2.6156  0.7977
  159MOL0     H21423   1.857   7.760   4.906 -0.3609 -1.5306  0.4536
  159MOL0     H21424   1.963   7.703   4.780  0.9857  0.9362 -0.9460
  159MOL0     H21425   1.632   7.870   4.926  1.5042 -0.6009 -0.3916
  159MOL0     H21426   1.385   7.892   4.927  1.2578  0.2362  1.6953
  159MOL0     H21427   0.982   7.874   4.606 -0.3339  0.9029 -1.0835
  159MOL0     H21428   0.751   7.962   4.632 -1.0203  2.5302  1.9900
  159MOL0     H21429   0.560   8.098   4.691  4.7264 -2.2331  0.3352
  159MOL0     H21430   0.545   7.919   4.685  0.1554  0.8425 -1.2449
  159MOL0     H21431   0.380   8.068   4.882 -2.4751  0.3531 -0.6658
  159MOL0     H21432   0.321   8.010   4.723  1.0442 -0.7733 -0.1099
  159MOL0     H21433   0.366   7.781   4.783 -2.5297 -2.3604  1.2863
  159MOL0     H21434   0.426   7.815   4.935  1.2872  0.2108 -1.3018
  159MOL0     H21435   0.147   7.876   4.801 -0.4788  0.6056 -0.9996
  159MOL0     H21436   0.176   7.934   4.962 -2.5221  0.6681 -1.1730
  159MOL0     H21437   0.219   7.711   5.048 -2.5574 -0.9948  0.4260
  159MOL0     H21438   0.176   7.636   4.903  0.4386 -1.2481  2.4984
  159MOL0     H21439  -0.022   7.638   5.018  2.4473 -0.8497  2.2473
  159MOL0     H21440  -0.003   7.795   5.087 -0.2263 -2.1909  1.2161
  159MOL0     H21441  -0.055   7.764   4.794 -2.7548  2.3574 -0.7355
  159MOL0     H21442  -0.072   7.906   4.892  0.8451 -0.6715  0.5541
  159MOL0     H21443  -0.286   7.794   4.846  0.2858  0.0012 -0.0733
  159MOL0     H21444  -0.241   7.650   4.937 -0.3533 -0.2546 -1.5689
  159MOL0     H21445   0.812   7.981   5.057 -0.2900 -1.6752  0.5048
  159MOL0     H21446   1.035   7.917   5.023 -0.8767 -3.2476  0.2802
  159MOL0     H21447   1.337   7.584   4.629 -1.0624  0.2750 -0.0400
  159MOL0     H21448   1.597   7.558   4.631 -0.2142 -0.9686  2.8160
  159MOL0     H21449   2.081   8.649   4.233 -1.8904  1.1312 -0.5269
  159MOL0     H21450   2.037   8.671   3.997  0.2179  1.6071 -0.5427
  159MOL0     H21451   1.875   8.811   3.713 -0.8418 -0.3713 -1.2306
  159MOL0     H21452   1.725   8.826   3.542  0.0809 -0.5250  4.7154
  159MOL0     H21453   1.703   8.839   3.307 -1.5651  0.2425 -0.5270
  159MOL0     H21454   1.667   8.941   3.178  4.2776  1.5963 -0.5417
  159MOL0     H21455   1.533   8.918   3.458 -1.8007 -3.2559 -0.8199
  159MOL0     H21456   1.458   8.879   3.309 -0.6031  0.8223 -1.0176
  159MOL0     H21457   1.513   9.133   3.240  0.3950  4.3713  2.3383
  159MOL0     H21458   1.464   9.157   3.411  1.8016  0.5478  0.1750
  159MOL0     H21459   1.268   9.006   3.363  3.4133 -1.3314  0.7017
  159MOL0     H21460   1.260   9.179   3.303  0.9677  0.4104 -2.8444
  159MOL0     H21461   1.237   8.917   2.965 -0.4800  1.2515  0.9877
  159MOL0     H21462   1.904   9.204   3.430 -1.5982 -0.3446 -1.8558
  159MOL0     H21463   2.124   9.269   3.506 -1.4656  2.0571 -0.3507
  159MOL0     H21464   2.096   9.282   3.683  1.5200 -0.5260  0.5262
  159MOL0     H21465   2.203   9.163   3.621  0.5902  1.7902 -0.7911
  160MOL0     O21466   8.625   6.862   1.353  0.0551  0.0947  0.6160
  160MOL0     C21467   8.697   6.936   1.416 -0.3409  0.8078 -0.2048
  160MOL0     O21468   8.795   6.894   1.497 -0.1174  0.5219  1.0246
  160MOL0     C21469   8.806   6.764   1.532  0.3149 -0.4987 -0.0507
  160MOL0     C21470   8.694   6.711   1.600 -0.2943 -0.1563 -0.0142
  160MOL0     C21471   8.708   6.592   1.675  0.6177  0.6644  0.7077
  160MOL0     C21472   8.819   6.513   1.663 -0.3731 -0.1947 -0.4605
  160MOL0     O21473   8.844   6.395   1.728 -0.4557  0.2164  0.5030
  160MOL0     C21474   8.754   6.290   1.730  0.3838  0.2319  0.8326
  160MOL0     C21475   8.829   6.169   1.788 -0.3367 -0.0100  0.5924
  160MOL0     C21476   8.862   6.190   1.930 -0.7564 -0.3275  0.1537
  160MOL0     C21477   9.003   6.250   1.949 -0.5544  0.5472 -0.1758
  160MOL0     C21478   9.064   6.173   2.070 -0.9198  0.3097  0.2397
  160MOL0     C21479   9.114   6.030   2.043  0.2723  0.3098 -0.4404
  160MOL0     C21480   9.176   6.023   1.909  0.2821 -0.8325 -0.3648
  160MOL0     C21481   9.230   5.873   1.871 -0.0574  0.2838 -0.1108
  160MOL0     N21482   9.375   5.861   1.859 -0.9113  0.1681  0.6317
  160MOL0     C21483   9.470   5.871   1.960  0.4493  0.1184  0.0589
  160MOL0     C21484   9.588   5.839   1.897 -0.1499  0.8582 -0.1286
  160MOL0     C21485   9.719   5.826   1.956  0.0413 -0.4498  0.3190
  160MOL0     C21486   9.737   5.675   1.977 -0.5003 -0.1142  0.0718
  160MOL0     C21487   9.885   5.649   2.023 -0.5798 -0.5902 -0.6523
  160MOL0     C21488   9.923   5.501   2.032 -0.2762  0.4163 -0.2577
  160MOL0     O21489  10.051   5.509   2.097 -0.2699  0.0767 -0.0676
  160MOL0     C21490  10.132   5.399   2.065 -0.1556  0.0283 -0.0148
  160MOL0     C21491  10.273   5.420   2.062  0.0404 -0.1342  0.9284
  160MOL0     C21492  10.362   5.313   2.055  0.1540  0.2818 -0.6433
  160MOL0     C21493  10.305   5.180   2.044 -0.2602  0.2497 -1.0513
  160MOL0     C21494  10.400   5.065   2.035  0.1688 -0.0859 -0.4714
  160MOL0     O21495  10.533   5.081   2.077 -0.5826  0.0897 -0.4531
  160MOL0     C21496  10.605   4.974   2.132  0.0964 -0.2043  0.2395
  160MOL0     C21497  10.555   4.866   2.207  0.2457  0.6417  0.7845
  160MOL0     C21498  10.633   4.763   2.262  0.4391 -0.3121  0.4657
  160MOL0     C21499  10.767   4.753   2.230 -0.1429  0.7765 -0.5571
  160MOL0     O21500  10.833   4.639   2.270  0.7216 -0.0369 -0.3297
  160MOL0     C21501  10.966   4.611   2.217 -0.7460 -0.9326  0.2806
  160MOL0     C21502  11.009   4.471   2.243 -0.0724 -0.2834  0.1659
  160MOL0     C21503  11.133   4.421   2.171  0.3924  0.3720  0.2602
  160MOL0     C21504  11.262   4.464   2.242  0.3142 -0.2399  0.2902
  160MOL0     C21505  11.380   4.425   2.151 -0.1984 -0.1678  0.3115
  160MOL0     C21506  11.395   4.279   2.124 -0.3109  0.3995  0.5100
  160MOL0     C21507  11.528   4.248   2.058  1.5242 -0.3126 -0.8484
  160MOL0     C21508  11.631   4.208   2.167 -0.1887 -0.1163 -0.0985
  160MOL0    Cl21509  11.785   4.202   2.083 -0.3973 -0.1552 -0.2652
  160MOL0     C21510  10.825   4.862   2.163 -0.0416  0.4504  0.4323
  160MOL0     C21511  10.744   4.978   2.119 -0.4857  0.7786 -0.2462
  160MOL0     O21512  10.343   4.953   2.011  0.1437 -0.9110 -0.2881
  160MOL0     C21513  10.165   5.164   2.038 -0.4357 -0.0622 -0.3398
  160MOL0     C21514  10.074   5.273   2.044 -0.5722 -0.1367 -1.0172
  160MOL0     N21515   9.569   5.807   1.768  0.6963 -0.2052 -0.2806
  160MOL0     N21516   9.441   5.818   1.748 -0.1159  0.2434 -0.0228
  160MOL0     C21517   8.925   6.570   1.591  0.1732  0.4089 -0.3167
  160MOL0     C21518   8.924   6.688   1.532  0.4042 -0.7087  0.2433
  160MOL0     C21519   8.705   7.073   1.372 -0.3077 -0.0903 -0.7471
  160MOL0     C21520   8.717   7.098   1.236 -0.0214  1.3604  0.2481
  160MOL0     C21521   8.698   7.235   1.187  0.2961 -0.1491  0.2763
  160MOL0     C21522   8.692   7.338   1.283  0.1943 -0.4094  0.3827
  160MOL0     O21523   8.681   7.464   1.227  0.1802  0.1746 -0.5515
  160MOL0     C21524   8.670   7.571   1.316 -0.3186 -0.0969 -0.8960
  160MOL0     C21525   8.637   7.706   1.245 -0.7016 -0.4181 -0.3727
  160MOL0     C21526   8.594   7.812   1.341 -0.0805 -0.3949  1.1590
  160MOL0     C21527   8.536   7.931   1.273  0.1645 -0.3435  0.0582
  160MOL0     C21528   8.618   7.989   1.167  0.4924  0.2083 -0.4799
  160MOL0     C21529   8.695   8.017   1.073  0.4587  0.8212 -0.0541
  160MOL0     C21530   8.711   7.310   1.414  0.3352  1.3651 -0.8328
  160MOL0     C21531   8.709   7.175   1.463  0.4693 -0.8951  0.7129
  160MOL0     C21532   8.703   7.153   1.623 -0.7549  0.1740  0.6577
  160MOL0     H21533   8.613   6.777   1.628  0.5839  2.1393 -2.4455
  160MOL0     H21534   8.618   6.563   1.729  0.6633  1.2764  1.1232
  160MOL0     H21535   8.665   6.305   1.792 -2.7814  0.0581 -3.2252
  160MOL0     H21536   8.719   6.272   1.628  0.3785 -3.0474  1.3000
  160MOL0     H21537   8.914   6.134   1.728  0.2452  0.7806  0.9404
  160MOL0     H21538   8.763   6.082   1.790 -3.5743  2.1648 -1.3905
  160MOL0     H21539   8.855   6.089   1.972  2.6846 -0.2826  1.1314
  160MOL0     H21540   8.785   6.247   1.984  2.1668  3.2723  0.9004
  160MOL0     H21541   9.066   6.251   1.860  0.2496 -3.2567  0.1554
  160MOL0     H21542   8.991   6.354   1.979  3.4606  1.1549 -0.1455
  160MOL0     H21543   9.152   6.230   2.102 -0.7316 -0.8014  1.7788
  160MOL0     H21544   8.984   6.173   2.145 -3.0652 -3.7910 -1.7574
  160MOL0     H21545   9.176   5.981   2.119 -1.8708  2.5213  2.9855
  160MOL0     H21546   9.024   5.968   2.033 -1.0641  2.3610 -1.7749
  160MOL0     H21547   9.259   6.093   1.902 -1.5885  1.4360 -1.1971
  160MOL0     H21548   9.097   6.039   1.835 -1.1116  0.4065  1.3266
  160MOL0     H21549   9.189   5.809   1.950 -2.5394  0.5945 -1.0587
  160MOL0     H21550   9.190   5.833   1.778 -2.1770 -0.1349  0.9267
  160MOL0     H21551   9.459   5.897   2.064 -1.6958  1.4501 -0.4438
  160MOL0     H21552   9.789   5.865   1.881 -2.5855 -0.2771 -2.2385
  160MOL0     H21553   9.735   5.893   2.041  2.5584  3.2571 -2.7403
  160MOL0     H21554   9.667   5.638   2.052  0.2542 -0.7665  0.4718
  160MOL0     H21555   9.716   5.625   1.882 -1.0213  0.7314 -0.2671
  160MOL0     H21556   9.895   5.699   2.120 -2.5164 -1.7877  0.2245
  160MOL0     H21557   9.956   5.687   1.949  1.4541  0.4677  1.6956
  160MOL0     H21558   9.919   5.453   1.934 -0.1157 -1.6054  0.6751
  160MOL0     H21559   9.870   5.441   2.107 -0.3129  1.9682  1.0002
  160MOL0     H21560  10.315   5.519   2.078  0.8990 -0.1274 -1.0637
  160MOL0     H21561  10.470   5.325   2.061 -0.0540  2.5282 -0.4710
  160MOL0     H21562  10.449   4.861   2.227 -0.2011  1.4862 -1.1567
  160MOL0     H21563  10.576   4.693   2.323  1.0873 -0.6951  0.6430
  160MOL0     H21564  10.964   4.638   2.111  2.4076  1.2464  0.6345
  160MOL0     H21565  11.037   4.678   2.267 -1.1542 -1.2839  1.3547
  160MOL0     H21566  11.029   4.461   2.351  1.9985 -0.3858 -0.1761
  160MOL0     H21567  10.928   4.398   2.238 -1.1835  1.0255 -2.5630
  160MOL0     H21568  11.125   4.313   2.159 -1.4463  0.1346  2.7704
  160MOL0     H21569  11.128   4.465   2.071  4.1040  1.9386  0.5718
  160MOL0     H21570  11.276   4.414   2.338  0.3944 -1.3302 -0.2712
  160MOL0     H21571  11.251   4.572   2.253  0.1365  0.0048 -1.8796
  160MOL0     H21572  11.470   4.463   2.199 -0.7243 -2.1205  3.1239
  160MOL0     H21573  11.375   4.482   2.058 -0.5969 -1.2745 -0.3678
  160MOL0     H21574  11.386   4.212   2.210  0.0493 -0.6144 -0.2268
  160MOL0     H21575  11.315   4.251   2.056  1.7498  1.1300 -2.4226
  160MOL0     H21576  11.562   4.330   1.994 -0.8964  2.0239  0.6172
  160MOL0     H21577  11.515   4.155   2.001 -1.3363 -1.1648  0.9743
  160MOL0     H21578  11.632   4.278   2.251 -1.6898 -3.1193  2.6235
  160MOL0     H21579  11.604   4.118   2.222  0.6179  0.4128  1.2166
  160MOL0     H21580  10.931   4.873   2.146  0.1889  1.8744  2.4029
  160MOL0     H21581  10.797   5.057   2.067 -0.8496  0.7815 -0.6131
  160MOL0     H21582  10.126   5.065   2.016  0.6857  0.1818 -4.0808
  160MOL0     H21583   9.966   5.259   2.044 -0.1880 -4.3796 -2.3329
  160MOL0     H21584   9.018   6.516   1.581  0.8599  1.8415 -2.3463
  160MOL0     H21585   9.007   6.722   1.471 -0.7883 -0.5037 -1.3448
  160MOL0     H21586   8.718   7.024   1.157  0.1675  0.8292  0.7446
  160MOL0     H21587   8.695   7.264   1.083 -2.0003  5.0649  1.4457
  160MOL0     H21588   8.765   7.575   1.370 -1.1188 -0.2948  0.5699
  160MOL0     H21589   8.591   7.548   1.388  0.9272  2.9362  1.6485
  160MOL0     H21590   8.565   7.675   1.169  2.0764 -3.3491 -2.0688
  160MOL0     H21591   8.719   7.750   1.188  0.3115 -0.1917  1.1925
  160MOL0     H21592   8.681   7.837   1.403 -0.7101  0.3830  1.7424
  160MOL0     H21593   8.518   7.768   1.405 -0.4458 -4.7040 -1.8186
  160MOL0     H21594   8.439   7.899   1.234  1.1309 -2.1906 -0.9656
  160MOL0     H21595   8.530   8.010   1.349  6.5811  0.2789  0.4983
  160MOL0     H21596   8.754   8.041   0.988  1.5791  0.4582  0.6066
  160MOL0     H21597   8.699   7.387   1.490  1.0515  0.8293 -0.1523
  160MOL0     H21598   8.787   7.088   1.651  0.5988  0.5638 -2.1826
  160MOL0     H21599   8.704   7.249   1.677 -1.5227  1.5540 -1.6662
  160MOL0     H21600   8.612   7.095   1.637 -1.3141  1.3117  2.0258
  161MOL0     O21601   8.477   1.169   6.218  0.3978  0.0614 -0.3467
  161MOL0     C21602   8.533   1.093   6.300 -0.5322 -0.0343  0.6718
  161MOL0     O21603   8.667   1.109   6.345  0.5002 -0.0716  0.9778
  161MOL0     C21604   8.739   1.228   6.333  0.8092  0.2053 -0.4780
  161MOL0     C21605   8.695   1.359   6.307  0.1664  1.0256 -0.0286
  161MOL0     C21606   8.784   1.467   6.303  0.1876  0.1498 -0.0691
  161MOL0     C21607   8.912   1.456   6.355 -0.3709  1.5436 -0.1997
  161MOL0     O21608   8.994   1.570   6.364  0.7653  0.3170 -0.1485
  161MOL0     C21609   9.129   1.564   6.421  0.7552  0.2087  0.3638
  161MOL0     C21610   9.177   1.711   6.437 -0.2830  0.4239  0.5665
  161MOL0     C21611   9.129   1.805   6.326 -0.8538 -0.0022 -0.4099
  161MOL0     C21612   9.187   1.948   6.337  0.5873 -0.3393 -0.3360
  161MOL0     C21613   9.332   1.953   6.301  0.5853  0.0106 -0.0409
  161MOL0     C21614   9.375   1.869   6.178 -0.0230  0.0478  0.1646
  161MOL0     C21615   9.522   1.925   6.132  0.2743 -0.1616 -0.7068
  161MOL0     C21616   9.571   1.841   6.010  0.2212  0.0870  0.2906
  161MOL0     N21617   9.632   1.710   6.048  0.9309 -0.3649  0.0990
  161MOL0     C21618   9.763   1.676   6.057 -0.4218 -0.3820  0.1003
  161MOL0     C21619   9.765   1.541   6.073  0.0457 -0.1490  0.7002
  161MOL0     C21620   9.882   1.458   6.124 -0.7563  0.1323 -0.5544
  161MOL0     C21621   9.963   1.384   6.021  0.0665 -0.7338  0.8132
  161MOL0     C21622   9.891   1.257   5.978  0.1397  0.7020 -1.3388
  161MOL0     C21623   9.975   1.177   5.883  0.5854 -0.6664  0.4405
  161MOL0     O21624  10.066   1.083   5.940  0.0224 -0.2452  0.5868
  161MOL0     C21625  10.188   1.127   5.971 -0.1064  0.2318 -0.1426
  161MOL0     C21626  10.226   1.136   6.107 -0.6526  0.7766 -0.1357
  161MOL0     C21627  10.365   1.171   6.143  0.7165  0.9609 -0.4072
  161MOL0     C21628  10.466   1.194   6.045 -0.3296 -0.0484 -0.4239
  161MOL0     C21629  10.612   1.206   6.086 -0.1481 -0.9269 -0.0063
  161MOL0     O21630  10.711   1.177   5.991 -0.4141 -0.6725 -0.7067
  161MOL0     C21631  10.844   1.193   6.038  0.9374 -0.8729 -0.0571
  161MOL0     C21632  10.930   1.287   5.985  1.0660 -0.2016 -0.2922
  161MOL0     C21633  11.062   1.297   6.031  0.3547 -0.3034  0.4261
  161MOL0     C21634  11.114   1.210   6.123 -0.5064 -1.2892 -0.1099
  161MOL0     O21635  11.246   1.209   6.168  0.3576  0.2799 -0.2499
  161MOL0     C21636  11.343   1.264   6.081  0.3852 -0.2558  0.3425
  161MOL0     C21637  11.479   1.231   6.136  0.5443 -0.5919  0.3809
  161MOL0     C21638  11.582   1.282   6.037 -0.2652 -0.2921  0.3587
  161MOL0     C21639  11.722   1.285   6.098 -0.6512 -0.5370 -0.4012
  161MOL0     C21640  11.828   1.338   5.997 -0.4251 -0.0667  0.1395
  161MOL0     C21641  11.973   1.351   6.040 -0.0316  0.5248  0.0172
  161MOL0     C21642  12.081   1.412   5.935  0.3791 -0.1354  0.0899
  161MOL0     C21643  12.231   1.391   5.982 -0.4099 -0.0752  0.7436
  161MOL0    Cl21644  12.253   1.447   6.142 -0.0278 -0.4392 -0.0932
  161MOL0     C21645  11.026   1.116   6.184 -0.0489 -0.3013  0.7203
  161MOL0     C21646  10.898   1.106   6.132 -0.1487 -0.1328  0.2881
  161MOL0     O21647  10.628   1.252   6.202 -0.3055 -0.4617 -0.2696
  161MOL0     C21648  10.409   1.196   5.910  0.2402  0.2097 -0.5897
  161MOL0     C21649  10.271   1.163   5.875 -0.4051  0.0436  0.0076
  161MOL0     N21650   9.636   1.498   6.065  0.6481 -0.1492  0.3134
  161MOL0     N21651   9.559   1.595   6.034 -0.2339 -0.1668  0.6228
  161MOL0     C21652   8.956   1.319   6.390 -0.5847 -0.6065 -0.1303
  161MOL0     C21653   8.869   1.210   6.385 -0.4986 -0.5627 -0.1334
  161MOL0     C21654   8.449   0.994   6.364 -0.7436  0.0382 -0.2141
  161MOL0     C21655   8.307   0.999   6.340  0.1255  0.6652 -0.3032
  161MOL0     C21656   8.221   0.903   6.406  0.5594 -0.1434  0.2192
  161MOL0     C21657   8.270   0.817   6.493 -0.3600 -0.8054  0.4995
  161MOL0     O21658   8.190   0.737   6.561  0.2958  0.7215 -0.6009
  161MOL0     C21659   8.155   0.767   6.703 -0.1182  0.9948 -0.2208
  161MOL0     C21660   8.003   0.725   6.718 -0.3093  0.1378  0.1282
  161MOL0     C21661   7.959   0.721   6.872 -0.2807 -0.7344  0.1201
  161MOL0     C21662   7.808   0.716   6.879  0.1184 -0.2228 -0.1337
  161MOL0     C21663   7.745   0.605   6.811  0.8786  0.1001  0.7699
  161MOL0     C21664   7.683   0.512   6.759  0.1045  0.2415 -0.1269
  161MOL0     C21665   8.404   0.810   6.519 -0.0454 -0.3864  0.7407
  161MOL0     C21666   8.493   0.893   6.452  0.2959 -0.0545 -0.2796
  161MOL0     C21667   8.638   0.864   6.483  0.8903 -0.4383 -0.0209
  161MOL0     H21668   8.591   1.374   6.279  0.2291 -0.0343 -0.9207
  161MOL0     H21669   8.751   1.567   6.281 -1.3283 -0.3898 -0.3520
  161MOL0     H21670   9.123   1.505   6.513 -1.5750 -0.9462 -0.4294
  161MOL0     H21671   9.198   1.509   6.356 -0.8474 -0.7818 -0.5825
  161MOL0     H21672   9.286   1.719   6.445  0.0011 -3.1637  1.5745
  161MOL0     H21673   9.141   1.750   6.532  2.4483  0.6165  1.6143
  161MOL0     H21674   9.020   1.813   6.333 -0.7016  1.1462  1.1651
  161MOL0     H21675   9.149   1.758   6.229 -4.4518  1.8090 -2.2506
  161MOL0     H21676   9.127   2.015   6.275 -0.4771 -0.2207  0.7755
  161MOL0     H21677   9.176   1.976   6.443 -2.2653 -1.2946 -0.3041
  161MOL0     H21678   9.365   2.053   6.269 -1.2877 -0.2391 -3.1389
  161MOL0     H21679   9.392   1.911   6.382  0.0857 -0.4311  0.1063
  161MOL0     H21680   9.380   1.761   6.196 -0.4257 -0.3809 -2.0697
  161MOL0     H21681   9.308   1.872   6.092  1.1009 -0.4066 -0.7558
  161MOL0     H21682   9.588   1.909   6.218  1.7719  1.1401 -1.5519
  161MOL0     H21683   9.519   2.034   6.119 -1.4244  0.1335  1.4768
  161MOL0     H21684   9.485   1.827   5.945  0.4317 -1.1394  0.2620
  161MOL0     H21685   9.651   1.896   5.958  0.0964 -0.6787 -0.7385
  161MOL0     H21686   9.859   1.723   6.075 -0.0976  0.1526 -2.7006
  161MOL0     H21687   9.942   1.535   6.174 -1.6376  0.4155  0.0929
  161MOL0     H21688   9.862   1.383   6.202 -0.2521 -0.3838 -0.9142
  161MOL0     H21689   9.988   1.448   5.936  1.6013 -2.4665 -0.1176
  161MOL0     H21690  10.056   1.351   6.069  0.5924 -1.6886 -0.7876
  161MOL0     H21691   9.800   1.286   5.925 -1.5728  2.5487  2.2518
  161MOL0     H21692   9.864   1.207   6.072 -1.2793 -0.4089 -2.2986
  161MOL0     H21693  10.022   1.253   5.819  0.1559 -1.4855 -0.8834
  161MOL0     H21694   9.910   1.121   5.816  0.1940  0.0551  0.1987
  161MOL0     H21695  10.159   1.119   6.191 -1.6037 -1.2936 -1.2410
  161MOL0     H21696  10.400   1.157   6.245 -0.1710  2.2016  0.1085
  161MOL0     H21697  10.888   1.349   5.907  0.4501  0.3194  0.4273
  161MOL0     H21698  11.125   1.374   5.987 -3.6874  2.7087 -0.7168
  161MOL0     H21699  11.326   1.221   5.982 -1.9398 -1.3735  1.1302
  161MOL0     H21700  11.328   1.372   6.082  1.0615 -0.1516  1.6408
  161MOL0     H21701  11.496   1.277   6.234  2.5128 -0.5313  0.0470
  161MOL0     H21702  11.499   1.123   6.132  3.1821 -0.1692  0.6542
  161MOL0     H21703  11.581   1.213   5.952 -1.7204 -3.3710  2.7086
  161MOL0     H21704  11.567   1.385   6.001  2.6349 -0.1978 -0.8636
  161MOL0     H21705  11.756   1.184   6.125  1.2713 -0.2384 -1.5188
  161MOL0     H21706  11.717   1.351   6.186 -0.1436  0.5530 -1.1689
  161MOL0     H21707  11.795   1.435   5.957  1.8502 -0.2233 -2.4162
  161MOL0     H21708  11.821   1.275   5.908  1.4877  2.1126 -1.6853
  161MOL0     H21709  11.969   1.427   6.119 -1.6030  2.9294 -2.1994
  161MOL0     H21710  12.011   1.251   6.063  2.1725  1.2822 -0.0977
  161MOL0     H21711  12.063   1.515   5.905 -0.8958 -1.1090 -2.9273
  161MOL0     H21712  12.081   1.364   5.837 -0.0235 -4.3169  1.9161
  161MOL0     H21713  12.262   1.287   5.987 -0.0055 -0.0290 -0.4938
  161MOL0     H21714  12.293   1.443   5.908  0.0658 -0.0691  1.1422
  161MOL0     H21715  11.057   1.044   6.259  1.5988 -1.5101 -1.0195
  161MOL0     H21716  10.831   1.032   6.175 -2.3431  0.4461 -1.8738
  161MOL0     H21717  10.484   1.217   5.834  0.0095 -0.0005 -0.8747
  161MOL0     H21718  10.243   1.150   5.771 -3.0446  0.0908  0.6478
  161MOL0     H21719   9.056   1.295   6.426 -0.3330  2.3000  1.4506
  161MOL0     H21720   8.885   1.108   6.418  1.4368 -1.1542 -2.6190
  161MOL0     H21721   8.255   1.062   6.269 -2.4466 -0.5447  0.3648
  161MOL0     H21722   8.114   0.916   6.400  0.8460  2.1672 -0.9994
  161MOL0     H21723   8.166   0.873   6.729  1.3163  1.8735 -3.8042
  161MOL0     H21724   8.217   0.711   6.772 -0.4566  1.9352  0.8863
  161MOL0     H21725   7.992   0.624   6.678 -3.1212 -0.9474  3.1536
  161MOL0     H21726   7.945   0.801   6.665 -1.3007 -1.5536 -1.3199
  161MOL0     H21727   7.994   0.814   6.917  2.5048 -0.6945 -1.8505
  161MOL0     H21728   8.016   0.643   6.924  2.7692  0.7493 -0.7809
  161MOL0     H21729   7.779   0.703   6.983 -0.1271 -1.1621 -0.3180
  161MOL0     H21730   7.765   0.806   6.835 -1.0667 -0.0381  1.3265
  161MOL0     H21731   7.626   0.440   6.704  1.0010 -0.3662 -0.2794
  161MOL0     H21732   8.446   0.724   6.571 -0.7015 -0.8973  0.4444
  161MOL0     H21733   8.684   0.943   6.542  2.2687 -0.3769 -1.1417
  161MOL0     H21734   8.652   0.773   6.542 -1.5718  1.1289  3.3708
  161MOL0     H21735   8.674   0.860   6.380  0.7065  2.1162 -0.2493
  162MOL0     O21736   6.633   9.592   7.898  0.8325  0.1519 -0.0774
  162MOL0     C21737   6.512   9.599   7.908 -0.7359  0.4850  0.2463
  162MOL0     O21738   6.429   9.510   7.962  0.5821  0.5802 -0.5213
  162MOL0     C21739   6.485   9.397   8.031 -0.0567 -0.4846 -0.4703
  162MOL0     C21740   6.482   9.400   8.170 -0.7558  0.2081  0.0083
  162MOL0     C21741   6.537   9.292   8.241 -0.4801 -0.4789 -0.8780
  162MOL0     C21742   6.598   9.185   8.173 -0.1920 -0.0675  0.6260
  162MOL0     O21743   6.646   9.076   8.247  0.1194 -0.0465  1.1998
  162MOL0     C21744   6.753   9.006   8.187  0.3100 -0.5346  0.5819
  162MOL0     C21745   6.817   8.902   8.281 -0.3802  0.5509  0.3233
  162MOL0     C21746   6.956   8.847   8.241 -0.4685  0.0465 -0.3635
  162MOL0     C21747   6.980   8.693   8.269  0.7281 -0.6054  0.1089
  162MOL0     C21748   7.008   8.670   8.424  0.7025 -0.4567  0.0047
  162MOL0     C21749   7.137   8.734   8.483 -0.7582 -1.2284 -0.6241
  162MOL0     C21750   7.153   8.707   8.633 -0.4081  0.5211 -0.4993
  162MOL0     C21751   7.260   8.792   8.701 -0.6073  1.0251  1.2619
  162MOL0     N21752   7.245   8.940   8.699 -0.0582 -0.3986  0.5577
  162MOL0     C21753   7.343   9.020   8.651  0.2368  0.0015 -0.2762
  162MOL0     C21754   7.290   9.144   8.654  0.6810  0.7588  0.0352
  162MOL0     C21755   7.346   9.273   8.597  0.0976  0.6956  0.2436
  162MOL0     C21756   7.491   9.279   8.584 -0.3212  0.2003  0.1897
  162MOL0     C21757   7.541   9.248   8.432  0.3968  0.0504 -0.0558
  162MOL0     C21758   7.478   9.333   8.316  0.6126  0.7705 -0.1696
  162MOL0     O21759   7.535   9.465   8.315 -0.4475 -0.6429  0.5034
  162MOL0     C21760   7.515   9.543   8.204  0.5480 -0.5305 -1.3387
  162MOL0     C21761   7.584   9.664   8.187  0.8593  0.1338  0.9800
  162MOL0     C21762   7.557   9.749   8.079  0.7168 -0.3396  0.7320
  162MOL0     C21763   7.465   9.709   7.973  0.1289 -0.2482 -0.1354
  162MOL0     C21764   7.418   9.805   7.870  0.6167  0.1722  0.2182
  162MOL0     O21765   7.469   9.930   7.868  0.5580  0.5296  0.4469
  162MOL0     C21766   7.424  10.017   7.773  0.1813 -0.4414  0.3903
  162MOL0     C21767   7.519  10.065   7.683 -0.3024 -0.2406 -0.5641
  162MOL0     C21768   7.472  10.128   7.566 -0.2574  0.0675 -0.2486
  162MOL0     C21769   7.337  10.167   7.546 -0.6615  0.4227  0.0409
  162MOL0     O21770   7.314  10.256   7.442  0.2424  0.0264  0.6679
  162MOL0     C21771   7.175  10.305   7.423 -0.0328 -1.0814 -0.1029
  162MOL0     C21772   7.182  10.430   7.334 -0.5355 -0.2699  0.4408
  162MOL0     C21773   7.049  10.471   7.278  0.7434 -0.9994  0.1736
  162MOL0     C21774   7.055  10.587   7.166  0.1868 -0.8385  0.3919
  162MOL0     C21775   6.922  10.666   7.144 -0.4474 -0.0015  0.1102
  162MOL0     C21776   6.940  10.788   7.054  0.1404  1.1579 -0.2243
  162MOL0     C21777   6.804  10.832   7.017  0.7307 -0.2103  0.4294
  162MOL0     C21778   6.810  10.962   6.934 -0.2070  1.0576 -0.4034
  162MOL0    Cl21779   6.865  11.097   7.039  0.2219  0.2222 -0.1349
  162MOL0     C21780   7.249  10.105   7.633  0.2578 -0.2128  0.2930
  162MOL0     C21781   7.292  10.033   7.737 -0.3918  0.7747  0.0772
  162MOL0     O21782   7.344   9.755   7.778 -0.0558 -0.5400 -0.3527
  162MOL0     C21783   7.396   9.592   7.985  0.0062 -0.2159  0.0278
  162MOL0     C21784   7.421   9.515   8.103 -0.3956  0.0335 -0.2175
  162MOL0     N21785   7.169   9.140   8.719  0.0421  0.0360 -0.3040
  162MOL0     N21786   7.136   9.020   8.735  0.0616  0.2107 -0.2398
  162MOL0     C21787   6.587   9.188   8.030 -0.7768 -0.0022 -0.0114
  162MOL0     C21788   6.523   9.286   7.960 -0.1162 -0.1673  0.1257
  162MOL0     C21789   6.447   9.715   7.837 -0.5951  0.1067 -0.2394
  162MOL0     C21790   6.326   9.764   7.885 -0.2952 -0.4189  0.3312
  162MOL0     C21791   6.244   9.855   7.814 -0.8194 -0.0139 -0.0467
  162MOL0     C21792   6.310   9.937   7.724 -0.3671  0.1255 -0.0415
  162MOL0     O21793   6.248  10.041   7.657  0.2795  0.0981 -0.5396
  162MOL0     C21794   6.117  10.078   7.702  0.1283  0.3174 -0.4870
  162MOL0     C21795   6.073  10.209   7.639 -0.6679  0.3269  0.1510
  162MOL0     C21796   6.039  10.308   7.756 -0.1511 -1.2744 -0.3222
  162MOL0     C21797   6.002  10.443   7.690 -0.6525  1.1338  0.3500
  162MOL0     C21798   5.997  10.552   7.784 -0.1753 -0.1434 -0.5208
  162MOL0     C21799   6.010  10.646   7.869 -0.3969  0.3037  0.1587
  162MOL0     C21800   6.439   9.905   7.686 -0.0662 -0.0904 -0.7894
  162MOL0     C21801   6.505   9.797   7.739 -0.3126 -0.6107 -0.2515
  162MOL0     C21802   6.651   9.777   7.697  0.1713 -0.3845 -0.4291
  162MOL0     H21803   6.451   9.488   8.227  1.0136 -0.9643  3.0513
  162MOL0     H21804   6.535   9.279   8.348  0.6823 -0.3459 -0.8235
  162MOL0     H21805   6.710   8.942   8.109  0.2007  2.5002 -2.0671
  162MOL0     H21806   6.833   9.069   8.147  1.6395  0.3806  4.2662
  162MOL0     H21807   6.747   8.820   8.294 -2.0491  2.2014  2.4388
  162MOL0     H21808   6.821   8.944   8.382 -2.7173 -1.0901  1.1921
  162MOL0     H21809   7.035   8.906   8.289  3.3486 -2.0172 -3.4901
  162MOL0     H21810   6.981   8.861   8.135 -1.2485 -1.5782 -0.7967
  162MOL0     H21811   6.899   8.630   8.232  0.8640 -1.0464  0.5417
  162MOL0     H21812   7.071   8.667   8.214  0.7524  0.9153 -0.6073
  162MOL0     H21813   6.919   8.713   8.471 -0.5511 -1.5458 -1.2571
  162MOL0     H21814   7.013   8.564   8.453  1.1575  0.3039  2.9930
  162MOL0     H21815   7.229   8.696   8.437 -1.2798 -2.0837 -0.9902
  162MOL0     H21816   7.146   8.840   8.459  1.3023 -1.7223 -2.4548
  162MOL0     H21817   7.175   8.600   8.645 -1.9248  0.0729 -1.3871
  162MOL0     H21818   7.055   8.723   8.680 -1.1933  0.0324 -1.8886
  162MOL0     H21819   7.262   8.743   8.799  3.4370  1.2908  1.4521
  162MOL0     H21820   7.358   8.769   8.660 -2.5549 -0.0812 -3.3562
  162MOL0     H21821   7.424   8.990   8.585 -0.6146 -1.4377 -0.7079
  162MOL0     H21822   7.295   9.270   8.500  0.1519 -0.3518  0.2311
  162MOL0     H21823   7.310   9.358   8.655 -1.7267 -0.2417  0.5549
  162MOL0     H21824   7.527   9.376   8.621  2.3122  0.3222 -2.3346
  162MOL0     H21825   7.543   9.208   8.650  0.5971  1.3980  0.7963
  162MOL0     H21826   7.503   9.148   8.409  1.5935 -0.5268  0.4164
  162MOL0     H21827   7.649   9.253   8.422  0.4139 -2.6145 -2.6413
  162MOL0     H21828   7.368   9.325   8.313  0.7113 -0.9478 -0.6226
  162MOL0     H21829   7.508   9.277   8.226 -1.2653 -1.3428  0.4036
  162MOL0     H21830   7.660   9.679   8.263  1.5572 -1.5340  0.6629
  162MOL0     H21831   7.615   9.839   8.066 -1.7017  1.1321 -0.7841
  162MOL0     H21832   7.625  10.049   7.695 -0.7828 -1.1279  4.5061
  162MOL0     H21833   7.547  10.179   7.508 -0.2771 -0.7554 -1.0187
  162MOL0     H21834   7.127  10.225   7.365  1.6294  0.1417 -3.4372
  162MOL0     H21835   7.120  10.331   7.514 -0.3495  0.6910 -0.7615
  162MOL0     H21836   7.232  10.515   7.381 -0.4011  0.5040 -1.0789
  162MOL0     H21837   7.244  10.412   7.247  0.6368 -0.4497  1.2884
  162MOL0     H21838   6.989  10.384   7.249 -0.9889 -0.1001  0.9397
  162MOL0     H21839   7.001  10.503   7.371  0.6264 -1.4121  0.2588
  162MOL0     H21840   7.079  10.540   7.070 -0.5663 -1.0270  0.2880
  162MOL0     H21841   7.140  10.653   7.188  1.4911 -2.9739  2.2395
  162MOL0     H21842   6.876  10.697   7.238 -0.1200 -0.9081  0.5832
  162MOL0     H21843   6.844  10.599   7.108 -0.2549  0.4159 -1.1191
  162MOL0     H21844   6.985  10.857   7.126 -1.3948  0.9610  0.9703
  162MOL0     H21845   6.998  10.756   6.967  0.9584  0.3429  0.6001
  162MOL0     H21846   6.758  10.859   7.112  2.2233 -1.7129  1.6411
  162MOL0     H21847   6.741  10.757   6.968  1.6627 -0.9778  0.3712
  162MOL0     H21848   6.881  10.946   6.852  0.1299 -1.5890  0.2912
  162MOL0     H21849   6.710  10.999   6.911 -0.8514  1.2196  2.3797
  162MOL0     H21850   7.144  10.131   7.625  0.3382 -0.0606 -0.3364
  162MOL0     H21851   7.211  10.004   7.804  1.4870  0.1394  2.2212
  162MOL0     H21852   7.321   9.567   7.911 -0.0697 -0.3554  0.1486
  162MOL0     H21853   7.360   9.425   8.110  0.1890 -0.2086  3.2829
  162MOL0     H21854   6.626   9.100   7.981  2.5355  0.8129  0.8945
  162MOL0     H21855   6.506   9.281   7.853 -0.8868  0.6641  0.1945
  162MOL0     H21856   6.292   9.713   7.974 -1.8016 -2.4949 -1.3258
  162MOL0     H21857   6.140   9.879   7.838 -1.4400  0.8015 -3.1131
  162MOL0     H21858   6.127  10.095   7.810  2.6398 -2.5128 -0.1132
  162MOL0     H21859   6.041  10.004   7.677  0.4314  0.9017 -3.4417
  162MOL0     H21860   5.982  10.197   7.579 -1.4836 -1.3012  1.6128
  162MOL0     H21861   6.149  10.237   7.565 -1.1895  0.3968 -0.3614
  162MOL0     H21862   6.122  10.316   7.827 -0.6008 -0.9029  0.1770
  162MOL0     H21863   5.955  10.279   7.820 -0.8809 -1.2446 -1.2396
  162MOL0     H21864   6.085  10.471   7.624 -0.0205 -1.6537 -0.1472
  162MOL0     H21865   5.914  10.450   7.625 -0.7737  2.2695  0.6084
  162MOL0     H21866   6.022  10.721   7.944 -0.5426 -0.7580  1.2906
  162MOL0     H21867   6.487   9.966   7.609  1.5231 -1.4854 -0.9692
  162MOL0     H21868   6.656   9.678   7.650  1.1324 -0.0550 -1.0538
  162MOL0     H21869   6.669   9.851   7.618 -0.0450  0.1761  0.0413
  162MOL0     H21870   6.720   9.790   7.781  0.0754  0.2336 -0.4420
  163MOL0     O21871   8.406   6.829   2.318  0.0044 -0.1284  0.4370
  163MOL0     C21872   8.454   6.716   2.350  0.8633  0.4409  0.0721
  163MOL0     O21873   8.584   6.699   2.377 -0.4765  0.1136 -0.6500
  163MOL0     C21874   8.672   6.811   2.377 -1.1482  0.0423 -0.2075
  163MOL0     C21875   8.681   6.919   2.285 -0.1023  0.2418 -0.1852
  163MOL0     C21876   8.772   7.021   2.301 -0.8776 -0.1489 -0.0495
  163MOL0     C21877   8.862   7.026   2.413 -0.3532 -0.3026  0.8773
  163MOL0     O21878   8.946   7.131   2.437 -0.1173  0.0691  0.8658
  163MOL0     C21879   8.886   7.257   2.461  0.3743  0.0840 -0.6166
  163MOL0     C21880   8.852   7.296   2.614 -0.1701  0.5347 -0.0468
  163MOL0     C21881   8.936   7.232   2.723 -0.3159 -0.3517  0.4558
  163MOL0     C21882   8.864   7.272   2.852  0.1264 -0.4562  0.2640
  163MOL0     C21883   8.949   7.224   2.974  0.4617  0.6592  0.3722
  163MOL0     C21884   9.056   7.324   3.003  0.2760 -0.1819 -0.0140
  163MOL0     C21885   9.156   7.259   3.109 -1.1235  0.0827 -0.7601
  163MOL0     C21886   9.242   7.369   3.176 -1.0794 -0.0785 -0.0445
  163MOL0     N21887   9.333   7.312   3.278  0.2359 -0.1687  0.2494
  163MOL0     C21888   9.290   7.240   3.386 -0.3688  0.9503 -0.2178
  163MOL0     C21889   9.388   7.238   3.482  0.4558  0.2225 -1.2324
  163MOL0     C21890   9.390   7.176   3.619 -0.6738 -0.6432 -0.0928
  163MOL0     C21891   9.281   7.245   3.696 -0.6192 -0.0950  0.5608
  163MOL0     C21892   9.282   7.197   3.840  0.2559  0.1533  0.6290
  163MOL0     C21893   9.336   7.313   3.929 -0.0898 -0.2245 -0.5981
  163MOL0     O21894   9.218   7.400   3.958 -0.3571 -0.5778 -0.7263
  163MOL0     C21895   9.118   7.346   4.037 -0.0563 -1.4198 -0.3031
  163MOL0     C21896   9.001   7.428   4.020  0.1812 -0.4243 -0.6144
  163MOL0     C21897   8.891   7.390   4.095  0.6950  0.2478 -0.6881
  163MOL0     C21898   8.900   7.284   4.194 -0.7238  0.7283 -0.0193
  163MOL0     C21899   8.779   7.251   4.276  0.8342 -0.6678  0.7550
  163MOL0     O21900   8.662   7.308   4.244 -0.2560  0.8531 -0.2180
  163MOL0     C21901   8.537   7.286   4.304  0.0794 -0.8218 -0.5899
  163MOL0     C21902   8.431   7.346   4.238 -0.1242  0.0288  0.0762
  163MOL0     C21903   8.303   7.320   4.282 -0.7002 -0.8412  0.9411
  163MOL0     C21904   8.272   7.244   4.393 -0.1705 -0.1350  0.3382
  163MOL0     O21905   8.138   7.223   4.422  0.0437  0.2083 -0.3824
  163MOL0     C21906   8.103   7.120   4.516 -0.4628 -0.8672 -0.0920
  163MOL0     C21907   7.946   7.094   4.510 -1.0455  0.1239  0.0882
  163MOL0     C21908   7.905   6.987   4.613 -0.1004  0.2590 -0.3595
  163MOL0     C21909   7.778   6.927   4.565  0.2175  0.7065 -0.2849
  163MOL0     C21910   7.648   6.983   4.638 -1.1881  0.4451  0.3808
  163MOL0     C21911   7.516   6.940   4.574  0.2972  0.3033 -0.2031
  163MOL0     C21912   7.498   6.963   4.427 -0.0604  0.6541 -0.3496
  163MOL0     C21913   7.351   6.969   4.380  0.4292 -0.4485  0.1299
  163MOL0    Cl21914   7.255   6.820   4.417 -0.4981  0.2858 -0.1590
  163MOL0     C21915   8.381   7.205   4.479  0.2368 -0.0778  0.2715
  163MOL0     C21916   8.509   7.210   4.427 -0.0499  0.9027  0.0009
  163MOL0     O21917   8.798   7.174   4.369 -0.1205 -0.3785  0.8140
  163MOL0     C21918   9.011   7.198   4.202 -0.2024  0.0205  0.4942
  163MOL0     C21919   9.121   7.238   4.115  0.3878 -0.4429  0.2323
  163MOL0     N21920   9.491   7.306   3.432  0.0704  0.9391  0.6034
  163MOL0     N21921   9.452   7.363   3.317  0.4517 -0.4052  0.4094
  163MOL0     C21922   8.845   6.927   2.509 -0.1469  0.9598 -0.2653
  163MOL0     C21923   8.757   6.818   2.488 -0.6502 -0.7001  0.9798
  163MOL0     C21924   8.363   6.589   2.373 -0.3846 -0.3629  0.0826
  163MOL0     C21925   8.417   6.473   2.416 -0.1362  0.1031 -0.7031
  163MOL0     C21926   8.337   6.360   2.444  1.0253 -0.1817 -0.2332
  163MOL0     C21927   8.200   6.364   2.430  0.1855  0.6839  0.1558
  163MOL0     O21928   8.139   6.251   2.482  0.4327  0.4985 -0.9933
  163MOL0     C21929   8.001   6.270   2.526 -0.1856 -0.1469  0.3671
  163MOL0     C21930   7.948   6.135   2.576  0.0246  0.0492  0.0823
  163MOL0     C21931   8.010   6.113   2.717  0.5784  0.0674  0.9465
  163MOL0     C21932   7.959   6.204   2.831 -0.5096 -0.1749 -1.5853
  163MOL0     C21933   7.821   6.197   2.859 -0.7952  0.6592  0.2433
  163MOL0     C21934   7.703   6.174   2.866  0.0914  0.5784 -0.6966
  163MOL0     C21935   8.136   6.476   2.383 -0.2080  0.0702 -0.3460
  163MOL0     C21936   8.217   6.591   2.358 -0.4220 -0.1253  0.5177
  163MOL0     C21937   8.137   6.719   2.347 -0.4328 -0.4213 -0.1960
  163MOL0     H21938   8.602   6.927   2.211 -1.3743 -2.1165  0.7760
  163MOL0     H21939   8.771   7.104   2.231 -1.1549 -1.1244 -1.2411
  163MOL0     H21940   8.961   7.322   2.416  0.8708 -0.6673 -0.8918
  163MOL0     H21941   8.799   7.279   2.399 -0.4900  0.6451  0.7388
  163MOL0     H21942   8.747   7.268   2.626 -0.5662  1.8251 -0.2683
  163MOL0     H21943   8.854   7.405   2.619 -2.9125  0.8186 -2.4072
  163MOL0     H21944   9.027   7.289   2.703 -0.9372  0.0828 -1.3579
  163MOL0     H21945   8.949   7.125   2.704  1.7937  0.0282 -0.5370
  163MOL0     H21946   8.855   7.380   2.849  0.9838 -0.3751  0.3669
  163MOL0     H21947   8.770   7.215   2.858 -1.2102  1.7607  2.1961
  163MOL0     H21948   8.884   7.205   3.060  0.7595  0.1290  0.4836
  163MOL0     H21949   9.002   7.131   2.951  0.4220 -0.0828  2.9845
  163MOL0     H21950   9.111   7.342   2.911  0.2680 -3.1482 -0.6889
  163MOL0     H21951   9.013   7.416   3.045 -2.5268 -1.7484  0.8064
  163MOL0     H21952   9.225   7.189   3.061  1.0851 -0.0882  2.3712
  163MOL0     H21953   9.095   7.221   3.192 -2.2082  0.8751 -1.1714
  163MOL0     H21954   9.313   7.406   3.101  0.5333  2.9501  2.6615
  163MOL0     H21955   9.184   7.454   3.215 -3.7172 -0.9057 -1.9377
  163MOL0     H21956   9.194   7.191   3.391  1.2000 -2.2930  1.9117
  163MOL0     H21957   9.371   7.069   3.604  1.6104 -0.9617 -1.2218
  163MOL0     H21958   9.491   7.184   3.660  0.4352  0.3686 -2.7696
  163MOL0     H21959   9.287   7.355   3.694  2.5124 -0.1619  1.2915
  163MOL0     H21960   9.188   7.212   3.649  0.6160 -0.3123 -1.8858
  163MOL0     H21961   9.333   7.102   3.853 -1.4924 -0.7220  1.3722
  163MOL0     H21962   9.178   7.173   3.864 -0.2002  1.1407 -0.2486
  163MOL0     H21963   9.415   7.365   3.875 -0.6228  0.1183 -1.0611
  163MOL0     H21964   9.394   7.276   4.014  0.7847 -0.6038 -1.3343
  163MOL0     H21965   9.019   7.527   3.980 -0.2336  0.0194  0.2740
  163MOL0     H21966   8.806   7.457   4.082  0.2094  1.3813  5.4261
  163MOL0     H21967   8.460   7.402   4.150  1.4976 -1.7444 -0.5933
  163MOL0     H21968   8.225   7.355   4.215  0.6648 -1.4917 -1.0969
  163MOL0     H21969   8.150   7.029   4.479  0.2161 -1.6296  2.4714
  163MOL0     H21970   8.129   7.146   4.619 -1.7722 -1.5753  0.4528
  163MOL0     H21971   7.895   7.190   4.518  1.8670  1.8231 -0.0726
  163MOL0     H21972   7.933   7.052   4.410  2.5789 -0.3300 -0.3355
  163MOL0     H21973   7.982   6.910   4.617 -0.7630 -0.3591  3.2387
  163MOL0     H21974   7.893   7.026   4.715 -0.7320 -0.0173 -0.3214
  163MOL0     H21975   7.785   6.820   4.585  0.9652  0.3961 -2.0140
  163MOL0     H21976   7.773   6.938   4.456  1.2682 -1.5039 -0.6084
  163MOL0     H21977   7.646   7.092   4.631 -2.7255  0.4764  0.8377
  163MOL0     H21978   7.636   6.959   4.744 -2.1010 -0.3667  0.1180
  163MOL0     H21979   7.501   6.835   4.603 -0.8400  1.2665  3.2850
  163MOL0     H21980   7.438   6.991   4.632 -1.7096 -1.4966 -1.1530
  163MOL0     H21981   7.548   6.885   4.367  3.3029  2.9554 -0.7963
  163MOL0     H21982   7.563   7.050   4.412  3.5610 -2.0557 -2.1957
  163MOL0     H21983   7.295   7.053   4.422  0.1005 -0.4337 -0.3302
  163MOL0     H21984   7.355   6.982   4.272 -1.4049 -2.9668 -0.3335
  163MOL0     H21985   8.365   7.149   4.571 -1.8399  0.7696  0.4907
  163MOL0     H21986   8.578   7.168   4.500 -2.1053 -2.1032  0.3908
  163MOL0     H21987   9.019   7.125   4.281 -0.5448  0.1781  0.6802
  163MOL0     H21988   9.212   7.178   4.122 -0.8977 -2.4530  0.7080
  163MOL0     H21989   8.906   6.920   2.599 -1.0993  2.3201  0.5350
  163MOL0     H21990   8.761   6.734   2.558  4.1203 -1.4432  0.2007
  163MOL0     H21991   8.525   6.461   2.425 -0.2473 -0.8476 -0.6044
  163MOL0     H21992   8.386   6.272   2.486  0.6351  0.4376  1.6194
  163MOL0     H21993   7.945   6.305   2.439  2.6992  0.1678 -1.4777
  163MOL0     H21994   8.006   6.344   2.606  2.8556 -1.0414  1.1353
  163MOL0     H21995   7.964   6.046   2.514 -1.5231  0.4048 -0.8607
  163MOL0     H21996   7.843   6.149   2.599  0.5652  2.6095  1.3197
  163MOL0     H21997   8.118   6.108   2.700  0.2273 -2.7197 -1.1548
  163MOL0     H21998   7.973   6.018   2.757 -0.4840  0.9573  2.1752
  163MOL0     H21999   8.018   6.187   2.922 -0.4210  0.1075 -1.5896
  163MOL0     H22000   7.975   6.310   2.810 -0.1465 -0.3762 -2.3342
  163MOL0     H22001   7.596   6.176   2.869  0.0035 -1.9699  1.2921
  163MOL0     H22002   8.029   6.484   2.365 -0.1280  0.1173 -0.8110
  163MOL0     H22003   8.029   6.704   2.349 -0.9644  2.8281 -0.0574
  163MOL0     H22004   8.154   6.796   2.422 -3.7565  0.4495 -0.1708
  163MOL0     H22005   8.149   6.766   2.249 -0.7475  3.4736  1.4612
  164MOL0     O22006   2.717   5.729   0.077 -0.7214  0.5802  0.0230
  164MOL0     C22007   2.684   5.818   0.164  0.1565  0.5262  0.6353
  164MOL0     O22008   2.736   5.832   0.291 -0.6928  0.4641 -0.1379
  164MOL0     C22009   2.839   5.747   0.340  0.3065 -0.6633 -0.1435
  164MOL0     C22010   2.836   5.611   0.331 -0.5852  0.3027 -0.5559
  164MOL0     C22011   2.935   5.529   0.376 -0.5758 -0.1358 -0.0602
  164MOL0     C22012   3.031   5.580   0.472 -0.3563  0.3350 -0.5103
  164MOL0     O22013   3.116   5.493   0.533 -1.1683  0.4006 -0.6188
  164MOL0     C22014   3.204   5.544   0.636  0.4155  0.3246  0.5968
  164MOL0     C22015   3.329   5.453   0.650  0.3068 -0.1160  0.1045
  164MOL0     C22016   3.385   5.377   0.527  0.6918 -0.2261 -0.2880
  164MOL0     C22017   3.347   5.447   0.391 -0.5710 -0.8648 -0.1264
  164MOL0     C22018   3.469   5.429   0.299  0.4259  0.1178  0.5654
  164MOL0     C22019   3.483   5.291   0.235 -0.3075 -0.1163 -0.0265
  164MOL0     C22020   3.371   5.244   0.143 -0.2829  1.1013 -0.0587
  164MOL0     C22021   3.405   5.108   0.070 -0.7006 -1.0165 -1.0836
  164MOL0     N22022   3.273   5.038   0.048  0.2936 -0.2972  0.0687
  164MOL0     C22023   3.192   5.067  -0.053  0.5302 -0.2596  0.0689
  164MOL0     C22024   3.093   4.975  -0.047  0.7103 -0.0243 -0.9782
  164MOL0     C22025   2.967   4.956  -0.131 -0.6424 -0.2254  0.2981
  164MOL0     C22026   2.853   4.893  -0.052  0.3048 -0.1442 -0.6073
  164MOL0     C22027   2.731   4.855  -0.125  0.7334  0.1561 -0.6322
  164MOL0     C22028   2.617   4.800  -0.035  0.0915 -0.9388  0.6332
  164MOL0     O22029   2.586   4.906   0.053  0.3707 -0.5121 -0.9240
  164MOL0     C22030   2.468   4.881   0.124 -0.2256 -0.4386 -0.4284
  164MOL0     C22031   2.383   4.771   0.118  1.2296 -0.4713 -0.7103
  164MOL0     C22032   2.271   4.768   0.192  0.9002  0.1087  0.5661
  164MOL0     C22033   2.235   4.868   0.291 -0.4489 -0.3200  0.0592
  164MOL0     C22034   2.115   4.866   0.367 -0.3153 -0.9698 -0.3001
  164MOL0     O22035   2.090   4.959   0.466 -0.8478 -0.1803  0.6190
  164MOL0     C22036   1.975   4.939   0.532  0.7609  0.3429  0.0831
  164MOL0     C22037   1.874   5.039   0.522 -0.3282 -0.2479 -0.6401
  164MOL0     C22038   1.749   5.019   0.590 -0.5214 -0.5778 -0.0953
  164MOL0     C22039   1.728   4.910   0.678 -0.6720  0.9232  0.3372
  164MOL0     O22040   1.604   4.908   0.740 -0.4468 -0.2762  0.0545
  164MOL0     C22041   1.601   4.863   0.878  0.2795  0.1548  0.0025
  164MOL0     C22042   1.462   4.911   0.940 -1.1481  0.5378  0.4687
  164MOL0     C22043   1.337   4.849   0.880  0.4641  1.1045 -0.2928
  164MOL0     C22044   1.200   4.901   0.926 -0.3506  1.4818 -0.0604
  164MOL0     C22045   1.086   4.855   0.843 -0.0289  0.4965  0.4427
  164MOL0     C22046   0.942   4.868   0.897 -0.4150 -0.5790 -0.4783
  164MOL0     C22047   0.897   4.738   0.973  0.6312  0.3433 -0.2501
  164MOL0     C22048   0.746   4.715   0.989 -0.1774  0.1048  0.2254
  164MOL0    Cl22049   0.670   4.675   0.835 -0.0254  0.0679  0.2252
  164MOL0     C22050   1.838   4.824   0.706  0.7385  0.1467  0.1601
  164MOL0     C22051   1.955   4.835   0.628 -0.2964  0.5920  0.0478
  164MOL0     O22052   2.042   4.771   0.341  0.2157 -0.4782 -0.9945
  164MOL0     C22053   2.327   4.979   0.295 -0.5510 -0.1354  1.2327
  164MOL0     C22054   2.437   4.986   0.212  0.9257  0.1657  0.5426
  164MOL0     N22055   3.110   4.907   0.077  0.9981  0.4632 -0.4425
  164MOL0     N22056   3.219   4.956   0.134  0.7073 -0.5041 -0.1915
  164MOL0     C22057   3.035   5.726   0.482  0.4345  0.2228 -0.2611
  164MOL0     C22058   2.941   5.801   0.415  0.3071 -0.7029 -0.7949
  164MOL0     C22059   2.565   5.900   0.137 -1.3752 -0.3250 -0.5184
  164MOL0     C22060   2.543   6.004   0.238  0.1620 -0.3316  0.3395
  164MOL0     C22061   2.427   6.079   0.224  0.0544 -0.2023  0.4231
  164MOL0     C22062   2.334   6.066   0.123  0.0953  0.1322  0.6967
  164MOL0     O22063   2.218   6.145   0.096  0.2397 -0.7276  0.3192
  164MOL0     C22064   2.192   6.266   0.165  0.0282 -0.4643  0.1806
  164MOL0     C22065   2.244   6.383   0.084 -0.8806 -0.9112  0.3924
  164MOL0     C22066   2.199   6.399  -0.053  0.2261 -0.1550  1.0035
  164MOL0     C22067   2.089   6.496  -0.059  0.3870  0.3736 -0.8219
  164MOL0     C22068   2.039   6.524  -0.197  0.2361 -0.6622 -0.6642
  164MOL0     C22069   2.002   6.539  -0.312  1.1206  0.5026 -0.0084
  164MOL0     C22070   2.370   5.975   0.026  0.4844 -0.1197  0.0137
  164MOL0     C22071   2.481   5.890   0.021 -0.0659  0.0844 -1.0684
  164MOL0     C22072   2.492   5.785  -0.084 -0.7117 -0.4850 -0.7149
  164MOL0     H22073   2.749   5.557   0.295  0.5520 -2.9649  1.1686
  164MOL0     H22074   2.940   5.422   0.359 -1.3953 -0.1273 -0.3722
  164MOL0     H22075   3.231   5.650   0.633 -1.5657  0.8683  0.6450
  164MOL0     H22076   3.149   5.534   0.730 -1.6104 -0.9432 -0.6610
  164MOL0     H22077   3.309   5.377   0.726  2.1543  1.7460  2.6656
  164MOL0     H22078   3.412   5.516   0.686 -0.1614  1.8794 -2.0186
  164MOL0     H22079   3.351   5.273   0.524 -2.5265  0.7163 -1.6733
  164MOL0     H22080   3.493   5.387   0.541  0.6886  0.0180 -0.4369
  164MOL0     H22081   3.249   5.424   0.348 -2.4735  1.8171  2.3155
  164MOL0     H22082   3.349   5.554   0.414 -0.4018 -0.5452 -1.5946
  164MOL0     H22083   3.456   5.505   0.221 -1.9379  0.1602  0.9027
  164MOL0     H22084   3.558   5.460   0.354 -0.3256  2.8294  0.4166
  164MOL0     H22085   3.577   5.290   0.180 -1.1642 -1.5253 -1.5709
  164MOL0     H22086   3.500   5.217   0.315  3.8208  0.1760 -0.4636
  164MOL0     H22087   3.351   5.317   0.064 -1.4723 -1.4246 -2.2538
  164MOL0     H22088   3.298   5.225   0.221  2.3783  0.7552  2.5429
  164MOL0     H22089   3.464   5.131  -0.020  0.7890  0.5388  0.2216
  164MOL0     H22090   3.471   5.047   0.133 -2.6101 -2.6162 -0.5424
  164MOL0     H22091   3.221   5.139  -0.129 -2.6326 -1.9426 -3.0394
  164MOL0     H22092   2.939   5.058  -0.160  0.0398 -0.4686 -1.2963
  164MOL0     H22093   2.997   4.893  -0.215 -0.0743  0.8578 -0.3478
  164MOL0     H22094   2.890   4.803  -0.001  1.1464  0.1608 -0.6661
  164MOL0     H22095   2.825   4.965   0.025 -2.1039  1.1431 -2.5613
  164MOL0     H22096   2.759   4.774  -0.193  1.9249 -0.1744  0.2335
  164MOL0     H22097   2.698   4.942  -0.182 -1.6192  1.6417  2.7009
  164MOL0     H22098   2.634   4.701   0.008 -2.7132 -2.3300 -1.1192
  164MOL0     H22099   2.529   4.786  -0.098 -2.0686  1.0618  2.9507
  164MOL0     H22100   2.403   4.692   0.046  0.1872  0.6088 -2.2549
  164MOL0     H22101   2.203   4.687   0.168  1.1913 -0.2103  0.8003
  164MOL0     H22102   1.880   5.128   0.461 -1.0940  0.5037  0.3522
  164MOL0     H22103   1.673   5.091   0.563  2.4029  3.0320  0.5275
  164MOL0     H22104   1.604   4.754   0.875 -3.5639 -0.1037  0.7918
  164MOL0     H22105   1.677   4.902   0.945 -2.0451 -1.2867  3.8159
  164MOL0     H22106   1.464   4.883   1.045  2.9448  0.5373  0.5747
  164MOL0     H22107   1.460   5.019   0.919 -0.8386  0.2497 -1.2103
  164MOL0     H22108   1.339   4.870   0.772  0.3464  0.1417 -0.4913
  164MOL0     H22109   1.339   4.740   0.876  0.2235  1.0323  1.1835
  164MOL0     H22110   1.224   5.007   0.919  3.5912  0.6101 -2.4729
  164MOL0     H22111   1.182   4.866   1.028 -4.7820  2.6103 -0.2501
  164MOL0     H22112   1.099   4.748   0.826 -1.0345  0.3205  0.7301
  164MOL0     H22113   1.089   4.914   0.750  0.7209  2.7350  1.8077
  164MOL0     H22114   0.936   4.956   0.960  1.6540 -0.6092 -0.1714
  164MOL0     H22115   0.878   4.886   0.810 -0.7564 -0.5680 -0.2258
  164MOL0     H22116   0.948   4.747   1.069  0.5951 -0.8960 -0.0983
  164MOL0     H22117   0.928   4.640   0.933 -1.4830  0.3566 -2.1348
  164MOL0     H22118   0.730   4.644   1.070 -0.9561 -0.2351 -0.2214
  164MOL0     H22119   0.696   4.811   1.007 -3.4055 -1.1968 -1.0090
  164MOL0     H22120   1.833   4.740   0.775  2.6218  0.9724  1.3823
  164MOL0     H22121   2.036   4.763   0.637 -0.9701 -0.9084 -3.9585
  164MOL0     H22122   2.309   5.057   0.368 -0.0523  0.8921  0.2808
  164MOL0     H22123   2.513   5.063   0.221 -0.1982  1.3540  0.0280
  164MOL0     H22124   3.106   5.779   0.545  0.9273 -0.3172 -0.3558
  164MOL0     H22125   2.944   5.910   0.423 -0.1595 -0.7743  0.5500
  164MOL0     H22126   2.601   6.027   0.327 -1.4498  2.4943  0.7655
  164MOL0     H22127   2.394   6.150   0.299 -0.9531 -0.0415 -0.1599
  164MOL0     H22128   2.231   6.260   0.267 -1.3119 -1.7738  0.6617
  164MOL0     H22129   2.083   6.275   0.170 -0.3657 -3.8046 -0.2721
  164MOL0     H22130   2.350   6.361   0.075 -1.2128 -2.0790 -1.3672
  164MOL0     H22131   2.228   6.477   0.137 -0.2630 -0.1387 -0.7386
  164MOL0     H22132   2.165   6.307  -0.101  1.1786  0.1126 -0.2354
  164MOL0     H22133   2.283   6.432  -0.115 -1.8093  1.7859 -0.8921
  164MOL0     H22134   2.005   6.444  -0.012  0.6497 -0.2715 -1.0505
  164MOL0     H22135   2.103   6.587  -0.000 -1.3074  1.0358 -1.3762
  164MOL0     H22136   1.966   6.560  -0.411  3.1129 -0.7459 -1.0509
  164MOL0     H22137   2.293   5.966  -0.050  0.4061  1.0216 -0.0547
  164MOL0     H22138   2.426   5.812  -0.167  0.2041  0.8066 -1.0514
  164MOL0     H22139   2.590   5.785  -0.132 -0.3218 -2.8186 -0.0377
  164MOL0     H22140   2.473   5.684  -0.045 -0.9542 -0.5441 -0.9834
  165MOL0     O22141   6.417   2.739  11.200  0.4709 -0.5551  0.1021
  165MOL0     C22142   6.391   2.720  11.080 -1.1166  0.4172 -0.0430
  165MOL0     O22143   6.478   2.751  10.984  0.1658  0.0218  0.2321
  165MOL0     C22144   6.587   2.827  11.006 -0.2275 -0.2709 -0.5561
  165MOL0     C22145   6.707   2.764  11.057 -0.1648 -0.0492 -0.2568
  165MOL0     C22146   6.823   2.842  11.061  0.3479  0.8756 -0.6298
  165MOL0     C22147   6.819   2.978  11.037 -0.7066 -0.3475 -0.5039
  165MOL0     O22148   6.934   3.056  11.047  0.1835  0.2486  0.6661
  165MOL0     C22149   7.057   2.989  11.070 -0.0660 -0.4588  0.0721
  165MOL0     C22150   7.175   3.088  11.049 -0.4742  0.6840  1.0506
  165MOL0     C22151   7.302   3.005  11.045  0.1521 -0.3894 -0.0634
  165MOL0     C22152   7.410   3.089  10.981 -0.0366 -0.4780  0.7379
  165MOL0     C22153   7.487   3.194  11.066  0.5316  0.0461  0.4051
  165MOL0     C22154   7.618   3.249  11.010  0.3248  0.8460  0.4456
  165MOL0     C22155   7.711   3.142  10.961 -0.6368  0.0135  0.0311
  165MOL0     C22156   7.859   3.190  10.945 -0.3273  0.0051 -0.1081
  165MOL0     N22157   7.919   3.221  11.081  0.3657 -0.2481 -0.3561
  165MOL0     C22158   8.030   3.158  11.146  0.7400 -0.4460  0.2844
  165MOL0     C22159   8.068   3.241  11.242 -0.1771  0.4362  0.2809
  165MOL0     C22160   8.186   3.228  11.327  0.1528 -0.3748 -1.2626
  165MOL0     C22161   8.291   3.344  11.329  0.0502 -0.6916 -0.7439
  165MOL0     C22162   8.342   3.374  11.191 -1.1886 -0.5193 -0.7037
  165MOL0     C22163   8.447   3.491  11.188  0.3682 -0.3111  0.1763
  165MOL0     O22164   8.506   3.505  11.057 -0.2099  0.9931  0.9662
  165MOL0     C22165   8.642   3.506  11.042 -0.0402  1.0226 -0.6599
  165MOL0     C22166   8.691   3.451  10.930  0.3885 -0.2133  0.1266
  165MOL0     C22167   8.828   3.476  10.899 -0.6215 -0.3410  0.1134
  165MOL0     C22168   8.912   3.545  10.984 -0.9373  0.1900 -0.1135
  165MOL0     C22169   9.059   3.557  10.958 -0.3083 -0.4119 -0.0173
  165MOL0     O22170   9.120   3.463  10.886 -0.6947  0.2817  0.5260
  165MOL0     C22171   9.263   3.457  10.868 -0.5856  0.3867  0.5941
  165MOL0     C22172   9.356   3.493  10.968  0.1234 -0.7550  0.1480
  165MOL0     C22173   9.492   3.489  10.945 -0.8836 -0.1372 -0.3043
  165MOL0     C22174   9.553   3.469  10.821  0.2082  0.0234 -0.0759
  165MOL0     O22175   9.693   3.477  10.820  0.4985  0.1179 -0.1977
  165MOL0     C22176   9.735   3.491  10.689 -0.3195 -0.7544  0.5114
  165MOL0     C22177   9.883   3.509  10.695  0.7262 -0.4503 -0.1283
  165MOL0     C22178   9.945   3.485  10.558 -0.1683 -0.4442 -0.1151
  165MOL0     C22179  10.082   3.554  10.546 -0.3488 -0.2911  0.0245
  165MOL0     C22180  10.183   3.486  10.442  1.0564 -0.5605 -0.2103
  165MOL0     C22181  10.320   3.558  10.440  0.5577 -0.0353 -0.2841
  165MOL0     C22182  10.394   3.552  10.575  0.4678  0.2472 -0.1350
  165MOL0     C22183  10.545   3.573  10.553  0.0204 -0.4780 -0.0414
  165MOL0    Cl22184  10.640   3.440  10.462  0.4882  0.1405  0.2748
  165MOL0     C22185   9.460   3.444  10.716 -0.4309 -0.0573  0.3179
  165MOL0     C22186   9.323   3.438  10.739  1.0166 -0.0165  0.6928
  165MOL0     O22187   9.119   3.648  11.019  0.5406  0.2278  0.4321
  165MOL0     C22188   8.857   3.600  11.100  0.0639  0.0765  0.1728
  165MOL0     C22189   8.721   3.580  11.129 -0.4439  0.5553 -0.3106
  165MOL0     N22190   7.983   3.345  11.251 -0.3371 -0.0248  0.3652
  165MOL0     N22191   7.895   3.329  11.157 -0.2845 -0.0059 -0.1590
  165MOL0     C22192   6.705   3.043  10.993  0.2468  0.4930 -0.0219
  165MOL0     C22193   6.592   2.966  10.958  0.4373  1.2556 -1.0779
  165MOL0     C22194   6.263   2.667  11.020 -0.1326  0.9718  0.3369
  165MOL0     C22195   6.216   2.731  10.917 -0.0069 -0.5310  0.0385
  165MOL0     C22196   6.094   2.681  10.853  0.5171 -0.1755 -0.4668
  165MOL0     C22197   6.026   2.570  10.911 -0.2169 -0.1869  0.1303
  165MOL0     O22198   5.907   2.535  10.843 -0.1526  0.3871 -0.2953
  165MOL0     C22199   5.842   2.416  10.888 -0.2282  0.3701  0.0515
  165MOL0     C22200   5.736   2.427  10.995 -0.2150  0.6019 -0.9613
  165MOL0     C22201   5.666   2.287  11.000  0.4259  0.2503  0.4184
  165MOL0     C22202   5.547   2.287  11.088 -0.4839 -0.5696 -0.5395
  165MOL0     C22203   5.439   2.344  11.007  0.3186  0.7756  0.1593
  165MOL0     C22204   5.369   2.384  10.918  0.0093  0.9587  1.2758
  165MOL0     C22205   6.071   2.520  11.032  0.4421 -0.0006 -0.3377
  165MOL0     C22206   6.194   2.563  11.085  0.1538 -0.2706 -0.8633
  165MOL0     C22207   6.250   2.494  11.205  0.0239 -0.4133  0.3058
  165MOL0     H22208   6.721   2.657  11.065 -2.4923 -0.5481 -1.7585
  165MOL0     H22209   6.910   2.798  11.109  0.7326  0.9700 -1.2393
  165MOL0     H22210   7.047   2.952  11.172  0.5744  0.1592  0.3697
  165MOL0     H22211   7.064   2.904  11.002 -0.6590 -1.7584  1.5724
  165MOL0     H22212   7.185   3.152  11.137  3.2209 -0.3509  1.5594
  165MOL0     H22213   7.155   3.147  10.959  2.7850 -1.5588 -1.4133
  165MOL0     H22214   7.298   2.908  10.994  0.2536 -0.1069 -0.6196
  165MOL0     H22215   7.326   2.986  11.150 -0.9187 -1.2694  0.0428
  165MOL0     H22216   7.483   3.021  10.937 -0.5110 -1.1497  0.9830
  165MOL0     H22217   7.372   3.151  10.898 -0.4007 -0.6993  0.7363
  165MOL0     H22218   7.424   3.281  11.086 -0.1635  0.2946 -2.5109
  165MOL0     H22219   7.534   3.153  11.156  0.2663  1.9160  1.4441
  165MOL0     H22220   7.599   3.310  10.921  0.3187 -0.1459 -0.2555
  165MOL0     H22221   7.666   3.313  11.084 -2.6888  2.5730  1.0686
  165MOL0     H22222   7.678   3.094  10.869  1.2317 -0.8638 -0.2325
  165MOL0     H22223   7.702   3.058  11.031 -0.6644 -1.9393 -2.1910
  165MOL0     H22224   7.912   3.116  10.884  0.5058 -1.3071  2.1004
  165MOL0     H22225   7.875   3.285  10.893  0.6430  0.2953  0.6796
  165MOL0     H22226   8.071   3.061  11.118  0.3370 -0.5687  0.0917
  165MOL0     H22227   8.140   3.230  11.427  4.0814  3.4314  0.7766
  165MOL0     H22228   8.234   3.135  11.294  1.6274  0.2821 -1.0482
  165MOL0     H22229   8.245   3.431  11.378 -1.0508 -3.0332  2.8482
  165MOL0     H22230   8.372   3.313  11.396  0.4680  3.0610  0.6972
  165MOL0     H22231   8.262   3.395  11.120 -0.5932 -3.0115 -2.2281
  165MOL0     H22232   8.389   3.283  11.151 -2.4064 -1.5926  0.2141
  165MOL0     H22233   8.515   3.494  11.274 -2.2083  0.9505  2.3137
  165MOL0     H22234   8.399   3.586  11.213  0.9727  0.3590 -1.1279
  165MOL0     H22235   8.616   3.391  10.879 -1.9585  0.8184  2.1767
  165MOL0     H22236   8.868   3.431  10.808 -1.0949  4.0504 -2.5702
  165MOL0     H22237   9.312   3.509  11.066 -2.1388 -1.8490 -0.6252
  165MOL0     H22238   9.557   3.500  11.031 -2.3645  0.1301  0.8078
  165MOL0     H22239   9.710   3.400  10.634  0.0541 -1.0603  0.8347
  165MOL0     H22240   9.690   3.579  10.643  0.0143 -0.6028  0.4734
  165MOL0     H22241   9.901   3.616  10.710 -1.1233  0.0875 -1.3491
  165MOL0     H22242   9.923   3.443  10.772 -2.7827 -3.3793 -0.5305
  165MOL0     H22243   9.946   3.377  10.545  1.3152 -0.6256  1.1609
  165MOL0     H22244   9.880   3.536  10.486  2.1451  0.2547 -1.8006
  165MOL0     H22245  10.130   3.550  10.644 -1.8018 -0.1557  0.7740
  165MOL0     H22246  10.066   3.659  10.523  0.1593  0.0156  1.0220
  165MOL0     H22247  10.148   3.484  10.338 -0.8727 -1.1901  0.4207
  165MOL0     H22248  10.191   3.386  10.483  1.4272  0.1102  1.4224
  165MOL0     H22249  10.387   3.512  10.368  0.1033  0.5161 -1.0749
  165MOL0     H22250  10.314   3.661  10.403  1.3409  0.3419  0.5933
  165MOL0     H22251  10.387   3.449  10.611 -1.8967 -0.1779 -1.6066
  165MOL0     H22252  10.351   3.613  10.655  0.3068  0.0315 -0.0547
  165MOL0     H22253  10.556   3.669  10.502 -1.4556  0.9399  2.1145
  165MOL0     H22254  10.582   3.576  10.656 -0.7143 -2.6083  0.3287
  165MOL0     H22255   9.499   3.442  10.614 -1.3762 -3.3374 -0.0975
  165MOL0     H22256   9.252   3.429  10.656 -1.6813 -0.0752  2.8522
  165MOL0     H22257   8.916   3.658  11.170  1.6033  1.1245 -1.8640
  165MOL0     H22258   8.666   3.629  11.209 -0.0864 -0.0269  0.3134
  165MOL0     H22259   6.699   3.149  10.969  0.2395 -0.5500 -6.6360
  165MOL0     H22260   6.511   3.015  10.905  0.4241  1.6402 -0.7050
  165MOL0     H22261   6.251   2.814  10.856  0.0080 -1.4028 -1.1875
  165MOL0     H22262   6.053   2.739  10.771 -0.4070  1.5072  1.1090
  165MOL0     H22263   5.912   2.337  10.917  2.7664  2.0813 -2.0413
  165MOL0     H22264   5.796   2.372  10.798  2.9817 -3.6358  0.0795
  165MOL0     H22265   5.666   2.508  10.971 -0.8090 -0.2257 -2.1027
  165MOL0     H22266   5.771   2.460  11.093 -2.6914 -0.0197  0.2124
  165MOL0     H22267   5.734   2.216  11.046 -2.8568 -2.8426  0.9839
  165MOL0     H22268   5.647   2.256  10.896  0.9263  1.6899 -0.1289
  165MOL0     H22269   5.525   2.186  11.122 -0.7004 -0.6106 -0.7987
  165MOL0     H22270   5.569   2.349  11.175 -3.3595 -0.3195  0.0946
  165MOL0     H22271   5.314   2.421  10.834  2.9652  2.6794 -0.0703
  165MOL0     H22272   6.005   2.445  11.074 -3.3874  3.7392  0.9145
  165MOL0     H22273   6.320   2.416  11.174 -3.1896 -2.7571 -1.8436
  165MOL0     H22274   6.302   2.558  11.275 -0.8938  0.3826  0.2817
  165MOL0     H22275   6.166   2.450  11.260 -1.3650  2.0723  0.2987
  166MOL0     O22276   8.321   4.943   0.886  0.0889 -0.1815  0.4548
  166MOL0     C22277   8.346   4.869   0.796 -0.2939  0.3152  0.5743
  166MOL0     O22278   8.293   4.872   0.671 -0.1700 -0.5505 -0.6055
  166MOL0     C22279   8.184   4.947   0.645  0.1702 -0.3088 -0.4910
  166MOL0     C22280   8.062   4.888   0.621 -0.1671  0.3753  0.1024
  166MOL0     C22281   7.941   4.961   0.606  1.3049 -0.2994 -0.3250
  166MOL0     C22282   7.952   5.103   0.607  1.1210 -0.3901  0.5004
  166MOL0     O22283   7.848   5.194   0.596  0.6200 -0.2868 -0.5833
  166MOL0     C22284   7.715   5.146   0.634  0.1904 -0.5585  0.1706
  166MOL0     C22285   7.684   5.130   0.785  1.0331 -0.0356 -0.4070
  166MOL0     C22286   7.564   5.224   0.834 -0.4804 -0.3424  0.0274
  166MOL0     C22287   7.567   5.234   0.991  0.1223 -0.2042  0.2211
  166MOL0     C22288   7.471   5.334   1.036  0.1884  0.6903 -0.1535
  166MOL0     C22289   7.534   5.464   1.037 -0.0693 -1.4043 -0.1314
  166MOL0     C22290   7.423   5.566   1.070  0.1250  0.4077  0.5259
  166MOL0     C22291   7.458   5.718   1.055 -0.5045 -0.2153  0.3203
  166MOL0     N22292   7.553   5.762   1.154  0.0823  0.3475 -0.0051
  166MOL0     C22293   7.690   5.753   1.139  0.5346 -1.4291 -0.1136
  166MOL0     C22294   7.740   5.782   1.267 -0.6801 -0.4306  0.2791
  166MOL0     C22295   7.886   5.798   1.305 -0.3040  0.1010 -0.1658
  166MOL0     C22296   7.954   5.663   1.326 -0.8899 -0.6316 -0.1130
  166MOL0     C22297   8.074   5.679   1.411 -0.7362 -0.9029 -0.8632
  166MOL0     C22298   8.159   5.554   1.419 -0.9684 -0.2458  0.8067
  166MOL0     O22299   8.229   5.549   1.295  0.4194  0.4505  0.2366
  166MOL0     C22300   8.351   5.478   1.296 -0.1118 -0.8195  0.0180
  166MOL0     C22301   8.429   5.492   1.182 -0.6481 -0.2602 -0.4134
  166MOL0     C22302   8.555   5.423   1.176 -1.0683 -0.9531  0.0528
  166MOL0     C22303   8.603   5.350   1.283 -0.5505 -0.1617  0.1234
  166MOL0     C22304   8.734   5.280   1.281 -0.5480  0.4188  0.2039
  166MOL0     O22305   8.805   5.249   1.159 -0.2020  0.4697 -0.7071
  166MOL0     C22306   8.936   5.230   1.167  0.2965  0.0207  0.0795
  166MOL0     C22307   9.015   5.338   1.123 -0.2083 -0.0160  0.2407
  166MOL0     C22308   9.154   5.313   1.117 -0.3136  0.2228 -0.7800
  166MOL0     C22309   9.208   5.179   1.143 -0.3921 -1.1193 -0.2009
  166MOL0     O22310   9.346   5.176   1.118 -0.2205  1.0470 -0.5860
  166MOL0     C22311   9.417   5.055   1.156 -0.5234  0.0789  0.5237
  166MOL0     C22312   9.564   5.090   1.137  0.2471 -0.0947 -0.1954
  166MOL0     C22313   9.658   5.046   1.245 -0.4719  0.2753 -0.8737
  166MOL0     C22314   9.803   5.055   1.198  0.5150  0.9655 -1.3158
  166MOL0     C22315   9.914   5.087   1.311  0.7610  0.6098  0.4277
  166MOL0     C22316  10.066   5.070   1.257  0.1520  0.2855  0.3424
  166MOL0     C22317  10.176   5.109   1.364  0.1153 -0.1452  0.0846
  166MOL0     C22318  10.157   5.051   1.497  1.2695  0.8041  0.2150
  166MOL0    Cl22319  10.265   5.130   1.610 -0.7878 -0.0481 -0.0091
  166MOL0     C22320   9.128   5.071   1.176  0.6158 -0.0985 -0.1470
  166MOL0     C22321   8.985   5.101   1.187  0.6014 -0.3296 -0.4088
  166MOL0     O22322   8.786   5.260   1.392  0.3588 -0.8386 -0.5276
  166MOL0     C22323   8.517   5.333   1.391 -0.1618  0.7068  0.2398
  166MOL0     C22324   8.396   5.401   1.401  0.4836  0.3376  0.0130
  166MOL0     N22325   7.634   5.800   1.352  0.0935  1.1253  0.5244
  166MOL0     N22326   7.528   5.803   1.282 -0.2138 -0.4498  0.3402
  166MOL0     C22327   8.080   5.163   0.635 -0.0690 -0.1141 -0.6000
  166MOL0     C22328   8.194   5.087   0.655  0.2643 -0.5340  0.5282
  166MOL0     C22329   8.455   4.765   0.804 -1.4171 -0.2626 -0.2586
  166MOL0     C22330   8.435   4.644   0.734  0.7122  0.1058 -0.7088
  166MOL0     C22331   8.535   4.546   0.740  0.2287  0.6227  0.1101
  166MOL0     C22332   8.641   4.557   0.824  0.4588 -0.3429  0.5834
  166MOL0     O22333   8.732   4.454   0.840 -0.1021 -0.2312  0.8811
  166MOL0     C22334   8.733   4.340   0.752  0.2046  0.5308  0.0223
  166MOL0     C22335   8.820   4.243   0.816  1.3302  0.5656  0.4812
  166MOL0     C22336   8.962   4.312   0.854  0.0489 -0.2065 -0.1164
  166MOL0     C22337   9.082   4.222   0.838 -1.0380 -0.7793  0.2796
  166MOL0     C22338   9.201   4.289   0.895  0.1032  0.4020 -0.1606
  166MOL0     C22339   9.306   4.325   0.954  0.5340  0.2101 -0.0198
  166MOL0     C22340   8.663   4.674   0.897 -0.2104  0.1110 -0.8768
  166MOL0     C22341   8.570   4.779   0.885 -0.1584  0.1382 -0.1476
  166MOL0     C22342   8.597   4.900   0.966 -0.2709 -0.2527  0.1405
  166MOL0     H22343   8.054   4.781   0.606  0.1431  0.5593 -1.5189
  166MOL0     H22344   7.845   4.915   0.589 -0.5964  2.5614  1.7092
  166MOL0     H22345   7.652   5.231   0.608  0.3244 -0.1642  1.0905
  166MOL0     H22346   7.700   5.059   0.569 -0.2700 -0.1203 -0.3114
  166MOL0     H22347   7.773   5.155   0.844 -0.1299  3.3158  0.1385
  166MOL0     H22348   7.653   5.028   0.806 -2.5629  0.7995 -1.0220
  166MOL0     H22349   7.468   5.185   0.799 -0.6984 -0.0980  0.3543
  166MOL0     H22350   7.576   5.322   0.788 -0.4939  0.8589  2.4274
  166MOL0     H22351   7.556   5.134   1.034  2.0707  0.4091  2.3684
  166MOL0     H22352   7.662   5.273   1.031 -1.2648  0.0713  3.6322
  166MOL0     H22353   7.389   5.341   0.964 -0.5728 -1.1770  0.4722
  166MOL0     H22354   7.415   5.313   1.127 -0.1377 -0.5952 -0.6208
  166MOL0     H22355   7.612   5.476   1.113 -0.4077  2.9061 -0.1804
  166MOL0     H22356   7.582   5.475   0.939 -0.1173  0.5446  0.0225
  166MOL0     H22357   7.374   5.542   1.165 -4.1507 -1.7812 -1.9554
  166MOL0     H22358   7.349   5.543   0.994  2.1469 -0.2966 -1.3362
  166MOL0     H22359   7.500   5.725   0.954  2.9923 -1.5764  1.5346
  166MOL0     H22360   7.361   5.769   1.061  0.6232  1.8616  3.6311
  166MOL0     H22361   7.750   5.716   1.056  1.3865 -2.4101  0.9185
  166MOL0     H22362   7.939   5.860   1.232  3.9045 -0.1706  2.3547
  166MOL0     H22363   7.876   5.855   1.397 -4.0595 -0.0017 -0.3495
  166MOL0     H22364   7.880   5.595   1.370 -0.1228 -0.8401  0.8938
  166MOL0     H22365   8.000   5.628   1.234  0.0413  1.6740 -0.5849
  166MOL0     H22366   8.041   5.705   1.512  0.1204 -2.6348 -0.0820
  166MOL0     H22367   8.131   5.763   1.369 -1.3822  1.8883  3.2192
  166MOL0     H22368   8.109   5.458   1.435  0.4445 -1.2481 -0.4951
  166MOL0     H22369   8.236   5.568   1.495  2.2577 -2.2425 -1.8057
  166MOL0     H22370   8.401   5.538   1.088  2.1667 -1.9663 -2.2542
  166MOL0     H22371   8.623   5.448   1.095  0.0930  1.1539  1.5784
  166MOL0     H22372   8.962   5.428   1.092  1.3249  0.3866 -1.4042
  166MOL0     H22373   9.220   5.391   1.080 -0.1419 -1.4663 -4.4021
  166MOL0     H22374   9.396   5.022   1.258  0.0982 -0.3971  0.5040
  166MOL0     H22375   9.393   4.966   1.097 -0.5420  1.6852 -2.0548
  166MOL0     H22376   9.591   5.037   1.044  1.4651 -1.3853  0.8487
  166MOL0     H22377   9.571   5.199   1.131 -0.4378 -0.0353 -0.0245
  166MOL0     H22378   9.637   5.109   1.331 -1.9143 -2.0120  0.5603
  166MOL0     H22379   9.645   4.942   1.277  1.5377 -0.1262 -1.2131
  166MOL0     H22380   9.806   5.128   1.117 -1.3092 -0.7198 -3.0265
  166MOL0     H22381   9.828   4.953   1.168 -0.1190  0.0068  1.1519
  166MOL0     H22382   9.900   5.015   1.391  1.3087  0.3493  0.2917
  166MOL0     H22383   9.912   5.192   1.342 -0.8366  1.1643 -1.3265
  166MOL0     H22384  10.083   4.963   1.243  2.6510  0.7535 -0.7596
  166MOL0     H22385  10.079   5.130   1.166 -1.8473  0.7680  0.3233
  166MOL0     H22386  10.170   5.217   1.382  1.5349 -0.0075 -0.2071
  166MOL0     H22387  10.277   5.082   1.333  0.7008 -0.9589  2.4621
  166MOL0     H22388  10.055   5.070   1.531 -0.0689 -3.1265 -1.0733
  166MOL0     H22389  10.167   4.942   1.504 -1.9544  0.3998 -0.0279
  166MOL0     H22390   9.168   4.972   1.192 -0.1141 -1.2188 -3.9865
  166MOL0     H22391   8.913   5.026   1.220 -0.1387 -1.0410 -3.3704
  166MOL0     H22392   8.560   5.300   1.485  0.8798  2.7741  0.5417
  166MOL0     H22393   8.337   5.392   1.491 -0.4274 -0.3702 -0.6268
  166MOL0     H22394   8.082   5.271   0.625  1.2025 -0.3569 -4.8974
  166MOL0     H22395   8.282   5.145   0.682 -0.3791  0.1052  1.3212
  166MOL0     H22396   8.348   4.627   0.671 -2.0293  1.9747  2.2509
  166MOL0     H22397   8.524   4.453   0.685 -0.3945 -2.5562  4.9575
  166MOL0     H22398   8.764   4.368   0.651  3.5087 -0.0368  0.7745
  166MOL0     H22399   8.636   4.292   0.732  2.3526 -4.9305  0.9683
  166MOL0     H22400   8.826   4.157   0.749 -2.4981  1.6358 -1.5352
  166MOL0     H22401   8.775   4.208   0.909  1.2222 -1.1420 -0.1884
  166MOL0     H22402   8.966   4.351   0.955  0.7568 -1.3693  0.3336
  166MOL0     H22403   8.973   4.399   0.789  1.1629  0.6857  1.2216
  166MOL0     H22404   9.069   4.126   0.889 -3.8783 -1.5101 -1.6087
  166MOL0     H22405   9.101   4.201   0.732  0.4025 -3.5278  0.9801
  166MOL0     H22406   9.395   4.363   1.000 -0.8134  1.5730  1.6182
  166MOL0     H22407   8.757   4.683   0.951  0.8445  1.7386 -2.8439
  166MOL0     H22408   8.597   4.990   0.903  0.2990  0.6523  1.3923
  166MOL0     H22409   8.524   4.916   1.046 -1.6680  0.4964 -1.2382
  166MOL0     H22410   8.693   4.898   1.019 -0.3864  0.9094  0.4224
  167MOL0     O22411  10.893   4.896   8.020  0.1920  0.0805 -0.3011
  167MOL0     C22412  10.991   4.946   8.072 -0.7139 -0.0362  0.3975
  167MOL0     O22413  11.065   4.870   8.156 -0.1426 -0.1753  0.6695
  167MOL0     C22414  11.003   4.754   8.199 -0.9754  0.9949 -0.0865
  167MOL0     C22415  10.895   4.755   8.280  0.5635  1.1028  0.0223
  167MOL0     C22416  10.856   4.628   8.338  0.3409 -0.8473  0.0155
  167MOL0     C22417  10.921   4.507   8.304  0.4276 -0.2741 -0.7651
  167MOL0     O22418  10.882   4.375   8.340 -0.3393  0.6514  0.9627
  167MOL0     C22419  10.755   4.358   8.405  0.2466 -0.0886 -0.8019
  167MOL0     C22420  10.726   4.207   8.433 -0.1296  0.2839 -0.3801
  167MOL0     C22421  10.793   4.161   8.566  0.0653 -0.1129 -0.4889
  167MOL0     C22422  10.817   4.010   8.574  0.0887  0.3136 -0.2765
  167MOL0     C22423  10.927   3.978   8.672  0.4187  0.0693  0.3552
  167MOL0     C22424  11.063   3.954   8.606  0.0401  0.2817 -0.2052
  167MOL0     C22425  11.157   3.897   8.708 -0.5225 -0.7279  0.1299
  167MOL0     C22426  11.289   3.843   8.634  0.1096  0.2224  0.0998
  167MOL0     N22427  11.362   3.767   8.726 -0.6434 -0.2821  0.1475
  167MOL0     C22428  11.416   3.811   8.840  0.3146  0.4976 -0.0879
  167MOL0     C22429  11.454   3.703   8.908 -0.6636  1.0001  0.2670
  167MOL0     C22430  11.516   3.694   9.047 -0.0897  0.2899  0.5334
  167MOL0     C22431  11.655   3.636   9.033 -0.3278 -0.0245 -1.1912
  167MOL0     C22432  11.761   3.658   9.156 -0.3144 -0.5922  1.0178
  167MOL0     C22433  11.712   3.600   9.294 -0.5148  0.0660 -0.3512
  167MOL0     O22434  11.813   3.614   9.389  0.8915 -1.0067 -0.1353
  167MOL0     C22435  11.919   3.533   9.396  0.0775  0.4179 -1.2181
  167MOL0     C22436  12.012   3.558   9.502  0.1244  0.2064  0.7738
  167MOL0     C22437  12.113   3.462   9.528  0.5836  0.2031 -0.6654
  167MOL0     C22438  12.131   3.356   9.434  0.7099 -0.1999  0.5103
  167MOL0     C22439  12.245   3.254   9.446 -0.0061 -0.6671 -0.0028
  167MOL0     O22440  12.235   3.125   9.406 -0.3310  0.7580  0.6305
  167MOL0     C22441  12.330   3.039   9.445 -0.5314  0.5460  0.2193
  167MOL0     C22442  12.280   2.921   9.514 -0.6303 -0.6763  0.8739
  167MOL0     C22443  12.366   2.812   9.544  0.1655  0.1301  0.6148
  167MOL0     C22444  12.492   2.810   9.486  0.0212  0.4288 -1.0939
  167MOL0     O22445  12.577   2.708   9.498 -0.1030 -0.6299 -0.1242
  167MOL0     C22446  12.535   2.598   9.581  0.4006 -0.3145 -1.0475
  167MOL0     C22447  12.526   2.615   9.736  0.3752 -0.0831  0.4401
  167MOL0     C22448  12.647   2.685   9.793 -0.4534  0.6841 -0.3363
  167MOL0     C22449  12.737   2.597   9.877 -1.0347  0.3376  0.3861
  167MOL0     C22450  12.844   2.668   9.952 -0.1966 -0.2235 -0.8487
  167MOL0     C22451  12.934   2.584  10.043  0.7391  0.6239  0.0263
  167MOL0     C22452  12.868   2.533  10.172  0.0815  0.0292 -0.5391
  167MOL0     C22453  12.968   2.460  10.264 -0.2444 -0.1082  1.1977
  167MOL0    Cl22454  13.042   2.318  10.198  0.3034 -0.1118  0.3917
  167MOL0     C22455  12.534   2.918   9.407  0.6210 -0.0270  0.4450
  167MOL0     C22456  12.455   3.040   9.393 -0.4986  0.1849  0.3796
  167MOL0     O22457  12.338   3.297   9.509 -0.9451  0.0893 -0.2752
  167MOL0     C22458  12.043   3.342   9.329 -0.8934 -0.1522  1.1148
  167MOL0     C22459  11.939   3.426   9.308  0.5128 -0.5045  0.4694
  167MOL0     N22460  11.440   3.586   8.831 -0.6902  0.0506 -0.5360
  167MOL0     N22461  11.379   3.629   8.725  0.1012 -0.4295  0.6420
  167MOL0     C22462  11.015   4.515   8.216 -0.4048 -0.2185  0.4355
  167MOL0     C22463  11.060   4.634   8.163 -0.0252  0.5661 -0.3782
  167MOL0     C22464  11.041   5.088   8.037  0.1492  0.3333 -0.3305
  167MOL0     C22465  11.177   5.121   8.049  0.0693 -1.0606 -0.1512
  167MOL0     C22466  11.226   5.244   8.011  0.4080  0.2907 -0.2937
  167MOL0     C22467  11.148   5.332   7.938 -0.2801  0.6838  0.7652
  167MOL0     O22468  11.203   5.448   7.904 -0.3193  0.1084  0.1047
  167MOL0     C22469  11.222   5.470   7.763  0.4720  0.4595 -0.1720
  167MOL0     C22470  11.323   5.575   7.738  0.9205  1.3071  0.0187
  167MOL0     C22471  11.460   5.538   7.771 -0.0149 -0.2002  0.6513
  167MOL0     C22472  11.566   5.648   7.755 -0.2720 -0.3084  0.5364
  167MOL0     C22473  11.581   5.689   7.613 -0.6308  0.2281  0.0171
  167MOL0     C22474  11.592   5.725   7.502 -0.3238  0.1044  0.2068
  167MOL0     C22475  11.012   5.306   7.935 -0.2956 -0.6604  0.5406
  167MOL0     C22476  10.960   5.182   7.975  0.3601  0.3637 -0.9337
  167MOL0     C22477  10.816   5.165   7.956  0.2310 -1.0218  0.2130
  167MOL0     H22478  10.841   4.845   8.308  0.2487  0.5672  1.2208
  167MOL0     H22479  10.781   4.634   8.417 -0.1038  1.4427 -0.5040
  167MOL0     H22480  10.765   4.410   8.501 -1.0308 -0.4080 -0.4812
  167MOL0     H22481  10.677   4.397   8.340 -0.3831 -1.1100 -0.6688
  167MOL0     H22482  10.780   4.146   8.360 -0.6795 -1.3362  0.4913
  167MOL0     H22483  10.623   4.168   8.430  0.6258 -1.8461 -0.7808
  167MOL0     H22484  10.731   4.184   8.652  0.1798 -1.9229  0.1141
  167MOL0     H22485  10.891   4.206   8.585 -0.4788 -0.3225  3.5308
  167MOL0     H22486  10.733   3.947   8.607  2.7670 -3.1763  0.5411
  167MOL0     H22487  10.852   3.969   8.479  1.5189  0.6720  0.0757
  167MOL0     H22488  10.939   4.058   8.746  1.0272  0.8541 -0.5712
  167MOL0     H22489  10.897   3.887   8.726  2.5829 -1.7134 -1.2476
  167MOL0     H22490  11.048   3.877   8.530 -0.3544  0.4033 -0.2536
  167MOL0     H22491  11.093   4.051   8.566 -0.7037  0.3016 -0.7425
  167MOL0     H22492  11.112   3.811   8.757  3.9692 -2.1286  2.3815
  167MOL0     H22493  11.189   3.970   8.783  0.0084  1.4218 -2.0318
  167MOL0     H22494  11.268   3.778   8.548  0.8267  3.3289 -2.6140
  167MOL0     H22495  11.343   3.929   8.594 -0.6193  0.0708 -1.2959
  167MOL0     H22496  11.395   3.906   8.888  0.5478  0.2698  0.4627
  167MOL0     H22497  11.510   3.795   9.089  0.4110  1.5582 -2.2187
  167MOL0     H22498  11.455   3.633   9.115 -0.9152 -0.1547 -0.5790
  167MOL0     H22499  11.641   3.528   9.031  0.5333 -0.2447  1.2436
  167MOL0     H22500  11.699   3.666   8.937 -0.0236  1.5793 -0.5910
  167MOL0     H22501  11.777   3.766   9.168 -0.1597 -0.8359  3.5620
  167MOL0     H22502  11.858   3.615   9.130 -0.1566 -0.3501  1.1977
  167MOL0     H22503  11.687   3.494   9.287  0.8567 -0.2090 -1.4272
  167MOL0     H22504  11.615   3.642   9.324 -0.5497 -0.0050 -0.3633
  167MOL0     H22505  11.997   3.646   9.563 -3.2179  3.7677 -4.4243
  167MOL0     H22506  12.177   3.471   9.615 -0.0923 -0.0021 -0.1462
  167MOL0     H22507  12.181   2.919   9.557 -1.6457  0.5206 -1.2450
  167MOL0     H22508  12.334   2.731   9.608  2.6993  0.6326  2.6618
  167MOL0     H22509  12.438   2.564   9.543  0.0775  2.5394 -3.1824
  167MOL0     H22510  12.600   2.512   9.562  1.0427  0.7559 -4.3432
  167MOL0     H22511  12.440   2.674   9.768  1.9570  2.0194  1.0467
  167MOL0     H22512  12.511   2.510   9.766  4.0642 -1.2117 -1.0242
  167MOL0     H22513  12.690   2.739   9.708 -2.0003 -0.5057 -1.9515
  167MOL0     H22514  12.597   2.763   9.851 -0.0627 -0.1589  1.1983
  167MOL0     H22515  12.784   2.524   9.810  0.8155  1.9064 -0.0941
  167MOL0     H22516  12.674   2.538   9.945 -2.6436  0.4665 -0.9267
  167MOL0     H22517  12.802   2.747  10.015  2.6239 -0.3743  1.4844
  167MOL0     H22518  12.918   2.720   9.890  1.1039  0.6635  1.3030
  167MOL0     H22519  12.978   2.499   9.990  1.4635 -1.2173  3.2631
  167MOL0     H22520  13.014   2.649  10.080  0.7308  0.6719 -0.0413
  167MOL0     H22521  12.789   2.464  10.141  0.2458 -1.4044  1.9645
  167MOL0     H22522  12.822   2.619  10.222 -0.3121  1.7428 -3.5964
  167MOL0     H22523  13.053   2.523  10.292  1.6235 -2.4319  1.0508
  167MOL0     H22524  12.914   2.436  10.356 -2.1955  0.5470  0.2756
  167MOL0     H22525  12.630   2.907   9.358  0.6408 -1.8239  0.8406
  167MOL0     H22526  12.504   3.122   9.342  0.0369 -2.0010 -3.0145
  167MOL0     H22527  12.064   3.259   9.263  1.0093  2.7749 -2.3309
  167MOL0     H22528  11.864   3.392   9.237  0.4834 -5.1553  2.3676
  167MOL0     H22529  11.061   4.425   8.177 -3.8067 -2.3233  0.8464
  167MOL0     H22530  11.143   4.622   8.094  1.8346  0.2098  1.8102
  167MOL0     H22531  11.240   5.048   8.098  1.9830  0.9902  0.6369
  167MOL0     H22532  11.332   5.264   8.023 -0.1309  4.1246 -0.6670
  167MOL0     H22533  11.121   5.494   7.730 -0.7745 -2.5200  1.0410
  167MOL0     H22534  11.249   5.376   7.714  1.9519  1.3516 -1.1273
  167MOL0     H22535  11.294   5.661   7.799 -0.4749  0.4563  0.6138
  167MOL0     H22536  11.314   5.603   7.633 -2.5515 -1.2198 -0.5531
  167MOL0     H22537  11.495   5.465   7.697 -1.9859 -1.9878  1.3873
  167MOL0     H22538  11.453   5.506   7.875 -3.7637  1.0569  0.9244
  167MOL0     H22539  11.545   5.734   7.819  1.0109  0.1722  0.3452
  167MOL0     H22540  11.662   5.599   7.776 -1.2108 -2.9847 -0.9086
  167MOL0     H22541  11.592   5.769   7.405 -0.6693  2.1854  1.0890
  167MOL0     H22542  10.956   5.380   7.878 -0.1572 -0.2176  0.9739
  167MOL0     H22543  10.787   5.098   7.874 -1.0253  0.5246 -0.6579
  167MOL0     H22544  10.779   5.119   8.049  0.4133  0.3671  0.9877
  167MOL0     H22545  10.768   5.259   7.928 -1.5400 -2.7369 -3.0135
  168MOL0     O22546   9.324   4.662   0.940 -0.0564 -0.1019 -0.5114
  168MOL0     C22547   9.347   4.772   0.893  0.1798 -0.4467  0.2537
  168MOL0     O22548   9.469   4.823   0.872 -0.4826 -0.4097 -0.1183
  168MOL0     C22549   9.591   4.757   0.869  0.2169 -0.6760 -0.1624
  168MOL0     C22550   9.698   4.840   0.857 -0.0862  0.3836  0.6421
  168MOL0     C22551   9.827   4.807   0.865 -0.2897  0.3335  0.3875
  168MOL0     C22552   9.855   4.670   0.859  0.2776 -0.1869  0.1348
  168MOL0     O22553   9.988   4.648   0.862  0.4693 -0.0483 -0.1889
  168MOL0     C22554  10.044   4.516   0.827  0.1386 -0.6956  0.5842
  168MOL0     C22555  10.202   4.526   0.811  0.2225  0.5508  0.5163
  168MOL0     C22556  10.266   4.621   0.699  0.0844  0.2049 -0.1890
  168MOL0     C22557  10.393   4.561   0.643  0.1603  0.8322 -0.5467
  168MOL0     C22558  10.451   4.649   0.536  0.8739 -0.7058 -0.0334
  168MOL0     C22559  10.510   4.782   0.575  0.6651  0.7202  0.3902
  168MOL0     C22560  10.636   4.775   0.655 -0.1169 -0.3310  0.8501
  168MOL0     C22561  10.697   4.911   0.671  0.1544  0.7303 -0.0160
  168MOL0     N22562  10.801   4.909   0.778  0.0959 -0.2008 -0.0089
  168MOL0     C22563  10.927   4.854   0.771  0.5035  0.1655 -1.1254
  168MOL0     C22564  10.979   4.883   0.890 -1.0396 -0.0485 -0.1418
  168MOL0     C22565  11.115   4.838   0.950 -0.0157 -0.3067  0.1996
  168MOL0     C22566  11.222   4.952   0.968 -0.0318  0.3475  0.5529
  168MOL0     C22567  11.307   4.979   0.840  0.2950 -0.5335 -0.5042
  168MOL0     C22568  11.391   5.098   0.852 -0.2406 -0.7599  0.0733
  168MOL0     O22569  11.497   5.086   0.756  0.7243 -0.0872 -0.0920
  168MOL0     C22570  11.558   5.205   0.736  0.1348  0.1925  0.0060
  168MOL0     C22571  11.550   5.266   0.611 -0.3073 -0.0008  0.1223
  168MOL0     C22572  11.618   5.381   0.593 -0.3795 -0.0091  0.2618
  168MOL0     C22573  11.703   5.444   0.701  0.7954 -0.0122  0.3823
  168MOL0     C22574  11.779   5.561   0.675 -0.4690  0.6628 -0.8214
  168MOL0     O22575  11.880   5.584   0.764 -0.4080 -1.0031 -0.4995
  168MOL0     C22576  11.962   5.693   0.730 -0.4024 -0.4458  0.3228
  168MOL0     C22577  12.073   5.688   0.644  0.2272 -0.4153 -0.8677
  168MOL0     C22578  12.158   5.801   0.613 -0.0984 -0.7162  0.8575
  168MOL0     C22579  12.126   5.921   0.673  0.3459  0.4913 -0.2785
  168MOL0     O22580  12.196   6.030   0.625  0.2812  0.0526  0.2364
  168MOL0     C22581  12.323   6.062   0.689 -0.1956 -0.4754  0.2618
  168MOL0     C22582  12.311   6.141   0.820  1.1269 -0.1103 -0.3353
  168MOL0     C22583  12.206   6.254   0.813  0.4303 -0.2124 -0.4875
  168MOL0     C22584  12.252   6.363   0.904 -0.2794  0.1894 -0.1473
  168MOL0     C22585  12.264   6.319   1.054  1.0961  0.2099 -0.0120
  168MOL0     C22586  12.301   6.420   1.150 -0.5371  0.1008 -0.6954
  168MOL0     C22587  12.319   6.373   1.295 -0.8385 -0.2411 -0.3255
  168MOL0     C22588  12.419   6.253   1.307 -0.1948 -0.0343 -0.5265
  168MOL0    Cl22589  12.573   6.252   1.206 -0.6014 -0.0071  0.1667
  168MOL0     C22590  12.010   5.924   0.753  0.1371  0.1605  0.1909
  168MOL0     C22591  11.931   5.821   0.785  0.0206 -0.0076  0.0218
  168MOL0     O22592  11.751   5.631   0.579 -0.0053  0.6808  0.3638
  168MOL0     C22593  11.705   5.376   0.818 -1.0356  0.0088 -0.1126
  168MOL0     C22594  11.641   5.250   0.836 -0.3789 -1.0178  0.2459
  168MOL0     N22595  10.901   4.965   0.973  0.5639  0.3553 -0.6272
  168MOL0     N22596  10.794   4.975   0.907 -0.6565  1.1092 -0.1176
  168MOL0     C22597   9.750   4.573   0.853 -0.2069 -0.0562 -0.2074
  168MOL0     C22598   9.615   4.620   0.854 -0.5415  0.1253  0.8267
  168MOL0     C22599   9.234   4.865   0.848 -0.6120  0.2325 -1.7432
  168MOL0     C22600   9.267   4.961   0.757 -0.6853  0.3275 -0.1806
  168MOL0     C22601   9.171   5.039   0.701 -0.3538  0.1114 -1.0179
  168MOL0     C22602   9.036   5.028   0.741 -0.2235 -0.3499  0.7926
  168MOL0     O22603   8.949   5.124   0.690  0.2393  0.6798  0.2743
  168MOL0     C22604   8.804   5.106   0.722 -1.1469  0.9174 -0.2872
  168MOL0     C22605   8.706   5.219   0.672 -0.2542  0.3378  0.0486
  168MOL0     C22606   8.723   5.346   0.751  0.3059  0.0841  0.1960
  168MOL0     C22607   8.644   5.475   0.723  0.7626 -0.0454 -0.5823
  168MOL0     C22608   8.505   5.458   0.761 -0.1246 -0.5131  0.2866
  168MOL0     C22609   8.392   5.424   0.797 -0.5233  0.6028 -0.5367
  168MOL0     C22610   9.010   4.936   0.842  1.0322 -0.0750 -0.4474
  168MOL0     C22611   9.103   4.860   0.900  0.4314  1.1889 -0.1549
  168MOL0     C22612   9.052   4.769   1.012 -0.3351 -0.8191 -0.3348
  168MOL0     H22613   9.670   4.945   0.857 -3.2913 -0.3472  0.3320
  168MOL0     H22614   9.902   4.885   0.863 -1.5420  1.5662 -1.4905
  168MOL0     H22615  10.024   4.451   0.912  0.3660 -1.7921 -0.1888
  168MOL0     H22616   9.997   4.464   0.743 -2.3381 -1.4133  2.3117
  168MOL0     H22617  10.233   4.421   0.805 -2.4705 -0.2670 -0.8414
  168MOL0     H22618  10.251   4.571   0.897  2.0004 -0.4259  0.0700
  168MOL0     H22619  10.298   4.714   0.748  2.7368 -1.1165  0.8163
  168MOL0     H22620  10.204   4.646   0.613  0.1751  3.5937  0.5832
  168MOL0     H22621  10.465   4.543   0.723 -2.9712  1.5335  2.6886
  168MOL0     H22622  10.381   4.464   0.593  1.1035  0.4380 -0.0290
  168MOL0     H22623  10.535   4.595   0.489  1.5826  0.6967 -0.4348
  168MOL0     H22624  10.378   4.676   0.459  1.5457  1.5861  0.0784
  168MOL0     H22625  10.528   4.844   0.487 -2.6392  0.9325 -0.2738
  168MOL0     H22626  10.435   4.842   0.627 -1.0086 -0.8052 -0.1660
  168MOL0     H22627  10.699   4.703   0.604 -0.0472  0.6039 -0.4387
  168MOL0     H22628  10.621   4.742   0.758  1.0354 -1.2038  0.7537
  168MOL0     H22629  10.747   4.938   0.578 -0.0679 -1.4944 -0.8319
  168MOL0     H22630  10.622   4.987   0.696  0.4222  0.3951  2.0024
  168MOL0     H22631  10.974   4.806   0.686 -2.0657 -0.6226 -2.1742
  168MOL0     H22632  11.093   4.808   1.052 -4.4361  0.8090 -0.2179
  168MOL0     H22633  11.155   4.757   0.888  4.7241 -0.2495  2.7118
  168MOL0     H22634  11.177   5.048   0.996 -1.1645 -0.3035  1.0020
  168MOL0     H22635  11.281   4.925   1.056  0.0670 -0.4684  0.2392
  168MOL0     H22636  11.254   4.999   0.746 -0.8370 -1.7948 -0.1530
  168MOL0     H22637  11.368   4.888   0.828 -0.5644 -1.4430  1.5489
  168MOL0     H22638  11.434   5.104   0.952 -1.5422 -1.3535  0.6968
  168MOL0     H22639  11.331   5.190   0.845 -1.4135 -1.3106  2.0306
  168MOL0     H22640  11.488   5.225   0.532 -2.1405 -0.6770  1.8142
  168MOL0     H22641  11.606   5.442   0.504 -1.5967  2.0196  1.7544
  168MOL0     H22642  12.099   5.597   0.592 -0.7960  0.1742 -2.5104
  168MOL0     H22643  12.242   5.788   0.545 -1.9609  0.4226 -1.8582
  168MOL0     H22644  12.382   5.974   0.715 -1.9057 -1.0558  2.4522
  168MOL0     H22645  12.395   6.125   0.635  2.0912 -2.0764  1.2691
  168MOL0     H22646  12.274   6.073   0.897 -0.0613  1.4144  0.5103
  168MOL0     H22647  12.410   6.175   0.852  1.5665 -2.7411  1.4634
  168MOL0     H22648  12.198   6.293   0.710 -1.4033  1.5174  0.2448
  168MOL0     H22649  12.105   6.224   0.841  0.0648  0.2610 -1.2699
  168MOL0     H22650  12.178   6.443   0.902  1.4007  1.8197 -0.7107
  168MOL0     H22651  12.340   6.412   0.861  0.0885  0.1845  0.5859
  168MOL0     H22652  12.343   6.244   1.066  0.4369 -0.6425 -0.7800
  168MOL0     H22653  12.166   6.277   1.078  0.4659  0.8095 -1.4168
  168MOL0     H22654  12.390   6.471   1.113  1.7069 -2.1037  1.3029
  168MOL0     H22655  12.216   6.488   1.144 -0.4349  0.4235  1.1085
  168MOL0     H22656  12.219   6.360   1.337 -0.4842  1.0594  1.0366
  168MOL0     H22657  12.377   6.453   1.342 -2.1467 -1.3022  3.4426
  168MOL0     H22658  12.450   6.238   1.411 -1.4700  0.4268 -0.0634
  168MOL0     H22659  12.363   6.163   1.282  0.2939 -0.2149 -0.9972
  168MOL0     H22660  11.989   6.028   0.776  2.2881  1.0891 -1.6425
  168MOL0     H22661  11.848   5.851   0.848  0.3208 -1.0249  0.9291
  168MOL0     H22662  11.777   5.402   0.896 -2.4267  1.6591  0.7149
  168MOL0     H22663  11.665   5.201   0.930 -2.1538 -1.0826  0.7007
  168MOL0     H22664   9.772   4.467   0.843  2.2582  0.2801  0.7630
  168MOL0     H22665   9.544   4.538   0.841 -0.8622  0.7053 -1.7671
  168MOL0     H22666   9.367   4.968   0.715 -0.9613  0.1474 -0.8833
  168MOL0     H22667   9.198   5.108   0.621  1.6862  0.9262  0.2982
  168MOL0     H22668   8.801   5.105   0.831  1.9175 -2.4115 -0.0440
  168MOL0     H22669   8.772   5.009   0.682  1.9652 -0.7190  0.8453
  168MOL0     H22670   8.608   5.190   0.711 -0.0596 -0.0583  0.2545
  168MOL0     H22671   8.706   5.231   0.563  1.8139  0.2588 -0.0145
  168MOL0     H22672   8.826   5.380   0.732  1.2744 -1.1146  2.8319
  168MOL0     H22673   8.702   5.315   0.854 -1.6777 -1.9236 -0.7401
  168MOL0     H22674   8.681   5.554   0.789  0.4562 -0.2192 -0.2015
  168MOL0     H22675   8.649   5.519   0.623  0.0331  0.2727 -0.4824
  168MOL0     H22676   8.298   5.377   0.815 -1.6575  2.0338 -2.3774
  168MOL0     H22677   8.908   4.921   0.876  0.1342 -2.1135 -3.6783
  168MOL0     H22678   9.012   4.676   0.972 -1.3480 -0.1732 -0.8880
  168MOL0     H22679   9.129   4.744   1.084 -1.5723  1.3742  1.9299
  168MOL0     H22680   8.977   4.818   1.075 -0.1580 -0.3801 -0.4634
  169MOL0     O22681   9.259   3.094   3.127 -0.5840 -0.2920  0.4137
  169MOL0     C22682   9.276   2.975   3.155  0.0179 -0.5478  0.4312
  169MOL0     O22683   9.308   2.878   3.062  0.1702  0.0348 -0.2455
  169MOL0     C22684   9.353   2.916   2.934 -0.3853  0.9518  0.9889
  169MOL0     C22685   9.308   3.030   2.861 -0.3615 -0.0910 -0.1245
  169MOL0     C22686   9.347   3.052   2.733  0.1604 -0.4451  0.9222
  169MOL0     C22687   9.436   2.969   2.667  0.3895 -0.0514  0.4684
  169MOL0     O22688   9.456   2.977   2.529 -0.2186 -0.5993  0.2366
  169MOL0     C22689   9.421   3.097   2.462  0.2726 -0.5412 -0.1527
  169MOL0     C22690   9.483   3.099   2.329 -0.5075  0.0183  1.2501
  169MOL0     C22691   9.628   3.155   2.340  0.3825 -1.2582  0.8484
  169MOL0     C22692   9.716   3.171   2.203 -0.8531 -0.2059 -0.1500
  169MOL0     C22693   9.839   3.245   2.234  0.7563  0.2072 -0.0355
  169MOL0     C22694   9.934   3.257   2.112 -0.4917  0.9673  0.3914
  169MOL0     C22695   9.997   3.130   2.079  0.1271  0.3768  0.4996
  169MOL0     C22696  10.108   3.162   1.973  1.1602 -0.7405 -0.2046
  169MOL0     N22697  10.224   3.245   2.015 -0.3311 -0.0048  0.4103
  169MOL0     C22698  10.320   3.204   2.098 -0.1505  0.6133  0.1485
  169MOL0     C22699  10.394   3.311   2.119 -0.5234 -0.3506 -1.0442
  169MOL0     C22700  10.505   3.317   2.227  1.4324  0.5912 -0.0386
  169MOL0     C22701  10.637   3.282   2.155  0.0657  0.3405  0.0692
  169MOL0     C22702  10.634   3.139   2.090 -0.0978 -0.7608  0.0722
  169MOL0     C22703  10.780   3.116   2.040 -1.0074  0.0169  0.7740
  169MOL0     O22704  10.857   3.092   2.158  0.0953 -0.1757 -0.9606
  169MOL0     C22705  10.984   3.043   2.151  0.5560 -0.1230  0.4213
  169MOL0     C22706  11.064   3.048   2.034  0.6017 -0.0066  0.1538
  169MOL0     C22707  11.183   2.979   2.037 -0.6124 -0.1756  1.0284
  169MOL0     C22708  11.227   2.912   2.150 -0.0302  0.1178  0.2300
  169MOL0     C22709  11.361   2.847   2.130  1.3352  0.0195  0.3774
  169MOL0     O22710  11.448   2.914   2.047  0.1700  0.4753 -0.5917
  169MOL0     C22711  11.576   2.865   2.051 -0.0288  0.0784 -0.5143
  169MOL0     C22712  11.668   2.909   2.151  0.3604  0.2043  0.8452
  169MOL0     C22713  11.808   2.876   2.144  0.0593 -1.0174  0.0141
  169MOL0     C22714  11.863   2.803   2.037  0.5453  0.2904 -0.2617
  169MOL0     O22715  11.995   2.771   2.032  0.3431  0.3320 -0.3493
  169MOL0     C22716  12.043   2.700   1.922  0.3077  0.3017  0.3300
  169MOL0     C22717  12.191   2.734   1.922  0.5346 -0.3051 -0.6003
  169MOL0     C22718  12.271   2.657   2.026 -0.7674 -0.6134 -0.6804
  169MOL0     C22719  12.417   2.683   2.028 -0.1070  0.0715 -0.0094
  169MOL0     C22720  12.474   2.608   2.143  0.2414 -0.6342 -0.4576
  169MOL0     C22721  12.623   2.599   2.145  0.0448 -0.2622  0.3373
  169MOL0     C22722  12.670   2.507   2.258  0.6265  0.4534  0.8615
  169MOL0     C22723  12.813   2.479   2.268 -0.6919 -0.3997  0.2876
  169MOL0    Cl22724  12.905   2.628   2.307  0.3248 -0.1714  0.0805
  169MOL0     C22725  11.772   2.753   1.943 -0.7522 -0.2155 -0.4249
  169MOL0     C22726  11.634   2.794   1.944  0.0904 -0.2824 -0.2035
  169MOL0     O22727  11.379   2.753   2.208  0.5393 -0.8779 -0.5349
  169MOL0     C22728  11.145   2.917   2.268  0.1158 -1.4548 -0.0363
  169MOL0     C22729  11.026   2.991   2.264 -0.6661  0.9208  0.4021
  169MOL0     N22730  10.354   3.405   2.027  0.3045  0.1049  0.1401
  169MOL0     N22731  10.259   3.365   1.967  0.5885 -0.4324  0.4616
  169MOL0     C22732   9.479   2.858   2.731  0.3136  0.2410  0.6075
  169MOL0     C22733   9.439   2.830   2.863  0.4117 -0.1067  0.1038
  169MOL0     C22734   9.261   2.927   3.289  0.1690 -0.0286 -0.2798
  169MOL0     C22735   9.266   2.787   3.308 -0.5759 -0.2876 -0.5712
  169MOL0     C22736   9.255   2.734   3.435  0.5866  1.1800 -0.1529
  169MOL0     C22737   9.224   2.810   3.552  0.5356  0.3063  0.6127
  169MOL0     O22738   9.194   2.740   3.672 -1.1583 -0.2637  0.0092
  169MOL0     C22739   9.182   2.807   3.801 -0.2436 -0.1384  1.2930
  169MOL0     C22740   9.145   2.700   3.910 -0.3488 -0.0800 -0.4751
  169MOL0     C22741   9.269   2.620   3.952 -0.3869  0.2344  0.6452
  169MOL0     C22742   9.256   2.537   4.076  0.0915 -0.4347 -0.1289
  169MOL0     C22743   9.133   2.452   4.082  0.0076  0.2187  0.2983
  169MOL0     C22744   9.027   2.402   4.107 -0.0498 -0.6231 -0.0140
  169MOL0     C22745   9.233   2.946   3.538 -0.1828  0.2951 -0.6929
  169MOL0     C22746   9.239   3.007   3.404 -0.0726 -0.3147 -0.0908
  169MOL0     C22747   9.240   3.159   3.396 -0.3082 -0.2500  0.4030
  169MOL0     H22748   9.249   3.115   2.893 -1.4797 -0.0930 -2.0537
  169MOL0     H22749   9.308   3.145   2.692  3.2557  1.0199  0.9678
  169MOL0     H22750   9.311   3.095   2.457  0.3048 -1.7774 -0.9092
  169MOL0     H22751   9.453   3.171   2.536 -1.4122 -0.8483  0.9472
  169MOL0     H22752   9.423   3.158   2.260  0.0612  1.6379  2.0975
  169MOL0     H22753   9.488   2.999   2.284 -1.7307  1.1348 -1.6205
  169MOL0     H22754   9.684   3.100   2.417 -0.3136 -1.2320  1.3877
  169MOL0     H22755   9.606   3.255   2.379  1.5847  0.3079 -2.1714
  169MOL0     H22756   9.742   3.068   2.177  1.3538  0.3476 -0.3601
  169MOL0     H22757   9.667   3.223   2.121  1.9803 -0.4892 -2.1748
  169MOL0     H22758   9.803   3.343   2.265 -0.2733 -0.9008  2.6368
  169MOL0     H22759   9.896   3.220   2.324  2.1656 -0.1653 -1.0012
  169MOL0     H22760   9.884   3.281   2.018  0.8846  0.1589 -0.5913
  169MOL0     H22761  10.001   3.340   2.137 -0.8588  1.3558  0.0987
  169MOL0     H22762   9.929   3.061   2.029 -0.7159  0.7246  1.1570
  169MOL0     H22763  10.044   3.101   2.173  1.9201  0.9889 -0.1449
  169MOL0     H22764  10.143   3.062   1.945  0.7761 -1.7613  2.6555
  169MOL0     H22765  10.057   3.201   1.885 -0.6594 -2.2914  0.0962
  169MOL0     H22766  10.327   3.112   2.155  0.4426  0.3730 -0.3007
  169MOL0     H22767  10.513   3.406   2.290 -2.5482 -1.2314  3.5336
  169MOL0     H22768  10.475   3.240   2.300 -1.9173  0.4807 -1.3451
  169MOL0     H22769  10.648   3.359   2.078  1.1115 -0.3114 -0.4622
  169MOL0     H22770  10.724   3.281   2.221 -0.5310  2.5025  0.9538
  169MOL0     H22771  10.559   3.138   2.011 -2.5771  1.9707  2.1757
  169MOL0     H22772  10.595   3.072   2.167 -1.7543 -0.8015 -0.7548
  169MOL0     H22773  10.828   3.192   1.978 -0.7919 -1.1169 -0.4769
  169MOL0     H22774  10.786   3.021   1.986  0.1508  0.7409 -0.4101
  169MOL0     H22775  11.034   3.097   1.943  0.8819 -0.9280 -0.4517
  169MOL0     H22776  11.239   2.967   1.945 -0.4991 -1.5961  1.2641
  169MOL0     H22777  11.632   2.969   2.233 -0.0479 -1.6478  2.0710
  169MOL0     H22778  11.876   2.905   2.223 -0.7589 -1.1050  0.7771
  169MOL0     H22779  12.032   2.591   1.932  2.4044  0.2105  2.6732
  169MOL0     H22780  12.000   2.733   1.828  2.6866 -2.7815 -2.0724
  169MOL0     H22781  12.238   2.728   1.823 -0.2858  3.7612 -1.4110
  169MOL0     H22782  12.194   2.840   1.948  2.8446 -0.4842 -0.0012
  169MOL0     H22783  12.231   2.688   2.123 -0.2934  1.5416 -1.1254
  169MOL0     H22784  12.250   2.550   2.017  0.0947 -0.7558 -1.2183
  169MOL0     H22785  12.438   2.791   2.031  1.1170 -0.0876 -1.3946
  169MOL0     H22786  12.453   2.661   1.927 -1.0677  1.7643 -0.7715
  169MOL0     H22787  12.431   2.508   2.131  0.9804 -1.5569  3.3263
  169MOL0     H22788  12.433   2.654   2.233 -1.0802 -1.0071 -0.8469
  169MOL0     H22789  12.668   2.566   2.051  0.7332  1.7972 -0.1122
  169MOL0     H22790  12.646   2.705   2.158 -1.3278  0.0010  0.7753
  169MOL0     H22791  12.606   2.418   2.256  0.9574  0.1812  1.9934
  169MOL0     H22792  12.637   2.554   2.351  1.8504 -1.1177  2.1216
  169MOL0     H22793  12.836   2.424   2.359 -1.1262  1.5153  1.6224
  169MOL0     H22794  12.859   2.426   2.184  0.3660  0.5004  0.2667
  169MOL0     H22795  11.789   2.684   1.861  0.8704 -0.4389  0.0758
  169MOL0     H22796  11.569   2.770   1.861 -0.5913 -3.5021  1.0943
  169MOL0     H22797  11.196   2.878   2.355  0.4552  2.6518  1.8434
  169MOL0     H22798  10.962   3.005   2.351 -1.0446 -1.3349  0.5628
  169MOL0     H22799   9.531   2.791   2.664 -0.5975 -0.2961  0.4269
  169MOL0     H22800   9.461   2.734   2.910  0.5895 -0.0693  0.0984
  169MOL0     H22801   9.291   2.711   3.234  1.0147  2.6186 -3.2400
  169MOL0     H22802   9.245   2.627   3.448 -0.9591  1.1277 -1.4756
  169MOL0     H22803   9.115   2.894   3.793  2.2156  1.7974  0.0456
  169MOL0     H22804   9.282   2.851   3.816 -0.0538 -0.2133  0.3107
  169MOL0     H22805   9.065   2.629   3.889  0.0395 -0.6400 -0.0840
  169MOL0     H22806   9.114   2.766   3.992 -2.4636 -0.7045 -0.6972
  169MOL0     H22807   9.358   2.681   3.966 -1.9037  2.2031  2.1888
  169MOL0     H22808   9.291   2.543   3.876 -1.1155  2.8812 -2.4537
  169MOL0     H22809   9.341   2.471   4.098  1.0183  0.3628 -1.1892
  169MOL0     H22810   9.251   2.605   4.162 -1.5132 -0.5308 -0.1232
  169MOL0     H22811   8.936   2.353   4.135  0.7890 -2.7749 -0.8863
  169MOL0     H22812   9.223   3.006   3.628 -0.8413 -1.5888  0.5411
  169MOL0     H22813   9.344   3.187   3.378 -0.2876 -0.9612 -0.7146
  169MOL0     H22814   9.180   3.207   3.318  2.0789  0.4914 -1.0830
  169MOL0     H22815   9.195   3.186   3.492  0.3769 -0.1093  0.6924
  170MOL0     O22816   3.661   6.939   7.227  0.5578  0.7750  0.9016
  170MOL0     C22817   3.645   7.051   7.168 -0.4625  0.3345 -0.7780
  170MOL0     O22818   3.552   7.080   7.078 -0.1885 -0.0704 -0.3270
  170MOL0     C22819   3.446   6.991   7.077  0.3011 -0.0866  0.1184
  170MOL0     C22820   3.322   7.030   7.122 -0.4978  0.3779  0.1146
  170MOL0     C22821   3.216   6.944   7.128  0.7303 -0.2778 -0.4385
  170MOL0     C22822   3.231   6.811   7.088 -0.6890 -0.6670 -0.1985
  170MOL0     O22823   3.121   6.722   7.091  0.2024 -0.1378 -0.1302
  170MOL0     C22824   3.125   6.589   7.039 -0.5411 -0.0197 -0.8761
  170MOL0     C22825   2.983   6.541   7.015  0.0409 -0.5900  0.4787
  170MOL0     C22826   2.882   6.640   6.955 -0.5277 -1.6015  0.4485
  170MOL0     C22827   2.909   6.659   6.809  0.5535 -0.2046 -0.6201
  170MOL0     C22828   2.790   6.724   6.733  0.4954  0.1418 -0.3620
  170MOL0     C22829   2.796   6.880   6.733 -0.5204 -0.3176 -0.7399
  170MOL0     C22830   2.686   6.927   6.647  0.4444  0.5754  0.6085
  170MOL0     C22831   2.687   7.071   6.612 -0.5401  0.1423 -0.2492
  170MOL0     N22832   2.583   7.096   6.506 -0.8090 -0.8110  0.3579
  170MOL0     C22833   2.595   7.084   6.373  0.0167 -0.3710  0.3628
  170MOL0     C22834   2.472   7.124   6.331 -0.7033 -0.0013 -0.3157
  170MOL0     C22835   2.435   7.134   6.183 -0.1443  0.2498 -0.6907
  170MOL0     C22836   2.332   7.025   6.151  0.4036 -0.0386  0.1636
  170MOL0     C22837   2.384   6.879   6.157 -0.0760 -0.0736 -0.4460
  170MOL0     C22838   2.292   6.766   6.107 -0.1466 -1.0081 -0.2812
  170MOL0     O22839   2.243   6.788   5.971  0.2759  0.5354 -0.1915
  170MOL0     C22840   2.117   6.852   5.961 -0.3733  0.5589 -0.5281
  170MOL0     C22841   2.038   6.895   6.072 -1.2180  0.0520 -0.2875
  170MOL0     C22842   1.918   6.958   6.051 -0.9251 -0.2563  0.0760
  170MOL0     C22843   1.877   6.991   5.928 -0.0392  0.0228  0.2092
  170MOL0     C22844   1.755   7.067   5.903  1.0919  0.2759  0.5982
  170MOL0     O22845   1.675   7.088   6.014 -0.0168 -0.4579  0.2236
  170MOL0     C22846   1.552   7.144   5.983  0.0403 -0.0092 -0.4094
  170MOL0     C22847   1.541   7.280   6.008 -0.3564 -0.0147 -1.2439
  170MOL0     C22848   1.417   7.341   5.989  0.2899  0.3022 -0.0957
  170MOL0     C22849   1.304   7.269   5.951  0.1643 -0.4010 -0.4529
  170MOL0     O22850   1.180   7.321   5.932  0.5500  0.1325 -0.4185
  170MOL0     C22851   1.129   7.422   6.025 -0.2344 -0.9634  0.1267
  170MOL0     C22852   0.979   7.404   6.045 -0.3443 -0.1823  0.7190
  170MOL0     C22853   0.914   7.533   6.089  0.1523  0.1639 -0.1114
  170MOL0     C22854   0.769   7.511   6.129 -0.9888  0.2887 -0.5080
  170MOL0     C22855   0.683   7.450   6.021  0.1303  0.5462  0.3694
  170MOL0     C22856   0.536   7.441   6.063 -0.4110 -0.9713 -0.9554
  170MOL0     C22857   0.450   7.379   5.959  0.1980  0.0614  0.2326
  170MOL0     C22858   0.304   7.413   6.000 -0.0012  0.1515 -0.3805
  170MOL0    Cl22859   0.219   7.346   6.144  0.2435 -0.6748 -0.4997
  170MOL0     C22860   1.317   7.132   5.930  0.5630  0.3108 -0.4063
  170MOL0     C22861   1.438   7.068   5.949 -0.2194 -0.0401 -0.0993
  170MOL0     O22862   1.737   7.114   5.790  0.0510  0.0960  0.2830
  170MOL0     C22863   1.955   6.949   5.812  0.3457 -0.5218 -0.5114
  170MOL0     C22864   2.072   6.884   5.831 -0.0719 -0.0382  0.4699
  170MOL0     N22865   2.394   7.166   6.438  0.0612  0.5858  0.1419
  170MOL0     N22866   2.461   7.150   6.543 -1.0840  0.8423  0.1242
  170MOL0     C22867   3.362   6.775   7.040  0.5390 -0.5547 -0.9149
  170MOL0     C22868   3.470   6.861   7.032 -0.1166 -0.4795 -0.1651
  170MOL0     C22869   3.735   7.160   7.215  0.0169 -0.2761 -0.8685
  170MOL0     C22870   3.680   7.251   7.302  0.2278 -0.5364 -0.9098
  170MOL0     C22871   3.760   7.347   7.366  0.9742  0.4689 -0.4782
  170MOL0     C22872   3.900   7.363   7.342  0.0131  0.2124 -0.4298
  170MOL0     O22873   3.963   7.463   7.396  0.5134  0.0221 -0.1824
  170MOL0     C22874   4.104   7.445   7.423 -0.5271  1.0200 -0.4508
  170MOL0     C22875   4.153   7.565   7.509  0.8983 -0.1683  0.3293
  170MOL0     C22876   4.136   7.692   7.431 -0.6969 -0.6221  0.8618
  170MOL0     C22877   4.190   7.686   7.279 -0.0296  0.3148  0.2132
  170MOL0     C22878   4.200   7.822   7.232 -0.0340 -0.2993 -0.0416
  170MOL0     C22879   4.219   7.932   7.194  0.3027 -0.3957  1.0720
  170MOL0     C22880   3.958   7.268   7.251  0.6599  0.1284 -0.6599
  170MOL0     C22881   3.880   7.168   7.194 -0.1522  0.5645 -0.2340
  170MOL0     C22882   3.947   7.060   7.115 -0.0129  0.4882 -0.1246
  170MOL0     H22883   3.305   7.136   7.143 -2.6000  0.3102 -0.9249
  170MOL0     H22884   3.116   6.974   7.158  0.2163 -1.7980 -0.5219
  170MOL0     H22885   3.182   6.582   6.946  1.0967 -3.5134  0.2267
  170MOL0     H22886   3.166   6.524   7.117  0.1693 -0.5928 -1.7110
  170MOL0     H22887   2.940   6.513   7.112 -4.2443  0.6825 -0.8313
  170MOL0     H22888   2.986   6.447   6.959 -3.0750  0.7342 -2.2485
  170MOL0     H22889   2.897   6.736   7.005 -0.2237  0.4492 -3.2884
  170MOL0     H22890   2.778   6.607   6.965  0.0257 -3.1100  1.5688
  170MOL0     H22891   3.003   6.709   6.784 -0.8310  3.4227  0.7434
  170MOL0     H22892   2.908   6.557   6.769  0.0327  0.3380 -2.0457
  170MOL0     H22893   2.797   6.703   6.626  1.0975  0.3570 -0.3710
  170MOL0     H22894   2.698   6.684   6.777  0.1622  0.5411 -0.6828
  170MOL0     H22895   2.786   6.926   6.832 -1.0477  1.9981 -1.7913
  170MOL0     H22896   2.894   6.913   6.696  0.9811 -2.3447  1.1919
  170MOL0     H22897   2.593   6.910   6.702 -1.4974  0.5506 -2.4911
  170MOL0     H22898   2.689   6.872   6.553 -1.4156 -0.4301  1.0853
  170MOL0     H22899   2.672   7.133   6.702 -0.3906 -0.9601  0.5503
  170MOL0     H22900   2.789   7.098   6.584  0.0189 -0.6124  0.9397
  170MOL0     H22901   2.681   7.055   6.314  0.0417  0.2729  0.0772
  170MOL0     H22902   2.382   7.229   6.173 -0.3919 -0.0518 -2.7281
  170MOL0     H22903   2.525   7.139   6.120 -0.5421  1.1990 -1.2110
  170MOL0     H22904   2.245   7.030   6.217  1.1613  1.6154  1.1003
  170MOL0     H22905   2.304   7.071   6.056 -0.8746 -0.0890  0.4954
  170MOL0     H22906   2.411   6.863   6.262 -1.5209  0.4796  0.0388
  170MOL0     H22907   2.478   6.882   6.100  0.0724  4.2282 -0.3339
  170MOL0     H22908   2.213   6.741   6.179  2.3777 -0.8718  2.7562
  170MOL0     H22909   2.357   6.678   6.108  1.0559 -0.1581 -0.8992
  170MOL0     H22910   2.071   6.875   6.174  0.9083  2.8479 -0.3046
  170MOL0     H22911   1.862   6.981   6.141  0.8820 -0.7892  1.3864
  170MOL0     H22912   1.621   7.345   6.041 -1.9050  0.6361  1.5398
  170MOL0     H22913   1.417   7.448   6.007  4.1295  0.2967  0.7841
  170MOL0     H22914   1.181   7.423   6.121 -0.2563 -1.1938  0.1399
  170MOL0     H22915   1.149   7.523   5.987 -1.3355 -0.8611 -0.2044
  170MOL0     H22916   0.942   7.368   5.949  1.8193  0.9212 -0.5765
  170MOL0     H22917   0.969   7.326   6.121 -0.7708 -0.6887  0.1557
  170MOL0     H22918   0.964   7.565   6.181  0.0828 -0.6348  0.2152
  170MOL0     H22919   0.919   7.615   6.018 -0.7147 -0.4725 -0.9334
  170MOL0     H22920   0.723   7.606   6.157 -0.2900  0.6798 -0.6580
  170MOL0     H22921   0.762   7.431   6.203 -2.9719 -1.5974 -2.5647
  170MOL0     H22922   0.717   7.351   5.990  1.4914  0.8589  0.7909
  170MOL0     H22923   0.701   7.499   5.925  2.4931 -0.3926  0.2711
  170MOL0     H22924   0.519   7.371   6.145  2.1200  0.4596  0.9185
  170MOL0     H22925   0.506   7.543   6.091  0.6315 -1.0825  0.6200
  170MOL0     H22926   0.463   7.270   5.950 -3.0955 -0.2952 -1.7753
  170MOL0     H22927   0.482   7.421   5.863  0.5967  1.0459  0.7841
  170MOL0     H22928   0.305   7.521   6.019  1.2549  0.3993 -1.6284
  170MOL0     H22929   0.240   7.411   5.912 -0.0389  1.6212 -0.4104
  170MOL0     H22930   1.224   7.078   5.920  1.1188 -0.4042 -2.0763
  170MOL0     H22931   1.447   6.960   5.941  1.1545  0.0955 -0.8731
  170MOL0     H22932   1.911   6.970   5.715 -3.1242 -0.2806  0.9871
  170MOL0     H22933   2.128   6.851   5.744 -1.6869 -2.8948  0.3906
  170MOL0     H22934   3.383   6.676   7.001  1.5753  0.2873 -2.6127
  170MOL0     H22935   3.560   6.832   6.978 -0.5434  1.4785 -2.0358
  170MOL0     H22936   3.574   7.238   7.324  0.3919 -3.0920 -1.2949
  170MOL0     H22937   3.718   7.416   7.439  2.7617 -1.3821  2.4951
  170MOL0     H22938   4.159   7.428   7.330 -1.6173  1.5290 -1.2130
  170MOL0     H22939   4.122   7.360   7.489 -1.8585  1.5925  0.6992
  170MOL0     H22940   4.260   7.550   7.528  0.2311 -1.7830  3.4977
  170MOL0     H22941   4.104   7.580   7.605  0.5594  1.3970 -0.0550
  170MOL0     H22942   4.195   7.764   7.487 -0.7164  0.7272 -0.7703
  170MOL0     H22943   4.029   7.717   7.429 -1.4356 -3.2181  2.5238
  170MOL0     H22944   4.291   7.645   7.261 -0.3933 -0.9248  0.8406
  170MOL0     H22945   4.113   7.638   7.217 -1.9106  5.1487 -1.6088
  170MOL0     H22946   4.233   8.031   7.157 -1.6300  0.1581  1.6984
  170MOL0     H22947   4.054   7.282   7.203  0.9908 -3.0015 -1.1095
  170MOL0     H22948   4.055   7.074   7.108  0.9299 -4.4511  1.0050
  170MOL0     H22949   3.938   6.976   7.184  3.7441  1.3966  1.7286
  170MOL0     H22950   3.912   7.032   7.015  2.3573 -0.8049 -0.6622
  171MOL0     O22951   0.162   4.021   7.727  0.5322  0.0837  0.3003
  171MOL0     C22952   0.177   3.915   7.667 -1.0680 -0.3794 -0.2282
  171MOL0     O22953   0.230   3.804   7.726 -0.8399 -0.0464  0.6348
  171MOL0     C22954   0.307   3.808   7.842  0.0101 -0.4358  0.1618
  171MOL0     C22955   0.381   3.916   7.883 -0.4354  0.3426  0.4745
  171MOL0     C22956   0.471   3.918   7.990  0.2539  0.1670  0.4146
  171MOL0     C22957   0.493   3.801   8.054  0.4836 -0.1261 -0.5029
  171MOL0     O22958   0.578   3.805   8.161 -0.4910 -0.7174  0.4161
  171MOL0     C22959   0.646   3.682   8.177 -0.7577  0.0597  0.8167
  171MOL0     C22960   0.789   3.715   8.226  0.6383  0.9548 -0.4596
  171MOL0     C22961   0.772   3.729   8.379  0.2276  0.7680 -0.1593
  171MOL0     C22962   0.892   3.814   8.445 -0.2768  0.0633  0.1688
  171MOL0     C22963   1.027   3.749   8.443  0.2012 -0.3626 -0.3863
  171MOL0     C22964   1.042   3.633   8.537 -0.1466 -0.6842 -0.5765
  171MOL0     C22965   0.996   3.639   8.684 -0.4350  0.4160  0.0442
  171MOL0     C22966   1.066   3.745   8.778  0.6210 -0.4531  0.3887
  171MOL0     N22967   1.202   3.695   8.807  0.8016 -0.0666  0.3443
  171MOL0     C22968   1.313   3.727   8.736 -0.3612 -0.1676 -0.5009
  171MOL0     C22969   1.401   3.626   8.774  0.3016  0.2575 -0.3802
  171MOL0     C22970   1.538   3.604   8.721 -0.7465 -0.0797  0.9250
  171MOL0     C22971   1.634   3.702   8.788 -0.5784 -0.3180  0.3285
  171MOL0     C22972   1.782   3.712   8.723 -0.1512  0.1969 -0.7649
  171MOL0     C22973   1.863   3.585   8.740 -0.0666  0.4321 -0.1181
  171MOL0     O22974   1.932   3.575   8.864 -0.8757  0.1747 -1.0517
  171MOL0     C22975   2.052   3.516   8.877 -0.2702  0.0256  0.0553
  171MOL0     C22976   2.161   3.587   8.935  0.2620  1.1017 -0.2330
  171MOL0     C22977   2.280   3.525   8.937 -0.5516 -0.2779  0.6057
  171MOL0     C22978   2.302   3.401   8.874 -0.3464 -0.0357 -1.5291
  171MOL0     C22979   2.432   3.347   8.863 -0.1673  0.8979  1.4071
  171MOL0     O22980   2.540   3.434   8.890 -0.2590 -0.1708 -0.2514
  171MOL0     C22981   2.664   3.389   8.863  0.2905 -0.1145 -0.2996
  171MOL0     C22982   2.703   3.295   8.763 -0.8398  0.3578 -0.1520
  171MOL0     C22983   2.837   3.259   8.745 -0.1588 -0.9011 -0.4969
  171MOL0     C22984   2.933   3.302   8.835 -0.4776 -0.4241 -0.0385
  171MOL0     O22985   3.063   3.260   8.822  0.2887 -0.3617 -0.4019
  171MOL0     C22986   3.152   3.255   8.932 -0.1046 -0.8805 -1.3103
  171MOL0     C22987   3.279   3.167   8.902  1.0064  0.8194 -0.4390
  171MOL0     C22988   3.390   3.231   8.823 -0.6850  0.2047  0.9084
  171MOL0     C22989   3.521   3.158   8.837  0.0599  0.5733  0.6345
  171MOL0     C22990   3.639   3.196   8.744  0.0735 -0.3023 -0.2757
  171MOL0     C22991   3.761   3.108   8.762 -0.4264  0.8240  0.5130
  171MOL0     C22992   3.835   3.077   8.632 -0.4084 -0.5435  0.3138
  171MOL0     C22993   3.980   3.029   8.645  0.4563  0.3923 -0.5651
  171MOL0    Cl22994   4.072   3.040   8.501 -0.4227  0.3727  0.6033
  171MOL0     C22995   2.895   3.387   8.949  0.0439 -0.0471 -0.5969
  171MOL0     C22996   2.759   3.433   8.960  0.0340 -0.6688  0.4480
  171MOL0     O22997   2.436   3.228   8.836 -0.6977 -0.3621  0.5540
  171MOL0     C22998   2.189   3.336   8.829 -0.9027  0.0562 -0.2430
  171MOL0     C22999   2.065   3.378   8.842  0.0624 -0.0199  0.2055
  171MOL0     N23000   1.337   3.540   8.863  0.2365 -0.4374  0.3248
  171MOL0     N23001   1.222   3.586   8.889  0.6286 -0.2347  0.2671
  171MOL0     C23002   0.406   3.690   8.025 -0.7215 -0.3039  0.1576
  171MOL0     C23003   0.312   3.695   7.925 -0.2664 -0.4087 -0.5050
  171MOL0     C23004   0.114   3.899   7.529  0.4886 -0.1495  0.5689
  171MOL0     C23005   0.086   3.771   7.485 -1.0009 -0.4329  0.5279
  171MOL0     C23006   0.030   3.749   7.359 -0.4683  0.3107  0.5408
  171MOL0     C23007  -0.004   3.845   7.271  0.7589  0.0461  0.3656
  171MOL0     O23008  -0.073   3.809   7.149 -0.2025 -0.1236 -0.4196
  171MOL0     C23009  -0.203   3.875   7.142  0.3996  0.2095  0.7818
  171MOL0     C23010  -0.301   3.783   7.049 -0.5674  0.0655 -0.2364
  171MOL0     C23011  -0.461   3.808   7.053 -0.2233 -0.5688  0.0994
  171MOL0     C23012  -0.513   3.855   6.911  0.2707  0.0314 -0.3386
  171MOL0     C23013  -0.659   3.899   6.938 -0.4530  0.4881 -0.3691
  171MOL0     C23014  -0.768   3.921   6.980 -0.5153  1.0944  0.3530
  171MOL0     C23015   0.025   3.977   7.307 -0.3793  0.4002  0.2079
  171MOL0     C23016   0.088   4.011   7.439 -0.2700  0.7417 -0.4106
  171MOL0     C23017   0.113   4.159   7.472 -0.1008  0.8213 -0.2215
  171MOL0     H23018   0.371   4.007   7.825  1.0529 -0.1194 -0.5877
  171MOL0     H23019   0.529   4.005   8.019  4.3264 -1.8154 -1.0224
  171MOL0     H23020   0.591   3.623   8.252 -1.3066  0.2770  0.5927
  171MOL0     H23021   0.654   3.617   8.090 -0.0468 -1.6547  2.1025
  171MOL0     H23022   0.826   3.805   8.177 -0.8044  0.8640 -1.8016
  171MOL0     H23023   0.859   3.634   8.204  0.7578 -0.7724  4.8670
  171MOL0     H23024   0.778   3.630   8.426  1.6558  0.6088 -0.6107
  171MOL0     H23025   0.677   3.778   8.403 -0.0305  0.5101 -0.6371
  171MOL0     H23026   0.892   3.913   8.398 -3.7960 -0.0489 -0.3085
  171MOL0     H23027   0.861   3.832   8.548 -0.0189 -0.8218  0.4137
  171MOL0     H23028   1.059   3.711   8.345 -1.5767 -0.8155 -0.8185
  171MOL0     H23029   1.095   3.828   8.477  0.7714 -0.1949 -1.8127
  171MOL0     H23030   0.990   3.543   8.502 -1.5505  0.7112 -2.3204
  171MOL0     H23031   1.149   3.616   8.528 -0.0110  0.5290 -1.6393
  171MOL0     H23032   1.007   3.536   8.719 -1.2953 -0.3283 -1.7436
  171MOL0     H23033   0.887   3.647   8.694 -0.8781 -2.6871 -1.1418
  171MOL0     H23034   1.060   3.838   8.721 -0.4482  0.4138  1.8455
  171MOL0     H23035   1.007   3.760   8.868 -0.7188  0.5466 -0.6188
  171MOL0     H23036   1.332   3.811   8.671  0.1971  2.5822  2.9467
  171MOL0     H23037   1.572   3.500   8.730 -1.5621 -0.3259  1.2666
  171MOL0     H23038   1.534   3.625   8.614  0.1700  0.7236  1.0300
  171MOL0     H23039   1.590   3.799   8.763  0.2085  0.0084  0.1860
  171MOL0     H23040   1.638   3.672   8.893  0.1982  1.2618  0.7815
  171MOL0     H23041   1.844   3.786   8.774 -0.2082  0.9404 -1.7379
  171MOL0     H23042   1.773   3.740   8.618  2.4730  1.5054 -0.7168
  171MOL0     H23043   1.944   3.574   8.668  1.5326 -0.2025  1.6924
  171MOL0     H23044   1.799   3.497   8.729  1.0501 -0.7977  2.5454
  171MOL0     H23045   2.149   3.692   8.961  0.9182  1.0935  0.1264
  171MOL0     H23046   2.368   3.557   8.991 -1.5068  0.1199  2.0014
  171MOL0     H23047   2.628   3.273   8.688 -1.5259 -2.5005  1.2361
  171MOL0     H23048   2.862   3.202   8.656 -2.1560 -0.8631 -1.1373
  171MOL0     H23049   3.183   3.360   8.934 -1.4261 -0.4836 -0.7666
  171MOL0     H23050   3.102   3.223   9.023  0.8990  2.3097  0.5273
  171MOL0     H23051   3.322   3.146   9.001  2.9507 -0.7608 -1.5637
  171MOL0     H23052   3.252   3.071   8.859 -0.8421  0.5748  1.1517
  171MOL0     H23053   3.363   3.228   8.717 -0.6449 -1.6324  0.9065
  171MOL0     H23054   3.408   3.336   8.847 -0.2585  0.1734  0.7461
  171MOL0     H23055   3.502   3.052   8.818  0.0705  0.4362  1.3655
  171MOL0     H23056   3.555   3.178   8.939  0.6047  0.3283  0.5082
  171MOL0     H23057   3.667   3.300   8.761  1.6100 -0.8756  0.8600
  171MOL0     H23058   3.606   3.189   8.640 -0.2497 -3.2267 -0.0703
  171MOL0     H23059   3.826   3.160   8.832 -0.9558 -0.3706  1.9299
  171MOL0     H23060   3.726   3.012   8.802  1.5878 -0.1882 -0.0012
  171MOL0     H23061   3.828   3.166   8.568  1.6442 -0.2138  0.4835
  171MOL0     H23062   3.786   2.994   8.581  1.6018 -1.5197 -0.1194
  171MOL0     H23063   4.025   3.099   8.716  2.5889 -0.6637 -0.8214
  171MOL0     H23064   3.993   2.934   8.698  2.1217  0.6049 -0.5654
  171MOL0     H23065   2.975   3.414   9.017  0.2852  0.7226 -1.1820
  171MOL0     H23066   2.727   3.487   9.049 -4.2511 -1.0287 -0.6262
  171MOL0     H23067   2.200   3.235   8.790  1.2988 -0.7909  2.2700
  171MOL0     H23068   1.983   3.311   8.820  1.3494 -3.2545  3.9837
  171MOL0     H23069   0.415   3.595   8.077  2.1156  1.0749  2.4929
  171MOL0     H23070   0.244   3.611   7.911  1.5980 -1.7501 -2.2180
  171MOL0     H23071   0.108   3.692   7.556  0.0111 -0.5888  0.0550
  171MOL0     H23072   0.011   3.651   7.316 -2.3085  0.5122  0.8444
  171MOL0     H23073  -0.193   3.975   7.100  3.5138 -0.4306 -0.2600
  171MOL0     H23074  -0.247   3.897   7.240  0.2884  1.1119  0.5346
  171MOL0     H23075  -0.278   3.684   7.088 -2.4910 -1.5900 -2.9111
  171MOL0     H23076  -0.271   3.788   6.943 -0.4471 -0.0339 -0.2073
  171MOL0     H23077  -0.479   3.889   7.124  0.7062  0.7291 -1.0974
  171MOL0     H23078  -0.514   3.720   7.093 -0.4399  0.0852  1.3143
  171MOL0     H23079  -0.450   3.932   6.865  0.2835 -0.0802 -0.5086
  171MOL0     H23080  -0.515   3.775   6.837  0.3122 -2.4516  2.1824
  171MOL0     H23081  -0.867   3.936   7.018 -0.0739 -1.6677  3.0445
  171MOL0     H23082  -0.001   4.064   7.247 -0.1947  1.0735  1.0729
  171MOL0     H23083   0.037   4.192   7.544  0.2425 -0.1004  0.5858
  171MOL0     H23084   0.207   4.175   7.526 -0.3595 -1.3958  1.0070
  171MOL0     H23085   0.111   4.226   7.385 -1.7025 -0.6839 -1.4158
  172MOL0     O23086   0.503   0.759   7.765 -0.0227 -0.2636 -0.5910
  172MOL0     C23087   0.534   0.863   7.705  0.5578  0.2205  0.0962
  172MOL0     O23088   0.650   0.894   7.661 -0.9003  0.5213  0.5108
  172MOL0     C23089   0.746   0.796   7.642  0.1466 -0.0139  0.3881
  172MOL0     C23090   0.829   0.779   7.754 -0.3240 -0.2036  0.2672
  172MOL0     C23091   0.947   0.699   7.744  0.9024  0.1435 -0.7575
  172MOL0     C23092   0.976   0.638   7.612  0.4915 -0.3460 -0.0775
  172MOL0     O23093   1.084   0.564   7.585 -0.0668  0.7506  0.4731
  172MOL0     C23094   1.200   0.569   7.666 -0.0455  0.2656 -0.3399
  172MOL0     C23095   1.327   0.533   7.586  0.7386  0.1157 -0.2391
  172MOL0     C23096   1.445   0.536   7.674 -0.0414  0.6054  0.4630
  172MOL0     C23097   1.577   0.519   7.606  0.6359 -0.9265 -0.2650
  172MOL0     C23098   1.695   0.480   7.687  0.6297 -0.3618  0.4201
  172MOL0     C23099   1.735   0.585   7.787 -0.2406  0.2145  0.0193
  172MOL0     C23100   1.866   0.537   7.846 -0.7341  0.5173  0.2480
  172MOL0     C23101   1.904   0.617   7.959 -1.1572 -0.0747 -1.1383
  172MOL0     N23102   2.010   0.552   8.039  0.5679  0.1549 -0.6407
  172MOL0     C23103   2.102   0.624   8.111  0.0542 -0.5738  0.2113
  172MOL0     C23104   2.156   0.544   8.196 -0.2662  0.8135 -0.6005
  172MOL0     C23105   2.264   0.571   8.294 -0.5391 -1.1050 -0.3135
  172MOL0     C23106   2.403   0.530   8.254  0.5278  0.2643 -0.1980
  172MOL0     C23107   2.488   0.538   8.383  1.0845  0.0590 -1.1785
  172MOL0     C23108   2.615   0.469   8.364  0.4094 -0.8265  0.7805
  172MOL0     O23109   2.706   0.541   8.274  0.4152  0.1195  0.4637
  172MOL0     C23110   2.803   0.470   8.208  0.4700 -0.2159 -0.1404
  172MOL0     C23111   2.847   0.505   8.087  0.4310  0.9183  0.8137
  172MOL0     C23112   2.951   0.441   8.019 -1.0342  0.4825 -0.3479
  172MOL0     C23113   3.027   0.345   8.096  0.6890 -0.0185 -0.5690
  172MOL0     C23114   3.166   0.307   8.060 -1.1483 -0.4470 -0.2976
  172MOL0     O23115   3.218   0.196   8.141  0.5170  0.4423 -0.7963
  172MOL0     C23116   3.346   0.159   8.127 -1.1144  0.1500  0.0838
  172MOL0     C23117   3.452   0.245   8.108 -0.3873 -0.8104  0.5728
  172MOL0     C23118   3.588   0.190   8.098  0.8044 -0.2773 -0.0404
  172MOL0     C23119   3.610   0.055   8.123 -0.3492 -0.0454  1.0707
  172MOL0     O23120   3.732  -0.013   8.141 -0.3338 -0.6914 -0.6597
  172MOL0     C23121   3.851   0.066   8.151  0.4328 -0.9597 -0.4778
  172MOL0     C23122   3.958  -0.015   8.219 -0.9458 -0.4673  0.2909
  172MOL0     C23123   4.043  -0.083   8.114  0.6218 -1.7320  0.0604
  172MOL0     C23124   4.153  -0.146   8.178 -0.1730 -1.4032 -0.5172
  172MOL0     C23125   4.197  -0.274   8.108  0.7504  0.9685 -0.4935
  172MOL0     C23126   4.330  -0.327   8.182 -0.0309  0.7035  0.4430
  172MOL0     C23127   4.392  -0.451   8.116  0.3616 -0.1598 -0.2834
  172MOL0     C23128   4.421  -0.438   7.958 -0.4572 -0.0753  0.3867
  172MOL0    Cl23129   4.567  -0.340   7.932  0.0751  0.1631  0.1832
  172MOL0     C23130   3.494  -0.030   8.150 -0.3834 -0.8313  0.1905
  172MOL0     C23131   3.369   0.021   8.147 -0.6460 -0.7598 -0.5856
  172MOL0     O23132   3.224   0.362   7.964  0.0169 -0.1947 -0.5384
  172MOL0     C23133   2.969   0.291   8.207 -0.0276  1.5206 -0.2146
  172MOL0     C23134   2.851   0.347   8.268  0.0555 -0.6033  0.0085
  172MOL0     N23135   2.095   0.421   8.181 -0.7649  0.0321 -0.2851
  172MOL0     N23136   2.015   0.429   8.089  0.2672  0.4975  0.2280
  172MOL0     C23137   0.882   0.655   7.508 -0.3490  0.6626  0.4873
  172MOL0     C23138   0.775   0.740   7.513 -0.3587  0.4470  0.1520
  172MOL0     C23139   0.426   0.957   7.659  0.1025  0.1485 -0.3997
  172MOL0     C23140   0.468   1.050   7.559  0.0383 -1.2778 -0.8310
  172MOL0     C23141   0.372   1.134   7.509 -0.2428 -0.1612 -0.5943
  172MOL0     C23142   0.241   1.131   7.548  0.0952 -0.5238 -0.0232
  172MOL0     O23143   0.151   1.214   7.482 -0.0323  0.6789 -0.3959
  172MOL0     C23144   0.012   1.228   7.537 -0.9375  0.3041  0.3873
  172MOL0     C23145  -0.036   1.363   7.473 -0.4174  0.3985  0.3533
  172MOL0     C23146  -0.167   1.411   7.530 -0.5696 -0.6234 -0.0860
  172MOL0     C23147  -0.224   1.546   7.479  0.0108  0.6817 -0.6308
  172MOL0     C23148  -0.369   1.563   7.507 -0.1418 -0.7501  0.5094
  172MOL0     C23149  -0.488   1.565   7.501 -0.2338  0.5086  0.1165
  172MOL0     C23150   0.203   1.034   7.641  0.8379 -0.0463  0.4264
  172MOL0     C23151   0.287   0.938   7.686 -0.7973  0.2791  0.1184
  172MOL0     C23152   0.226   0.825   7.777  0.2217 -0.1320 -0.0238
  172MOL0     H23153   0.802   0.822   7.850  0.2795 -0.4293  0.5387
  172MOL0     H23154   1.007   0.677   7.832 -2.3464  2.8148  2.3858
  172MOL0     H23155   1.212   0.671   7.703 -1.6427  0.2465  0.3056
  172MOL0     H23156   1.189   0.498   7.749 -2.0447 -2.0578 -2.4061
  172MOL0     H23157   1.335   0.601   7.501  0.1783  1.9877  1.1102
  172MOL0     H23158   1.313   0.428   7.559 -0.2332 -0.0193  0.6793
  172MOL0     H23159   1.429   0.457   7.748 -0.6232 -0.3193 -0.6271
  172MOL0     H23160   1.445   0.626   7.736  0.5074  0.6712  0.3738
  172MOL0     H23161   1.547   0.444   7.531 -0.0750  2.3387 -3.5687
  172MOL0     H23162   1.588   0.612   7.549 -0.4619 -0.8512 -0.3879
  172MOL0     H23163   1.676   0.385   7.738  0.6286 -0.3872  0.3713
  172MOL0     H23164   1.777   0.452   7.621  0.5894 -1.8574  0.9568
  172MOL0     H23165   1.756   0.678   7.734  0.5676 -0.9678 -1.8359
  172MOL0     H23166   1.660   0.608   7.863  3.3298  3.9038  2.9072
  172MOL0     H23167   1.946   0.551   7.773 -1.7893  1.3602 -0.7925
  172MOL0     H23168   1.864   0.434   7.881  1.0469  1.0368  2.0672
  172MOL0     H23169   1.953   0.712   7.937  4.0728 -1.0309  3.9078
  172MOL0     H23170   1.819   0.632   8.026  0.0511 -0.6013  0.6222
  172MOL0     H23171   2.131   0.729   8.108  3.1986 -1.0624  4.5399
  172MOL0     H23172   2.250   0.677   8.320 -1.7334 -0.9284 -1.5560
  172MOL0     H23173   2.236   0.502   8.374 -1.2566 -1.4224 -0.8325
  172MOL0     H23174   2.394   0.427   8.218  0.7401  1.3734 -3.7631
  172MOL0     H23175   2.444   0.600   8.180 -1.1092  2.8951  1.2143
  172MOL0     H23176   2.448   0.488   8.472  2.1911  0.2011 -0.5843
  172MOL0     H23177   2.503   0.645   8.401  0.0458 -0.1364  1.2075
  172MOL0     H23178   2.597   0.368   8.326  2.6474  0.7806 -5.8552
  172MOL0     H23179   2.672   0.469   8.458  1.2040  2.0005  0.4091
  172MOL0     H23180   2.806   0.583   8.022  2.6317  1.8397  0.4559
  172MOL0     H23181   3.001   0.478   7.930  0.0498 -1.3056 -0.5308
  172MOL0     H23182   3.434   0.352   8.102  1.9578 -0.3179  1.3529
  172MOL0     H23183   3.664   0.265   8.080  1.4310 -1.4783 -2.9187
  172MOL0     H23184   3.890   0.109   8.058  1.1458  2.4945  1.2588
  172MOL0     H23185   3.845   0.150   8.221  0.0416 -0.3738 -1.2003
  172MOL0     H23186   4.022   0.037   8.291  0.9821 -3.9013  1.2691
  172MOL0     H23187   3.912  -0.095   8.277  1.4913 -1.7570  0.5931
  172MOL0     H23188   3.975  -0.149   8.060 -3.2654  1.7452  0.2511
  172MOL0     H23189   4.069  -0.006   8.041 -3.2004 -1.1575 -0.9267
  172MOL0     H23190   4.128  -0.168   8.282  1.3708  2.4734  0.8923
  172MOL0     H23191   4.242  -0.083   8.193  0.1748 -2.0584  0.2416
  172MOL0     H23192   4.225  -0.243   8.007 -1.5807  2.6979 -0.6795
  172MOL0     H23193   4.120  -0.350   8.120  2.1673 -0.6323 -1.0953
  172MOL0     H23194   4.405  -0.248   8.184  0.6954  0.0344  0.1685
  172MOL0     H23195   4.306  -0.354   8.285  1.0879 -0.7802  0.3506
  172MOL0     H23196   4.330  -0.535   8.147 -1.1830  1.0698  0.1013
  172MOL0     H23197   4.485  -0.466   8.172 -0.5270  0.0379  1.2812
  172MOL0     H23198   4.445  -0.529   7.902 -0.9268 -0.6964  1.1637
  172MOL0     H23199   4.338  -0.387   7.908 -0.5564 -0.7227 -0.1195
  172MOL0     H23200   3.511  -0.134   8.174 -1.0869 -1.0988 -0.4377
  172MOL0     H23201   3.287  -0.045   8.174 -0.9320 -1.3442 -2.7054
  172MOL0     H23202   3.008   0.197   8.244 -1.2711  0.0209 -2.4647
  172MOL0     H23203   2.811   0.310   8.362 -1.6563  1.7203  0.3010
  172MOL0     H23204   0.890   0.609   7.409 -0.1971 -0.1691  0.8717
  172MOL0     H23205   0.719   0.776   7.428  1.4718  0.9459 -0.8944
  172MOL0     H23206   0.567   1.054   7.515  1.2395 -2.4378  1.5604
  172MOL0     H23207   0.391   1.210   7.433 -1.9300  1.0030  0.0839
  172MOL0     H23208   0.022   1.225   7.646 -2.6589  1.7570  0.6122
  172MOL0     H23209  -0.053   1.146   7.506  0.9449 -0.6484 -1.3184
  172MOL0     H23210  -0.051   1.345   7.367 -1.5659  1.6225  0.2778
  172MOL0     H23211   0.036   1.444   7.489  0.3295 -0.1411 -0.2196
  172MOL0     H23212  -0.162   1.418   7.639 -1.4913  1.9911 -0.1553
  172MOL0     H23213  -0.238   1.330   7.510 -0.8193 -0.2294 -0.8480
  172MOL0     H23214  -0.182   1.625   7.541  0.1888  1.3883 -1.6298
  172MOL0     H23215  -0.196   1.572   7.377  2.1858  1.1121  0.0336
  172MOL0     H23216  -0.595   1.567   7.499 -0.2654  2.4486 -2.8248
  172MOL0     H23217   0.098   1.008   7.643  1.2671 -1.9684 -0.6279
  172MOL0     H23218   0.290   0.783   7.855 -1.4554 -0.9366  0.9676
  172MOL0     H23219   0.140   0.862   7.832 -1.6209 -3.3553 -0.4673
  172MOL0     H23220   0.176   0.754   7.711 -1.4140  0.0677  0.9665
  173MOL0     O23221   2.954   5.018   6.986  0.4197 -0.4121 -0.4335
  173MOL0     C23222   2.944   5.093   7.085 -0.7990  0.6056  0.4133
  173MOL0     O23223   3.026   5.079   7.199  0.4673  0.2600 -0.2105
  173MOL0     C23224   3.131   4.991   7.200 -0.3550 -0.0018  0.6395
  173MOL0     C23225   3.228   4.971   7.102 -0.2324  0.2563 -0.3604
  173MOL0     C23226   3.328   4.872   7.115 -0.0520 -0.0593 -0.5967
  173MOL0     C23227   3.330   4.792   7.226  0.2047  0.3880 -0.5671
  173MOL0     O23228   3.439   4.705   7.241 -0.5454 -0.6156 -0.0559
  173MOL0     C23229   3.560   4.786   7.274  0.0475  1.1449  0.4970
  173MOL0     C23230   3.665   4.683   7.340  0.0244 -0.7766  0.0024
  173MOL0     C23231   3.779   4.773   7.386 -0.0652  0.3223  0.1298
  173MOL0     C23232   3.911   4.710   7.416 -0.4423 -0.3142  0.0719
  173MOL0     C23233   4.017   4.812   7.430  0.1065 -0.7825  0.2268
  173MOL0     C23234   4.162   4.757   7.474  0.4171  0.3120 -0.4254
  173MOL0     C23235   4.168   4.757   7.632  1.0104  0.6304  0.1213
  173MOL0     C23236   4.152   4.891   7.703 -0.3850 -0.3434 -1.2724
  173MOL0     N23237   4.043   4.895   7.804  0.0815 -0.0939  0.0997
  173MOL0     C23238   4.067   4.910   7.940  1.1434  0.3710  0.1023
  173MOL0     C23239   3.951   4.961   7.988  0.7278 -0.5373 -0.7219
  173MOL0     C23240   3.925   4.993   8.135  0.1502  0.7618 -0.5096
  173MOL0     C23241   3.797   5.077   8.139  0.1202  0.0271  0.4382
  173MOL0     C23242   3.787   5.154   8.267  0.2531  0.1905 -0.5819
  173MOL0     C23243   3.801   5.065   8.400  0.4853 -0.5606 -0.3573
  173MOL0     O23244   3.737   5.139   8.508  0.6059  0.1073  0.0970
  173MOL0     C23245   3.814   5.222   8.580  0.9777  1.3209  0.1014
  173MOL0     C23246   3.947   5.262   8.557  0.7111 -0.0647  0.2986
  173MOL0     C23247   4.031   5.337   8.640 -0.0123 -0.4769 -0.1292
  173MOL0     C23248   3.973   5.370   8.768  0.0522  1.4446 -0.6368
  173MOL0     C23249   4.048   5.448   8.869  0.0277 -0.0997  0.8725
  173MOL0     O23250   4.153   5.527   8.824  0.2194  0.0665  0.0959
  173MOL0     C23251   4.241   5.594   8.915 -0.4178 -0.0739  0.1135
  173MOL0     C23252   4.316   5.512   9.002 -0.2225 -0.7726  0.7298
  173MOL0     C23253   4.411   5.570   9.087  0.0376  1.1747 -0.9845
  173MOL0     C23254   4.451   5.700   9.077 -0.0502  0.1440  0.2422
  173MOL0     O23255   4.548   5.741   9.163 -0.1885 -0.3013 -0.1859
  173MOL0     C23256   4.682   5.700   9.129 -0.3513  0.2074 -0.1324
  173MOL0     C23257   4.754   5.649   9.253  0.3182  0.1491  0.4689
  173MOL0     C23258   4.873   5.556   9.225  1.0812  0.5073  0.5166
  173MOL0     C23259   5.007   5.634   9.250 -0.0172  0.0002  0.4270
  173MOL0     C23260   5.117   5.530   9.233 -0.3938  0.1553  0.1134
  173MOL0     C23261   5.242   5.572   9.317  0.5915  0.5411  0.2188
  173MOL0     C23262   5.317   5.701   9.267  0.8830 -0.5671 -0.6575
  173MOL0     C23263   5.361   5.796   9.381  0.2925 -0.0512 -0.5546
  173MOL0    Cl23264   5.492   5.715   9.488 -0.4280 -0.0251  0.6538
  173MOL0     C23265   4.375   5.784   8.992  0.4766 -0.5086 -0.2450
  173MOL0     C23266   4.281   5.726   8.891  0.4071  0.2722 -0.9639
  173MOL0     O23267   4.008   5.450   8.980  0.4047 -0.0367 -0.6278
  173MOL0     C23268   3.843   5.321   8.797  0.2557 -0.0386  0.8549
  173MOL0     C23269   3.764   5.250   8.705 -1.0068  0.0660 -0.6408
  173MOL0     N23270   3.865   4.985   7.876  0.3068 -0.2556 -0.4370
  173MOL0     N23271   3.914   4.934   7.769 -0.3310 -0.5658 -0.1345
  173MOL0     C23272   3.246   4.816   7.330  1.7620 -0.3615 -0.1461
  173MOL0     C23273   3.149   4.919   7.321 -1.2150 -0.7700 -0.5822
  173MOL0     C23274   2.831   5.197   7.082 -0.8302  0.6902  0.1475
  173MOL0     C23275   2.836   5.299   7.188  0.6954  0.8681 -0.5777
  173MOL0     C23276   2.756   5.408   7.179  0.1097 -0.8420 -0.0456
  173MOL0     C23277   2.662   5.430   7.082  0.0343 -0.3940 -0.2694
  173MOL0     O23278   2.593   5.543   7.064  0.4227  0.1228  0.3389
  173MOL0     C23279   2.562   5.617   7.183 -0.0957  0.4761  0.5440
  173MOL0     C23280   2.464   5.733   7.156  0.1691  0.0555 -0.4029
  173MOL0     C23281   2.369   5.726   7.030  0.6262  0.6022 -0.0104
  173MOL0     C23282   2.292   5.852   7.000 -0.8013  0.7888 -0.5683
  173MOL0     C23283   2.195   5.883   7.102 -0.0750  0.0921  0.6299
  173MOL0     C23284   2.109   5.917   7.179 -0.4602  0.4354 -0.6872
  173MOL0     C23285   2.650   5.330   6.984  0.0337  0.1466 -0.7749
  173MOL0     C23286   2.732   5.221   6.979  0.0733  0.7418  0.1470
  173MOL0     C23287   2.723   5.141   6.858 -0.5303  0.3502  0.4801
  173MOL0     H23288   3.224   5.032   7.012 -2.2249  0.2784 -0.2850
  173MOL0     H23289   3.397   4.866   7.031 -0.7702 -1.0052 -1.1306
  173MOL0     H23290   3.593   4.850   7.192  0.5120  1.1346  0.6749
  173MOL0     H23291   3.535   4.850   7.359  1.8886  2.8257 -0.1419
  173MOL0     H23292   3.701   4.603   7.273  0.1205 -1.2456  0.6071
  173MOL0     H23293   3.619   4.643   7.430  2.1045  0.8181  1.8697
  173MOL0     H23294   3.749   4.829   7.475 -0.5320  2.3253 -1.2166
  173MOL0     H23295   3.792   4.845   7.305 -0.3672 -0.3130 -0.4929
  173MOL0     H23296   3.911   4.656   7.511 -2.2283  1.9325  1.4650
  173MOL0     H23297   3.948   4.651   7.331  1.8798  1.3220 -0.1498
  173MOL0     H23298   4.021   4.859   7.331 -1.4636 -1.4984 -0.2022
  173MOL0     H23299   3.987   4.881   7.510 -0.8934 -0.8639 -0.0601
  173MOL0     H23300   4.181   4.663   7.421  0.3968  0.5795 -0.9073
  173MOL0     H23301   4.242   4.825   7.445  0.0664 -0.4096 -3.3738
  173MOL0     H23302   4.264   4.717   7.665 -0.0246 -1.7517  0.3967
  173MOL0     H23303   4.094   4.685   7.667  0.8117  1.0844  0.6490
  173MOL0     H23304   4.242   4.912   7.761 -1.9983 -0.7486  1.5631
  173MOL0     H23305   4.142   4.978   7.636 -2.6257  0.7868  0.3752
  173MOL0     H23306   4.162   4.901   7.991  0.2864  0.0203  1.6787
  173MOL0     H23307   3.912   4.902   8.194 -0.5487  2.4794  2.1799
  173MOL0     H23308   4.006   5.045   8.188  0.9734 -0.7358 -0.2454
  173MOL0     H23309   3.801   5.155   8.062 -4.5034  0.7282  0.6697
  173MOL0     H23310   3.719   5.003   8.122  1.2118 -1.7151  2.5480
  173MOL0     H23311   3.689   5.203   8.271  0.2768  0.1844  2.7681
  173MOL0     H23312   3.859   5.237   8.264  0.8366 -0.2703  0.3664
  173MOL0     H23313   3.908   5.052   8.420  0.7748 -0.1242 -1.5096
  173MOL0     H23314   3.751   4.969   8.392 -2.8817  1.0133  0.0731
  173MOL0     H23315   3.983   5.248   8.455 -0.4752 -1.0733 -0.0073
  173MOL0     H23316   4.129   5.369   8.607  1.0194 -1.5200  1.7505
  173MOL0     H23317   4.286   5.409   9.013  0.2833 -0.8646  1.2875
  173MOL0     H23318   4.461   5.497   9.149  0.9967  0.6261 -2.3528
  173MOL0     H23319   4.687   5.617   9.059  2.2712  1.1280 -1.1342
  173MOL0     H23320   4.745   5.780   9.089  1.0898 -1.8362 -2.1544
  173MOL0     H23321   4.782   5.731   9.320 -2.0563 -1.4669  3.7372
  173MOL0     H23322   4.685   5.591   9.315 -1.2421  1.1939 -0.1904
  173MOL0     H23323   4.869   5.468   9.289  1.4983 -1.8898 -2.5373
  173MOL0     H23324   4.874   5.522   9.122 -3.6121  1.2857 -0.0151
  173MOL0     H23325   4.995   5.661   9.355 -1.1140  1.9565 -0.1479
  173MOL0     H23326   5.010   5.726   9.191 -3.7052 -0.3971 -0.6140
  173MOL0     H23327   5.145   5.526   9.127  1.1949 -0.2514  0.5311
  173MOL0     H23328   5.099   5.426   9.264  0.1619  0.4801  1.5797
  173MOL0     H23329   5.212   5.596   9.420  1.2900 -0.6259  0.7161
  173MOL0     H23330   5.309   5.486   9.311 -0.2380 -0.0191 -2.9839
  173MOL0     H23331   5.252   5.770   9.212  0.8861  1.7180  2.0089
  173MOL0     H23332   5.396   5.677   9.196  0.1136  0.0208 -1.7517
  173MOL0     H23333   5.420   5.876   9.336  0.0206 -0.2708 -1.3172
  173MOL0     H23334   5.275   5.836   9.435  0.2746  0.9193 -1.2609
  173MOL0     H23335   4.383   5.892   9.002 -0.8080 -0.2328 -1.7304
  173MOL0     H23336   4.221   5.777   8.817 -2.1152 -0.6646  0.2966
  173MOL0     H23337   3.801   5.361   8.889  1.0886  1.5126  0.5884
  173MOL0     H23338   3.665   5.222   8.740 -0.8717 -1.0207 -1.0950
  173MOL0     H23339   3.257   4.752   7.418  4.0215  1.1090  0.7400
  173MOL0     H23340   3.084   4.943   7.404  0.2021  1.3733  0.0149
  173MOL0     H23341   2.917   5.304   7.260 -0.1914  1.1424  0.4237
  173MOL0     H23342   2.765   5.484   7.255  0.9562  0.4850 -1.4271
  173MOL0     H23343   2.654   5.659   7.224  1.2338 -1.4123 -0.3938
  173MOL0     H23344   2.520   5.549   7.257  2.1848 -1.0250  0.5322
  173MOL0     H23345   2.531   5.819   7.150 -0.5994  0.9300  2.1425
  173MOL0     H23346   2.395   5.754   7.238 -0.5011  0.1207 -0.9679
  173MOL0     H23347   2.320   5.629   7.034  1.4521  0.2174  2.9643
  173MOL0     H23348   2.441   5.712   6.948  0.1108 -2.7928 -0.0204
  173MOL0     H23349   2.354   5.941   6.995  0.6334  0.1663  3.0835
  173MOL0     H23350   2.233   5.847   6.908 -0.7683  0.5053 -0.5757
  173MOL0     H23351   2.029   5.935   7.248 -0.3078 -0.7503 -0.1690
  173MOL0     H23352   2.573   5.346   6.910  2.6883 -1.0800 -4.0396
  173MOL0     H23353   2.717   5.034   6.880  1.1984 -0.0867 -0.9551
  173MOL0     H23354   2.637   5.166   6.795 -0.8338  2.4420  1.6398
  173MOL0     H23355   2.813   5.155   6.797 -0.6649 -1.1063 -0.0943
  174MOL0     O23356   1.713  10.157  10.357  0.2948  0.1308  0.5751
  174MOL0     C23357   1.707  10.141  10.479  0.1055 -0.1514  0.5888
  174MOL0     O23358   1.806  10.159  10.568  0.0563 -0.1103  0.4886
  174MOL0     C23359   1.930  10.192  10.527  0.3838 -0.3173  0.3635
  174MOL0     C23360   2.003  10.137  10.419  0.8940  0.8075  0.5126
  174MOL0     C23361   2.134  10.174  10.379 -0.2692 -0.1912 -0.5345
  174MOL0     C23362   2.203  10.274  10.455  0.1912  0.3373  0.7295
  174MOL0     O23363   2.329  10.325  10.442 -0.3217  0.0532 -0.4506
  174MOL0     C23364   2.404  10.261  10.333  0.5244  0.5352 -0.8084
  174MOL0     C23365   2.453  10.130  10.384 -0.7522 -0.8664 -1.0057
  174MOL0     C23366   2.559  10.063  10.284  0.6617  0.5927  0.8918
  174MOL0     C23367   2.702  10.093  10.327 -0.3574  0.3344 -0.2916
  174MOL0     C23368   2.804  10.025  10.228 -0.0353  1.2071 -0.2484
  174MOL0     C23369   2.943  10.051  10.281  0.5104 -0.7335 -0.4970
  174MOL0     C23370   3.046   9.975  10.196  0.8824  0.4254  1.3459
  174MOL0     C23371   3.187  10.003  10.230 -0.2344  0.6611  0.2403
  174MOL0     N23372   3.277   9.918  10.145 -0.0259 -0.4160 -0.2874
  174MOL0     C23373   3.295   9.915  10.004 -0.7605 -0.2382  0.5314
  174MOL0     C23374   3.403   9.842   9.984  0.5232  0.0597  0.4658
  174MOL0     C23375   3.487   9.826   9.861 -0.1182  0.0510 -0.3078
  174MOL0     C23376   3.602   9.928   9.865  1.2764 -0.1065  0.4580
  174MOL0     C23377   3.700   9.917   9.748 -0.3546  0.5226  0.8186
  174MOL0     C23378   3.824   9.833   9.779  0.1601 -0.2553 -0.8204
  174MOL0     O23379   3.777   9.708   9.825 -1.0389 -0.6831 -0.0807
  174MOL0     C23380   3.872   9.602   9.854 -0.3284  0.2397 -0.7700
  174MOL0     C23381   4.014   9.623   9.853 -0.1802 -0.1522 -0.0285
  174MOL0     C23382   4.108   9.527   9.875  0.2188 -1.0676 -0.8128
  174MOL0     C23383   4.061   9.399   9.900 -0.2347  0.3256  0.2148
  174MOL0     C23384   4.150   9.275   9.922 -0.0668 -0.3709  0.3945
  174MOL0     O23385   4.277   9.310   9.935  0.2857  0.1308 -0.3608
  174MOL0     C23386   4.357   9.236  10.017 -0.6334 -0.1804 -0.4259
  174MOL0     C23387   4.403   9.292  10.132 -0.0527  0.3826  0.5476
  174MOL0     C23388   4.478   9.219  10.221 -0.3929  0.1117  0.5721
  174MOL0     C23389   4.511   9.086  10.198 -0.1493  0.1881  0.2738
  174MOL0     O23390   4.586   9.008  10.288 -0.4861 -0.0260  0.4434
  174MOL0     C23391   4.658   9.073  10.395  0.6032 -0.1813 -0.6377
  174MOL0     C23392   4.744   8.971  10.475  0.5280 -0.4850  0.3490
  174MOL0     C23393   4.863   8.898  10.407  0.8406  0.0845 -0.0674
  174MOL0     C23394   4.955   8.838  10.520 -0.6893  0.2950 -0.8235
  174MOL0     C23395   5.091   8.789  10.463 -0.1647  0.4375  0.0476
  174MOL0     C23396   5.194   8.901  10.440 -0.0607  0.7422  0.1231
  174MOL0     C23397   5.245   8.969  10.570 -0.3061  0.0363  0.4107
  174MOL0     C23398   5.290   8.873  10.671 -0.1035 -0.3596  0.0820
  174MOL0    Cl23399   5.407   8.757  10.605  0.0843 -0.1696 -0.2547
  174MOL0     C23400   4.462   9.024  10.075  0.3264  0.2960 -0.6899
  174MOL0     C23401   4.377   9.104   9.991  0.3115  0.1967  0.0846
  174MOL0     O23402   4.103   9.159   9.929 -0.1982  0.8146  0.1391
  174MOL0     C23403   3.924   9.375   9.902  0.0865  0.1780  0.1688
  174MOL0     C23404   3.830   9.474   9.885  0.1075 -0.1136  0.0074
  174MOL0     N23405   3.445   9.790  10.107  0.3628  0.0481 -0.4467
  174MOL0     N23406   3.368   9.827  10.199  0.1273  0.3829 -0.7589
  174MOL0     C23407   2.134  10.329  10.566 -1.1507 -0.5244  0.7698
  174MOL0     C23408   2.000  10.284  10.602 -0.4118  0.2726  0.4289
  174MOL0     C23409   1.587  10.085  10.538 -0.4045 -0.3616  0.4202
  174MOL0     C23410   1.604  10.027  10.664  0.3288  0.7757 -0.2183
  174MOL0     C23411   1.494   9.975  10.731  0.0808 -0.1920  0.3056
  174MOL0     C23412   1.370   9.977  10.666 -0.1610 -0.4202 -0.1447
  174MOL0     O23413   1.257   9.913  10.723 -0.0672  0.1768  0.2264
  174MOL0     C23414   1.243   9.888  10.861  0.4674 -0.3846 -0.1152
  174MOL0     C23415   1.091   9.861  10.893 -0.5343 -0.6869 -0.1276
  174MOL0     C23416   1.018   9.764  10.807  0.9761 -0.5197  0.0003
  174MOL0     C23417   0.866   9.751  10.833  0.7059  0.2612  0.0837
  174MOL0     C23418   0.849   9.666  10.949 -0.4602 -0.2533 -0.6469
  174MOL0     C23419   0.811   9.572  11.027  1.0660  0.2987 -0.4292
  174MOL0     C23420   1.345  10.046  10.550  0.2240 -0.3264  0.4409
  174MOL0     C23421   1.457  10.101  10.477  0.0736 -0.2592 -0.7096
  174MOL0     C23422   1.425  10.204  10.376  0.1471  0.1596  0.1405
  174MOL0     H23423   1.959  10.053  10.365 -0.0938  1.1687  0.7210
  174MOL0     H23424   2.175  10.119  10.295 -0.5428 -1.2631  0.0217
  174MOL0     H23425   2.340  10.260  10.244 -0.9210  1.5155  0.1773
  174MOL0     H23426   2.498  10.315  10.328  0.0986  1.4234  0.3897
  174MOL0     H23427   2.373  10.064  10.418 -1.1765  1.7019  4.0545
  174MOL0     H23428   2.507  10.145  10.478 -1.1280  4.1333 -1.3404
  174MOL0     H23429   2.557  10.110  10.185 -0.3259  2.0157  1.5448
  174MOL0     H23430   2.533   9.957  10.278 -0.8669  1.0326 -2.6401
  174MOL0     H23431   2.716  10.201  10.328  0.3755  0.2702  2.1066
  174MOL0     H23432   2.720  10.056  10.428 -0.3492 -2.9176 -1.3629
  174MOL0     H23433   2.798   9.916  10.237 -3.4842  1.3348  0.4804
  174MOL0     H23434   2.784  10.060  10.126 -1.4903  1.0444 -0.0400
  174MOL0     H23435   2.951  10.159  10.270  2.7504 -0.6906  0.9057
  174MOL0     H23436   2.958  10.027  10.387  2.1262  0.1668 -0.4921
  174MOL0     H23437   3.033   9.995  10.089  0.9099  1.1593  1.4748
  174MOL0     H23438   3.031   9.868  10.210 -0.6740  0.4575  0.2240
  174MOL0     H23439   3.219  10.107  10.214 -1.0089  0.8125 -0.3908
  174MOL0     H23440   3.214   9.973  10.331  1.8620 -2.3791 -1.0853
  174MOL0     H23441   3.263   9.979   9.923  1.4561  0.8795  0.4667
  174MOL0     H23442   3.528   9.724   9.856 -1.9458 -0.7263 -0.1848
  174MOL0     H23443   3.427   9.840   9.771  1.4853 -1.2617 -1.6590
  174MOL0     H23444   3.546  10.022   9.861  0.8885 -0.2347  2.1995
  174MOL0     H23445   3.654   9.914   9.960  1.0102 -1.9579  0.3740
  174MOL0     H23446   3.740  10.018   9.738 -0.4356  0.4015 -1.1417
  174MOL0     H23447   3.650   9.889   9.655  1.0271 -0.6310  0.3820
  174MOL0     H23448   3.882   9.883   9.858 -2.5760  3.6146 -0.9370
  174MOL0     H23449   3.886   9.819   9.691  2.1255  2.0162  0.0651
  174MOL0     H23450   4.043   9.719   9.813  2.9323 -1.5111 -1.4250
  174MOL0     H23451   4.215   9.541   9.862 -0.0951  1.9462 -0.8246
  174MOL0     H23452   4.373   9.390  10.167 -0.8517  0.2335  0.2846
  174MOL0     H23453   4.511   9.260  10.316  0.5346 -2.4593  1.4509
  174MOL0     H23454   4.724   9.149  10.351 -0.9681  1.7995  0.2645
  174MOL0     H23455   4.582   9.122  10.456  0.1889  0.2177 -1.4597
  174MOL0     H23456   4.774   9.029  10.563  0.1204 -0.6451  0.5953
  174MOL0     H23457   4.686   8.889  10.516 -1.9470  1.2891  0.6013
  174MOL0     H23458   4.818   8.839  10.327 -0.0020  1.3557 -0.5807
  174MOL0     H23459   4.919   8.978  10.357 -2.5959  3.8327  1.4432
  174MOL0     H23460   4.897   8.756  10.564  1.7821 -1.6327 -0.9231
  174MOL0     H23461   4.976   8.909  10.600 -0.6549 -3.9651  3.4225
  174MOL0     H23462   5.073   8.728  10.375  4.6988  1.1043 -1.7109
  174MOL0     H23463   5.130   8.722  10.540 -0.7117  0.0180 -0.0368
  174MOL0     H23464   5.274   8.848  10.387  0.1964  0.0566  1.1623
  174MOL0     H23465   5.162   8.984  10.377 -1.5172 -0.2090 -0.4352
  174MOL0     H23466   5.166   9.025  10.619 -0.6394  0.3498 -0.4601
  174MOL0     H23467   5.324   9.040  10.543 -1.8030  2.1422  1.2747
  174MOL0     H23468   5.339   8.932  10.748 -3.8808  1.7167  1.1563
  174MOL0     H23469   5.207   8.824  10.723  0.4663 -0.9721  0.4174
  174MOL0     H23470   4.481   8.919  10.058 -2.9049 -1.6521  4.8489
  174MOL0     H23471   4.330   9.065   9.901  0.5168  0.7777 -0.2762
  174MOL0     H23472   3.891   9.272   9.916  4.3378 -1.4265 -0.1792
  174MOL0     H23473   3.728   9.437   9.894  0.3971 -1.1204 -0.7027
  174MOL0     H23474   2.199  10.397  10.621  3.3213 -2.9222 -1.0298
  174MOL0     H23475   1.959  10.330  10.691  0.0868  0.8828  0.3535
  174MOL0     H23476   1.702  10.028  10.712  0.6898  0.2694 -0.9258
  174MOL0     H23477   1.499   9.924  10.826  0.3730  0.2050  0.5014
  174MOL0     H23478   1.276   9.972  10.923  2.3453 -0.6437 -0.7307
  174MOL0     H23479   1.296   9.795  10.882  0.3077 -0.1373  1.5228
  174MOL0     H23480   1.037   9.956  10.903  1.9312  0.7144  0.6666
  174MOL0     H23481   1.089   9.806  10.988  0.5479  0.1922  0.4160
  174MOL0     H23482   1.069   9.669  10.821  2.9151  0.8450  3.5283
  174MOL0     H23483   1.032   9.803  10.705 -0.6095 -0.7114 -0.3184
  174MOL0     H23484   0.816   9.848  10.841  1.2452  0.6082 -0.6578
  174MOL0     H23485   0.838   9.707  10.737  0.2086  0.9317 -0.0894
  174MOL0     H23486   0.781   9.498  11.100 -0.0562  0.9235 -0.2334
  174MOL0     H23487   1.246  10.047  10.507  0.1729  2.1062  0.4555
  174MOL0     H23488   1.316  10.214  10.366  0.0380  0.7486  1.6582
  174MOL0     H23489   1.453  10.304  10.411 -2.5968  1.6366 -1.4893
  174MOL0     H23490   1.466  10.175  10.279  0.2243  1.1053 -0.1230
  175MOL0     O23491   0.597  11.378   6.593  0.1480 -0.0388 -0.2261
  175MOL0     C23492   0.506  11.333   6.521  0.4658  0.3172  0.3754
  175MOL0     O23493   0.488  11.366   6.392  0.4174 -0.1544  0.3166
  175MOL0     C23494   0.576  11.450   6.327  0.8460  0.3172  0.8065
  175MOL0     C23495   0.538  11.569   6.256 -0.3842  0.4357  0.7357
  175MOL0     C23496   0.635  11.631   6.190  0.2802 -0.8536  1.1518
  175MOL0     C23497   0.768  11.593   6.194  0.0095  0.5929  0.0367
  175MOL0     O23498   0.869  11.650   6.126  0.3104 -0.9572  0.0287
  175MOL0     C23499   0.848  11.773   6.051  0.0065 -0.1602 -0.1610
  175MOL0     C23500   0.850  11.903   6.133  0.6261 -0.9727  0.8527
  175MOL0     C23501   0.982  11.921   6.207 -0.1591 -0.7942 -0.3688
  175MOL0     C23502   1.000  12.058   6.266  0.7980  0.2488 -0.0191
  175MOL0     C23503   1.133  12.059   6.352  0.5521 -0.0368  0.2350
  175MOL0     C23504   1.257  12.074   6.259 -0.1511 -0.0610 -0.6146
  175MOL0     C23505   1.384  12.071   6.352 -0.1189  1.0054  0.5655
  175MOL0     C23506   1.512  12.062   6.279  0.9773  0.9797 -0.4670
  175MOL0     N23507   1.625  12.021   6.367  0.8623  0.4055  0.5722
  175MOL0     C23508   1.643  11.903   6.431 -0.2924 -0.2559  0.9511
  175MOL0     C23509   1.751  11.918   6.504  0.0829  0.0676 -0.1451
  175MOL0     C23510   1.796  11.804   6.588 -0.2022 -0.5242 -0.7434
  175MOL0     C23511   1.926  11.739   6.527 -0.1531  0.1934  0.3420
  175MOL0     C23512   1.909  11.694   6.391 -0.0171  0.1491  0.1552
  175MOL0     C23513   2.047  11.665   6.322 -0.4891  1.6180  0.2533
  175MOL0     O23514   2.104  11.546   6.383 -0.1371 -0.1459  0.9013
  175MOL0     C23515   2.244  11.526   6.375 -1.0123 -0.0295 -0.4512
  175MOL0     C23516   2.334  11.615   6.330 -0.0320  0.0540  0.4124
  175MOL0     C23517   2.478  11.581   6.321 -0.5708  0.1530 -0.3904
  175MOL0     C23518   2.519  11.458   6.352  0.5198  0.4697 -0.3155
  175MOL0     C23519   2.663  11.430   6.333 -0.3191  0.2206  0.3726
  175MOL0     O23520   2.756  11.539   6.335  0.6095 -0.1188  0.2332
  175MOL0     C23521   2.893  11.508   6.320  0.0932 -0.5550 -0.0717
  175MOL0     C23522   2.956  11.451   6.434  0.2288 -0.1094  0.0999
  175MOL0     C23523   3.086  11.421   6.435  0.1028  0.0407 -0.2463
  175MOL0     C23524   3.167  11.445   6.324 -0.1498  0.9191  0.2923
  175MOL0     O23525   3.307  11.418   6.314  0.3740 -0.7785  0.2267
  175MOL0     C23526   3.369  11.329   6.402 -0.1385  0.6646 -0.0885
  175MOL0     C23527   3.527  11.344   6.408  0.3483  1.1390  0.1050
  175MOL0     C23528   3.594  11.285   6.279 -0.0565 -0.5714  0.3924
  175MOL0     C23529   3.716  11.363   6.240  0.1501 -1.1630 -0.2156
  175MOL0     C23530   3.788  11.285   6.126 -0.0910  0.1280  0.0798
  175MOL0     C23531   3.908  11.218   6.191 -0.1360  0.5229  0.2649
  175MOL0     C23532   4.006  11.178   6.079 -0.0872  0.5049 -0.2560
  175MOL0     C23533   4.138  11.143   6.137  0.4821 -0.4015 -0.1711
  175MOL0    Cl23534   4.107  11.001   6.237 -0.4099 -0.1552  0.2025
  175MOL0     C23535   3.102  11.504   6.210  0.6203 -0.2261  0.0260
  175MOL0     C23536   2.967  11.531   6.208 -0.5225 -0.4849  0.3030
  175MOL0     O23537   2.698  11.314   6.325  0.3261 -0.0205  0.3639
  175MOL0     C23538   2.419  11.372   6.407  0.0779 -0.2007 -0.6331
  175MOL0     C23539   2.282  11.400   6.413 -0.6093 -0.2218  0.5695
  175MOL0     N23540   1.792  12.049   6.492 -0.9205 -0.0214 -0.4394
  175MOL0     N23541   1.730  12.111   6.396 -0.0958  0.3273 -0.3699
  175MOL0     C23542   0.804  11.481   6.264 -0.8916 -0.2578  0.3711
  175MOL0     C23543   0.708  11.410   6.318  0.0308 -0.0542 -0.9157
  175MOL0     C23544   0.408  11.242   6.592 -0.1583  0.0661 -0.6134
  175MOL0     C23545   0.456  11.185   6.710 -0.3650  0.3743 -0.1502
  175MOL0     C23546   0.374  11.099   6.781 -0.6331  0.4903 -0.2293
  175MOL0     C23547   0.248  11.066   6.744  0.4810 -0.6266 -0.1265
  175MOL0     O23548   0.172  10.984   6.816  0.0743 -0.6016  0.1339
  175MOL0     C23549   0.139  10.867   6.739 -0.2400 -1.2150 -0.5570
  175MOL0     C23550   0.242  10.759   6.759  0.2830  0.4054  0.0404
  175MOL0     C23551   0.271  10.714   6.909  1.1441 -0.2292  0.7841
  175MOL0     C23552   0.145  10.656   6.980 -0.2782 -1.3607 -0.0788
  175MOL0     C23553   0.184  10.585   7.096 -0.0486  0.7174  1.1136
  175MOL0     C23554   0.202  10.531   7.204 -0.5255 -0.1934  0.6765
  175MOL0     C23555   0.197  11.129   6.625 -0.2740 -0.1839  0.5729
  175MOL0     C23556   0.281  11.214   6.549 -0.9160  0.2880  0.1593
  175MOL0     C23557   0.227  11.270   6.426  0.1448 -0.0398  0.2681
  175MOL0     H23558   0.438  11.610   6.259 -1.7096 -2.3249 -1.4135
  175MOL0     H23559   0.594  11.720   6.144 -1.7737 -1.0217  2.5223
  175MOL0     H23560   0.940  11.791   5.996  1.7139  2.1117  3.0767
  175MOL0     H23561   0.770  11.770   5.974  1.9345  0.2265 -2.2103
  175MOL0     H23562   0.762  11.893   6.197 -0.7890 -0.5708 -0.9256
  175MOL0     H23563   0.825  11.981   6.059 -1.3368 -2.0861  0.2621
  175MOL0     H23564   1.062  11.905   6.134  0.3644 -0.3443  0.1001
  175MOL0     H23565   0.995  11.848   6.288  1.1145 -2.3725 -1.9022
  175MOL0     H23566   1.003  12.143   6.197 -0.3463  0.8848  0.6839
  175MOL0     H23567   0.920  12.075   6.338  1.1901 -2.4964  1.1850
  175MOL0     H23568   1.122  12.144   6.419  0.3453  0.4121 -0.3534
  175MOL0     H23569   1.146  11.975   6.420  0.6192  1.0629  1.6169
  175MOL0     H23570   1.259  12.003   6.177  1.1604 -0.0326 -0.6294
  175MOL0     H23571   1.250  12.173   6.212 -4.5997  0.9679  1.6292
  175MOL0     H23572   1.384  11.981   6.415 -3.7855  1.2706  1.1444
  175MOL0     H23573   1.390  12.158   6.417 -0.2079  1.4090  0.0389
  175MOL0     H23574   1.495  11.986   6.202  1.4226  0.2866  0.1104
  175MOL0     H23575   1.523  12.160   6.234 -2.6730  2.5121  1.5336
  175MOL0     H23576   1.588  11.810   6.424 -1.6745  0.6298 -0.4643
  175MOL0     H23577   1.833  11.844   6.683 -0.9621 -2.9618  0.6628
  175MOL0     H23578   1.715  11.736   6.617 -0.4579 -0.2077 -0.6991
  175MOL0     H23579   2.003  11.816   6.532  1.0301 -0.8171 -1.4140
  175MOL0     H23580   1.955  11.656   6.593 -1.2189 -4.0693 -3.9908
  175MOL0     H23581   1.846  11.757   6.328  1.3322 -1.0732 -2.5837
  175MOL0     H23582   1.848  11.603   6.393  0.8709 -0.5535 -2.1022
  175MOL0     H23583   2.107  11.757   6.332  0.4972  0.7327  4.2648
  175MOL0     H23584   2.047  11.638   6.216  0.8794  0.6124  0.4775
  175MOL0     H23585   2.314  11.722   6.327  2.3689  0.5511 -0.6305
  175MOL0     H23586   2.539  11.651   6.265 -1.2445  0.2834 -0.9884
  175MOL0     H23587   2.898  11.433   6.525 -0.7650  2.9516  0.1868
  175MOL0     H23588   3.125  11.372   6.524 -1.5740  1.5524  1.4294
  175MOL0     H23589   3.322  11.333   6.501 -2.1422  2.3085 -1.0292
  175MOL0     H23590   3.361  11.230   6.355 -2.1541 -0.0661  1.6359
  175MOL0     H23591   3.547  11.451   6.418  1.9789  0.6639  2.5106
  175MOL0     H23592   3.564  11.293   6.497 -2.6617 -0.4203  0.5999
  175MOL0     H23593   3.632  11.186   6.309 -0.8675 -0.8981  0.3850
  175MOL0     H23594   3.522  11.285   6.197  0.7498  0.8214 -0.3293
  175MOL0     H23595   3.787  11.374   6.322 -2.0274  2.2214  1.4691
  175MOL0     H23596   3.682  11.462   6.205  0.5974 -0.1294  2.1014
  175MOL0     H23597   3.831  11.362   6.061  1.7876 -1.2219 -0.3395
  175MOL0     H23598   3.721  11.221   6.067 -0.8051 -2.8841  3.7685
  175MOL0     H23599   3.963  11.285   6.258 -3.0966  2.0651  1.3297
  175MOL0     H23600   3.874  11.133   6.249  1.1899 -0.0359  0.2720
  175MOL0     H23601   4.017  11.256   6.003 -0.5289 -0.5964 -1.4818
  175MOL0     H23602   3.970  11.089   6.027  1.5859 -0.3567 -0.0223
  175MOL0     H23603   4.195  11.118   6.047  0.0701 -0.5217 -0.4025
  175MOL0     H23604   4.177  11.230   6.190 -0.5297 -1.1275  1.8822
  175MOL0     H23605   3.161  11.515   6.120  0.7326  0.5832  0.1869
  175MOL0     H23606   2.920  11.562   6.115  0.8727 -0.9066 -0.5768
  175MOL0     H23607   2.444  11.272   6.442 -1.5413 -0.6337 -0.6293
  175MOL0     H23608   2.212  11.324   6.447 -2.0387  0.7596 -0.0925
  175MOL0     H23609   0.907  11.450   6.274  0.0348  2.6579  0.7950
  175MOL0     H23610   0.744  11.317   6.361 -0.7799  0.9917  2.2711
  175MOL0     H23611   0.559  11.196   6.742  0.5387 -1.1109 -2.3026
  175MOL0     H23612   0.419  11.048   6.866  2.6835  1.5380 -1.2205
  175MOL0     H23613   0.135  10.891   6.633  0.3347  0.7198 -0.1863
  175MOL0     H23614   0.037  10.835   6.761 -1.8437  2.2252 -2.2638
  175MOL0     H23615   0.340  10.783   6.718 -0.6090  0.0816 -2.4016
  175MOL0     H23616   0.209  10.669   6.707  1.1109 -1.5102  2.5772
  175MOL0     H23617   0.298  10.805   6.962  0.0125 -0.3447  1.5884
  175MOL0     H23618   0.352  10.641   6.915  0.7989 -0.9346 -1.7688
  175MOL0     H23619   0.071  10.733   7.005 -0.0140 -1.8620  2.5404
  175MOL0     H23620   0.092  10.590   6.912 -2.1757 -0.1135  0.1199
  175MOL0     H23621   0.236  10.474   7.289  0.0388  1.3838  1.5507
  175MOL0     H23622   0.096  11.102   6.598 -0.9160 -1.9658  4.1200
  175MOL0     H23623   0.280  11.228   6.341  2.7311 -0.7228  2.0994
  175MOL0     H23624   0.121  11.249   6.409  0.5531 -0.6160 -1.8313
  175MOL0     H23625   0.240  11.379   6.432 -3.4293  0.6143 -0.9718
  176MOL0     O23626   2.859   8.957   8.612 -0.0499 -0.5185  0.0637
  176MOL0     C23627   2.863   9.060   8.542 -0.0231  1.1049  0.0505
  176MOL0     O23628   2.961   9.084   8.451  0.3409 -0.3553  0.6350
  176MOL0     C23629   3.081   9.019   8.432  0.5219 -0.2328 -0.1905
  176MOL0     C23630   3.099   8.885   8.469  0.2477 -0.4375 -0.4564
  176MOL0     C23631   3.222   8.819   8.443 -0.8570 -0.6825  0.0960
  176MOL0     C23632   3.320   8.890   8.376  0.3967 -0.1923 -0.5600
  176MOL0     O23633   3.435   8.823   8.350  0.8676  0.0631  0.1562
  176MOL0     C23634   3.511   8.799   8.462  0.3513 -0.8303  0.3755
  176MOL0     C23635   3.644   8.723   8.433  0.7428 -0.2338 -0.6772
  176MOL0     C23636   3.754   8.791   8.348  0.6580  1.2617  0.3632
  176MOL0     C23637   3.821   8.914   8.410 -0.2596  0.2063 -0.2308
  176MOL0     C23638   3.939   8.951   8.326 -0.3029 -0.2585  0.3686
  176MOL0     C23639   3.910   9.018   8.185  0.6188  0.1921  1.1108
  176MOL0     C23640   4.023   9.110   8.141 -0.1742  0.4461  0.1257
  176MOL0     C23641   4.160   9.036   8.126  0.4879 -0.4993 -0.6104
  176MOL0     N23642   4.161   8.911   8.057  0.5527  0.1751 -0.0154
  176MOL0     C23643   4.112   8.905   7.926 -0.1068 -0.0371  0.5928
  176MOL0     C23644   4.141   8.776   7.906  0.3049  0.6823  0.5276
  176MOL0     C23645   4.085   8.684   7.786  0.1369 -0.6507  0.0145
  176MOL0     C23646   4.181   8.722   7.676 -0.3282 -0.6690 -0.3162
  176MOL0     C23647   4.174   8.634   7.547  0.3505 -0.0153 -1.1196
  176MOL0     C23648   4.059   8.652   7.452 -0.6189  0.5012  0.0672
  176MOL0     O23649   3.935   8.596   7.505  0.2695  0.4224  1.0965
  176MOL0     C23650   3.814   8.624   7.450 -0.9615  0.1936 -0.3274
  176MOL0     C23651   3.772   8.587   7.332 -0.1340  0.6995  0.3184
  176MOL0     C23652   3.641   8.613   7.287  0.0400  0.5141  0.4727
  176MOL0     C23653   3.551   8.688   7.368  0.4509  0.4279 -0.1005
  176MOL0     C23654   3.419   8.742   7.314  0.2674  1.2236 -0.2873
  176MOL0     O23655   3.367   8.670   7.216  0.0100 -0.5137  0.1117
  176MOL0     C23656   3.246   8.712   7.176  0.4781 -0.0870  1.0428
  176MOL0     C23657   3.130   8.703   7.249  0.1168  0.0909  0.2769
  176MOL0     C23658   3.004   8.732   7.198 -0.2366  0.5436 -1.1279
  176MOL0     C23659   2.987   8.748   7.063 -0.2278 -0.9182 -0.0168
  176MOL0     O23660   2.857   8.752   7.009 -0.0793  0.0502  0.4316
  176MOL0     C23661   2.835   8.804   6.888 -0.5921 -0.1745  0.1418
  176MOL0     C23662   2.690   8.775   6.846  0.0902  0.5931  0.2150
  176MOL0     C23663   2.646   8.851   6.706 -0.6439  0.0242 -0.0083
  176MOL0     C23664   2.500   8.853   6.686 -0.4440 -0.0197 -0.0927
  176MOL0     C23665   2.440   8.731   6.625  0.7837 -0.1271 -0.0931
  176MOL0     C23666   2.288   8.740   6.637  0.8804 -0.0307 -0.2601
  176MOL0     C23667   2.214   8.659   6.529 -0.2303  0.4062 -0.2041
  176MOL0     C23668   2.067   8.620   6.570 -1.0951  0.1581  0.8620
  176MOL0    Cl23669   1.969   8.751   6.634 -0.0662  0.0759  0.2193
  176MOL0     C23670   3.102   8.754   6.981 -0.6068  0.4126  0.6261
  176MOL0     C23671   3.225   8.732   7.033 -0.6568 -0.4943 -0.3546
  176MOL0     O23672   3.359   8.831   7.382 -0.3383  0.1250  0.0843
  176MOL0     C23673   3.601   8.731   7.485  0.0156  0.0433  0.0198
  176MOL0     C23674   3.728   8.696   7.533 -0.3244  0.2768 -0.2823
  176MOL0     N23675   4.229   8.719   7.996 -0.1817 -0.1528  0.5443
  176MOL0     N23676   4.258   8.816   8.085 -0.2065  0.1260  0.5396
  176MOL0     C23677   3.292   9.016   8.323 -0.2062 -0.3934 -0.8025
  176MOL0     C23678   3.174   9.086   8.361 -0.1430  1.3026  0.4871
  176MOL0     C23679   2.758   9.162   8.548  1.0726 -0.5556 -0.0597
  176MOL0     C23680   2.734   9.230   8.425  0.6262  0.3305  0.3136
  176MOL0     C23681   2.649   9.340   8.433 -0.2758  0.6596  0.5707
  176MOL0     C23682   2.576   9.376   8.539 -0.2280  0.0710  0.9946
  176MOL0     O23683   2.484   9.466   8.521 -0.0478  0.1289  0.0715
  176MOL0     C23684   2.376   9.430   8.435  0.3482 -0.2335 -0.5175
  176MOL0     C23685   2.264   9.516   8.505  0.0589  0.2917 -0.5226
  176MOL0     C23686   2.123   9.473   8.465  0.7118 -0.3845 -0.1213
  176MOL0     C23687   2.018   9.563   8.533  0.3965 -0.8920 -0.1645
  176MOL0     C23688   1.977   9.665   8.431  0.7674 -0.5771 -0.0710
  176MOL0     C23689   1.942   9.746   8.347  0.3931  0.8282 -0.1638
  176MOL0     C23690   2.609   9.320   8.661 -0.6923  0.6978 -0.0396
  176MOL0     C23691   2.694   9.207   8.665 -0.4341  1.0755 -0.0185
  176MOL0     C23692   2.717   9.148   8.810  0.5457 -0.8778  0.2001
  176MOL0     H23693   3.031   8.830   8.534  1.0460  2.0133  2.7336
  176MOL0     H23694   3.222   8.713   8.467 -0.0731 -0.6424  0.2843
  176MOL0     H23695   3.534   8.903   8.489  1.4562 -0.7601 -0.7486
  176MOL0     H23696   3.464   8.755   8.550  0.4053 -0.3648  0.6379
  176MOL0     H23697   3.619   8.623   8.398  0.3511 -0.3373 -0.1211
  176MOL0     H23698   3.688   8.714   8.533 -1.4981 -1.1931  0.2962
  176MOL0     H23699   3.697   8.824   8.260  0.0434 -4.4738 -1.8359
  176MOL0     H23700   3.825   8.718   8.310  1.1743  1.4605  0.9406
  176MOL0     H23701   3.755   9.000   8.422 -1.4264 -0.7775  0.6808
  176MOL0     H23702   3.838   8.883   8.513 -0.9244  1.5443  0.3103
  176MOL0     H23703   3.990   9.025   8.388 -1.3035  1.1837 -0.4401
  176MOL0     H23704   4.001   8.861   8.321  0.3564  0.2558 -1.6705
  176MOL0     H23705   3.897   8.940   8.109  1.0948  0.7955  0.3994
  176MOL0     H23706   3.814   9.072   8.185  0.2646 -0.3727 -0.6467
  176MOL0     H23707   4.035   9.178   8.227 -1.5102 -0.1284  0.7948
  176MOL0     H23708   3.998   9.166   8.050 -0.8454 -0.8844 -0.5354
  176MOL0     H23709   4.222   9.103   8.065 -0.6232  0.1319 -1.0865
  176MOL0     H23710   4.201   9.023   8.226 -0.6078 -4.0325 -0.4860
  176MOL0     H23711   4.037   8.967   7.878  1.1645 -0.7177 -2.5780
  176MOL0     H23712   4.087   8.578   7.811  2.0137  0.2490  4.6391
  176MOL0     H23713   3.980   8.709   7.769  0.9528  3.3565 -0.0252
  176MOL0     H23714   4.167   8.826   7.643 -1.4614 -0.5670  0.4109
  176MOL0     H23715   4.280   8.714   7.719 -0.7902  2.5392  1.7075
  176MOL0     H23716   4.177   8.527   7.569 -2.4477 -0.4064 -2.2046
  176MOL0     H23717   4.266   8.656   7.492  1.3181 -1.5182 -0.1550
  176MOL0     H23718   4.084   8.598   7.360 -3.0052 -0.1786 -0.2480
  176MOL0     H23719   4.044   8.755   7.418 -0.8950 -0.6555 -3.8176
  176MOL0     H23720   3.838   8.529   7.269 -0.2277  1.5299 -0.5702
  176MOL0     H23721   3.625   8.609   7.180  4.1407 -1.6743 -0.2745
  176MOL0     H23722   3.144   8.668   7.351  1.3604  2.6952  1.0733
  176MOL0     H23723   2.924   8.718   7.269  0.4802  2.2585  0.0846
  176MOL0     H23724   2.842   8.913   6.879  1.1341 -0.3878 -1.8547
  176MOL0     H23725   2.907   8.763   6.816 -0.9384 -2.3244  0.9383
  176MOL0     H23726   2.677   8.668   6.826  1.8101  0.4531 -0.3748
  176MOL0     H23727   2.622   8.807   6.925  0.5352  2.1017  0.0182
  176MOL0     H23728   2.687   8.952   6.717  0.2144 -0.5034  2.2476
  176MOL0     H23729   2.694   8.798   6.623  1.8322 -1.7678  2.4054
  176MOL0     H23730   2.487   8.940   6.620 -1.7908  1.1663  1.6561
  176MOL0     H23731   2.457   8.873   6.784  3.8265 -2.0084  2.5014
  176MOL0     H23732   2.478   8.648   6.686 -2.2331 -1.4304  0.2120
  176MOL0     H23733   2.474   8.724   6.522  1.9777  2.5080  0.0548
  176MOL0     H23734   2.257   8.708   6.736  1.2657  1.8399  0.5050
  176MOL0     H23735   2.264   8.846   6.628  1.5745  0.0449 -1.5305
  176MOL0     H23736   2.260   8.564   6.500 -2.0573 -1.6702  3.0194
  176MOL0     H23737   2.227   8.730   6.447 -0.3973  1.6566  0.8288
  176MOL0     H23738   2.015   8.573   6.485  0.9841  1.0262 -1.0092
  176MOL0     H23739   2.073   8.554   6.657 -1.7719  0.3853  1.0871
  176MOL0     H23740   3.102   8.762   6.873  0.1710 -2.6751  0.3073
  176MOL0     H23741   3.297   8.746   6.953 -0.3901  1.4220  0.1653
  176MOL0     H23742   3.546   8.790   7.558 -2.6629 -0.4672 -1.4301
  176MOL0     H23743   3.764   8.722   7.632  1.6226 -0.4975 -0.7426
  176MOL0     H23744   3.361   9.063   8.253  3.1281 -4.2459 -0.4909
  176MOL0     H23745   3.163   9.184   8.315  3.9473  1.2328 -1.0022
  176MOL0     H23746   2.791   9.206   8.336  1.8121  2.3059  0.4587
  176MOL0     H23747   2.615   9.390   8.343 -1.3046  0.3825  0.7941
  176MOL0     H23748   2.346   9.325   8.437 -3.7031  0.7332 -1.3237
  176MOL0     H23749   2.383   9.460   8.330  1.9199  1.3715 -0.0048
  176MOL0     H23750   2.263   9.620   8.473  0.0684  0.5565  0.3102
  176MOL0     H23751   2.269   9.509   8.614 -0.3161  2.5621 -0.3296
  176MOL0     H23752   2.095   9.373   8.497 -1.4115  0.0398 -0.5232
  176MOL0     H23753   2.097   9.469   8.359 -1.6103  1.3101  0.2978
  176MOL0     H23754   1.938   9.499   8.571  0.6899 -1.8786 -1.1545
  176MOL0     H23755   2.060   9.620   8.616 -2.1488 -0.1971  0.7523
  176MOL0     H23756   1.898   9.812   8.275 -0.5306  0.3967 -0.0212
  176MOL0     H23757   2.580   9.369   8.754  0.8962 -1.0547  1.4656
  176MOL0     H23758   2.694   9.219   8.889  0.5730 -0.1580 -0.4317
  176MOL0     H23759   2.651   9.061   8.820 -1.3250  0.4001 -0.4685
  176MOL0     H23760   2.822   9.118   8.800  0.6123 -0.3021 -1.0487
  177MOL0     O23761   9.840   1.749   0.626 -0.5051 -0.5338  0.6828
  177MOL0     C23762   9.738   1.792   0.567 -0.5786 -0.2091  0.7289
  177MOL0     O23763   9.735   1.831   0.437 -0.1326 -0.5591 -0.3576
  177MOL0     C23764   9.835   1.785   0.358 -0.1179 -0.3866 -0.8082
  177MOL0     C23765   9.830   1.674   0.275  0.6666 -0.1334  0.1352
  177MOL0     C23766   9.948   1.634   0.207  0.4548  0.3144  0.4895
  177MOL0     C23767  10.060   1.718   0.210  0.0442  1.1087 -0.0902
  177MOL0     O23768  10.180   1.695   0.151  0.4014 -0.6856 -0.8408
  177MOL0     C23769  10.215   1.564   0.119  0.1145 -0.3906 -0.2156
  177MOL0     C23770  10.360   1.579   0.061  0.3545  0.7597 -1.2450
  177MOL0     C23771  10.446   1.687   0.125  0.1033  0.1439 -0.3447
  177MOL0     C23772  10.445   1.679   0.281 -0.5021  0.9435 -0.2819
  177MOL0     C23773  10.550   1.775   0.333  0.5633  0.1603 -0.4050
  177MOL0     C23774  10.585   1.743   0.477  0.0352 -0.1149 -0.0278
  177MOL0     C23775  10.669   1.855   0.545  0.3245  0.7112  0.0245
  177MOL0     C23776  10.807   1.869   0.475  0.5274 -0.5175 -1.0263
  177MOL0     N23777  10.894   1.974   0.536  0.0383  0.2902  0.7015
  177MOL0     C23778  10.964   1.962   0.648 -1.0348 -1.3014 -0.5161
  177MOL0     C23779  11.041   2.074   0.658  0.3488 -0.7719  0.6054
  177MOL0     C23780  11.131   2.120   0.766  0.2738 -0.7671  0.1531
  177MOL0     C23781  11.273   2.148   0.709  0.0448  0.2277 -0.1581
  177MOL0     C23782  11.377   2.199   0.819  0.0775  0.7940  0.4294
  177MOL0     C23783  11.517   2.188   0.760 -0.5426 -0.5308  0.1369
  177MOL0     O23784  11.547   2.051   0.746 -0.5848  0.0637 -0.2013
  177MOL0     C23785  11.672   2.017   0.703  0.3316  0.8707 -0.1893
  177MOL0     C23786  11.736   1.911   0.768 -0.6031  0.4955 -0.4959
  177MOL0     C23787  11.874   1.870   0.734  0.4055 -0.6421  0.5259
  177MOL0     C23788  11.949   1.952   0.649 -0.8181  0.4773  1.2987
  177MOL0     C23789  12.095   1.928   0.636 -0.0253  0.4517  0.1543
  177MOL0     O23790  12.157   2.008   0.553 -0.7991 -0.8239  0.6947
  177MOL0     C23791  12.300   2.028   0.549  0.6933 -0.7353  0.4826
  177MOL0     C23792  12.333   2.104   0.430 -0.2889 -1.1246  0.0715
  177MOL0     C23793  12.471   2.138   0.394 -0.1934  0.8506 -0.9379
  177MOL0     C23794  12.563   2.105   0.491 -0.3434  0.7975  0.3201
  177MOL0     O23795  12.691   2.138   0.461 -0.0697  0.7898  0.2287
  177MOL0     C23796  12.791   2.157   0.566  0.2622 -0.2185  1.0428
  177MOL0     C23797  12.872   2.282   0.529 -0.5440  0.3164 -0.4714
  177MOL0     C23798  12.794   2.408   0.547  0.4847 -1.0338 -0.2842
  177MOL0     C23799  12.867   2.520   0.469 -0.2987 -0.0555 -0.2718
  177MOL0     C23800  12.989   2.577   0.535 -0.3579  0.8814  0.4298
  177MOL0     C23801  13.047   2.685   0.456 -0.6734 -0.2866  0.4703
  177MOL0     C23802  13.189   2.727   0.518  0.7132 -0.2170  0.5388
  177MOL0     C23803  13.262   2.850   0.455  0.1143  0.9240  0.8908
  177MOL0    Cl23804  13.426   2.877   0.530 -0.1478 -0.0936 -0.0790
  177MOL0     C23805  12.523   2.042   0.618 -0.8138 -0.8555  1.1338
  177MOL0     C23806  12.395   2.006   0.647 -0.0408  0.3076 -0.5312
  177MOL0     O23807  12.148   1.834   0.687 -0.1333  0.6016  0.8514
  177MOL0     C23808  11.876   2.054   0.578  0.2729 -0.2968  0.4038
  177MOL0     C23809  11.740   2.088   0.604 -0.8814  0.1500  0.5905
  177MOL0     N23810  11.018   2.153   0.545  0.4106 -0.2007 -0.6359
  177MOL0     N23811  10.934   2.086   0.471  1.1907  0.1612 -0.3957
  177MOL0     C23812  10.055   1.839   0.274 -0.0829 -0.8423 -1.2993
  177MOL0     C23813   9.949   1.863   0.355  0.3540  0.0312 -0.0817
  177MOL0     C23814   9.608   1.809   0.640  0.4402  0.8048 -0.3003
  177MOL0     C23815   9.491   1.810   0.564 -0.7458  0.1144 -0.2601
  177MOL0     C23816   9.366   1.824   0.615  0.6711 -0.5809 -0.4738
  177MOL0     C23817   9.350   1.822   0.754  0.1241  0.2050 -0.0220
  177MOL0     O23818   9.231   1.824   0.820  0.2189  0.8254  0.5938
  177MOL0     C23819   9.202   1.698   0.875 -0.0131  0.3555 -0.2184
  177MOL0     C23820   9.048   1.680   0.865 -0.0763 -0.2384  0.5677
  177MOL0     C23821   8.978   1.742   0.976  0.3106 -0.8063 -0.1974
  177MOL0     C23822   8.840   1.688   1.000  0.7264 -0.2948  0.2936
  177MOL0     C23823   8.770   1.750   1.114 -0.3414  0.4385 -0.2192
  177MOL0     C23824   8.723   1.805   1.206  0.1030 -0.8514  0.3570
  177MOL0     C23825   9.462   1.838   0.834  0.1955  0.0270 -0.3590
  177MOL0     C23826   9.589   1.810   0.781 -0.5883 -0.4535 -0.0740
  177MOL0     C23827   9.699   1.819   0.880  0.3893 -0.1253 -0.2070
  177MOL0     H23828   9.742   1.612   0.287  0.6404 -0.6291 -2.1832
  177MOL0     H23829   9.943   1.540   0.153 -2.8024  1.6875 -1.9128
  177MOL0     H23830  10.225   1.491   0.200  0.1190  0.8239  0.9132
  177MOL0     H23831  10.142   1.535   0.043 -3.2177  1.7138  1.9476
  177MOL0     H23832  10.352   1.582  -0.048 -3.9718 -0.3400 -1.1665
  177MOL0     H23833  10.403   1.481   0.079 -4.4079 -1.1294  2.0187
  177MOL0     H23834  10.415   1.787   0.095 -1.2039  0.2699  1.2324
  177MOL0     H23835  10.546   1.671   0.084  0.2156 -0.2399  0.0756
  177MOL0     H23836  10.346   1.683   0.328  0.0318 -0.9647  1.1478
  177MOL0     H23837  10.481   1.578   0.307 -0.1964  1.9742  4.0866
  177MOL0     H23838  10.639   1.775   0.270 -1.2286  3.3224 -3.2582
  177MOL0     H23839  10.507   1.875   0.329 -0.2192 -0.2035 -1.8327
  177MOL0     H23840  10.497   1.738   0.543 -1.2541  2.0086 -1.4560
  177MOL0     H23841  10.639   1.648   0.487  0.8038  0.2614 -0.5369
  177MOL0     H23842  10.678   1.830   0.651  1.0528 -1.5030 -0.5053
  177MOL0     H23843  10.619   1.951   0.528  2.7943  2.7943  3.3909
  177MOL0     H23844  10.866   1.777   0.472  1.1104 -0.1730 -0.5832
  177MOL0     H23845  10.793   1.905   0.373 -0.7764 -0.4428 -0.8400
  177MOL0     H23846  10.949   1.875   0.713  2.0062 -1.0927  0.6323
  177MOL0     H23847  11.089   2.207   0.817  0.6306 -1.5926  1.9705
  177MOL0     H23848  11.140   2.042   0.843  0.4639 -0.5065  0.3972
  177MOL0     H23849  11.320   2.061   0.660 -1.1153  0.3630 -1.5689
  177MOL0     H23850  11.261   2.221   0.629  0.7687 -0.4711 -0.9339
  177MOL0     H23851  11.355   2.147   0.913 -3.4139 -1.3344 -1.3317
  177MOL0     H23852  11.335   2.299   0.837 -3.5094 -0.1135 -1.7981
  177MOL0     H23853  11.589   2.245   0.819 -0.1305  0.2244 -1.0554
  177MOL0     H23854  11.518   2.232   0.660  5.0204 -1.0005 -0.3268
  177MOL0     H23855  11.685   1.862   0.851 -0.7847  0.8996 -0.3676
  177MOL0     H23856  11.919   1.791   0.793 -1.4791 -0.9041  1.7259
  177MOL0     H23857  12.259   2.145   0.363 -1.1127 -0.1210  1.5528
  177MOL0     H23858  12.493   2.191   0.302 -1.5480  0.6553 -1.4017
  177MOL0     H23859  12.735   2.172   0.658 -2.2394 -2.7682  0.0771
  177MOL0     H23860  12.843   2.061   0.571 -2.1826 -1.8222 -1.5151
  177MOL0     H23861  12.955   2.278   0.600 -0.7293 -0.1075 -0.2794
  177MOL0     H23862  12.911   2.266   0.427  0.3861  2.4534 -0.4975
  177MOL0     H23863  12.700   2.402   0.491  0.9727  3.9543 -2.1789
  177MOL0     H23864  12.785   2.434   0.653  3.1837 -0.6576 -0.0691
  177MOL0     H23865  12.791   2.598   0.460 -1.0192 -0.6877  0.2290
  177MOL0     H23866  12.884   2.490   0.365 -0.6039 -0.0663 -0.3190
  177MOL0     H23867  13.068   2.503   0.551 -0.1398  1.2240  0.9801
  177MOL0     H23868  12.963   2.611   0.636 -0.7276 -1.0720  1.0418
  177MOL0     H23869  13.062   2.652   0.353  0.8403 -0.3991  0.7113
  177MOL0     H23870  12.987   2.777   0.461  2.3774  1.9501 -0.3962
  177MOL0     H23871  13.255   2.643   0.496 -0.1866 -0.7477 -0.2033
  177MOL0     H23872  13.178   2.756   0.623 -0.0644  1.6326 -0.0103
  177MOL0     H23873  13.267   2.825   0.348 -1.4722  0.4569  0.8997
  177MOL0     H23874  13.195   2.937   0.458 -0.7006  0.5219 -2.0331
  177MOL0     H23875  12.605   2.012   0.682  0.2429  2.0779  1.3379
  177MOL0     H23876  12.383   1.940   0.732  1.2375 -2.0817 -2.0932
  177MOL0     H23877  11.924   2.142   0.536 -0.7828 -0.4814 -1.2947
  177MOL0     H23878  11.684   2.162   0.547 -1.1100  0.2281  0.9183
  177MOL0     H23879  10.132   1.916   0.281 -0.7372 -0.3161  2.3274
  177MOL0     H23880   9.962   1.948   0.422  0.9681  0.1494 -0.3439
  177MOL0     H23881   9.506   1.807   0.456 -3.3735  1.5955 -0.7604
  177MOL0     H23882   9.277   1.833   0.554  0.0093 -1.0977  0.3844
  177MOL0     H23883   9.250   1.679   0.972  3.5348  3.4811 -1.1416
  177MOL0     H23884   9.243   1.612   0.821 -2.0105 -0.6256 -0.2637
  177MOL0     H23885   9.017   1.575   0.863 -4.5483  0.8895  0.0893
  177MOL0     H23886   9.015   1.732   0.774 -2.0003 -1.6058  0.4140
  177MOL0     H23887   8.979   1.850   0.960 -1.7351 -0.4822  1.4739
  177MOL0     H23888   9.030   1.715   1.068  3.1858 -1.1628 -1.8149
  177MOL0     H23889   8.772   1.712   0.918 -0.8792 -1.4380  1.2609
  177MOL0     H23890   8.854   1.581   1.016  1.2890 -0.4466 -1.0522
  177MOL0     H23891   8.692   1.874   1.282  2.2520  0.2561  0.2896
  177MOL0     H23892   9.460   1.842   0.942 -0.9726 -0.8445 -0.3258
  177MOL0     H23893   9.663   1.772   0.972 -0.3030 -1.6143 -1.1976
  177MOL0     H23894   9.796   1.781   0.848  1.1034  2.6851 -1.7181
  177MOL0     H23895   9.709   1.926   0.901 -3.0719  0.2206  0.3720
  178MOL0     O23896  11.199   0.495   8.509 -0.3737  0.6865  0.4619
  178MOL0     C23897  11.274   0.479   8.603  0.4402  1.0427  0.0686
  178MOL0     O23898  11.231   0.446   8.728  0.1557  0.3329 -0.6146
  178MOL0     C23899  11.103   0.403   8.736  0.2929 -0.0664  0.4350
  178MOL0     C23900  11.067   0.285   8.672 -0.4433  0.0356 -0.5486
  178MOL0     C23901  10.936   0.240   8.671  0.9455  0.0775  0.2427
  178MOL0     C23902  10.837   0.309   8.733  0.0227  0.0729 -1.1797
  178MOL0     O23903  10.707   0.269   8.743 -0.1420 -0.6606 -0.0559
  178MOL0     C23904  10.667   0.156   8.658  0.1001  0.8409  0.6146
  178MOL0     C23905  10.514   0.148   8.673 -0.0273  0.3046 -1.3817
  178MOL0     C23906  10.441   0.112   8.540  0.1446 -0.1482 -0.1510
  178MOL0     C23907  10.290   0.161   8.553 -0.0365  0.5592  0.1202
  178MOL0     C23908  10.193   0.125   8.427 -0.7159  0.2288 -0.8241
  178MOL0     C23909  10.047   0.168   8.456 -0.7146 -0.1100 -0.0202
  178MOL0     C23910   9.951   0.148   8.346 -0.1599  0.4463  0.5787
  178MOL0     C23911   9.812   0.187   8.388  0.0343  0.5368 -0.4525
  178MOL0     N23912   9.723   0.186   8.264 -0.2335 -0.0850 -0.8987
  178MOL0     C23913   9.647   0.294   8.216  0.1401  0.5840 -0.3648
  178MOL0     C23914   9.577   0.239   8.104  0.0449 -1.0834  0.4328
  178MOL0     C23915   9.466   0.308   8.025  0.8261 -0.2434  0.7697
  178MOL0     C23916   9.401   0.428   8.099 -0.7462 -0.4126  0.2766
  178MOL0     C23917   9.338   0.390   8.235 -0.4546  0.4692  1.0257
  178MOL0     C23918   9.200   0.330   8.211 -0.6071  0.9432 -0.0329
  178MOL0     O23919   9.129   0.422   8.137  0.1046  0.1911 -0.2599
  178MOL0     C23920   9.008   0.385   8.082 -0.6427  0.6064  0.4280
  178MOL0     C23921   8.942   0.494   8.021 -0.7322 -0.7796  0.6922
  178MOL0     C23922   8.812   0.471   7.969  0.4830 -0.9751  1.1605
  178MOL0     C23923   8.758   0.338   7.970  0.4323  0.4113 -0.2352
  178MOL0     C23924   8.625   0.304   7.914  0.1176  0.0318  0.1174
  178MOL0     O23925   8.542   0.411   7.900 -0.1258  0.0419  0.3229
  178MOL0     C23926   8.405   0.398   7.864 -0.9315  0.2136  0.6979
  178MOL0     C23927   8.373   0.323   7.745 -0.8293  0.1461 -0.6246
  178MOL0     C23928   8.246   0.322   7.700  0.1390 -0.4909 -0.9619
  178MOL0     C23929   8.142   0.403   7.765 -0.0393  0.0971 -0.2024
  178MOL0     O23930   8.016   0.413   7.716  0.5165  0.7857  0.1309
  178MOL0     C23931   7.972   0.320   7.615  0.0078 -0.0489 -0.3625
  178MOL0     C23932   7.824   0.299   7.655 -0.2344 -0.5487  0.1240
  178MOL0     C23933   7.775   0.280   7.809 -0.4298 -0.7997 -0.3320
  178MOL0     C23934   7.754   0.136   7.862  0.1423 -0.2068  0.4320
  178MOL0     C23935   7.669   0.133   7.977 -0.6131  0.0085  0.0321
  178MOL0     C23936   7.527   0.170   7.951  0.1428 -0.1523 -0.1007
  178MOL0     C23937   7.433   0.179   8.070  0.3070 -0.4126 -0.4667
  178MOL0     C23938   7.293   0.195   8.032 -0.0564 -0.2762  1.3802
  178MOL0    Cl23939   7.274   0.355   7.953  0.0554  0.4307 -0.2838
  178MOL0     C23940   8.178   0.489   7.873  0.1380 -0.3267  0.3519
  178MOL0     C23941   8.305   0.474   7.930  0.6294  0.1610 -0.3303
  178MOL0     O23942   8.587   0.186   7.913  0.1582 -0.1476  0.6054
  178MOL0     C23943   8.831   0.229   8.022 -0.8248  0.2471 -0.6001
  178MOL0     C23944   8.953   0.249   8.074  0.0600  0.4274 -0.8191
  178MOL0     N23945   9.613   0.111   8.089 -0.1390 -0.1402  1.1218
  178MOL0     N23946   9.694   0.080   8.185 -0.1985  0.0725  0.7953
  178MOL0     C23947  10.865   0.431   8.808 -0.8962 -0.4022 -0.3569
  178MOL0     C23948  11.001   0.466   8.814 -0.2358 -0.2312  0.4072
  178MOL0     C23949  11.409   0.543   8.575  0.7841 -0.4480  0.2942
  178MOL0     C23950  11.427   0.624   8.462 -0.6390 -0.0736 -0.2843
  178MOL0     C23951  11.554   0.687   8.433  0.0384  0.7237 -0.8802
  178MOL0     C23952  11.667   0.656   8.529  0.1846  0.0876  0.1266
  178MOL0     O23953  11.787   0.704   8.492  0.0497 -0.0069  0.4334
  178MOL0     C23954  11.820   0.842   8.478 -0.5519  0.1496  0.2185
  178MOL0     C23955  11.970   0.857   8.445 -0.2057 -0.4254  0.1225
  178MOL0     C23956  12.065   0.785   8.537  1.0275  0.4753 -0.1214
  178MOL0     C23957  12.078   0.833   8.684 -0.2217  0.2007  0.0877
  178MOL0     C23958  12.078   0.979   8.703 -0.1426 -0.4705  0.1945
  178MOL0     C23959  12.062   1.097   8.716  0.6686  0.0948  1.2051
  178MOL0     C23960  11.647   0.569   8.637  0.2437 -0.2662 -0.1170
  178MOL0     C23961  11.521   0.509   8.662 -1.0587  0.6684  0.5272
  178MOL0     C23962  11.517   0.405   8.776 -0.7365 -1.1483 -0.3015
  178MOL0     H23963  11.129   0.220   8.610 -1.3591 -1.1490 -0.2604
  178MOL0     H23964  10.924   0.145   8.620 -1.0868  0.5846 -0.2983
  178MOL0     H23965  10.696   0.176   8.554  0.5480 -2.6486 -0.0767
  178MOL0     H23966  10.729   0.067   8.677  2.4876  2.7444  2.4426
  178MOL0     H23967  10.473   0.247   8.699  2.5088  1.5596 -1.8700
  178MOL0     H23968  10.499   0.070   8.747  0.5276 -0.9796 -2.5795
  178MOL0     H23969  10.450   0.003   8.540 -2.9457 -0.4965  1.5962
  178MOL0     H23970  10.492   0.157   8.454  0.3479 -1.3249 -0.6703
  178MOL0     H23971  10.244   0.132   8.648  0.4407 -0.6398 -0.0039
  178MOL0     H23972  10.296   0.270   8.548 -1.0354  0.6709  1.1124
  178MOL0     H23973  10.224   0.161   8.328 -1.5519 -1.2884 -1.6614
  178MOL0     H23974  10.192   0.017   8.414  1.2896 -0.0085  0.5361
  178MOL0     H23975  10.010   0.106   8.538  0.2120  2.1962  2.3010
  178MOL0     H23976  10.043   0.273   8.487  2.4640  0.0484  0.1792
  178MOL0     H23977   9.944   0.042   8.320 -1.1148  0.9947 -1.6036
  178MOL0     H23978   9.984   0.204   8.258  2.8654 -0.2076  1.1695
  178MOL0     H23979   9.768   0.107   8.447 -0.6708  2.0371  1.1501
  178MOL0     H23980   9.794   0.286   8.431  1.0773  0.0551  1.1867
  178MOL0     H23981   9.636   0.394   8.257  0.4924  0.4820 -0.0156
  178MOL0     H23982   9.515   0.335   7.930  1.6602 -3.6083  0.1077
  178MOL0     H23983   9.388   0.239   7.993  0.4248  0.8252 -0.6952
  178MOL0     H23984   9.475   0.508   8.104 -4.0819  3.1563 -1.6083
  178MOL0     H23985   9.321   0.475   8.040 -1.4846 -0.5045  1.1742
  178MOL0     H23986   9.336   0.489   8.281  2.1712  2.2258 -2.1586
  178MOL0     H23987   9.410   0.330   8.290 -1.5804 -0.3045  1.7063
  178MOL0     H23988   9.159   0.306   8.309 -0.3863  1.6091  0.2220
  178MOL0     H23989   9.207   0.233   8.160  0.5573 -0.8205  3.1963
  178MOL0     H23990   8.977   0.596   8.028 -0.3324 -0.8235 -0.5665
  178MOL0     H23991   8.758   0.559   7.938  1.2059 -1.1050 -0.5968
  178MOL0     H23992   8.459   0.286   7.691  0.5758  0.7722  1.0651
  178MOL0     H23993   8.226   0.266   7.610  1.4707  0.6857 -2.0318
  178MOL0     H23994   7.985   0.362   7.515  1.6849  0.0315 -0.1487
  178MOL0     H23995   8.029   0.227   7.627 -1.1275 -0.6576  0.6047
  178MOL0     H23996   7.758   0.372   7.607 -1.6433 -2.1062 -0.4443
  178MOL0     H23997   7.808   0.209   7.595 -1.1313  0.9680 -2.0470
  178MOL0     H23998   7.845   0.324   7.882 -1.7183  0.6598  0.0852
  178MOL0     H23999   7.687   0.345   7.811  0.6367  0.6864 -0.2680
  178MOL0     H24000   7.850   0.102   7.901  1.0231  0.5648 -0.9736
  178MOL0     H24001   7.718   0.073   7.780 -2.4878  1.8749 -0.1924
  178MOL0     H24002   7.709   0.205   8.050  0.7290 -1.7994  1.1946
  178MOL0     H24003   7.662   0.031   8.017 -3.3943  0.5657  1.1713
  178MOL0     H24004   7.519   0.266   7.898 -0.5890  0.5269  1.2020
  178MOL0     H24005   7.495   0.094   7.879 -0.8677 -1.7826  1.9831
  178MOL0     H24006   7.451   0.269   8.130 -0.4166 -0.9934  0.6725
  178MOL0     H24007   7.438   0.092   8.136  0.7406  1.9475  2.8881
  178MOL0     H24008   7.275   0.104   7.973  2.2367 -0.6191  1.1106
  178MOL0     H24009   7.229   0.194   8.121  0.6547 -1.9282  1.9191
  178MOL0     H24010   8.107   0.555   7.922  0.2865 -2.2561  3.4383
  178MOL0     H24011   8.327   0.536   8.016 -0.2448 -0.7128  0.5427
  178MOL0     H24012   8.784   0.132   8.032  1.9717 -1.3925 -2.0195
  178MOL0     H24013   9.001   0.166   8.124 -1.0382  1.5233  2.3131
  178MOL0     H24014  10.793   0.488   8.867 -0.2258 -1.9208  2.0735
  178MOL0     H24015  11.038   0.554   8.867  1.4274  1.6824 -3.5442
  178MOL0     H24016  11.347   0.650   8.394 -1.7068  0.6919  1.1976
  178MOL0     H24017  11.577   0.750   8.348 -0.3365  3.2250  0.7390
  178MOL0     H24018  11.786   0.888   8.572 -2.6416 -3.0808  1.2317
  178MOL0     H24019  11.765   0.895   8.400 -0.0434  1.6946  0.8675
  178MOL0     H24020  11.995   0.962   8.426 -1.7461 -0.0207  0.1681
  178MOL0     H24021  11.968   0.801   8.351  1.9765 -1.5649  0.7042
  178MOL0     H24022  12.163   0.803   8.492  0.6500 -0.4177 -1.3452
  178MOL0     H24023  12.057   0.676   8.528 -0.6581  0.5850 -0.1776
  178MOL0     H24024  12.004   0.783   8.746  1.5689 -1.8042  0.7228
  178MOL0     H24025  12.177   0.796   8.712 -0.0319 -0.2997 -1.2128
  178MOL0     H24026  12.040   1.201   8.732  1.1379  0.3457  0.2698
  178MOL0     H24027  11.729   0.545   8.704 -0.7008  0.4716  1.3545
  178MOL0     H24028  11.454   0.319   8.754  0.3088 -2.3124  1.0572
  178MOL0     H24029  11.613   0.354   8.793 -0.6264 -0.4073  1.4983
  178MOL0     H24030  11.492   0.451   8.872  0.6479 -0.8722 -0.0502
  179MOL0     O24031   7.304   8.304   1.433  0.8671  0.5170 -0.2129
  179MOL0     C24032   7.274   8.284   1.318 -0.1256 -0.0772  0.7831
  179MOL0     O24033   7.369   8.259   1.225 -0.2559  0.3277  0.4076
  179MOL0     C24034   7.502   8.262   1.243  0.3089  0.1062  0.4629
  179MOL0     C24035   7.579   8.175   1.160  0.6482  0.0376 -0.2642
  179MOL0     C24036   7.717   8.173   1.165 -0.6620  0.2123  0.0061
  179MOL0     C24037   7.788   8.253   1.249 -1.0001 -0.3421  0.1773
  179MOL0     O24038   7.927   8.247   1.239  0.5898  0.3981  0.1189
  179MOL0     C24039   8.011   8.358   1.268  0.6381 -0.1592  0.7146
  179MOL0     C24040   8.166   8.319   1.240  0.7371  0.2985 -0.8868
  179MOL0     C24041   8.202   8.195   1.322 -0.4992 -0.2422 -0.1912
  179MOL0     C24042   8.160   8.205   1.469 -0.0141  0.1639  0.0682
  179MOL0     C24043   8.241   8.132   1.566  0.0730  0.3923 -0.5637
  179MOL0     C24044   8.176   8.141   1.709  0.2598  0.7012  0.3142
  179MOL0     C24045   8.236   8.034   1.803  0.4422 -0.4773 -0.7954
  179MOL0     C24046   8.215   8.075   1.950 -0.8531  0.1502  0.0078
  179MOL0     N24047   8.227   7.951   2.028  0.3307 -0.3826  0.0913
  179MOL0     C24048   8.132   7.850   2.018 -0.9262  0.4596 -0.6870
  179MOL0     C24049   8.175   7.746   2.095 -1.0328 -0.3260  0.9716
  179MOL0     C24050   8.094   7.624   2.133 -0.1561 -0.0144 -0.0675
  179MOL0     C24051   7.948   7.658   2.167 -0.2074  1.3280 -0.4763
  179MOL0     C24052   7.889   7.535   2.231  0.1718  0.2385 -0.7474
  179MOL0     C24053   7.733   7.537   2.237  0.2976  0.3749 -0.7515
  179MOL0     O24054   7.678   7.669   2.263 -0.5951 -0.3768  0.7320
  179MOL0     C24055   7.539   7.686   2.256  0.3998  0.6695 -0.0966
  179MOL0     C24056   7.481   7.817   2.246  0.2834 -0.0852 -0.3528
  179MOL0     C24057   7.343   7.833   2.239  1.3657 -0.4790  0.1171
  179MOL0     C24058   7.253   7.725   2.227 -0.5750  0.8461  0.1128
  179MOL0     C24059   7.101   7.727   2.207 -0.3934 -0.2228 -0.6039
  179MOL0     O24060   7.034   7.615   2.241 -0.4698 -0.2975 -0.5811
  179MOL0     C24061   6.905   7.595   2.191 -0.5329  0.2973 -0.7348
  179MOL0     C24062   6.850   7.653   2.078  0.4736 -0.5271 -0.0230
  179MOL0     C24063   6.714   7.623   2.045 -0.0679  0.4684  0.3916
  179MOL0     C24064   6.641   7.528   2.116 -0.2666 -0.5678 -0.3071
  179MOL0     O24065   6.514   7.514   2.078  0.4947  0.1176  0.4289
  179MOL0     C24066   6.406   7.567   2.153 -0.3796 -1.3654 -0.5593
  179MOL0     C24067   6.278   7.516   2.112  0.7601  0.0831  0.3091
  179MOL0     C24068   6.247   7.376   2.161  0.0420  0.5997 -0.4691
  179MOL0     C24069   6.158   7.379   2.289  0.0676  0.5952 -0.9711
  179MOL0     C24070   6.119   7.235   2.352 -0.3387  0.7143  0.9741
  179MOL0     C24071   6.057   7.145   2.242  0.2066  1.4920  0.5171
  179MOL0     C24072   5.938   7.201   2.176 -0.0492  0.8361  0.7411
  179MOL0     C24073   5.847   7.097   2.108 -0.3950 -0.5620 -0.5277
  179MOL0    Cl24074   5.781   7.155   1.962  0.3282  0.3902 -0.0634
  179MOL0     C24075   6.698   7.472   2.219  0.8276  0.1360 -0.3011
  179MOL0     C24076   6.833   7.499   2.259 -0.8095 -1.1518 -1.2448
  179MOL0     O24077   7.052   7.834   2.173 -0.2333  0.1581  0.5080
  179MOL0     C24078   7.314   7.597   2.233 -0.7371 -0.8782  0.3164
  179MOL0     C24079   7.450   7.580   2.237 -0.2433  1.1929  0.5816
  179MOL0     N24080   8.306   7.764   2.123 -0.0450 -0.1023  0.0517
  179MOL0     N24081   8.329   7.892   2.087  0.2384  0.1648 -0.7129
  179MOL0     C24082   7.719   8.330   1.337  0.4207 -0.2366 -0.5791
  179MOL0     C24083   7.577   8.341   1.336  0.2021 -0.8680  0.3393
  179MOL0     C24084   7.127   8.286   1.271  0.2265 -0.3468  0.1303
  179MOL0     C24085   7.100   8.275   1.127 -0.4035 -0.1174 -0.5570
  179MOL0     C24086   6.976   8.288   1.080 -0.3819  0.0214 -0.3682
  179MOL0     C24087   6.868   8.306   1.170 -0.1964  0.3517  0.6696
  179MOL0     O24088   6.750   8.328   1.120  0.7800  0.3344 -0.6282
  179MOL0     C24089   6.655   8.235   1.175 -0.0487  1.3846  0.0940
  179MOL0     C24090   6.528   8.234   1.095  0.2721 -0.0695 -0.4937
  179MOL0     C24091   6.430   8.123   1.141 -0.2982 -0.5760 -0.3733
  179MOL0     C24092   6.492   7.981   1.164  0.4196 -0.6274 -0.9044
  179MOL0     C24093   6.379   7.888   1.214 -1.3700 -0.6323  0.0949
  179MOL0     C24094   6.290   7.814   1.248 -0.0075 -0.4586  0.0355
  179MOL0     C24095   6.897   8.313   1.303  0.0428 -0.2007 -0.4419
  179MOL0     C24096   7.016   8.300   1.365 -0.8313 -0.3112 -0.2229
  179MOL0     C24097   7.034   8.282   1.512 -0.7045  1.1436 -0.0199
  179MOL0     H24098   7.515   8.120   1.092 -1.2094  0.2126  1.2598
  179MOL0     H24099   7.778   8.126   1.089  3.5312  3.3304  1.0166
  179MOL0     H24100   7.980   8.433   1.194  0.3917 -0.5918  0.3759
  179MOL0     H24101   8.004   8.389   1.373  2.3478 -0.3768  0.9205
  179MOL0     H24102   8.243   8.394   1.256 -0.3000  1.0311  1.0901
  179MOL0     H24103   8.168   8.285   1.136  0.7643 -2.0439 -0.1853
  179MOL0     H24104   8.310   8.184   1.324 -0.2816  0.9496 -2.2043
  179MOL0     H24105   8.165   8.100   1.282 -1.1628 -0.2611  0.4474
  179MOL0     H24106   8.160   8.310   1.499 -0.3669  0.9146 -2.3824
  179MOL0     H24107   8.056   8.170   1.472 -0.1618  0.4586 -1.0526
  179MOL0     H24108   8.236   8.027   1.537 -3.0634  0.4127 -0.3898
  179MOL0     H24109   8.342   8.173   1.577  0.3645 -0.7955  1.6311
  179MOL0     H24110   8.174   8.241   1.752  2.4311  0.7868  0.3205
  179MOL0     H24111   8.072   8.109   1.698  1.1782 -2.7332  0.5348
  179MOL0     H24112   8.342   8.027   1.775  0.8819  3.1299 -0.5948
  179MOL0     H24113   8.182   7.940   1.792 -2.8146  1.1212  0.2256
  179MOL0     H24114   8.294   8.145   1.980 -0.0661 -0.6178 -0.2230
  179MOL0     H24115   8.125   8.134   1.970 -0.0097  1.1809  0.8922
  179MOL0     H24116   8.036   7.852   1.969 -0.2362  1.7342 -2.0832
  179MOL0     H24117   8.083   7.552   2.051 -3.1228 -1.7486  1.6839
  179MOL0     H24118   8.146   7.565   2.210 -2.2816 -2.0556 -0.0832
  179MOL0     H24119   7.952   7.742   2.237  1.9545  1.8397 -1.1407
  179MOL0     H24120   7.896   7.686   2.075 -3.8776 -1.7796  0.3668
  179MOL0     H24121   7.919   7.549   2.335 -0.4896 -0.6982 -0.4214
  179MOL0     H24122   7.931   7.435   2.216  1.3139  0.5666  0.1591
  179MOL0     H24123   7.703   7.493   2.333 -2.6777  0.8496 -1.3777
  179MOL0     H24124   7.676   7.483   2.162  0.6378  1.1093 -1.5596
  179MOL0     H24125   7.546   7.904   2.245 -2.0403  1.8268  1.0915
  179MOL0     H24126   7.304   7.932   2.219  0.0101 -0.5063  2.2424
  179MOL0     H24127   6.902   7.729   2.020  2.5594  0.6339  3.0836
  179MOL0     H24128   6.661   7.684   1.973  1.1248  2.0633  0.8031
  179MOL0     H24129   6.426   7.550   2.260 -1.6188  1.3586  0.1958
  179MOL0     H24130   6.403   7.676   2.143  1.4754 -1.2480 -0.3119
  179MOL0     H24131   6.189   7.577   2.132  0.0805 -1.1071  1.0569
  179MOL0     H24132   6.274   7.519   2.003 -1.3345  1.1457  0.3612
  179MOL0     H24133   6.201   7.314   2.083 -1.2802  0.2208  0.5780
  179MOL0     H24134   6.341   7.331   2.194  0.8299  1.2458 -1.7454
  179MOL0     H24135   6.069   7.435   2.261  0.5838  1.4099 -1.0306
  179MOL0     H24136   6.207   7.438   2.368  1.5648 -2.5759  0.6690
  179MOL0     H24137   6.054   7.251   2.439  0.1652  1.8190  1.1694
  179MOL0     H24138   6.199   7.175   2.396 -0.0183  0.2922 -0.1466
  179MOL0     H24139   6.132   7.106   2.172 -0.3913  0.6644  0.3203
  179MOL0     H24140   6.031   7.053   2.294  4.2958 -0.0057  0.2823
  179MOL0     H24141   5.977   7.283   2.114  1.3694  0.5668  1.2327
  179MOL0     H24142   5.873   7.253   2.246  0.3305  1.2068  0.8242
  179MOL0     H24143   5.911   7.011   2.085  0.9643  0.7299 -1.8533
  179MOL0     H24144   5.761   7.058   2.162  3.1209 -4.6158  2.9207
  179MOL0     H24145   6.651   7.383   2.260  1.7932  0.3231  1.3179
  179MOL0     H24146   6.880   7.443   2.340 -0.2713 -1.5391 -1.8159
  179MOL0     H24147   7.250   7.511   2.218 -1.3968 -0.5999  1.4066
  179MOL0     H24148   7.477   7.476   2.225  1.6246  1.9648 -5.1425
  179MOL0     H24149   7.770   8.396   1.405  0.8251  0.3859 -1.4798
  179MOL0     H24150   7.526   8.417   1.394  0.6660  0.4095 -0.8864
  179MOL0     H24151   7.183   8.255   1.061 -1.6791  0.8584 -2.5592
  179MOL0     H24152   6.939   8.296   0.978 -2.2377 -1.1796  0.1646
  179MOL0     H24153   6.636   8.253   1.281  3.5088 -1.0536  1.3686
  179MOL0     H24154   6.695   8.133   1.166  1.3954  2.0465 -1.5504
  179MOL0     H24155   6.556   8.198   0.996  0.2740  2.3616 -1.4586
  179MOL0     H24156   6.489   8.335   1.077  4.8507  1.9526 -0.6411
  179MOL0     H24157   6.345   8.121   1.072  1.5957 -2.0578 -2.8300
  179MOL0     H24158   6.400   8.163   1.238  2.4982 -0.6771  0.6216
  179MOL0     H24159   6.539   7.927   1.081  0.1015  0.5144 -1.8646
  179MOL0     H24160   6.560   7.992   1.248 -1.0470 -0.1090  0.2561
  179MOL0     H24161   6.207   7.755   1.278 -0.4772  1.0645  1.9894
  179MOL0     H24162   6.811   8.325   1.369 -0.8448 -1.1861 -1.3690
  179MOL0     H24163   6.935   8.281   1.559 -1.1328  2.2020 -0.8703
  179MOL0     H24164   7.073   8.180   1.524 -6.5135 -1.7939 -2.1890
  179MOL0     H24165   7.093   8.363   1.554  0.6009  1.4175 -2.2370
  180MOL0     O24166  10.925   8.969   8.536  0.8294 -0.5788 -0.2591
  180MOL0     C24167  10.838   9.016   8.460 -0.6587 -0.5884 -0.4945
  180MOL0     O24168  10.860   9.116   8.365  0.1694  0.0195  0.4540
  180MOL0     C24169  10.987   9.148   8.323 -0.9405 -0.2766 -1.1040
  180MOL0     C24170  10.996   9.278   8.280  0.8668 -0.7453  0.1514
  180MOL0     C24171  11.112   9.333   8.233 -0.1639 -0.0005 -0.5097
  180MOL0     C24172  11.227   9.253   8.224 -0.7265  0.2360 -0.2689
  180MOL0     O24173  11.337   9.309   8.170 -0.4379  0.4450  0.1251
  180MOL0     C24174  11.446   9.215   8.163 -1.1290 -0.4406  0.1891
  180MOL0     C24175  11.543   9.286   8.066  0.3203 -0.6558  0.9497
  180MOL0     C24176  11.686   9.213   8.062 -0.7490 -0.1214 -0.1952
  180MOL0     C24177  11.783   9.270   7.961 -0.8347  0.0486  0.3131
  180MOL0     C24178  11.936   9.215   7.953 -0.2017 -0.2540  0.0612
  180MOL0     C24179  12.033   9.279   8.062 -0.9247 -0.1077 -0.6648
  180MOL0     C24180  12.179   9.228   8.049 -0.5905  0.7896 -0.2716
  180MOL0     C24181  12.273   9.291   8.152  0.7140 -0.1404 -0.1892
  180MOL0     N24182  12.412   9.244   8.152  0.3847 -0.0624 -0.7052
  180MOL0     C24183  12.509   9.305   8.075  0.8099 -0.8752 -0.1801
  180MOL0     C24184  12.613   9.220   8.073  0.1508 -0.4106 -0.6977
  180MOL0     C24185  12.739   9.250   7.997  0.4131 -0.5210 -0.7278
  180MOL0     C24186  12.801   9.382   8.055  0.5912 -0.0558 -0.2439
  180MOL0     C24187  12.916   9.429   7.970 -0.0281  0.4333 -0.8584
  180MOL0     C24188  13.028   9.332   7.937  0.1048 -0.1000  0.4493
  180MOL0     O24189  13.127   9.411   7.871 -0.4369  0.0284 -0.3775
  180MOL0     C24190  13.247   9.353   7.882  0.1741 -0.2492 -0.0717
  180MOL0     C24191  13.316   9.374   7.999 -1.6776 -0.5645  0.1243
  180MOL0     C24192  13.442   9.306   8.021  0.4830 -0.0916  0.8381
  180MOL0     C24193  13.499   9.221   7.916 -0.6102 -0.7053  0.3765
  180MOL0     C24194  13.627   9.152   7.945  0.2030  0.4546 -0.8938
  180MOL0     O24195  13.693   9.195   8.052 -0.0113 -0.0574 -0.2275
  180MOL0     C24196  13.811   9.135   8.089  0.3127  1.5766 -0.0478
  180MOL0     C24197  13.935   9.171   8.041  0.4683  0.7684  0.2083
  180MOL0     C24198  14.043   9.093   8.090  0.3288  0.3862  0.6473
  180MOL0     C24199  14.031   8.979   8.170 -1.5433 -0.2445  0.2554
  180MOL0     O24200  14.135   8.905   8.206  0.0103 -0.0917 -0.5939
  180MOL0     C24201  14.158   8.789   8.117  0.0500  0.1332  0.7675
  180MOL0     C24202  14.257   8.818   8.007 -0.7670 -1.1251  0.0922
  180MOL0     C24203  14.405   8.833   8.057  0.0950 -0.0126 -0.5992
  180MOL0     C24204  14.488   8.889   7.942 -0.5481  0.1532  0.3140
  180MOL0     C24205  14.632   8.901   7.992  0.2100  0.2769  1.0079
  180MOL0     C24206  14.708   9.005   7.918 -0.1555  0.0162  0.2214
  180MOL0     C24207  14.852   8.999   7.954  0.1095 -0.6003  0.3769
  180MOL0     C24208  14.940   9.051   7.839 -0.2066 -0.1054  0.2402
  180MOL0    Cl24209  15.100   9.083   7.915  0.1205  0.3865 -0.5382
  180MOL0     C24210  13.899   8.948   8.204 -0.4541  0.0450 -0.5735
  180MOL0     C24211  13.791   9.026   8.178 -0.3668 -0.1578 -0.0901
  180MOL0     O24212  13.661   9.060   7.877  0.3035  0.8003  0.0384
  180MOL0     C24213  13.429   9.212   7.797  0.3646  0.0041  0.4350
  180MOL0     C24214  13.304   9.274   7.783 -0.3255 -0.0973  0.4550
  180MOL0     N24215  12.576   9.103   8.138  0.7410  0.0666  0.0873
  180MOL0     N24216  12.458   9.119   8.186 -0.6249 -0.3660 -0.4222
  180MOL0     C24217  11.226   9.120   8.275  0.3271 -0.0141  0.2240
  180MOL0     C24218  11.105   9.073   8.323  0.1835  0.0465  0.4219
  180MOL0     C24219  10.696   8.975   8.472  0.8554 -0.3974 -0.2870
  180MOL0     C24220  10.598   9.079   8.442  0.5304  0.1973 -0.0920
  180MOL0     C24221  10.467   9.042   8.452  1.0927 -0.8980 -0.4258
  180MOL0     C24222  10.424   8.917   8.498  0.0644 -0.6526 -0.1305
  180MOL0     O24223  10.290   8.901   8.500 -0.0181 -0.1577  0.0425
  180MOL0     C24224  10.231   8.787   8.568 -0.0753 -1.2723  0.3630
  180MOL0     C24225  10.109   8.824   8.642 -0.0545 -0.8317 -0.4972
  180MOL0     C24226  10.133   8.944   8.733  0.3867  0.0555 -0.4526
  180MOL0     C24227  10.140   9.082   8.667 -0.7980 -0.2506  0.3407
  180MOL0     C24228  10.092   9.189   8.754 -0.0486  0.2226 -0.2096
  180MOL0     C24229  10.075   9.285   8.832  0.4190 -0.7386  0.5666
  180MOL0     C24230  10.512   8.813   8.523 -0.5181  0.5335  0.2528
  180MOL0     C24231  10.654   8.844   8.509 -0.7369  0.8063 -0.6649
  180MOL0     C24232  10.758   8.735   8.527  0.1718  0.3987  0.8942
  180MOL0     H24233  10.902   9.332   8.284  1.7583  1.1754 -2.3591
  180MOL0     H24234  11.114   9.434   8.194  0.5163 -0.3582 -1.4244
  180MOL0     H24235  11.496   9.207   8.260 -0.0559 -1.2624 -0.4116
  180MOL0     H24236  11.420   9.116   8.125 -0.1935  0.0130 -1.7337
  180MOL0     H24237  11.558   9.394   8.081  0.2877 -0.2088 -1.7992
  180MOL0     H24238  11.505   9.276   7.964  2.4141 -1.7595  0.2336
  180MOL0     H24239  11.675   9.111   8.023  0.5590 -0.4267  0.2020
  180MOL0     H24240  11.727   9.207   8.163 -0.6781 -0.5965 -0.2509
  180MOL0     H24241  11.744   9.244   7.862  0.7959  1.4173 -0.7545
  180MOL0     H24242  11.792   9.379   7.970 -1.0925  0.3407 -2.2091
  180MOL0     H24243  11.940   9.106   7.962 -0.7798 -0.4283 -1.4626
  180MOL0     H24244  11.968   9.229   7.849  2.4001 -2.9259  0.3555
  180MOL0     H24245  12.042   9.388   8.060  1.7509 -0.2474 -0.2204
  180MOL0     H24246  12.014   9.241   8.163  1.7015 -2.3026 -0.8981
  180MOL0     H24247  12.217   9.250   7.948 -0.1748  0.3125 -0.2248
  180MOL0     H24248  12.180   9.120   8.066  4.1614  0.7352  0.4076
  180MOL0     H24249  12.260   9.394   8.117  0.1362 -0.1133  0.1001
  180MOL0     H24250  12.225   9.290   8.250  0.0638 -2.4238 -0.4852
  180MOL0     H24251  12.505   9.406   8.035 -0.9511 -0.7508  0.2480
  180MOL0     H24252  12.802   9.160   7.995 -1.4678 -1.9273  0.5086
  180MOL0     H24253  12.695   9.263   7.897 -3.8657 -0.4207  0.9746
  180MOL0     H24254  12.733   9.467   8.065 -0.9860 -1.1620 -1.1963
  180MOL0     H24255  12.835   9.361   8.157  0.6636  4.8211  1.0058
  180MOL0     H24256  12.966   9.514   8.018 -2.3830  0.9328  0.8909
  180MOL0     H24257  12.871   9.466   7.878 -1.1296  0.3916 -0.3538
  180MOL0     H24258  12.991   9.256   7.867 -0.9320  0.4168  0.4211
  180MOL0     H24259  13.057   9.298   8.037  1.2145  0.1842  0.2403
  180MOL0     H24260  13.267   9.438   8.071 -1.4683  0.0162 -0.2429
  180MOL0     H24261  13.500   9.329   8.109  0.2998  1.3163  0.6147
  180MOL0     H24262  13.957   9.249   7.969 -0.7237 -0.5452 -1.6939
  180MOL0     H24263  14.143   9.120   8.057  0.9828  1.2464  3.1019
  180MOL0     H24264  14.194   8.704   8.176  4.5328  1.9014  1.0020
  180MOL0     H24265  14.074   8.748   8.061  1.8576 -3.8419  0.5557
  180MOL0     H24266  14.263   8.733   7.938  0.5038  0.4436 -1.8248
  180MOL0     H24267  14.231   8.904   7.945 -1.5336 -0.1480  1.6884
  180MOL0     H24268  14.396   8.891   8.150  0.2115 -0.4170 -0.3319
  180MOL0     H24269  14.443   8.733   8.080 -3.1598 -1.1887  0.1733
  180MOL0     H24270  14.458   8.988   7.907 -1.8950 -0.3726 -0.1058
  180MOL0     H24271  14.470   8.826   7.854 -0.7448  0.7496 -0.0798
  180MOL0     H24272  14.687   8.807   7.982 -0.5182 -0.1610  1.0627
  180MOL0     H24273  14.618   8.913   8.099  0.8643 -0.7796  1.2295
  180MOL0     H24274  14.690   8.988   7.812  0.1818  0.2395  0.1252
  180MOL0     H24275  14.667   9.101   7.951  1.0277  0.6423 -0.0830
  180MOL0     H24276  14.891   8.898   7.969  1.0658  0.0432  2.5470
  180MOL0     H24277  14.875   9.055   8.044  0.7568 -0.3073  0.0313
  180MOL0     H24278  14.945   8.979   7.757  1.6203 -1.5976  1.5728
  180MOL0     H24279  14.890   9.142   7.804  0.3857 -0.4274 -1.5226
  180MOL0     H24280  13.883   8.863   8.270 -2.1441  2.4591  2.4374
  180MOL0     H24281  13.692   9.008   8.219 -0.6199  0.8330 -0.2458
  180MOL0     H24282  13.477   9.166   7.712  1.7198  1.0822  0.5828
  180MOL0     H24283  13.257   9.264   7.685 -1.0024  2.0520  0.4978
  180MOL0     H24284  11.309   9.050   8.281  0.3211 -0.2164 -1.4301
  180MOL0     H24285  11.098   8.967   8.344  0.1434 -0.5345 -2.2005
  180MOL0     H24286  10.625   9.179   8.411 -2.3771  0.2153 -3.0592
  180MOL0     H24287  10.393   9.116   8.421  1.4003 -1.5727 -3.0901
  180MOL0     H24288  10.302   8.741   8.637 -1.5750 -1.4347  1.8652
  180MOL0     H24289  10.209   8.705   8.499 -3.7708  0.5499 -0.9367
  180MOL0     H24290  10.073   8.740   8.702 -0.5863 -0.0267  0.3390
  180MOL0     H24291  10.031   8.844   8.568  0.8256 -0.0130 -1.2474
  180MOL0     H24292  10.222   8.929   8.796  2.9972  2.9350 -3.1033
  180MOL0     H24293  10.040   8.947   8.790 -0.9178  2.7198 -2.4818
  180MOL0     H24294  10.245   9.107   8.650 -1.4877  0.6457 -3.4362
  180MOL0     H24295  10.080   9.090   8.576  0.8646 -0.2764 -0.7845
  180MOL0     H24296  10.039   9.366   8.891  2.0179 -0.0692  0.6609
  180MOL0     H24297  10.477   8.711   8.538 -0.9291  0.6163 -0.1313
  180MOL0     H24298  10.709   8.637   8.526 -1.1776  1.0551  0.5671
  180MOL0     H24299  10.832   8.737   8.446 -0.6046 -1.5392  0.0804
  180MOL0     H24300  10.807   8.749   8.624  2.7797  2.3629 -0.5522
  181MOL0     O24301  10.239   2.570   3.338  0.1731  0.1456  0.0952
  181MOL0     C24302  10.303   2.584   3.235  0.2103 -0.2312  0.0022
  181MOL0     O24303  10.244   2.610   3.114 -0.9167 -0.8777 -0.7730
  181MOL0     C24304  10.132   2.682   3.104 -0.0445  0.4040  0.4870
  181MOL0     C24305  10.109   2.811   3.165  0.6597 -0.8556 -0.1319
  181MOL0     C24306   9.980   2.873   3.144  0.1062  0.2021  0.1285
  181MOL0     C24307   9.877   2.817   3.064  0.6122 -0.2789 -1.1141
  181MOL0     O24308   9.752   2.870   3.048  0.8303  0.9061  0.8139
  181MOL0     C24309   9.711   2.998   3.099  0.1985 -0.3946 -0.0206
  181MOL0     C24310   9.638   2.971   3.238 -0.7744  1.2941 -0.3888
  181MOL0     C24311   9.725   2.984   3.362  0.2064  0.9021  0.9373
  181MOL0     C24312   9.634   2.972   3.492 -0.9905  0.1341 -0.1466
  181MOL0     C24313   9.722   3.019   3.615  0.2772  0.2064  0.1229
  181MOL0     C24314   9.647   3.018   3.751  0.3874  0.6994 -0.1181
  181MOL0     C24315   9.572   2.881   3.783  0.2260  0.1101 -0.2610
  181MOL0     C24316   9.668   2.762   3.774 -0.4380 -0.3798 -0.9809
  181MOL0     N24317   9.601   2.632   3.808  0.4005  0.2175  0.5129
  181MOL0     C24318   9.524   2.557   3.718 -0.3413  0.2862 -0.4657
  181MOL0     C24319   9.514   2.444   3.778  0.5307  0.3339 -0.0732
  181MOL0     C24320   9.456   2.320   3.721  0.2139 -0.0578  0.2615
  181MOL0     C24321   9.566   2.243   3.647 -0.1721  0.7232 -0.6137
  181MOL0     C24322   9.683   2.215   3.742  0.5569 -0.1028 -0.0079
  181MOL0     C24323   9.627   2.141   3.870  0.0012 -0.2464 -0.2546
  181MOL0     O24324   9.723   2.042   3.928 -0.0413  0.3122  0.7566
  181MOL0     C24325   9.860   2.064   3.961  0.4584 -0.3655  0.0117
  181MOL0     C24326   9.939   1.954   3.995  0.0835  0.9829 -0.2659
  181MOL0     C24327  10.073   1.970   4.025 -0.2618 -0.2130 -1.6636
  181MOL0     C24328  10.134   2.106   4.029  1.1961  0.5538  0.0566
  181MOL0     C24329  10.280   2.120   4.044 -1.0114 -0.4547 -0.4065
  181MOL0     O24330  10.349   2.015   4.095 -0.4800 -0.1913  0.5995
  181MOL0     C24331  10.483   2.015   4.087  0.0107  0.1634 -0.4525
  181MOL0     C24332  10.551   1.989   4.206 -0.7458  0.7331 -0.2579
  181MOL0     C24333  10.694   1.984   4.210 -0.4715 -1.0256  0.9837
  181MOL0     C24334  10.773   2.007   4.093  0.7209 -0.0126  0.2582
  181MOL0     O24335  10.909   2.021   4.106 -1.0003  0.0621  0.9740
  181MOL0     C24336  10.995   2.093   4.011  1.3117  0.0193 -0.0205
  181MOL0     C24337  11.121   2.145   4.073  0.4165 -0.1566  0.7915
  181MOL0     C24338  11.206   2.038   4.132 -0.9570 -0.1864  0.0812
  181MOL0     C24339  11.330   2.091   4.202  0.6566 -0.3672 -0.3134
  181MOL0     C24340  11.443   2.128   4.109 -0.7658  0.5916 -0.7184
  181MOL0     C24341  11.524   1.996   4.072 -0.0066  0.2542 -0.3212
  181MOL0     C24342  11.626   2.033   3.961 -0.4697 -0.1700 -0.4529
  181MOL0     C24343  11.726   1.927   3.917  0.1627 -0.3105 -0.2407
  181MOL0    Cl24344  11.876   1.916   4.009  0.2172 -0.0096 -0.0737
  181MOL0     C24345  10.704   2.033   3.978 -0.8197 -0.3315  1.1548
  181MOL0     C24346  10.561   2.043   3.974  0.2073 -1.1384  0.5083
  181MOL0     O24347  10.328   2.215   3.982 -0.0971  0.3674 -0.2176
  181MOL0     C24348  10.046   2.216   3.999  0.0302  0.1949 -0.7570
  181MOL0     C24349   9.911   2.190   3.972  0.6021 -0.9664  0.6088
  181MOL0     N24350   9.569   2.453   3.908 -0.4997 -0.2621  0.2256
  181MOL0     N24351   9.605   2.571   3.929 -0.4604 -0.3968  0.1529
  181MOL0     C24352   9.911   2.700   2.993 -0.3351  0.3864 -0.1273
  181MOL0     C24353  10.029   2.625   3.019 -0.6531 -0.5469  0.5138
  181MOL0     C24354  10.445   2.536   3.220  0.0503  0.7575 -0.3245
  181MOL0     C24355  10.495   2.491   3.097 -0.6178  0.8424  0.2676
  181MOL0     C24356  10.620   2.420   3.090  0.6964 -0.2760 -0.4353
  181MOL0     C24357  10.700   2.403   3.207 -0.2410 -0.3277  0.4720
  181MOL0     O24358  10.802   2.320   3.194 -0.9001  0.0047 -0.7310
  181MOL0     C24359  10.905   2.311   3.295 -0.5463 -0.3551 -0.3082
  181MOL0     C24360  10.998   2.192   3.271 -0.2402  0.6723  0.9720
  181MOL0     C24361  10.921   2.056   3.243  1.1155 -0.6561  1.4469
  181MOL0     C24362  11.018   1.942   3.231  0.3905  0.4866 -0.0783
  181MOL0     C24363  11.085   1.948   3.094 -0.0805 -0.4412 -0.0647
  181MOL0     C24364  11.124   1.948   2.975  0.2222 -0.1076 -0.2849
  181MOL0     C24365  10.654   2.469   3.322  0.0087 -0.1236 -0.7579
  181MOL0     C24366  10.530   2.533   3.333  0.0522  0.4970 -0.7426
  181MOL0     C24367  10.485   2.595   3.470 -0.3127 -0.9107  0.6416
  181MOL0     H24368  10.189   2.860   3.219 -0.4015  0.4989  0.2680
  181MOL0     H24369   9.970   2.971   3.191  0.5852  0.1531  0.3430
  181MOL0     H24370   9.786   3.077   3.103  0.0631 -0.2482 -0.3337
  181MOL0     H24371   9.638   3.035   3.026  1.6516  2.2128 -0.2739
  181MOL0     H24372   9.593   2.872   3.239 -1.8274  1.7527  1.6914
  181MOL0     H24373   9.556   3.043   3.251 -1.3121  0.3814  1.4511
  181MOL0     H24374   9.782   3.078   3.366  1.5885  0.0420  2.4101
  181MOL0     H24375   9.795   2.901   3.349 -1.8941 -0.6141 -1.8137
  181MOL0     H24376   9.547   3.039   3.489 -1.5517 -0.5529  0.5695
  181MOL0     H24377   9.604   2.868   3.503 -1.3482  0.4168  1.8781
  181MOL0     H24378   9.804   2.947   3.623 -1.5995 -1.8888  2.7559
  181MOL0     H24379   9.770   3.116   3.602 -0.5439  0.3266 -2.5739
  181MOL0     H24380   9.713   3.041   3.835 -1.4527 -2.2753  2.3589
  181MOL0     H24381   9.566   3.092   3.749 -0.9946 -0.6966  1.3065
  181MOL0     H24382   9.501   2.864   3.701 -1.0085 -2.2632  1.1661
  181MOL0     H24383   9.532   2.899   3.883  1.1778 -0.8305  0.3168
  181MOL0     H24384   9.701   2.781   3.672 -1.2989  0.2289 -1.1613
  181MOL0     H24385   9.749   2.776   3.846 -0.5399  1.3455 -1.1507
  181MOL0     H24386   9.478   2.589   3.625 -1.5143  2.1290  0.6751
  181MOL0     H24387   9.417   2.269   3.809 -1.5537 -2.5497 -1.8199
  181MOL0     H24388   9.365   2.328   3.660  0.4913  0.8687 -0.0626
  181MOL0     H24389   9.523   2.151   3.608 -0.9856  1.8409 -2.4950
  181MOL0     H24390   9.602   2.296   3.558 -0.6273 -1.4867 -2.1914
  181MOL0     H24391   9.737   2.306   3.767  1.1826 -0.7380  1.0468
  181MOL0     H24392   9.766   2.160   3.696  1.7750  0.4833  1.4124
  181MOL0     H24393   9.541   2.082   3.837  0.1158 -2.4169  2.9129
  181MOL0     H24394   9.603   2.202   3.957  1.4745 -0.2175  0.1608
  181MOL0     H24395   9.887   1.859   3.994 -2.1255  2.0007  3.0050
  181MOL0     H24396  10.147   1.895   4.051 -1.8147 -0.6194  2.3773
  181MOL0     H24397  10.489   1.971   4.293  0.3668 -2.5489 -0.0330
  181MOL0     H24398  10.745   1.967   4.305 -1.7093 -3.6944  1.2541
  181MOL0     H24399  11.025   2.025   3.931  1.4086  0.7502 -0.6190
  181MOL0     H24400  10.944   2.167   3.949  4.6163  0.2175 -2.8181
  181MOL0     H24401  11.181   2.194   3.996 -1.0201  1.0861  0.3969
  181MOL0     H24402  11.088   2.213   4.152 -0.5415 -1.0168  1.1560
  181MOL0     H24403  11.151   1.981   4.208 -0.1232 -2.1479 -0.7206
  181MOL0     H24404  11.224   1.958   4.060  0.5133 -1.0963  1.4124
  181MOL0     H24405  11.365   2.013   4.270  1.1260 -1.1636 -1.4426
  181MOL0     H24406  11.302   2.173   4.268 -1.2554  1.4582 -3.2074
  181MOL0     H24407  11.511   2.201   4.153  0.0491 -0.5995  0.0640
  181MOL0     H24408  11.415   2.170   4.012  0.3048 -1.3595 -1.9515
  181MOL0     H24409  11.573   1.956   4.161 -2.6047 -1.3779  0.5079
  181MOL0     H24410  11.463   1.918   4.024  2.8921 -2.2859 -0.1645
  181MOL0     H24411  11.680   2.118   4.005  1.0279 -1.3839  0.1250
  181MOL0     H24412  11.566   2.059   3.873 -4.1146 -2.8171  0.9836
  181MOL0     H24413  11.671   1.834   3.901 -2.1452  1.1577 -1.5307
  181MOL0     H24414  11.762   1.952   3.817  0.4324 -2.7382 -0.8060
  181MOL0     H24415  10.764   2.052   3.890  1.9211 -2.0011  2.5225
  181MOL0     H24416  10.519   2.076   3.879  0.7647 -1.4019  0.1649
  181MOL0     H24417  10.093   2.313   4.002  0.6773 -0.1342 -0.2544
  181MOL0     H24418   9.855   2.279   3.945  0.5223 -0.8461  1.1671
  181MOL0     H24419   9.836   2.652   2.931 -0.1873 -1.6265  1.1343
  181MOL0     H24420  10.055   2.526   2.981  2.5754  1.2786 -2.6898
  181MOL0     H24421  10.437   2.483   3.006  2.8447  1.7686 -2.2416
  181MOL0     H24422  10.640   2.367   2.998  0.3182 -1.4558  0.1368
  181MOL0     H24423  10.877   2.297   3.400  3.4325  0.2423  1.0111
  181MOL0     H24424  10.953   2.409   3.302 -1.3101 -0.0882  2.1895
  181MOL0     H24425  11.067   2.169   3.354 -0.0111 -1.5132  0.2432
  181MOL0     H24426  11.065   2.204   3.185 -0.5481 -1.4821  0.3732
  181MOL0     H24427  10.868   2.079   3.150 -1.2071  0.0185  2.8551
  181MOL0     H24428  10.850   2.049   3.326 -3.4677  2.4736 -1.7012
  181MOL0     H24429  11.084   1.925   3.317 -0.7665 -2.1039  0.3720
  181MOL0     H24430  10.961   1.849   3.229 -2.7037  2.2193  0.7158
  181MOL0     H24431  11.144   1.925   2.873  4.8593 -1.9814  0.8082
  181MOL0     H24432  10.713   2.470   3.413 -1.3080  1.2164  0.1220
  181MOL0     H24433  10.449   2.698   3.469  0.0010 -0.7205  2.7351
  181MOL0     H24434  10.399   2.544   3.514 -2.1636 -2.0490 -3.8231
  181MOL0     H24435  10.555   2.588   3.554 -0.3890  1.4164  0.9721
  182MOL0     O24436   3.780   2.902   1.366 -0.1859  0.5369 -0.1970
  182MOL0     C24437   3.747   2.782   1.387  0.1065  0.1336  0.5960
  182MOL0     O24438   3.833   2.688   1.433  0.2839  0.6936  0.1782
  182MOL0     C24439   3.964   2.726   1.477  0.0918 -0.0728  0.8393
  182MOL0     C24440   4.075   2.713   1.397  0.7283  0.0741  0.3274
  182MOL0     C24441   4.195   2.779   1.430 -0.0305  0.0861 -0.5761
  182MOL0     C24442   4.226   2.831   1.554  0.1696 -0.1181 -0.7027
  182MOL0     O24443   4.334   2.898   1.594  0.0131  0.3041  0.1815
  182MOL0     C24444   4.447   2.851   1.517  0.7407  0.8215  0.5673
  182MOL0     C24445   4.558   2.943   1.575 -0.0362  0.1916 -0.1794
  182MOL0     C24446   4.691   2.916   1.505 -0.0590  0.0682  0.3079
  182MOL0     C24447   4.772   2.847   1.592 -1.5062  0.5102  0.1390
  182MOL0     C24448   4.905   2.821   1.523  0.4139  0.9190  0.0873
  182MOL0     C24449   4.993   2.768   1.633  1.2251  0.4989  0.0220
  182MOL0     C24450   5.133   2.743   1.585  0.2585  0.5868 -0.0878
  182MOL0     C24451   5.129   2.620   1.486  0.7596 -0.0925  0.3282
  182MOL0     N24452   5.268   2.582   1.480 -1.2466  0.2788 -0.3924
  182MOL0     C24453   5.364   2.611   1.384  0.9325  0.6812  0.0571
  182MOL0     C24454   5.474   2.551   1.426  0.6249  0.2509 -0.0872
  182MOL0     C24455   5.612   2.542   1.377 -0.7623  0.1509 -0.7282
  182MOL0     C24456   5.707   2.639   1.454 -0.3040 -0.4707 -0.7534
  182MOL0     C24457   5.847   2.639   1.395 -0.3265 -0.1366  0.0312
  182MOL0     C24458   5.891   2.515   1.303 -0.6832 -0.1683 -0.4073
  182MOL0     O24459   5.889   2.405   1.389 -0.0463 -0.2342 -0.1562
  182MOL0     C24460   6.002   2.353   1.442 -0.5384 -0.2760  0.2759
  182MOL0     C24461   5.982   2.282   1.560  0.4104 -0.1558 -0.1651
  182MOL0     C24462   6.089   2.222   1.619 -0.2997  0.1348 -0.0952
  182MOL0     C24463   6.220   2.237   1.561 -1.1305  0.2121 -0.3652
  182MOL0     C24464   6.345   2.176   1.628  1.4296 -0.0899  0.2657
  182MOL0     O24465   6.458   2.178   1.561 -1.0014 -0.0330 -0.0051
  182MOL0     C24466   6.557   2.103   1.615  0.3896  0.3072 -0.0776
  182MOL0     C24467   6.541   1.963   1.629  0.2023  0.4364  0.4538
  182MOL0     C24468   6.642   1.880   1.672 -0.0574 -0.3646  0.4806
  182MOL0     C24469   6.759   1.943   1.716  0.1498 -0.9124 -0.5536
  182MOL0     O24470   6.866   1.878   1.762 -0.1271 -0.2409 -0.0119
  182MOL0     C24471   6.848   1.805   1.885  0.3618 -0.0967  0.2475
  182MOL0     C24472   6.971   1.841   1.971  0.2077 -0.7837 -0.5642
  182MOL0     C24473   7.095   1.773   1.918  0.1035  0.6600  0.9214
  182MOL0     C24474   7.212   1.784   2.014 -0.6131  0.4013 -0.0358
  182MOL0     C24475   7.342   1.714   1.967  0.0048  0.6321  0.0757
  182MOL0     C24476   7.452   1.739   2.069 -0.5823  0.0383  0.5634
  182MOL0     C24477   7.593   1.685   2.020 -0.1589  0.1833 -0.5086
  182MOL0     C24478   7.681   1.697   2.141  0.0646 -0.2326  0.2129
  182MOL0    Cl24479   7.839   1.682   2.064  0.3195 -0.4266  0.5346
  182MOL0     C24480   6.773   2.084   1.714  0.2715 -0.4368  0.7108
  182MOL0     C24481   6.680   2.163   1.660 -0.4210  0.1716  0.3629
  182MOL0     O24482   6.317   2.125   1.737 -0.5903 -0.2518  0.1471
  182MOL0     C24483   6.244   2.296   1.440 -0.0952  1.3964 -0.4104
  182MOL0     C24484   6.135   2.361   1.385 -0.0583  0.5863 -0.7832
  182MOL0     N24485   5.449   2.493   1.550  0.3937 -0.0140  0.1234
  182MOL0     N24486   5.329   2.523   1.582  0.2419  0.3185 -0.0734
  182MOL0     C24487   4.119   2.824   1.636  0.0680 -0.2964 -0.2572
  182MOL0     C24488   3.989   2.785   1.602 -0.2409 -1.4124 -0.2548
  182MOL0     C24489   3.605   2.738   1.368  0.0273 -0.0900  0.3391
  182MOL0     C24490   3.562   2.606   1.397 -0.0290 -0.0871 -0.8107
  182MOL0     C24491   3.431   2.564   1.377 -0.4954 -0.4540  0.3931
  182MOL0     C24492   3.338   2.647   1.316 -0.1756 -0.2514 -0.6059
  182MOL0     O24493   3.203   2.624   1.281  0.0597  0.4460  0.1494
  182MOL0     C24494   3.155   2.493   1.321 -0.6413 -0.3226 -0.2601
  182MOL0     C24495   3.027   2.463   1.239 -0.4471 -0.0872  0.6047
  182MOL0     C24496   3.053   2.396   1.104 -0.0934  0.2321 -0.1714
  182MOL0     C24497   2.934   2.387   1.005  0.0005  0.1304  0.2024
  182MOL0     C24498   2.845   2.285   1.066 -0.2757 -0.7823  0.0305
  182MOL0     C24499   2.778   2.183   1.099 -0.7061 -0.3448 -0.7570
  182MOL0     C24500   3.379   2.773   1.281 -0.9667  0.2199 -0.1704
  182MOL0     C24501   3.505   2.825   1.315 -0.3262  0.5193 -0.3203
  182MOL0     C24502   3.514   2.980   1.293  0.4655  0.1182 -0.0069
  182MOL0     H24503   4.069   2.672   1.297  0.3729 -0.0156  0.3866
  182MOL0     H24504   4.261   2.779   1.343 -0.9634  0.6149 -1.3022
  182MOL0     H24505   4.466   2.744   1.525 -0.4024  0.7133  2.5259
  182MOL0     H24506   4.437   2.880   1.412 -1.3923  3.4881  1.3894
  182MOL0     H24507   4.565   2.934   1.684  1.0231 -0.2018 -0.2617
  182MOL0     H24508   4.532   3.040   1.533 -0.3198 -0.5102 -1.6726
  182MOL0     H24509   4.734   3.013   1.480 -1.0229  0.9101  1.7366
  182MOL0     H24510   4.684   2.853   1.416 -1.4339  1.2147 -0.4321
  182MOL0     H24511   4.785   2.911   1.679 -1.9786  0.2838  0.3814
  182MOL0     H24512   4.730   2.757   1.637  0.7127 -0.8496 -0.3664
  182MOL0     H24513   4.889   2.753   1.439  1.0151  1.7361 -0.7016
  182MOL0     H24514   4.940   2.915   1.479  0.2917  1.9829  2.1310
  182MOL0     H24515   5.014   2.839   1.714 -2.6671  0.1699  1.5244
  182MOL0     H24516   4.962   2.673   1.676  3.6125 -0.7883 -0.9089
  182MOL0     H24517   5.191   2.718   1.675  1.2442  0.5847 -0.7148
  182MOL0     H24518   5.174   2.831   1.534 -1.1194 -0.1736 -2.6914
  182MOL0     H24519   5.070   2.544   1.538  1.8876 -2.1233 -1.2084
  182MOL0     H24520   5.089   2.650   1.388  3.5989 -2.7297 -1.8147
  182MOL0     H24521   5.350   2.680   1.302 -3.6488  3.3042  2.6233
  182MOL0     H24522   5.642   2.441   1.406 -2.7570 -0.5266 -0.9005
  182MOL0     H24523   5.630   2.559   1.270 -0.2261  4.3793 -0.1457
  182MOL0     H24524   5.657   2.736   1.456  1.9196  0.7610 -1.0060
  182MOL0     H24525   5.719   2.618   1.561  0.0440 -2.1738 -1.0965
  182MOL0     H24526   5.918   2.632   1.478  0.2976  3.8286  0.0356
  182MOL0     H24527   5.861   2.729   1.335 -1.4208 -1.3183 -2.1069
  182MOL0     H24528   5.986   2.539   1.254 -1.5989  1.1213 -1.6335
  182MOL0     H24529   5.817   2.502   1.223 -0.8637 -1.3677 -0.0662
  182MOL0     H24530   5.883   2.281   1.605  1.0304  1.3321  1.2900
  182MOL0     H24531   6.075   2.165   1.711  1.2149  0.9278  0.6640
  182MOL0     H24532   6.454   1.908   1.597 -0.3523 -0.2066  2.8421
  182MOL0     H24533   6.631   1.772   1.673 -1.0547 -0.2755 -0.0286
  182MOL0     H24534   6.754   1.825   1.936  0.9483  1.6004  0.7188
  182MOL0     H24535   6.840   1.699   1.860 -1.5985 -0.9407  3.8813
  182MOL0     H24536   6.986   1.949   1.981 -1.6781 -0.5161 -0.3011
  182MOL0     H24537   6.953   1.790   2.066  1.3232 -1.7710 -0.8626
  182MOL0     H24538   7.078   1.670   1.885 -4.0515  1.5107 -0.2356
  182MOL0     H24539   7.134   1.830   1.833 -1.9815 -0.4902 -0.8982
  182MOL0     H24540   7.185   1.745   2.112 -2.4121 -1.3372 -1.1415
  182MOL0     H24541   7.225   1.892   2.023  0.0486  0.9227 -4.7856
  182MOL0     H24542   7.364   1.750   1.866 -2.5767 -0.1195 -0.8324
  182MOL0     H24543   7.321   1.607   1.959  1.6945  0.1456  1.4052
  182MOL0     H24544   7.465   1.846   2.083  0.4907  0.2424 -1.6172
  182MOL0     H24545   7.423   1.676   2.154  1.5921 -1.6184  0.1599
  182MOL0     H24546   7.641   1.751   1.947  1.1763 -1.1060 -0.8175
  182MOL0     H24547   7.579   1.582   1.988 -3.2404  0.7701 -1.4295
  182MOL0     H24548   7.681   1.792   2.194  1.3878 -0.7001  1.1289
  182MOL0     H24549   7.665   1.614   2.211 -1.2674 -0.4090 -0.2828
  182MOL0     H24550   6.866   2.112   1.762  1.7339  0.7896 -2.5335
  182MOL0     H24551   6.683   2.271   1.660 -0.0432  0.2612  3.6790
  182MOL0     H24552   6.345   2.308   1.402 -0.2910 -2.3245 -2.6393
  182MOL0     H24553   6.149   2.415   1.292 -2.3553  2.7411  0.0278
  182MOL0     H24554   4.116   2.866   1.736  0.7487 -2.4884  0.7456
  182MOL0     H24555   3.905   2.800   1.670 -0.2597  3.4224 -0.9539
  182MOL0     H24556   3.627   2.531   1.440  1.5968  1.8272  0.2455
  182MOL0     H24557   3.395   2.465   1.402 -2.6961 -0.3553 -2.0243
  182MOL0     H24558   3.134   2.498   1.428  1.9416 -1.1735  0.3452
  182MOL0     H24559   3.229   2.413   1.308 -0.4277  0.0196 -1.2356
  182MOL0     H24560   2.970   2.553   1.216 -1.3145 -1.1865 -1.9688
  182MOL0     H24561   2.961   2.400   1.300  1.4102 -1.2811  1.4699
  182MOL0     H24562   3.090   2.294   1.118 -0.0594  0.0122 -1.6931
  182MOL0     H24563   3.132   2.447   1.049 -0.1033 -3.0681 -3.6710
  182MOL0     H24564   2.884   2.484   0.990  2.2601  1.8000  2.5027
  182MOL0     H24565   2.966   2.350   0.908 -0.2710 -2.4854  1.0235
  182MOL0     H24566   2.722   2.097   1.129 -2.4825  1.6764  2.1950
  182MOL0     H24567   3.303   2.839   1.241 -0.6979  0.6770  0.0604
  182MOL0     H24568   3.570   3.026   1.376 -1.9369 -0.0504  1.8075
  182MOL0     H24569   3.564   3.000   1.198  3.5093  1.4623  1.6891
  182MOL0     H24570   3.414   3.022   1.288  1.0075  1.3611 -4.8465
  183MOL0     O24571   0.805   5.698   2.753  0.5767  0.7732  0.3524
  183MOL0     C24572   0.709   5.626   2.738 -0.7635  1.5200 -0.4714
  183MOL0     O24573   0.715   5.520   2.650 -0.4906  1.0239 -0.0535
  183MOL0     C24574   0.818   5.488   2.569  0.3762  1.2394  0.4159
  183MOL0     C24575   0.948   5.510   2.575 -0.3671  0.7000  0.3421
  183MOL0     C24576   1.032   5.449   2.481  0.0983 -0.2031 -0.3819
  183MOL0     C24577   0.975   5.376   2.366 -0.0899 -0.9916  0.4801
  183MOL0     O24578   1.040   5.324   2.260  0.0964  1.4088 -0.5846
  183MOL0     C24579   1.181   5.314   2.247 -0.4316  0.0346  0.2602
  183MOL0     C24580   1.207   5.245   2.110  0.1652  0.1582 -1.1302
  183MOL0     C24581   1.356   5.276   2.077  0.6137  0.6446 -0.5960
  183MOL0     C24582   1.409   5.179   1.974 -0.2695 -0.2271  0.2024
  183MOL0     C24583   1.550   5.220   1.933  0.6027 -0.4611 -0.0674
  183MOL0     C24584   1.591   5.160   1.797  0.4235 -0.3440 -0.5851
  183MOL0     C24585   1.724   5.215   1.754  1.1163  0.3411  0.1263
  183MOL0     C24586   1.834   5.186   1.849 -1.0129 -0.8890  0.2311
  183MOL0     N24587   1.965   5.206   1.783  0.3358 -0.7947  0.0089
  183MOL0     C24588   2.029   5.322   1.759 -0.9850  0.1041  0.9227
  183MOL0     C24589   2.157   5.283   1.740 -0.0708 -0.8410  0.0451
  183MOL0     C24590   2.278   5.372   1.717  0.2522 -0.7883  0.0791
  183MOL0     C24591   2.239   5.495   1.623  0.5548  0.3964  0.5787
  183MOL0     C24592   2.364   5.562   1.565  0.2482  0.8174  0.9354
  183MOL0     C24593   2.313   5.676   1.482 -0.0407  0.0423  0.1938
  183MOL0     O24594   2.403   5.750   1.407 -0.8776  0.3252 -0.2147
  183MOL0     C24595   2.492   5.684   1.331  0.1356 -0.0349  0.1208
  183MOL0     C24596   2.460   5.572   1.246  0.3220 -0.5746  0.2832
  183MOL0     C24597   2.555   5.512   1.165 -0.8907  0.0151 -0.2334
  183MOL0     C24598   2.693   5.560   1.163 -0.6217 -0.3165  0.0803
  183MOL0     C24599   2.792   5.506   1.080 -0.9109 -0.0374 -0.0790
  183MOL0     O24600   2.757   5.459   0.961  0.1917 -0.7657  0.4117
  183MOL0     C24601   2.824   5.358   0.904  0.2076 -0.1341  0.2531
  183MOL0     C24602   2.917   5.377   0.804  0.4291 -0.2893 -0.2513
  183MOL0     C24603   2.999   5.278   0.752 -0.8177 -0.9465  0.0979
  183MOL0     C24604   2.987   5.150   0.803 -0.2789  0.4385  0.0993
  183MOL0     O24605   3.052   5.052   0.736 -0.2281 -0.2401  0.6927
  183MOL0     C24606   3.117   4.952   0.816 -0.7891 -0.1889 -0.3526
  183MOL0     C24607   3.236   4.889   0.740 -0.1978 -0.1307 -0.3883
  183MOL0     C24608   3.365   4.977   0.724 -0.0349 -0.8630  0.5683
  183MOL0     C24609   3.484   4.900   0.690  0.0096 -1.0194 -0.2619
  183MOL0     C24610   3.619   4.968   0.706  0.5201  0.0237  0.5308
  183MOL0     C24611   3.639   5.095   0.602  0.1334  0.2789 -0.1118
  183MOL0     C24612   3.765   5.176   0.651 -0.1176  0.3023  1.1581
  183MOL0     C24613   3.818   5.283   0.550 -0.4665 -0.6322 -0.7858
  183MOL0    Cl24614   3.885   5.196   0.417 -0.1412  0.3564  0.2927
  183MOL0     C24615   2.904   5.127   0.915  0.1319 -0.6241  0.0275
  183MOL0     C24616   2.812   5.230   0.957  0.2162  0.2835  0.3717
  183MOL0     O24617   2.903   5.494   1.121 -0.0678 -0.2862  0.3522
  183MOL0     C24618   2.721   5.664   1.255  0.4884 -0.0762 -0.2723
  183MOL0     C24619   2.624   5.727   1.338  1.0232 -0.2452 -0.1199
  183MOL0     N24620   2.165   5.150   1.760  0.4053 -0.5389  0.4320
  183MOL0     N24621   2.050   5.100   1.787 -0.1282  0.7260  0.1125
  183MOL0     C24622   0.838   5.361   2.358 -0.1582  0.2535 -0.4551
  183MOL0     C24623   0.758   5.416   2.459  0.3458  0.9757  0.8307
  183MOL0     C24624   0.580   5.646   2.810  0.2913  0.5746  0.6893
  183MOL0     C24625   0.475   5.548   2.795  0.2953 -0.0916 -0.1702
  183MOL0     C24626   0.353   5.555   2.868 -0.6050 -0.5772 -0.7583
  183MOL0     C24627   0.336   5.653   2.967  0.6979 -0.5407 -1.2403
  183MOL0     O24628   0.222   5.644   3.043 -0.3816 -0.6645 -0.4836
  183MOL0     C24629   0.206   5.728   3.158  0.1898  0.0825  0.3873
  183MOL0     C24630   0.077   5.670   3.228  0.1551 -0.1674  0.0615
  183MOL0     C24631   0.093   5.671   3.389  0.0043  0.7222  0.0795
  183MOL0     C24632   0.009   5.560   3.458 -0.5202  0.6699  0.5283
  183MOL0     C24633  -0.133   5.568   3.417 -0.5131 -0.1165 -0.0843
  183MOL0     C24634  -0.243   5.562   3.375  0.4513  0.0621 -0.2076
  183MOL0     C24635   0.438   5.743   2.987  0.1627 -0.7369  0.4377
  183MOL0     C24636   0.555   5.744   2.909  1.0317  0.6034  0.5910
  183MOL0     C24637   0.641   5.868   2.944 -0.1864 -0.0431 -0.4387
  183MOL0     H24638   0.994   5.572   2.650 -1.6422  1.8529  0.2111
  183MOL0     H24639   1.139   5.453   2.500 -0.4700 -1.9912  5.2682
  183MOL0     H24640   1.221   5.416   2.238 -1.4018  0.2724 -2.1053
  183MOL0     H24641   1.236   5.254   2.320 -1.1362 -0.8826  0.0456
  183MOL0     H24642   1.133   5.284   2.039 -0.4304  0.4818 -0.3544
  183MOL0     H24643   1.199   5.136   2.114 -1.3148  0.2424 -1.2361
  183MOL0     H24644   1.418   5.260   2.166  2.3124  0.8596 -1.6924
  183MOL0     H24645   1.359   5.377   2.037 -0.5375  0.5557 -0.9522
  183MOL0     H24646   1.426   5.076   2.006 -0.4981 -0.7821 -1.3747
  183MOL0     H24647   1.355   5.187   1.879 -0.7585  0.5971  0.5397
  183MOL0     H24648   1.551   5.328   1.919  3.6935 -0.3989  0.0678
  183MOL0     H24649   1.621   5.206   2.015  2.2512 -0.7926 -1.4987
  183MOL0     H24650   1.596   5.051   1.797 -1.5049 -0.5569  2.5875
  183MOL0     H24651   1.517   5.178   1.718 -1.0504 -0.8441  0.6208
  183MOL0     H24652   1.705   5.323   1.751 -3.8943 -0.3031  0.2707
  183MOL0     H24653   1.747   5.178   1.654 -1.2743 -1.2092  0.0835
  183MOL0     H24654   1.830   5.247   1.939 -0.9452  1.2790 -1.1598
  183MOL0     H24655   1.834   5.081   1.880  2.6827 -2.0768 -2.9892
  183MOL0     H24656   1.994   5.425   1.751 -1.1017 -0.0933 -2.2517
  183MOL0     H24657   2.315   5.429   1.803 -1.8520  0.3993  0.2736
  183MOL0     H24658   2.355   5.312   1.668  0.4289 -0.8024  0.3717
  183MOL0     H24659   2.172   5.462   1.543  1.9225 -2.0089  0.3375
  183MOL0     H24660   2.183   5.566   1.684 -2.5003 -0.7403 -0.7094
  183MOL0     H24661   2.406   5.485   1.499  0.4575  0.6438  1.2711
  183MOL0     H24662   2.435   5.597   1.640  0.9929 -0.6775  0.9715
  183MOL0     H24663   2.268   5.749   1.550 -2.0669  1.7651 -2.7518
  183MOL0     H24664   2.241   5.646   1.405  1.7199 -2.3828 -0.6411
  183MOL0     H24665   2.360   5.531   1.252  0.6032 -1.6258 -1.3811
  183MOL0     H24666   2.532   5.425   1.105  1.2818  0.3126 -1.6077
  183MOL0     H24667   2.935   5.477   0.767  1.8941 -1.4124 -2.8743
  183MOL0     H24668   3.075   5.288   0.675 -0.8068 -0.5252  0.1634
  183MOL0     H24669   3.150   5.008   0.904  1.4972 -2.2509  0.1931
  183MOL0     H24670   3.054   4.867   0.844 -1.1813  0.0576 -0.4678
  183MOL0     H24671   3.274   4.807   0.802  3.4216  1.6240 -0.0152
  183MOL0     H24672   3.216   4.843   0.642  3.5653  1.8410 -2.2950
  183MOL0     H24673   3.348   5.041   0.637 -0.0628 -3.4279 -1.4023
  183MOL0     H24674   3.374   5.041   0.813 -1.7417 -0.2879  0.3591
  183MOL0     H24675   3.473   4.860   0.589  0.0711 -1.1412 -0.2206
  183MOL0     H24676   3.488   4.820   0.764 -1.0183  0.1163  1.0921
  183MOL0     H24677   3.695   4.891   0.721 -1.0175 -1.9856 -1.3469
  183MOL0     H24678   3.615   5.029   0.797 -0.0933  1.6930 -0.5789
  183MOL0     H24679   3.640   5.051   0.502 -1.6241  1.2412 -0.5911
  183MOL0     H24680   3.555   5.165   0.610 -0.2887  0.0350 -1.9388
  183MOL0     H24681   3.843   5.104   0.678 -2.4738 -1.9953  2.2678
  183MOL0     H24682   3.741   5.231   0.743 -3.5965  2.0018 -0.5851
  183MOL0     H24683   3.738   5.348   0.514  0.7361  1.8932  0.8390
  183MOL0     H24684   3.890   5.347   0.601 -3.3445  1.3018  1.1895
  183MOL0     H24685   2.904   5.028   0.960  2.2847 -0.0675  1.3939
  183MOL0     H24686   2.740   5.216   1.037 -0.9519 -0.0627 -0.7084
  183MOL0     H24687   2.826   5.679   1.274  1.5997 -3.7812 -2.3866
  183MOL0     H24688   2.658   5.797   1.414 -0.5825 -0.8692  1.2374
  183MOL0     H24689   0.798   5.307   2.273  0.0899 -0.4461 -0.1376
  183MOL0     H24690   0.652   5.394   2.458  0.3156  0.7541  3.2989
  183MOL0     H24691   0.475   5.466   2.724 -0.7322  0.2953 -0.6397
  183MOL0     H24692   0.286   5.470   2.867 -1.7161  0.2700 -1.7532
  183MOL0     H24693   0.182   5.832   3.133  1.1219 -0.1366 -1.6520
  183MOL0     H24694   0.294   5.733   3.223  0.3338 -0.7937  0.2729
  183MOL0     H24695   0.067   5.565   3.199  1.4249  0.1337 -1.6486
  183MOL0     H24696  -0.012   5.728   3.202 -0.7930 -1.8535 -0.6171
  183MOL0     H24697   0.054   5.765   3.429 -0.5569  1.0735 -1.2372
  183MOL0     H24698   0.195   5.662   3.427 -0.0656  1.1553  0.3878
  183MOL0     H24699   0.037   5.456   3.442 -0.3016  0.8487 -0.3048
  183MOL0     H24700   0.010   5.579   3.565  1.7080  0.8098  0.5228
  183MOL0     H24701  -0.338   5.562   3.326 -0.8037 -1.0860  2.0589
  183MOL0     H24702   0.427   5.826   3.056 -0.8819  0.9459 -1.6006
  183MOL0     H24703   0.634   5.905   3.046 -0.3568  0.4843 -0.6342
  183MOL0     H24704   0.749   5.861   2.929  0.2416 -0.4799  2.4068
  183MOL0     H24705   0.601   5.942   2.874  3.0590  0.1873 -2.2976
  184MOL0     O24706   1.312   8.195  10.946 -0.0809  0.7777 -0.1834
  184MOL0     C24707   1.306   8.098  11.025 -0.2047 -0.4425 -0.4019
  184MOL0     O24708   1.407   8.049  11.097 -0.4055 -0.5177  1.0446
  184MOL0     C24709   1.527   8.120  11.077  0.2523 -0.1596 -0.2008
  184MOL0     C24710   1.595   8.187  11.183  0.1961 -0.3130 -0.3142
  184MOL0     C24711   1.723   8.237  11.158  1.0872 -0.0470  0.3922
  184MOL0     C24712   1.788   8.218  11.040  1.2202 -0.3773  0.3876
  184MOL0     O24713   1.908   8.273  11.034 -0.0931 -0.4198  0.1876
  184MOL0     C24714   1.965   8.289  10.905 -1.3626  0.0972 -0.9851
  184MOL0     C24715   2.095   8.364  10.914 -0.8810 -1.7572  0.1850
  184MOL0     C24716   2.213   8.291  10.992  0.0199 -0.3109 -0.9435
  184MOL0     C24717   2.200   8.278  11.143 -0.0949  0.0053  0.7312
  184MOL0     C24718   2.327   8.221  11.203 -0.0923  0.4812 -0.7560
  184MOL0     C24719   2.277   8.161  11.337  0.2034 -0.7292  0.3871
  184MOL0     C24720   2.392   8.128  11.432 -0.3658 -0.3956 -0.4481
  184MOL0     C24721   2.340   8.068  11.561 -0.3786 -0.0124 -0.3916
  184MOL0     N24722   2.455   8.031  11.651 -0.5183  0.1214  0.4990
  184MOL0     C24723   2.545   8.119  11.704 -0.8623  1.0286 -0.9961
  184MOL0     C24724   2.606   8.041  11.803  0.5900  0.4291 -1.3457
  184MOL0     C24725   2.726   8.094  11.884  1.7479  0.8273 -0.5542
  184MOL0     C24726   2.851   8.137  11.801  0.1927  0.5885  0.0567
  184MOL0     C24727   2.960   8.021  11.761  1.4384 -0.1558 -0.6936
  184MOL0     C24728   3.000   7.939  11.884 -0.2458  0.6369 -0.0755
  184MOL0     O24729   3.079   8.034  11.963 -0.4837  0.0410  0.2055
  184MOL0     C24730   3.216   8.039  11.950  1.3253  1.0302  0.5613
  184MOL0     C24731   3.268   8.117  11.845 -0.6357 -0.0499  0.4041
  184MOL0     C24732   3.406   8.139  11.839 -1.0126 -1.1891  0.0733
  184MOL0     C24733   3.490   8.065  11.930  0.0092  0.7462 -0.0843
  184MOL0     C24734   3.629   8.069  11.933 -0.2974  0.2077  0.5648
  184MOL0     O24735   3.687   8.014  12.040  0.2369  0.1988 -0.8533
  184MOL0     C24736   3.824   7.981  12.044  1.2941  0.9083 -0.1466
  184MOL0     C24737   3.929   8.008  11.962  0.0666 -0.4807  0.2875
  184MOL0     C24738   4.062   7.968  11.992  0.4579 -0.0455 -0.5590
  184MOL0     C24739   4.091   7.885  12.100 -0.3447 -0.0646 -0.8659
  184MOL0     O24740   4.217   7.838  12.119  0.2582  0.1184  0.2649
  184MOL0     C24741   4.327   7.929  12.117  0.1608 -0.4371 -0.1480
  184MOL0     C24742   4.456   7.857  12.137 -0.0506  0.8003  0.3353
  184MOL0     C24743   4.498   7.779  12.009  0.4977 -0.0309  0.7212
  184MOL0     C24744   4.632   7.711  12.032  0.3076  0.3609  0.3545
  184MOL0     C24745   4.663   7.635  11.904 -0.5199 -0.6446 -0.2278
  184MOL0     C24746   4.794   7.561  11.945 -0.0896 -0.9404  0.1407
  184MOL0     C24747   4.909   7.650  11.985 -0.8535  0.0778  0.1934
  184MOL0     C24748   5.044   7.578  11.945  0.4975 -0.0046  0.1325
  184MOL0    Cl24749   5.050   7.431  12.045  0.2367 -0.3364  0.0051
  184MOL0     C24750   3.986   7.859  12.184  0.0890 -0.3987  0.0203
  184MOL0     C24751   3.853   7.907  12.158 -0.3625 -0.2682 -0.1887
  184MOL0     O24752   3.677   8.123  11.839 -0.4452 -0.1281 -0.2050
  184MOL0     C24753   3.430   7.983  12.030 -0.0956 -0.1695  0.8624
  184MOL0     C24754   3.291   7.976  12.043  0.3867  0.1720 -0.1425
  184MOL0     N24755   2.551   7.914  11.809 -0.6189 -0.4064  0.2282
  184MOL0     N24756   2.462   7.910  11.715 -0.1763 -0.8154 -0.1850
  184MOL0     C24757   1.721   8.151  10.931 -0.2764 -0.3302 -0.9544
  184MOL0     C24758   1.591   8.101  10.953  0.4282 -0.1729  0.2084
  184MOL0     C24759   1.171   8.045  11.042  0.3260 -0.9199  0.3244
  184MOL0     C24760   1.158   7.913  11.089 -0.0708 -0.2560 -0.3970
  184MOL0     C24761   1.037   7.847  11.098 -0.3151  0.7604 -0.7402
  184MOL0     C24762   0.922   7.906  11.052  0.4765 -0.0347 -0.5723
  184MOL0     O24763   0.803   7.844  11.061 -0.4650  0.5467 -0.5243
  184MOL0     C24764   0.757   7.809  11.189  0.2722  0.4878  0.4856
  184MOL0     C24765   0.719   7.926  11.270 -0.6700  0.7591 -0.3438
  184MOL0     C24766   0.613   8.005  11.216  0.4003 -0.2228  0.1436
  184MOL0     C24767   0.478   7.946  11.257 -0.5751  0.0845 -0.7710
  184MOL0     C24768   0.380   8.002  11.168 -0.2249  0.0757 -0.0722
  184MOL0     C24769   0.287   8.055  11.106 -0.9367 -0.1204  0.0441
  184MOL0     C24770   0.936   8.034  11.001  0.1028 -0.0582  0.3487
  184MOL0     C24771   1.054   8.111  10.999  0.5062  0.2918  0.0437
  184MOL0     C24772   1.038   8.253  10.949  0.3666 -0.1588  0.2141
  184MOL0     H24773   1.554   8.206  11.282  1.2986 -1.3664  0.3713
  184MOL0     H24774   1.774   8.288  11.239 -0.6431 -0.9219  2.1074
  184MOL0     H24775   1.982   8.195  10.851 -0.6390  1.3552 -3.0853
  184MOL0     H24776   1.897   8.355  10.850 -1.7086 -0.7862 -1.6628
  184MOL0     H24777   2.073   8.457  10.967  1.8121  0.7976 -2.7497
  184MOL0     H24778   2.129   8.394  10.814  0.6741  1.4668  1.5444
  184MOL0     H24779   2.314   8.330  10.974  0.5053 -1.1752 -0.2002
  184MOL0     H24780   2.227   8.190  10.951  0.6997 -0.6908  0.1617
  184MOL0     H24781   2.166   8.373  11.184  3.9658  1.9380  0.1235
  184MOL0     H24782   2.122   8.202  11.155  2.1439 -2.3971  1.0504
  184MOL0     H24783   2.386   8.151  11.145  3.0030  0.6870  1.8493
  184MOL0     H24784   2.396   8.303  11.224  0.3841 -0.4016  1.3766
  184MOL0     H24785   2.216   8.237  11.387  1.2876 -0.9764  2.1721
  184MOL0     H24786   2.215   8.072  11.318  1.3523 -1.1310 -1.6612
  184MOL0     H24787   2.443   8.222  11.457 -2.1386  1.0535 -2.0422
  184MOL0     H24788   2.470   8.061  11.392 -0.7419 -1.3877  0.4222
  184MOL0     H24789   2.276   8.135  11.620  0.9550 -1.0538  2.3966
  184MOL0     H24790   2.279   7.979  11.541 -1.9360  0.7578  0.6402
  184MOL0     H24791   2.560   8.221  11.670 -0.0470  0.9285 -0.9540
  184MOL0     H24792   2.685   8.185  11.928  2.8264  0.9823  0.1817
  184MOL0     H24793   2.743   8.026  11.968  0.5219  1.5779  0.3396
  184MOL0     H24794   2.815   8.176  11.706  0.1404  0.8770  0.1934
  184MOL0     H24795   2.912   8.209  11.858  3.8489 -0.5716 -2.0270
  184MOL0     H24796   3.043   8.066  11.706  0.2707  3.0233 -0.0447
  184MOL0     H24797   2.910   7.955  11.689 -2.0289  0.3118  1.0796
  184MOL0     H24798   3.064   7.857  11.852  0.2040 -1.1820  4.6515
  184MOL0     H24799   2.919   7.896  11.944 -0.5540  1.3906  0.0574
  184MOL0     H24800   3.204   8.170  11.776 -0.7914  1.1303  1.4169
  184MOL0     H24801   3.446   8.212  11.770  0.6473  0.3435  2.4665
  184MOL0     H24802   3.912   8.058  11.867  0.4519 -3.6760 -1.5934
  184MOL0     H24803   4.142   8.000  11.925  0.4498 -0.1952 -0.6410
  184MOL0     H24804   4.321   7.991  12.028 -0.0376 -0.9718 -0.5134
  184MOL0     H24805   4.320   7.998  12.201 -2.4672 -3.7959  2.7417
  184MOL0     H24806   4.518   7.945  12.156  1.6664 -0.8336  2.9119
  184MOL0     H24807   4.457   7.783  12.217  1.2037  1.0369  0.5563
  184MOL0     H24808   4.428   7.701  11.975  0.5769  0.5947 -0.9915
  184MOL0     H24809   4.516   7.840  11.920 -0.8313 -0.9725 -0.2469
  184MOL0     H24810   4.625   7.640  12.115  2.3490  3.4908  3.5051
  184MOL0     H24811   4.696   7.792  12.067 -1.1603  2.0526 -0.6854
  184MOL0     H24812   4.681   7.709  11.826  0.1034 -2.5324 -1.9483
  184MOL0     H24813   4.596   7.557  11.869  1.6058 -2.3988 -0.6237
  184MOL0     H24814   4.773   7.477  12.011 -0.1290 -1.9678 -1.1426
  184MOL0     H24815   4.832   7.508  11.858  0.3023  0.5554 -0.6356
  184MOL0     H24816   4.923   7.673  12.091  3.0960 -1.2305  0.1504
  184MOL0     H24817   4.913   7.732  11.913 -0.8832 -1.4066 -1.5775
  184MOL0     H24818   5.042   7.553  11.839  1.0529 -0.2291  0.1678
  184MOL0     H24819   5.134   7.638  11.962  1.2744 -0.6276 -1.5794
  184MOL0     H24820   4.008   7.799  12.272  3.0226  1.3963  0.6703
  184MOL0     H24821   3.776   7.874  12.227 -2.5258 -1.4208 -2.9245
  184MOL0     H24822   3.489   7.935  12.107  1.3405 -0.5716 -0.4454
  184MOL0     H24823   3.246   7.920  12.124  0.0786 -0.5532 -0.7912
  184MOL0     H24824   1.767   8.143  10.833  1.9193  1.6262 -0.1831
  184MOL0     H24825   1.552   8.052  10.864  0.1168  0.8957 -0.2634
  184MOL0     H24826   1.240   7.852  11.126  0.5838  1.0908  0.4158
  184MOL0     H24827   1.047   7.743  11.127 -0.0502  0.4222 -1.9744
  184MOL0     H24828   0.839   7.761  11.243  0.4754 -2.7868 -2.3714
  184MOL0     H24829   0.681   7.732  11.173  1.7973 -0.9621 -0.0547
  184MOL0     H24830   0.811   7.984  11.276  0.1229 -0.4889 -0.2243
  184MOL0     H24831   0.702   7.896  11.373 -0.7584  1.1690 -0.2366
  184MOL0     H24832   0.626   7.998  11.107 -3.1239  2.9878 -0.6856
  184MOL0     H24833   0.612   8.107  11.257  0.2872 -1.2249  2.7880
  184MOL0     H24834   0.482   7.838  11.246  2.3472 -0.2383  1.9416
  184MOL0     H24835   0.454   7.965  11.362  0.2741  0.2090 -0.5865
  184MOL0     H24836   0.213   8.102  11.044 -2.3962 -1.2430  0.9097
  184MOL0     H24837   0.843   8.086  10.982  1.0180  1.8987  0.8911
  184MOL0     H24838   1.091   8.277  10.856  1.2066  3.0014  1.3538
  184MOL0     H24839   0.931   8.278  10.941  0.7043  0.9986 -1.0024
  184MOL0     H24840   1.077   8.322  11.024 -1.3634  0.6515  0.4352
  185MOL0     O24841   9.020   8.058   9.925 -0.7112  0.9585 -0.5385
  185MOL0     C24842   8.948   7.959   9.961  0.0358 -0.0326 -0.3265
  185MOL0     O24843   9.000   7.844  10.036  0.5581  0.2990  0.4510
  185MOL0     C24844   9.126   7.841  10.072 -0.1838  0.5231 -1.2891
  185MOL0     C24845   9.238   7.835   9.988 -0.2324 -0.1770  0.2116
  185MOL0     C24846   9.365   7.827  10.037  0.8871 -0.2985  0.2880
  185MOL0     C24847   9.393   7.825  10.178  0.5561  0.4562 -0.1657
  185MOL0     O24848   9.505   7.822  10.244  0.5486 -0.5576 -0.3566
  185MOL0     C24849   9.625   7.859  10.171 -0.3578  0.2096 -0.4626
  185MOL0     C24850   9.736   7.814  10.268  0.1425  0.3178 -0.4104
  185MOL0     C24851   9.863   7.802  10.186 -0.5326 -0.3386 -0.6138
  185MOL0     C24852   9.979   7.740  10.264 -0.1938  0.9006  0.0677
  185MOL0     C24853  10.118   7.759  10.193 -0.6557  0.4275  0.3835
  185MOL0     C24854  10.240   7.680  10.250 -0.9004 -0.2413 -0.6191
  185MOL0     C24855  10.378   7.728  10.195  1.4169  0.6373 -0.2685
  185MOL0     C24856  10.432   7.841  10.272  0.9039  0.3866 -0.4632
  185MOL0     N24857  10.582   7.875  10.257 -0.1393  0.0125  0.0731
  185MOL0     C24858  10.629   7.942  10.148 -0.6684 -0.1223  0.9722
  185MOL0     C24859  10.759   7.936  10.154 -0.6997 -0.3058 -0.4354
  185MOL0     C24860  10.857   7.992  10.052  0.3318  0.2416 -0.0274
  185MOL0     C24861  10.851   7.894   9.933 -0.6093 -0.9680 -0.5143
  185MOL0     C24862  10.971   7.923   9.837  0.3928  0.6020  0.1732
  185MOL0     C24863  11.013   7.797   9.756  0.2080 -0.3959 -0.6354
  185MOL0     O24864  11.118   7.856   9.674 -0.0623 -0.1062 -0.0847
  185MOL0     C24865  11.210   7.763   9.636 -0.0753  0.2659 -0.0983
  185MOL0     C24866  11.293   7.804   9.541  1.6166  0.4905  0.8089
  185MOL0     C24867  11.393   7.723   9.491 -0.0832  0.3631  0.4494
  185MOL0     C24868  11.411   7.595   9.543 -0.1290 -0.0334 -0.8364
  185MOL0     C24869  11.528   7.521   9.502 -0.6606  0.1786 -0.5187
  185MOL0     O24870  11.625   7.613   9.455  0.2926  0.9119 -1.2016
  185MOL0     C24871  11.744   7.565   9.412 -0.1218  0.4677 -0.5467
  185MOL0     C24872  11.809   7.635   9.310  0.4463  0.1944 -0.2749
  185MOL0     C24873  11.912   7.580   9.244 -0.6645 -0.3362  0.2817
  185MOL0     C24874  11.981   7.471   9.300 -0.2338 -0.0040  0.3520
  185MOL0     O24875  12.091   7.416   9.230  0.9601 -0.4862  0.3493
  185MOL0     C24876  12.209   7.419   9.309 -0.0610  0.0398  0.7556
  185MOL0     C24877  12.276   7.550   9.294 -0.2113 -0.2979  0.4200
  185MOL0     C24878  12.421   7.557   9.322  0.8939 -0.3889 -0.5837
  185MOL0     C24879  12.467   7.515   9.467 -0.5039  0.3777  0.4746
  185MOL0     C24880  12.623   7.512   9.454 -0.8672  0.1117  0.7043
  185MOL0     C24881  12.687   7.480   9.594 -0.0353 -0.5442  0.3432
  185MOL0     C24882  12.833   7.490   9.606  0.0814  0.2282  0.4539
  185MOL0     C24883  12.908   7.417   9.495 -0.5338  0.5017 -0.4108
  185MOL0    Cl24884  13.071   7.400   9.547 -0.4506 -0.2019 -0.2216
  185MOL0     C24885  11.932   7.414   9.417 -0.5666  0.1578 -0.7209
  185MOL0     C24886  11.813   7.457   9.462 -0.8774 -0.1788  0.0968
  185MOL0     O24887  11.531   7.398   9.499  0.1369  0.7838  0.2547
  185MOL0     C24888  11.312   7.538   9.621 -0.5194 -0.1516 -0.6890
  185MOL0     C24889  11.216   7.626   9.681 -0.3452  0.2571  0.4853
  185MOL0     N24890  10.795   7.879  10.274 -0.3182 -0.5294  0.1838
  185MOL0     N24891  10.688   7.840  10.338  0.4622 -0.4648  0.0857
  185MOL0     C24892   9.275   7.840  10.265  0.3004  0.4593  0.7470
  185MOL0     C24893   9.151   7.843  10.214 -0.4215  0.7821  0.4203
  185MOL0     C24894   8.808   7.962   9.914  0.1167 -0.5504 -0.6836
  185MOL0     C24895   8.715   7.886   9.993 -0.1410  0.0243  0.7679
  185MOL0     C24896   8.582   7.874   9.965  0.2565  0.4279 -0.0853
  185MOL0     C24897   8.531   7.963   9.870 -0.2331 -0.4211  0.5805
  185MOL0     O24898   8.394   7.980   9.857 -0.0127 -0.2525  0.5447
  185MOL0     C24899   8.306   7.934   9.962 -0.0869  0.2093 -0.0428
  185MOL0     C24900   8.161   7.974   9.944 -0.6628 -0.1855 -0.1272
  185MOL0     C24901   8.079   7.907  10.053 -0.3769 -0.3281 -0.4222
  185MOL0     C24902   7.932   7.945  10.054 -0.9487  0.1695  0.1361
  185MOL0     C24903   7.922   8.095  10.057  0.3930  0.4619  0.0334
  185MOL0     C24904   7.933   8.220  10.048  0.1753  0.3271 -0.6091
  185MOL0     C24905   8.616   8.040   9.787  0.8401 -0.5516 -0.9975
  185MOL0     C24906   8.760   8.044   9.810 -0.0756  0.2193 -0.1162
  185MOL0     C24907   8.825   8.143   9.722 -0.1170 -0.8687  0.5308
  185MOL0     H24908   9.221   7.842   9.881  0.8503 -1.0505 -0.0282
  185MOL0     H24909   9.428   7.837   9.949 -3.5342 -1.3900 -3.3672
  185MOL0     H24910   9.626   7.809  10.074  2.8100 -4.3673  1.5304
  185MOL0     H24911   9.642   7.962  10.139 -1.4595 -0.2934 -2.9127
  185MOL0     H24912   9.704   7.725  10.323  0.5283  1.1878  1.2953
  185MOL0     H24913   9.748   7.891  10.345 -3.4376 -0.2381  0.9109
  185MOL0     H24914   9.905   7.896  10.149  2.8671 -1.6636 -0.5125
  185MOL0     H24915   9.839   7.738  10.100 -1.2665 -0.2827 -0.4553
  185MOL0     H24916   9.994   7.793  10.358  2.5335  0.9219 -0.2980
  185MOL0     H24917   9.956   7.635  10.286  1.5846  0.0490 -1.8041
  185MOL0     H24918  10.100   7.737  10.087 -0.0452  0.4695  0.2688
  185MOL0     H24919  10.153   7.862  10.192 -3.5941  1.5434  1.7538
  185MOL0     H24920  10.247   7.678  10.359  3.1579  0.1661 -0.7269
  185MOL0     H24921  10.211   7.576  10.231  1.4519 -1.1328  0.3097
  185MOL0     H24922  10.381   7.736  10.086  4.1676 -1.7035 -0.4956
  185MOL0     H24923  10.448   7.646  10.214  1.3736  0.2526 -1.6452
  185MOL0     H24924  10.367   7.924  10.242  1.3040  1.5322  1.6246
  185MOL0     H24925  10.416   7.812  10.377 -1.7182 -0.1630 -0.9418
  185MOL0     H24926  10.578   7.975  10.058  2.0777 -0.2961 -0.7678
  185MOL0     H24927  10.843   8.097  10.024  1.0502 -0.4191 -3.1707
  185MOL0     H24928  10.959   7.987  10.091  0.2875  2.2347  0.4390
  185MOL0     H24929  10.879   7.800   9.982  1.4647 -1.1409 -1.9087
  185MOL0     H24930  10.753   7.902   9.885  0.4392  0.4797 -2.5630
  185MOL0     H24931  11.065   7.948   9.887  0.4860  0.2616  0.1657
  185MOL0     H24932  10.947   7.998   9.761  2.5229 -0.7407 -1.9348
  185MOL0     H24933  10.929   7.759   9.696  0.3559  2.7488 -3.0778
  185MOL0     H24934  11.047   7.723   9.828  0.2047  1.2463  1.1144
  185MOL0     H24935  11.280   7.906   9.507 -1.0528  0.6221  1.9236
  185MOL0     H24936  11.452   7.767   9.411 -0.5199  1.5782  0.7614
  185MOL0     H24937  11.765   7.727   9.272  1.8506  1.4876  1.1024
  185MOL0     H24938  11.954   7.623   9.154  3.4111 -0.7753  1.7818
  185MOL0     H24939  12.198   7.396   9.416  0.5342 -1.0871  0.5929
  185MOL0     H24940  12.269   7.333   9.278  0.4049  0.4835  0.4120
  185MOL0     H24941  12.268   7.574   9.188 -0.3334 -0.2820  0.4320
  185MOL0     H24942  12.219   7.632   9.339 -0.3939  0.2636 -0.8162
  185MOL0     H24943  12.471   7.491   9.251 -0.4695 -2.2500  0.1082
  185MOL0     H24944  12.443   7.663   9.305  1.8577 -0.5367 -0.3497
  185MOL0     H24945  12.419   7.418   9.486 -3.0593  1.4696 -0.0027
  185MOL0     H24946  12.435   7.583   9.547 -1.9604  2.9401 -2.0978
  185MOL0     H24947  12.658   7.608   9.415  1.4813 -0.2753  1.6853
  185MOL0     H24948  12.659   7.436   9.384 -0.9615  0.3491  0.3999
  185MOL0     H24949  12.643   7.540   9.674 -0.7900 -0.0800 -0.3992
  185MOL0     H24950  12.655   7.379   9.620  1.1775 -0.7458  1.0898
  185MOL0     H24951  12.858   7.438   9.699 -2.0363 -1.1657  0.2897
  185MOL0     H24952  12.861   7.596   9.605 -0.9805  0.5805 -2.7352
  185MOL0     H24953  12.862   7.318   9.497  1.6280 -0.5568  1.5312
  185MOL0     H24954  12.899   7.461   9.395 -0.0295 -2.2263 -1.7555
  185MOL0     H24955  11.985   7.331   9.462  2.3221  2.3098  0.0996
  185MOL0     H24956  11.774   7.413   9.554 -0.6922  0.1683  0.3414
  185MOL0     H24957  11.346   7.439   9.651  1.9935  0.8744  0.1757
  185MOL0     H24958  11.157   7.582   9.760 -0.3127 -0.2841  0.2176
  185MOL0     H24959   9.280   7.866  10.370  1.1496  3.6314  0.0457
  185MOL0     H24960   9.066   7.851  10.281  0.3680  0.8596  1.4375
  185MOL0     H24961   8.745   7.831  10.082 -0.5210  0.7791  1.3735
  185MOL0     H24962   8.520   7.804  10.021 -0.1389  0.0737 -0.9368
  185MOL0     H24963   8.341   7.975  10.056  2.9643  0.8953 -1.3647
  185MOL0     H24964   8.295   7.825   9.965 -0.1526  0.2369  1.2568
  185MOL0     H24965   8.120   7.959   9.844 -1.5484  0.3645  0.1390
  185MOL0     H24966   8.160   8.081   9.970 -1.7841 -0.3447  0.5334
  185MOL0     H24967   8.125   7.916  10.152 -0.2478 -0.9295 -0.4234
  185MOL0     H24968   8.074   7.801  10.026 -0.0519 -0.0758 -1.5434
  185MOL0     H24969   7.890   7.901   9.963 -0.5997 -0.1683  0.1358
  185MOL0     H24970   7.897   7.902  10.148  0.1993 -0.7368  0.1735
  185MOL0     H24971   7.946   8.326  10.058 -1.9170  0.5693  0.1145
  185MOL0     H24972   8.568   8.116   9.725  2.4344  0.3180 -1.2326
  185MOL0     H24973   8.901   8.099   9.657 -1.2229 -0.1898 -1.3015
  185MOL0     H24974   8.746   8.182   9.657 -0.8740 -0.3629  1.7280
  185MOL0     H24975   8.868   8.218   9.789  1.2634 -1.4799  0.3737
  186MOL0     O24976   6.670   0.982   8.817 -0.5177 -0.0020  0.7564
  186MOL0     C24977   6.672   1.067   8.728 -0.4508  0.3033 -0.5141
  186MOL0     O24978   6.786   1.116   8.670 -0.3615 -1.0115 -0.3713
  186MOL0     C24979   6.907   1.055   8.679  0.8093 -0.5188 -1.0781
  186MOL0     C24980   7.024   1.134   8.700 -0.6773  1.9603  0.4225
  186MOL0     C24981   7.155   1.076   8.692  0.5863  0.3851  0.0101
  186MOL0     C24982   7.163   0.937   8.678  0.7723  0.1461 -0.3894
  186MOL0     O24983   7.284   0.873   8.685 -0.1486 -0.3507 -0.5796
  186MOL0     C24984   7.403   0.941   8.666 -0.9490 -0.4429  0.4852
  186MOL0     C24985   7.493   0.840   8.601 -0.5457  0.4167  0.5852
  186MOL0     C24986   7.627   0.903   8.543 -0.3310  0.7437 -0.4756
  186MOL0     C24987   7.637   0.911   8.390  0.3319  0.1629  0.7730
  186MOL0     C24988   7.788   0.922   8.345  0.3339 -0.4138  0.5701
  186MOL0     C24989   7.842   0.783   8.307 -1.4789  0.1933  0.1543
  186MOL0     C24990   7.917   0.789   8.180 -0.0297 -0.0339 -0.0474
  186MOL0     C24991   8.051   0.865   8.203  0.5613  0.1071  0.3538
  186MOL0     N24992   8.130   0.887   8.081 -0.4308 -1.1679  0.2518
  186MOL0     C24993   8.090   0.856   7.948 -0.5822 -0.2507  0.6497
  186MOL0     C24994   8.204   0.900   7.875 -0.1517 -0.5577  0.8477
  186MOL0     C24995   8.217   0.885   7.727  0.0533 -0.2258  0.2944
  186MOL0     C24996   8.235   0.745   7.670 -0.7185 -0.2585 -0.1101
  186MOL0     C24997   8.282   0.748   7.526 -0.1025  0.1352 -0.5061
  186MOL0     C24998   8.319   0.604   7.486 -1.4600  0.3231  0.1032
  186MOL0     O24999   8.398   0.595   7.365  0.5527  1.0604 -0.3446
  186MOL0     C25000   8.530   0.617   7.394 -0.3082  0.0198 -0.2033
  186MOL0     C25001   8.618   0.528   7.460 -0.1414 -0.3671  0.4580
  186MOL0     C25002   8.748   0.567   7.499  0.5426  0.2872  0.2059
  186MOL0     C25003   8.793   0.695   7.467 -0.4377 -0.1507 -0.4777
  186MOL0     C25004   8.931   0.739   7.501 -0.8492 -0.2847 -1.3243
  186MOL0     O25005   9.004   0.650   7.562 -0.1694 -0.3895  0.5851
  186MOL0     C25006   9.126   0.686   7.600  0.1802  0.7902 -0.0633
  186MOL0     C25007   9.227   0.736   7.514  0.0893 -0.6830 -0.4185
  186MOL0     C25008   9.358   0.758   7.567  0.5407  0.3629  0.1793
  186MOL0     C25009   9.394   0.703   7.686 -0.5146  0.0620 -0.2996
  186MOL0     O25010   9.534   0.709   7.704  0.0549  0.3113  0.1621
  186MOL0     C25011   9.578   0.623   7.815 -0.0153  0.1551  0.1789
  186MOL0     C25012   9.726   0.591   7.800 -0.1810  1.0068 -0.4928
  186MOL0     C25013   9.778   0.467   7.876  0.0439 -0.7016  0.8089
  186MOL0     C25014   9.930   0.437   7.862  0.1166 -0.7366  0.3473
  186MOL0     C25015   9.985   0.338   7.950  0.0383 -0.1213 -0.0712
  186MOL0     C25016   9.981   0.208   7.877 -0.2502  0.1741  0.0207
  186MOL0     C25017  10.011   0.092   7.968 -0.0843  0.9349 -0.8467
  186MOL0     C25018  10.022  -0.041   7.884  0.0035  0.4894  0.3340
  186MOL0    Cl25019  10.195  -0.061   7.818  0.5905 -0.5126 -0.3968
  186MOL0     C25020   9.289   0.668   7.783  0.7513  0.1580  0.3558
  186MOL0     C25021   9.160   0.660   7.735 -0.2099 -0.5133  1.1680
  186MOL0     O25022   8.970   0.851   7.476  0.8941  0.3508 -0.1198
  186MOL0     C25023   8.710   0.776   7.385 -0.1326  0.1268  0.0711
  186MOL0     C25024   8.583   0.740   7.347 -0.3211  0.6180  0.4884
  186MOL0     N25025   8.300   0.957   7.962  0.8004  0.1612 -0.4908
  186MOL0     N25026   8.254   0.938   8.083  0.0220 -0.3208 -0.2822
  186MOL0     C25027   7.048   0.859   8.666 -1.0974 -0.2334  0.2408
  186MOL0     C25028   6.920   0.918   8.658 -0.0078 -0.9213 -0.6660
  186MOL0     C25029   6.536   1.106   8.673  0.2260 -0.4181  1.0782
  186MOL0     C25030   6.439   1.008   8.655  0.0981  0.0053 -0.4867
  186MOL0     C25031   6.314   1.043   8.605  0.6375 -0.1553  0.4052
  186MOL0     C25032   6.269   1.172   8.580  0.2749 -0.0336  0.5048
  186MOL0     O25033   6.140   1.216   8.528 -0.2442  0.2883 -0.5299
  186MOL0     C25034   6.029   1.124   8.540 -0.5335 -0.3916 -1.0495
  186MOL0     C25035   6.028   1.029   8.427 -0.5240  0.5804  0.2270
  186MOL0     C25036   6.051   1.095   8.296  0.0850 -0.0935  0.9384
  186MOL0     C25037   6.041   1.013   8.169  0.2488 -0.1897  0.3661
  186MOL0     C25038   5.907   0.983   8.132  0.0072  0.2014 -0.0719
  186MOL0     C25039   5.792   0.952   8.097 -0.4415  0.1876  0.5037
  186MOL0     C25040   6.364   1.275   8.601  0.8841  0.2988 -0.8763
  186MOL0     C25041   6.501   1.244   8.649  0.8777  0.4428  0.1894
  186MOL0     C25042   6.601   1.359   8.659 -0.1618  0.5637 -0.3753
  186MOL0     H25043   6.999   1.237   8.723 -0.5302  1.9236  0.7471
  186MOL0     H25044   7.240   1.144   8.688  2.0085 -1.3050  0.0500
  186MOL0     H25045   7.395   1.025   8.597  5.7060 -2.5515 -3.7360
  186MOL0     H25046   7.444   0.976   8.762 -0.2433 -0.8156  0.3235
  186MOL0     H25047   7.440   0.796   8.516  1.1467  0.5806 -0.6139
  186MOL0     H25048   7.519   0.758   8.669 -0.9842  0.0414  0.3066
  186MOL0     H25049   7.711   0.845   8.582 -0.2970  0.8894 -0.3333
  186MOL0     H25050   7.635   1.006   8.577  0.5684  0.0326  1.5667
  186MOL0     H25051   7.578   0.829   8.347 -0.1671  0.3185  1.1528
  186MOL0     H25052   7.586   1.005   8.367 -0.3509  0.3275  2.8137
  186MOL0     H25053   7.784   0.993   8.262 -3.4782  3.1973  3.4336
  186MOL0     H25054   7.848   0.975   8.420 -4.5026  2.1616  3.0676
  186MOL0     H25055   7.914   0.741   8.378  3.5060  4.7090 -1.5151
  186MOL0     H25056   7.752   0.725   8.284  0.3430 -1.3332 -4.1155
  186MOL0     H25057   7.849   0.828   8.104  0.1987  1.2528  0.3684
  186MOL0     H25058   7.942   0.686   8.155  2.8886 -0.2634  3.0412
  186MOL0     H25059   8.033   0.962   8.251  1.9462  1.3702 -1.5400
  186MOL0     H25060   8.110   0.803   8.271  1.5548  2.3326  1.6450
  186MOL0     H25061   7.992   0.825   7.914 -1.6312 -1.1574  4.1230
  186MOL0     H25062   8.128   0.930   7.683  0.7062  1.8265  0.9851
  186MOL0     H25063   8.299   0.952   7.702 -0.1402  1.5152  3.7647
  186MOL0     H25064   8.300   0.691   7.739 -3.8026  0.0416  3.3341
  186MOL0     H25065   8.142   0.688   7.679 -0.2804 -1.0206 -0.3063
  186MOL0     H25066   8.375   0.802   7.505 -0.8403  1.1196 -1.3603
  186MOL0     H25067   8.209   0.793   7.457 -0.6252  0.8593  0.4926
  186MOL0     H25068   8.230   0.540   7.478 -0.2438 -2.1008  3.6112
  186MOL0     H25069   8.373   0.561   7.571 -1.2916 -1.4570 -0.8595
  186MOL0     H25070   8.578   0.432   7.491  2.1217 -0.7096  2.6693
  186MOL0     H25071   8.808   0.498   7.556 -0.9918 -0.4942  0.9339
  186MOL0     H25072   9.205   0.757   7.409 -1.7267  1.7085  0.3527
  186MOL0     H25073   9.430   0.798   7.497 -1.0232 -1.0429 -2.4041
  186MOL0     H25074   9.555   0.681   7.905  0.3326  0.8582 -0.1741
  186MOL0     H25075   9.514   0.534   7.818  2.0673 -1.4467 -0.6006
  186MOL0     H25076   9.730   0.565   7.694  1.0871 -3.7571  0.4627
  186MOL0     H25077   9.793   0.674   7.822 -2.2892  2.3082  1.5454
  186MOL0     H25078   9.750   0.472   7.982 -1.1276 -1.7920  0.5862
  186MOL0     H25079   9.737   0.377   7.828  0.4128 -1.9318  2.6862
  186MOL0     H25080   9.986   0.527   7.889  1.3148 -0.2927 -3.1245
  186MOL0     H25081   9.954   0.414   7.758  1.4075  2.5422 -0.2000
  186MOL0     H25082   9.920   0.325   8.038  2.5543  2.4073  2.3280
  186MOL0     H25083  10.086   0.363   7.981  0.7179  0.1009 -2.3088
  186MOL0     H25084   9.881   0.200   7.832  0.7273 -5.3328 -1.9639
  186MOL0     H25085  10.052   0.207   7.793  1.1243  0.8849  1.1382
  186MOL0     H25086   9.924   0.093   8.035  0.0310  0.0519 -0.6784
  186MOL0     H25087  10.100   0.098   8.032 -0.8013  0.7293  0.1867
  186MOL0     H25088  10.000  -0.125   7.952  0.6312 -1.0882 -1.3343
  186MOL0     H25089   9.949  -0.055   7.804 -0.4610  0.3535  0.7742
  186MOL0     H25090   9.316   0.638   7.883 -0.7956 -0.0996  0.7253
  186MOL0     H25091   9.091   0.634   7.815 -1.1636 -2.2322 -0.1328
  186MOL0     H25092   8.748   0.865   7.335  0.2447 -0.5998 -0.9920
  186MOL0     H25093   8.531   0.782   7.262 -0.8989  0.2857  0.6686
  186MOL0     H25094   7.056   0.751   8.661 -1.9241 -0.4058  1.9873
  186MOL0     H25095   6.828   0.870   8.626 -1.4546  2.8656 -2.8351
  186MOL0     H25096   6.455   0.903   8.679  0.4096  0.0199 -0.6184
  186MOL0     H25097   6.258   0.951   8.590 -0.8863  0.5847  1.3359
  186MOL0     H25098   5.936   1.180   8.529  0.7599  2.9015  2.7234
  186MOL0     H25099   6.019   1.071   8.635 -1.6932 -1.2033 -1.5918
  186MOL0     H25100   5.926   0.992   8.419 -0.1189 -0.5715  0.1519
  186MOL0     H25101   6.084   0.937   8.447 -0.9154  0.6847  2.0462
  186MOL0     H25102   6.156   1.126   8.296 -0.0249  0.2919  0.7124
  186MOL0     H25103   5.986   1.181   8.276 -0.4656 -0.8338 -0.6130
  186MOL0     H25104   6.079   1.065   8.080 -1.6748  0.8217  0.0833
  186MOL0     H25105   6.098   0.921   8.184 -1.4583 -1.3927 -0.2128
  186MOL0     H25106   5.699   0.912   8.061 -0.5310 -0.5767  1.5672
  186MOL0     H25107   6.314   1.370   8.587 -4.1282 -1.5739  1.7965
  186MOL0     H25108   6.661   1.375   8.570 -2.9756  2.1914 -2.1476
  186MOL0     H25109   6.543   1.450   8.677  0.3050  0.5443  1.4956
  186MOL0     H25110   6.663   1.344   8.748  0.0680  2.0616 -0.2647
  187MOL0     O25111  10.599   4.952   8.286  0.3876 -0.0199  0.2093
  187MOL0     C25112  10.547   4.862   8.354  0.7581  0.2792 -0.1163
  187MOL0     O25113  10.582   4.830   8.479 -0.0457  0.1495  0.0169
  187MOL0     C25114  10.615   4.924   8.576  0.5932 -0.0937  0.2248
  187MOL0     C25115  10.542   5.041   8.596 -0.3674  0.6137  0.8924
  187MOL0     C25116  10.578   5.127   8.707  0.6784  0.1582  0.1793
  187MOL0     C25117  10.680   5.080   8.787  0.6184 -0.5397 -0.1687
  187MOL0     O25118  10.730   5.137   8.898 -0.2038 -0.1867  0.9539
  187MOL0     C25119  10.686   5.272   8.932 -0.6427  0.2007  0.8814
  187MOL0     C25120  10.761   5.332   9.055 -0.2882  0.5265  0.6580
  187MOL0     C25121  10.910   5.352   9.020  0.2462 -0.5195  0.3029
  187MOL0     C25122  10.982   5.469   9.083  0.4874  0.7902  0.3664
  187MOL0     C25123  11.129   5.479   9.065  0.6875 -0.9721 -0.2073
  187MOL0     C25124  11.153   5.514   8.917 -0.2180 -0.1339 -0.5626
  187MOL0     C25125  11.284   5.587   8.885 -0.7101  0.0983  0.2995
  187MOL0     C25126  11.280   5.730   8.929  0.3761  0.3802  0.4152
  187MOL0     N25127  11.164   5.795   8.867  1.0241 -0.6278 -0.3261
  187MOL0     C25128  11.054   5.834   8.925  0.1679  0.1117 -0.3845
  187MOL0     C25129  10.968   5.878   8.830 -0.6178 -0.2795 -0.6810
  187MOL0     C25130  10.822   5.916   8.862  1.1254 -0.3196 -0.1890
  187MOL0     C25131  10.723   5.797   8.836 -0.1489 -0.7569  0.3210
  187MOL0     C25132  10.585   5.836   8.901  0.3558  1.0897 -0.1154
  187MOL0     C25133  10.458   5.744   8.885 -0.0390  0.0415 -0.2901
  187MOL0     O25134  10.478   5.622   8.966 -0.6280 -0.4132 -0.1105
  187MOL0     C25135  10.376   5.545   9.003  0.1814  0.2193  0.7049
  187MOL0     C25136  10.248   5.548   8.938  0.1723 -0.5099  0.6379
  187MOL0     C25137  10.144   5.458   8.968  0.4896  0.1439  0.4172
  187MOL0     C25138  10.168   5.355   9.064  0.2224  0.2567 -0.5686
  187MOL0     C25139  10.063   5.261   9.108 -0.1190 -0.7064 -0.2265
  187MOL0     O25140   9.942   5.302   9.061 -0.1010  0.0263 -0.0343
  187MOL0     C25141   9.848   5.206   9.051 -0.9344  0.7315 -0.2487
  187MOL0     C25142   9.816   5.146   8.924 -0.0154  0.7202  0.0142
  187MOL0     C25143   9.707   5.050   8.910  0.9927 -0.0075  0.1239
  187MOL0     C25144   9.628   5.022   9.015  0.7335 -0.1284 -0.0636
  187MOL0     O25145   9.512   4.951   9.011  0.0332 -0.2556 -0.1339
  187MOL0     C25146   9.467   4.907   8.881 -0.3936  0.0422  0.3508
  187MOL0     C25147   9.337   4.827   8.885 -0.5661  0.2057 -0.3786
  187MOL0     C25148   9.211   4.919   8.905 -0.0931 -0.7259  0.0058
  187MOL0     C25149   9.222   5.017   9.031 -0.1283 -0.0056 -0.2606
  187MOL0     C25150   9.082   5.070   9.075  1.0156 -0.2893 -0.4301
  187MOL0     C25151   9.086   5.178   9.183  0.5016  0.2336 -1.0606
  187MOL0     C25152   9.116   5.130   9.327 -0.0380  0.5990  0.0977
  187MOL0     C25153   9.136   5.246   9.423  0.2118 -0.2630 -0.3759
  187MOL0    Cl25154   8.971   5.314   9.443 -0.1424  0.5764  0.2078
  187MOL0     C25155   9.653   5.091   9.139 -0.1959  0.2298 -0.3870
  187MOL0     C25156   9.774   5.168   9.162 -0.7162  0.5569  0.9774
  187MOL0     O25157  10.089   5.152   9.157 -0.2798  0.2524  0.0031
  187MOL0     C25158  10.297   5.342   9.115  0.2368 -0.0338  0.2261
  187MOL0     C25159  10.398   5.427   9.086  0.0385 -1.0336 -0.9070
  187MOL0     N25160  11.042   5.883   8.713  0.2642 -0.7045  0.2297
  187MOL0     N25161  11.156   5.842   8.734 -0.6232 -0.0146  0.0174
  187MOL0     C25162  10.741   4.959   8.767  0.0522 -1.0762 -0.1908
  187MOL0     C25163  10.711   4.883   8.655  0.0778 -0.6603  0.1193
  187MOL0     C25164  10.430   4.784   8.304 -0.7527  0.6203 -0.2321
  187MOL0     C25165  10.317   4.774   8.378  0.5867  0.0004  0.6059
  187MOL0     C25166  10.198   4.707   8.338 -0.3527 -0.8402  0.0565
  187MOL0     C25167  10.195   4.658   8.210  0.7164  0.2579 -0.4015
  187MOL0     O25168  10.083   4.592   8.152  0.5996  0.4723 -0.0107
  187MOL0     C25169   9.954   4.596   8.211 -0.2369  0.2955 -0.7480
  187MOL0     C25170   9.853   4.543   8.117  1.0108 -0.3287  0.5364
  187MOL0     C25171   9.838   4.631   7.995  0.1736  0.3731 -0.5314
  187MOL0     C25172   9.709   4.715   8.007  0.0765  1.0169 -0.0869
  187MOL0     C25173   9.586   4.645   7.964  0.4632 -0.2166 -0.3893
  187MOL0     C25174   9.481   4.588   7.946  0.5581  0.8184 -0.2267
  187MOL0     C25175  10.307   4.657   8.137 -0.7384  0.4611  1.4953
  187MOL0     C25176  10.424   4.718   8.178 -0.8393 -0.2772 -0.1156
  187MOL0     C25177  10.554   4.699   8.105  0.5493 -0.0621  0.3885
  187MOL0     H25178  10.463   5.068   8.527  1.2884 -0.9621 -1.8232
  187MOL0     H25179  10.529   5.223   8.709 -4.0277 -1.9865  2.0842
  187MOL0     H25180  10.704   5.332   8.842  1.5318  1.2117  1.9376
  187MOL0     H25181  10.586   5.262   8.977 -0.8729 -1.4950  0.0999
  187MOL0     H25182  10.757   5.267   9.142 -0.0579  0.2096  0.4329
  187MOL0     H25183  10.720   5.428   9.089  0.0191  1.1888 -0.7668
  187MOL0     H25184  10.926   5.354   8.912 -1.4665  0.8145  0.0347
  187MOL0     H25185  10.960   5.260   9.052 -0.7210 -1.4066 -0.6571
  187MOL0     H25186  10.942   5.564   9.046 -0.4010 -0.7210 -2.8895
  187MOL0     H25187  10.958   5.457   9.189 -1.6195 -2.5536 -0.3502
  187MOL0     H25188  11.161   5.570   9.117 -0.2524 -2.1346  2.6096
  187MOL0     H25189  11.191   5.396   9.100  0.5737 -0.7201  0.6245
  187MOL0     H25190  11.160   5.416   8.869 -0.2172 -1.4919  2.0534
  187MOL0     H25191  11.068   5.558   8.864 -0.2045 -0.4762 -0.8767
  187MOL0     H25192  11.309   5.567   8.780 -0.8396 -0.5037  0.3802
  187MOL0     H25193  11.369   5.551   8.945 -2.2375  1.2958  3.3990
  187MOL0     H25194  11.273   5.739   9.038 -3.4561  2.0509  0.2081
  187MOL0     H25195  11.361   5.791   8.888  0.1595  0.6320  0.3618
  187MOL0     H25196  11.014   5.810   9.022 -0.0560 -1.2185 -0.7930
  187MOL0     H25197  10.812   5.940   8.968  0.3455  2.0869 -0.7331
  187MOL0     H25198  10.779   6.003   8.812 -2.6134 -2.2612 -0.7072
  187MOL0     H25199  10.702   5.793   8.729 -1.5366  2.8385  0.3357
  187MOL0     H25200  10.758   5.699   8.871 -1.5930 -0.5685  2.4393
  187MOL0     H25201  10.569   5.935   8.859 -0.9878  0.8163 -0.2940
  187MOL0     H25202  10.599   5.834   9.010  0.5382  0.0642 -0.1472
  187MOL0     H25203  10.443   5.731   8.777 -1.6718 -0.4391 -0.0387
  187MOL0     H25204  10.363   5.790   8.913  0.8482  2.2737 -0.7294
  187MOL0     H25205  10.220   5.615   8.857 -0.2325 -1.1238  0.2625
  187MOL0     H25206  10.044   5.483   8.933  0.4703 -0.0761  0.3070
  187MOL0     H25207   9.880   5.175   8.840 -1.2132  2.1927 -0.4255
  187MOL0     H25208   9.682   5.012   8.811  2.6136  2.6971 -1.4633
  187MOL0     H25209   9.455   4.993   8.814 -2.0566  2.2523  3.2418
  187MOL0     H25210   9.539   4.835   8.840 -3.8931 -2.2049 -2.5778
  187MOL0     H25211   9.309   4.783   8.789 -2.0339 -2.6268  1.1883
  187MOL0     H25212   9.352   4.748   8.960  3.8828  2.4316  1.4462
  187MOL0     H25213   9.197   4.996   8.829  1.8717 -1.0572 -0.7662
  187MOL0     H25214   9.119   4.861   8.897 -1.3770  1.2834 -0.3460
  187MOL0     H25215   9.280   5.105   9.002  1.5536 -0.9833 -0.0557
  187MOL0     H25216   9.274   4.969   9.115  1.1187  0.8267 -0.5392
  187MOL0     H25217   9.014   4.991   9.108  0.7531 -0.1274 -0.5834
  187MOL0     H25218   9.050   5.109   8.978  1.6061 -0.8555 -0.8680
  187MOL0     H25219   9.158   5.256   9.155 -0.7555  1.9133  0.1690
  187MOL0     H25220   8.986   5.221   9.177  0.7523  0.6779 -2.6937
  187MOL0     H25221   9.210   5.075   9.317 -0.7429 -0.3293 -2.3092
  187MOL0     H25222   9.033   5.069   9.364 -1.2924  0.6365 -2.4412
  187MOL0     H25223   9.168   5.218   9.523 -0.4998  2.0984  0.5944
  187MOL0     H25224   9.201   5.328   9.390 -1.3244  1.4621  0.6618
  187MOL0     H25225   9.586   5.068   9.221 -0.5444 -2.9516 -1.4199
  187MOL0     H25226   9.789   5.221   9.256  0.0387  1.0674  0.5746
  187MOL0     H25227  10.317   5.265   9.188  1.1587 -0.4038 -0.4101
  187MOL0     H25228  10.496   5.407   9.128 -0.1759 -1.5757 -0.6645
  187MOL0     H25229  10.821   4.922   8.830 -0.2329  0.6692  1.2532
  187MOL0     H25230  10.765   4.790   8.639 -1.3035 -1.2087 -1.6583
  187MOL0     H25231  10.320   4.820   8.476  0.7824  0.9134  0.1858
  187MOL0     H25232  10.111   4.700   8.402  0.2075  1.5760  1.1745
  187MOL0     H25233   9.920   4.697   8.236 -0.5873  0.4135 -1.6567
  187MOL0     H25234   9.941   4.539   8.303  0.8184 -2.4336 -2.1857
  187MOL0     H25235   9.755   4.530   8.164  0.4579  1.0779 -0.1386
  187MOL0     H25236   9.880   4.447   8.074 -2.6963 -0.4327 -2.0567
  187MOL0     H25237   9.836   4.573   7.902 -1.1340 -0.6990  0.1376
  187MOL0     H25238   9.926   4.696   7.994 -0.5655  1.5236  1.5202
  187MOL0     H25239   9.692   4.734   8.114  0.0822  1.3862 -0.1510
  187MOL0     H25240   9.715   4.815   7.963  0.2986  0.8836 -0.3589
  187MOL0     H25241   9.380   4.551   7.947  0.2765  1.5655 -0.5737
  187MOL0     H25242  10.303   4.602   8.044  0.3730 -2.5082  3.0469
  187MOL0     H25243  10.538   4.703   7.996  1.7528 -2.6040  0.0417
  187MOL0     H25244  10.630   4.774   8.131 -0.1987  0.4076  1.2698
  187MOL0     H25245  10.595   4.598   8.113 -2.2738 -1.8353 -3.8832
  188MOL0     O25246   2.145   5.008  10.117 -0.2229 -0.2447 -0.0211
  188MOL0     C25247   2.092   5.024  10.000 -0.1082  0.4036  0.0074
  188MOL0     O25248   2.146   5.100   9.889  0.3090  0.3970 -0.6153
  188MOL0     C25249   2.274   5.133   9.898  0.2404 -0.4783  0.1191
  188MOL0     C25250   2.306   5.247   9.826  0.0091  0.9630 -0.5474
  188MOL0     C25251   2.440   5.289   9.816  0.0633  0.2866 -0.3331
  188MOL0     C25252   2.544   5.215   9.861  0.0774 -0.5823 -0.6882
  188MOL0     O25253   2.666   5.275   9.854  0.5186  0.1516  0.3868
  188MOL0     C25254   2.744   5.250   9.973  0.2960 -0.1093 -0.8324
  188MOL0     C25255   2.875   5.320   9.978 -0.5920 -0.0843 -0.2334
  188MOL0     C25256   2.980   5.241   9.905  0.6943  0.7365  0.0982
  188MOL0     C25257   3.123   5.291   9.943  0.1942 -0.4582  0.1854
  188MOL0     C25258   3.219   5.254   9.827 -0.1282 -0.4402 -0.0266
  188MOL0     C25259   3.359   5.308   9.856  0.1723  0.1990  0.0937
  188MOL0     C25260   3.462   5.265   9.748 -0.7103 -0.0952  0.2782
  188MOL0     C25261   3.459   5.369   9.637  0.1316  0.1083 -0.1850
  188MOL0     N25262   3.580   5.363   9.543 -0.3166 -0.1439  0.8878
  188MOL0     C25263   3.713   5.395   9.567 -0.2920 -0.4056 -0.0138
  188MOL0     C25264   3.780   5.359   9.453 -0.3405  0.4699 -0.3715
  188MOL0     C25265   3.927   5.348   9.440 -0.1418  0.7355 -0.0101
  188MOL0     C25266   3.978   5.356   9.295 -0.2891 -0.3067 -0.2804
  188MOL0     C25267   4.122   5.296   9.299  0.3865  1.0948 -1.2310
  188MOL0     C25268   4.223   5.378   9.382 -0.0952 -0.3510 -0.5975
  188MOL0     O25269   4.340   5.297   9.392 -0.2676 -0.3736 -0.0920
  188MOL0     C25270   4.458   5.349   9.443 -0.2829 -0.1553  0.4631
  188MOL0     C25271   4.469   5.455   9.544  0.1534  0.1509  0.5932
  188MOL0     C25272   4.593   5.505   9.582 -0.7832  0.3878 -0.6858
  188MOL0     C25273   4.716   5.446   9.555 -0.2270  0.2158 -0.5205
  188MOL0     C25274   4.838   5.488   9.615 -0.8941  0.1478 -0.0319
  188MOL0     O25275   4.834   5.607   9.697 -0.2503  0.0039  0.1273
  188MOL0     C25276   4.943   5.664   9.758 -0.3110 -1.2549 -0.7133
  188MOL0     C25277   5.083   5.664   9.721  0.1222  0.1763  0.2828
  188MOL0     C25278   5.192   5.724   9.791  0.7393 -0.6551 -0.5370
  188MOL0     C25279   5.162   5.778   9.917 -0.3278  0.6426 -0.6654
  188MOL0     O25280   5.256   5.819  10.004  0.5304 -0.3388  0.2527
  188MOL0     C25281   5.343   5.725  10.048 -1.8197  0.2210  0.9281
  188MOL0     C25282   5.483   5.750   9.980  0.2206  0.5183  0.9154
  188MOL0     C25283   5.609   5.678  10.032  0.3330  0.1835 -0.1525
  188MOL0     C25284   5.662   5.753  10.155  0.6547 -0.6283 -0.1432
  188MOL0     C25285   5.799   5.698  10.191 -0.4159 -0.0156 -0.4994
  188MOL0     C25286   5.875   5.784  10.291 -0.5688 -0.3317  0.1770
  188MOL0     C25287   6.027   5.757  10.314  0.1004 -1.1708  0.7015
  188MOL0     C25288   6.067   5.620  10.379 -0.2971 -0.2511 -0.5329
  188MOL0    Cl25289   5.993   5.591  10.531 -0.2157 -0.4094 -0.7340
  188MOL0     C25290   5.026   5.788   9.959  0.6521 -0.4193 -0.1358
  188MOL0     C25291   4.917   5.728   9.886 -1.1916  0.4036  0.2048
  188MOL0     O25292   4.943   5.421   9.578  0.0849  0.0640 -0.1882
  188MOL0     C25293   4.702   5.336   9.454  0.0443  1.0063  0.0274
  188MOL0     C25294   4.581   5.294   9.402  0.0171  0.4047 -0.2821
  188MOL0     N25295   3.693   5.287   9.370 -0.1887  0.0316 -0.0922
  188MOL0     N25296   3.575   5.307   9.412  0.2095  0.2578 -0.2898
  188MOL0     C25297   2.517   5.087   9.923  0.1963  0.3099 -0.3763
  188MOL0     C25298   2.384   5.045   9.941  0.2170 -0.1838 -0.7698
  188MOL0     C25299   1.961   4.964   9.977 -0.4377  0.6051  0.7354
  188MOL0     C25300   1.879   5.032   9.884 -0.7902  0.6153  0.1938
  188MOL0     C25301   1.740   5.002   9.864 -0.2295 -0.6343 -0.3955
  188MOL0     C25302   1.682   4.906   9.941  1.1096  0.5354 -0.6658
  188MOL0     O25303   1.550   4.859   9.935 -0.3343 -0.3438  0.3716
  188MOL0     C25304   1.471   4.897   9.821 -0.4237 -0.3850  0.1574
  188MOL0     C25305   1.339   4.829   9.820 -1.5151 -0.1406 -0.5183
  188MOL0     C25306   1.268   4.848   9.690  0.6652 -0.7822 -0.0059
  188MOL0     C25307   1.185   4.981   9.669  0.1341 -0.4027 -0.5187
  188MOL0     C25308   1.277   5.094   9.648  0.1788 -0.3670  0.2393
  188MOL0     C25309   1.364   5.170   9.617  0.2944 -0.3478 -0.3680
  188MOL0     C25310   1.768   4.827  10.021 -0.4005 -0.1967 -0.5815
  188MOL0     C25311   1.904   4.858  10.048 -0.2058 -0.3133  0.1897
  188MOL0     C25312   1.974   4.784  10.161 -0.7155 -0.1914 -0.3352
  188MOL0     H25313   2.227   5.303   9.777 -1.3194 -0.7861 -0.5037
  188MOL0     H25314   2.464   5.392   9.791  1.1586  0.5915  1.7433
  188MOL0     H25315   2.683   5.283  10.058  1.7449 -1.5414  0.8432
  188MOL0     H25316   2.761   5.142   9.988 -0.9529 -0.2439 -0.2436
  188MOL0     H25317   2.910   5.335  10.080 -3.9604 -0.0907  1.0423
  188MOL0     H25318   2.869   5.420   9.934  1.2079  0.1909  0.0703
  188MOL0     H25319   2.963   5.247   9.798 -1.3810  1.3272  0.4181
  188MOL0     H25320   2.983   5.138   9.943 -1.5886  1.0583  1.3524
  188MOL0     H25321   3.129   5.398   9.966  1.6279 -1.0299  2.9331
  188MOL0     H25322   3.168   5.237  10.028  0.9152 -1.7412 -0.9752
  188MOL0     H25323   3.220   5.145   9.819 -2.1029 -0.5662  0.7371
  188MOL0     H25324   3.187   5.289   9.729  0.1495 -1.9681 -0.6944
  188MOL0     H25325   3.349   5.413   9.885  0.4384 -0.3467  2.3614
  188MOL0     H25326   3.385   5.257   9.949  1.7346 -0.1100 -0.4765
  188MOL0     H25327   3.449   5.164   9.706  0.4956  0.7717 -2.3859
  188MOL0     H25328   3.552   5.278   9.809 -0.2120 -0.6879 -0.3110
  188MOL0     H25329   3.370   5.351   9.576 -1.0569 -0.0524  1.5310
  188MOL0     H25330   3.443   5.468   9.681 -4.6752  0.7918 -2.7651
  188MOL0     H25331   3.759   5.436   9.657 -0.5367  0.8420 -0.4344
  188MOL0     H25332   3.972   5.428   9.499 -1.1765  1.6178 -0.3706
  188MOL0     H25333   3.955   5.248   9.475 -2.1300 -0.5961 -1.9080
  188MOL0     H25334   3.923   5.278   9.241 -0.5217  0.6164 -1.4085
  188MOL0     H25335   3.978   5.456   9.251 -0.1478 -1.4641 -3.1691
  188MOL0     H25336   4.173   5.279   9.204  0.9262 -1.0755 -0.6249
  188MOL0     H25337   4.103   5.196   9.340  0.0849  0.9274 -1.7809
  188MOL0     H25338   4.187   5.403   9.483 -0.0644  0.7716 -0.8604
  188MOL0     H25339   4.252   5.467   9.327 -2.9384  0.0441 -1.6326
  188MOL0     H25340   4.378   5.498   9.584 -0.9383 -1.9159  0.4573
  188MOL0     H25341   4.602   5.588   9.651  1.4246 -0.8196  0.5896
  188MOL0     H25342   5.099   5.612   9.627 -0.9131  0.6281 -0.1597
  188MOL0     H25343   5.289   5.717   9.744  0.0773 -2.0669 -1.7800
  188MOL0     H25344   5.357   5.725  10.156  1.9687 -1.9083  0.6123
  188MOL0     H25345   5.302   5.626  10.026  0.1871 -0.8644  1.7912
  188MOL0     H25346   5.484   5.726   9.873 -1.3817 -2.8038  1.5176
  188MOL0     H25347   5.507   5.857   9.985  0.0223  0.6186 -0.0522
  188MOL0     H25348   5.596   5.572  10.056 -2.2905  0.6306  0.7108
  188MOL0     H25349   5.693   5.676   9.961  1.3452  0.4692  0.9860
  188MOL0     H25350   5.595   5.760  10.241 -0.4268  2.7149 -1.1128
  188MOL0     H25351   5.678   5.855  10.119  0.2957 -0.8333 -0.8961
  188MOL0     H25352   5.867   5.690  10.105 -0.3835 -0.8554 -0.4053
  188MOL0     H25353   5.787   5.602  10.242  0.8565  1.2830  2.4485
  188MOL0     H25354   5.875   5.889  10.262 -0.5021 -0.4757 -0.3571
  188MOL0     H25355   5.817   5.775  10.383 -0.9249  0.0213 -0.0114
  188MOL0     H25356   6.071   5.830  10.382 -0.8137 -2.8731  3.2750
  188MOL0     H25357   6.072   5.766  10.215 -1.3064 -3.9992 -0.2974
  188MOL0     H25358   6.024   5.537  10.323  2.6893 -2.9375  0.8964
  188MOL0     H25359   6.174   5.612  10.397 -1.0175 -1.4948  5.0393
  188MOL0     H25360   4.986   5.847  10.040  1.6433 -0.2979  0.2791
  188MOL0     H25361   4.821   5.719   9.935  0.0032 -1.9018  2.3346
  188MOL0     H25362   4.792   5.298   9.409 -0.4365  1.6372 -1.5413
  188MOL0     H25363   4.581   5.200   9.347 -1.7264 -0.4268  1.0635
  188MOL0     H25364   2.590   5.027   9.976  0.5819  0.9317 -0.1989
  188MOL0     H25365   2.371   4.948   9.987  2.8687 -0.7820 -1.1350
  188MOL0     H25366   1.906   5.113   9.817 -2.7428  2.5310  1.6048
  188MOL0     H25367   1.685   5.050   9.784  1.9730  0.9112 -1.1043
  188MOL0     H25368   1.530   4.877   9.732 -1.5318  1.6318 -1.1049
  188MOL0     H25369   1.457   5.005   9.820  0.7330 -0.2247  0.4323
  188MOL0     H25370   1.279   4.862   9.906  2.6032  0.0738  2.5461
  188MOL0     H25371   1.353   4.723   9.844 -1.1987 -0.1470 -0.7293
  188MOL0     H25372   1.212   4.756   9.672 -0.7476  0.0866 -0.1897
  188MOL0     H25373   1.346   4.849   9.613  1.7090 -3.3680  0.9007
  188MOL0     H25374   1.115   4.970   9.586 -0.0498  0.6928 -0.5189
  188MOL0     H25375   1.120   4.995   9.756 -0.7921 -2.1314 -0.8777
  188MOL0     H25376   1.446   5.235   9.594  1.1547 -0.3344  2.3821
  188MOL0     H25377   1.732   4.737  10.069 -0.8700 -0.4853 -1.4537
  188MOL0     H25378   1.908   4.743  10.238  1.0731  1.2618  2.1114
  188MOL0     H25379   2.025   4.697  10.119 -0.9204 -0.4017 -0.1527
  188MOL0     H25380   2.044   4.847  10.217  1.1885  0.8623 -3.6251
  189MOL0     O25381   0.143   1.529  10.608 -0.3639 -0.3927 -0.0449
  189MOL0     C25382   0.038   1.488  10.558  0.7265 -0.4584 -0.2809
  189MOL0     O25383   0.029   1.367  10.502  0.0260  0.1196  0.1535
  189MOL0     C25384   0.140   1.283  10.490 -0.3948  0.0059  0.6350
  189MOL0     C25385   0.133   1.161  10.559 -0.2313 -0.1542  0.5454
  189MOL0     C25386   0.240   1.074  10.550 -0.5162  0.6798 -0.0847
  189MOL0     C25387   0.353   1.099  10.468  0.3245 -0.5324 -0.4610
  189MOL0     O25388   0.465   1.029  10.433  0.2803  0.3595  0.3021
  189MOL0     C25389   0.498   0.919  10.522  0.0031  0.5155  0.4246
  189MOL0     C25390   0.603   0.953  10.619 -0.1630  0.2453  0.2151
  189MOL0     C25391   0.729   0.985  10.547  0.3549  0.5842 -0.4329
  189MOL0     C25392   0.844   1.016  10.649  0.2721 -0.0451 -0.4693
  189MOL0     C25393   0.974   1.053  10.584  0.0463  0.6740  0.2391
  189MOL0     C25394   1.057   0.937  10.539 -0.4239 -0.5182  0.1699
  189MOL0     C25395   1.181   0.977  10.449  0.2084 -0.0154 -0.7458
  189MOL0     C25396   1.276   1.053  10.537  0.3506 -0.3072  0.4686
  189MOL0     N25397   1.343   0.976  10.644  0.8268 -0.1551 -0.1563
  189MOL0     C25398   1.452   0.894  10.606 -0.1399  0.1000  0.0666
  189MOL0     C25399   1.481   0.815  10.725  0.2335  0.3713  0.3743
  189MOL0     C25400   1.569   0.695  10.725 -0.1313  0.2341  0.4889
  189MOL0     C25401   1.703   0.732  10.785  0.6172 -0.5718 -0.1175
  189MOL0     C25402   1.798   0.615  10.803  0.3790 -0.7452  0.5590
  189MOL0     C25403   1.806   0.516  10.687  1.2101 -0.4290  1.0156
  189MOL0     O25404   1.884   0.398  10.725 -0.4959  0.2247  0.1522
  189MOL0     C25405   2.022   0.409  10.730  0.1813 -0.5049  1.2713
  189MOL0     C25406   2.086   0.461  10.850 -0.9959  0.4430 -1.0170
  189MOL0     C25407   2.233   0.434  10.863  0.0178 -0.2718  0.6220
  189MOL0     C25408   2.308   0.380  10.751  0.0553 -0.1992  0.2642
  189MOL0     C25409   2.450   0.336  10.773  0.0104  0.0818  0.4704
  189MOL0     O25410   2.467   0.276  10.890 -0.6078 -0.0104 -0.0175
  189MOL0     C25411   2.605   0.252  10.914 -0.2619 -0.2817  0.3083
  189MOL0     C25412   2.636   0.133  10.960  0.1468  0.7550 -0.3111
  189MOL0     C25413   2.764   0.095  10.997  1.1424  0.2499 -0.4107
  189MOL0     C25414   2.873   0.174  10.961 -0.0642  0.3439 -0.4303
  189MOL0     O25415   3.003   0.129  10.993 -0.8972  0.1468  0.0797
  189MOL0     C25416   3.114   0.218  10.967  0.2109 -0.9438  0.3344
  189MOL0     C25417   3.242   0.140  10.970  0.8705  0.5720  0.7963
  189MOL0     C25418   3.359   0.245  10.947  0.4771 -0.9744  0.2023
  189MOL0     C25419   3.494   0.172  10.937  0.6016  0.6835  0.5992
  189MOL0     C25420   3.609   0.257  10.985  0.9189 -0.5233 -0.0299
  189MOL0     C25421   3.745   0.181  10.999  0.4246 -0.7049  1.2783
  189MOL0     C25422   3.853   0.269  11.048 -0.1347  0.1230 -0.3597
  189MOL0     C25423   3.986   0.194  11.054  0.0282 -0.6678  0.7812
  189MOL0    Cl25424   4.120   0.280  11.105 -0.5570  0.0034 -0.0601
  189MOL0     C25425   2.840   0.302  10.926 -0.9252 -0.7209 -0.1767
  189MOL0     C25426   2.712   0.344  10.898  0.2204 -0.0987 -0.2055
  189MOL0     O25427   2.520   0.318  10.675 -0.4625 -0.5517 -0.1061
  189MOL0     C25428   2.239   0.342  10.645 -0.7419 -0.7745  0.7191
  189MOL0     C25429   2.100   0.357  10.632 -1.0406 -1.0773  0.1129
  189MOL0     N25430   1.386   0.855  10.824 -0.1590 -0.4243 -0.6748
  189MOL0     N25431   1.307   0.949  10.771 -0.1680  0.9852 -0.5829
  189MOL0     C25432   0.358   1.223  10.403 -1.0061  0.4108 -0.6390
  189MOL0     C25433   0.253   1.311  10.415  0.2880 -0.8426 -0.3308
  189MOL0     C25434  -0.081   1.576  10.572  0.7673  0.0723 -0.2569
  189MOL0     C25435  -0.066   1.704  10.537  1.2132  0.3332  0.2659
  189MOL0     C25436  -0.180   1.795  10.535 -0.2884 -0.2715  0.5072
  189MOL0     C25437  -0.307   1.750  10.563 -0.2722 -0.8581 -0.3654
  189MOL0     O25438  -0.422   1.826  10.557 -0.6070  0.0974  0.1008
  189MOL0     C25439  -0.408   1.970  10.542 -0.0879  0.2532  0.9493
  189MOL0     C25440  -0.539   2.009  10.480 -0.5754 -0.2367 -0.0150
  189MOL0     C25441  -0.535   1.983  10.328 -0.3520 -0.1167  1.1382
  189MOL0     C25442  -0.679   2.002  10.260 -0.6498  0.6894 -0.0007
  189MOL0     C25443  -0.738   2.134  10.258 -0.2855  0.0786 -0.2893
  189MOL0     C25444  -0.790   2.245  10.248  0.1408 -0.5100 -0.7616
  189MOL0     C25445  -0.320   1.625  10.615 -0.1742  0.4201  0.7001
  189MOL0     C25446  -0.210   1.541  10.633 -0.2479  0.4579  0.2663
  189MOL0     C25447  -0.243   1.406  10.692 -0.7256  0.2816  0.3081
  189MOL0     H25448   0.040   1.144  10.613 -0.0189 -0.7124  0.7337
  189MOL0     H25449   0.234   0.980  10.604  0.3242  1.8132  2.0942
  189MOL0     H25450   0.408   0.893  10.580  0.7020  4.2025  3.5416
  189MOL0     H25451   0.530   0.829  10.468 -0.8434  0.7894 -0.5763
  189MOL0     H25452   0.631   0.872  10.687 -0.6034 -0.5279 -0.5090
  189MOL0     H25453   0.573   1.039  10.680 -0.8091 -1.0536  1.8187
  189MOL0     H25454   0.718   1.068  10.476 -1.8560  0.8105  0.0941
  189MOL0     H25455   0.754   0.899  10.484 -1.1793 -0.2968  0.1197
  189MOL0     H25456   0.814   1.090  10.723  2.1256 -0.0685  0.3747
  189MOL0     H25457   0.863   0.925  10.707  2.7314  1.4487  1.2824
  189MOL0     H25458   0.965   1.106  10.489 -0.8462 -2.0228 -1.3136
  189MOL0     H25459   1.035   1.127  10.636  2.8826 -0.5414 -1.1936
  189MOL0     H25460   1.083   0.893  10.636 -1.8847  0.8238  1.2160
  189MOL0     H25461   1.006   0.854  10.489  1.6397 -3.3356  2.3933
  189MOL0     H25462   1.159   1.033  10.358  2.1867 -0.9584 -1.8553
  189MOL0     H25463   1.234   0.884  10.429  0.3300  0.0238 -0.6086
  189MOL0     H25464   1.355   1.095  10.473  1.1192 -1.1997  0.8070
  189MOL0     H25465   1.222   1.131  10.592  0.6538  0.4891 -0.3425
  189MOL0     H25466   1.491   0.880  10.506  2.2268 -2.0825  1.2170
  189MOL0     H25467   1.525   0.616  10.786 -0.0368 -0.0172  0.2334
  189MOL0     H25468   1.580   0.657  10.623 -0.8353  0.7166  0.2276
  189MOL0     H25469   1.758   0.798  10.717 -1.1648  2.3391  1.0325
  189MOL0     H25470   1.686   0.786  10.879  1.3179 -0.7238  0.1078
  189MOL0     H25471   1.751   0.569  10.890  0.4361 -0.8302  0.5448
  189MOL0     H25472   1.896   0.664  10.815  0.6815 -0.7082 -1.6817
  189MOL0     H25473   1.837   0.568  10.596  0.6673 -1.3414  0.2889
  189MOL0     H25474   1.708   0.469  10.676  1.9153 -1.8327  0.5512
  189MOL0     H25475   2.040   0.518  10.929  2.7456 -0.8404  2.4135
  189MOL0     H25476   2.288   0.461  10.952 -1.4170 -2.0178  2.1135
  189MOL0     H25477   2.563   0.053  10.965  2.1247 -1.1443 -0.0195
  189MOL0     H25478   2.777  -0.007  11.033 -1.6386 -1.2565 -3.2017
  189MOL0     H25479   3.111   0.262  10.867  0.0080 -0.7141  0.4412
  189MOL0     H25480   3.116   0.300  11.039 -0.1393  1.5566 -2.3356
  189MOL0     H25481   3.250   0.081  11.062 -1.1333  0.0624  0.6921
  189MOL0     H25482   3.251   0.077  10.881  3.2369  0.9776  0.6884
  189MOL0     H25483   3.332   0.300  10.857 -0.7612 -0.8669  0.6198
  189MOL0     H25484   3.354   0.315  11.030 -1.4947  1.4822 -1.8271
  189MOL0     H25485   3.508   0.135  10.835 -0.8769 -3.3609  1.6629
  189MOL0     H25486   3.481   0.087  11.004 -1.2571  1.8360  1.8042
  189MOL0     H25487   3.591   0.316  11.076 -1.7541 -0.1823 -0.6994
  189MOL0     H25488   3.618   0.343  10.919  0.7101 -1.6465 -1.5746
  189MOL0     H25489   3.729   0.090  11.058  3.2636 -1.3524  1.2215
  189MOL0     H25490   3.756   0.145  10.896  0.2908 -4.2943  2.3736
  189MOL0     H25491   3.835   0.300  11.151  0.3180 -1.0705  0.1020
  189MOL0     H25492   3.877   0.357  10.988  2.7904 -1.2632 -1.4500
  189MOL0     H25493   3.970   0.097  11.102  1.5764 -1.7354 -0.7573
  189MOL0     H25494   4.018   0.159  10.956  0.9370 -2.6628  1.7411
  189MOL0     H25495   2.918   0.369  10.892 -0.6016 -1.3951 -0.7916
  189MOL0     H25496   2.680   0.440  10.858 -2.4714 -1.8222 -2.5980
  189MOL0     H25497   2.301   0.300  10.567 -1.1205 -1.0705  0.5719
  189MOL0     H25498   2.043   0.310  10.552  1.7052 -0.4256 -2.4341
  189MOL0     H25499   0.442   1.242  10.338 -1.8153 -1.6052 -2.3842
  189MOL0     H25500   0.259   1.400  10.354  1.2512 -1.8506 -1.7552
  189MOL0     H25501   0.035   1.734  10.511  0.8740  2.4604  1.2180
  189MOL0     H25502  -0.142   1.889  10.495  3.5780 -1.6860  0.4521
  189MOL0     H25503  -0.313   2.001  10.498  0.8996  0.3711  3.0418
  189MOL0     H25504  -0.415   2.014  10.642  2.2401  1.7888  0.5118
  189MOL0     H25505  -0.568   2.112  10.504 -3.2165 -0.6130 -1.2154
  189MOL0     H25506  -0.623   1.947  10.510 -2.6037  1.5897 -1.5893
  189MOL0     H25507  -0.487   1.893  10.289  0.6134 -1.3768  4.7983
  189MOL0     H25508  -0.477   2.064  10.283 -0.5752 -2.2332 -3.5486
  189MOL0     H25509  -0.654   1.974  10.157 -0.1828  1.5111 -0.1239
  189MOL0     H25510  -0.745   1.919  10.287  0.1306 -1.3515 -3.5908
  189MOL0     H25511  -0.838   2.339  10.229 -0.1457 -0.7013 -0.9960
  189MOL0     H25512  -0.417   1.596  10.655 -0.5420  2.1630  1.1550
  189MOL0     H25513  -0.187   1.320  10.652  0.7289  0.3469  2.0482
  189MOL0     H25514  -0.245   1.393  10.801  2.2991 -0.5583  0.3811
  189MOL0     H25515  -0.343   1.380  10.657 -0.5686 -0.1697  0.1848
  190MOL0     O25516   0.828   1.419   4.685  0.4262  0.8138  0.3842
  190MOL0     C25517   0.831   1.299   4.678 -0.0967  0.3485 -1.8151
  190MOL0     O25518   0.918   1.218   4.749  0.1342  0.4614  0.6267
  190MOL0     C25519   1.005   1.275   4.849  0.2420 -0.3752 -0.2760
  190MOL0     C25520   1.139   1.290   4.813  0.3504 -0.4245  1.1629
  190MOL0     C25521   1.232   1.350   4.900  0.4253  0.6890 -0.3160
  190MOL0     C25522   1.193   1.400   5.030  0.2223  0.4737 -0.5114
  190MOL0     O25523   1.281   1.458   5.123  0.2294  0.2237 -0.3138
  190MOL0     C25524   1.417   1.469   5.086 -0.7631 -0.3504 -0.9571
  190MOL0     C25525   1.493   1.556   5.200  0.4016  0.6513  0.6699
  190MOL0     C25526   1.630   1.608   5.141  0.8186 -0.2777  0.8459
  190MOL0     C25527   1.700   1.695   5.237  0.2352 -0.5569  0.0949
  190MOL0     C25528   1.821   1.758   5.187 -0.0340 -0.3339 -0.9730
  190MOL0     C25529   1.939   1.667   5.158 -0.1570  0.7816 -0.1235
  190MOL0     C25530   2.059   1.745   5.099  0.5844  0.3176  0.3800
  190MOL0     C25531   2.180   1.656   5.087 -0.5997 -0.2921 -0.3013
  190MOL0     N25532   2.303   1.740   5.057 -0.6465  0.2044 -0.7634
  190MOL0     C25533   2.390   1.788   5.140 -0.9324  0.2768  0.0547
  190MOL0     C25534   2.482   1.859   5.070  0.6558 -1.0260  1.1795
  190MOL0     C25535   2.581   1.949   5.139 -0.5709 -0.1866  0.5895
  190MOL0     C25536   2.703   1.981   5.051 -0.1255  0.7572  0.0581
  190MOL0     C25537   2.806   2.074   5.123 -0.3872  0.4373  0.1453
  190MOL0     C25538   2.952   2.072   5.076  0.9377  1.9319 -0.2031
  190MOL0     O25539   3.021   2.170   5.151 -0.0757  0.5893 -0.4734
  190MOL0     C25540   3.155   2.160   5.159 -0.2454  0.5097 -0.3682
  190MOL0     C25541   3.234   2.052   5.112 -0.1311  0.0556  0.3738
  190MOL0     C25542   3.374   2.056   5.130 -0.7793  0.6864 -1.0065
  190MOL0     C25543   3.437   2.157   5.206 -0.0320  0.2652  0.0918
  190MOL0     C25544   3.572   2.139   5.257  0.3555  0.5432  0.3729
  190MOL0     O25545   3.630   2.243   5.318  0.5883 -0.2024  0.4969
  190MOL0     C25546   3.766   2.271   5.310 -0.3405  0.3121  1.4782
  190MOL0     C25547   3.812   2.394   5.366 -0.2113 -0.2455  0.0969
  190MOL0     C25548   3.940   2.435   5.377  0.5685 -0.3562 -0.9604
  190MOL0     C25549   4.036   2.358   5.333 -0.2134 -0.3762  0.0978
  190MOL0     O25550   4.167   2.405   5.333 -0.2296  0.3477 -0.4817
  190MOL0     C25551   4.253   2.394   5.222  0.2827 -0.0021  0.7046
  190MOL0     C25552   4.240   2.526   5.131 -0.4505  0.0211  0.9032
  190MOL0     C25553   4.335   2.523   5.018  0.0175 -0.8389 -0.6545
  190MOL0     C25554   4.480   2.574   5.056  0.2732  0.2419  1.2082
  190MOL0     C25555   4.575   2.527   4.936 -0.2923 -0.6327 -0.4461
  190MOL0     C25556   4.727   2.541   4.958 -0.1211  0.3044 -0.2199
  190MOL0     C25557   4.774   2.683   4.912 -0.6580 -0.4831 -0.3906
  190MOL0     C25558   4.933   2.688   4.910  0.9490  0.5555  0.1055
  190MOL0    Cl25559   5.010   2.555   4.807 -0.0719  0.3419 -0.1839
  190MOL0     C25560   4.003   2.234   5.266  0.9512  0.2933  0.2765
  190MOL0     C25561   3.869   2.194   5.256  0.4957 -0.4645  0.6557
  190MOL0     O25562   3.628   2.034   5.235 -0.2956  0.1176 -0.1748
  190MOL0     C25563   3.360   2.271   5.239 -0.0344  0.5489 -0.6887
  190MOL0     C25564   3.218   2.284   5.205 -0.4552  0.3505 -0.4172
  190MOL0     N25565   2.430   1.866   4.943 -0.2389  0.1006  0.0213
  190MOL0     N25566   2.324   1.793   4.936  0.4959 -0.5817 -0.3364
  190MOL0     C25567   1.060   1.386   5.069  0.3931  1.0322 -0.0810
  190MOL0     C25568   0.967   1.326   4.975 -0.3229 -0.5806 -0.1293
  190MOL0     C25569   0.742   1.234   4.580  0.4802 -0.9525  0.1314
  190MOL0     C25570   0.729   1.092   4.589 -0.1918 -0.4233  0.2837
  190MOL0     C25571   0.649   1.023   4.501 -0.0585 -0.5787 -0.7877
  190MOL0     C25572   0.597   1.085   4.386 -0.4406 -0.1734 -0.0908
  190MOL0     O25573   0.527   1.027   4.279  0.0831  0.0543 -0.6435
  190MOL0     C25574   0.518   0.884   4.265  0.0419  0.1577 -0.9915
  190MOL0     C25575   0.463   0.875   4.117 -0.6857 -0.7282 -0.3286
  190MOL0     C25576   0.533   0.976   4.013  0.2254 -0.5810 -0.9399
  190MOL0     C25577   0.531   0.926   3.872 -0.3485 -0.6529  0.9329
  190MOL0     C25578   0.424   1.000   3.801 -0.5011  0.6874 -0.1334
  190MOL0     C25579   0.341   1.060   3.742  1.0693  1.0312  0.1627
  190MOL0     C25580   0.607   1.226   4.382 -1.0854 -0.4329  0.2239
  190MOL0     C25581   0.671   1.305   4.475 -0.5698 -0.1091  0.0163
  190MOL0     C25582   0.643   1.458   4.457  0.1155  0.1550 -0.4448
  190MOL0     H25583   1.163   1.250   4.715  0.6333  0.5627  0.8209
  190MOL0     H25584   1.338   1.342   4.877  0.3920  1.2562 -0.7113
  190MOL0     H25585   1.469   1.375   5.064  1.8652  0.8960 -0.5494
  190MOL0     H25586   1.420   1.536   5.000  0.0960  4.4019  2.3555
  190MOL0     H25587   1.525   1.477   5.269  0.0293 -1.5073 -1.5209
  190MOL0     H25588   1.426   1.626   5.250 -0.9568  0.5293 -0.9087
  190MOL0     H25589   1.599   1.671   5.058  3.4674  0.4468  0.3341
  190MOL0     H25590   1.696   1.525   5.113  0.7556 -1.1792  3.1228
  190MOL0     H25591   1.638   1.784   5.255  2.4267  0.7542  1.6504
  190MOL0     H25592   1.726   1.649   5.333  1.1233  1.3472  0.8199
  190MOL0     H25593   1.807   1.817   5.096 -0.9222  0.4391 -0.3518
  190MOL0     H25594   1.857   1.816   5.273  0.0915 -1.5241 -0.2045
  190MOL0     H25595   1.965   1.618   5.253 -1.4840  1.0717  0.4128
  190MOL0     H25596   1.893   1.592   5.092 -0.3267 -1.3361  2.2376
  190MOL0     H25597   2.079   1.834   5.158  0.8716  2.1140 -2.2525
  190MOL0     H25598   2.025   1.777   5.000 -3.9309  0.3899  1.7294
  190MOL0     H25599   2.185   1.607   5.185  1.6976 -0.9030 -0.6572
  190MOL0     H25600   2.168   1.582   5.008 -0.4626 -0.4390 -0.1858
  190MOL0     H25601   2.400   1.766   5.246  0.5296 -2.7560 -0.6327
  190MOL0     H25602   2.529   2.036   5.180  3.0960  2.7447 -0.4156
  190MOL0     H25603   2.617   1.892   5.225  1.3607  3.0708  2.1450
  190MOL0     H25604   2.754   1.889   5.022  0.7622  1.6160 -1.2041
  190MOL0     H25605   2.665   2.031   4.962  3.5791  3.1010 -0.4360
  190MOL0     H25606   2.799   2.052   5.230 -2.3767  3.7381  0.8275
  190MOL0     H25607   2.763   2.173   5.105  0.9622  0.6291 -2.4627
  190MOL0     H25608   2.962   2.099   4.970  1.9816  1.5177 -0.2220
  190MOL0     H25609   2.988   1.973   5.106  1.5233  2.2238  0.0746
  190MOL0     H25610   3.192   1.967   5.060  0.8889 -1.2497  1.5774
  190MOL0     H25611   3.432   1.968   5.104 -2.8727 -0.8265 -0.8482
  190MOL0     H25612   3.734   2.463   5.395  1.8357  0.8910  3.4731
  190MOL0     H25613   3.936   2.536   5.417 -1.0209 -1.3329  1.6306
  190MOL0     H25614   4.352   2.361   5.256  0.8057 -2.2901 -2.5384
  190MOL0     H25615   4.222   2.317   5.150 -0.1682  0.3791  0.4842
  190MOL0     H25616   4.139   2.529   5.090  0.0971  0.1436 -0.4803
  190MOL0     H25617   4.261   2.610   5.197 -2.2871  0.3210  1.1664
  190MOL0     H25618   4.332   2.417   4.992  0.3883 -0.6638 -1.4258
  190MOL0     H25619   4.300   2.597   4.946  3.1675  1.3238 -0.2010
  190MOL0     H25620   4.521   2.528   5.146  0.1856  0.3037  1.2794
  190MOL0     H25621   4.487   2.682   5.065 -1.7609  0.4970  0.1937
  190MOL0     H25622   4.545   2.573   4.842  1.7234  0.4865 -0.5940
  190MOL0     H25623   4.553   2.421   4.923  2.1250 -1.1840 -0.4197
  190MOL0     H25624   4.757   2.519   5.061 -0.8808 -0.5454 -0.1745
  190MOL0     H25625   4.772   2.470   4.888  0.5725  0.9460 -0.4479
  190MOL0     H25626   4.752   2.760   4.987  2.8374  2.1258 -1.7324
  190MOL0     H25627   4.723   2.701   4.817 -1.5961 -0.5208  0.0998
  190MOL0     H25628   4.960   2.788   4.875 -2.2349  1.9427  1.1795
  190MOL0     H25629   4.969   2.667   5.011 -1.3234 -3.2213  0.3574
  190MOL0     H25630   4.072   2.156   5.234  1.1951  1.5785 -2.7234
  190MOL0     H25631   3.855   2.093   5.220 -3.1460  0.1186  0.0325
  190MOL0     H25632   3.407   2.347   5.299  2.6954 -1.8556  0.4346
  190MOL0     H25633   3.153   2.363   5.240  1.1301  1.9790 -1.0294
  190MOL0     H25634   1.030   1.428   5.164 -3.0023  0.4492 -0.7611
  190MOL0     H25635   0.863   1.322   5.004 -0.3222  2.9401  0.7396
  190MOL0     H25636   0.778   1.041   4.670  0.4117  2.1586  1.6577
  190MOL0     H25637   0.635   0.917   4.522 -0.5669  0.1371  3.0809
  190MOL0     H25638   0.452   0.838   4.339  1.4201  0.5904  0.5753
  190MOL0     H25639   0.617   0.841   4.281  1.5332  2.4024 -3.3013
  190MOL0     H25640   0.356   0.893   4.115 -0.7135 -0.8408 -2.4229
  190MOL0     H25641   0.477   0.772   4.081  0.3073 -0.8170  0.2559
  190MOL0     H25642   0.637   0.977   4.047 -0.0642  2.9981  0.2676
  190MOL0     H25643   0.502   1.081   4.022  0.2627 -0.6755  0.6013
  190MOL0     H25644   0.626   0.961   3.830 -0.8653 -0.5714 -0.2023
  190MOL0     H25645   0.525   0.817   3.872  0.2812 -0.6952  0.4083
  190MOL0     H25646   0.277   1.111   3.674  1.6279  4.3586  1.9217
  190MOL0     H25647   0.555   1.274   4.300  0.9102  0.8034 -0.4022
  190MOL0     H25648   0.542   1.478   4.419  1.0020 -0.4364 -3.3683
  190MOL0     H25649   0.637   1.509   4.553 -0.5562  3.4142 -2.0490
  190MOL0     H25650   0.715   1.513   4.395 -0.1765  1.9729  0.7443
  191MOL0     O25651   9.022   5.664   1.529 -0.3484 -0.1698 -0.5452
  191MOL0     C25652   9.037   5.633   1.412 -0.1372  1.0463  0.5203
  191MOL0     O25653   9.131   5.550   1.363  0.0004 -0.0119  0.3317
  191MOL0     C25654   9.209   5.484   1.449  0.6835  0.3343  0.2048
  191MOL0     C25655   9.184   5.349   1.452  0.0367  0.5005  1.2985
  191MOL0     C25656   9.258   5.263   1.524 -0.5675  0.3948  0.1037
  191MOL0     C25657   9.365   5.310   1.603 -0.6503  0.2190 -0.1496
  191MOL0     O25658   9.447   5.230   1.678  0.2159  0.2017 -0.2848
  191MOL0     C25659   9.571   5.180   1.626 -0.1352  0.0927 -0.3562
  191MOL0     C25660   9.581   5.029   1.607  0.1789  0.2578  0.3072
  191MOL0     C25661   9.521   4.939   1.719  0.2208 -0.8387 -0.7245
  191MOL0     C25662   9.622   4.907   1.823 -0.3098 -0.2127 -0.0434
  191MOL0     C25663   9.735   4.817   1.781 -0.0076  0.6035 -0.1588
  191MOL0     C25664   9.837   4.828   1.899 -0.0364 -0.4662  0.3446
  191MOL0     C25665   9.938   4.717   1.874  0.2728  0.5377  0.4775
  191MOL0     C25666  10.070   4.733   1.963  0.0199 -0.4390 -0.1558
  191MOL0     N25667  10.151   4.607   1.979  0.3453 -0.0888 -0.4121
  191MOL0     C25668  10.265   4.587   2.038 -0.6331 -0.2062 -0.0457
  191MOL0     C25669  10.298   4.465   2.014 -0.1198  0.1639 -0.1526
  191MOL0     C25670  10.424   4.400   2.067 -0.7139 -0.3659 -1.8229
  191MOL0     C25671  10.406   4.326   2.205 -0.2139 -0.3561  0.4664
  191MOL0     C25672  10.457   4.407   2.319  0.1554  0.2069 -0.3665
  191MOL0     C25673  10.438   4.339   2.454  0.1639  0.3365  0.4037
  191MOL0     O25674  10.482   4.201   2.470  0.2563 -0.8282  0.1081
  191MOL0     C25675  10.612   4.159   2.453  0.2511  0.2219 -0.8375
  191MOL0     C25676  10.719   4.240   2.477  0.0535 -0.9092  0.2192
  191MOL0     C25677  10.843   4.199   2.444 -0.5681  0.1900  0.2072
  191MOL0     C25678  10.868   4.077   2.373  0.1023 -0.4386 -0.4431
  191MOL0     C25679  11.004   4.051   2.312 -0.2442 -0.1088  0.1016
  191MOL0     O25680  11.004   3.960   2.208 -0.4783 -0.4876  0.2127
  191MOL0     C25681  11.117   3.918   2.142  0.0060  1.2218 -0.4518
  191MOL0     C25682  11.096   3.859   2.011 -0.5140  0.8348 -0.3242
  191MOL0     C25683  11.213   3.818   1.939  0.1670 -0.0465  0.1965
  191MOL0     C25684  11.343   3.845   1.985 -0.3593 -0.5948 -0.0713
  191MOL0     O25685  11.453   3.826   1.912 -0.0108  0.4332 -1.1564
  191MOL0     C25686  11.546   3.734   1.965 -1.0173 -0.1519  0.1622
  191MOL0     C25687  11.606   3.653   1.852 -0.3784 -0.5886 -0.0102
  191MOL0     C25688  11.716   3.556   1.921 -1.1671 -0.5698 -0.4753
  191MOL0     C25689  11.789   3.473   1.819 -0.6914 -0.5772  0.1213
  191MOL0     C25690  11.932   3.433   1.842 -0.4687 -0.0633 -0.0734
  191MOL0     C25691  11.952   3.345   1.971  0.1895  0.8429  0.8728
  191MOL0     C25692  12.101   3.339   2.011  0.5662  0.2902  0.8267
  191MOL0     C25693  12.110   3.260   2.142  0.0291 -0.1368  0.2284
  191MOL0    Cl25694  12.079   3.095   2.097  0.0990  0.2565 -0.1287
  191MOL0     C25695  11.360   3.891   2.116  0.2974  0.1974  0.3197
  191MOL0     C25696  11.251   3.923   2.195  0.0612 -0.7867 -0.9484
  191MOL0     O25697  11.103   4.105   2.364 -0.0616  0.5079 -0.7384
  191MOL0     C25698  10.757   3.997   2.349  0.9736 -1.0527 -0.6874
  191MOL0     C25699  10.628   4.030   2.402 -0.9886 -0.9306  0.3350
  191MOL0     N25700  10.207   4.395   1.941 -0.7988 -0.5114  0.9883
  191MOL0     N25701  10.118   4.484   1.919 -0.0521  0.0100 -0.6217
  191MOL0     C25702   9.390   5.448   1.610  0.3985  0.0500  1.2232
  191MOL0     C25703   9.312   5.536   1.526 -0.6114  0.1221  0.1712
  191MOL0     C25704   8.940   5.677   1.318 -0.0351 -0.1015 -0.6479
  191MOL0     C25705   8.983   5.717   1.191 -0.4594  0.3466  0.8619
  191MOL0     C25706   8.896   5.761   1.083 -0.7938 -0.3541  0.3668
  191MOL0     C25707   8.762   5.762   1.110  0.2011  0.3029  0.1294
  191MOL0     O25708   8.678   5.796   1.008 -0.1166  0.1544  0.4530
  191MOL0     C25709   8.549   5.860   1.045 -0.4778  0.1801  0.0121
  191MOL0     C25710   8.571   5.994   1.115 -0.1706  0.6491  0.8668
  191MOL0     C25711   8.434   6.079   1.133 -0.1073 -0.1754 -0.7521
  191MOL0     C25712   8.340   6.033   1.243  0.2681  0.1300 -0.8079
  191MOL0     C25713   8.234   6.125   1.270 -0.5058  0.1106 -0.9426
  191MOL0     C25714   8.146   6.199   1.302  0.4084  0.0588 -0.2646
  191MOL0     C25715   8.716   5.725   1.237 -0.6863  1.0915 -0.3992
  191MOL0     C25716   8.797   5.675   1.344  0.1184 -0.8909 -0.0034
  191MOL0     C25717   8.737   5.626   1.473 -0.4455  0.1668  0.1260
  191MOL0     H25718   9.099   5.316   1.393  1.4741  2.7487 -2.3859
  191MOL0     H25719   9.222   5.161   1.524  1.2134 -0.2934  2.2576
  191MOL0     H25720   9.585   5.222   1.525  1.8906 -0.3737 -0.3082
  191MOL0     H25721   9.656   5.220   1.682 -0.5444 -0.8178  0.9466
  191MOL0     H25722   9.685   5.006   1.579 -1.2326 -3.1579 -3.0639
  191MOL0     H25723   9.519   5.012   1.518 -0.5516 -3.5690  1.3664
  191MOL0     H25724   9.492   4.842   1.677  0.1090 -0.7333 -0.8935
  191MOL0     H25725   9.435   4.985   1.769 -0.7123  0.1295 -3.0532
  191MOL0     H25726   9.674   4.996   1.860 -2.0740  1.4308 -1.3379
  191MOL0     H25727   9.578   4.866   1.914  0.2795  2.8278  1.7484
  191MOL0     H25728   9.705   4.717   1.750 -0.1945  1.0705 -1.5811
  191MOL0     H25729   9.784   4.849   1.688 -0.5289 -2.0921 -1.4548
  191MOL0     H25730   9.886   4.926   1.888 -0.9343 -0.0728 -0.2014
  191MOL0     H25731   9.790   4.820   1.998 -0.3032  0.0615  0.2643
  191MOL0     H25732   9.979   4.713   1.773  3.4267 -1.6425  1.6993
  191MOL0     H25733   9.888   4.621   1.892 -0.5271  0.9896  0.7048
  191MOL0     H25734  10.137   4.807   1.918  1.2820 -1.1157  0.5288
  191MOL0     H25735  10.057   4.778   2.061 -1.0451 -0.1486 -0.4253
  191MOL0     H25736  10.321   4.663   2.091 -0.9280  1.0375 -1.4361
  191MOL0     H25737  10.441   4.327   1.987 -4.2540 -1.4021 -1.8313
  191MOL0     H25738  10.509   4.469   2.067  0.3926 -1.5305  1.7037
  191MOL0     H25739  10.304   4.297   2.232  0.4010  0.2967  3.9586
  191MOL0     H25740  10.459   4.230   2.202  0.6064  0.0780 -3.1606
  191MOL0     H25741  10.399   4.499   2.331  0.3158 -0.0142  3.1548
  191MOL0     H25742  10.565   4.424   2.316  0.4146 -0.9563  1.3418
  191MOL0     H25743  10.331   4.338   2.480 -0.2027  0.6718 -1.0045
  191MOL0     H25744  10.489   4.400   2.529  0.6453 -1.3519  1.5201
  191MOL0     H25745  10.699   4.341   2.514 -1.2334  1.2300 -5.3630
  191MOL0     H25746  10.922   4.270   2.468 -0.3358  0.4769 -1.3085
  191MOL0     H25747  10.995   3.836   1.978 -1.7141  1.8487  2.2933
  191MOL0     H25748  11.197   3.774   1.841  0.2202 -0.5339  0.4053
  191MOL0     H25749  11.626   3.779   2.025 -1.3339 -0.0909  0.5409
  191MOL0     H25750  11.509   3.652   2.027 -1.6684  0.9482  1.2697
  191MOL0     H25751  11.526   3.592   1.811 -0.0816 -0.0984 -1.3618
  191MOL0     H25752  11.650   3.718   1.776 -1.6189 -1.1559 -1.2477
  191MOL0     H25753  11.793   3.619   1.968 -3.6065  3.4287 -1.3333
  191MOL0     H25754  11.666   3.506   2.004 -0.3016 -0.0086  0.4175
  191MOL0     H25755  11.787   3.522   1.721 -2.7186  0.5540  0.6572
  191MOL0     H25756  11.718   3.393   1.796 -0.2428 -0.1236 -3.3325
  191MOL0     H25757  11.994   3.521   1.858  1.0393 -0.8869 -1.0975
  191MOL0     H25758  11.963   3.376   1.753  2.5766  1.2498  0.0260
  191MOL0     H25759  11.903   3.395   2.055  1.8585  3.7246  0.2996
  191MOL0     H25760  11.915   3.243   1.957  1.3013  0.3620  1.3112
  191MOL0     H25761  12.133   3.441   2.036  1.6279 -0.1421  1.3311
  191MOL0     H25762  12.164   3.303   1.930 -1.8808 -2.3258 -0.0564
  191MOL0     H25763  12.210   3.246   2.183  0.8678 -1.8122 -2.1586
  191MOL0     H25764  12.038   3.296   2.216  0.7648 -0.4006  1.0998
  191MOL0     H25765  11.460   3.909   2.155  0.7502  2.2780 -1.5611
  191MOL0     H25766  11.276   3.956   2.295 -2.2803 -0.0815 -0.5286
  191MOL0     H25767  10.768   3.909   2.287  2.7333 -3.4786  2.7062
  191MOL0     H25768  10.542   3.965   2.388  0.7946 -3.3486 -0.0569
  191MOL0     H25769   9.464   5.499   1.671  0.3287  0.9360  0.5867
  191MOL0     H25770   9.331   5.643   1.529  2.1342 -0.2281  4.3136
  191MOL0     H25771   9.087   5.731   1.164 -1.1160  1.5872 -1.3404
  191MOL0     H25772   8.936   5.799   0.990  0.5164 -0.6783  0.7841
  191MOL0     H25773   8.488   5.800   1.114  0.0602  1.4312  1.6471
  191MOL0     H25774   8.481   5.876   0.961 -4.4570  1.5843  3.2037
  191MOL0     H25775   8.636   6.055   1.051 -0.5989  1.7937  1.4955
  191MOL0     H25776   8.628   5.987   1.207  0.4660  1.0199  0.5067
  191MOL0     H25777   8.377   6.078   1.039 -0.5337 -3.0878 -0.5529
  191MOL0     H25778   8.463   6.181   1.159  3.0824 -0.8965 -1.0665
  191MOL0     H25779   8.301   5.934   1.218  1.1775 -0.3636 -0.3187
  191MOL0     H25780   8.400   6.033   1.335  0.6435  3.2888 -0.9641
  191MOL0     H25781   8.066   6.248   1.354  1.7075 -0.2625  2.2367
  191MOL0     H25782   8.610   5.730   1.261 -0.9142 -0.1981 -1.0740
  191MOL0     H25783   8.628   5.619   1.464 -0.4800  1.0367 -0.2012
  191MOL0     H25784   8.783   5.535   1.513  0.1659  1.3862  2.4415
  191MOL0     H25785   8.752   5.703   1.549 -1.2190 -0.1171  0.5758
  192MOL0     O25786   6.972   1.150   0.694  0.8554 -0.6278 -0.2753
  192MOL0     C25787   7.090   1.162   0.653  0.1346  0.1222  0.6220
  192MOL0     O25788   7.164   1.279   0.653 -0.3312  0.8749  0.0987
  192MOL0     C25789   7.105   1.380   0.720 -0.1086 -0.5488  0.0651
  192MOL0     C25790   7.122   1.392   0.857 -0.2642 -0.7366 -0.0683
  192MOL0     C25791   7.091   1.514   0.920 -0.7388 -1.1721 -0.5196
  192MOL0     C25792   7.039   1.620   0.838  0.0803 -0.7452  0.4881
  192MOL0     O25793   7.021   1.749   0.891 -0.2770  0.5222  0.9370
  192MOL0     C25794   7.026   1.769   1.038 -0.0519 -0.0236  0.7837
  192MOL0     C25795   6.980   1.911   1.074 -1.0629 -0.2316 -0.2843
  192MOL0     C25796   6.836   1.947   1.032 -0.4577  0.2821  0.5715
  192MOL0     C25797   6.782   2.087   1.062 -0.7756  0.6567  0.8380
  192MOL0     C25798   6.651   2.113   0.987 -0.1392  0.0278 -0.2138
  192MOL0     C25799   6.590   2.237   1.046  0.0677 -0.5736 -0.0453
  192MOL0     C25800   6.451   2.272   0.995 -1.0472  0.0812  0.6171
  192MOL0     C25801   6.405   2.404   1.053  0.2988  0.4214 -0.1181
  192MOL0     N25802   6.274   2.442   1.005 -0.4827  0.8048 -0.0274
  192MOL0     C25803   6.263   2.547   0.913 -0.3992  0.0480 -0.3180
  192MOL0     C25804   6.133   2.540   0.888  0.5946 -0.4704  0.7119
  192MOL0     C25805   6.059   2.619   0.780 -0.1032 -0.3287  0.2840
  192MOL0     C25806   6.068   2.552   0.643 -0.0315  0.4507  0.3550
  192MOL0     C25807   6.007   2.625   0.517 -0.2688  0.3587 -0.0341
  192MOL0     C25808   5.866   2.666   0.536  0.4746  0.5281 -0.0468
  192MOL0     O25809   5.785   2.551   0.578 -0.4327  0.6320  0.2083
  192MOL0     C25810   5.676   2.574   0.666 -0.0884  0.4832  0.3872
  192MOL0     C25811   5.646   2.685   0.746 -0.6553 -0.5397 -0.2934
  192MOL0     C25812   5.535   2.674   0.838  0.2599 -1.0848 -0.0621
  192MOL0     C25813   5.454   2.562   0.847 -0.4998  0.0898 -0.1293
  192MOL0     C25814   5.336   2.560   0.928  0.2832  0.1439  0.2680
  192MOL0     O25815   5.242   2.462   0.903  0.8558 -0.2855  0.0037
  192MOL0     C25816   5.118   2.473   0.969  0.2785 -0.1441  1.4569
  192MOL0     C25817   4.999   2.482   0.905 -0.0098 -0.9510  1.6846
  192MOL0     C25818   4.877   2.488   0.972 -0.5303 -0.8724  1.3020
  192MOL0     C25819   4.865   2.483   1.109  0.3277 -0.0719 -0.2690
  192MOL0     O25820   4.749   2.464   1.179  0.3808  0.3891  0.6719
  192MOL0     C25821   4.673   2.343   1.150 -0.4391  0.4468  0.1177
  192MOL0     C25822   4.536   2.349   1.212  0.0323 -0.5118 -0.1078
  192MOL0     C25823   4.426   2.286   1.136  1.5469 -0.3899 -0.0665
  192MOL0     C25824   4.284   2.316   1.190  0.4505  0.1111  0.7450
  192MOL0     C25825   4.181   2.223   1.123  0.1638  0.2691  0.2828
  192MOL0     C25826   4.051   2.298   1.093  1.7454  0.0707  0.8460
  192MOL0     C25827   3.972   2.364   1.205 -0.6094 -0.6241 -0.6180
  192MOL0     C25828   3.819   2.348   1.207 -0.0872  0.1413  0.0859
  192MOL0    Cl25829   3.765   2.175   1.196 -0.0201 -0.7848  0.3398
  192MOL0     C25830   4.984   2.474   1.177 -0.1515  0.6234 -0.1054
  192MOL0     C25831   5.109   2.465   1.110 -0.3092 -0.5021 -0.1003
  192MOL0     O25832   5.331   2.642   1.026  0.1314 -0.2774  0.4303
  192MOL0     C25833   5.488   2.448   0.768 -0.0627  0.1440 -0.2104
  192MOL0     C25834   5.593   2.465   0.676  0.1145  0.1479  0.4621
  192MOL0     N25835   6.079   2.431   0.948  0.1661  0.5093 -0.0386
  192MOL0     N25836   6.165   2.377   1.027  0.4935 -0.5460 -0.2675
  192MOL0     C25837   7.028   1.603   0.705  0.2937  0.3883 -0.2564
  192MOL0     C25838   7.049   1.486   0.646  0.2314  0.3597  0.5263
  192MOL0     C25839   7.169   1.047   0.609  0.2606  0.2036 -0.5881
  192MOL0     C25840   7.283   1.063   0.529  1.0121 -0.4752 -0.5326
  192MOL0     C25841   7.330   0.961   0.461 -0.4412  0.5942  0.0190
  192MOL0     C25842   7.278   0.835   0.455  0.3101  1.0584  0.4558
  192MOL0     O25843   7.309   0.722   0.384  0.0609  0.5833  0.3797
  192MOL0     C25844   7.369   0.759   0.261  0.9267  0.7645 -0.6813
  192MOL0     C25845   7.382   0.643   0.169 -0.7980 -0.6598 -0.4482
  192MOL0     C25846   7.251   0.576   0.138  0.0529 -0.5302 -0.7246
  192MOL0     C25847   7.249   0.479   0.027  0.5661 -0.8557  0.1794
  192MOL0     C25848   7.343   0.363   0.037  0.5912 -0.9090  0.9799
  192MOL0     C25849   7.429   0.282   0.058 -0.4303 -0.1881 -0.4110
  192MOL0     C25850   7.187   0.809   0.555  0.1497  0.4770 -1.5245
  192MOL0     C25851   7.127   0.914   0.636  0.0312  0.4681  0.3588
  192MOL0     C25852   7.026   0.865   0.746 -0.0039  0.1929  1.0624
  192MOL0     H25853   7.169   1.315   0.918 -3.0310  0.4428  3.9437
  192MOL0     H25854   7.103   1.530   1.027 -0.5954  0.4739 -0.7691
  192MOL0     H25855   6.965   1.693   1.087  1.4347 -0.3870  2.1443
  192MOL0     H25856   7.131   1.756   1.067  0.1754  0.8072  0.3844
  192MOL0     H25857   7.047   1.988   1.035  0.1389 -0.5001  1.1707
  192MOL0     H25858   6.994   1.921   1.182  2.3575 -0.7575 -0.5402
  192MOL0     H25859   6.765   1.876   1.075  0.7619 -0.7813  0.9203
  192MOL0     H25860   6.827   1.928   0.925  2.0222  0.3169  0.3003
  192MOL0     H25861   6.773   2.111   1.168 -2.1257  1.4755  0.5619
  192MOL0     H25862   6.850   2.161   1.020 -1.2787  0.0202 -1.2253
  192MOL0     H25863   6.675   2.124   0.880  0.5359 -1.5788 -0.2494
  192MOL0     H25864   6.589   2.024   0.999  2.0058 -1.4723  0.4272
  192MOL0     H25865   6.573   2.218   1.153 -3.2651 -2.6323 -0.7706
  192MOL0     H25866   6.657   2.322   1.033 -0.7638  0.4350  1.7770
  192MOL0     H25867   6.378   2.191   1.004 -0.6076 -0.2971  0.8424
  192MOL0     H25868   6.472   2.294   0.890  2.6301 -1.1702  0.9243
  192MOL0     H25869   6.374   2.393   1.157  0.7317 -0.6381 -0.0885
  192MOL0     H25870   6.480   2.481   1.035  1.1364 -0.4408 -0.3712
  192MOL0     H25871   6.339   2.619   0.885  0.7251 -0.0423  2.2562
  192MOL0     H25872   5.955   2.641   0.806 -0.4308 -1.0603 -0.3838
  192MOL0     H25873   6.111   2.714   0.765  3.2836 -2.1736 -0.8054
  192MOL0     H25874   6.174   2.534   0.621  0.1477 -0.0197  1.5447
  192MOL0     H25875   6.018   2.455   0.649 -2.2312  1.5399  0.7109
  192MOL0     H25876   6.013   2.554   0.433 -0.8949 -1.1612  1.1589
  192MOL0     H25877   6.077   2.703   0.485  1.5410 -1.6969 -1.3919
  192MOL0     H25878   5.824   2.703   0.442 -1.1721  0.0030  0.4495
  192MOL0     H25879   5.861   2.737   0.619  3.4024 -0.6293  1.2453
  192MOL0     H25880   5.713   2.770   0.758  1.3710 -2.1432  0.1379
  192MOL0     H25881   5.527   2.762   0.902  3.0146 -1.1076  0.4294
  192MOL0     H25882   4.993   2.486   0.797  1.4719  2.3585  1.5830
  192MOL0     H25883   4.786   2.481   0.913 -0.2665  1.9260  0.4238
  192MOL0     H25884   4.655   2.357   1.043 -1.5955  0.6822  0.3290
  192MOL0     H25885   4.727   2.250   1.167  1.9911  1.3679 -2.0031
  192MOL0     H25886   4.534   2.312   1.314 -5.2699 -3.9618 -1.0400
  192MOL0     H25887   4.502   2.452   1.228  0.4449 -0.3071 -0.5258
  192MOL0     H25888   4.422   2.308   1.029 -4.0887 -1.7043 -0.4625
  192MOL0     H25889   4.430   2.178   1.147 -0.3524 -0.6874 -1.7376
  192MOL0     H25890   4.277   2.418   1.152  2.0145 -0.7431 -2.2158
  192MOL0     H25891   4.280   2.313   1.299 -0.9445  2.5714  0.8296
  192MOL0     H25892   4.156   2.141   1.191 -1.2547  2.0307  2.0218
  192MOL0     H25893   4.207   2.190   1.022  2.2987  1.3392  0.4215
  192MOL0     H25894   4.061   2.384   1.027 -2.9703  0.6104  0.4846
  192MOL0     H25895   3.992   2.229   1.031  3.6194 -0.3354 -0.5788
  192MOL0     H25896   3.999   2.467   1.228  0.7861 -0.9275 -0.8458
  192MOL0     H25897   4.003   2.306   1.292  1.0327  1.8848  0.5821
  192MOL0     H25898   3.764   2.381   1.295 -0.7918  1.6700 -0.8978
  192MOL0     H25899   3.774   2.411   1.130  2.4004 -0.3075 -1.8675
  192MOL0     H25900   4.973   2.466   1.285  2.8286  2.5954  0.4469
  192MOL0     H25901   5.201   2.450   1.166 -0.2493 -0.0878 -0.0861
  192MOL0     H25902   5.435   2.353   0.775  0.9998 -0.5353 -1.0350
  192MOL0     H25903   5.616   2.373   0.623 -0.3986 -0.0635  0.6011
  192MOL0     H25904   6.987   1.679   0.639 -1.0842 -0.2797 -0.1897
  192MOL0     H25905   7.032   1.488   0.539 -1.0152 -0.1282  0.6939
  192MOL0     H25906   7.319   1.160   0.495  1.1735 -0.6449 -0.8481
  192MOL0     H25907   7.411   0.980   0.392 -1.2072 -0.8113 -1.3383
  192MOL0     H25908   7.470   0.801   0.267  1.5737 -0.6017 -1.5268
  192MOL0     H25909   7.318   0.843   0.214  3.7341  2.6849 -0.5346
  192MOL0     H25910   7.452   0.568   0.207  1.7712  1.3473 -0.9069
  192MOL0     H25911   7.429   0.683   0.079  1.1799 -0.2982  0.6921
  192MOL0     H25912   7.180   0.657   0.118  1.4845  0.8851 -0.1914
  192MOL0     H25913   7.209   0.534   0.230 -0.2197 -0.2461 -0.7174
  192MOL0     H25914   7.149   0.436   0.027  0.9550 -1.8479 -1.4877
  192MOL0     H25915   7.271   0.526  -0.069 -1.1244  1.5160  0.8916
  192MOL0     H25916   7.508   0.210   0.073 -2.0356 -1.7074  1.1596
  192MOL0     H25917   7.152   0.706   0.565  1.8753  0.0381  0.6285
  192MOL0     H25918   7.057   0.770   0.790 -1.3143 -1.5026 -1.4423
  192MOL0     H25919   7.009   0.929   0.833  2.5994 -0.3571  2.0734
  192MOL0     H25920   6.933   0.844   0.691  1.3836  0.1403 -1.4293
  193MOL0     O25921   5.661   4.540   8.931 -0.6741  0.2009 -0.5314
  193MOL0     C25922   5.760   4.492   8.982 -0.2550  0.5087 -0.5240
  193MOL0     O25923   5.813   4.381   8.936 -0.2567  0.2821 -0.5079
  193MOL0     C25924   5.751   4.320   8.834 -0.4051 -0.4691 -0.3814
  193MOL0     C25925   5.766   4.357   8.704 -1.2108  1.0729 -0.4032
  193MOL0     C25926   5.708   4.277   8.601  0.1775 -0.1245 -0.2439
  193MOL0     C25927   5.653   4.152   8.632  0.6393  0.6236  0.1189
  193MOL0     O25928   5.605   4.071   8.535  0.0813  0.2775 -0.4697
  193MOL0     C25929   5.657   3.943   8.544  0.0620 -0.3221  0.0519
  193MOL0     C25930   5.679   3.881   8.411 -0.6721 -0.1995  0.3985
  193MOL0     C25931   5.756   3.974   8.309 -0.2532  0.2245 -0.3041
  193MOL0     C25932   5.887   3.921   8.260  0.1987 -0.8903  0.0218
  193MOL0     C25933   5.964   4.025   8.169 -0.3893 -0.1960 -0.7836
  193MOL0     C25934   6.105   3.973   8.153 -0.9626 -0.1649  0.4964
  193MOL0     C25935   6.175   4.051   8.038 -0.2092 -0.1159 -1.0118
  193MOL0     C25936   6.179   4.215   8.055  0.2064 -0.4933  0.1149
  193MOL0     N25937   6.242   4.294   7.949 -0.2034 -0.6817  0.7838
  193MOL0     C25938   6.376   4.294   7.930  0.1524 -0.4662 -0.0148
  193MOL0     C25939   6.395   4.362   7.811 -0.0653  0.6554 -0.3069
  193MOL0     C25940   6.536   4.384   7.749  0.2981 -0.4817  0.0258
  193MOL0     C25941   6.637   4.467   7.829 -0.4395  0.3403  0.9868
  193MOL0     C25942   6.768   4.474   7.752  0.5009 -0.2876  0.2672
  193MOL0     C25943   6.874   4.570   7.810  0.3199 -1.2646 -0.0222
  193MOL0     O25944   7.009   4.506   7.796 -0.0437 -0.6015  0.0267
  193MOL0     C25945   7.121   4.586   7.786  0.2222  0.0813  0.4717
  193MOL0     C25946   7.118   4.725   7.804 -0.2287  0.9337 -0.0313
  193MOL0     C25947   7.242   4.792   7.800 -0.4027  0.5921  0.6455
  193MOL0     C25948   7.372   4.729   7.786 -0.4953  0.0685 -0.6969
  193MOL0     C25949   7.498   4.804   7.800  0.5172  0.5745  0.4539
  193MOL0     O25950   7.613   4.749   7.733  0.6704  0.2317 -0.4897
  193MOL0     C25951   7.728   4.815   7.726 -1.1579 -0.0584  0.4955
  193MOL0     C25952   7.786   4.853   7.598  0.6953 -1.0550 -0.5663
  193MOL0     C25953   7.910   4.917   7.597 -0.3320  0.0414 -0.1282
  193MOL0     C25954   7.981   4.953   7.707 -0.1793 -0.4619 -0.7975
  193MOL0     O25955   8.107   4.996   7.688 -0.3605 -0.5719 -0.1874
  193MOL0     C25956   8.201   5.017   7.802  0.2471 -0.4881  0.1587
  193MOL0     C25957   8.341   5.030   7.740 -0.0327  0.3658 -0.3029
  193MOL0     C25958   8.452   5.070   7.838  0.0849 -0.5189 -0.5505
  193MOL0     C25959   8.517   5.211   7.805  0.6127  0.5554 -0.3936
  193MOL0     C25960   8.630   5.244   7.905 -0.2307 -0.0390 -0.3352
  193MOL0     C25961   8.762   5.174   7.865 -0.1487 -0.1305 -0.6735
  193MOL0     C25962   8.874   5.211   7.956  0.0946 -0.6693 -0.4389
  193MOL0     C25963   8.994   5.140   7.931  0.0486 -0.4584  0.2008
  193MOL0    Cl25964   9.109   5.227   8.025  0.6787  0.4186 -0.8305
  193MOL0     C25965   7.924   4.925   7.831 -0.2083  1.0745 -0.6137
  193MOL0     C25966   7.800   4.848   7.845  0.7753  0.1101  0.2033
  193MOL0     O25967   7.500   4.906   7.867  0.1990  0.0026  0.8185
  193MOL0     C25968   7.369   4.588   7.769  0.6557  0.4879  0.3619
  193MOL0     C25969   7.241   4.520   7.780  0.3139  0.4620  0.4496
  193MOL0     N25970   6.270   4.387   7.749 -0.0131  0.0106 -0.2530
  193MOL0     N25971   6.180   4.348   7.833  0.1673  0.3362  0.2973
  193MOL0     C25972   5.628   4.125   8.765  0.3334  0.4252  0.0983
  193MOL0     C25973   5.680   4.202   8.868 -0.4867  0.1738  0.3291
  193MOL0     C25974   5.820   4.540   9.100 -0.1071  0.6087  0.4438
  193MOL0     C25975   5.931   4.474   9.152 -0.2136  0.0083 -0.2302
  193MOL0     C25976   6.011   4.527   9.261  0.5844 -0.0454  0.2234
  193MOL0     C25977   5.968   4.647   9.326 -0.7697  0.8095 -0.2814
  193MOL0     O25978   6.044   4.693   9.431 -0.2211 -0.3521 -1.0329
  193MOL0     C25979   6.099   4.825   9.402  0.2663  0.7984  0.6112
  193MOL0     C25980   6.200   4.868   9.507 -0.6031 -1.0598 -0.2524
  193MOL0     C25981   6.144   4.869   9.646  0.1501  0.1341 -0.6400
  193MOL0     C25982   6.026   4.973   9.655 -0.1483  0.7079 -0.2929
  193MOL0     C25983   5.985   5.006   9.790 -0.3764 -0.0551  0.4754
  193MOL0     C25984   5.946   5.027   9.906 -0.7704 -0.1244  0.3493
  193MOL0     C25985   5.853   4.708   9.273 -0.2515 -0.6303 -0.0860
  193MOL0     C25986   5.783   4.657   9.163 -0.2103 -0.7375  0.4449
  193MOL0     C25987   5.670   4.732   9.119 -0.3699 -1.2175  0.7688
  193MOL0     H25988   5.833   4.430   8.660 -0.4956 -0.4284 -1.9411
  193MOL0     H25989   5.717   4.310   8.498  1.5379  0.8461  0.1570
  193MOL0     H25990   5.754   3.940   8.594  0.1188 -2.2710 -0.1208
  193MOL0     H25991   5.594   3.869   8.594 -0.0099 -1.9728 -2.3180
  193MOL0     H25992   5.582   3.855   8.368 -0.9287  0.8001  0.3651
  193MOL0     H25993   5.729   3.785   8.431 -0.1953 -0.1802 -0.6542
  193MOL0     H25994   5.771   4.071   8.356 -1.4625  0.3697 -0.1856
  193MOL0     H25995   5.688   3.984   8.223 -0.0855  1.5920 -0.2987
  193MOL0     H25996   5.955   3.876   8.333 -0.6816 -2.4852 -0.1123
  193MOL0     H25997   5.864   3.832   8.201 -1.2025 -0.3909 -0.2281
  193MOL0     H25998   5.907   4.025   8.076 -2.0153  2.3455  0.1065
  193MOL0     H25999   5.966   4.124   8.215 -1.0969 -1.2621  1.7180
  193MOL0     H26000   6.168   3.995   8.240 -0.2488  1.7644 -0.4356
  193MOL0     H26001   6.101   3.868   8.126  0.1579 -0.2708  0.6837
  193MOL0     H26002   6.119   4.022   7.948  1.0240 -2.4872 -1.1276
  193MOL0     H26003   6.280   4.022   8.026  0.1617  1.1965 -1.0055
  193MOL0     H26004   6.075   4.250   8.056  0.7054  1.4891  4.1865
  193MOL0     H26005   6.222   4.244   8.151  0.2415 -1.4040  0.3852
  193MOL0     H26006   6.455   4.248   7.988  1.7257  0.3869 -1.4224
  193MOL0     H26007   6.577   4.284   7.728  0.5902 -0.4979  0.6599
  193MOL0     H26008   6.530   4.437   7.653 -1.8331 -1.9625 -0.7539
  193MOL0     H26009   6.612   4.572   7.839  4.1584  1.8758 -0.8571
  193MOL0     H26010   6.651   4.416   7.925  1.1151 -3.2214 -0.9040
  193MOL0     H26011   6.754   4.504   7.648  1.6243  0.5112  0.3288
  193MOL0     H26012   6.809   4.373   7.757 -2.5793 -1.7294 -1.1024
  193MOL0     H26013   6.856   4.581   7.917 -5.6603  0.0941 -0.8630
  193MOL0     H26014   6.860   4.668   7.763 -5.6985 -0.8673  1.8414
  193MOL0     H26015   7.023   4.777   7.821 -1.1276 -0.2954 -1.1224
  193MOL0     H26016   7.230   4.895   7.831 -0.4554  1.0430 -0.8145
  193MOL0     H26017   7.727   4.831   7.510 -0.3950 -0.8484  0.0896
  193MOL0     H26018   7.951   4.942   7.500  1.8678 -2.2623  0.1010
  193MOL0     H26019   8.184   5.109   7.858  0.0296  0.6338 -1.6516
  193MOL0     H26020   8.187   4.939   7.877 -0.1930  1.0877  1.7785
  193MOL0     H26021   8.363   4.932   7.698 -1.2824 -0.6522  1.3079
  193MOL0     H26022   8.332   5.103   7.660  3.7282  0.3065 -0.9431
  193MOL0     H26023   8.430   5.061   7.945  0.8948 -2.5415 -0.5002
  193MOL0     H26024   8.528   4.992   7.823 -2.7202 -3.0965 -2.3495
  193MOL0     H26025   8.442   5.290   7.813 -0.4570 -0.6396  2.5383
  193MOL0     H26026   8.552   5.208   7.701 -1.8887  0.5835 -1.3003
  193MOL0     H26027   8.601   5.225   8.009  1.4480 -2.3818 -0.1973
  193MOL0     H26028   8.652   5.351   7.901 -1.0558  0.0977 -1.4763
  193MOL0     H26029   8.752   5.066   7.883  0.4771  0.0827  1.2394
  193MOL0     H26030   8.787   5.188   7.760  1.2523 -2.4053 -0.7342
  193MOL0     H26031   8.844   5.206   8.062 -0.1487 -1.2400 -0.5334
  193MOL0     H26032   8.887   5.319   7.945 -0.1078 -0.5856  0.0704
  193MOL0     H26033   8.978   5.039   7.968  0.8019 -0.7621 -0.2821
  193MOL0     H26034   9.025   5.137   7.826  1.4405 -1.2060  0.6098
  193MOL0     H26035   7.982   4.956   7.917  3.9308 -2.1825 -1.9152
  193MOL0     H26036   7.747   4.834   7.938 -1.9861  1.3513 -1.0506
  193MOL0     H26037   7.468   4.545   7.755  0.6946  1.1669 -1.9598
  193MOL0     H26038   7.242   4.412   7.779 -0.9884  0.3850  1.9758
  193MOL0     H26039   5.564   4.038   8.779 -0.5884  0.9821 -0.5947
  193MOL0     H26040   5.667   4.173   8.972  2.5106 -0.8745  0.5069
  193MOL0     H26041   5.969   4.385   9.103  2.7184  0.3740  1.1218
  193MOL0     H26042   6.097   4.469   9.295  1.2510  1.0036  0.3813
  193MOL0     H26043   6.015   4.893   9.387 -0.0971 -0.2977 -3.4979
  193MOL0     H26044   6.162   4.808   9.314 -0.6442 -4.6899  0.6412
  193MOL0     H26045   6.243   4.964   9.478  1.7493 -2.3298 -1.2840
  193MOL0     H26046   6.290   4.804   9.502  0.1271 -0.0773  0.0556
  193MOL0     H26047   6.223   4.899   9.715  3.7674 -3.5150 -2.7649
  193MOL0     H26048   6.097   4.776   9.680 -2.5085  1.4335 -0.4751
  193MOL0     H26049   6.058   5.068   9.612 -0.6097  0.1846 -1.8564
  193MOL0     H26050   5.946   4.921   9.601 -1.4234  2.7470 -0.4744
  193MOL0     H26051   5.914   5.034  10.008 -1.8158  2.8692 -0.0907
  193MOL0     H26052   5.812   4.793   9.326 -1.1760 -3.3867  4.0740
  193MOL0     H26053   5.585   4.663   9.121 -1.4128  0.0498  2.0843
  193MOL0     H26054   5.641   4.824   9.172 -3.9120  0.4124 -3.3330
  193MOL0     H26055   5.684   4.775   9.019 -1.1371 -2.3082  0.1667
  194MOL0     O26056   1.319   3.490   7.729  0.1845  0.7884  0.1201
  194MOL0     C26057   1.293   3.427   7.628 -0.3853 -0.0381 -0.3648
  194MOL0     O26058   1.333   3.300   7.592  0.3482 -0.8266  0.3256
  194MOL0     C26059   1.406   3.237   7.686  0.2219  0.3262  0.6412
  194MOL0     C26060   1.349   3.180   7.796 -0.6768  0.2009 -0.2856
  194MOL0     C26061   1.430   3.122   7.892  1.0524 -0.4399  1.0564
  194MOL0     C26062   1.563   3.115   7.878 -1.0316  0.3845 -0.2511
  194MOL0     O26063   1.629   3.040   7.973  0.2548 -0.0627 -0.5658
  194MOL0     C26064   1.781   3.043   7.977  0.4256 -0.2452  0.5244
  194MOL0     C26065   1.846   2.938   7.879  0.7771  0.4592  0.5875
  194MOL0     C26066   1.828   2.797   7.908  0.0629  0.0752 -0.7410
  194MOL0     C26067   1.922   2.702   7.827  0.6936 -1.6672  0.2076
  194MOL0     C26068   1.928   2.557   7.887 -0.5360 -0.1142 -0.0942
  194MOL0     C26069   1.793   2.483   7.879  0.4848 -0.2936 -0.2675
  194MOL0     C26070   1.800   2.350   7.961 -0.0829 -0.8681  0.2901
  194MOL0     C26071   1.752   2.362   8.100  0.1031  0.7430 -0.7917
  194MOL0     N26072   1.841   2.454   8.179  0.1263 -0.8040 -0.7704
  194MOL0     C26073   1.979   2.431   8.214  0.6636 -0.3792  0.6146
  194MOL0     C26074   1.995   2.525   8.308 -0.1240  0.1837 -0.2882
  194MOL0     C26075   2.115   2.558   8.383  0.1082  0.4395 -0.9566
  194MOL0     C26076   2.215   2.640   8.307 -0.0328 -0.2436 -0.8484
  194MOL0     C26077   2.321   2.704   8.400 -0.7476  0.4675  0.7313
  194MOL0     C26078   2.433   2.763   8.316 -0.6713 -0.5442  0.5251
  194MOL0     O26079   2.498   2.660   8.246 -0.3794  0.2636  0.5853
  194MOL0     C26080   2.625   2.625   8.284  0.7767  1.0238  0.4803
  194MOL0     C26081   2.695   2.653   8.403  0.6972 -0.0024 -0.1727
  194MOL0     C26082   2.827   2.607   8.422  0.5612 -0.5829 -0.5079
  194MOL0     C26083   2.899   2.540   8.317  0.3386 -0.5918  0.0303
  194MOL0     C26084   3.028   2.478   8.350  0.3859 -0.2528  0.0312
  194MOL0     O26085   3.067   2.382   8.261  0.7140 -0.4401  0.0742
  194MOL0     C26086   3.181   2.312   8.279 -0.5970 -0.1573  0.1247
  194MOL0     C26087   3.177   2.181   8.323  0.6753 -0.5091  0.3438
  194MOL0     C26088   3.291   2.105   8.333  0.4389 -0.0987  0.6768
  194MOL0     C26089   3.418   2.156   8.311  0.6950 -0.5186 -0.2461
  194MOL0     O26090   3.535   2.084   8.312 -0.7238  1.3631 -0.0561
  194MOL0     C26091   3.547   1.948   8.348 -0.2640  0.1765  0.2797
  194MOL0     C26092   3.683   1.882   8.298  0.3801  0.3366  0.1141
  194MOL0     C26093   3.802   1.932   8.376 -0.4737  0.1284  0.6536
  194MOL0     C26094   3.845   1.815   8.474 -0.5670 -0.6013 -0.1348
  194MOL0     C26095   3.955   1.859   8.582 -0.6403  0.4449  0.9190
  194MOL0     C26096   3.924   1.986   8.650  0.5594 -0.0908 -0.0605
  194MOL0     C26097   4.027   2.014   8.754  0.3906 -0.5515  0.4004
  194MOL0     C26098   3.992   1.943   8.883  0.6082 -0.4249 -0.2560
  194MOL0    Cl26099   3.862   2.017   8.983  0.2073  0.3101 -0.3225
  194MOL0     C26100   3.424   2.299   8.276  0.3441  0.1086  0.5217
  194MOL0     C26101   3.302   2.371   8.261  0.6681 -0.2921  0.3252
  194MOL0     O26102   3.089   2.518   8.452 -0.6731 -0.3273  0.0973
  194MOL0     C26103   2.831   2.521   8.192  0.1235  0.2167 -0.2378
  194MOL0     C26104   2.700   2.562   8.178  0.2785  0.8050 -0.4952
  194MOL0     N26105   1.888   2.598   8.327  0.2050  0.2218 -0.1492
  194MOL0     N26106   1.784   2.561   8.251 -0.1624  0.0430  0.4323
  194MOL0     C26107   1.622   3.168   7.765  0.3646 -0.6752  0.0817
  194MOL0     C26108   1.548   3.233   7.663  0.0098  0.2155 -0.7432
  194MOL0     C26109   1.201   3.492   7.534 -0.7063 -0.8272 -0.5904
  194MOL0     C26110   1.063   3.487   7.545  0.8771 -0.2545  0.2787
  194MOL0     C26111   0.982   3.563   7.458  0.1550 -0.2690 -0.1247
  194MOL0     C26112   1.047   3.625   7.351 -0.7015 -0.2440  0.2363
  194MOL0     O26113   0.994   3.696   7.241 -0.1288  1.0835 -0.1212
  194MOL0     C26114   0.853   3.673   7.211 -0.3126  0.5284  0.7794
  194MOL0     C26115   0.793   3.803   7.148  0.8610  0.3151 -0.7613
  194MOL0     C26116   0.863   3.846   7.022  0.3720  0.1328 -0.9147
  194MOL0     C26117   0.776   3.944   6.939  0.1185 -0.3309  0.4293
  194MOL0     C26118   0.772   4.074   7.000 -1.0021 -0.1612  0.7944
  194MOL0     C26119   0.767   4.186   7.050 -0.1144 -0.2849 -0.5883
  194MOL0     C26120   1.187   3.632   7.343 -0.5023  0.4533  0.2547
  194MOL0     C26121   1.272   3.569   7.438 -0.6666 -0.3476  0.4409
  194MOL0     C26122   1.416   3.588   7.420 -0.3944  0.1513  0.2330
  194MOL0     H26123   1.244   3.198   7.820 -0.3815  0.3899  0.9239
  194MOL0     H26124   1.380   3.088   7.982 -0.8776 -1.9525 -0.4972
  194MOL0     H26125   1.821   3.140   7.946  2.6370 -0.6215  1.9725
  194MOL0     H26126   1.812   3.022   8.080  0.8643 -1.8859  0.0840
  194MOL0     H26127   1.951   2.968   7.886  0.2472  2.2926  1.3859
  194MOL0     H26128   1.809   2.959   7.778 -1.4252  1.1576  1.4672
  194MOL0     H26129   1.730   2.760   7.877  0.1228 -0.3034 -0.4792
  194MOL0     H26130   1.842   2.785   8.016  3.2810 -0.9669 -1.1807
  194MOL0     H26131   1.882   2.694   7.725  1.3362  1.1365 -0.3373
  194MOL0     H26132   2.024   2.738   7.817  0.7190 -1.6241  0.5916
  194MOL0     H26133   1.994   2.489   7.833  1.9243  3.0591 -1.4033
  194MOL0     H26134   1.965   2.551   7.990 -1.9957 -0.4355  0.4268
  194MOL0     H26135   1.716   2.544   7.925 -0.3009 -0.4859 -1.2972
  194MOL0     H26136   1.783   2.457   7.773 -1.5680 -1.6688  0.1954
  194MOL0     H26137   1.895   2.297   7.954  2.5169  3.1449  1.7193
  194MOL0     H26138   1.719   2.294   7.913 -2.7812  3.1507 -0.3820
  194MOL0     H26139   1.647   2.395   8.100  0.0564  0.8045  1.7690
  194MOL0     H26140   1.756   2.263   8.144  1.0287  0.4836 -1.4480
  194MOL0     H26141   2.049   2.354   8.184 -0.1517 -0.4654 -1.2170
  194MOL0     H26142   2.080   2.604   8.476 -1.6672  1.0086 -1.8698
  194MOL0     H26143   2.172   2.468   8.411  2.7556  1.5860 -2.3190
  194MOL0     H26144   2.255   2.575   8.228  0.1448  1.6925 -2.4179
  194MOL0     H26145   2.157   2.724   8.267  0.2732  1.8395  2.7289
  194MOL0     H26146   2.352   2.627   8.471 -2.5977 -1.4005 -0.3746
  194MOL0     H26147   2.282   2.784   8.465  1.2331  4.2446 -2.3250
  194MOL0     H26148   2.496   2.815   8.388  0.1368 -0.6108 -0.1262
  194MOL0     H26149   2.406   2.841   8.244  0.7476 -0.1261  0.4170
  194MOL0     H26150   2.637   2.701   8.482  2.0599  1.0500  0.2325
  194MOL0     H26151   2.869   2.626   8.520 -1.4766 -0.2331  0.3604
  194MOL0     H26152   3.082   2.135   8.350  0.1041  0.9733  0.9397
  194MOL0     H26153   3.285   1.997   8.331  1.6830 -0.3067 -4.0461
  194MOL0     H26154   3.533   1.912   8.450 -1.2164 -0.9950 -0.2245
  194MOL0     H26155   3.466   1.897   8.295 -0.5747  1.6637 -0.7295
  194MOL0     H26156   3.666   1.774   8.295  0.4757  0.2011 -4.9377
  194MOL0     H26157   3.696   1.904   8.191  3.4886 -1.4768  0.0145
  194MOL0     H26158   3.884   1.963   8.311 -2.2230 -0.8382 -2.2250
  194MOL0     H26159   3.770   2.022   8.429  1.0918  0.9364  0.2817
  194MOL0     H26160   3.875   1.733   8.409  2.2974  2.2366 -2.8005
  194MOL0     H26161   3.755   1.780   8.525 -0.6668  0.5802  0.5322
  194MOL0     H26162   4.056   1.862   8.542 -0.6110  0.5900  1.0026
  194MOL0     H26163   3.973   1.775   8.649  3.6376  1.3981  1.2244
  194MOL0     H26164   3.936   2.066   8.577  2.3645  3.7521  3.9950
  194MOL0     H26165   3.827   1.984   8.701  0.5910  1.5157  0.1300
  194MOL0     H26166   4.028   2.122   8.773 -1.8144 -0.7480  2.0257
  194MOL0     H26167   4.123   1.985   8.709  0.5965 -0.3833  0.7284
  194MOL0     H26168   3.965   1.841   8.856  1.4884 -0.7938  0.2213
  194MOL0     H26169   4.082   1.952   8.945  2.9605  2.2352 -3.7208
  194MOL0     H26170   3.523   2.343   8.271  1.6893 -2.5164  2.0881
  194MOL0     H26171   3.299   2.474   8.226 -0.0268 -1.0153 -1.9487
  194MOL0     H26172   2.884   2.465   8.116 -0.9793  0.4983 -1.2334
  194MOL0     H26173   2.659   2.551   8.078  3.0089  0.2494 -1.6502
  194MOL0     H26174   1.730   3.165   7.756  1.0201  4.4179  2.3562
  194MOL0     H26175   1.582   3.278   7.570  0.4512  4.2534  1.1492
  194MOL0     H26176   1.020   3.429   7.626  1.6525  0.2673  1.0748
  194MOL0     H26177   0.874   3.559   7.471 -0.0245 -1.8329 -1.7693
  194MOL0     H26178   0.791   3.658   7.300 -3.0975 -0.7208 -1.2096
  194MOL0     H26179   0.839   3.585   7.148  1.3009  1.2533 -0.6814
  194MOL0     H26180   0.805   3.881   7.223 -0.1411 -1.3367  1.2338
  194MOL0     H26181   0.685   3.790   7.135  0.3422 -0.6541  3.1969
  194MOL0     H26182   0.888   3.754   6.969  0.3160 -0.9277  0.8348
  194MOL0     H26183   0.964   3.881   7.042 -0.7247  1.1067  4.3244
  194MOL0     H26184   0.828   3.950   6.843  1.0777  1.6058  1.0144
  194MOL0     H26185   0.675   3.902   6.932  0.6492 -2.1358  2.4520
  194MOL0     H26186   0.755   4.284   7.092 -2.0422 -0.2083 -1.2000
  194MOL0     H26187   1.237   3.682   7.261  0.1812  4.6815  2.9038
  194MOL0     H26188   1.442   3.688   7.457 -1.5586  0.4309  0.3524
  194MOL0     H26189   1.479   3.519   7.476 -1.1564 -1.0703 -0.3852
  194MOL0     H26190   1.443   3.576   7.315  3.9142 -1.6481  1.3221
  195MOL0     O26191   7.831   0.582   4.901 -0.1465 -1.0378  0.0848
  195MOL0     C26192   7.846   0.635   5.011 -0.1289 -0.3400  0.3582
  195MOL0     O26193   7.947   0.728   5.039  0.5244 -0.0279 -0.2016
  195MOL0     C26194   8.057   0.708   4.964 -0.6279  0.5819 -0.7824
  195MOL0     C26195   8.122   0.588   4.995  0.3304  0.3803 -0.3826
  195MOL0     C26196   8.230   0.553   4.917  0.9004  0.9839  0.8202
  195MOL0     C26197   8.277   0.635   4.816  0.5521  0.2369  1.2711
  195MOL0     O26198   8.382   0.569   4.740  0.0003 -0.6303  0.2122
  195MOL0     C26199   8.442   0.641   4.629 -0.6262 -0.1250  0.1495
  195MOL0     C26200   8.536   0.561   4.539 -0.6303  0.3681 -0.2877
  195MOL0     C26201   8.643   0.481   4.621 -0.5156  0.0463  0.5856
  195MOL0     C26202   8.750   0.405   4.534 -0.3603  0.5317  0.5855
  195MOL0     C26203   8.820   0.295   4.615  0.4102 -0.1331 -0.3853
  195MOL0     C26204   8.946   0.344   4.684 -0.3644 -0.1088 -0.0723
  195MOL0     C26205   9.028   0.227   4.747 -0.6081  0.1414  0.2756
  195MOL0     C26206   9.166   0.283   4.797 -0.1797 -0.1044 -0.3873
  195MOL0     N26207   9.242   0.337   4.680 -1.4380 -0.0202 -0.2423
  195MOL0     C26208   9.281   0.257   4.574 -0.3875  0.3011 -0.2200
  195MOL0     C26209   9.378   0.321   4.517 -0.7370  0.0320  0.2343
  195MOL0     C26210   9.473   0.257   4.412 -0.4606  0.1321  0.0701
  195MOL0     C26211   9.624   0.295   4.439 -0.4150 -0.4139 -0.1209
  195MOL0     C26212   9.687   0.220   4.565 -0.0561  0.1998  1.4099
  195MOL0     C26213   9.806   0.301   4.624  0.9895  0.7974  0.3751
  195MOL0     O26214   9.917   0.290   4.533  0.5173  0.4805  0.0458
  195MOL0     C26215  10.048   0.312   4.577 -0.1138  0.1194 -0.6140
  195MOL0     C26216  10.077   0.367   4.700 -0.7502  0.2510  0.0571
  195MOL0     C26217  10.212   0.380   4.741  0.6626  0.0062 -0.3624
  195MOL0     C26218  10.322   0.350   4.664  0.0888  0.0606  0.1617
  195MOL0     C26219  10.458   0.375   4.715  0.3010  0.0481 -1.2670
  195MOL0     O26220  10.464   0.467   4.817 -0.5127 -0.1742  0.0240
  195MOL0     C26221  10.583   0.519   4.870 -1.2032  0.0609 -0.5446
  195MOL0     C26222  10.709   0.448   4.865 -0.0712 -0.4624 -0.3329
  195MOL0     C26223  10.835   0.491   4.925  0.2742  0.6430 -0.8794
  195MOL0     C26224  10.822   0.605   5.006 -0.4597 -0.8344 -1.7102
  195MOL0     O26225  10.928   0.649   5.075  0.2146 -0.1065  0.0643
  195MOL0     C26226  11.061   0.583   5.089  0.1188 -0.0976 -0.1793
  195MOL0     C26227  11.077   0.523   5.226 -0.5847 -0.2007  0.6270
  195MOL0     C26228  11.117   0.379   5.211  0.1218 -1.3856  0.2897
  195MOL0     C26229  11.104   0.312   5.347 -0.8252  0.8236 -0.8126
  195MOL0     C26230  11.106   0.162   5.353 -0.0204  0.6721  0.5657
  195MOL0     C26231  11.249   0.097   5.319  0.3825 -0.5619  0.4011
  195MOL0     C26232  11.239  -0.019   5.222  0.1324 -0.0805  0.8113
  195MOL0     C26233  11.366  -0.104   5.207 -0.3785 -0.2338 -0.5075
  195MOL0    Cl26234  11.505  -0.022   5.120 -0.0284  0.1224 -0.4115
  195MOL0     C26235  10.700   0.684   5.005 -0.1616 -0.2646  0.4791
  195MOL0     C26236  10.590   0.645   4.932  0.4352 -0.1311  0.1282
  195MOL0     O26237  10.547   0.329   4.650  0.0965 -0.9509 -0.0468
  195MOL0     C26238  10.298   0.283   4.536 -0.0111 -0.7893  1.0057
  195MOL0     C26239  10.161   0.263   4.504  0.0149  0.7362 -0.2952
  195MOL0     N26240   9.410   0.432   4.592  0.2951  0.7719  0.2759
  195MOL0     N26241   9.332   0.439   4.691 -0.6245 -0.6800  0.0465
  195MOL0     C26242   8.204   0.744   4.776  0.1696 -0.3787  0.5252
  195MOL0     C26243   8.106   0.785   4.862  0.7901 -0.8294  0.0529
  195MOL0     C26244   7.727   0.634   5.105  1.0852  0.1135 -0.2874
  195MOL0     C26245   7.740   0.704   5.226  0.1156 -0.2103 -1.0801
  195MOL0     C26246   7.633   0.717   5.309 -0.6193  0.0474 -0.4684
  195MOL0     C26247   7.518   0.646   5.292  1.1140  0.0477 -0.5834
  195MOL0     O26248   7.403   0.669   5.371 -0.2778 -0.1799  0.0802
  195MOL0     C26249   7.390   0.741   5.494  0.5478 -0.2067  0.1444
  195MOL0     C26250   7.250   0.750   5.554  0.8300 -0.5042  0.9832
  195MOL0     C26251   7.214   0.609   5.600  0.9754 -0.2010 -0.8413
  195MOL0     C26252   7.062   0.605   5.639  0.3207 -0.9528  0.3995
  195MOL0     C26253   7.030   0.469   5.687  0.4363 -0.5758  0.4521
  195MOL0     C26254   6.985   0.363   5.731  0.6087 -0.2635 -0.1434
  195MOL0     C26255   7.506   0.566   5.184  0.2413 -0.9087 -0.1843
  195MOL0     C26256   7.611   0.557   5.089 -0.0795  0.2205  0.2322
  195MOL0     C26257   7.592   0.449   4.986 -0.4734 -0.8119 -0.1161
  195MOL0     H26258   8.093   0.520   5.075  3.0553  0.9054  1.1645
  195MOL0     H26259   8.276   0.456   4.931  0.9899  0.6517 -1.5056
  195MOL0     H26260   8.361   0.685   4.571  0.8206 -0.7099 -2.4822
  195MOL0     H26261   8.493   0.732   4.665 -0.7431  0.7071 -1.6853
  195MOL0     H26262   8.597   0.635   4.485 -0.1090  2.5469  2.9661
  195MOL0     H26263   8.483   0.495   4.471 -1.2775  1.1976 -0.6075
  195MOL0     H26264   8.591   0.409   4.684  0.0512 -0.7064  0.2165
  195MOL0     H26265   8.701   0.548   4.685 -2.3251  2.1020  0.2036
  195MOL0     H26266   8.692   0.363   4.451  0.4893  0.5098 -0.0044
  195MOL0     H26267   8.823   0.464   4.478 -0.3361 -0.3974 -0.3913
  195MOL0     H26268   8.744   0.258   4.685 -0.4971 -1.0284 -1.8127
  195MOL0     H26269   8.846   0.213   4.548 -1.9002  0.1480 -1.7243
  195MOL0     H26270   9.008   0.392   4.608 -2.8375  0.2908 -1.9376
  195MOL0     H26271   8.908   0.413   4.761 -1.7095  2.3962 -2.7895
  195MOL0     H26272   9.037   0.154   4.666 -3.0661  0.3320 -0.2532
  195MOL0     H26273   8.964   0.189   4.827  0.5844 -1.5041  0.4747
  195MOL0     H26274   9.169   0.344   4.888  1.9181 -2.8468  1.5644
  195MOL0     H26275   9.205   0.185   4.828 -1.4986 -0.3370  0.6124
  195MOL0     H26276   9.242   0.163   4.535 -2.3280  0.6897  0.6935
  195MOL0     H26277   9.462   0.149   4.399 -0.3841  0.1441 -0.0917
  195MOL0     H26278   9.446   0.301   4.316 -0.3256 -1.5500 -0.7756
  195MOL0     H26279   9.687   0.266   4.354  0.8810 -1.6962  1.2077
  195MOL0     H26280   9.632   0.404   4.448  1.6421 -0.5669  0.4097
  195MOL0     H26281   9.710   0.115   4.547  2.4901  0.8328  0.5546
  195MOL0     H26282   9.607   0.227   4.639 -1.7979 -0.7630 -0.2828
  195MOL0     H26283   9.838   0.245   4.713  2.5208  0.3082 -0.4486
  195MOL0     H26284   9.778   0.406   4.637 -1.4055  0.2255  0.3117
  195MOL0     H26285  10.000   0.401   4.769  0.8062 -1.9492  3.1049
  195MOL0     H26286  10.225   0.447   4.825  0.1480 -0.9462  0.4964
  195MOL0     H26287  10.704   0.348   4.823 -4.0702  0.4637 -2.5792
  195MOL0     H26288  10.918   0.422   4.930  0.4784  0.9225 -0.3846
  195MOL0     H26289  11.101   0.532   5.001  1.0268  0.9329 -0.3881
  195MOL0     H26290  11.123   0.673   5.088 -1.8712  1.3805 -2.4799
  195MOL0     H26291  11.150   0.586   5.278 -0.3314  0.9013 -0.9679
  195MOL0     H26292  10.984   0.536   5.282  0.0888  0.2087  1.6798
  195MOL0     H26293  11.043   0.320   5.156 -1.0328  0.1852  0.0809
  195MOL0     H26294  11.220   0.387   5.177  0.3036  2.5376  1.2880
  195MOL0     H26295  11.012   0.344   5.396 -0.4890  0.5307  0.0294
  195MOL0     H26296  11.195   0.348   5.397 -0.9860  3.4836 -2.2377
  195MOL0     H26297  11.034   0.122   5.282  2.3109 -3.2669  0.0772
  195MOL0     H26298  11.076   0.122   5.451 -1.1434  0.1611  0.0288
  195MOL0     H26299  11.298   0.185   5.275 -1.3796  0.7046  0.8416
  195MOL0     H26300  11.299   0.073   5.412 -1.5852 -1.8054  1.2033
  195MOL0     H26301  11.217   0.017   5.121  2.2683 -1.6735 -0.2987
  195MOL0     H26302  11.156  -0.087   5.243 -3.1470  2.3950 -2.8158
  195MOL0     H26303  11.393  -0.142   5.306 -0.3229 -3.6385 -1.6905
  195MOL0     H26304  11.334  -0.197   5.159 -0.0962 -1.1781  1.0667
  195MOL0     H26305  10.696   0.783   5.049 -3.7387  0.0716 -0.2895
  195MOL0     H26306  10.504   0.712   4.940 -1.8965 -2.7283 -1.4579
  195MOL0     H26307  10.374   0.252   4.466 -0.6864 -3.3290  1.3185
  195MOL0     H26308  10.133   0.218   4.409 -0.4290 -3.1548  1.4726
  195MOL0     H26309   8.229   0.808   4.692 -0.7835  2.4776  2.2888
  195MOL0     H26310   8.046   0.874   4.848  0.2769 -1.0543  0.7916
  195MOL0     H26311   7.832   0.757   5.250 -0.0548 -0.0460 -0.7784
  195MOL0     H26312   7.650   0.778   5.397  0.8928 -1.3387  0.2513
  195MOL0     H26313   7.413   0.848   5.485 -0.5177  0.1776  1.6748
  195MOL0     H26314   7.455   0.689   5.565  1.9766 -3.5307 -3.2731
  195MOL0     H26315   7.176   0.789   5.485  2.4899  1.5349  0.2579
  195MOL0     H26316   7.247   0.814   5.643 -2.9273  0.5656  0.2555
  195MOL0     H26317   7.279   0.574   5.680 -0.0211  1.4832  0.8062
  195MOL0     H26318   7.229   0.542   5.515  4.2597 -0.4730 -0.1575
  195MOL0     H26319   7.036   0.679   5.716 -3.5570  0.2831 -1.8391
  195MOL0     H26320   6.996   0.635   5.557  0.6077 -3.5126 -0.8737
  195MOL0     H26321   6.967   0.262   5.763  3.3638 -2.3079 -4.0463
  195MOL0     H26322   7.416   0.507   5.170  0.0789 -0.8602  0.6415
  195MOL0     H26323   7.533   0.366   5.025  0.9298 -2.5686 -1.5119
  195MOL0     H26324   7.551   0.481   4.890  2.4634 -1.5587 -1.7493
  195MOL0     H26325   7.693   0.409   4.968  1.7899  3.5568  1.5150
  196MOL0     O26326  11.259   7.725   9.984  0.2692 -0.2055  0.4348
  196MOL0     C26327  11.280   7.682  10.097  0.1013 -0.1095 -1.1162
  196MOL0     O26328  11.312   7.551  10.124 -0.1228 -0.0952 -0.0107
  196MOL0     C26329  11.393   7.497  10.027 -0.1376 -1.1100  0.1014
  196MOL0     C26330  11.390   7.366  10.039  0.7215  0.5438  0.5164
  196MOL0     C26331  11.469   7.279   9.966  0.9360 -0.0377 -0.9086
  196MOL0     C26332  11.560   7.326   9.879 -0.8839  0.1480 -0.2891
  196MOL0     O26333  11.634   7.232   9.805  0.1208  0.8288 -0.3152
  196MOL0     C26334  11.615   7.086   9.793 -0.2501  0.0189  0.7536
  196MOL0     C26335  11.740   7.050   9.707  1.2838  0.3436  0.2472
  196MOL0     C26336  11.863   7.014   9.786 -0.7275 -0.3440  0.3525
  196MOL0     C26337  11.972   6.944   9.702 -0.0583  0.3471 -0.0433
  196MOL0     C26338  12.104   6.938   9.787 -0.0681 -0.1324 -0.3856
  196MOL0     C26339  12.224   6.878   9.704  0.0064 -0.0898 -0.2727
  196MOL0     C26340  12.269   6.962   9.579 -0.3392 -0.5097  0.2985
  196MOL0     C26341  12.305   7.114   9.595  0.1798 -0.0910  0.5559
  196MOL0     N26342  12.410   7.137   9.694  0.3634 -0.1885  0.3794
  196MOL0     C26343  12.534   7.093   9.681  1.0023 -0.4749  0.6597
  196MOL0     C26344  12.593   7.135   9.791  0.4372  0.7198  0.3500
  196MOL0     C26345  12.742   7.128   9.814 -0.4746 -0.5235  0.3018
  196MOL0     C26346  12.768   7.167   9.956 -0.3568 -0.3218 -0.5237
  196MOL0     C26347  12.911   7.130   9.998 -0.2548  0.5023 -0.4797
  196MOL0     C26348  12.990   7.256   9.990 -1.2216 -0.1268 -0.5144
  196MOL0     O26349  13.126   7.226  10.035  0.1101  0.7412  0.0239
  196MOL0     C26350  13.214   7.333  10.063  0.5942  0.5734 -1.1399
  196MOL0     C26351  13.310   7.323  10.160 -0.4465  0.9289 -0.4043
  196MOL0     C26352  13.413   7.418  10.170  0.4776 -0.4291  0.4488
  196MOL0     C26353  13.409   7.528  10.077 -0.6720  0.3718  0.1163
  196MOL0     C26354  13.517   7.621  10.065 -0.3701  0.4770 -0.3978
  196MOL0     O26355  13.521   7.712   9.967 -0.3100  0.2701 -0.1806
  196MOL0     C26356  13.582   7.834  10.004  0.3014 -0.5254  0.0504
  196MOL0     C26357  13.506   7.924  10.069  0.5293  0.6378  0.4991
  196MOL0     C26358  13.563   8.038  10.123 -0.2219 -0.2579  0.4397
  196MOL0     C26359  13.692   8.074  10.084 -0.3289  0.6710 -0.2945
  196MOL0     O26360  13.742   8.193  10.119 -0.4328 -0.1728 -0.7773
  196MOL0     C26361  13.685   8.277  10.222  0.1675 -0.0933  0.1381
  196MOL0     C26362  13.795   8.380  10.261  0.5250 -0.0053 -0.0690
  196MOL0     C26363  13.844   8.469  10.145 -0.0078  0.3136 -0.1838
  196MOL0     C26364  13.965   8.551  10.169 -0.4550  0.0777 -0.0756
  196MOL0     C26365  13.983   8.665  10.071 -0.1621 -0.8171 -0.1776
  196MOL0     C26366  13.891   8.790  10.096  0.5549  0.3033 -0.1190
  196MOL0     C26367  13.935   8.907  10.013  0.9469 -0.5844 -0.3099
  196MOL0     C26368  13.938   8.886   9.864 -0.1413 -0.3455  0.6316
  196MOL0    Cl26369  14.094   8.823   9.819 -0.1367  0.0924  0.2866
  196MOL0     C26370  13.764   7.989  10.000 -0.4219 -0.6686 -0.0920
  196MOL0     C26371  13.712   7.863   9.971  0.2172 -0.1898 -0.4115
  196MOL0     O26372  13.605   7.627  10.163 -0.3249 -0.4130 -0.3681
  196MOL0     C26373  13.293   7.543   9.990 -0.5637 -0.3768 -0.1545
  196MOL0     C26374  13.200   7.445   9.982  0.0235  0.7356 -0.2582
  196MOL0     N26375  12.497   7.198   9.874 -0.0905  0.3463 -0.4208
  196MOL0     N26376  12.386   7.203   9.810  0.9914  0.0797  0.4673
  196MOL0     C26377  11.562   7.464   9.853  0.2819  0.4509  0.2033
  196MOL0     C26378  11.485   7.556   9.935 -0.0408  0.0637  0.3992
  196MOL0     C26379  11.278   7.786  10.209 -0.1930  0.4052  0.0323
  196MOL0     C26380  11.177   7.785  10.303 -0.9304  0.9363 -0.3751
  196MOL0     C26381  11.149   7.884  10.394  0.2357  0.4632  0.3172
  196MOL0     C26382  11.232   7.992  10.405 -1.1603  0.1213  0.2745
  196MOL0     O26383  11.231   8.097  10.495 -0.2827  0.5999 -0.3322
  196MOL0     C26384  11.139   8.099  10.605  0.5115  0.3089 -0.3615
  196MOL0     C26385  11.182   8.202  10.712 -0.3715  0.3830  0.3710
  196MOL0     C26386  11.083   8.217  10.830 -0.6548  0.9978 -0.2007
  196MOL0     C26387  11.120   8.122  10.938 -0.7884 -0.2784  0.0530
  196MOL0     C26388  11.037   8.137  11.058  0.3199  0.1399  0.3779
  196MOL0     C26389  10.973   8.138  11.159  0.5365  0.6124  0.8682
  196MOL0     C26390  11.352   7.994  10.325  0.3428 -0.2839  0.4887
  196MOL0     C26391  11.377   7.887  10.224  0.0736 -0.9930  0.1356
  196MOL0     C26392  11.501   7.909  10.144 -0.0059  0.1673 -0.0422
  196MOL0     H26393  11.329   7.318  10.115  1.7295 -2.6190 -0.5122
  196MOL0     H26394  11.459   7.174   9.991  0.1361  0.0208 -0.9825
  196MOL0     H26395  11.620   7.033   9.889  3.7600 -1.9428 -0.3197
  196MOL0     H26396  11.515   7.063   9.755 -0.7263  0.1777  1.8517
  196MOL0     H26397  11.755   7.133   9.637  0.3897  0.2137 -0.1174
  196MOL0     H26398  11.722   6.956   9.654 -0.2272 -0.8206  2.6943
  196MOL0     H26399  11.831   6.953   9.871 -0.4854 -1.5254 -0.3802
  196MOL0     H26400  11.901   7.108   9.828  1.7127 -0.8568 -0.5671
  196MOL0     H26401  11.943   6.840   9.682 -1.3537  0.5161  0.8137
  196MOL0     H26402  11.990   6.997   9.609  0.6081  0.1921 -0.0078
  196MOL0     H26403  12.121   7.040   9.822 -2.5911  1.3548 -2.9836
  196MOL0     H26404  12.084   6.877   9.876  1.9825 -2.3536 -1.3456
  196MOL0     H26405  12.317   6.862   9.758  1.1417 -0.4772 -2.2567
  196MOL0     H26406  12.190   6.779   9.671  1.9661 -0.9030  0.0126
  196MOL0     H26407  12.197   6.965   9.497 -0.2545  0.3110  0.2498
  196MOL0     H26408  12.358   6.917   9.534 -1.2178 -0.3561 -1.7417
  196MOL0     H26409  12.343   7.159   9.503 -1.4520  0.7849  0.2734
  196MOL0     H26410  12.210   7.162   9.621  0.4233  0.1030  1.0891
  196MOL0     H26411  12.580   7.035   9.601  1.1644  2.2019 -1.3216
  196MOL0     H26412  12.772   7.024   9.795  1.5953 -0.5377  2.9803
  196MOL0     H26413  12.804   7.194   9.753  2.0247 -0.8688  2.2826
  196MOL0     H26414  12.741   7.269   9.984 -2.0705 -0.9989  0.4350
  196MOL0     H26415  12.708   7.104  10.023 -0.6520  1.5535  1.0756
  196MOL0     H26416  12.944   7.054   9.927 -0.9759  0.2709 -0.5783
  196MOL0     H26417  12.915   7.095  10.102  0.1614  0.0895 -0.6308
  196MOL0     H26418  12.950   7.324  10.065 -0.3700 -1.9213  1.6664
  196MOL0     H26419  12.985   7.304   9.892 -1.5381 -0.8207 -0.8471
  196MOL0     H26420  13.304   7.235  10.224  1.0166 -0.3398 -1.9217
  196MOL0     H26421  13.494   7.404  10.240  2.8731  1.0535 -1.8756
  196MOL0     H26422  13.401   7.898  10.080  0.7968  0.0541  1.9693
  196MOL0     H26423  13.495   8.102  10.179 -0.2142  1.0660 -0.9895
  196MOL0     H26424  13.597   8.331  10.186 -1.7255 -1.3588  2.5411
  196MOL0     H26425  13.648   8.219  10.307  0.2944 -0.1405  0.1625
  196MOL0     H26426  13.758   8.449  10.338 -2.4678 -0.7454 -0.7301
  196MOL0     H26427  13.870   8.316  10.308 -1.1385 -1.4815  0.7127
  196MOL0     H26428  13.870   8.410  10.057 -1.0450  0.7793 -0.8134
  196MOL0     H26429  13.759   8.531  10.116  0.0044  1.3183  1.7702
  196MOL0     H26430  14.059   8.497  10.185  1.5430  3.1955 -0.1723
  196MOL0     H26431  13.961   8.595  10.269  1.0265 -0.9041  0.4510
  196MOL0     H26432  13.958   8.625   9.973  3.4205 -3.7278 -0.1159
  196MOL0     H26433  14.089   8.689  10.059 -0.2354 -1.3463 -2.3473
  196MOL0     H26434  13.792   8.766  10.057  0.0145  1.0646  0.7477
  196MOL0     H26435  13.896   8.823  10.200  2.1049 -1.3538  0.3775
  196MOL0     H26436  14.026   8.946  10.058 -0.7554  2.3718  0.8738
  196MOL0     H26437  13.858   8.982  10.037  1.1967 -0.3012 -0.3879
  196MOL0     H26438  13.857   8.825   9.823  0.1836  0.8675 -2.0531
  196MOL0     H26439  13.913   8.982   9.819 -0.5887 -0.4248  0.6987
  196MOL0     H26440  13.860   8.023   9.962 -0.1407  0.6520  1.6558
  196MOL0     H26441  13.788   7.812   9.912  2.5960 -0.1417  2.3925
  196MOL0     H26442  13.291   7.634   9.931  4.2120 -0.1024 -0.2935
  196MOL0     H26443  13.118   7.448   9.911 -1.1992 -3.1420  0.7197
  196MOL0     H26444  11.625   7.499   9.772  2.1863 -1.7599  0.6050
  196MOL0     H26445  11.501   7.663   9.928 -0.0143 -0.0167 -1.1609
  196MOL0     H26446  11.114   7.697  10.287 -0.3320 -0.6760  4.4170
  196MOL0     H26447  11.061   7.870  10.455  1.0331  1.0442  1.6273
  196MOL0     H26448  11.116   7.996  10.635 -2.0771  0.7268 -0.7047
  196MOL0     H26449  11.047   8.143  10.566 -0.2988 -2.4713 -1.8046
  196MOL0     H26450  11.205   8.297  10.663  3.4621  0.3011  1.6337
  196MOL0     H26451  11.281   8.176  10.751 -1.1330 -2.5165  0.5499
  196MOL0     H26452  10.977   8.206  10.804 -0.8916  0.1247  1.0447
  196MOL0     H26453  11.075   8.321  10.861 -0.3116  1.4621 -1.5931
  196MOL0     H26454  11.117   8.022  10.894 -2.0993  0.0960 -0.7704
  196MOL0     H26455  11.221   8.150  10.968 -1.1285 -0.5305  1.5171
  196MOL0     H26456  10.919   8.151  11.251 -2.6321  2.5585 -1.0398
  196MOL0     H26457  11.418   8.078  10.339  2.2881 -1.5405 -0.6732
  196MOL0     H26458  11.529   7.809  10.107 -1.6224 -0.3841  0.1208
  196MOL0     H26459  11.476   7.976  10.062 -1.2516 -0.8655 -0.5567
  196MOL0     H26460  11.574   7.948  10.215 -1.8424  0.2854  1.8740
  197MOL0     O26461   8.047   9.867   4.683  0.6186  0.8615  0.8336
  197MOL0     C26462   7.959   9.913   4.611 -1.2082 -0.4499 -0.2079
  197MOL0     O26463   7.965  10.027   4.536 -0.4185  1.0159  0.5246
  197MOL0     C26464   8.078  10.096   4.538 -0.7534  0.0835 -1.2397
  197MOL0     C26465   8.143  10.140   4.659  0.3940 -0.2247 -0.0214
  197MOL0     C26466   8.270  10.204   4.656  0.4307  0.7400 -0.4841
  197MOL0     C26467   8.337  10.223   4.528 -0.3056 -0.0111 -0.8063
  197MOL0     O26468   8.466  10.273   4.525  0.1520  0.5647  0.1477
  197MOL0     C26469   8.508  10.351   4.419 -0.2404 -0.2373  0.5707
  197MOL0     C26470   8.644  10.418   4.455  0.2328 -1.1946 -0.4416
  197MOL0     C26471   8.760  10.324   4.443  0.2704 -0.0159 -0.1402
  197MOL0     C26472   8.886  10.408   4.404  0.0780 -0.1886 -0.4287
  197MOL0     C26473   9.023  10.339   4.380  0.4617  0.2084 -0.7731
  197MOL0     C26474   9.142  10.431   4.365  0.4490  0.6937  0.0001
  197MOL0     C26475   9.265  10.336   4.372  0.0077  0.2811  0.0882
  197MOL0     C26476   9.377  10.410   4.306  0.2618 -0.1730 -0.3932
  197MOL0     N26477   9.508  10.344   4.295  0.7937 -0.0382  0.4559
  197MOL0     C26478   9.588  10.315   4.403  0.0846 -1.3038  0.1557
  197MOL0     C26479   9.687  10.242   4.358  0.7339  1.1366  0.0931
  197MOL0     C26480   9.792  10.179   4.448  0.1296  0.1093  0.7258
  197MOL0     C26481   9.825  10.042   4.383 -0.0336  0.1007  0.1087
  197MOL0     C26482   9.935   9.972   4.469 -0.1414 -1.6486  0.0508
  197MOL0     C26483   9.983   9.845   4.398 -0.5536 -0.5840  0.8059
  197MOL0     O26484  10.077   9.883   4.300 -0.7467  0.5675  0.2723
  197MOL0     C26485  10.211   9.878   4.339  0.4925 -0.1140  0.1641
  197MOL0     C26486  10.306   9.850   4.242 -0.3110 -0.7080 -0.2824
  197MOL0     C26487  10.444   9.839   4.278  0.9139 -0.5832 -0.9592
  197MOL0     C26488  10.488   9.859   4.409 -0.9912 -0.4858  0.8245
  197MOL0     C26489  10.626   9.846   4.446 -0.5654  0.5860 -0.0305
  197MOL0     O26490  10.647   9.849   4.581  0.0833 -0.3237  1.2146
  197MOL0     C26491  10.778   9.885   4.620 -0.0408 -0.3188  0.3200
  197MOL0     C26492  10.875   9.784   4.633 -1.1689  0.7967 -0.2334
  197MOL0     C26493  11.006   9.822   4.662 -0.8046  0.5907  0.3530
  197MOL0     C26494  11.037   9.948   4.704 -0.1125 -0.0683  0.0451
  197MOL0     O26495  11.156   9.989   4.759  0.6391 -0.2125  0.3076
  197MOL0     C26496  11.248   9.896   4.810 -0.3734  0.1846  0.6848
  197MOL0     C26497  11.334   9.847   4.699  0.0820  0.0035  0.4258
  197MOL0     C26498  11.412   9.723   4.738 -0.0229  0.2392  0.2877
  197MOL0     C26499  11.527   9.759   4.839 -0.2366 -0.8444 -0.7787
  197MOL0     C26500  11.640   9.653   4.823  0.1081 -0.6511 -0.6321
  197MOL0     C26501  11.603   9.512   4.865 -0.3845 -0.7913  0.1020
  197MOL0     C26502  11.696   9.419   4.794  0.4716  1.0081 -0.1619
  197MOL0     C26503  11.654   9.270   4.821  0.0868 -0.6087 -0.4542
  197MOL0    Cl26504  11.758   9.209   4.948 -0.3313 -0.1673 -0.0403
  197MOL0     C26505  10.936  10.047   4.705  0.2125  0.2890 -0.0381
  197MOL0     C26506  10.809  10.019   4.660 -0.5498 -0.4818 -0.1106
  197MOL0     O26507  10.715   9.846   4.360  0.7466  0.1646 -0.5024
  197MOL0     C26508  10.394   9.891   4.504 -0.2633  0.2163 -0.3151
  197MOL0     C26509  10.260   9.891   4.466  0.2499 -0.3153 -0.3468
  197MOL0     N26510   9.677  10.229   4.216  0.6418 -0.4262  0.3251
  197MOL0     N26511   9.573  10.296   4.180  0.2825  0.2719 -0.5303
  197MOL0     C26512   8.272  10.171   4.415 -0.3712  0.6435 -0.4559
  197MOL0     C26513   8.147  10.102   4.421  0.7146 -1.1082  0.1805
  197MOL0     C26514   7.816   9.861   4.634 -0.6236 -0.3725  0.2240
  197MOL0     C26515   7.720   9.963   4.667 -0.4806  0.7119 -0.1531
  197MOL0     C26516   7.595   9.918   4.718  0.2962  0.1263 -0.3033
  197MOL0     C26517   7.560   9.785   4.732  0.4829 -0.3936  0.2942
  197MOL0     O26518   7.433   9.738   4.763 -0.2432 -0.0982  0.8188
  197MOL0     C26519   7.324   9.832   4.771 -0.3691 -0.6506 -0.1203
  197MOL0     C26520   7.194   9.764   4.791  1.1451 -0.4253  0.3278
  197MOL0     C26521   7.127   9.714   4.664 -0.4821  0.1369  0.0070
  197MOL0     C26522   7.024   9.808   4.593 -0.0283 -0.4396  0.2630
  197MOL0     C26523   7.078   9.914   4.502 -0.3630  0.2881  0.4210
  197MOL0     C26524   7.133  10.000   4.432  0.1769  0.4831  0.4257
  197MOL0     C26525   7.652   9.693   4.689 -0.4557  0.5447  0.6356
  197MOL0     C26526   7.782   9.721   4.636 -0.4357 -0.3580 -0.1931
  197MOL0     C26527   7.873   9.608   4.601 -0.2613  0.0379  0.6580
  197MOL0     H26528   8.076  10.122   4.743 -1.0250 -1.3282 -1.3409
  197MOL0     H26529   8.310  10.236   4.751 -2.4652  3.8716 -0.1096
  197MOL0     H26530   8.507  10.303   4.321 -1.8206  0.1148  0.3808
  197MOL0     H26531   8.439  10.436   4.410 -0.5919 -0.4045  1.5174
  197MOL0     H26532   8.627  10.462   4.554  0.2652  0.2165 -1.0557
  197MOL0     H26533   8.661  10.503   4.389  0.0290  0.6980  1.8136
  197MOL0     H26534   8.741  10.244   4.371 -1.0333  0.0789  0.0749
  197MOL0     H26535   8.777  10.275   4.539 -0.3905 -1.8145 -0.9036
  197MOL0     H26536   8.864  10.468   4.316  1.5728 -1.8513 -2.0257
  197MOL0     H26537   8.902  10.494   4.470  2.8652  0.3870 -1.7162
  197MOL0     H26538   9.032  10.279   4.471 -3.5988  1.6376  0.8361
  197MOL0     H26539   9.020  10.274   4.292  3.0056  0.0752 -0.8179
  197MOL0     H26540   9.131  10.484   4.270  2.2442 -0.4935 -0.9427
  197MOL0     H26541   9.143  10.503   4.447  0.7035  0.6681  0.0193
  197MOL0     H26542   9.240  10.251   4.308 -0.9217  0.3659  0.3234
  197MOL0     H26543   9.302  10.311   4.473  1.5195  2.7954  0.2300
  197MOL0     H26544   9.345  10.431   4.203  0.6485  4.2042  0.1959
  197MOL0     H26545   9.382  10.502   4.365 -0.7070 -1.0409  1.1194
  197MOL0     H26546   9.565  10.352   4.502 -0.1877  1.0069 -0.7011
  197MOL0     H26547   9.880  10.243   4.457 -0.1120  0.3137  1.8082
  197MOL0     H26548   9.761  10.156   4.550  3.9891 -4.8084  1.1856
  197MOL0     H26549   9.731   9.986   4.384  0.6526 -1.2947 -3.1718
  197MOL0     H26550   9.853  10.052   4.278 -0.6767 -1.3725 -0.2289
  197MOL0     H26551   9.883   9.942   4.561 -0.6658 -2.7005 -0.5694
  197MOL0     H26552  10.022  10.035   4.492  0.7475 -2.3272 -1.3695
  197MOL0     H26553   9.899   9.790   4.353 -1.5549  1.5816 -0.0906
  197MOL0     H26554  10.030   9.784   4.477 -1.1100  0.9887  2.4244
  197MOL0     H26555  10.272   9.855   4.140 -0.4370  2.9492 -0.1658
  197MOL0     H26556  10.521   9.808   4.208 -0.5831  0.9984 -3.4599
  197MOL0     H26557  10.843   9.683   4.611  2.9226 -0.4245 -1.5338
  197MOL0     H26558  11.078   9.741   4.662 -3.7221 -2.3762 -3.1838
  197MOL0     H26559  11.301   9.950   4.889 -3.2184  3.3021  0.6951
  197MOL0     H26560  11.192   9.815   4.858  0.3369 -0.7685 -0.0534
  197MOL0     H26561  11.275   9.827   4.610  0.6088  2.7079 -0.6425
  197MOL0     H26562  11.416   9.915   4.673  1.7214 -0.7679  3.1324
  197MOL0     H26563  11.346   9.649   4.784 -0.8434  0.3052 -0.7505
  197MOL0     H26564  11.446   9.687   4.640 -0.1289  1.4649 -0.2173
  197MOL0     H26565  11.487   9.760   4.941 -2.4349 -1.3558 -1.5818
  197MOL0     H26566  11.562   9.861   4.818 -0.3251 -0.0574  2.3822
  197MOL0     H26567  11.722   9.683   4.889  1.9190 -1.6684 -2.3081
  197MOL0     H26568  11.679   9.668   4.722 -2.5175 -1.3840 -1.8393
  197MOL0     H26569  11.624   9.498   4.971 -0.4842  0.8584  0.3601
  197MOL0     H26570  11.498   9.487   4.851 -0.9568 -1.1988  4.0545
  197MOL0     H26571  11.803   9.435   4.811  1.2896  0.1776 -3.7428
  197MOL0     H26572  11.683   9.433   4.687 -1.4127 -1.1487 -0.3036
  197MOL0     H26573  11.548   9.247   4.838 -0.9075  1.5698 -2.9642
  197MOL0     H26574  11.676   9.200   4.740 -2.2541 -2.2084  0.1727
  197MOL0     H26575  10.965  10.148   4.734  4.2203 -0.3254 -1.2374
  197MOL0     H26576  10.729  10.092   4.650  0.5251  0.4812 -2.5468
  197MOL0     H26577  10.415   9.919   4.607 -3.8226  0.1581  0.5475
  197MOL0     H26578  10.193   9.922   4.545 -1.0869 -0.9817 -1.1805
  197MOL0     H26579   8.320  10.170   4.318  1.9347 -0.9766  0.6095
  197MOL0     H26580   8.116  10.052   4.330  2.0128  3.3295 -3.0715
  197MOL0     H26581   7.755  10.066   4.661  3.9332 -0.3994  1.9094
  197MOL0     H26582   7.530  10.004   4.732  0.7895  0.8454 -2.1612
  197MOL0     H26583   7.312   9.897   4.685 -1.1419 -2.0296 -1.1000
  197MOL0     H26584   7.337   9.891   4.862 -1.9636 -2.0387  1.0693
  197MOL0     H26585   7.124   9.827   4.847 -0.0063 -2.6806  1.5423
  197MOL0     H26586   7.223   9.675   4.847  0.6623 -2.2301 -2.1646
  197MOL0     H26587   7.069   9.623   4.686 -0.4416  0.3286  0.9421
  197MOL0     H26588   7.210   9.696   4.596 -0.5583  0.9109 -0.3054
  197MOL0     H26589   6.955   9.752   4.528 -2.1739  2.0950  0.1907
  197MOL0     H26590   6.950   9.858   4.655 -2.2192 -0.3769 -2.2141
  197MOL0     H26591   7.169  10.067   4.357  0.1051  0.1176  0.0627
  197MOL0     H26592   7.615   9.591   4.696  1.3010 -0.3763 -1.9089
  197MOL0     H26593   7.837   9.563   4.508  1.9585  1.4295 -0.9728
  197MOL0     H26594   7.964   9.656   4.563 -0.6327 -0.3527 -0.8114
  197MOL0     H26595   7.900   9.535   4.678 -0.9036 -1.0428 -0.1196
  198MOL0     O26596  11.094   3.225   7.070 -0.2608 -0.0111  0.2878
  198MOL0     C26597  11.032   3.120   7.077  0.2758 -0.5592  1.0504
  198MOL0     O26598  11.064   3.014   7.154  0.1716  0.1322  0.1780
  198MOL0     C26599  11.193   3.010   7.207  0.6814 -1.4249 -0.4756
  198MOL0     C26600  11.199   2.981   7.345 -0.7226  0.0694  0.1148
  198MOL0     C26601  11.322   2.979   7.410  0.4293 -0.0617  0.0460
  198MOL0     C26602  11.437   3.001   7.338 -0.1947  0.3687 -0.5283
  198MOL0     O26603  11.559   3.000   7.414  0.3661 -0.7007  0.1491
  198MOL0     C26604  11.683   3.026   7.336 -0.8794 -0.0194 -0.5616
  198MOL0     C26605  11.782   3.095   7.434  0.0299 -0.0506 -0.4394
  198MOL0     C26606  11.851   2.996   7.530 -0.3161 -0.1696 -0.8918
  198MOL0     C26607  11.961   3.062   7.606 -0.1194  0.2624 -0.0395
  198MOL0     C26608  12.044   2.947   7.667 -0.0565 -0.5996 -0.3385
  198MOL0     C26609  12.000   2.906   7.808 -0.0162  0.8547  0.1984
  198MOL0     C26610  12.102   2.808   7.865 -0.0422  0.0256 -0.1763
  198MOL0     C26611  12.214   2.888   7.943 -0.1402  0.4883  0.2674
  198MOL0     N26612  12.277   2.802   8.047  0.4382 -0.0580  0.1583
  198MOL0     C26613  12.239   2.681   8.103  0.8122 -1.1140 -0.7503
  198MOL0     C26614  12.321   2.663   8.204 -1.4070  0.7014 -0.9773
  198MOL0     C26615  12.299   2.546   8.303  0.0430  0.2615  0.0924
  198MOL0     C26616  12.414   2.451   8.298 -0.2125  0.5008  0.5115
  198MOL0     C26617  12.536   2.505   8.373  0.1661 -0.2228  0.0859
  198MOL0     C26618  12.655   2.425   8.330 -0.1910 -0.5755  0.1701
  198MOL0     O26619  12.667   2.302   8.397  0.6412  0.1299 -0.2766
  198MOL0     C26620  12.789   2.284   8.461  0.8767  0.1268  0.8695
  198MOL0     C26621  12.786   2.201   8.578 -0.0370  0.2315 -0.6282
  198MOL0     C26622  12.901   2.169   8.648 -0.1300  1.7274 -0.0681
  198MOL0     C26623  13.028   2.216   8.608 -0.3265  0.6921  0.0972
  198MOL0     C26624  13.146   2.175   8.681 -0.0023 -0.3116  0.1161
  198MOL0     O26625  13.267   2.185   8.619  0.5296 -0.0162  0.4747
  198MOL0     C26626  13.381   2.199   8.694  0.3576 -0.3376 -0.2031
  198MOL0     C26627  13.446   2.321   8.707  0.1055 -0.8518  0.2821
  198MOL0     C26628  13.556   2.342   8.781  0.3606  0.3098  0.3900
  198MOL0     C26629  13.616   2.235   8.854 -0.5188 -0.1861 -0.7443
  198MOL0     O26630  13.740   2.252   8.921  0.7131  0.0030  0.6395
  198MOL0     C26631  13.803   2.136   8.989  0.4285 -0.7337  0.0082
  198MOL0     C26632  13.944   2.188   9.022  0.4268  0.5282  0.2716
  198MOL0     C26633  14.014   2.103   9.131 -0.1804  0.3541  0.0025
  198MOL0     C26634  14.140   2.184   9.169 -1.0820 -0.4510  0.1128
  198MOL0     C26635  14.244   2.089   9.239  0.1650  0.3012 -0.6038
  198MOL0     C26636  14.371   2.156   9.285 -0.1360 -0.0176  1.3749
  198MOL0     C26637  14.470   2.052   9.328  0.4062  1.0058 -0.3058
  198MOL0     C26638  14.537   1.987   9.204  0.0939  0.2687 -0.3656
  198MOL0    Cl26639  14.605   2.114   9.086 -0.2886 -0.0031  0.4854
  198MOL0     C26640  13.555   2.109   8.851  0.6731  0.2028  0.3476
  198MOL0     C26641  13.433   2.095   8.769 -0.9762  0.6742 -1.4707
  198MOL0     O26642  13.130   2.134   8.799 -0.4993  0.0771  0.1562
  198MOL0     C26643  13.028   2.287   8.487  0.9617  0.6982  0.2165
  198MOL0     C26644  12.913   2.322   8.409  0.7593 -0.1886 -1.0620
  198MOL0     N26645  12.413   2.763   8.205  0.0631  0.0713  0.1632
  198MOL0     N26646  12.387   2.853   8.112  0.2333  0.9499 -0.0466
  198MOL0     C26647  11.436   3.021   7.201 -0.4318  0.2888  0.5459
  198MOL0     C26648  11.309   3.035   7.138 -0.2068 -0.2653 -0.7442
  198MOL0     C26649  10.906   3.092   6.990  0.3025 -0.7381 -0.6820
  198MOL0     C26650  10.844   2.960   6.991 -0.4137  0.4065 -0.2276
  198MOL0     C26651  10.729   2.936   6.916 -0.3019  0.8374 -0.2836
  198MOL0     C26652  10.683   3.029   6.821 -0.8709 -0.4726 -0.1883
  198MOL0     O26653  10.569   2.999   6.744 -0.3945  0.0941  0.8195
  198MOL0     C26654  10.538   2.854   6.715  0.3869 -0.1649 -1.0458
  198MOL0     C26655  10.428   2.842   6.622 -0.4291  0.2516 -0.1141
  198MOL0     C26656  10.431   2.946   6.509  0.8008  0.1587 -0.4944
  198MOL0     C26657  10.354   2.913   6.375  0.5041  0.7246  0.2225
  198MOL0     C26658  10.431   2.813   6.304 -0.1687 -0.8783  0.4848
  198MOL0     C26659  10.466   2.728   6.226  1.0082 -0.3936 -0.0748
  198MOL0     C26660  10.741   3.162   6.821  0.2133  0.3770 -0.7673
  198MOL0     C26661  10.849   3.195   6.904  0.3493 -1.0527  0.0458
  198MOL0     C26662  10.898   3.341   6.898  0.3824 -0.2521 -0.5710
  198MOL0     H26663  11.114   2.963   7.410  0.9236 -1.8319  1.8912
  198MOL0     H26664  11.343   2.966   7.516  2.4631 -3.5264 -0.6254
  198MOL0     H26665  11.717   2.933   7.290  0.8581  1.7220 -3.0177
  198MOL0     H26666  11.680   3.098   7.254 -1.6553 -1.3502 -1.7386
  198MOL0     H26667  11.730   3.175   7.487 -1.8858 -1.0247 -0.7757
  198MOL0     H26668  11.857   3.143   7.370 -0.3515  2.5218  0.9164
  198MOL0     H26669  11.889   2.910   7.474  0.7008  1.8039 -3.4350
  198MOL0     H26670  11.772   2.965   7.599  0.0320 -0.8689 -0.7963
  198MOL0     H26671  12.040   3.125   7.563  1.0130  0.7837  2.5753
  198MOL0     H26672  11.915   3.125   7.683 -0.0875  2.9042 -2.0480
  198MOL0     H26673  12.045   2.855   7.608 -1.4756 -0.0013 -1.3468
  198MOL0     H26674  12.147   2.984   7.676  0.1987 -1.0816 -1.1915
  198MOL0     H26675  11.999   2.997   7.870  1.6873  0.1017  1.4236
  198MOL0     H26676  11.901   2.861   7.797  1.0450 -1.2327 -1.4488
  198MOL0     H26677  12.147   2.753   7.782  3.2931  1.3417  0.5841
  198MOL0     H26678  12.042   2.741   7.928 -3.5775  2.7241 -0.4017
  198MOL0     H26679  12.285   2.920   7.866 -1.8827  4.5693  0.1082
  198MOL0     H26680  12.162   2.976   7.982  0.5284  1.6555 -1.3431
  198MOL0     H26681  12.148   2.626   8.081 -1.1816  1.6613  0.0354
  198MOL0     H26682  12.282   2.583   8.405  1.1689 -1.4303  0.9393
  198MOL0     H26683  12.203   2.503   8.273 -0.1220  0.1644  0.7375
  198MOL0     H26684  12.391   2.352   8.338 -0.4508  0.4729  0.3093
  198MOL0     H26685  12.438   2.434   8.193  1.2398  3.9575  0.1394
  198MOL0     H26686  12.524   2.507   8.481  1.6158  0.2773  0.2583
  198MOL0     H26687  12.565   2.604   8.336  2.6552 -0.9880 -0.1914
  198MOL0     H26688  12.734   2.497   8.355 -0.3687  0.7573 -2.7614
  198MOL0     H26689  12.648   2.404   8.223  3.4694 -1.0420 -0.1167
  198MOL0     H26690  12.686   2.168   8.607 -1.3514  1.4253 -3.4735
  198MOL0     H26691  12.886   2.107   8.736  0.8665  0.0271 -1.0463
  198MOL0     H26692  13.415   2.409   8.651  1.5231 -1.1525 -1.0677
  198MOL0     H26693  13.600   2.440   8.799 -0.3032  0.9088 -1.1137
  198MOL0     H26694  13.755   2.114   9.085 -1.3898 -0.1436 -0.7121
  198MOL0     H26695  13.819   2.050   8.923 -1.5187 -0.4982 -0.8511
  198MOL0     H26696  14.004   2.191   8.931  2.4901 -3.8078  1.2511
  198MOL0     H26697  13.936   2.291   9.058  0.1057  0.4923  0.3057
  198MOL0     H26698  13.942   2.077   9.209 -0.7276 -1.8991 -1.1397
  198MOL0     H26699  14.033   2.005   9.084  0.4162  1.5144 -2.3532
  198MOL0     H26700  14.124   2.271   9.234  0.8164  0.2209 -0.2605
  198MOL0     H26701  14.195   2.221   9.082 -0.3080  1.4173  1.3182
  198MOL0     H26702  14.254   1.999   9.177 -0.2329 -1.1684  1.3365
  198MOL0     H26703  14.205   2.053   9.335  3.6338  1.4962  1.4240
  198MOL0     H26704  14.408   2.212   9.199 -1.3695 -3.7051 -1.8897
  198MOL0     H26705  14.366   2.225   9.370  0.8964  1.7308  0.0872
  198MOL0     H26706  14.412   1.975   9.379 -1.1121  2.2745 -0.0330
  198MOL0     H26707  14.542   2.106   9.390 -1.4102  2.9992  0.1645
  198MOL0     H26708  14.618   1.921   9.235 -0.2101 -0.2956 -0.7528
  198MOL0     H26709  14.463   1.922   9.158 -0.2619  1.1891 -1.1244
  198MOL0     H26710  13.607   2.025   8.896  1.8591 -0.3866 -1.9513
  198MOL0     H26711  13.390   1.996   8.758  3.4915 -1.3161 -3.6463
  198MOL0     H26712  13.124   2.330   8.459  1.6780  1.2807  3.2112
  198MOL0     H26713  12.927   2.380   8.318  3.3344 -2.4182 -2.1980
  198MOL0     H26714  11.524   3.036   7.139  0.4921 -1.9568  1.2293
  198MOL0     H26715  11.297   3.067   7.035 -2.0264 -1.0831 -0.8222
  198MOL0     H26716  10.889   2.885   7.056  0.0056  0.3310 -0.5964
  198MOL0     H26717  10.694   2.833   6.925  4.6881 -1.0811  0.6667
  198MOL0     H26718  10.510   2.813   6.812 -3.0372 -3.2812 -3.0778
  198MOL0     H26719  10.629   2.809   6.673  1.1307  0.5694 -0.2616
  198MOL0     H26720  10.338   2.856   6.683 -1.1968  0.6650 -1.3096
  198MOL0     H26721  10.428   2.739   6.586  0.1894  0.4790 -0.7598
  198MOL0     H26722  10.534   2.970   6.481  0.8641 -1.8302 -2.2634
  198MOL0     H26723  10.373   3.029   6.550  0.3890 -0.2901 -0.1503
  198MOL0     H26724  10.250   2.894   6.403  0.9018  3.9990  5.0763
  198MOL0     H26725  10.372   3.002   6.314  5.7690  1.0833  1.7982
  198MOL0     H26726  10.489   2.654   6.152 -4.6671 -2.0019 -0.7034
  198MOL0     H26727  10.701   3.234   6.750 -0.2981  0.9733  0.1072
  198MOL0     H26728  10.837   3.400   6.828 -1.1188  0.6208  1.3988
  198MOL0     H26729  10.894   3.391   6.995  0.9031 -1.5898  0.1699
  198MOL0     H26730  11.002   3.341   6.864  0.2711  0.2382 -0.9242
  199MOL0     O26731   9.780   6.871   0.574  0.1364 -0.2518  0.1217
  199MOL0     C26732   9.720   6.875   0.466 -1.0917  0.4391 -0.2221
  199MOL0     O26733   9.775   6.863   0.343  0.2625  0.4411  0.6778
  199MOL0     C26734   9.887   6.792   0.319 -0.0218  0.1200  1.4069
  199MOL0     C26735   9.877   6.678   0.224 -0.2655 -0.8954  0.0811
  199MOL0     C26736   9.993   6.600   0.195 -0.6270  0.1243 -1.4045
  199MOL0     C26737  10.115   6.620   0.265  0.5301 -0.4377 -0.3174
  199MOL0     O26738  10.220   6.538   0.234  0.2017  0.3064  0.3969
  199MOL0     C26739  10.358   6.582   0.225  0.1873  0.3036 -0.3882
  199MOL0     C26740  10.435   6.466   0.183 -0.0229  0.3201  0.9485
  199MOL0     C26741  10.582   6.491   0.158  0.5021 -0.6722 -0.2504
  199MOL0     C26742  10.653   6.374   0.090  0.3753 -0.4007  0.6340
  199MOL0     C26743  10.715   6.280   0.186 -0.4235 -0.0188 -0.0013
  199MOL0     C26744  10.783   6.159   0.122  0.0019 -0.0447  0.5644
  199MOL0     C26745  10.841   6.074   0.230  0.1188 -1.2611  0.8562
  199MOL0     C26746  10.935   5.966   0.191 -0.7236  0.1805  0.0607
  199MOL0     N26747  11.005   5.895   0.304  1.0707 -0.5026  0.0640
  199MOL0     C26748  11.141   5.860   0.319 -0.9116 -0.0344 -0.5483
  199MOL0     C26749  11.146   5.766   0.417  0.6032 -0.0030  0.3318
  199MOL0     C26750  11.262   5.695   0.493  0.4647 -0.0582 -0.2423
  199MOL0     C26751  11.401   5.743   0.465 -0.6351 -0.0633  0.1792
  199MOL0     C26752  11.437   5.878   0.525  0.4051  1.0066  0.2970
  199MOL0     C26753  11.583   5.921   0.511  0.4170  0.4578 -0.3977
  199MOL0     O26754  11.601   5.974   0.378  0.3703  0.3388  0.6686
  199MOL0     C26755  11.723   6.021   0.334 -0.2221 -0.8444 -0.2920
  199MOL0     C26756  11.734   6.079   0.204 -0.0569  0.4547  0.6438
  199MOL0     C26757  11.854   6.140   0.164  0.9204 -0.6099  0.4803
  199MOL0     C26758  11.969   6.144   0.247  0.4293 -0.3126 -0.3389
  199MOL0     C26759  12.092   6.211   0.192  0.5049 -0.3916 -0.2829
  199MOL0     O26760  12.201   6.167   0.255  0.2592  0.1797 -0.1914
  199MOL0     C26761  12.325   6.220   0.225 -0.5961  0.3285 -0.1479
  199MOL0     C26762  12.379   6.228   0.099  0.6119  0.1391  0.4334
  199MOL0     C26763  12.510   6.287   0.084  0.6725  1.2719 -0.7544
  199MOL0     C26764  12.587   6.341   0.189  0.3552 -0.2268 -1.0043
  199MOL0     O26765  12.706   6.394   0.145 -0.4134 -0.7460  0.1560
  199MOL0     C26766  12.795   6.412   0.253  0.2538 -0.3098  0.3467
  199MOL0     C26767  12.792   6.554   0.313  1.0418 -0.2740  0.3039
  199MOL0     C26768  12.910   6.575   0.399 -0.8558 -0.8014 -0.0846
  199MOL0     C26769  12.892   6.705   0.467  0.5767 -1.2101 -1.1417
  199MOL0     C26770  13.018   6.736   0.553  0.5976 -0.4205 -0.1156
  199MOL0     C26771  13.004   6.866   0.649 -0.4553 -0.2096  0.7157
  199MOL0     C26772  13.141   6.904   0.711 -0.2549 -0.0992  0.2695
  199MOL0     C26773  13.142   7.052   0.765  0.3439 -0.3895 -0.4999
  199MOL0    Cl26774  13.113   7.163   0.631  0.1471 -0.3209 -0.2179
  199MOL0     C26775  12.526   6.331   0.318  0.4871 -1.1503 -0.5001
  199MOL0     C26776  12.396   6.275   0.332 -0.9883  0.1856  0.0382
  199MOL0     O26777  12.082   6.278   0.087 -0.3932  0.2472  0.0821
  199MOL0     C26778  11.956   6.080   0.366 -0.3167  0.2563 -0.0417
  199MOL0     C26779  11.836   6.017   0.410  0.4486  0.9714 -0.2956
  199MOL0     N26780  11.016   5.745   0.460  0.2345 -0.7075 -0.3213
  199MOL0     N26781  10.930   5.817   0.384 -0.8988 -0.0896 -0.3729
  199MOL0     C26782  10.118   6.713   0.367  0.0990 -0.3091 -0.4656
  199MOL0     C26783  10.006   6.796   0.387 -0.3168 -0.0089  0.4405
  199MOL0     C26784   9.574   6.908   0.491  0.0339 -0.4626  0.4824
  199MOL0     C26785   9.479   6.813   0.513  0.2966  0.4547  0.0737
  199MOL0     C26786   9.340   6.842   0.503  0.0131 -0.9571 -0.6131
  199MOL0     C26787   9.293   6.970   0.478 -0.8279  0.3008  0.0741
  199MOL0     O26788   9.162   7.011   0.491  0.5369 -0.6144 -0.6805
  199MOL0     C26789   9.058   6.924   0.536  0.0714  0.5943  0.2396
  199MOL0     C26790   8.927   6.996   0.578 -0.5644  0.6510  0.2497
  199MOL0     C26791   8.937   7.075   0.715  1.2526 -0.0992  0.0956
  199MOL0     C26792   8.798   7.114   0.759  0.7325  0.8934  0.0688
  199MOL0     C26793   8.702   6.996   0.774 -0.5290 -0.5020  0.5736
  199MOL0     C26794   8.630   6.906   0.785  0.5696 -0.1389  0.2563
  199MOL0     C26795   9.390   7.065   0.452 -0.6728  0.3842 -0.5660
  199MOL0     C26796   9.528   7.035   0.455  1.3465 -1.2711 -0.5064
  199MOL0     C26797   9.611   7.147   0.399  0.2285 -0.3545  0.4987
  199MOL0     H26798   9.784   6.652   0.174 -2.6995 -0.6840  4.0505
  199MOL0     H26799   9.991   6.513   0.129 -2.9923 -0.8377 -0.1694
  199MOL0     H26800  10.356   6.661   0.150  1.7922  1.7669  1.0217
  199MOL0     H26801  10.399   6.611   0.322  2.9377 -0.8914 -1.0759
  199MOL0     H26802  10.397   6.420   0.092  2.5245 -0.8068  0.3764
  199MOL0     H26803  10.429   6.395   0.266 -0.1471 -0.8773 -0.0579
  199MOL0     H26804  10.627   6.508   0.257 -2.0440  0.9734  0.7139
  199MOL0     H26805  10.593   6.581   0.098 -2.1539 -2.2174 -3.3472
  199MOL0     H26806  10.583   6.329   0.018 -0.0373  0.1508  0.6850
  199MOL0     H26807  10.734   6.413   0.027 -2.2258 -1.9836 -4.2541
  199MOL0     H26808  10.782   6.340   0.249 -1.6422  2.0141 -0.5318
  199MOL0     H26809  10.637   6.231   0.245  1.1970 -3.0001 -0.1544
  199MOL0     H26810  10.712   6.103   0.061  1.5194 -0.5549 -0.7994
  199MOL0     H26811  10.870   6.185   0.061  2.0681 -0.6935  3.0615
  199MOL0     H26812  10.757   6.030   0.285 -0.7658 -1.3705 -0.5414
  199MOL0     H26813  10.884   6.135   0.310  1.4483  1.0635 -1.4881
  199MOL0     H26814  10.872   5.893   0.139  1.1423 -2.2705  1.0371
  199MOL0     H26815  11.015   6.010   0.131  0.2387  0.9332  1.8020
  199MOL0     H26816  11.212   5.903   0.250 -0.1868 -1.2539 -0.5845
  199MOL0     H26817  11.240   5.711   0.599 -0.6231  1.5339 -0.6699
  199MOL0     H26818  11.263   5.588   0.468  0.1229 -0.1010 -0.0792
  199MOL0     H26819  11.473   5.671   0.504 -0.8049  0.2075  1.0247
  199MOL0     H26820  11.412   5.754   0.356 -2.3349  1.8435  0.1427
  199MOL0     H26821  11.418   5.871   0.632  0.6798  2.5648  0.4656
  199MOL0     H26822  11.369   5.954   0.484 -0.1794 -0.6458 -2.0017
  199MOL0     H26823  11.647   5.841   0.547  2.4487  2.3007  0.3074
  199MOL0     H26824  11.594   5.993   0.593 -1.9011  1.5774 -0.9595
  199MOL0     H26825  11.641   6.075   0.147  0.1856  3.1157 -0.0678
  199MOL0     H26826  11.861   6.196   0.072  1.0665 -1.1848  0.1393
  199MOL0     H26827  12.330   6.178   0.015 -0.1032 -0.4092  1.1616
  199MOL0     H26828  12.550   6.284  -0.017  0.0138 -1.9140 -1.0300
  199MOL0     H26829  12.792   6.332   0.327 -1.5666 -0.1807  0.4555
  199MOL0     H26830  12.896   6.411   0.209 -0.1579  0.6588 -0.6846
  199MOL0     H26831  12.794   6.630   0.234  2.0009  0.2140  0.7777
  199MOL0     H26832  12.700   6.573   0.369  2.4329  2.4461  1.8712
  199MOL0     H26833  12.922   6.496   0.474  0.0615 -0.0921  0.5505
  199MOL0     H26834  13.004   6.582   0.342 -1.7979  0.9592 -1.5308
  199MOL0     H26835  12.805   6.704   0.534  1.7478  0.6682  0.4974
  199MOL0     H26836  12.868   6.783   0.394  1.7008  1.3139  1.0145
  199MOL0     H26837  13.095   6.765   0.480  0.1417  0.3496 -0.3068
  199MOL0     H26838  13.050   6.648   0.608 -0.0269 -0.5669  0.0096
  199MOL0     H26839  12.962   6.941   0.581 -0.1366 -1.7382 -1.2632
  199MOL0     H26840  12.932   6.845   0.728 -0.9219 -6.9049 -0.8677
  199MOL0     H26841  13.213   6.911   0.629 -2.0302  0.1266 -1.3430
  199MOL0     H26842  13.163   6.837   0.794 -3.5596 -0.1067  1.2654
  199MOL0     H26843  13.062   7.079   0.834 -0.7772 -1.3949 -1.3739
  199MOL0     H26844  13.241   7.076   0.805  1.1843  3.2582 -4.0584
  199MOL0     H26845  12.575   6.342   0.414 -0.3762 -2.5083  0.1199
  199MOL0     H26846  12.354   6.267   0.431  0.6858  0.5631  0.8250
  199MOL0     H26847  12.041   6.078   0.434  0.1939 -0.7718 -0.6831
  199MOL0     H26848  11.831   5.959   0.502 -3.2776  1.0288 -0.3043
  199MOL0     H26849  10.205   6.718   0.431 -1.3669 -0.4594  1.6599
  199MOL0     H26850  10.017   6.850   0.480  1.9163 -2.2923  1.6119
  199MOL0     H26851   9.504   6.709   0.530  1.5663  0.5999 -0.7699
  199MOL0     H26852   9.277   6.754   0.510 -0.1994 -0.7502  0.3008
  199MOL0     H26853   9.093   6.863   0.620 -1.0314  2.0119  1.8119
  199MOL0     H26854   9.035   6.863   0.449 -2.4543  1.5735  0.1415
  199MOL0     H26855   8.855   6.915   0.591 -2.3541  1.9970 -0.7454
  199MOL0     H26856   8.898   7.061   0.495 -0.9304 -0.8231 -0.8200
  199MOL0     H26857   9.008   7.158   0.706 -1.0219  2.0592  0.8607
  199MOL0     H26858   8.979   7.007   0.789  1.0728 -0.1753  0.1302
  199MOL0     H26859   8.815   7.165   0.855  2.3224  1.2611 -0.3800
  199MOL0     H26860   8.765   7.188   0.686  0.3640  1.5799  0.9157
  199MOL0     H26861   8.566   6.821   0.801 -1.3169  1.4277  1.4830
  199MOL0     H26862   9.355   7.166   0.437  0.1779  0.5118 -1.8317
  199MOL0     H26863   9.701   7.162   0.460  1.8692  2.0046 -2.2561
  199MOL0     H26864   9.641   7.115   0.299 -0.0942 -2.9016  1.1404
  199MOL0     H26865   9.563   7.245   0.400 -1.7832 -1.2619 -1.1810
  200MOL0     O26866   8.597  11.216   2.222 -0.0112 -0.0208 -0.2441
  200MOL0     C26867   8.578  11.333   2.175  0.4441  0.5486  0.1707
  200MOL0     O26868   8.672  11.413   2.116  0.2552  0.5569  0.2184
  200MOL0     C26869   8.794  11.361   2.095 -0.1337 -0.0912 -0.3844
  200MOL0     C26870   8.813  11.234   2.029 -0.2363  0.1928  0.3886
  200MOL0     C26871   8.938  11.214   1.971 -0.2028  0.4925  0.9638
  200MOL0     C26872   9.046  11.294   1.999  0.2671 -0.6554 -0.0977
  200MOL0     O26873   9.169  11.262   1.933  0.3320 -0.4255  0.5896
  200MOL0     C26874   9.285  11.348   1.931  0.0260  0.6660  0.1220
  200MOL0     C26875   9.361  11.345   2.062 -0.8689 -0.1801 -0.5193
  200MOL0     C26876   9.464  11.455   2.089  0.5158  0.0087 -0.0144
  200MOL0     C26877   9.585  11.425   1.994 -0.0096  0.9740 -0.0488
  200MOL0     C26878   9.704  11.516   2.021  0.8777 -0.6161  0.2243
  200MOL0     C26879   9.784  11.467   2.143  0.0225 -0.5447 -0.4918
  200MOL0     C26880   9.872  11.591   2.183 -0.6497 -0.2679  0.8753
  200MOL0     C26881   9.944  11.584   2.312  0.3470  0.3435 -0.3265
  200MOL0     N26882  10.077  11.526   2.316 -0.3124 -0.0148 -0.0327
  200MOL0     C26883  10.107  11.396   2.332 -0.3495  0.2351  0.8355
  200MOL0     C26884  10.242  11.390   2.315 -0.1256 -0.5171  0.3363
  200MOL0     C26885  10.336  11.277   2.329 -0.1113  0.1846 -0.0527
  200MOL0     C26886  10.306  11.191   2.204  0.1643 -0.0429 -0.1978
  200MOL0     C26887  10.406  11.224   2.093 -0.7967 -0.8441  0.2869
  200MOL0     C26888  10.542  11.160   2.130 -0.3743 -0.4725  0.2031
  200MOL0     O26889  10.531  11.024   2.088  0.2284  0.8773 -0.3755
  200MOL0     C26890  10.652  10.951   2.096  1.0262  0.1825  0.6527
  200MOL0     C26891  10.769  10.999   2.138  0.4145 -0.0535  0.3937
  200MOL0     C26892  10.881  10.916   2.127 -0.2844 -0.5879 -0.2607
  200MOL0     C26893  10.877  10.783   2.081  0.4881 -0.1516 -1.4408
  200MOL0     C26894  11.005  10.698   2.101  0.0495 -0.2239  0.7276
  200MOL0     O26895  11.121  10.748   2.135 -0.3063 -0.0379 -0.6275
  200MOL0     C26896  11.234  10.673   2.137  0.4058  0.2675 -0.3886
  200MOL0     C26897  11.315  10.696   2.031  0.1496 -0.2558  0.7525
  200MOL0     C26898  11.445  10.632   2.021  0.2011 -0.9197  0.4121
  200MOL0     C26899  11.479  10.537   2.123 -0.1236 -0.2911  0.0101
  200MOL0     O26900  11.603  10.467   2.116  0.5829  0.8647  0.4912
  200MOL0     C26901  11.652  10.389   2.230  0.1870 -0.2762  1.1773
  200MOL0     C26902  11.794  10.357   2.208 -0.5109  0.8366  0.0665
  200MOL0     C26903  11.848  10.279   2.336  0.9275  0.5908  0.0598
  200MOL0     C26904  11.992  10.245   2.317  0.4410  0.5458  0.1071
  200MOL0     C26905  12.044  10.152   2.423  0.1878  0.7340  0.5691
  200MOL0     C26906  12.172  10.080   2.375  0.1501  0.7097 -0.2410
  200MOL0     C26907  12.260  10.037   2.487 -0.8090  0.1132 -0.6755
  200MOL0     C26908  12.346   9.907   2.461  0.2449 -0.6407 -0.0119
  200MOL0    Cl26909  12.404   9.907   2.287  0.0338 -0.1102 -0.1952
  200MOL0     C26910  11.395  10.524   2.227  0.5245  0.1618 -1.1084
  200MOL0     C26911  11.271  10.581   2.240  0.1297  0.7303 -0.2370
  200MOL0     O26912  10.985  10.576   2.067  0.6308  0.0334 -0.9238
  200MOL0     C26913  10.757  10.751   2.024  1.2009  0.0367 -0.0816
  200MOL0     C26914  10.644  10.827   2.037 -1.1791  0.5347  0.9177
  200MOL0     N26915  10.288  11.522   2.278 -0.0336  0.2286 -0.4606
  200MOL0     N26916  10.185  11.604   2.279 -0.1555 -0.2490 -0.6504
  200MOL0     C26917   9.028  11.407   2.081 -0.3233 -0.7249 -0.0772
  200MOL0     C26918   8.903  11.448   2.119  0.6102 -0.9837  0.7082
  200MOL0     C26919   8.437  11.387   2.208  0.3760  0.5466  0.0296
  200MOL0     C26920   8.391  11.493   2.127  0.8752 -0.1873 -0.5393
  200MOL0     C26921   8.268  11.555   2.149  0.3797  0.0446  0.1714
  200MOL0     C26922   8.180  11.504   2.245  0.0930  0.5850  0.5887
  200MOL0     O26923   8.048  11.553   2.254  0.4434 -0.8619  0.1260
  200MOL0     C26924   7.937  11.468   2.270  0.2754 -0.1834 -0.4113
  200MOL0     C26925   7.810  11.556   2.264  0.7031  0.0832 -0.1203
  200MOL0     C26926   7.810  11.665   2.356 -0.1933  0.4794 -0.8841
  200MOL0     C26927   7.678  11.748   2.346 -1.2427  0.4830  0.9875
  200MOL0     C26928   7.579  11.679   2.416 -0.6175  0.1778 -0.2306
  200MOL0     C26929   7.497  11.622   2.486 -1.0623  0.5575  0.4995
  200MOL0     C26930   8.216  11.390   2.315  0.6454  0.2147  0.7990
  200MOL0     C26931   8.351  11.340   2.307 -0.1904 -0.6815 -0.1489
  200MOL0     C26932   8.386  11.224   2.391  0.7908  0.1350  0.2414
  200MOL0     H26933   8.728  11.167   2.021 -0.0449  0.0930 -0.9973
  200MOL0     H26934   8.950  11.124   1.912 -0.0203  0.4948  0.9958
  200MOL0     H26935   9.346  11.305   1.852 -1.2966  0.4692 -0.8291
  200MOL0     H26936   9.259  11.449   1.899  2.5152  1.1426 -0.5771
  200MOL0     H26937   9.420  11.253   2.062 -1.0020 -0.2672 -0.1896
  200MOL0     H26938   9.289  11.338   2.144 -2.1534 -2.1961 -1.7421
  200MOL0     H26939   9.487  11.448   2.196 -0.0942 -0.5926  0.0790
  200MOL0     H26940   9.429  11.555   2.063  1.7689  0.8754  1.4157
  200MOL0     H26941   9.634  11.330   2.016  6.0051  3.5039 -0.6133
  200MOL0     H26942   9.553  11.427   1.889 -0.0217 -0.1734 -0.0743
  200MOL0     H26943   9.784  11.519   1.946  2.3831 -1.2168  1.7316
  200MOL0     H26944   9.676  11.620   2.036  0.3483 -0.7834  0.4313
  200MOL0     H26945   9.718  11.443   2.227  0.1567 -1.6171 -0.6860
  200MOL0     H26946   9.848  11.381   2.124 -0.1399 -0.5083 -1.2513
  200MOL0     H26947   9.821  11.688   2.184  1.9347  1.1776  0.9001
  200MOL0     H26948   9.951  11.605   2.108 -3.0704 -2.1420 -2.2654
  200MOL0     H26949   9.954  11.685   2.354 -1.0672  0.0716  0.7306
  200MOL0     H26950   9.881  11.520   2.373 -1.9449  0.2714 -2.5793
  200MOL0     H26951  10.049  11.312   2.369 -0.3207 -0.5009 -0.7202
  200MOL0     H26952  10.436  11.319   2.341 -0.1459 -0.3140  2.3776
  200MOL0     H26953  10.318  11.205   2.409  3.0953  0.5779  1.1368
  200MOL0     H26954  10.316  11.084   2.227  0.1996  0.2528  1.1965
  200MOL0     H26955  10.207  11.211   2.162  1.2712  0.4419 -2.7956
  200MOL0     H26956  10.424  11.332   2.093 -0.0652 -0.9581  1.0705
  200MOL0     H26957  10.380  11.192   1.991  0.4251  0.7281 -0.5576
  200MOL0     H26958  10.573  11.166   2.235  1.8291  0.5619 -0.4392
  200MOL0     H26959  10.613  11.210   2.064 -0.4244  0.2394  0.6800
  200MOL0     H26960  10.790  11.097   2.178 -0.7008  0.7856 -0.9666
  200MOL0     H26961  10.979  10.959   2.145  0.7870 -3.3895  1.0775
  200MOL0     H26962  11.295  10.769   1.953  1.9666  1.7104  2.0352
  200MOL0     H26963  11.507  10.659   1.936  0.0310 -0.0200  0.5674
  200MOL0     H26964  11.659  10.444   2.324  0.4745  0.2064  0.8799
  200MOL0     H26965  11.586  10.304   2.247 -0.8555 -0.0745 -1.3585
  200MOL0     H26966  11.806  10.288   2.124 -1.3884 -0.8331  1.2620
  200MOL0     H26967  11.866  10.438   2.195  0.6570 -0.0525  0.8115
  200MOL0     H26968  11.834  10.327   2.434  0.9428  0.6079  0.0538
  200MOL0     H26969  11.796  10.183   2.329 -0.5527  1.2470  1.3505
  200MOL0     H26970  12.055  10.333   2.330 -0.8351  1.1269  3.4056
  200MOL0     H26971  12.011  10.208   2.216 -3.9978 -0.2531 -0.6454
  200MOL0     H26972  11.964  10.078   2.432 -1.4075  2.3211  0.1178
  200MOL0     H26973  12.051  10.203   2.520  0.8764 -2.3138  2.2360
  200MOL0     H26974  12.135   9.994   2.318 -1.6139  0.8882  0.5762
  200MOL0     H26975  12.228  10.147   2.308 -1.3887  0.4540 -1.8604
  200MOL0     H26976  12.213  10.021   2.584  1.2216 -2.0887  0.0474
  200MOL0     H26977  12.337  10.111   2.505  0.8348 -1.2964 -1.5959
  200MOL0     H26978  12.432   9.890   2.527  1.4443  4.6117  0.1811
  200MOL0     H26979  12.275   9.823   2.461 -0.4535 -0.0906  1.4652
  200MOL0     H26980  11.427  10.465   2.312 -2.9825 -0.9741 -0.3823
  200MOL0     H26981  11.205  10.558   2.324  1.1019 -1.2165  0.0303
  200MOL0     H26982  10.732  10.655   1.980 -1.2795 -0.7838  2.7432
  200MOL0     H26983  10.560  10.806   1.971  0.8823 -1.6750 -1.2117
  200MOL0     H26984   9.106  11.478   2.107  1.4970 -2.1038 -1.4393
  200MOL0     H26985   8.887  11.545   2.166  0.3074 -1.6124  1.9157
  200MOL0     H26986   8.453  11.526   2.044  3.0172 -3.4148 -0.4484
  200MOL0     H26987   8.255  11.640   2.083  3.6437 -0.1622 -0.8827
  200MOL0     H26988   7.934  11.426   2.371 -0.0291  2.1829  0.6262
  200MOL0     H26989   7.949  11.397   2.187  0.3588  2.0895 -2.4333
  200MOL0     H26990   7.719  11.498   2.282  1.0158 -0.0667  1.0361
  200MOL0     H26991   7.799  11.595   2.162 -0.1485  0.2381  0.0243
  200MOL0     H26992   7.879  11.749   2.340 -1.4755  1.9770  0.9834
  200MOL0     H26993   7.821  11.624   2.457 -2.3526  0.4259 -0.6209
  200MOL0     H26994   7.691  11.848   2.388 -4.6429  0.6873  1.8614
  200MOL0     H26995   7.641  11.756   2.243  0.1699 -4.3999 -0.1698
  200MOL0     H26996   7.423  11.561   2.534 -0.1033 -0.1627  1.0788
  200MOL0     H26997   8.140  11.339   2.374 -0.5925  1.3805  0.2534
  200MOL0     H26998   8.488  11.223   2.431 -0.3215 -0.7940  3.3267
  200MOL0     H26999   8.320  11.223   2.478  2.0574 -1.4938  1.2358
  200MOL0     H27000   8.361  11.133   2.337 -0.4666  1.2472 -1.1563
  201MOL0     O27001   3.193   3.274   2.472 -0.4621 -0.0837 -0.1900
  201MOL0     C27002   3.182   3.267   2.596 -0.0947 -1.0234 -0.0658
  201MOL0     O27003   3.284   3.284   2.685 -0.0579 -0.6603 -0.0142
  201MOL0     C27004   3.403   3.339   2.649  0.3733 -0.3977  0.4220
  201MOL0     C27005   3.516   3.277   2.706 -0.4590  0.2324 -0.3383
  201MOL0     C27006   3.647   3.324   2.691 -0.2203 -0.8456 -0.3659
  201MOL0     C27007   3.665   3.454   2.627 -0.0586  0.4704  0.1005
  201MOL0     O27008   3.784   3.518   2.638  0.6344 -0.8598 -0.0981
  201MOL0     C27009   3.880   3.476   2.540 -0.2051  0.5256  0.4032
  201MOL0     C27010   4.031   3.494   2.603 -0.0867 -0.6013 -0.6911
  201MOL0     C27011   4.043   3.434   2.745 -0.1308  0.0039  0.1683
  201MOL0     C27012   4.191   3.426   2.775 -0.4401  0.7979 -0.4015
  201MOL0     C27013   4.199   3.349   2.905  0.5092 -0.1839 -0.9307
  201MOL0     C27014   4.342   3.358   2.955 -0.4136  0.1970 -0.1052
  201MOL0     C27015   4.364   3.252   3.061 -0.1291  0.7676  0.5381
  201MOL0     C27016   4.475   3.291   3.154  0.2591  0.2189  0.4742
  201MOL0     N27017   4.550   3.189   3.231  0.8295  0.5969 -0.0731
  201MOL0     C27018   4.604   3.071   3.179  0.3319  0.5053 -0.9177
  201MOL0     C27019   4.684   3.024   3.276  0.3858 -0.7330 -0.0049
  201MOL0     C27020   4.744   2.887   3.275 -0.7035 -0.3751  1.7262
  201MOL0     C27021   4.858   2.859   3.372  0.0848  0.0456  0.0610
  201MOL0     C27022   4.971   2.962   3.376 -0.0931  0.0323  0.0427
  201MOL0     C27023   5.084   2.921   3.474  0.4051  0.7004 -0.1032
  201MOL0     O27024   5.183   2.825   3.425 -0.5022 -0.3859 -0.6325
  201MOL0     C27025   5.318   2.855   3.459 -0.8830 -1.2745 -0.3657
  201MOL0     C27026   5.390   2.927   3.357  0.5490  0.2127  0.1793
  201MOL0     C27027   5.525   2.961   3.368  0.2502  0.3834  0.1968
  201MOL0     C27028   5.585   2.937   3.491  0.5105 -0.5176 -0.0862
  201MOL0     C27029   5.724   2.975   3.508 -0.2385  0.0953 -0.7323
  201MOL0     O27030   5.791   2.911   3.602 -0.7090 -0.8028  0.4036
  201MOL0     C27031   5.928   2.930   3.629  0.2077  0.1817 -0.7956
  201MOL0     C27032   5.967   2.859   3.742  0.7977 -0.0670  0.9750
  201MOL0     C27033   6.097   2.870   3.780  0.3309 -0.4596 -0.6198
  201MOL0     C27034   6.188   2.949   3.726 -0.4659  0.9640  0.1378
  201MOL0     O27035   6.312   2.971   3.780  0.1346 -0.9299  0.1855
  201MOL0     C27036   6.364   2.909   3.904  0.9500  0.1752  0.2061
  201MOL0     C27037   6.456   2.785   3.905  0.3928  0.0336 -0.1978
  201MOL0     C27038   6.593   2.812   3.849 -0.4780  0.2285  0.4237
  201MOL0     C27039   6.594   2.829   3.700  0.4456 -0.1704  0.0961
  201MOL0     C27040   6.738   2.831   3.665  0.1065  0.4079 -0.2453
  201MOL0     C27041   6.772   2.818   3.521  0.1103 -0.3012 -0.4990
  201MOL0     C27042   6.922   2.838   3.505 -1.0289  1.1087 -0.0345
  201MOL0     C27043   6.951   2.868   3.358 -0.1390  0.9630  0.4674
  201MOL0    Cl27044   7.128   2.902   3.325  0.5639 -0.1138  0.1232
  201MOL0     C27045   6.146   3.028   3.613  0.0306  0.1624 -0.4353
  201MOL0     C27046   6.020   3.005   3.559  0.3735  0.2263 -0.3733
  201MOL0     O27047   5.755   3.074   3.447 -0.1191 -0.1112 -0.2950
  201MOL0     C27048   5.516   2.861   3.588 -0.1825  0.0263 -1.3514
  201MOL0     C27049   5.378   2.826   3.577 -0.8141  0.2812 -0.4512
  201MOL0     N27050   4.671   3.105   3.394 -0.2032  0.0007  0.0575
  201MOL0     N27051   4.582   3.197   3.363  0.2136  0.2250  0.4850
  201MOL0     C27052   3.557   3.516   2.569  0.1240 -1.1061 -0.4954
  201MOL0     C27053   3.426   3.459   2.581  0.0433  0.1654  0.0709
  201MOL0     C27054   3.052   3.223   2.652 -0.4001 -0.0107 -0.7212
  201MOL0     C27055   3.042   3.133   2.756  0.1477 -0.1558  0.4423
  201MOL0     C27056   2.927   3.088   2.820 -0.5844 -0.0952  0.1665
  201MOL0     C27057   2.806   3.139   2.775  0.6021 -0.0920 -1.1244
  201MOL0     O27058   2.682   3.115   2.826  0.6832 -0.6078  0.4629
  201MOL0     C27059   2.665   3.040   2.943  0.2867 -0.5583 -1.0983
  201MOL0     C27060   2.530   2.973   2.933 -0.5759  0.6432  1.0196
  201MOL0     C27061   2.517   2.865   3.038 -0.3639  0.4801 -0.0990
  201MOL0     C27062   2.473   2.921   3.183  0.9218  0.6930 -0.1933
  201MOL0     C27063   2.329   2.902   3.199  0.3988 -0.4745  0.1411
  201MOL0     C27064   2.209   2.891   3.216 -0.5975  0.3644 -0.4385
  201MOL0     C27065   2.811   3.223   2.665 -0.4265  0.1808  0.0447
  201MOL0     C27066   2.930   3.266   2.601  1.4197  1.0831  0.4122
  201MOL0     C27067   2.907   3.347   2.477 -0.3031  0.2640 -0.1577
  201MOL0     H27068   3.497   3.192   2.771 -3.7029  0.3014 -1.0550
  201MOL0     H27069   3.736   3.266   2.712  0.2524  0.2913  0.9035
  201MOL0     H27070   3.864   3.374   2.506 -0.7302  0.5893  0.4469
  201MOL0     H27071   3.856   3.520   2.443  1.1700 -0.8121 -0.5801
  201MOL0     H27072   4.049   3.601   2.612 -2.2999 -0.2157 -0.2711
  201MOL0     H27073   4.103   3.454   2.530 -0.0111  2.6626 -2.6258
  201MOL0     H27074   4.008   3.330   2.749  0.6339 -0.4856 -3.2372
  201MOL0     H27075   3.992   3.499   2.817 -2.0166 -0.0730 -1.0543
  201MOL0     H27076   4.239   3.370   2.695 -2.9234 -1.3849 -0.4998
  201MOL0     H27077   4.237   3.524   2.792 -1.5403  1.3650 -0.6056
  201MOL0     H27078   4.125   3.371   2.982  0.7703  2.2403 -1.2903
  201MOL0     H27079   4.188   3.242   2.882  0.7615  0.3722 -4.1695
  201MOL0     H27080   4.410   3.342   2.871 -0.2931  0.2979 -0.0258
  201MOL0     H27081   4.363   3.460   2.989  0.2596 -0.4376  1.4640
  201MOL0     H27082   4.386   3.160   3.005 -1.5414  0.8003 -0.1178
  201MOL0     H27083   4.268   3.254   3.114  0.0449 -0.2314  0.9142
  201MOL0     H27084   4.548   3.340   3.089  2.3730 -0.9409  1.8927
  201MOL0     H27085   4.425   3.364   3.219 -1.2796 -0.6818  0.3660
  201MOL0     H27086   4.594   3.036   3.076  2.6164  1.1736 -1.4151
  201MOL0     H27087   4.669   2.811   3.296 -1.9718  1.1431  2.9639
  201MOL0     H27088   4.788   2.875   3.175  0.2571 -3.9125  2.4651
  201MOL0     H27089   4.820   2.855   3.475 -0.0720  2.8101  0.1909
  201MOL0     H27090   4.907   2.764   3.348  1.0748  1.0483 -2.2154
  201MOL0     H27091   4.937   3.060   3.409  1.9076  0.6845  0.2758
  201MOL0     H27092   4.999   2.969   3.271  0.8887 -1.2763  0.1791
  201MOL0     H27093   5.046   2.875   3.566 -4.2669 -0.2931 -2.2163
  201MOL0     H27094   5.134   3.013   3.506 -1.2979  1.6653 -0.0889
  201MOL0     H27095   5.346   2.950   3.261 -1.2723  0.2122  0.9795
  201MOL0     H27096   5.575   3.021   3.293  0.4065  0.6778  0.5362
  201MOL0     H27097   5.909   2.787   3.799  3.2812 -4.5726 -1.6552
  201MOL0     H27098   6.129   2.796   3.853  0.7978  0.7001  0.3934
  201MOL0     H27099   6.414   2.993   3.954  0.7135 -0.0089  0.7565
  201MOL0     H27100   6.275   2.890   3.965  0.6376  3.9727  1.2122
  201MOL0     H27101   6.474   2.762   4.010 -3.5131  3.1104  1.3885
  201MOL0     H27102   6.411   2.697   3.858 -1.7415  0.2878  1.2559
  201MOL0     H27103   6.645   2.896   3.896 -0.1045  0.7864 -0.9541
  201MOL0     H27104   6.651   2.722   3.871  1.3933  0.4787 -2.9100
  201MOL0     H27105   6.539   2.916   3.664  0.7077 -0.3931 -0.8761
  201MOL0     H27106   6.556   2.738   3.651 -1.3237 -0.5168  1.9525
  201MOL0     H27107   6.798   2.752   3.713  1.2063  0.4435 -1.5162
  201MOL0     H27108   6.776   2.924   3.708 -0.9701 -0.6436  3.4224
  201MOL0     H27109   6.746   2.720   3.481 -2.6192 -0.0814  0.5002
  201MOL0     H27110   6.721   2.890   3.456 -0.2064  0.8372  0.9511
  201MOL0     H27111   6.981   2.747   3.520 -3.2180 -1.1551 -3.5863
  201MOL0     H27112   6.961   2.910   3.577  0.5128  0.1658  0.1333
  201MOL0     H27113   6.912   2.783   3.301 -0.0753  2.4647 -1.9485
  201MOL0     H27114   6.884   2.950   3.329 -3.1463 -0.7035  2.1253
  201MOL0     H27115   6.218   3.087   3.557 -2.7861  2.6778 -1.6846
  201MOL0     H27116   6.004   3.068   3.473 -0.0489  1.6668  0.7182
  201MOL0     H27117   5.557   2.843   3.686 -3.3148  0.3268  0.1552
  201MOL0     H27118   5.323   2.768   3.650  1.2272  0.0381  0.9824
  201MOL0     H27119   3.562   3.616   2.527  0.0195 -1.8466 -2.3519
  201MOL0     H27120   3.332   3.497   2.541  0.4380  1.2808  0.1667
  201MOL0     H27121   3.144   3.111   2.785  1.8760  2.9671 -2.5263
  201MOL0     H27122   2.933   3.018   2.903  0.4970 -1.2474 -0.8305
  201MOL0     H27123   2.657   3.097   3.037 -1.5166 -0.4758 -1.2642
  201MOL0     H27124   2.744   2.966   2.957  0.1635 -0.3793  0.9479
  201MOL0     H27125   2.519   2.908   2.846 -0.7307  1.8615  0.1107
  201MOL0     H27126   2.452   3.049   2.938  0.4453  1.7755  0.2046
  201MOL0     H27127   2.614   2.815   3.044 -1.0615 -1.0437 -0.7575
  201MOL0     H27128   2.453   2.782   3.006 -1.7974  2.3678 -2.5261
  201MOL0     H27129   2.520   2.862   3.262 -2.2398 -1.2044  0.4385
  201MOL0     H27130   2.499   3.027   3.186  3.8577  0.0278  1.7212
  201MOL0     H27131   2.106   2.886   3.246 -0.3125 -1.4130  0.3419
  201MOL0     H27132   2.713   3.259   2.635 -0.7484 -3.6374 -4.8240
  201MOL0     H27133   2.801   3.360   2.452 -0.3500 -0.2183 -0.2346
  201MOL0     H27134   2.954   3.443   2.499 -3.2680  2.0050 -0.9129
  201MOL0     H27135   2.953   3.298   2.390 -0.6226 -1.2169  0.4701
  202MOL0     O27136   6.864  10.202   5.046 -0.0295 -0.1490  0.2791
  202MOL0     C27137   6.753  10.198   5.096  1.3963  0.6734  1.2310
  202MOL0     O27138   6.722  10.171   5.225 -0.0117  0.5706  0.4009
  202MOL0     C27139   6.825  10.124   5.306 -0.1373 -1.1633  0.7821
  202MOL0     C27140   6.816  10.009   5.377 -0.3288  0.5143 -0.6104
  202MOL0     C27141   6.922   9.959   5.464  1.1724 -0.3164  0.1486
  202MOL0     C27142   7.036  10.039   5.476 -0.0324  0.4252 -0.1920
  202MOL0     O27143   7.123   9.993   5.570  0.5979 -0.3619 -0.2524
  202MOL0     C27144   7.210  10.096   5.619 -0.7372 -0.1328  0.3950
  202MOL0     C27145   7.308  10.037   5.718 -0.2061 -0.3261  0.1730
  202MOL0     C27146   7.424   9.953   5.666 -0.3311 -0.1151  0.6652
  202MOL0     C27147   7.506   9.872   5.769 -0.8104 -0.9618 -0.3682
  202MOL0     C27148   7.605   9.787   5.687  0.9824  0.1521 -0.3041
  202MOL0     C27149   7.704   9.711   5.777 -0.0908  1.3665 -0.0366
  202MOL0     C27150   7.812   9.638   5.695 -0.2879 -0.3771 -0.3239
  202MOL0     C27151   7.769   9.506   5.650  0.1837  0.7174  0.2612
  202MOL0     N27152   7.882   9.448   5.574  0.5319  0.1548 -0.1340
  202MOL0     C27153   7.886   9.423   5.441 -0.0123  0.4497 -0.4150
  202MOL0     C27154   8.009   9.358   5.430 -0.7776 -0.0319  0.3691
  202MOL0     C27155   8.070   9.302   5.306  0.4069  0.4542  0.4617
  202MOL0     C27156   8.195   9.387   5.258  0.7347  0.7047  0.8331
  202MOL0     C27157   8.253   9.333   5.123  0.5032 -0.5969 -0.5546
  202MOL0     C27158   8.384   9.408   5.096  0.1543 -0.0020  1.0978
  202MOL0     O27159   8.482   9.397   5.195  0.4505  0.2585  0.1868
  202MOL0     C27160   8.610   9.384   5.164 -0.0353  0.8190  0.1947
  202MOL0     C27161   8.695   9.314   5.250 -0.4431  0.7566  0.7064
  202MOL0     C27162   8.828   9.299   5.215 -0.5145  0.7566 -0.2533
  202MOL0     C27163   8.883   9.345   5.094 -0.6800  0.4205  0.6240
  202MOL0     C27164   9.029   9.323   5.051  1.0261  1.1393  0.3772
  202MOL0     O27165   9.096   9.230   5.124  0.1344 -0.7357 -0.0477
  202MOL0     C27166   9.229   9.209   5.116  0.1659 -0.4843 -0.2794
  202MOL0     C27167   9.289   9.178   5.239 -0.5171 -0.0536 -0.6673
  202MOL0     C27168   9.423   9.152   5.248 -0.3295  0.0539  0.8454
  202MOL0     C27169   9.506   9.172   5.133 -0.1282  0.1860 -0.6551
  202MOL0     O27170   9.646   9.159   5.128  0.2481 -1.0230  0.8002
  202MOL0     C27171   9.713   9.151   5.257  0.0291 -0.6347 -1.3305
  202MOL0     C27172   9.866   9.160   5.237  0.5382  0.1453 -0.7851
  202MOL0     C27173   9.938   9.205   5.370 -0.9843 -0.1634  0.4382
  202MOL0     C27174  10.084   9.145   5.392  0.3103  0.0958  0.2761
  202MOL0     C27175  10.197   9.243   5.419  0.8474  0.4086 -1.1268
  202MOL0     C27176  10.338   9.167   5.443  0.5654  0.2648  0.4116
  202MOL0     C27177  10.460   9.256   5.439  0.3107 -0.3051  0.6954
  202MOL0     C27178  10.582   9.197   5.367  0.5093 -0.3770  0.0916
  202MOL0    Cl27179  10.677   9.067   5.448 -0.3020 -0.4151  0.0445
  202MOL0     C27180   9.445   9.207   5.008  0.4913  0.1532  0.0456
  202MOL0     C27181   9.303   9.223   4.999  0.1994  0.3991 -0.1883
  202MOL0     O27182   9.076   9.380   4.958 -0.1440 -0.6874 -0.9979
  202MOL0     C27183   8.796   9.420   5.009  0.1579  0.4280 -0.6985
  202MOL0     C27184   8.663   9.443   5.044 -0.5736  0.4655 -0.1217
  202MOL0     N27185   8.071   9.347   5.552  0.4024 -0.5207 -1.0924
  202MOL0     N27186   7.994   9.398   5.644 -0.3193  0.3948 -0.1298
  202MOL0     C27187   7.038  10.168   5.412 -0.1718  0.1467  0.0204
  202MOL0     C27188   6.938  10.211   5.331  0.5981  0.9180 -0.0095
  202MOL0     C27189   6.642  10.192   4.992  0.5499  1.5938  0.1725
  202MOL0     C27190   6.507  10.163   5.043 -0.3748 -0.1557 -0.3197
  202MOL0     C27191   6.397  10.130   4.965  0.8734 -0.2118  0.0437
  202MOL0     C27192   6.413  10.124   4.831  0.4650 -1.1023  0.6928
  202MOL0     O27193   6.323  10.075   4.742  0.1618  0.8755 -0.0131
  202MOL0     C27194   6.192  10.039   4.793 -0.1725 -0.1711 -0.4891
  202MOL0     C27195   6.090  10.044   4.680 -0.3435 -0.5440  1.2748
  202MOL0     C27196   5.952  10.101   4.721  0.1895 -0.5132  0.3072
  202MOL0     C27197   5.846  10.090   4.604 -0.0220 -0.3421  0.1101
  202MOL0     C27198   5.778   9.959   4.584 -0.7954  0.1108 -0.0947
  202MOL0     C27199   5.717   9.852   4.563 -0.7139  0.0389  1.0593
  202MOL0     C27200   6.533  10.163   4.772  0.2991  0.1197 -0.4051
  202MOL0     C27201   6.648  10.194   4.845 -0.3952  0.0529  0.0795
  202MOL0     C27202   6.773  10.221   4.774 -0.6538 -0.0151 -0.5897
  202MOL0     H27203   6.719   9.961   5.366 -1.5674  2.7931 -0.0974
  202MOL0     H27204   6.915   9.867   5.522 -0.8942 -0.9611 -1.0361
  202MOL0     H27205   7.277  10.140   5.545 -1.0945  0.1054  0.2111
  202MOL0     H27206   7.157  10.181   5.663  0.4287  0.9485 -0.2483
  202MOL0     H27207   7.243   9.991   5.794  1.9072 -2.8865  0.5677
  202MOL0     H27208   7.356  10.123   5.767 -1.6856 -0.1748  1.4462
  202MOL0     H27209   7.509  10.012   5.630 -0.4995  0.0427  0.5277
  202MOL0     H27210   7.376   9.890   5.591 -2.0968 -0.1173  1.7621
  202MOL0     H27211   7.571   9.944   5.818 -1.9803  0.7712 -1.2555
  202MOL0     H27212   7.449   9.833   5.854  0.8580 -0.6290  0.9504
  202MOL0     H27213   7.547   9.710   5.636 -1.0719  0.8841  0.7935
  202MOL0     H27214   7.661   9.830   5.603 -1.3311  2.2243 -0.9188
  202MOL0     H27215   7.767   9.780   5.834  2.9924 -2.3945  1.5495
  202MOL0     H27216   7.656   9.644   5.849  1.0767  2.3205  1.6967
  202MOL0     H27217   7.889   9.621   5.771 -1.8074 -2.2078  0.9107
  202MOL0     H27218   7.844   9.700   5.612 -0.0963 -2.8693 -2.2318
  202MOL0     H27219   7.744   9.450   5.740 -0.8890  1.2256  0.2938
  202MOL0     H27220   7.679   9.507   5.589 -2.5736 -1.2269  3.9063
  202MOL0     H27221   7.813   9.458   5.369  0.0977 -0.5050 -1.0097
  202MOL0     H27222   8.094   9.199   5.334  0.1644  1.4373  5.1364
  202MOL0     H27223   8.004   9.307   5.219  1.4460 -3.3149 -0.7149
  202MOL0     H27224   8.167   9.491   5.241 -0.2435  0.2447 -0.5747
  202MOL0     H27225   8.272   9.390   5.335  1.2494 -0.9504  0.4204
  202MOL0     H27226   8.175   9.355   5.049 -0.2176  3.1560  1.0959
  202MOL0     H27227   8.268   9.226   5.134 -2.3092 -1.0297 -0.3083
  202MOL0     H27228   8.363   9.514   5.080 -2.4732 -0.4660  1.0500
  202MOL0     H27229   8.416   9.374   4.997  1.5150  4.1357 -0.0961
  202MOL0     H27230   8.654   9.277   5.344 -1.4175  1.2347  0.4855
  202MOL0     H27231   8.899   9.244   5.277  1.2966  1.3035 -1.7541
  202MOL0     H27232   9.238   9.169   5.334  0.7538  1.4907  0.2153
  202MOL0     H27233   9.468   9.126   5.344 -0.7792  0.0730  1.0643
  202MOL0     H27234   9.689   9.230   5.329  1.6092 -0.6180 -0.7661
  202MOL0     H27235   9.682   9.065   5.317 -1.3432  1.9347  1.9965
  202MOL0     H27236   9.901   9.060   5.212  1.8311  0.8447 -1.8791
  202MOL0     H27237   9.875   9.226   5.151 -0.2842  2.4305  0.7690
  202MOL0     H27238   9.940   9.314   5.384  2.4516 -0.2993  1.9087
  202MOL0     H27239   9.886   9.161   5.455 -1.0628 -2.4472 -0.7370
  202MOL0     H27240  10.097   9.086   5.301 -1.3657  1.5213 -0.9623
  202MOL0     H27241  10.083   9.085   5.484  1.9342  2.2006  1.7773
  202MOL0     H27242  10.175   9.301   5.509  1.2550  0.3201 -0.9682
  202MOL0     H27243  10.190   9.302   5.327 -2.5762 -3.0221 -3.4148
  202MOL0     H27244  10.333   9.100   5.529  0.5790 -1.1681 -0.6744
  202MOL0     H27245  10.341   9.102   5.355 -2.8715 -0.1760  0.4857
  202MOL0     H27246  10.485   9.292   5.539 -1.0221  1.5457  0.4334
  202MOL0     H27247  10.437   9.341   5.374  0.0746 -0.1236  1.0111
  202MOL0     H27248  10.551   9.168   5.266 -2.8511  3.5315 -0.3024
  202MOL0     H27249  10.650   9.282   5.357 -0.4350  0.4286  0.3560
  202MOL0     H27250   9.509   9.208   4.920  0.4107 -2.7483 -0.1518
  202MOL0     H27251   9.253   9.225   4.903  2.2018 -1.2145 -1.3478
  202MOL0     H27252   8.832   9.456   4.914 -1.2136 -0.4107 -1.5773
  202MOL0     H27253   8.600   9.501   4.976 -1.8591  0.5655  1.0987
  202MOL0     H27254   7.112  10.245   5.431  0.9318 -0.6778 -0.7215
  202MOL0     H27255   6.948  10.306   5.281 -0.1607 -0.0506 -2.1203
  202MOL0     H27256   6.488  10.159   5.150  2.5016  3.0448  0.4776
  202MOL0     H27257   6.304  10.094   5.009  2.9928 -2.5932  3.0032
  202MOL0     H27258   6.160  10.111   4.870  0.7448 -0.4583  0.1712
  202MOL0     H27259   6.187   9.940   4.839 -0.3522  0.5064  1.0228
  202MOL0     H27260   6.066   9.939   4.661  0.9265 -0.6002 -0.2872
  202MOL0     H27261   6.126  10.097   4.591 -1.1563 -0.8270  0.7685
  202MOL0     H27262   5.960  10.207   4.747  0.1615 -0.5093  0.3004
  202MOL0     H27263   5.902  10.051   4.804  1.4456 -0.8529  0.8758
  202MOL0     H27264   5.765  10.159   4.627 -0.2865 -0.5013 -0.3395
  202MOL0     H27265   5.887  10.134   4.513  1.5617 -0.6066  0.6555
  202MOL0     H27266   5.660   9.768   4.529 -4.7432  3.3520 -1.3387
  202MOL0     H27267   6.536  10.151   4.664 -0.3249 -2.4505 -0.2003
  202MOL0     H27268   6.759  10.199   4.668 -2.1933  1.2318 -0.6887
  202MOL0     H27269   6.807  10.321   4.803  1.7028 -1.1914  1.0106
  202MOL0     H27270   6.852  10.155   4.809  1.1694  1.7824 -1.1160
  203MOL0     O27271   1.955   1.961   4.870 -0.0560  0.1238 -0.2697
  203MOL0     C27272   1.977   2.001   4.757  0.8569  0.3411  0.2686
  203MOL0     O27273   1.940   1.937   4.635 -0.0210 -0.7458 -0.2542
  203MOL0     C27274   1.851   1.833   4.629 -1.3280  0.0505 -0.5767
  203MOL0     C27275   1.876   1.708   4.672 -0.9473  0.2292 -0.0509
  203MOL0     C27276   1.784   1.606   4.674 -0.2855  0.1460  0.9463
  203MOL0     C27277   1.661   1.627   4.616 -0.3412  0.0597  0.0019
  203MOL0     O27278   1.577   1.518   4.618  0.0136  0.3343 -0.1181
  203MOL0     C27279   1.454   1.512   4.544  0.1568  0.5453 -0.2617
  203MOL0     C27280   1.401   1.366   4.525 -1.2145  1.3752  0.3384
  203MOL0     C27281   1.494   1.282   4.442  1.0998 -0.6509 -0.0091
  203MOL0     C27282   1.456   1.138   4.466 -0.4625 -0.7891  0.1937
  203MOL0     C27283   1.316   1.089   4.419 -0.1561  0.3271  0.0451
  203MOL0     C27284   1.299   0.948   4.477 -0.2834 -0.6385 -0.4604
  203MOL0     C27285   1.165   0.883   4.457 -0.1538  0.5171 -0.1338
  203MOL0     C27286   1.051   0.909   4.553 -0.1641  0.1571 -0.0710
  203MOL0     N27287   0.951   0.815   4.531 -0.6275 -0.0366  0.5989
  203MOL0     C27288   0.945   0.692   4.595 -0.1704 -0.3082 -0.8445
  203MOL0     C27289   0.831   0.640   4.551  0.1658  0.6225 -0.6132
  203MOL0     C27290   0.754   0.518   4.612 -0.2990 -0.4578 -0.4984
  203MOL0     C27291   0.648   0.567   4.714  0.8456 -0.4982  0.9432
  203MOL0     C27292   0.549   0.671   4.660 -0.6736  0.0210  0.5171
  203MOL0     C27293   0.432   0.678   4.746  0.8847  0.2387  0.3422
  203MOL0     O27294   0.397   0.821   4.762  0.3285 -0.2160  0.1672
  203MOL0     C27295   0.332   0.898   4.669  0.2393  0.5215 -0.6941
  203MOL0     C27296   0.240   0.859   4.563 -0.5966  0.1290 -1.0553
  203MOL0     C27297   0.195   0.952   4.473  0.0775  0.0642 -0.0548
  203MOL0     C27298   0.235   1.080   4.477 -0.6656  0.4827 -0.6007
  203MOL0     C27299   0.206   1.170   4.359 -0.9636  0.3580 -0.1843
  203MOL0     O27300   0.194   1.120   4.243  0.5274 -0.4702 -0.4177
  203MOL0     C27301   0.103   1.170   4.157  0.6020  0.8234 -1.1273
  203MOL0     C27302  -0.027   1.225   4.192 -0.9572  0.0372 -0.4847
  203MOL0     C27303  -0.119   1.255   4.092 -1.4357 -0.0773 -0.2876
  203MOL0     C27304  -0.082   1.243   3.953 -0.2837  0.2140 -0.4612
  203MOL0     O27305  -0.155   1.275   3.840  0.2043 -0.6924  0.5842
  203MOL0     C27306  -0.289   1.321   3.863  0.0756  0.6304  0.0150
  203MOL0     C27307  -0.345   1.367   3.730 -0.1751  0.8705  0.3794
  203MOL0     C27308  -0.501   1.359   3.728 -0.1452 -0.7581  0.4898
  203MOL0     C27309  -0.568   1.442   3.835 -0.1090  0.3100  1.2390
  203MOL0     C27310  -0.705   1.495   3.808 -0.2648 -0.2945  1.0676
  203MOL0     C27311  -0.765   1.586   3.914  0.1857 -0.9640 -0.2525
  203MOL0     C27312  -0.916   1.592   3.892 -0.8598 -0.6556  0.4601
  203MOL0     C27313  -0.998   1.703   3.976 -0.1363 -0.7447 -0.3426
  203MOL0    Cl27314  -1.161   1.649   3.979  0.3458 -0.3021  0.2246
  203MOL0     C27315   0.048   1.205   3.922  0.2870 -0.7931 -0.0407
  203MOL0     C27316   0.132   1.162   4.025  0.9064 -0.1029  0.4525
  203MOL0     O27317   0.219   1.295   4.379 -0.3845  0.0697 -0.5917
  203MOL0     C27318   0.318   1.121   4.582  0.5812  0.3633 -0.1454
  203MOL0     C27319   0.365   1.033   4.680  0.0804 -0.4957 -0.7194
  203MOL0     N27320   0.783   0.726   4.449  0.5965 -0.6528  0.4344
  203MOL0     N27321   0.858   0.827   4.443 -0.4713  0.0172  1.0484
  203MOL0     C27322   1.631   1.757   4.565  0.1757 -0.4677 -0.0949
  203MOL0     C27323   1.731   1.859   4.564 -0.2119  0.5765  0.2857
  203MOL0     C27324   2.023   2.143   4.739  0.6642  0.4447  0.3491
  203MOL0     C27325   1.981   2.212   4.619 -0.2109  0.0407 -0.4775
  203MOL0     C27326   2.029   2.343   4.601  0.8135 -0.4889  0.1105
  203MOL0     C27327   2.119   2.403   4.683  0.4806  0.9144 -0.9415
  203MOL0     O27328   2.180   2.524   4.657  0.6816  0.2336  0.0256
  203MOL0     C27329   2.078   2.625   4.667 -0.3734  1.1951  0.4016
  203MOL0     C27330   2.043   2.693   4.536 -0.0570  0.2850  0.3023
  203MOL0     C27331   1.976   2.826   4.573 -0.5417 -0.3725  0.1221
  203MOL0     C27332   1.927   2.900   4.449 -0.0353 -0.0870  0.1938
  203MOL0     C27333   2.024   2.944   4.346 -0.8112  0.7542 -0.3117
  203MOL0     C27334   2.091   2.988   4.254 -1.1765  0.7738 -0.4597
  203MOL0     C27335   2.168   2.329   4.786  0.1740  0.2010 -0.9681
  203MOL0     C27336   2.115   2.211   4.829  0.4902  1.1544  1.6251
  203MOL0     C27337   2.160   2.141   4.963 -0.7871  0.0160  0.3349
  203MOL0     H27338   1.969   1.695   4.726 -0.5357  0.1816 -0.7609
  203MOL0     H27339   1.813   1.507   4.708 -1.3465 -1.2408 -1.8877
  203MOL0     H27340   1.384   1.577   4.596 -0.2065  0.4832 -0.6695
  203MOL0     H27341   1.470   1.556   4.445 -0.3668  0.0723 -0.5673
  203MOL0     H27342   1.298   1.369   4.490 -1.6037  2.1472  1.4835
  203MOL0     H27343   1.384   1.324   4.624 -0.9454  1.8354  0.5858
  203MOL0     H27344   1.600   1.289   4.467  1.1042  0.4329 -0.2947
  203MOL0     H27345   1.495   1.316   4.338  3.9572  2.9008  1.0045
  203MOL0     H27346   1.547   1.094   4.425  3.5935  3.3388  3.6314
  203MOL0     H27347   1.464   1.124   4.574  0.8459 -1.1608  0.0666
  203MOL0     H27348   1.235   1.153   4.456 -1.3887  2.5769 -5.5314
  203MOL0     H27349   1.299   1.102   4.312  0.8136 -1.3170 -0.3419
  203MOL0     H27350   1.360   0.891   4.406  0.9321 -0.6431  0.5485
  203MOL0     H27351   1.332   0.943   4.581 -2.8699  2.1502  0.6376
  203MOL0     H27352   1.171   0.778   4.486 -1.1930  0.2304 -0.9047
  203MOL0     H27353   1.140   0.876   4.351  4.0467 -3.5573 -1.1859
  203MOL0     H27354   1.091   0.910   4.654  1.8071  0.0401 -0.8171
  203MOL0     H27355   1.015   1.011   4.532 -1.8778 -0.5463 -0.7378
  203MOL0     H27356   1.015   0.665   4.674  0.0131  0.5177 -0.7115
  203MOL0     H27357   0.714   0.465   4.526 -0.5453  0.2325 -0.8120
  203MOL0     H27358   0.814   0.455   4.678  1.4822 -0.4426 -2.0191
  203MOL0     H27359   0.601   0.478   4.758  1.7415 -1.6854 -0.4138
  203MOL0     H27360   0.697   0.615   4.799  1.4193 -0.2180  0.4568
  203MOL0     H27361   0.521   0.665   4.555  0.6132 -0.5970  0.1937
  203MOL0     H27362   0.606   0.764   4.667  0.8086 -0.8295  0.1078
  203MOL0     H27363   0.444   0.649   4.850  3.4814  1.7503  0.5723
  203MOL0     H27364   0.357   0.623   4.689  0.7617  1.0587 -0.3163
  203MOL0     H27365   0.214   0.757   4.535  0.1537 -0.4115  0.1604
  203MOL0     H27366   0.137   0.906   4.394  2.2289 -2.1056 -0.4862
  203MOL0     H27367  -0.064   1.239   4.294 -0.6485 -0.5913 -0.2791
  203MOL0     H27368  -0.218   1.299   4.099 -2.2680 -1.9425  0.1719
  203MOL0     H27369  -0.357   1.250   3.910 -0.3047  0.9440 -0.0556
  203MOL0     H27370  -0.293   1.409   3.928 -1.2622 -1.8380  3.6334
  203MOL0     H27371  -0.324   1.469   3.698  0.8537 -0.1273 -2.3703
  203MOL0     H27372  -0.310   1.305   3.647  0.3333  0.8455  0.6081
  203MOL0     H27373  -0.533   1.401   3.632  2.9512  0.9981  0.0663
  203MOL0     H27374  -0.532   1.257   3.753 -3.5840 -0.5531 -2.2182
  203MOL0     H27375  -0.509   1.533   3.847 -0.2624  0.4335  1.0510
  203MOL0     H27376  -0.576   1.385   3.928 -2.3527 -1.4453  0.0783
  203MOL0     H27377  -0.769   1.407   3.799  0.4254 -0.8151  1.1614
  203MOL0     H27378  -0.701   1.561   3.721 -1.6755 -0.4711  0.8586
  203MOL0     H27379  -0.742   1.547   4.013 -5.6825 -1.0731  1.4114
  203MOL0     H27380  -0.721   1.686   3.904  0.1348 -0.8945  0.2162
  203MOL0     H27381  -0.950   1.496   3.932 -0.5739 -2.2424 -2.7981
  203MOL0     H27382  -0.949   1.595   3.788  0.9689 -0.5162 -0.1526
  203MOL0     H27383  -0.967   1.706   4.081 -2.0386  2.2837  0.2721
  203MOL0     H27384  -0.989   1.807   3.943 -0.2385 -0.0760  1.5684
  203MOL0     H27385   0.074   1.197   3.817  1.3853 -1.9371  0.2977
  203MOL0     H27386   0.237   1.147   4.004  1.3449 -0.2938  2.5631
  203MOL0     H27387   0.361   1.221   4.580  0.3558  0.5208  1.3749
  203MOL0     H27388   0.427   1.058   4.766 -2.1433 -2.0341  1.4708
  203MOL0     H27389   1.531   1.761   4.524  1.0524  1.3701 -2.3323
  203MOL0     H27390   1.719   1.960   4.527 -1.8497  0.1535 -0.4640
  203MOL0     H27391   1.921   2.159   4.545 -1.3398  0.2894  0.2405
  203MOL0     H27392   1.996   2.396   4.512  2.7565 -1.2041 -1.0940
  203MOL0     H27393   2.114   2.704   4.734  0.5652  0.2098  1.0924
  203MOL0     H27394   1.984   2.589   4.709 -0.1075  2.6297  2.3651
  203MOL0     H27395   1.986   2.614   4.487 -0.0230 -0.6881  1.7615
  203MOL0     H27396   2.130   2.725   4.478 -0.9814  0.8826 -0.8027
  203MOL0     H27397   2.052   2.888   4.621 -2.7848  1.5322  1.4391
  203MOL0     H27398   1.893   2.831   4.643 -2.0142  1.8602 -1.6314
  203MOL0     H27399   1.849   2.833   4.411  0.4201 -1.6669  1.8757
  203MOL0     H27400   1.884   2.992   4.490  0.4098  0.7581 -1.1532
  203MOL0     H27401   2.135   3.020   4.162 -2.2086 -2.7427 -2.3884
  203MOL0     H27402   2.248   2.379   4.839 -1.1566  1.6372 -0.2344
  203MOL0     H27403   2.085   2.157   5.040 -1.9371 -4.9633  0.5819
  203MOL0     H27404   2.173   2.033   4.961  0.7498  0.1851 -0.9045
  203MOL0     H27405   2.256   2.184   4.993  0.4409 -1.1417 -1.6797
  204MOL0     O27406   8.795   2.222   7.906 -0.6867 -0.0942  0.8986
  204MOL0     C27407   8.675   2.219   7.884  0.1223 -0.3901 -0.4480
  204MOL0     O27408   8.574   2.238   7.975 -0.2466 -0.3802 -0.3218
  204MOL0     C27409   8.592   2.284   8.107  0.2632 -0.2622  0.0223
  204MOL0     C27410   8.712   2.334   8.157 -0.0096  0.1533  2.0183
  204MOL0     C27411   8.711   2.379   8.287  0.0994  0.4564  0.9430
  204MOL0     C27412   8.598   2.383   8.368 -0.7460  0.7877 -0.1510
  204MOL0     O27413   8.603   2.430   8.497 -0.3452  0.1159  0.1671
  204MOL0     C27414   8.722   2.432   8.571 -0.4630 -0.3066 -0.4352
  204MOL0     C27415   8.771   2.298   8.610 -0.3745 -0.3417  0.1500
  204MOL0     C27416   8.926   2.314   8.641 -0.5649  0.2083 -0.5584
  204MOL0     C27417   8.978   2.174   8.660  0.7147  0.3035 -0.2396
  204MOL0     C27418   9.054   2.132   8.534  0.5273  0.8883  0.4413
  204MOL0     C27419   9.077   1.981   8.525  0.4872 -0.5413 -0.0368
  204MOL0     C27420   9.170   1.946   8.409  0.4827 -1.3371  0.2011
  204MOL0     C27421   9.159   1.808   8.346 -0.1090  0.8374  0.6272
  204MOL0     N27422   9.030   1.788   8.275 -0.0916  0.4450  0.6359
  204MOL0     C27423   8.933   1.880   8.244 -0.5197  0.3734 -0.0734
  204MOL0     C27424   8.824   1.814   8.211  0.2287 -0.6068  0.5986
  204MOL0     C27425   8.689   1.865   8.175  0.0621  0.4771  0.9972
  204MOL0     C27426   8.605   1.856   8.296 -0.4866  0.2163 -0.1599
  204MOL0     C27427   8.646   1.967   8.403  0.4432  0.1963 -0.0642
  204MOL0     C27428   8.548   1.962   8.519 -0.9596  0.2676 -0.1530
  204MOL0     O27429   8.551   1.844   8.600  0.4508  0.2775 -0.5084
  204MOL0     C27430   8.671   1.817   8.662  0.0771 -0.9026 -0.0060
  204MOL0     C27431   8.738   1.707   8.612  0.8559  0.8088  0.1694
  204MOL0     C27432   8.856   1.666   8.662 -0.6532  0.0686  0.0857
  204MOL0     C27433   8.899   1.725   8.784  0.4106  0.2617 -0.4841
  204MOL0     C27434   9.019   1.677   8.836  0.8335 -0.0378  0.4255
  204MOL0     O27435   9.116   1.780   8.862  0.1807  0.9365 -0.2075
  204MOL0     C27436   9.250   1.732   8.875 -0.1014 -1.0413 -0.1984
  204MOL0     C27437   9.342   1.767   8.785  0.0635  0.4798  1.1070
  204MOL0     C27438   9.471   1.705   8.795 -0.0311  0.1422  0.6598
  204MOL0     C27439   9.492   1.597   8.877 -1.0102 -0.0382 -0.7041
  204MOL0     O27440   9.607   1.521   8.883  0.1279 -0.8632 -0.2416
  204MOL0     C27441   9.691   1.515   8.767 -0.6856 -0.3005  0.3711
  204MOL0     C27442   9.799   1.415   8.782 -0.1627  0.4027  0.0582
  204MOL0     C27443   9.762   1.281   8.714 -0.2900  0.1063 -0.1772
  204MOL0     C27444   9.855   1.170   8.749 -0.4066 -0.1504 -0.9154
  204MOL0     C27445   9.811   1.028   8.717  0.4568 -0.3621 -0.0959
  204MOL0     C27446   9.920   0.912   8.740 -0.4956  0.1447 -0.6586
  204MOL0     C27447  10.049   0.943   8.663  0.1423 -0.7323 -1.0086
  204MOL0     C27448  10.021   0.962   8.512 -0.5364  0.3760 -0.6904
  204MOL0    Cl27449  10.182   0.983   8.445  0.1744 -0.0914 -0.4721
  204MOL0     C27450   9.392   1.565   8.970  0.3687  0.0763  0.0678
  204MOL0     C27451   9.277   1.631   8.978 -0.4253 -0.0811  0.0053
  204MOL0     O27452   9.031   1.557   8.851  0.2876  0.1967 -0.0917
  204MOL0     C27453   8.824   1.830   8.839 -0.1573  0.8504 -0.3373
  204MOL0     C27454   8.717   1.882   8.776  0.8649  0.0581 -0.1222
  204MOL0     N27455   8.866   1.683   8.214  0.8061  1.3035  0.4953
  204MOL0     N27456   8.981   1.666   8.253 -0.0089 -0.4979 -0.4928
  204MOL0     C27457   8.482   2.348   8.313  0.2756  0.3120 -0.2131
  204MOL0     C27458   8.484   2.286   8.188  0.2005 -0.2766  0.8658
  204MOL0     C27459   8.612   2.164   7.758 -0.9890 -0.3114  0.4282
  204MOL0     C27460   8.515   2.234   7.695  0.0646 -0.2850  0.3116
  204MOL0     C27461   8.441   2.199   7.589 -0.6951 -0.0158  0.0032
  204MOL0     C27462   8.475   2.075   7.534 -0.1078  0.4647  1.2536
  204MOL0     O27463   8.398   2.027   7.436 -0.1053  0.1160  0.5972
  204MOL0     C27464   8.432   2.086   7.308  0.0462  0.7030  0.2203
  204MOL0     C27465   8.316   2.157   7.247 -0.1532 -0.3678  0.6781
  204MOL0     C27466   8.181   2.090   7.256 -0.6324  0.0992 -0.0248
  204MOL0     C27467   8.106   2.092   7.120  0.2059 -0.5878 -0.1424
  204MOL0     C27468   7.981   2.015   7.147  0.0797  0.0240 -0.1587
  204MOL0     C27469   7.874   1.964   7.174  0.9991 -0.0343 -0.2599
  204MOL0     C27470   8.577   1.995   7.591  0.7318 -0.6363 -0.1434
  204MOL0     C27471   8.643   2.033   7.711 -0.2258  0.3864 -0.6601
  204MOL0     C27472   8.719   1.924   7.792 -0.1887  1.1596 -0.0828
  204MOL0     H27473   8.802   2.345   8.097 -0.0957 -0.2066  1.8169
  204MOL0     H27474   8.806   2.421   8.320  2.9213 -3.6605 -1.0361
  204MOL0     H27475   8.795   2.502   8.531 -0.7066  0.3397  0.2255
  204MOL0     H27476   8.721   2.489   8.664  2.4218  0.9310 -1.0425
  204MOL0     H27477   8.756   2.237   8.520  0.4447  1.9542 -1.6614
  204MOL0     H27478   8.712   2.280   8.700  0.7789  0.2306  1.0357
  204MOL0     H27479   8.936   2.366   8.737  2.4181 -0.6330 -0.3160
  204MOL0     H27480   8.987   2.361   8.563 -1.1026 -1.2823 -1.9360
  204MOL0     H27481   9.048   2.152   8.741  1.5252 -1.7445 -1.4343
  204MOL0     H27482   8.891   2.109   8.671  1.8270 -1.1052  0.6281
  204MOL0     H27483   8.987   2.154   8.450 -0.3057 -0.3795  0.7391
  204MOL0     H27484   9.147   2.190   8.529 -0.8097  3.1145 -0.0672
  204MOL0     H27485   9.132   1.951   8.615 -2.6824 -1.0758  1.8980
  204MOL0     H27486   8.983   1.928   8.509  2.1757 -4.3197  1.3769
  204MOL0     H27487   9.273   1.960   8.444  0.4248  1.9973 -0.6379
  204MOL0     H27488   9.153   2.024   8.334  0.0951 -1.1711  0.4595
  204MOL0     H27489   9.247   1.798   8.282 -0.5798 -0.4335  0.1555
  204MOL0     H27490   9.160   1.738   8.430  0.8037  1.4145  1.1250
  204MOL0     H27491   8.935   1.988   8.253 -0.2922  0.5027 -1.4357
  204MOL0     H27492   8.687   1.964   8.128  1.1660 -0.0856 -0.3012
  204MOL0     H27493   8.641   1.794   8.107 -1.0141  1.8760  0.2338
  204MOL0     H27494   8.502   1.877   8.267 -0.5095 -0.4586 -0.5694
  204MOL0     H27495   8.610   1.761   8.351 -4.0785  0.7233  1.3127
  204MOL0     H27496   8.640   2.070   8.367  1.5190  0.3977  0.3121
  204MOL0     H27497   8.747   1.943   8.439 -1.6024 -4.0884  3.8339
  204MOL0     H27498   8.451   1.986   8.474 -0.1530  1.1641 -1.4894
  204MOL0     H27499   8.572   2.054   8.572  0.9183  2.1009 -3.8216
  204MOL0     H27500   8.695   1.651   8.529 -0.7013  0.2634  1.2812
  204MOL0     H27501   8.908   1.582   8.618 -3.5385 -0.2184 -3.1822
  204MOL0     H27502   9.316   1.833   8.702  0.1227 -1.8479 -0.8522
  204MOL0     H27503   9.541   1.724   8.714 -0.0542 -0.1261  0.5770
  204MOL0     H27504   9.633   1.489   8.677  1.5902 -2.6829 -0.5526
  204MOL0     H27505   9.744   1.610   8.757  1.4864 -1.5469 -0.6893
  204MOL0     H27506   9.889   1.453   8.733 -0.4345 -1.4856 -2.0921
  204MOL0     H27507   9.817   1.402   8.889 -1.4620 -0.0951  0.2348
  204MOL0     H27508   9.664   1.250   8.751  0.0403  0.0244  0.6454
  204MOL0     H27509   9.763   1.283   8.605 -1.7913 -2.7111 -0.3304
  204MOL0     H27510   9.891   1.178   8.852 -2.0026 -2.2664 -0.1371
  204MOL0     H27511   9.942   1.182   8.683 -0.3826  0.5847 -0.7650
  204MOL0     H27512   9.765   1.031   8.618  0.0713 -0.8503  0.0656
  204MOL0     H27513   9.724   1.007   8.779  2.0222 -3.7982  1.1583
  204MOL0     H27514   9.935   0.897   8.847 -2.2958  3.3371  0.1842
  204MOL0     H27515   9.883   0.815   8.707 -0.5429 -0.1851  0.3341
  204MOL0     H27516  10.125   0.868   8.686  1.0983  1.1889  3.0905
  204MOL0     H27517  10.096   1.029   8.712 -0.8331 -2.0009  2.4613
  204MOL0     H27518   9.968   0.878   8.466 -3.9176  1.9540  0.0586
  204MOL0     H27519   9.967   1.052   8.483  0.2386  1.1533  0.2059
  204MOL0     H27520   9.415   1.486   9.040  0.9881  0.4498  0.3014
  204MOL0     H27521   9.185   1.617   9.034 -1.8306  3.3697 -1.1585
  204MOL0     H27522   8.845   1.847   8.944  2.3761  2.0243 -0.9414
  204MOL0     H27523   8.653   1.960   8.816  1.0907 -1.2917  3.2431
  204MOL0     H27524   8.393   2.377   8.368  1.7263 -1.3748  3.4467
  204MOL0     H27525   8.392   2.249   8.145  0.8490 -0.4713 -0.3967
  204MOL0     H27526   8.475   2.327   7.734  0.6154 -0.6173  1.7042
  204MOL0     H27527   8.370   2.266   7.542  0.8408 -1.4434 -4.9314
  204MOL0     H27528   8.473   2.014   7.237  0.8062  0.0492  1.2741
  204MOL0     H27529   8.520   2.151   7.310 -0.7322  2.0592 -3.2238
  204MOL0     H27530   8.335   2.189   7.144 -0.7910  1.6788  1.1565
  204MOL0     H27531   8.297   2.245   7.308  2.0612 -0.1200  1.0779
  204MOL0     H27532   8.122   2.140   7.333 -1.5371  0.6032 -1.0266
  204MOL0     H27533   8.193   1.989   7.298  3.3346  1.3668  2.5066
  204MOL0     H27534   8.081   2.196   7.098 -1.5227 -0.0057  3.7402
  204MOL0     H27535   8.149   2.044   7.032  1.0683  3.7970 -2.3857
  204MOL0     H27536   7.780   1.913   7.182  1.3062 -0.5481  0.1764
  204MOL0     H27537   8.604   1.896   7.557  2.5024  0.2208 -1.3904
  204MOL0     H27538   8.687   1.823   7.764  2.1104  0.9403 -2.2483
  204MOL0     H27539   8.827   1.936   7.779  0.7619 -4.2470  0.5113
  204MOL0     H27540   8.683   1.940   7.894 -1.9217 -0.0461 -0.4568
  205MOL0     O27541   6.428  10.469   9.372 -1.1888  0.1771  0.2317
  205MOL0     C27542   6.327  10.404   9.378  0.2109  1.1738 -0.8152
  205MOL0     O27543   6.312  10.284   9.444  0.1713  0.0425  0.1324
  205MOL0     C27544   6.419  10.227   9.512  0.6715 -0.4728  0.3718
  205MOL0     C27545   6.518  10.151   9.446 -0.0610 -0.2046 -0.6153
  205MOL0     C27546   6.630  10.116   9.523  0.4922 -0.7453 -0.7091
  205MOL0     C27547   6.634  10.123   9.658 -0.2604 -0.7421 -0.7271
  205MOL0     O27548   6.744  10.070   9.724 -0.3426  0.5537  0.7429
  205MOL0     C27549   6.718  10.029   9.864 -0.6687 -0.6715 -0.3102
  205MOL0     C27550   6.832   9.945   9.909 -0.5515 -0.2689  0.3692
  205MOL0     C27551   6.968  10.021   9.924  0.6141  0.3163 -0.2009
  205MOL0     C27552   6.965  10.137  10.025  0.5801 -0.9253 -0.3172
  205MOL0     C27553   7.101  10.201  10.065 -0.2402 -0.2304  0.1119
  205MOL0     C27554   7.161  10.273   9.951  0.1020 -0.8148 -0.5185
  205MOL0     C27555   7.307  10.331   9.980  0.3137 -0.4869  0.5609
  205MOL0     C27556   7.415  10.220   9.961  1.1224 -0.6056 -0.0193
  205MOL0     N27557   7.546  10.285   9.958  0.3023  0.3964 -0.5751
  205MOL0     C27558   7.631  10.284  10.066 -0.7396  0.2795 -0.5086
  205MOL0     C27559   7.735  10.364  10.026  0.4753 -0.8558  0.0129
  205MOL0     C27560   7.869  10.384  10.090 -0.0222  0.0351 -0.4532
  205MOL0     C27561   7.939  10.244  10.084 -0.0774  0.4022  0.0771
  205MOL0     C27562   8.088  10.264  10.142  0.2248 -0.6309 -0.2664
  205MOL0     C27563   8.177  10.143  10.136 -0.3350  0.6627  0.2219
  205MOL0     O27564   8.229  10.133   9.998 -0.3431 -0.1839 -0.2840
  205MOL0     C27565   8.363  10.130   9.982  0.0323 -0.6304  0.0331
  205MOL0     C27566   8.431  10.238   9.917  0.2670 -0.9626  0.1684
  205MOL0     C27567   8.563  10.247   9.904 -0.6851 -0.1007 -0.7265
  205MOL0     C27568   8.645  10.150   9.955  0.8550  0.5613 -0.1337
  205MOL0     C27569   8.791  10.149   9.940 -0.9084 -1.6173  0.4153
  205MOL0     O27570   8.863  10.035   9.975 -0.2223 -0.4175 -0.5120
  205MOL0     C27571   9.001  10.033   9.973  0.1964  0.1995  0.4307
  205MOL0     C27572   9.057   9.916   9.924 -0.4408 -0.4353 -0.5119
  205MOL0     C27573   9.198   9.891   9.922 -0.0719  0.1690  0.5041
  205MOL0     C27574   9.280   9.991   9.974 -0.0248 -0.0420 -0.5404
  205MOL0     O27575   9.412   9.958   9.972  0.1922 -0.0320  0.3778
  205MOL0     C27576   9.512  10.064   9.934  0.5511  0.1551  0.0056
  205MOL0     C27577   9.607  10.004   9.836 -0.6562 -0.2961 -1.5221
  205MOL0     C27578   9.725  10.088   9.806 -0.4883  0.4486  0.6490
  205MOL0     C27579   9.852  10.022   9.869 -0.3677  0.1690  0.7824
  205MOL0     C27580   9.977  10.113   9.873  0.0066  0.3535 -0.5401
  205MOL0     C27581   9.977  10.241   9.966 -0.1853  0.7089  0.4806
  205MOL0     C27582  10.109  10.308   9.954 -0.4501  1.2472 -0.7599
  205MOL0     C27583  10.217  10.236  10.035 -1.1490 -0.1359 -1.0150
  205MOL0    Cl27584  10.176  10.216  10.206 -0.5662 -0.0487 -0.5895
  205MOL0     C27585   9.224  10.110  10.024  0.5979  0.1235 -0.5602
  205MOL0     C27586   9.086  10.135  10.020  0.5808  0.5840 -0.3129
  205MOL0     O27587   8.843  10.256   9.905  0.9761 -0.5392 -0.0470
  205MOL0     C27588   8.585  10.040  10.020  0.1748  0.2619 -0.6585
  205MOL0     C27589   8.443  10.026  10.038 -0.2559 -0.6081 -0.2104
  205MOL0     N27590   7.707  10.429   9.910 -0.6379  0.6517  0.5053
  205MOL0     N27591   7.597  10.375   9.870  0.4331  0.3931 -0.2533
  205MOL0     C27592   6.526  10.185   9.731  0.4136 -0.2340 -0.4630
  205MOL0     C27593   6.426  10.251   9.649 -0.7318  0.2965 -0.2041
  205MOL0     C27594   6.208  10.440   9.293 -0.1713  0.1757  0.6944
  205MOL0     C27595   6.189  10.380   9.167  0.0727 -0.1315  0.6525
  205MOL0     C27596   6.071  10.406   9.097 -0.1223 -0.8364 -0.5764
  205MOL0     C27597   5.987  10.509   9.134  0.1009 -0.5190 -0.1246
  205MOL0     O27598   5.868  10.541   9.059 -0.1779 -0.6093  0.1574
  205MOL0     C27599   5.794  10.440   8.992  0.2061  0.9320 -0.1189
  205MOL0     C27600   5.680  10.406   9.086  0.9232 -0.5011  0.1223
  205MOL0     C27601   5.574  10.296   9.034 -0.9840 -0.7145 -0.2035
  205MOL0     C27602   5.631  10.154   9.037 -0.0717  0.1717  0.8524
  205MOL0     C27603   5.647  10.099   9.174 -0.4412  0.3014 -0.1307
  205MOL0     C27604   5.677  10.055   9.285 -0.3033  0.4813 -0.1784
  205MOL0     C27605   6.000  10.562   9.258 -0.4426 -0.7180 -1.0676
  205MOL0     C27606   6.118  10.545   9.326  0.4149  0.1649  0.0221
  205MOL0     C27607   6.121  10.591   9.470 -0.6438 -0.9527 -0.6689
  205MOL0     H27608   6.517  10.118   9.343 -0.0874 -0.5540 -0.5042
  205MOL0     H27609   6.708  10.076   9.460  0.3994  1.1800 -2.1046
  205MOL0     H27610   6.715  10.120   9.925 -1.5920 -0.5090 -0.5740
  205MOL0     H27611   6.622   9.978   9.880  0.3584 -1.7282  3.4535
  205MOL0     H27612   6.847   9.863   9.837 -0.1788  1.6730 -1.8700
  205MOL0     H27613   6.820   9.908  10.011  3.2809 -0.0058  1.0929
  205MOL0     H27614   6.985  10.057   9.823 -0.8291 -1.2006 -1.0226
  205MOL0     H27615   7.056   9.961   9.949 -1.3045 -2.7882 -0.4244
  205MOL0     H27616   6.900  10.217   9.988 -1.0042  0.1101  4.0233
  205MOL0     H27617   6.913  10.099  10.113  0.3604  1.7386  0.7938
  205MOL0     H27618   7.093  10.263  10.155 -1.6328 -0.1798 -0.0282
  205MOL0     H27619   7.161  10.112  10.085 -0.1599 -1.0032 -3.0880
  205MOL0     H27620   7.172  10.195   9.875 -0.4666 -1.6028  0.1878
  205MOL0     H27621   7.101  10.359   9.918  1.8185  2.0991  3.2951
  205MOL0     H27622   7.291  10.354  10.086 -2.2473 -3.5769  0.9909
  205MOL0     H27623   7.316  10.409   9.903 -1.6937 -0.2994  0.4592
  205MOL0     H27624   7.409  10.132  10.026  0.8909 -1.5610 -1.2912
  205MOL0     H27625   7.408  10.184   9.858  1.9186 -0.7341 -0.0306
  205MOL0     H27626   7.609  10.227  10.156 -3.1083  0.2271 -1.0533
  205MOL0     H27627   7.929  10.457  10.034 -0.0617  0.6053  0.2321
  205MOL0     H27628   7.849  10.421  10.191  1.0566 -1.7358  0.4558
  205MOL0     H27629   7.874  10.181  10.147 -0.2032 -1.4612 -1.7890
  205MOL0     H27630   7.948  10.212   9.980  0.0406  0.5494  0.0423
  205MOL0     H27631   8.077  10.285  10.248 -2.0933  2.3164 -0.9614
  205MOL0     H27632   8.131  10.354  10.098 -0.5566  1.1041  2.3054
  205MOL0     H27633   8.131  10.049  10.166 -1.7802  1.3361  0.2252
  205MOL0     H27634   8.265  10.157  10.198  1.0806  0.1652 -1.5893
  205MOL0     H27635   8.369  10.316   9.873 -0.6393 -2.0508 -0.5363
  205MOL0     H27636   8.603  10.331   9.849  1.6805 -0.2985  0.5625
  205MOL0     H27637   8.997   9.831   9.894  1.0396 -0.8563 -2.4821
  205MOL0     H27638   9.234   9.798   9.879  0.5018  0.1534  1.0156
  205MOL0     H27639   9.461  10.151   9.891 -0.2840 -0.5899 -0.5792
  205MOL0     H27640   9.573  10.099  10.017 -0.4501 -0.0770  0.8743
  205MOL0     H27641   9.640   9.905   9.868  0.5657  0.4722 -0.2684
  205MOL0     H27642   9.553   9.980   9.743  2.7311 -1.1422 -3.4150
  205MOL0     H27643   9.753  10.098   9.701 -1.2475  0.9567  0.4936
  205MOL0     H27644   9.711  10.185   9.854  0.3571  0.7941  0.2267
  205MOL0     H27645   9.882   9.931   9.816 -2.5655 -0.9868  1.4316
  205MOL0     H27646   9.826   9.985   9.969 -2.3541 -3.7080 -0.9343
  205MOL0     H27647   9.998  10.150   9.773  0.5436  0.1071 -0.5229
  205MOL0     H27648  10.062  10.050   9.903 -0.8347 -0.2117  0.7502
  205MOL0     H27649   9.895  10.306   9.935 -2.3161 -1.7162  0.7712
  205MOL0     H27650   9.968  10.207  10.069  1.2261 -3.1451 -0.4902
  205MOL0     H27651  10.103  10.398  10.016  4.5881  2.4101 -1.4964
  205MOL0     H27652  10.132  10.331   9.850 -0.7352  2.2361 -0.6199
  205MOL0     H27653  10.221  10.132   9.999 -1.3789 -0.4808 -0.0638
  205MOL0     H27654  10.313  10.282  10.011  0.4970 -1.8395  1.7911
  205MOL0     H27655   9.277  10.177  10.092  0.1797 -1.0654  1.0179
  205MOL0     H27656   9.048  10.227  10.062 -0.9935 -0.2699  0.2087
  205MOL0     H27657   8.648   9.963  10.061  0.4780  0.6452 -0.3941
  205MOL0     H27658   8.404   9.934  10.079  1.6759 -1.9139 -1.1821
  205MOL0     H27659   6.540  10.203   9.837  3.7921 -1.7903 -0.5395
  205MOL0     H27660   6.360  10.311   9.710  0.9361  1.7548  0.2566
  205MOL0     H27661   6.265  10.311   9.131 -2.0105 -2.7084  0.8659
  205MOL0     H27662   6.052  10.340   9.012  1.0292  0.7039 -2.1046
  205MOL0     H27663   5.857  10.351   8.981  1.4065  1.8485 -0.9196
  205MOL0     H27664   5.755  10.474   8.896 -0.5401 -3.2168 -1.4870
  205MOL0     H27665   5.619  10.495   9.100  1.4382 -0.1342  0.0454
  205MOL0     H27666   5.730  10.373   9.179 -1.9846 -1.4383  1.4712
  205MOL0     H27667   5.537  10.312   8.932  0.8094 -2.0772 -1.1107
  205MOL0     H27668   5.484  10.299   9.096 -1.5605 -1.9187 -0.9596
  205MOL0     H27669   5.559  10.098   8.976  2.7193 -1.2856 -1.3238
  205MOL0     H27670   5.724  10.144   8.981  0.1402  0.4327  1.1568
  205MOL0     H27671   5.725  10.032   9.378 -2.2577  0.1195  0.8023
  205MOL0     H27672   5.927  10.637   9.287 -0.3373  0.4878 -3.6307
  205MOL0     H27673   6.098  10.698   9.478 -2.1737 -1.3068  0.0716
  205MOL0     H27674   6.057  10.534   9.538  2.9806 -0.8737  3.2904
  205MOL0     H27675   6.217  10.582   9.522 -1.2954 -3.0904  0.2804
  206MOL0     O27676   2.562   0.344   5.992  0.1264  0.3523 -0.4953
  206MOL0     C27677   2.529   0.319   5.876  1.3081  0.1713 -0.3331
  206MOL0     O27678   2.511   0.417   5.787  0.1694  0.3375  0.2547
  206MOL0     C27679   2.527   0.548   5.829  0.3573  0.6865 -0.2566
  206MOL0     C27680   2.646   0.615   5.810 -1.1347  0.6540 -0.2744
  206MOL0     C27681   2.657   0.748   5.863 -0.1400 -0.5625 -0.9778
  206MOL0     C27682   2.562   0.812   5.945 -0.4146 -0.0874  0.0878
  206MOL0     O27683   2.573   0.938   6.004 -0.0598 -0.3726 -0.1430
  206MOL0     C27684   2.703   1.004   6.010  0.5161 -0.8298  0.2896
  206MOL0     C27685   2.805   0.941   6.110  0.9055 -0.0630 -0.2252
  206MOL0     C27686   2.941   1.018   6.131  0.8386 -0.8052  0.0511
  206MOL0     C27687   2.934   1.154   6.204  1.2369 -0.0565  0.5124
  206MOL0     C27688   3.062   1.235   6.199 -0.0692 -0.1723  0.1892
  206MOL0     C27689   3.153   1.210   6.323 -0.3768  0.1951  0.3699
  206MOL0     C27690   3.283   1.283   6.316 -0.1588 -0.5071 -0.3780
  206MOL0     C27691   3.394   1.208   6.381 -0.1361 -0.2242 -0.0888
  206MOL0     N27692   3.517   1.273   6.345 -0.2164  0.2323  0.4768
  206MOL0     C27693   3.578   1.365   6.432  0.0087 -0.7296  0.2992
  206MOL0     C27694   3.708   1.383   6.396  0.1445  1.0705 -0.0275
  206MOL0     C27695   3.817   1.445   6.469 -0.1711  0.0938  0.9180
  206MOL0     C27696   3.951   1.384   6.446  0.5750 -0.0342  0.2597
  206MOL0     C27697   4.059   1.435   6.541 -0.1759  0.2385 -0.5552
  206MOL0     C27698   4.179   1.337   6.553  0.8749 -0.0103  0.4449
  206MOL0     O27699   4.240   1.373   6.677 -0.2160  0.1637 -0.3837
  206MOL0     C27700   4.378   1.375   6.688  0.4765  0.1034  0.1835
  206MOL0     C27701   4.432   1.434   6.795 -0.0432  0.0686  0.5629
  206MOL0     C27702   4.578   1.431   6.817 -0.2544  0.3171  0.0202
  206MOL0     C27703   4.663   1.374   6.725 -0.3360  0.1436 -0.1513
  206MOL0     C27704   4.805   1.371   6.743 -0.2699  0.1464 -0.4723
  206MOL0     O27705   4.850   1.372   6.874 -0.1259 -0.3531 -0.3705
  206MOL0     C27706   4.983   1.381   6.909  0.5640 -0.5306  0.2341
  206MOL0     C27707   5.091   1.440   6.837  0.3153 -0.0824 -1.0219
  206MOL0     C27708   5.220   1.443   6.890  0.2015  0.7505  0.2701
  206MOL0     C27709   5.240   1.380   7.019 -0.1838  0.3746 -0.2764
  206MOL0     O27710   5.365   1.373   7.063  0.2579  0.0211 -0.4370
  206MOL0     C27711   5.394   1.430   7.196 -0.8186 -0.4167  0.3824
  206MOL0     C27712   5.547   1.425   7.224  0.4171  0.0739 -0.6312
  206MOL0     C27713   5.582   1.506   7.341 -1.1143  0.3565  0.1789
  206MOL0     C27714   5.729   1.490   7.368  1.2010  0.1115 -0.3670
  206MOL0     C27715   5.765   1.594   7.484  0.2616  0.0199 -0.5658
  206MOL0     C27716   5.917   1.608   7.508 -0.3680  0.7584 -0.1462
  206MOL0     C27717   5.995   1.483   7.541 -0.2834  0.0660 -0.1325
  206MOL0     C27718   6.142   1.491   7.508  0.4645  0.0427 -0.0842
  206MOL0    Cl27719   6.228   1.599   7.618  0.1636 -0.1438 -0.1401
  206MOL0     C27720   5.139   1.334   7.098 -0.3763 -1.0348 -0.2609
  206MOL0     C27721   5.012   1.330   7.036 -0.5858 -0.4633 -0.2725
  206MOL0     O27722   4.878   1.350   6.648 -0.7719  0.1459 -0.7880
  206MOL0     C27723   4.602   1.322   6.610  0.6137  0.5880 -0.2168
  206MOL0     C27724   4.471   1.323   6.589  1.0593 -0.3703  0.4645
  206MOL0     N27725   3.724   1.284   6.295 -0.1924  0.1820  0.0138
  206MOL0     N27726   3.611   1.221   6.265 -0.6000  0.1910 -0.1221
  206MOL0     C27727   2.438   0.739   5.954  0.4894 -0.1887 -0.2403
  206MOL0     C27728   2.422   0.615   5.885 -0.7341 -0.1179  0.1409
  206MOL0     C27729   2.495   0.181   5.850 -0.2527  0.2792  0.8084
  206MOL0     C27730   2.525   0.081   5.953  0.1519  0.2296 -0.0686
  206MOL0     C27731   2.473  -0.050   5.934  0.2369 -0.2890 -0.3879
  206MOL0     C27732   2.401  -0.078   5.824 -0.4795  0.4488 -0.6951
  206MOL0     O27733   2.354  -0.210   5.798  0.1851  0.5805 -0.2200
  206MOL0     C27734   2.447  -0.318   5.836 -0.1706 -0.8412  0.0286
  206MOL0     C27735   2.429  -0.445   5.756  0.0456 -0.1855 -0.0500
  206MOL0     C27736   2.301  -0.506   5.797 -0.2805 -0.1320 -0.7122
  206MOL0     C27737   2.282  -0.650   5.738 -0.3324  0.0680 -1.0313
  206MOL0     C27738   2.274  -0.656   5.593 -0.0601  0.3209  0.2040
  206MOL0     C27739   2.265  -0.696   5.472  0.3754  0.5776 -0.3091
  206MOL0     C27740   2.384   0.019   5.722  0.7154  0.2441 -0.2209
  206MOL0     C27741   2.417   0.144   5.738  0.1402  0.4622 -0.1029
  206MOL0     C27742   2.352   0.244   5.652  0.4212 -0.1478  0.2067
  206MOL0     H27743   2.723   0.563   5.754 -0.2590  1.3504  0.2747
  206MOL0     H27744   2.748   0.800   5.834 -0.5408  0.2781 -0.7592
  206MOL0     H27745   2.738   1.013   5.907 -2.7950  0.9866 -0.8612
  206MOL0     H27746   2.667   1.097   6.055 -1.5144 -3.0977  3.8467
  206MOL0     H27747   2.830   0.836   6.092 -0.2007 -1.3429  4.4957
  206MOL0     H27748   2.758   0.943   6.209 -0.5905  1.3236 -0.8940
  206MOL0     H27749   2.985   1.032   6.032 -0.1295  0.9669 -0.1585
  206MOL0     H27750   3.015   0.950   6.175  0.9447 -1.0006 -0.4185
  206MOL0     H27751   2.863   1.217   6.150  2.0295  0.0998 -0.3778
  206MOL0     H27752   2.893   1.142   6.305  0.9055  0.3189  0.4249
  206MOL0     H27753   3.116   1.224   6.105 -2.0324 -0.5009 -0.9453
  206MOL0     H27754   3.030   1.340   6.208 -2.1452 -0.4212 -2.8438
  206MOL0     H27755   3.099   1.240   6.413 -0.9153 -0.5924  0.3186
  206MOL0     H27756   3.170   1.102   6.323  1.5008  0.2649 -4.2328
  206MOL0     H27757   3.291   1.376   6.374 -1.1336 -0.3577 -0.4558
  206MOL0     H27758   3.313   1.291   6.211  2.8140 -1.2327  0.3334
  206MOL0     H27759   3.388   1.201   6.490  1.6325 -1.7970 -0.0282
  206MOL0     H27760   3.395   1.108   6.336  4.1354 -1.7417  2.7080
  206MOL0     H27761   3.529   1.412   6.517  0.7686  0.3402  0.1609
  206MOL0     H27762   3.824   1.550   6.442 -4.6927  0.0134 -1.4581
  206MOL0     H27763   3.792   1.449   6.576  0.1510  3.0820  0.9668
  206MOL0     H27764   3.947   1.277   6.471 -2.0187  0.3122  1.6230
  206MOL0     H27765   3.969   1.399   6.339 -0.5049 -2.9029 -0.4384
  206MOL0     H27766   4.018   1.440   6.642  1.2770  1.5464  0.0145
  206MOL0     H27767   4.100   1.532   6.511  0.6454 -0.4228 -1.6828
  206MOL0     H27768   4.251   1.336   6.471 -1.4141 -2.7241 -1.7508
  206MOL0     H27769   4.141   1.235   6.567  2.2497 -0.5202  0.6279
  206MOL0     H27770   4.373   1.489   6.868  1.5685  0.2007  1.8295
  206MOL0     H27771   4.624   1.463   6.910  0.4808 -0.0286 -0.2175
  206MOL0     H27772   5.067   1.512   6.760 -2.2514  0.8771  0.5432
  206MOL0     H27773   5.308   1.480   6.838 -0.4453  0.7716 -0.8517
  206MOL0     H27774   5.380   1.539   7.190 -0.0633 -0.3702 -1.1786
  206MOL0     H27775   5.336   1.388   7.279 -1.5154 -0.2843 -0.0234
  206MOL0     H27776   5.575   1.321   7.240  2.4336  0.7667  0.7792
  206MOL0     H27777   5.608   1.460   7.141  0.6147  1.9070  0.2324
  206MOL0     H27778   5.553   1.609   7.317 -0.6082  0.1367 -1.4543
  206MOL0     H27779   5.537   1.487   7.439  2.9635  2.4943  2.7377
  206MOL0     H27780   5.782   1.515   7.276  0.2981  0.6145 -0.7538
  206MOL0     H27781   5.745   1.382   7.383  1.0613 -0.4230 -3.4229
  206MOL0     H27782   5.707   1.572   7.574 -2.7445  2.4425 -1.7172
  206MOL0     H27783   5.724   1.694   7.465 -0.0779  0.6806  2.9882
  206MOL0     H27784   5.969   1.664   7.430  4.2812  2.5408  3.7524
  206MOL0     H27785   5.920   1.667   7.600  1.6519 -1.8068  1.5766
  206MOL0     H27786   5.949   1.398   7.490  0.2034  0.1695 -0.7708
  206MOL0     H27787   5.974   1.466   7.646  0.8776  0.9220  0.2633
  206MOL0     H27788   6.177   1.387   7.513  2.1718  0.5645 -0.6500
  206MOL0     H27789   6.164   1.521   7.405  3.3488 -1.6896 -0.0959
  206MOL0     H27790   5.162   1.297   7.197  1.4190 -2.5385 -1.1671
  206MOL0     H27791   4.923   1.302   7.092 -0.1945 -1.5574 -0.1748
  206MOL0     H27792   4.666   1.275   6.536 -1.4322 -1.7424 -0.6558
  206MOL0     H27793   4.441   1.283   6.492  1.2800 -0.6296  0.5018
  206MOL0     H27794   2.350   0.762   6.013  0.7061 -3.8446  1.8093
  206MOL0     H27795   2.332   0.557   5.900 -0.2327 -0.4131  2.3351
  206MOL0     H27796   2.563   0.104   6.052 -4.4897  3.4536  1.3109
  206MOL0     H27797   2.489  -0.123   6.013  0.0782  0.1643  0.0711
  206MOL0     H27798   2.457  -0.341   5.942  2.6220 -0.7231 -0.1317
  206MOL0     H27799   2.545  -0.286   5.798 -0.8635 -1.2086 -2.1852
  206MOL0     H27800   2.511  -0.515   5.777  0.0242 -0.1300  0.2267
  206MOL0     H27801   2.426  -0.416   5.651 -0.4540  1.5281  0.4019
  206MOL0     H27802   2.218  -0.443   5.763 -2.5759 -1.8588  1.2899
  206MOL0     H27803   2.314  -0.509   5.905  1.4338 -1.3922 -0.9038
  206MOL0     H27804   2.365  -0.711   5.775  0.4800 -0.1782 -3.1374
  206MOL0     H27805   2.190  -0.696   5.775 -0.9625  0.0507 -2.5488
  206MOL0     H27806   2.238  -0.718   5.371 -4.2957 -2.2017  1.2381
  206MOL0     H27807   2.336  -0.011   5.629  0.8866  1.3528 -0.6831
  206MOL0     H27808   2.280   0.207   5.579  0.5184 -2.5565  1.2450
  206MOL0     H27809   2.285   0.299   5.718 -2.1575 -2.0451 -0.6613
  206MOL0     H27810   2.416   0.319   5.605 -2.9839  2.5456 -0.5079
  207MOL0     O27811  10.457   0.783   0.585 -0.4824 -0.3606  0.0526
  207MOL0     C27812  10.503   0.897   0.598  0.6003  0.8339 -0.2136
  207MOL0     O27813  10.625   0.936   0.658 -0.5837 -0.0739 -0.1247
  207MOL0     C27814  10.699   0.838   0.704 -0.2561 -0.4379 -0.4545
  207MOL0     C27815  10.702   0.840   0.846 -0.1181  1.0359  1.1418
  207MOL0     C27816  10.796   0.751   0.915  0.8468 -0.2680  0.5673
  207MOL0     C27817  10.870   0.666   0.842 -0.2167  0.1905  0.7339
  207MOL0     O27818  10.960   0.590   0.918  0.6021 -0.4540  0.4756
  207MOL0     C27819  11.042   0.500   0.843  0.5173 -0.0737 -0.9091
  207MOL0     C27820  11.180   0.559   0.808 -0.8833  0.4518  0.2690
  207MOL0     C27821  11.274   0.593   0.934  0.0104  0.0679  1.0283
  207MOL0     C27822  11.269   0.506   1.059 -1.0959 -0.3216  0.1936
  207MOL0     C27823  11.378   0.541   1.168 -0.0977 -0.2914  1.2575
  207MOL0     C27824  11.512   0.492   1.116 -0.3784 -0.1124 -0.5037
  207MOL0     C27825  11.614   0.490   1.225 -0.2499 -0.2221  1.3964
  207MOL0     C27826  11.661   0.629   1.259 -0.2351 -0.7010 -0.5029
  207MOL0     N27827  11.790   0.625   1.333 -0.4864  0.4336 -1.7323
  207MOL0     C27828  11.917   0.613   1.288  0.2761  0.1439  0.1369
  207MOL0     C27829  11.992   0.624   1.397  0.2468  0.0671 -0.6994
  207MOL0     C27830  12.147   0.595   1.393 -0.5444 -0.3616  0.3917
  207MOL0     C27831  12.229   0.699   1.477  0.3239 -0.2318  0.9547
  207MOL0     C27832  12.367   0.639   1.528  0.0573 -0.3450  0.4864
  207MOL0     C27833  12.345   0.528   1.645  0.2380 -1.4863 -0.4112
  207MOL0     O27834  12.454   0.549   1.733 -0.3224  0.4202  1.2320
  207MOL0     C27835  12.579   0.522   1.686  0.8715 -0.1257 -0.8410
  207MOL0     C27836  12.619   0.394   1.645  0.1644 -0.2767  1.1480
  207MOL0     C27837  12.752   0.367   1.613 -0.0542 -0.7267  0.0727
  207MOL0     C27838  12.857   0.465   1.626 -1.1430  1.1484  0.0277
  207MOL0     C27839  12.997   0.429   1.616  0.2155 -0.1897  0.6941
  207MOL0     O27840  13.084   0.526   1.659 -0.1791 -0.2293 -0.4851
  207MOL0     C27841  13.223   0.509   1.672 -0.4557  0.1723  1.0848
  207MOL0     C27842  13.307   0.457   1.569  0.7065  0.1287 -0.2991
  207MOL0     C27843  13.450   0.456   1.567  0.2606 -0.3873 -0.7408
  207MOL0     C27844  13.520   0.522   1.673  0.8116 -0.5371  0.2621
  207MOL0     O27845  13.656   0.528   1.696  0.0627  0.4826  0.2472
  207MOL0     C27846  13.752   0.481   1.600 -0.2469  0.3554  0.3966
  207MOL0     C27847  13.890   0.543   1.629  0.2701  0.3963 -0.1655
  207MOL0     C27848  13.996   0.470   1.544  0.5574 -0.4739  0.6071
  207MOL0     C27849  14.133   0.534   1.583  0.2773  0.1945 -0.0756
  207MOL0     C27850  14.257   0.447   1.546 -0.4794 -0.1568  0.2101
  207MOL0     C27851  14.378   0.532   1.490 -0.0046 -0.8356  0.1710
  207MOL0     C27852  14.353   0.629   1.372 -0.4271 -0.0431  0.6324
  207MOL0     C27853  14.474   0.672   1.283  0.5480  0.6212 -0.8439
  207MOL0    Cl27854  14.553   0.524   1.211  0.1162  0.2160 -0.3012
  207MOL0     C27855  13.429   0.557   1.784  0.2716  1.2418  1.1310
  207MOL0     C27856  13.288   0.561   1.774 -0.9214 -0.9830 -1.0104
  207MOL0     O27857  13.034   0.314   1.583  0.7318  0.3546  0.3723
  207MOL0     C27858  12.807   0.588   1.671 -0.5338 -0.2170 -0.1275
  207MOL0     C27859  12.679   0.625   1.702 -0.0939  0.4853 -0.2470
  207MOL0     N27860  11.913   0.656   1.511 -0.6093  0.0731 -0.1214
  207MOL0     N27861  11.800   0.648   1.462 -0.6445  0.0056 -1.1427
  207MOL0     C27862  10.861   0.670   0.697 -0.4808 -0.2161 -0.1998
  207MOL0     C27863  10.773   0.750   0.626  0.0691  0.7036 -0.9297
  207MOL0     C27864  10.423   1.012   0.538 -0.5467  0.9848 -0.0533
  207MOL0     C27865  10.493   1.124   0.501  1.0876 -0.3018  0.3478
  207MOL0     C27866  10.421   1.240   0.472  0.5696  0.1565  0.0876
  207MOL0     C27867  10.287   1.244   0.449  0.0831 -0.2339 -0.0030
  207MOL0     O27868  10.228   1.368   0.415 -0.4451  0.3945  0.1135
  207MOL0     C27869  10.090   1.389   0.447  0.3636  0.8612  0.9997
  207MOL0     C27870  10.071   1.429   0.598 -0.6852  0.2681  0.8416
  207MOL0     C27871  10.158   1.547   0.631  0.6575 -0.5827  1.1668
  207MOL0     C27872  10.121   1.604   0.764 -0.2830  0.6334 -0.1514
  207MOL0     C27873  10.243   1.663   0.824  0.5060 -0.3934  0.0697
  207MOL0     C27874  10.342   1.726   0.862  1.1909  0.0231 -0.2311
  207MOL0     C27875  10.216   1.127   0.479  0.0650 -0.1284  0.6745
  207MOL0     C27876  10.283   1.006   0.508  0.1420 -0.7493  0.2698
  207MOL0     C27877  10.186   0.894   0.530 -0.4936  0.2042 -0.1140
  207MOL0     H27878  10.641   0.908   0.904  0.3095  2.3075  0.1517
  207MOL0     H27879  10.804   0.755   1.023  0.1861 -1.1067  0.6611
  207MOL0     H27880  11.057   0.412   0.906  0.1275  0.8623  0.5506
  207MOL0     H27881  10.997   0.476   0.747 -1.3359  1.7582 -0.5686
  207MOL0     H27882  11.167   0.641   0.737  1.7776  2.5111  1.9585
  207MOL0     H27883  11.231   0.489   0.741 -0.5237  2.3022 -1.5075
  207MOL0     H27884  11.234   0.685   0.978 -0.7472  0.8481 -1.1694
  207MOL0     H27885  11.371   0.606   0.886 -0.1510  2.4277  1.2327
  207MOL0     H27886  11.171   0.537   1.098 -1.7413 -0.0073 -1.5963
  207MOL0     H27887  11.281   0.398   1.046  3.6115 -0.1536  1.2681
  207MOL0     H27888  11.387   0.648   1.189 -0.0631 -0.4485  2.0864
  207MOL0     H27889  11.349   0.500   1.265 -1.7812 -1.0712  0.4564
  207MOL0     H27890  11.504   0.387   1.085 -0.7924 -0.1724 -0.2126
  207MOL0     H27891  11.539   0.552   1.029 -0.8192  3.1390  1.4552
  207MOL0     H27892  11.705   0.442   1.187 -1.3484 -1.4336  0.1582
  207MOL0     H27893  11.584   0.441   1.318  0.3978  1.5852  2.6016
  207MOL0     H27894  11.685   0.686   1.169  0.5404  0.6265  0.5184
  207MOL0     H27895  11.595   0.697   1.312 -0.4730 -0.4886 -1.0596
  207MOL0     H27896  11.942   0.583   1.187 -0.4714  1.5318 -0.4760
  207MOL0     H27897  12.171   0.493   1.425  1.2355 -1.2009 -3.1250
  207MOL0     H27898  12.183   0.596   1.290 -0.8370  2.2064  0.2453
  207MOL0     H27899  12.241   0.788   1.416  0.6765 -1.5470 -1.0031
  207MOL0     H27900  12.162   0.724   1.560 -1.5440 -3.7680  0.7102
  207MOL0     H27901  12.421   0.724   1.571 -0.7669  1.0399 -1.0853
  207MOL0     H27902  12.425   0.594   1.447  1.2450 -0.6940  1.5065
  207MOL0     H27903  12.339   0.425   1.608 -1.3857 -1.5371 -0.0725
  207MOL0     H27904  12.250   0.557   1.691 -0.4346 -1.4744 -1.7793
  207MOL0     H27905  12.542   0.318   1.649 -0.4981  0.3219  0.3793
  207MOL0     H27906  12.770   0.274   1.560  2.2718  0.2703 -1.0396
  207MOL0     H27907  13.254   0.415   1.484 -2.6006  0.3924  1.4610
  207MOL0     H27908  13.514   0.425   1.486  0.5128  1.5179 -1.3169
  207MOL0     H27909  13.748   0.373   1.614  2.0074  0.2519  0.6538
  207MOL0     H27910  13.714   0.514   1.503 -1.5741  3.1257  1.7716
  207MOL0     H27911  13.876   0.649   1.607 -0.8972  0.4125  0.5619
  207MOL0     H27912  13.903   0.521   1.735  0.7914 -1.8719 -0.6500
  207MOL0     H27913  13.987   0.366   1.576  0.6452 -0.0648  2.0530
  207MOL0     H27914  13.984   0.471   1.435  1.2698  1.8906  0.4942
  207MOL0     H27915  14.144   0.545   1.691  1.7114 -3.1826  0.2667
  207MOL0     H27916  14.136   0.635   1.543  1.1619 -0.2053 -1.0658
  207MOL0     H27917  14.231   0.370   1.473 -0.0527  1.2047 -1.4517
  207MOL0     H27918  14.295   0.405   1.640 -2.2107  1.1164  1.5650
  207MOL0     H27919  14.418   0.597   1.569 -0.8454 -0.1071  0.0190
  207MOL0     H27920  14.459   0.464   1.463 -0.0836 -1.9663  2.5217
  207MOL0     H27921  14.325   0.725   1.416  0.3143  0.6541 -0.3705
  207MOL0     H27922  14.274   0.587   1.310 -0.1207 -0.7876  0.7324
  207MOL0     H27923  14.443   0.747   1.209 -0.8978  0.8130 -0.0974
  207MOL0     H27924  14.543   0.733   1.342 -0.3652  1.8442 -0.9984
  207MOL0     H27925  13.477   0.585   1.878  1.3488 -3.0450  2.0768
  207MOL0     H27926  13.232   0.616   1.850 -0.4941  0.2109 -1.5384
  207MOL0     H27927  12.884   0.660   1.700  0.0623 -0.4024 -1.1720
  207MOL0     H27928  12.656   0.718   1.753 -1.6880  1.0066 -1.8175
  207MOL0     H27929  10.933   0.619   0.633  2.0895  3.8390 -0.9269
  207MOL0     H27930  10.792   0.771   0.522  0.2911 -1.9524 -1.4815
  207MOL0     H27931  10.600   1.142   0.510  0.7520  0.9281  2.3076
  207MOL0     H27932  10.461   1.340   0.458 -1.5088  0.9757 -0.4854
  207MOL0     H27933  10.023   1.303   0.448  0.8539  0.4658  0.2581
  207MOL0     H27934  10.055   1.463   0.374  0.3220 -2.9583 -3.2926
  207MOL0     H27935  10.107   1.352   0.667  0.4734 -0.1497 -0.1957
  207MOL0     H27936   9.968   1.454   0.625 -1.7488 -1.8408 -0.9836
  207MOL0     H27937  10.148   1.617   0.547 -1.5814  0.1432  1.9788
  207MOL0     H27938  10.259   1.508   0.646  0.9430 -0.8333 -0.9733
  207MOL0     H27939  10.049   1.686   0.756 -0.2230  0.7855  0.8175
  207MOL0     H27940  10.083   1.531   0.835 -0.7683  2.2935  1.3757
  207MOL0     H27941  10.429   1.767   0.909 -0.5861  2.4164  1.1839
  207MOL0     H27942  10.108   1.125   0.481  0.0335 -1.1306 -0.6424
  207MOL0     H27943  10.079   0.917   0.519 -0.8060 -0.8544  0.5405
  207MOL0     H27944  10.205   0.800   0.477  0.1405 -1.1925  2.4509
  207MOL0     H27945  10.193   0.849   0.630  1.8303 -0.6216 -0.5918
  208MOL0     O27946   3.527   2.978   5.574 -0.3537 -0.4408  1.2171
  208MOL0     C27947   3.483   3.029   5.683  0.3289  0.5140 -0.4886
  208MOL0     O27948   3.356   3.011   5.738 -0.1176 -0.2162  0.4205
  208MOL0     C27949   3.260   2.930   5.676  0.6532 -0.1470  0.3331
  208MOL0     C27950   3.183   2.860   5.767 -0.5986  0.2180  0.5059
  208MOL0     C27951   3.096   2.772   5.716 -0.5797  0.2562 -0.0787
  208MOL0     C27952   3.072   2.759   5.575  0.8483  0.2747 -0.4910
  208MOL0     O27953   2.983   2.672   5.514  0.3640 -0.5451 -0.6089
  208MOL0     C27954   2.859   2.643   5.586 -1.2855 -0.7268  0.9996
  208MOL0     C27955   2.775   2.769   5.584 -0.6976 -0.0711 -0.1479
  208MOL0     C27956   2.713   2.800   5.450  0.0049  0.6741  0.1414
  208MOL0     C27957   2.816   2.886   5.370  1.0205 -0.4485 -0.2959
  208MOL0     C27958   2.739   2.944   5.253  0.7432 -0.5673 -0.3792
  208MOL0     C27959   2.733   2.854   5.131 -1.0381  0.4051  0.9322
  208MOL0     C27960   2.687   2.941   5.003  0.2766  0.7920 -1.0510
  208MOL0     C27961   2.700   2.869   4.869  0.0006 -0.1945 -0.2533
  208MOL0     N27962   2.579   2.865   4.784 -0.2618  0.1029  0.1773
  208MOL0     C27963   2.593   2.872   4.644  0.9210  0.2098 -0.1618
  208MOL0     C27964   2.466   2.876   4.591  0.2330 -0.4053 -0.3389
  208MOL0     C27965   2.416   2.877   4.453 -0.1907 -0.5338  0.5269
  208MOL0     C27966   2.510   2.960   4.360  0.2088 -0.2757  0.4523
  208MOL0     C27967   2.525   3.104   4.403 -0.2028 -0.4957 -0.1114
  208MOL0     C27968   2.626   3.171   4.306  0.1013 -0.0613  0.1368
  208MOL0     O27969   2.599   3.160   4.168  0.2103 -0.4047  1.0699
  208MOL0     C27970   2.697   3.175   4.066 -0.4360 -0.5647  1.2945
  208MOL0     C27971   2.825   3.226   4.104  0.3818  0.1474  0.4555
  208MOL0     C27972   2.917   3.269   4.001 -0.0050  0.4628  0.1218
  208MOL0     C27973   2.889   3.241   3.866  0.1219 -0.4818 -0.1514
  208MOL0     C27974   2.984   3.286   3.763  0.3286 -0.1022  0.1090
  208MOL0     O27975   3.115   3.309   3.807 -0.0049 -0.4070  0.3282
  208MOL0     C27976   3.232   3.305   3.724 -0.3936 -0.4816  0.9610
  208MOL0     C27977   3.216   3.276   3.586  0.0738  0.3028 -0.6323
  208MOL0     C27978   3.335   3.278   3.502 -0.2140 -0.3869 -0.2426
  208MOL0     C27979   3.461   3.316   3.554  1.1745 -0.5366  0.7826
  208MOL0     O27980   3.574   3.299   3.469  0.4124  0.7694  0.8723
  208MOL0     C27981   3.694   3.274   3.538  0.3771 -0.0579 -0.3461
  208MOL0     C27982   3.798   3.210   3.451  0.1329  1.4800  0.3263
  208MOL0     C27983   3.910   3.158   3.533 -0.9578  0.2532  0.2277
  208MOL0     C27984   4.044   3.152   3.455 -0.4256 -0.6936  0.5442
  208MOL0     C27985   4.122   3.032   3.501 -1.0759 -0.6067 -0.1707
  208MOL0     C27986   4.273   3.059   3.487  1.0076  0.3849  0.3555
  208MOL0     C27987   4.363   2.957   3.543 -0.4456  0.0478 -0.1569
  208MOL0     C27988   4.361   2.814   3.505  0.0497  0.2593 -0.3532
  208MOL0    Cl27989   4.416   2.785   3.342  0.1735  0.0488 -0.0211
  208MOL0     C27990   3.466   3.346   3.690  0.0781 -0.5059 -0.4984
  208MOL0     C27991   3.355   3.342   3.771 -0.4160  0.4368  0.4907
  208MOL0     O27992   2.943   3.300   3.653  0.3270  0.2568 -0.1787
  208MOL0     C27993   2.771   3.184   3.831 -1.1527  0.5025 -0.4001
  208MOL0     C27994   2.680   3.149   3.930  0.1695  0.1560  0.0695
  208MOL0     N27995   2.382   2.846   4.696 -0.7535 -0.3555  0.7471
  208MOL0     N27996   2.442   2.840   4.814  0.3685  0.1384  0.4951
  208MOL0     C27997   3.142   2.837   5.486  0.1715  0.5802 -0.2638
  208MOL0     C27998   3.241   2.923   5.535 -0.1973 -0.1942  0.0914
  208MOL0     C27999   3.586   3.096   5.768 -0.8549  0.8215  0.3619
  208MOL0     C28000   3.713   3.102   5.714 -1.1896 -0.4049  0.0536
  208MOL0     C28001   3.818   3.169   5.784  0.1242 -0.0416  0.6934
  208MOL0     C28002   3.809   3.222   5.907  0.0769  1.1418 -0.4911
  208MOL0     O28003   3.907   3.304   5.950 -0.6955  0.1761  0.0486
  208MOL0     C28004   3.909   3.440   5.892  0.5566  0.0925 -0.3196
  208MOL0     C28005   4.051   3.499   5.890 -0.2432 -0.8149 -0.6305
  208MOL0     C28006   4.113   3.503   6.036  0.9094  1.3637 -0.0954
  208MOL0     C28007   4.253   3.433   6.039  1.0200  0.5338  0.9429
  208MOL0     C28008   4.314   3.454   6.169 -0.1972 -0.7044 -1.0046
  208MOL0     C28009   4.372   3.471   6.281  0.3770  0.1418 -0.4290
  208MOL0     C28010   3.683   3.207   5.971 -0.4193 -0.2008 -0.4234
  208MOL0     C28011   3.569   3.147   5.902 -0.1232  0.6407 -0.0854
  208MOL0     C28012   3.437   3.150   5.983 -0.3191 -0.3974 -0.8123
  208MOL0     H28013   3.189   2.880   5.873 -0.3332 -0.7378  0.6757
  208MOL0     H28014   3.033   2.706   5.776 -0.0085  0.1870  0.4623
  208MOL0     H28015   2.813   2.563   5.527  1.5882 -0.1198 -2.3530
  208MOL0     H28016   2.876   2.614   5.690 -0.2614 -0.8354  0.8117
  208MOL0     H28017   2.843   2.842   5.628  4.0297 -4.2681  0.4200
  208MOL0     H28018   2.690   2.746   5.650  1.0475  0.5639  2.4628
  208MOL0     H28019   2.628   2.868   5.457  2.1087  3.5102 -0.0505
  208MOL0     H28020   2.693   2.709   5.392  3.1592 -0.8427  1.2350
  208MOL0     H28021   2.846   2.962   5.442 -1.7407 -0.6917  1.2687
  208MOL0     H28022   2.900   2.827   5.333  2.2034  0.8700  0.1805
  208MOL0     H28023   2.638   2.972   5.282  1.3057 -0.6848  1.9192
  208MOL0     H28024   2.791   3.038   5.230  0.8776  0.7855  4.4007
  208MOL0     H28025   2.827   2.803   5.109 -1.3107  0.1618  0.3108
  208MOL0     H28026   2.658   2.780   5.163 -0.8723  0.4885  1.5151
  208MOL0     H28027   2.737   3.038   4.996  2.6886 -0.5347 -4.5495
  208MOL0     H28028   2.581   2.966   5.012 -0.1064 -0.5032 -1.8277
  208MOL0     H28029   2.784   2.914   4.816 -0.2936  1.9709  1.0243
  208MOL0     H28030   2.725   2.764   4.888 -1.0456 -0.1969  1.3370
  208MOL0     H28031   2.686   2.879   4.588  0.7978 -1.7727 -0.7098
  208MOL0     H28032   2.393   2.777   4.416 -0.3538  0.0675 -1.0698
  208MOL0     H28033   2.318   2.923   4.465  0.2239  0.1991  1.1923
  208MOL0     H28034   2.607   2.909   4.359 -0.4889 -1.7159  2.1566
  208MOL0     H28035   2.454   2.950   4.266 -2.4752 -3.6756  2.1739
  208MOL0     H28036   2.570   3.110   4.503 -1.2235 -1.3140  0.4181
  208MOL0     H28037   2.430   3.155   4.388 -0.6260 -0.6630  1.7132
  208MOL0     H28038   2.721   3.119   4.322  1.0443  1.8522  1.1801
  208MOL0     H28039   2.653   3.273   4.338 -0.5671  1.0372 -2.5360
  208MOL0     H28040   2.844   3.243   4.210  2.1047  1.0622  0.0243
  208MOL0     H28041   2.997   3.334   4.035 -0.6744  1.7884 -0.7464
  208MOL0     H28042   3.125   3.249   3.532 -0.7386  0.3421  0.6848
  208MOL0     H28043   3.322   3.259   3.396 -0.0128  2.6353 -0.9129
  208MOL0     H28044   3.737   3.363   3.586  0.5217 -0.4249  0.2166
  208MOL0     H28045   3.683   3.200   3.619  1.0302  3.4185  3.2366
  208MOL0     H28046   3.750   3.128   3.396 -0.1813  2.0338 -0.2288
  208MOL0     H28047   3.827   3.283   3.375 -0.0310 -0.6409 -1.9015
  208MOL0     H28048   3.926   3.213   3.626 -0.4629  0.6702 -0.1022
  208MOL0     H28049   3.894   3.053   3.558  0.0026 -0.6076 -2.4438
  208MOL0     H28050   4.109   3.237   3.475  1.4708 -2.0204  0.2461
  208MOL0     H28051   4.016   3.147   3.349 -5.3966  1.4553  1.4657
  208MOL0     H28052   4.103   2.935   3.453  1.8799 -2.5141  2.1798
  208MOL0     H28053   4.098   3.005   3.605  1.2629 -1.1869  0.2642
  208MOL0     H28054   4.288   3.051   3.379 -0.7507 -0.5585  0.1419
  208MOL0     H28055   4.292   3.158   3.529 -2.5510  1.3447  0.0089
  208MOL0     H28056   4.358   2.953   3.652  2.5428 -0.0564  0.0539
  208MOL0     H28057   4.467   2.984   3.522 -0.4763  1.1869  0.9982
  208MOL0     H28058   4.411   2.745   3.574  0.0270 -2.2205 -2.6598
  208MOL0     H28059   4.260   2.773   3.509 -0.2195  0.6690 -2.2399
  208MOL0     H28060   3.561   3.343   3.743 -1.1859  2.2660  2.2227
  208MOL0     H28061   3.362   3.351   3.879 -1.5237  1.2342  0.5093
  208MOL0     H28062   2.769   3.145   3.730  2.8721 -2.0086  0.2249
  208MOL0     H28063   2.584   3.106   3.902  0.1592 -0.8577  1.5496
  208MOL0     H28064   3.116   2.829   5.381 -1.6787 -0.7423  0.2416
  208MOL0     H28065   3.310   2.985   5.479 -0.5139  1.0850  1.0635
  208MOL0     H28066   3.742   3.064   5.617  4.9780 -3.3523  2.5072
  208MOL0     H28067   3.920   3.166   5.746  0.6761  0.3556  2.0627
  208MOL0     H28068   3.856   3.505   5.963  0.6135 -1.6185  1.3860
  208MOL0     H28069   3.867   3.443   5.791 -0.3333 -0.9798 -0.0086
  208MOL0     H28070   4.051   3.603   5.858  1.1925 -0.0219  1.6573
  208MOL0     H28071   4.120   3.437   5.832  1.9146  1.8265 -1.0503
  208MOL0     H28072   4.042   3.455   6.104 -1.3575  3.3890 -0.8742
  208MOL0     H28073   4.129   3.606   6.068 -2.0642  1.4353  1.5672
  208MOL0     H28074   4.247   3.327   6.012  1.3830  1.1642 -2.0515
  208MOL0     H28075   4.314   3.477   5.959  0.4684  1.2952  0.9304
  208MOL0     H28076   4.414   3.496   6.376  0.2502  1.6076 -0.7386
  208MOL0     H28077   3.660   3.254   6.066 -1.1412 -2.2587  0.4658
  208MOL0     H28078   3.416   3.044   5.994  1.0478 -0.9477 -2.8783
  208MOL0     H28079   3.439   3.193   6.084 -3.2918 -1.5598 -0.1482
  208MOL0     H28080   3.360   3.213   5.937  0.6617  0.7319 -0.9694
  209MOL0     O28081   3.232   9.873   3.932 -0.1915 -0.0323 -0.6264
  209MOL0     C28082   3.200   9.774   3.863 -0.1057 -0.6227  0.0640
  209MOL0     O28083   3.201   9.644   3.908  0.1125  0.3767 -0.3724
  209MOL0     C28084   3.293   9.608   4.000  0.8671 -0.3160 -0.5383
  209MOL0     C28085   3.428   9.636   3.981  0.3704 -0.4874 -0.1024
  209MOL0     C28086   3.520   9.574   4.071 -1.2054 -0.7662 -0.2080
  209MOL0     C28087   3.478   9.484   4.173 -0.3400  0.0363  0.0016
  209MOL0     O28088   3.567   9.413   4.247 -0.6748 -0.7808  0.2946
  209MOL0     C28089   3.706   9.449   4.242 -0.5820 -0.4090  0.2243
  209MOL0     C28090   3.786   9.369   4.336 -0.4244  0.4438  0.4204
  209MOL0     C28091   3.938   9.387   4.309  0.0162  0.1605  0.3983
  209MOL0     C28092   4.033   9.367   4.438  0.1407 -0.5219  0.6611
  209MOL0     C28093   4.174   9.414   4.410 -0.3828  0.6470  0.1041
  209MOL0     C28094   4.262   9.411   4.530 -0.4213 -0.8197  0.0408
  209MOL0     C28095   4.219   9.506   4.646 -0.1527  0.0583 -0.7287
  209MOL0     C28096   4.195   9.651   4.606  0.0754 -0.2650  0.6364
  209MOL0     N28097   4.313   9.718   4.550 -0.1617  0.1518  0.8058
  209MOL0     C28098   4.432   9.725   4.616  0.4026 -0.6383  0.4099
  209MOL0     C28099   4.529   9.730   4.527  0.3428  0.3647  0.7295
  209MOL0     C28100   4.677   9.730   4.538  0.1044  1.5539  0.0620
  209MOL0     C28101   4.715   9.587   4.530 -0.4804 -0.2168  0.4433
  209MOL0     C28102   4.870   9.571   4.499  1.2525 -1.4386  0.2319
  209MOL0     C28103   4.911   9.431   4.495  0.0345  0.4989 -0.2482
  209MOL0     O28104   5.042   9.414   4.435  0.2350 -0.7093 -0.4575
  209MOL0     C28105   5.156   9.385   4.505  0.6503 -0.1048  0.1998
  209MOL0     C28106   5.236   9.284   4.452 -0.5112  0.8845 -0.1158
  209MOL0     C28107   5.348   9.240   4.532 -0.5909 -0.1052  0.4500
  209MOL0     C28108   5.363   9.296   4.656  0.4216 -0.3200  0.4461
  209MOL0     C28109   5.486   9.274   4.735 -0.2511 -0.3513  0.0651
  209MOL0     O28110   5.591   9.225   4.667  0.1906  0.6696  0.0730
  209MOL0     C28111   5.712   9.275   4.713 -1.0001  0.5908 -0.1161
  209MOL0     C28112   5.769   9.223   4.833  0.4177 -0.4299  0.9137
  209MOL0     C28113   5.893   9.272   4.887 -0.7085  0.3750  0.5503
  209MOL0     C28114   5.961   9.373   4.813 -0.3241  0.1939  0.5128
  209MOL0     O28115   6.085   9.410   4.840  0.3864 -0.7534 -0.0835
  209MOL0     C28116   6.182   9.313   4.817 -1.1201  0.4865  0.8229
  209MOL0     C28117   6.309   9.379   4.762 -0.3827 -0.3508 -1.2947
  209MOL0     C28118   6.394   9.463   4.869  0.1595 -0.2726  0.3583
  209MOL0     C28119   6.389   9.617   4.833 -0.2901 -0.6778 -0.0222
  209MOL0     C28120   6.422   9.719   4.953  0.4501  0.6673  0.1653
  209MOL0     C28121   6.535   9.663   5.040  0.0598  0.0745 -0.5266
  209MOL0     C28122   6.610   9.781   5.106 -0.5669 -0.2211 -1.1504
  209MOL0     C28123   6.729   9.824   5.009 -0.1684  0.8716  0.5925
  209MOL0    Cl28124   6.866   9.704   5.019  0.5662 -0.1881  0.9935
  209MOL0     C28125   5.907   9.433   4.699 -0.7316 -1.2975  0.4380
  209MOL0     C28126   5.787   9.381   4.646  0.5320 -0.3693  0.3385
  209MOL0     O28127   5.477   9.302   4.852  0.5554  0.3255 -0.5459
  209MOL0     C28128   5.275   9.393   4.699 -0.2335 -0.0513 -0.4216
  209MOL0     C28129   5.172   9.439   4.627  0.0101  0.5089 -0.0848
  209MOL0     N28130   4.467   9.736   4.400 -0.0455  1.1344 -0.2278
  209MOL0     N28131   4.344   9.727   4.414  0.0191  0.1630 -0.3505
  209MOL0     C28132   3.341   9.464   4.188  0.4337 -0.6031 -0.0544
  209MOL0     C28133   3.247   9.530   4.107  0.0741  0.6991  0.8215
  209MOL0     C28134   3.134   9.803   3.729 -0.6800  0.3072 -0.0105
  209MOL0     C28135   3.099   9.940   3.694 -0.6038  0.0425  0.1426
  209MOL0     C28136   3.021   9.976   3.582  0.0038 -0.7437  0.1303
  209MOL0     C28137   2.985   9.870   3.493  0.7219 -1.2480  0.0667
  209MOL0     O28138   2.925   9.874   3.368  0.1034 -0.5693  0.0773
  209MOL0     C28139   2.871  10.002   3.338 -0.4795  0.4431  0.8679
  209MOL0     C28140   2.797   9.997   3.197  0.9843  0.2945  0.4109
  209MOL0     C28141   2.851  10.102   3.100 -1.0377  0.7838  0.7617
  209MOL0     C28142   2.794  10.247   3.119  0.1836  0.5917 -0.2296
  209MOL0     C28143   2.884  10.354   3.098 -0.1198  0.1000 -0.5003
  209MOL0     C28144   2.967  10.435   3.075 -0.0574  1.0276  0.0577
  209MOL0     C28145   3.023   9.739   3.520 -0.8279 -0.3444 -0.1907
  209MOL0     C28146   3.099   9.705   3.631 -0.5666  0.5065  0.0307
  209MOL0     C28147   3.123   9.558   3.642 -1.0064  0.2273 -0.3062
  209MOL0     H28148   3.464   9.712   3.913  1.3339 -1.1079 -0.3070
  209MOL0     H28149   3.622   9.605   4.052 -0.8745  0.6930  3.2677
  209MOL0     H28150   3.724   9.436   4.134  2.0694  0.6571  0.4596
  209MOL0     H28151   3.719   9.553   4.276  0.2961 -0.6875  0.7830
  209MOL0     H28152   3.760   9.263   4.323 -0.9031  0.1293  3.2818
  209MOL0     H28153   3.771   9.395   4.441  0.6412 -0.2438  0.7627
  209MOL0     H28154   3.969   9.488   4.280  1.4505 -0.4975 -0.4579
  209MOL0     H28155   3.971   9.326   4.225 -0.7984 -0.3280  0.4139
  209MOL0     H28156   3.996   9.420   4.527  2.0037 -0.8628  1.6834
  209MOL0     H28157   4.034   9.261   4.465 -3.8527 -1.0830 -0.6190
  209MOL0     H28158   4.223   9.345   4.341  0.7748 -1.4169  2.7917
  209MOL0     H28159   4.178   9.512   4.362 -1.2094  0.4339 -0.4212
  209MOL0     H28160   4.268   9.309   4.568  0.3576 -1.3324 -1.3716
  209MOL0     H28161   4.360   9.447   4.497 -1.2727  0.9833 -0.6460
  209MOL0     H28162   4.297   9.503   4.722 -0.9423 -0.8886  0.0580
  209MOL0     H28163   4.131   9.465   4.695 -1.2126  2.0833 -0.8342
  209MOL0     H28164   4.112   9.676   4.540 -0.0042  0.7674  1.1167
  209MOL0     H28165   4.169   9.706   4.696  2.5059 -1.6210  2.2885
  209MOL0     H28166   4.460   9.713   4.720  1.3811 -2.6593 -0.0461
  209MOL0     H28167   4.715   9.781   4.449  0.1021 -0.7940 -1.3522
  209MOL0     H28168   4.717   9.763   4.634  0.2633 -1.7679  1.2761
  209MOL0     H28169   4.703   9.528   4.622  0.5859  0.1105  0.8066
  209MOL0     H28170   4.660   9.536   4.451 -0.6323  0.6082  0.0104
  209MOL0     H28171   4.927   9.618   4.580  1.9381  0.4837 -1.3192
  209MOL0     H28172   4.896   9.625   4.408  4.9839 -1.3122  1.2319
  209MOL0     H28173   4.837   9.382   4.431 -0.8313 -0.2724  1.3031
  209MOL0     H28174   4.913   9.387   4.595 -3.8241  1.9422  0.6281
  209MOL0     H28175   5.217   9.231   4.360  0.3740  0.2024  0.0818
  209MOL0     H28176   5.422   9.173   4.491 -2.0914 -0.0887 -2.6292
  209MOL0     H28177   5.718   9.150   4.895  1.9516  0.3156  3.1713
  209MOL0     H28178   5.941   9.231   4.976  0.3423 -0.1469 -0.2348
  209MOL0     H28179   6.205   9.268   4.914  2.1534 -0.7066 -0.3781
  209MOL0     H28180   6.150   9.230   4.754  3.3908 -2.1772  1.6321
  209MOL0     H28181   6.374   9.298   4.727  1.9189 -0.0774  1.8376
  209MOL0     H28182   6.284   9.443   4.677 -0.5696 -0.8213 -1.6004
  209MOL0     H28183   6.339   9.450   4.963 -2.9114 -0.6085 -1.3863
  209MOL0     H28184   6.498   9.430   4.879  0.6300  1.5951  2.8331
  209MOL0     H28185   6.293   9.647   4.789  0.8726  0.9074 -1.6120
  209MOL0     H28186   6.471   9.638   4.764  2.1773 -2.1178  2.2547
  209MOL0     H28187   6.333   9.734   5.014  0.0921 -0.1995 -0.1286
  209MOL0     H28188   6.448   9.815   4.908  0.2916  0.8329  0.4308
  209MOL0     H28189   6.490   9.590   5.108 -0.9336  1.0047 -0.1564
  209MOL0     H28190   6.603   9.600   4.981 -1.0651 -0.4423 -1.3099
  209MOL0     H28191   6.644   9.745   5.204  0.6914  0.4631 -1.3070
  209MOL0     H28192   6.541   9.865   5.120 -1.7036 -1.2707 -0.3068
  209MOL0     H28193   6.693   9.842   4.907  0.4942  2.3239  0.5789
  209MOL0     H28194   6.760   9.920   5.051  0.2213  0.5480  1.0511
  209MOL0     H28195   5.959   9.510   4.643 -0.1906 -1.3213  0.9059
  209MOL0     H28196   5.757   9.424   4.551  2.8560  0.5769 -0.0490
  209MOL0     H28197   5.294   9.450   4.789  0.3427 -2.7626  1.3134
  209MOL0     H28198   5.119   9.518   4.680 -1.2399 -0.0578 -0.4384
  209MOL0     H28199   3.298   9.406   4.269  1.0451  3.4016  3.5189
  209MOL0     H28200   3.142   9.502   4.118  0.1270  0.2565  0.2798
  209MOL0     H28201   3.135  10.016   3.762  1.2997 -2.0027  1.5602
  209MOL0     H28202   3.018  10.083   3.563 -0.8481 -0.9880 -1.2097
  209MOL0     H28203   2.949  10.078   3.338 -2.7067  2.8954 -0.7647
  209MOL0     H28204   2.791  10.027   3.409 -1.2988 -0.7661  0.4137
  209MOL0     H28205   2.694  10.020   3.227  0.6862 -1.8409  1.1727
  209MOL0     H28206   2.794   9.896   3.155  2.2454  0.4434 -0.0754
  209MOL0     H28207   2.827  10.063   3.001  0.4650  2.5728 -0.3759
  209MOL0     H28208   2.960  10.110   3.099 -1.0591  1.2814 -0.9918
  209MOL0     H28209   2.712  10.263   3.048 -0.0174  2.3538  0.3455
  209MOL0     H28210   2.745  10.259   3.216  0.3333  1.0470 -0.2055
  209MOL0     H28211   3.052  10.500   3.067  0.3748  0.3015 -2.1111
  209MOL0     H28212   2.998   9.657   3.453 -2.5390  0.3954 -0.5163
  209MOL0     H28213   3.068   9.526   3.731 -2.6574  0.2535 -1.2745
  209MOL0     H28214   3.106   9.503   3.549 -2.2461  0.4115 -0.1997
  209MOL0     H28215   3.230   9.550   3.665 -0.3120  3.5265 -1.7641
  210MOL0     O28216   8.127   5.370   2.349  0.2059  0.3344  0.2943
  210MOL0     C28217   8.146   5.391   2.466 -0.0795  0.6363 -0.1271
  210MOL0     O28218   8.258   5.364   2.535 -0.3664  0.7309 -0.2296
  210MOL0     C28219   8.334   5.247   2.523  0.0996  0.3552 -1.1082
  210MOL0     C28220   8.467   5.255   2.551  0.2402  0.7478 -0.1333
  210MOL0     C28221   8.539   5.138   2.552  0.3551 -0.2108  0.3542
  210MOL0     C28222   8.485   5.008   2.534 -1.3508  0.3783 -0.1227
  210MOL0     O28223   8.571   4.900   2.536 -0.4371 -0.0377  0.5383
  210MOL0     C28224   8.530   4.793   2.615  1.0832 -0.6801  0.2574
  210MOL0     C28225   8.651   4.710   2.653  0.9302 -0.4013 -0.3405
  210MOL0     C28226   8.783   4.798   2.678  0.2718 -0.5382 -0.0624
  210MOL0     C28227   8.884   4.695   2.745 -0.6022  0.1660 -0.7784
  210MOL0     C28228   9.024   4.765   2.723  0.1639 -0.8028  0.4500
  210MOL0     C28229   9.138   4.687   2.782  0.3596  0.6631  0.6181
  210MOL0     C28230   9.281   4.726   2.739  0.0483  0.0282 -0.7761
  210MOL0     C28231   9.305   4.878   2.769  1.0584  0.9688 -0.0290
  210MOL0     N28232   9.324   4.897   2.912 -0.3237  0.3431 -0.5149
  210MOL0     C28233   9.441   4.872   2.974 -0.2072 -0.2454 -0.2297
  210MOL0     C28234   9.415   4.862   3.111 -1.5404  0.1100 -0.8859
  210MOL0     C28235   9.516   4.846   3.230  0.3378 -0.4834 -0.8816
  210MOL0     C28236   9.597   4.974   3.227 -0.3190  0.0286  0.6892
  210MOL0     C28237   9.715   4.965   3.320  1.2676  0.1839  0.0947
  210MOL0     C28238   9.835   4.895   3.263 -0.1152  0.3679  1.0306
  210MOL0     O28239   9.949   4.923   3.333 -0.1081  0.0651 -0.4531
  210MOL0     C28240  10.045   5.015   3.291  0.6540  0.2199  0.5769
  210MOL0     C28241  10.026   5.117   3.195  0.9954 -0.8509  0.4200
  210MOL0     C28242  10.130   5.207   3.157 -0.1349  0.0139 -0.5422
  210MOL0     C28243  10.258   5.189   3.212  0.2773  0.0778  0.3025
  210MOL0     C28244  10.368   5.265   3.158 -0.6945 -0.4234  0.5512
  210MOL0     O28245  10.487   5.263   3.229 -0.2603 -0.5282  0.0017
  210MOL0     C28246  10.606   5.306   3.176  0.0681  0.2150  0.3879
  210MOL0     C28247  10.727   5.274   3.245  0.0204  0.3803 -0.2166
  210MOL0     C28248  10.851   5.319   3.203 -0.0387  0.4658  1.3593
  210MOL0     C28249  10.862   5.419   3.100  0.5170  0.0710 -0.7290
  210MOL0     O28250  10.981   5.461   3.048  0.0091  0.3329  0.3695
  210MOL0     C28251  11.092   5.364   3.044 -0.4074 -0.9175 -0.2149
  210MOL0     C28252  11.196   5.442   2.978 -1.0814 -0.6684  0.7564
  210MOL0     C28253  11.324   5.366   2.929 -0.5407 -0.4979  0.2302
  210MOL0     C28254  11.297   5.282   2.796 -0.6268 -0.0253 -0.0376
  210MOL0     C28255  11.422   5.276   2.708 -0.0833 -0.6730  0.0438
  210MOL0     C28256  11.535   5.198   2.786  0.4455 -0.1829 -0.0924
  210MOL0     C28257  11.664   5.206   2.712  0.3533  0.1337 -0.4114
  210MOL0     C28258  11.779   5.110   2.747 -0.4992  0.4463  0.0608
  210MOL0    Cl28259  11.748   4.948   2.682 -0.2231  0.0140 -0.1526
  210MOL0     C28260  10.749   5.460   3.039  0.5529 -0.4918  0.0870
  210MOL0     C28261  10.620   5.405   3.076 -0.5299  0.0432 -0.1346
  210MOL0     O28262  10.357   5.320   3.055  0.7160  0.3096  0.2581
  210MOL0     C28263  10.270   5.111   3.323  0.5043  1.0255  0.1702
  210MOL0     C28264  10.165   5.015   3.353  0.6505 -0.9659 -0.6687
  210MOL0     N28265   9.276   4.868   3.125  0.1221  0.2511 -0.1480
  210MOL0     N28266   9.221   4.897   3.011 -0.4632  0.1258 -0.2803
  210MOL0     C28267   8.349   4.998   2.508 -0.0136  0.0720  0.1771
  210MOL0     C28268   8.274   5.114   2.506  0.6051 -0.2676 -0.4158
  210MOL0     C28269   8.052   5.492   2.531 -0.9025 -0.3799 -0.4287
  210MOL0     C28270   8.105   5.606   2.598 -0.0315 -0.5434  0.6339
  210MOL0     C28271   8.023   5.710   2.643  0.2814  0.5471  1.0158
  210MOL0     C28272   7.888   5.702   2.628  0.7442 -0.3942  0.1269
  210MOL0     O28273   7.813   5.815   2.669  0.3190 -0.7384 -0.3036
  210MOL0     C28274   7.680   5.788   2.703  0.2504 -0.3083 -0.6702
  210MOL0     C28275   7.570   5.807   2.608  0.2277  0.3959  0.3703
  210MOL0     C28276   7.559   5.953   2.561  1.3529  0.3209 -0.2210
  210MOL0     C28277   7.489   5.993   2.435 -0.1243 -0.0335  0.2795
  210MOL0     C28278   7.365   5.922   2.407  0.1906 -0.3589 -0.8361
  210MOL0     C28279   7.266   5.848   2.394 -0.0098 -0.4188 -0.0223
  210MOL0     C28280   7.826   5.587   2.568  0.4845  0.2723 -0.5084
  210MOL0     C28281   7.907   5.481   2.519 -0.1146 -0.1006 -0.3435
  210MOL0     C28282   7.823   5.370   2.448 -0.2283  0.0717  0.2398
  210MOL0     H28283   8.509   5.352   2.575 -1.8402  1.4915  0.7778
  210MOL0     H28284   8.646   5.131   2.567  0.8190 -1.9800 -2.9942
  210MOL0     H28285   8.479   4.832   2.704  1.2408 -1.1771  0.5697
  210MOL0     H28286   8.464   4.728   2.556 -0.2503  0.7675  0.0876
  210MOL0     H28287   8.669   4.635   2.576 -2.9832 -0.9824 -0.8823
  210MOL0     H28288   8.626   4.654   2.743  2.6081 -0.1578  0.3083
  210MOL0     H28289   8.752   4.885   2.737  0.3003 -0.3232 -0.3604
  210MOL0     H28290   8.831   4.840   2.589 -0.1450  1.8022  0.7282
  210MOL0     H28291   8.869   4.676   2.851  2.3536 -0.0030 -0.2940
  210MOL0     H28292   8.882   4.595   2.700 -0.9975  0.9533 -2.5906
  210MOL0     H28293   9.039   4.789   2.618  2.5547 -0.8421  0.7287
  210MOL0     H28294   9.016   4.867   2.764 -4.7490  0.0944 -1.9225
  210MOL0     H28295   9.136   4.676   2.891 -1.4918 -1.0037  0.4687
  210MOL0     H28296   9.122   4.590   2.735 -2.0779  1.8125 -1.1342
  210MOL0     H28297   9.309   4.711   2.634 -0.9293  4.6565 -1.9372
  210MOL0     H28298   9.354   4.669   2.797  1.1338 -0.7305 -2.7816
  210MOL0     H28299   9.387   4.914   2.706  1.0494 -2.1711 -2.0474
  210MOL0     H28300   9.211   4.924   2.737 -0.9686 -0.7088  3.0196
  210MOL0     H28301   9.538   4.878   2.925 -0.1919 -0.9357 -0.2873
  210MOL0     H28302   9.457   4.830   3.321 -0.9435 -1.3339 -1.8255
  210MOL0     H28303   9.591   4.766   3.220  0.7977 -0.1727 -0.0612
  210MOL0     H28304   9.638   4.996   3.128 -1.1430 -1.2218  0.0395
  210MOL0     H28305   9.540   5.064   3.252  0.3751  0.2278  1.5674
  210MOL0     H28306   9.688   4.915   3.413  0.5860 -0.0822 -0.2368
  210MOL0     H28307   9.745   5.066   3.345  3.2139  0.1565 -1.7966
  210MOL0     H28308   9.848   4.917   3.156  0.1992 -0.1668  0.9554
  210MOL0     H28309   9.819   4.787   3.268  0.4548  0.3402  3.2501
  210MOL0     H28310   9.933   5.131   3.141  0.6487 -4.4080 -0.2031
  210MOL0     H28311  10.104   5.274   3.075  0.4257  0.7264 -0.1411
  210MOL0     H28312  10.722   5.185   3.306  2.0189  0.3737  0.0204
  210MOL0     H28313  10.938   5.272   3.248 -0.5935  0.1734  2.1360
  210MOL0     H28314  11.118   5.335   3.146 -1.6332 -0.0552  0.3825
  210MOL0     H28315  11.058   5.280   2.984 -1.1792 -1.2879  0.7099
  210MOL0     H28316  11.136   5.482   2.895  0.7267  0.3243 -0.1119
  210MOL0     H28317  11.224   5.521   3.048 -2.1689  0.1241  0.3393
  210MOL0     H28318  11.399   5.443   2.911 -1.6119  0.6434  0.5324
  210MOL0     H28319  11.359   5.301   3.010  0.4189 -2.4281 -1.6495
  210MOL0     H28320  11.221   5.347   2.752 -1.5426 -0.7201  0.4792
  210MOL0     H28321  11.253   5.183   2.811 -3.4614  1.2585  0.8808
  210MOL0     H28322  11.453   5.375   2.671 -1.3238 -0.6022 -0.8723
  210MOL0     H28323  11.399   5.213   2.623 -3.3892  2.1191 -1.3788
  210MOL0     H28324  11.548   5.246   2.884 -1.1971 -1.9220  1.0666
  210MOL0     H28325  11.492   5.099   2.804 -0.8183  0.6337  1.8603
  210MOL0     H28326  11.699   5.308   2.729 -1.0020  0.3459  1.4848
  210MOL0     H28327  11.646   5.200   2.605  2.6866  0.4020 -0.8796
  210MOL0     H28328  11.877   5.145   2.714 -1.1033  1.6620 -0.4912
  210MOL0     H28329  11.793   5.098   2.855  1.5423  0.2105 -0.1993
  210MOL0     H28330  10.754   5.535   2.960 -1.2265 -1.1808 -0.7209
  210MOL0     H28331  10.541   5.429   3.006 -0.5887 -0.1534 -0.1352
  210MOL0     H28332  10.359   5.101   3.384  0.8586 -3.5423 -0.7746
  210MOL0     H28333  10.176   4.946   3.436 -0.4350  0.1525  0.4525
  210MOL0     H28334   8.299   4.904   2.488  0.2565  0.1347 -0.8230
  210MOL0     H28335   8.167   5.095   2.508  0.7184 -0.9002  0.5593
  210MOL0     H28336   8.212   5.612   2.613 -0.0067  1.7167 -0.0631
  210MOL0     H28337   8.068   5.807   2.659 -0.2244  1.0847 -0.5587
  210MOL0     H28338   7.655   5.852   2.787  0.0651  2.0178 -2.3963
  210MOL0     H28339   7.664   5.682   2.727 -1.8360  0.0469 -0.3175
  210MOL0     H28340   7.475   5.774   2.653  0.1652  2.2879  1.7407
  210MOL0     H28341   7.593   5.748   2.519 -0.5261  1.7619 -0.7667
  210MOL0     H28342   7.654   6.007   2.552  1.0905  0.8114 -0.0735
  210MOL0     H28343   7.517   6.006   2.647 -1.8556 -2.5310  0.1866
  210MOL0     H28344   7.473   6.100   2.446 -2.0051 -0.2236 -0.2513
  210MOL0     H28345   7.552   5.974   2.347  3.3995  1.7894  2.1702
  210MOL0     H28346   7.181   5.786   2.373 -1.7033  0.9732  2.2581
  210MOL0     H28347   7.720   5.577   2.550  0.8485 -2.2096 -1.6355
  210MOL0     H28348   7.754   5.324   2.519 -0.1601  0.0443  0.2889
  210MOL0     H28349   7.775   5.417   2.362  1.6292 -0.7115 -1.3139
  210MOL0     H28350   7.886   5.286   2.415 -0.8572 -0.5818  0.6845
  211MOL0     O28351   1.566  10.644   7.001 -0.0742 -0.1994  0.8909
  211MOL0     C28352   1.512  10.539   7.035  0.1448  1.2357  0.8358
  211MOL0     O28353   1.571  10.407   7.029  0.1562  0.7111 -0.0625
  211MOL0     C28354   1.680  10.393   6.948 -0.9037 -1.3702  0.0702
  211MOL0     C28355   1.805  10.451   6.985  0.1432  0.4600 -0.4310
  211MOL0     C28356   1.922  10.427   6.896 -0.5169 -0.9786  1.4168
  211MOL0     C28357   1.908  10.356   6.777 -0.6785 -0.8742  0.2988
  211MOL0     O28358   2.014  10.319   6.700 -0.5020 -0.6841 -0.3380
  211MOL0     C28359   1.992  10.336   6.553 -0.5474 -0.6651 -0.0888
  211MOL0     C28360   2.131  10.335   6.501 -0.2539 -0.1672 -0.0759
  211MOL0     C28361   2.191  10.198   6.521 -0.4645 -0.3079 -0.0439
  211MOL0     C28362   2.337  10.203   6.460 -0.1961  0.8746  0.9784
  211MOL0     C28363   2.411  10.076   6.503 -0.0306  0.3376  0.2548
  211MOL0     C28364   2.551  10.086   6.431  0.1152  0.0171  0.6369
  211MOL0     C28365   2.649   9.971   6.441 -0.1226  0.0926 -0.4747
  211MOL0     C28366   2.677   9.943   6.593  0.3133 -0.5226 -0.4731
  211MOL0     N28367   2.795   9.874   6.622 -1.1656 -0.2700 -0.6850
  211MOL0     C28368   2.924   9.907   6.574 -0.1174 -0.4223  0.8052
  211MOL0     C28369   3.000   9.804   6.634  0.1663 -0.3051 -0.1074
  211MOL0     C28370   3.155   9.792   6.619  0.5925 -0.1312  0.0366
  211MOL0     C28371   3.226   9.868   6.735  0.2584  0.2747 -0.7440
  211MOL0     C28372   3.367   9.817   6.737  0.9424 -0.1029  0.1292
  211MOL0     C28373   3.377   9.680   6.798 -0.0726  0.4240 -0.6117
  211MOL0     O28374   3.522   9.649   6.802 -0.1138  0.5220  0.1776
  211MOL0     C28375   3.580   9.568   6.708 -0.4459  0.3303 -0.0171
  211MOL0     C28376   3.718   9.544   6.739 -0.6006  0.0917  0.3107
  211MOL0     C28377   3.794   9.465   6.650  1.5961  0.0264  0.9989
  211MOL0     C28378   3.745   9.421   6.521  0.0876 -0.2894 -1.0439
  211MOL0     C28379   3.832   9.334   6.429  0.0911 -0.2712  0.6448
  211MOL0     O28380   3.961   9.313   6.470 -0.1429  0.1201 -0.4541
  211MOL0     C28381   4.043   9.221   6.414 -0.7727  0.6364  0.1935
  211MOL0     C28382   4.166   9.227   6.484 -0.0649 -0.4067  0.6482
  211MOL0     C28383   4.271   9.145   6.448  0.4456  0.2527  0.3393
  211MOL0     C28384   4.250   9.041   6.348  0.1322  0.4450  1.0510
  211MOL0     O28385   4.346   8.946   6.308  0.1181  0.3853 -0.1291
  211MOL0     C28386   4.481   8.974   6.346  0.1661  0.6550 -0.5284
  211MOL0     C28387   4.578   8.866   6.309  1.2979 -0.1953  0.3762
  211MOL0     C28388   4.711   8.909   6.375  0.6941 -0.3416 -0.2262
  211MOL0     C28389   4.819   8.808   6.346  0.0113 -0.2596 -0.5674
  211MOL0     C28390   4.953   8.846   6.406 -0.7668  0.5730 -0.2825
  211MOL0     C28391   5.054   8.729   6.386  0.3039  0.0857 -0.9105
  211MOL0     C28392   5.200   8.761   6.390  0.0865 -0.1050  1.0049
  211MOL0     C28393   5.252   8.855   6.286  0.5950 -0.0280 -0.1304
  211MOL0    Cl28394   5.233   8.764   6.137 -0.1792 -0.0746 -0.4621
  211MOL0     C28395   4.123   9.033   6.296  0.1455 -0.4464  0.0457
  211MOL0     C28396   4.020   9.124   6.313  0.6544 -0.5981 -0.7599
  211MOL0     O28397   3.782   9.291   6.324 -0.0654 -0.2399 -0.2622
  211MOL0     C28398   3.613   9.433   6.506 -0.1579 -0.2174  0.2269
  211MOL0     C28399   3.529   9.503   6.591 -0.0238  0.0669 -0.3478
  211MOL0     N28400   2.929   9.728   6.721 -0.2224 -0.4575  0.0385
  211MOL0     N28401   2.814   9.788   6.726 -0.8792 -0.1112  0.4441
  211MOL0     C28402   1.782  10.305   6.753  0.0730  0.7225  0.7392
  211MOL0     C28403   1.671  10.327   6.832  0.3928  0.8943 -0.0290
  211MOL0     C28404   1.386  10.557   7.092  0.5823  0.3523  0.3307
  211MOL0     C28405   1.277  10.508   7.021 -0.9047  0.0684 -1.3097
  211MOL0     C28406   1.145  10.552   7.052  0.3085  0.5133  0.3210
  211MOL0     C28407   1.123  10.627   7.161  0.4959  0.0802 -0.0830
  211MOL0     O28408   0.998  10.684   7.191  0.3931 -0.3820  0.2350
  211MOL0     C28409   0.897  10.700   7.094 -0.5603  0.0626 -1.0961
  211MOL0     C28410   0.919  10.811   6.996  0.4057 -0.1195 -1.0829
  211MOL0     C28411   0.802  10.813   6.890 -0.1171 -0.1403 -0.9589
  211MOL0     C28412   0.730  10.945   6.860 -0.0258 -0.3444  0.0531
  211MOL0     C28413   0.818  11.043   6.798 -0.1873  0.2702  0.1224
  211MOL0     C28414   0.911  11.115   6.771 -0.4863  0.3662  0.0329
  211MOL0     C28415   1.230  10.666   7.246 -0.2303 -0.7988  0.4106
  211MOL0     C28416   1.358  10.636   7.204  0.0673 -0.2580 -0.3735
  211MOL0     C28417   1.466  10.672   7.298 -0.5219 -0.2749 -0.8124
  211MOL0     H28418   1.810  10.496   7.083  2.0130 -0.5738 -0.0031
  211MOL0     H28419   2.021  10.465   6.921 -0.7970  2.1402 -1.4659
  211MOL0     H28420   1.936  10.260   6.499 -1.0385 -0.6352  0.3755
  211MOL0     H28421   1.952  10.436   6.532  2.3294  0.4968 -0.4887
  211MOL0     H28422   2.189  10.420   6.539 -0.9975  0.3391 -0.0493
  211MOL0     H28423   2.121  10.367   6.397  0.1739  3.0116  0.7506
  211MOL0     H28424   2.131  10.113   6.488  0.2434 -0.5998 -0.6309
  211MOL0     H28425   2.203  10.163   6.624  0.0573 -0.0997 -0.0314
  211MOL0     H28426   2.341  10.207   6.350  1.8370 -5.4017  0.4219
  211MOL0     H28427   2.379  10.294   6.504  1.1042  0.0371  1.5179
  211MOL0     H28428   2.423  10.075   6.612  2.3175  0.3869  0.0397
  211MOL0     H28429   2.367   9.982   6.470  1.3528  0.0842 -0.9842
  211MOL0     H28430   2.529  10.102   6.325  3.0822  3.0427  0.2914
  211MOL0     H28431   2.599  10.181   6.457  1.3666 -0.4877  0.2651
  211MOL0     H28432   2.735  10.000   6.380  0.2278 -0.5829 -0.3139
  211MOL0     H28433   2.593   9.889   6.396 -0.5053 -1.0919  1.9637
  211MOL0     H28434   2.690  10.041   6.640  0.7526 -0.5227 -0.5826
  211MOL0     H28435   2.588   9.902   6.641 -1.1588  1.4221 -1.3767
  211MOL0     H28436   2.961   9.993   6.521 -0.7078 -0.6814 -0.0409
  211MOL0     H28437   3.178   9.686   6.626  1.3898 -0.0237 -0.7688
  211MOL0     H28438   3.191   9.824   6.521  0.2821  3.2899  0.9131
  211MOL0     H28439   3.228   9.976   6.720  0.8456  0.6927  1.8555
  211MOL0     H28440   3.181   9.855   6.834  0.4660  0.2554 -0.6498
  211MOL0     H28441   3.420   9.894   6.794  1.4474 -0.6914  0.4675
  211MOL0     H28442   3.406   9.817   6.634  0.6368  0.5089  0.0088
  211MOL0     H28443   3.322   9.606   6.740  1.6303 -0.5627 -1.0550
  211MOL0     H28444   3.341   9.687   6.901 -1.7212  0.2447 -1.1463
  211MOL0     H28445   3.761   9.592   6.826  0.9424 -1.4262  0.4415
  211MOL0     H28446   3.900   9.461   6.672  1.3806 -3.9261  2.1868
  211MOL0     H28447   4.178   9.295   6.568 -1.3013  0.4673  0.1377
  211MOL0     H28448   4.364   9.144   6.502 -0.2682 -4.6659  2.0056
  211MOL0     H28449   4.504   9.073   6.307  1.1952  0.0621 -1.4544
  211MOL0     H28450   4.476   8.972   6.456 -0.0271 -2.2392 -0.5143
  211MOL0     H28451   4.548   8.764   6.336 -0.8769  0.1623 -0.4418
  211MOL0     H28452   4.586   8.862   6.200  3.0716  0.9278  0.4328
  211MOL0     H28453   4.727   9.012   6.342  1.9187 -0.6149 -0.5187
  211MOL0     H28454   4.706   8.900   6.484  0.1464 -3.6303 -0.4221
  211MOL0     H28455   4.836   8.786   6.240  0.7434  0.5477 -0.6299
  211MOL0     H28456   4.786   8.713   6.389 -1.3284  0.1924 -0.5495
  211MOL0     H28457   4.938   8.855   6.514 -1.9721  1.5584 -0.5077
  211MOL0     H28458   5.007   8.923   6.350  1.4093 -1.1442 -0.6682
  211MOL0     H28459   5.035   8.653   6.462  0.4920  1.5653  0.6778
  211MOL0     H28460   5.048   8.682   6.287  1.7996  0.1761 -1.0580
  211MOL0     H28461   5.257   8.667   6.391  0.1904 -0.1569 -1.8898
  211MOL0     H28462   5.197   8.809   6.488 -1.2255  1.7050  0.1294
  211MOL0     H28463   5.197   8.949   6.284  0.3990 -0.1396  0.0623
  211MOL0     H28464   5.357   8.883   6.278  1.0918 -1.1049  1.9386
  211MOL0     H28465   4.109   8.955   6.222 -2.3652  1.5092 -1.6931
  211MOL0     H28466   3.928   9.115   6.255  1.0652  0.8088 -1.6842
  211MOL0     H28467   3.572   9.384   6.419  0.5367 -0.3596 -0.0218
  211MOL0     H28468   3.424   9.525   6.576 -0.3985 -1.0898  0.4668
  211MOL0     H28469   1.758  10.226   6.683  3.6331 -1.0642  1.3077
  211MOL0     H28470   1.574  10.293   6.797 -0.3271  2.2940  0.5024
  211MOL0     H28471   1.293  10.442   6.936 -0.9261 -0.2971 -1.0296
  211MOL0     H28472   1.060  10.508   7.001  0.7295 -0.7784  0.6829
  211MOL0     H28473   0.811  10.742   7.147  1.8525  2.6974  1.0397
  211MOL0     H28474   0.877  10.611   7.033 -1.5005 -0.2815 -0.2991
  211MOL0     H28475   1.019  10.801   6.954  1.5619  2.7294  0.7053
  211MOL0     H28476   0.919  10.903   7.055  0.0421 -0.7726 -0.0389
  211MOL0     H28477   0.720  10.747   6.921  0.3725  0.1255  1.0697
  211MOL0     H28478   0.853  10.781   6.799  1.2024 -0.9820  0.0216
  211MOL0     H28479   0.651  10.916   6.790 -0.3570  0.4355  0.0899
  211MOL0     H28480   0.681  10.992   6.946  1.0676  0.0350  0.4873
  211MOL0     H28481   0.992  11.183   6.754 -0.4772  0.7549  1.5460
  211MOL0     H28482   1.217  10.731   7.332 -1.3025 -0.4289 -0.0058
  211MOL0     H28483   1.541  10.593   7.305  2.6273  2.4812 -0.8672
  211MOL0     H28484   1.518  10.761   7.263 -1.5309  1.0150  0.8123
  211MOL0     H28485   1.419  10.688   7.396 -0.8458  1.7387 -1.2570
  212MOL0     O28486   1.742   2.574   6.424 -0.2841 -0.0578  0.3409
  212MOL0     C28487   1.837   2.655   6.425  0.2015 -0.0880  0.2552
  212MOL0     O28488   1.848   2.768   6.345 -0.2529 -0.0057 -0.4248
  212MOL0     C28489   1.755   2.789   6.243 -0.9864 -0.1412  0.9611
  212MOL0     C28490   1.649   2.870   6.258 -0.1056 -0.1078 -0.7106
  212MOL0     C28491   1.552   2.878   6.159  0.2455  0.3035 -0.8309
  212MOL0     C28492   1.557   2.811   6.041  0.7303 -0.3870 -0.6421
  212MOL0     O28493   1.467   2.837   5.938  0.1075 -0.1827  0.4452
  212MOL0     C28494   1.376   2.735   5.911 -0.3431  0.1484  0.6671
  212MOL0     C28495   1.262   2.775   5.817  0.0965 -0.1742 -0.6548
  212MOL0     C28496   1.178   2.888   5.875 -0.1359 -0.6877 -0.2089
  212MOL0     C28497   1.057   2.837   5.943  0.0874  0.4323 -0.1252
  212MOL0     C28498   0.962   2.949   5.964 -0.7589  0.3144 -0.5592
  212MOL0     C28499   0.830   2.912   6.017  0.6602 -0.1006  0.1693
  212MOL0     C28500   0.727   3.021   6.057 -0.0170 -0.2584  0.7911
  212MOL0     C28501   0.676   3.109   5.936 -0.0363 -0.1241  0.3751
  212MOL0     N28502   0.631   3.029   5.820 -0.3495 -0.0399 -0.2599
  212MOL0     C28503   0.512   3.044   5.757 -0.3452  0.5771 -1.1195
  212MOL0     C28504   0.528   2.987   5.636 -0.1766 -0.0938 -0.5984
  212MOL0     C28505   0.413   2.981   5.531 -0.4054 -0.2988  0.2800
  212MOL0     C28506   0.462   3.051   5.405 -0.4444  0.4699  0.3561
  212MOL0     C28507   0.524   2.946   5.313 -0.2920 -0.4493  0.6477
  212MOL0     C28508   0.590   2.995   5.187  0.5476  0.6619 -0.4752
  212MOL0     O28509   0.675   2.892   5.130 -0.0558 -0.2087  0.9823
  212MOL0     C28510   0.806   2.901   5.172  0.6788 -0.4510  0.2784
  212MOL0     C28511   0.899   2.867   5.073  0.0084 -0.2107  0.0689
  212MOL0     C28512   1.032   2.871   5.098  0.3036 -0.3821  0.0400
  212MOL0     C28513   1.082   2.924   5.225 -0.6528 -0.2054  0.6341
  212MOL0     C28514   1.231   2.916   5.257 -0.5592 -0.7226  0.2627
  212MOL0     O28515   1.271   2.925   5.383 -0.7756  0.1871 -0.1121
  212MOL0     C28516   1.396   2.905   5.428  0.2019  0.5734 -0.3885
  212MOL0     C28517   1.426   2.955   5.548 -0.2645  0.4362 -1.2568
  212MOL0     C28518   1.549   2.929   5.615 -0.4396 -0.5366 -0.5484
  212MOL0     C28519   1.649   2.871   5.553 -0.2753 -0.1933 -0.8022
  212MOL0     O28520   1.773   2.884   5.614 -0.1264 -0.1032 -0.6042
  212MOL0     C28521   1.892   2.805   5.584  0.2022 -0.0513 -0.0426
  212MOL0     C28522   1.972   2.812   5.712 -0.5475  0.2951  0.0360
  212MOL0     C28523   2.118   2.792   5.684 -0.8406  0.2483 -0.5033
  212MOL0     C28524   2.206   2.900   5.761 -0.1030  0.6114  0.6689
  212MOL0     C28525   2.353   2.910   5.718 -0.6161  0.2193  0.5462
  212MOL0     C28526   2.434   2.817   5.826  0.3778  0.4701  0.0263
  212MOL0     C28527   2.421   2.670   5.790 -0.5160  0.1344  0.5537
  212MOL0     C28528   2.490   2.565   5.877  0.5990 -0.1274 -0.3898
  212MOL0    Cl28529   2.670   2.570   5.865 -0.0421  0.2346 -0.2092
  212MOL0     C28530   1.622   2.813   5.434 -0.0860  0.7746 -0.4748
  212MOL0     C28531   1.492   2.822   5.370 -0.2959 -1.0727  0.0709
  212MOL0     O28532   1.309   2.909   5.168 -0.5432  0.4882 -0.0415
  212MOL0     C28533   0.992   2.961   5.321 -0.8977  0.1632  0.1725
  212MOL0     C28534   0.854   2.933   5.299  0.7427 -1.2913 -0.2299
  212MOL0     N28535   0.658   2.948   5.621  0.0211  0.3610 -0.4949
  212MOL0     N28536   0.719   2.978   5.732  0.1509 -1.3041  0.8689
  212MOL0     C28537   1.657   2.730   6.024  0.4469  0.6933 -0.1813
  212MOL0     C28538   1.756   2.722   6.119 -1.1516 -0.2516  0.3242
  212MOL0     C28539   1.955   2.638   6.513  0.3539 -0.2630 -0.4591
  212MOL0     C28540   2.065   2.734   6.511  0.2853  0.4347  0.1870
  212MOL0     C28541   2.177   2.732   6.589 -0.1908  0.8326  0.8567
  212MOL0     C28542   2.190   2.630   6.682  0.4299  0.1952 -0.0956
  212MOL0     O28543   2.286   2.612   6.779  0.1805  0.3301  0.4604
  212MOL0     C28544   2.401   2.694   6.794  1.1963 -1.1527 -0.3486
  212MOL0     C28545   2.504   2.675   6.693  0.3935  0.0558  0.2220
  212MOL0     C28546   2.623   2.605   6.756 -0.3299 -0.2187 -0.3912
  212MOL0     C28547   2.616   2.454   6.745  0.0693  0.6300  1.2856
  212MOL0     C28548   2.734   2.386   6.807  0.0788 -0.2822 -0.0928
  212MOL0     C28549   2.835   2.339   6.856  0.4844  0.0750 -0.4064
  212MOL0     C28550   2.091   2.533   6.691  0.4086  0.3989  0.2717
  212MOL0     C28551   1.979   2.540   6.616 -0.2098 -0.1306 -0.0768
  212MOL0     C28552   1.864   2.448   6.649 -0.2596  0.1850  0.4373
  212MOL0     H28553   1.637   2.919   6.354  0.3997 -2.7739  0.8361
  212MOL0     H28554   1.459   2.925   6.191  1.6661  1.5974  1.6951
  212MOL0     H28555   1.439   2.656   5.869  3.2355  2.4707  1.2260
  212MOL0     H28556   1.334   2.701   6.006  1.0128  0.5962  1.4522
  212MOL0     H28557   1.204   2.683   5.813 -0.2472 -0.1774  2.3793
  212MOL0     H28558   1.301   2.788   5.715 -0.9044  0.0141 -1.0251
  212MOL0     H28559   1.147   2.938   5.783  3.4339 -1.3223 -1.9102
  212MOL0     H28560   1.215   2.968   5.941 -2.2004 -0.0438  0.2591
  212MOL0     H28561   1.011   2.760   5.881 -2.5557  0.3274  1.7906
  212MOL0     H28562   1.093   2.783   6.031  2.8793  1.9902 -0.1922
  212MOL0     H28563   1.000   3.033   6.023  1.6023 -0.3437 -1.0416
  212MOL0     H28564   0.934   2.993   5.868 -0.7011 -0.0434 -0.7435
  212MOL0     H28565   0.786   2.847   5.941  0.0893  0.5996 -0.1097
  212MOL0     H28566   0.841   2.852   6.108 -0.9079  1.5268  1.5065
  212MOL0     H28567   0.780   3.082   6.132  2.5883 -1.4937  0.0768
  212MOL0     H28568   0.643   2.971   6.106  0.1016  0.0218  1.2971
  212MOL0     H28569   0.585   3.163   5.964 -1.2848 -0.8672 -1.9355
  212MOL0     H28570   0.750   3.186   5.915 -0.9675  0.3242 -1.5467
  212MOL0     H28571   0.419   3.079   5.800 -1.8122 -2.5898 -1.4289
  212MOL0     H28572   0.380   2.880   5.505 -0.7763 -0.2037  0.3779
  212MOL0     H28573   0.322   3.032   5.561 -0.0907  1.2307 -1.2152
  212MOL0     H28574   0.385   3.108   5.353  1.1687  1.7173 -0.7850
  212MOL0     H28575   0.542   3.123   5.427  1.0342 -1.0239  0.0804
  212MOL0     H28576   0.461   2.869   5.269  2.8928 -3.1382  0.3857
  212MOL0     H28577   0.594   2.887   5.373 -1.1523 -2.7911 -0.5176
  212MOL0     H28578   0.643   3.088   5.211  1.4527  0.1511 -0.4278
  212MOL0     H28579   0.507   3.022   5.122 -0.5412 -1.3415 -0.0104
  212MOL0     H28580   0.859   2.847   4.974 -1.3868  1.5011  0.2314
  212MOL0     H28581   1.104   2.854   5.018  1.5170  1.9170  0.5640
  212MOL0     H28582   1.349   3.017   5.591 -0.0414  2.4662 -3.5498
  212MOL0     H28583   1.560   2.969   5.715 -0.7807  0.2345 -0.8091
  212MOL0     H28584   1.876   2.698   5.571  2.0183 -0.1556 -1.9351
  212MOL0     H28585   1.933   2.847   5.491 -0.2034  1.2767  0.3572
  212MOL0     H28586   1.956   2.901   5.772 -2.1077 -0.7511  1.2383
  212MOL0     H28587   1.931   2.733   5.776 -0.2201 -3.3751 -3.8213
  212MOL0     H28588   2.142   2.694   5.727 -0.2185  0.5282 -0.2000
  212MOL0     H28589   2.146   2.790   5.578  1.3151  2.1976 -0.0679
  212MOL0     H28590   2.193   2.897   5.870 -0.8873  0.2595  0.5753
  212MOL0     H28591   2.161   2.992   5.723  1.0901  0.9886  0.1018
  212MOL0     H28592   2.380   3.016   5.720 -2.6260  0.7984 -0.2923
  212MOL0     H28593   2.368   2.878   5.615 -1.9012 -1.3511  0.8018
  212MOL0     H28594   2.539   2.843   5.811  0.8169 -1.7302 -1.0651
  212MOL0     H28595   2.403   2.835   5.929  2.5285 -1.1918  1.0301
  212MOL0     H28596   2.442   2.655   5.684 -1.1459  2.1581  0.0941
  212MOL0     H28597   2.321   2.628   5.805  0.5582 -2.2277  1.6683
  212MOL0     H28598   2.455   2.585   5.978 -0.5893 -0.7137 -0.6799
  212MOL0     H28599   2.454   2.466   5.850  1.4553 -0.4494 -0.4047
  212MOL0     H28600   1.698   2.769   5.370 -0.4005  0.6638 -0.7710
  212MOL0     H28601   1.462   2.771   5.279 -2.6844 -0.5084  0.4781
  212MOL0     H28602   1.023   2.987   5.421  3.1387 -3.2574  0.0845
  212MOL0     H28603   0.781   2.957   5.376 -0.4464  1.1442 -1.9721
  212MOL0     H28604   1.683   2.670   5.937  1.2955 -0.9279  1.1360
  212MOL0     H28605   1.844   2.661   6.103 -1.9942 -1.5532  0.4966
  212MOL0     H28606   2.056   2.829   6.459  0.4211  1.8678  2.6219
  212MOL0     H28607   2.227   2.828   6.593  2.6982 -0.5397  0.1850
  212MOL0     H28608   2.438   2.669   6.893 -1.5866  1.5782  1.5793
  212MOL0     H28609   2.367   2.798   6.794  0.4048 -1.4031  0.4342
  212MOL0     H28610   2.542   2.771   6.657 -1.7225  1.4765  1.5827
  212MOL0     H28611   2.469   2.612   6.610  0.3171 -0.3128  0.5310
  212MOL0     H28612   2.632   2.636   6.861 -3.9283 -1.9808  0.6100
  212MOL0     H28613   2.704   2.640   6.692  0.3755  2.6148  1.8373
  212MOL0     H28614   2.524   2.416   6.789  0.6667 -3.1841 -0.3869
  212MOL0     H28615   2.631   2.426   6.640  2.0864 -2.9184  2.3404
  212MOL0     H28616   2.922   2.299   6.904 -0.1716  1.5706  2.2418
  212MOL0     H28617   2.100   2.456   6.767  0.4913  1.9220  1.8713
  212MOL0     H28618   1.866   2.359   6.584 -0.3935  1.7580 -1.8192
  212MOL0     H28619   1.863   2.418   6.754 -0.1069  0.9185  0.6488
  212MOL0     H28620   1.768   2.499   6.640  1.1996  2.6717 -3.0345
  213MOL0     O28621   8.920   3.432   3.660 -0.0137  0.8543 -0.3135
  213MOL0     C28622   8.918   3.321   3.609  0.4654 -0.1524 -0.0485
  213MOL0     O28623   8.979   3.213   3.658 -0.2629  0.3896 -0.7682
  213MOL0     C28624   9.033   3.223   3.783 -1.1933  0.3014 -0.6598
  213MOL0     C28625   9.169   3.251   3.802 -0.0347 -0.6257 -0.8612
  213MOL0     C28626   9.219   3.254   3.934  0.6595 -0.0071  0.2037
  213MOL0     C28627   9.147   3.217   4.049 -0.7101  0.8898  0.1531
  213MOL0     O28628   9.213   3.224   4.169  0.1573 -1.4139  0.0332
  213MOL0     C28629   9.137   3.248   4.290  0.8965  0.0463  0.5210
  213MOL0     C28630   9.215   3.272   4.413  0.0803  0.0521  0.1973
  213MOL0     C28631   9.306   3.398   4.393 -0.5001 -1.1973  0.3288
  213MOL0     C28632   9.451   3.387   4.422  0.2602 -0.1530 -0.4183
  213MOL0     C28633   9.544   3.468   4.350 -0.1042  0.3640  0.6331
  213MOL0     C28634   9.680   3.481   4.420  0.2149  0.3392  0.1100
  213MOL0     C28635   9.781   3.540   4.323 -0.3150 -0.6310 -0.9215
  213MOL0     C28636   9.794   3.701   4.317  0.4179 -0.2638 -0.2285
  213MOL0     N28637   9.838   3.755   4.188 -0.1289  1.0383  0.4099
  213MOL0     C28638   9.965   3.733   4.130  0.3460 -1.0373  0.1870
  213MOL0     C28639   9.959   3.820   4.021  0.5803  0.7033 -0.3604
  213MOL0     C28640  10.067   3.841   3.923  0.4564  0.2041 -0.3280
  213MOL0     C28641  10.178   3.920   3.987 -0.5036 -0.0125  0.0121
  213MOL0     C28642  10.278   3.975   3.878 -0.5773 -0.0641  0.1732
  213MOL0     C28643  10.393   4.041   3.944  0.6547  0.4559  0.3066
  213MOL0     O28644  10.486   3.947   3.994 -0.5265  0.1518  0.1800
  213MOL0     C28645  10.591   3.987   4.068  0.4585  0.3214  0.3571
  213MOL0     C28646  10.618   3.917   4.184 -0.2880  0.3376  0.4003
  213MOL0     C28647  10.731   3.954   4.263  0.2385 -0.6230  0.5634
  213MOL0     C28648  10.812   4.059   4.230 -0.7757  0.7251  0.5197
  213MOL0     C28649  10.935   4.105   4.304  0.1655  1.3102 -0.1088
  213MOL0     O28650  10.985   4.225   4.278  0.2946 -0.0378 -0.0752
  213MOL0     C28651  11.095   4.265   4.358  0.2261 -0.3373  0.2785
  213MOL0     C28652  11.194   4.338   4.291  0.4423 -0.2380 -0.0362
  213MOL0     C28653  11.283   4.409   4.367 -0.1004 -0.4802 -0.1856
  213MOL0     C28654  11.284   4.397   4.509  0.1508 -0.6442  0.5537
  213MOL0     O28655  11.382   4.442   4.596 -0.1254  0.7365  1.1324
  213MOL0     C28656  11.512   4.450   4.548  0.2472 -0.0385 -0.1521
  213MOL0     C28657  11.601   4.429   4.669  0.1921  0.5843  0.1355
  213MOL0     C28658  11.741   4.430   4.624 -0.7572 -0.1526  0.8885
  213MOL0     C28659  11.796   4.569   4.575 -0.2111  0.3982 -0.9373
  213MOL0     C28660  11.949   4.560   4.573  0.1839  0.3400  0.5299
  213MOL0     C28661  12.014   4.682   4.507 -0.1119  0.8187 -1.0469
  213MOL0     C28662  11.974   4.691   4.353 -0.8177 -0.7393 -0.5082
  213MOL0     C28663  12.054   4.804   4.279 -0.8411 -0.7962  1.1333
  213MOL0    Cl28664  12.222   4.737   4.258 -0.3540  0.5305 -0.2768
  213MOL0     C28665  11.189   4.326   4.574 -0.4590  0.1759  0.5400
  213MOL0     C28666  11.094   4.259   4.499 -0.2214 -0.1978  0.3507
  213MOL0     O28667  10.987   4.018   4.378  0.5190  0.8350  1.1014
  213MOL0     C28668  10.775   4.134   4.116  0.8861  0.1975  0.3255
  213MOL0     C28669  10.668   4.101   4.041  0.1686  0.5523  0.6968
  213MOL0     N28670   9.843   3.883   4.019  0.3894 -0.0617 -0.5493
  213MOL0     N28671   9.772   3.843   4.115  0.6783 -0.5491  0.3278
  213MOL0     C28672   9.014   3.177   4.019 -0.4495 -0.3938 -0.2659
  213MOL0     C28673   8.960   3.190   3.899 -0.0878 -0.6627  1.2783
  213MOL0     C28674   8.870   3.321   3.469  0.0986  0.0846 -0.1284
  213MOL0     C28675   8.924   3.220   3.383  0.4145  0.3093 -1.2595
  213MOL0     C28676   8.884   3.218   3.249  0.0269 -0.0948 -0.7861
  213MOL0     C28677   8.805   3.306   3.187  0.0959  0.4081  0.4029
  213MOL0     O28678   8.759   3.297   3.058 -0.3446  0.2598 -0.2115
  213MOL0     C28679   8.858   3.355   2.964  0.4728  0.3236  0.3342
  213MOL0     C28680   8.887   3.243   2.866 -0.0120  0.6148 -0.1486
  213MOL0     C28681   8.966   3.286   2.739  0.1481 -0.1144 -0.1042
  213MOL0     C28682   9.087   3.385   2.757 -0.5440  1.3990  0.0943
  213MOL0     C28683   9.168   3.371   2.876 -0.5005  0.3118  0.2867
  213MOL0     C28684   9.224   3.373   2.981 -0.8238 -0.4355  0.0059
  213MOL0     C28685   8.745   3.401   3.264  0.1857  0.7819 -0.1035
  213MOL0     C28686   8.782   3.414   3.402 -0.3521 -0.5510 -0.2366
  213MOL0     C28687   8.687   3.500   3.493 -0.1055 -0.6255  0.1431
  213MOL0     H28688   9.234   3.275   3.718  0.8588  1.4564  0.3455
  213MOL0     H28689   9.327   3.265   3.947  0.8816 -0.7778 -0.8849
  213MOL0     H28690   9.064   3.329   4.285 -1.1867 -1.7643 -0.3645
  213MOL0     H28691   9.079   3.155   4.296  2.1766 -0.8062  0.1879
  213MOL0     H28692   9.280   3.184   4.418 -3.3508 -2.9620 -2.4653
  213MOL0     H28693   9.147   3.271   4.498 -1.0837  0.4249 -0.6975
  213MOL0     H28694   9.264   3.487   4.441  1.7377  0.9561 -1.3617
  213MOL0     H28695   9.306   3.422   4.286  0.6003  0.0584  0.5701
  213MOL0     H28696   9.465   3.403   4.529 -0.2274  1.3050 -0.5488
  213MOL0     H28697   9.472   3.284   4.391  1.1861  0.2905 -1.3086
  213MOL0     H28698   9.553   3.441   4.245  2.3386  1.0633  0.5827
  213MOL0     H28699   9.495   3.566   4.352 -2.4732 -0.6811  4.0952
  213MOL0     H28700   9.683   3.530   4.517  1.5115 -2.1831  1.4365
  213MOL0     H28701   9.704   3.379   4.451  0.1217  0.5608  0.9216
  213MOL0     H28702   9.750   3.516   4.222  0.2277  1.4451 -1.6468
  213MOL0     H28703   9.881   3.498   4.340 -0.1828 -0.7970 -2.0779
  213MOL0     H28704   9.704   3.754   4.349  1.7924  0.4549  2.7619
  213MOL0     H28705   9.858   3.716   4.404 -0.9957 -4.1396  1.7356
  213MOL0     H28706  10.044   3.669   4.167  0.9779 -0.9043 -0.8978
  213MOL0     H28707  10.095   3.743   3.884 -5.0103 -2.0922  0.5612
  213MOL0     H28708  10.016   3.900   3.846 -1.7475  0.2868  1.1151
  213MOL0     H28709  10.146   4.007   4.045  3.4929  2.4534 -1.0317
  213MOL0     H28710  10.235   3.852   4.052 -0.7358 -1.9269 -1.6731
  213MOL0     H28711  10.228   4.037   3.803 -2.7347 -0.5282  1.1768
  213MOL0     H28712  10.329   3.903   3.813 -1.1070 -1.4122  1.2169
  213MOL0     H28713  10.350   4.106   4.022 -0.0659 -2.1467  2.2291
  213MOL0     H28714  10.446   4.095   3.866  2.6449 -0.2242  1.1163
  213MOL0     H28715  10.568   3.824   4.209 -0.9633  0.7503  0.6241
  213MOL0     H28716  10.763   3.889   4.343  0.5913 -0.5432  0.4893
  213MOL0     H28717  11.193   4.355   4.184  0.2352  3.5668  0.4512
  213MOL0     H28718  11.355   4.476   4.322  0.6554 -1.2020 -0.0674
  213MOL0     H28719  11.535   4.369   4.478  1.0523  0.2771 -0.2663
  213MOL0     H28720  11.536   4.546   4.501  2.6105  0.6448  2.1949
  213MOL0     H28721  11.584   4.501   4.749  0.6465 -0.7444  1.4749
  213MOL0     H28722  11.564   4.341   4.722  0.7395  0.3480  0.1347
  213MOL0     H28723  11.816   4.395   4.696 -0.2300  5.7980  3.8271
  213MOL0     H28724  11.745   4.367   4.535 -3.3672 -1.0029  1.2842
  213MOL0     H28725  11.777   4.646   4.650 -0.0052 -1.1097  0.7166
  213MOL0     H28726  11.749   4.595   4.479 -1.8449  0.9063 -0.0500
  213MOL0     H28727  11.988   4.471   4.522  0.0767 -0.5019  1.8747
  213MOL0     H28728  11.982   4.549   4.676  0.5286 -2.1837  0.2060
  213MOL0     H28729  11.967   4.767   4.558 -2.1326 -1.5901  1.4189
  213MOL0     H28730  12.121   4.668   4.520 -0.0446  0.7232 -1.6858
  213MOL0     H28731  11.869   4.716   4.337 -1.4214 -1.7252  1.5578
  213MOL0     H28732  11.992   4.593   4.310 -1.6595 -0.8612 -0.5981
  213MOL0     H28733  12.013   4.814   4.178 -1.0710 -0.7441  1.2311
  213MOL0     H28734  12.044   4.906   4.319  0.5258 -0.9416  1.8983
  213MOL0     H28735  11.185   4.323   4.683 -0.5366  3.5665  0.7415
  213MOL0     H28736  11.018   4.205   4.557  0.1537  0.0254  1.0664
  213MOL0     H28737  10.821   4.229   4.091 -2.3815  0.9497 -4.0347
  213MOL0     H28738  10.634   4.169   3.963 -0.7001 -0.7286 -0.0745
  213MOL0     H28739   8.953   3.129   4.094 -2.7165  1.3255 -0.8931
  213MOL0     H28740   8.859   3.160   3.871  0.4563  0.1453 -1.9263
  213MOL0     H28741   8.985   3.138   3.421  0.0836  1.0004  0.9230
  213MOL0     H28742   8.918   3.145   3.176 -0.9074 -1.7532  0.3729
  213MOL0     H28743   8.951   3.373   3.019 -1.0001  0.4897  2.8988
  213MOL0     H28744   8.828   3.447   2.912  2.3620  1.1559  0.6149
  213MOL0     H28745   8.801   3.199   2.815  2.0626 -2.8477 -0.9669
  213MOL0     H28746   8.937   3.158   2.914 -0.9390 -0.3501 -0.8791
  213MOL0     H28747   8.899   3.333   2.667 -0.1026 -0.4691 -0.1071
  213MOL0     H28748   8.991   3.195   2.684  0.9263  0.5796 -0.9065
  213MOL0     H28749   9.161   3.355   2.682 -1.1072  1.5015 -0.5203
  213MOL0     H28750   9.049   3.487   2.762 -0.5236  1.3325  2.3074
  213MOL0     H28751   9.269   3.378   3.078 -0.4130  1.8523 -0.2401
  213MOL0     H28752   8.664   3.457   3.219 -1.1490  0.3631  1.6745
  213MOL0     H28753   8.590   3.513   3.443 -1.4421 -0.2318  2.6827
  213MOL0     H28754   8.668   3.460   3.593 -1.8579  2.4906  1.2112
  213MOL0     H28755   8.738   3.593   3.517  0.1990 -1.5714  3.6195
  214MOL0     O28756   4.103   9.798  11.132 -0.1477  0.5148  0.3110
  214MOL0     C28757   4.116   9.852  11.014  0.4390 -0.1229 -0.2289
  214MOL0     O28758   4.237   9.867  10.949  0.8558 -0.0630 -0.6703
  214MOL0     C28759   4.357   9.884  11.020 -0.5330 -0.1662  0.4505
  214MOL0     C28760   4.370   9.945  11.150 -0.2708 -0.7593 -0.7447
  214MOL0     C28761   4.487   9.967  11.213 -1.0243 -1.2181 -0.0585
  214MOL0     C28762   4.606   9.932  11.150  0.0996 -0.3960 -0.0500
  214MOL0     O28763   4.717   9.942  11.229  0.4645 -0.4371 -0.3887
  214MOL0     C28764   4.849   9.906  11.185  1.2191 -0.3755 -0.0353
  214MOL0     C28765   4.933   9.908  11.307  0.1503 -0.2769 -0.1671
  214MOL0     C28766   5.066   9.843  11.272  0.4538 -0.0908  0.6476
  214MOL0     C28767   5.162   9.847  11.394  1.0004 -0.2958 -0.6911
  214MOL0     C28768   5.273   9.742  11.386  0.5522 -0.2450 -0.8734
  214MOL0     C28769   5.344   9.733  11.517  0.0687 -0.0509 -0.6424
  214MOL0     C28770   5.448   9.622  11.519 -0.4959  0.9221  0.5013
  214MOL0     C28771   5.524   9.644  11.654 -0.1436  1.1609  0.8990
  214MOL0     N28772   5.462   9.568  11.755 -0.2394  0.0366  0.6815
  214MOL0     C28773   5.503   9.443  11.797  0.2129  0.4960 -0.3857
  214MOL0     C28774   5.424   9.422  11.902 -0.3926 -0.4321  0.8658
  214MOL0     C28775   5.417   9.293  11.983 -0.1287  0.0188  0.0893
  214MOL0     C28776   5.533   9.280  12.082 -0.0438  0.2553  0.7000
  214MOL0     C28777   5.491   9.329  12.219  0.3622 -0.4537  0.3140
  214MOL0     C28778   5.595   9.300  12.332 -0.5196  0.3572  0.5339
  214MOL0     O28779   5.727   9.349  12.298 -0.6218  0.5921 -0.8389
  214MOL0     C28780   5.832   9.357  12.391  0.1874 -0.4332  0.3620
  214MOL0     C28781   5.962   9.377  12.349 -0.8539  0.5446  0.0561
  214MOL0     C28782   6.061   9.409  12.445 -0.6564 -0.1629  0.6892
  214MOL0     C28783   6.042   9.393  12.582  0.8776 -0.4308  0.1778
  214MOL0     C28784   6.151   9.400  12.679  0.5927 -0.6712  0.2383
  214MOL0     O28785   6.118   9.408  12.809  0.7603  0.1352  0.4775
  214MOL0     C28786   6.211   9.403  12.905  0.2371 -0.9871  0.3439
  214MOL0     C28787   6.183   9.335  13.025  0.3706 -0.0786  0.2703
  214MOL0     C28788   6.276   9.336  13.126 -0.5837  0.9457 -1.0351
  214MOL0     C28789   6.400   9.397  13.120  0.0661 -0.5560  0.9134
  214MOL0     O28790   6.489   9.400  13.224  0.5210 -0.0871  0.0336
  214MOL0     C28791   6.429   9.414  13.353 -0.0066  0.8359 -0.8769
  214MOL0     C28792   6.544   9.431  13.453  0.3043  0.3374  0.2511
  214MOL0     C28793   6.551   9.306  13.544 -0.3853 -0.5383  0.3435
  214MOL0     C28794   6.444   9.289  13.648 -0.7105  0.5673 -0.0197
  214MOL0     C28795   6.444   9.143  13.696  0.9385 -0.7708  0.4231
  214MOL0     C28796   6.367   9.120  13.835 -0.1316 -0.0359 -0.4669
  214MOL0     C28797   6.383   8.976  13.865  0.5256 -0.5965 -0.4218
  214MOL0     C28798   6.302   8.944  13.993 -0.9148 -0.0967 -0.6379
  214MOL0    Cl28799   6.339   8.780  14.037 -0.0228 -0.1400  0.2784
  214MOL0     C28800   6.424   9.472  12.999  0.4888  0.8640 -0.8260
  214MOL0     C28801   6.332   9.471  12.897  0.0821 -0.2688  0.1081
  214MOL0     O28802   6.262   9.394  12.636 -0.2289 -0.0222  0.3406
  214MOL0     C28803   5.914   9.355  12.620 -0.2484 -0.0160 -0.6512
  214MOL0     C28804   5.807   9.350  12.532 -0.2663  0.7659  0.1977
  214MOL0     N28805   5.341   9.529  11.927 -0.5144  1.0309  0.0514
  214MOL0     N28806   5.355   9.610  11.829 -0.7218  0.2484 -0.1605
  214MOL0     C28807   4.603   9.879  11.027 -0.7902 -0.2005  0.0533
  214MOL0     C28808   4.480   9.848  10.963  0.2818  0.6071 -0.3373
  214MOL0     C28809   3.998   9.890  10.934 -0.4426 -0.1552  0.1566
  214MOL0     C28810   4.018   9.982  10.820 -0.2323  0.7638  0.3223
  214MOL0     C28811   3.919  10.028  10.737 -0.2360  0.4113  0.1756
  214MOL0     C28812   3.791   9.982  10.752 -0.9287  0.1722  0.4202
  214MOL0     O28813   3.687   9.992  10.670 -0.9734 -0.9610  0.0512
  214MOL0     C28814   3.694  10.097  10.579  0.4333 -0.7086 -0.3142
  214MOL0     C28815   3.685  10.236  10.659 -1.0085  0.4279 -0.1021
  214MOL0     C28816   3.537  10.267  10.707  0.4156 -0.7180  0.5768
  214MOL0     C28817   3.528  10.408  10.751 -0.6696  0.4433 -0.6813
  214MOL0     C28818   3.394  10.454  10.786  0.0799  0.2655  0.4127
  214MOL0     C28819   3.283  10.484  10.804  0.4193  0.5981 -0.7842
  214MOL0     C28820   3.772   9.895  10.865  0.2983 -0.2903 -0.3101
  214MOL0     C28821   3.864   9.868  10.965 -0.7935  0.6124  0.0804
  214MOL0     C28822   3.804   9.803  11.086  0.5004 -0.0078 -0.1518
  214MOL0     H28823   4.278   9.972  11.201 -0.2960  0.2292 -1.2733
  214MOL0     H28824   4.493  10.001  11.315 -0.3045  2.4713 -1.1823
  214MOL0     H28825   4.839   9.812  11.130  0.8541 -1.1815  1.3713
  214MOL0     H28826   4.881   9.981  11.112 -3.6504  1.6296 -0.5154
  214MOL0     H28827   4.889   9.855  11.392 -1.1827  0.1989 -0.5238
  214MOL0     H28828   4.953  10.010  11.341 -1.4806  0.1356 -0.3258
  214MOL0     H28829   5.106   9.907  11.193 -2.7956  2.8396  1.1422
  214MOL0     H28830   5.047   9.740  11.240  1.3623  0.2746 -1.1952
  214MOL0     H28831   5.200   9.948  11.412  0.6255 -0.0671 -1.1641
  214MOL0     H28832   5.097   9.819  11.477 -1.9283 -0.4148 -2.8763
  214MOL0     H28833   5.234   9.641  11.367 -0.2015  0.4325 -3.2091
  214MOL0     H28834   5.336   9.765  11.299 -1.2585  2.2563 -1.6136
  214MOL0     H28835   5.394   9.829  11.533 -0.3721  0.2049 -0.7811
  214MOL0     H28836   5.268   9.729  11.596  0.4667  0.6736 -0.2045
  214MOL0     H28837   5.520   9.635  11.437  3.2893  0.7937  3.5281
  214MOL0     H28838   5.401   9.524  11.506 -2.5023  1.9831 -0.7734
  214MOL0     H28839   5.626   9.607  11.637 -0.1458  2.6011 -3.5888
  214MOL0     H28840   5.540   9.750  11.676  2.3276  1.5269 -1.9982
  214MOL0     H28841   5.579   9.376  11.758 -1.0673 -1.9558  1.0962
  214MOL0     H28842   5.319   9.293  12.032 -0.7723 -0.4484 -1.1577
  214MOL0     H28843   5.420   9.211  11.912 -2.3099  1.8589 -2.3364
  214MOL0     H28844   5.567   9.177  12.095 -0.8514  0.1769  2.5984
  214MOL0     H28845   5.620   9.333  12.044  1.0831 -0.8102  1.7217
  214MOL0     H28846   5.395   9.281  12.238 -0.0032 -0.0951 -0.5726
  214MOL0     H28847   5.478   9.438  12.222  1.5334 -0.0847 -3.2650
  214MOL0     H28848   5.587   9.195  12.361 -1.6540 -0.3464 -2.0171
  214MOL0     H28849   5.551   9.359  12.413 -0.2309  1.3039  0.0128
  214MOL0     H28850   5.997   9.381  12.246 -0.3626  1.2102  0.2488
  214MOL0     H28851   6.160   9.431  12.408 -0.7819 -2.4791 -1.2586
  214MOL0     H28852   6.087   9.285  13.024  0.4351 -0.2004  0.1288
  214MOL0     H28853   6.248   9.287  13.219  2.8903  0.1446 -0.2904
  214MOL0     H28854   6.360   9.498  13.361 -2.4143 -0.9728 -1.5593
  214MOL0     H28855   6.381   9.325  13.395 -1.4893  1.7988 -0.4615
  214MOL0     H28856   6.639   9.443  13.401  0.4055 -1.5916 -0.0606
  214MOL0     H28857   6.529   9.520  13.515  3.7873  1.2108  0.0506
  214MOL0     H28858   6.565   9.216  13.483  1.9668 -0.8105  1.2137
  214MOL0     H28859   6.649   9.324  13.589  0.1746  1.5044 -1.4996
  214MOL0     H28860   6.340   9.309  13.619  0.1073  0.5010 -3.3418
  214MOL0     H28861   6.465   9.362  13.727  0.1584  1.5088 -1.0767
  214MOL0     H28862   6.542   9.094  13.705 -0.3702 -3.5294  0.6883
  214MOL0     H28863   6.393   9.089  13.616 -1.1805  0.9741  0.5256
  214MOL0     H28864   6.422   9.184  13.905 -0.7670  2.4045 -2.0354
  214MOL0     H28865   6.263   9.153  13.840  0.1552  0.6955  2.8411
  214MOL0     H28866   6.485   8.949  13.893  1.7153  4.2098  0.8333
  214MOL0     H28867   6.340   8.919  13.782  2.2022 -1.6368 -0.6376
  214MOL0     H28868   6.336   9.019  14.065  0.5180 -1.7156  0.4594
  214MOL0     H28869   6.194   8.943  13.977 -1.1409  0.4257  0.6996
  214MOL0     H28870   6.520   9.522  12.993  2.4932 -1.6046  4.3737
  214MOL0     H28871   6.363   9.516  12.803  2.6817  0.8870  1.4123
  214MOL0     H28872   5.902   9.335  12.726  2.3112  0.5227 -0.1849
  214MOL0     H28873   5.710   9.314  12.565  1.1144 -2.6117  0.9574
  214MOL0     H28874   4.694   9.853  10.973 -0.9322 -2.0207  0.6179
  214MOL0     H28875   4.490   9.806  10.863 -2.3377 -1.9984  0.3647
  214MOL0     H28876   4.113  10.030  10.799 -0.1310  1.2576  1.8084
  214MOL0     H28877   3.952  10.082  10.649  0.0744 -0.1177 -0.0384
  214MOL0     H28878   3.608  10.084  10.514  2.2306 -1.5525 -2.6609
  214MOL0     H28879   3.786  10.106  10.520  0.9178  3.4342  0.7949
  214MOL0     H28880   3.722  10.320  10.599 -0.6998  0.9140  0.7534
  214MOL0     H28881   3.746  10.219  10.748 -0.1519 -4.0982 -1.3048
  214MOL0     H28882   3.503  10.191  10.778 -3.5453 -0.8812 -1.1945
  214MOL0     H28883   3.469  10.261  10.621  0.4507 -0.9019  0.5616
  214MOL0     H28884   3.584  10.420  10.845 -1.2095  3.0800 -0.5992
  214MOL0     H28885   3.552  10.479  10.671 -0.0932 -0.2519 -1.1307
  214MOL0     H28886   3.183  10.517  10.826  0.0095  0.0112 -1.7013
  214MOL0     H28887   3.666   9.881  10.885 -0.0358 -0.0837 -1.8038
  214MOL0     H28888   3.696   9.812  11.095  0.4602  0.3331 -0.9046
  214MOL0     H28889   3.822   9.695  11.094 -0.6505 -0.1293  1.0544
  214MOL0     H28890   3.819   9.863  11.176 -2.4113  0.6198  0.0129
  215MOL0     O28891   6.030   0.033   9.647 -0.1099 -0.1622 -0.1459
  215MOL0     C28892   6.125  -0.037   9.685  0.4716 -0.0613  0.2053
  215MOL0     O28893   6.131  -0.172   9.673 -0.8190 -0.3252 -0.0355
  215MOL0     C28894   6.049  -0.237   9.584  0.1943  0.3045 -1.2118
  215MOL0     C28895   6.107  -0.332   9.503  0.4098  0.5427 -0.0400
  215MOL0     C28896   6.024  -0.413   9.411 -0.5738 -0.4316  0.0519
  215MOL0     C28897   5.892  -0.387   9.397  0.5817 -0.0307 -0.0730
  215MOL0     O28898   5.825  -0.468   9.303 -0.1910 -0.8156 -0.0365
  215MOL0     C28899   5.681  -0.451   9.305  0.0157  0.4038  0.1716
  215MOL0     C28900   5.641  -0.531   9.185  0.3739  0.7529  0.6005
  215MOL0     C28901   5.718  -0.470   9.064 -0.3769  0.0486 -0.7159
  215MOL0     C28902   5.669  -0.551   8.940 -0.3486 -0.1807 -0.9442
  215MOL0     C28903   5.730  -0.513   8.806  0.1495 -0.1222 -0.1418
  215MOL0     C28904   5.640  -0.565   8.699  0.1071 -0.3846 -0.5422
  215MOL0     C28905   5.654  -0.721   8.709 -0.2412 -0.3366  0.3961
  215MOL0     C28906   5.573  -0.766   8.585 -0.2938  0.1481 -0.0970
  215MOL0     N28907   5.543  -0.908   8.605  0.0860  0.6034  0.5030
  215MOL0     C28908   5.420  -0.964   8.602  0.0573 -0.0009  0.5227
  215MOL0     C28909   5.447  -1.101   8.589  0.0509 -0.4543 -1.0776
  215MOL0     C28910   5.356  -1.215   8.583 -0.4130 -0.1018  0.8956
  215MOL0     C28911   5.413  -1.327   8.674 -0.2989  1.1726 -0.1512
  215MOL0     C28912   5.329  -1.451   8.669  0.3548 -0.8290  0.0534
  215MOL0     C28913   5.186  -1.434   8.714 -0.0469 -0.5663  0.7289
  215MOL0     O28914   5.127  -1.562   8.740  0.1359 -0.1809  0.1748
  215MOL0     C28915   4.990  -1.566   8.762  0.9731  0.7892  0.8062
  215MOL0     C28916   4.927  -1.695   8.730 -0.2441 -0.6229 -0.2843
  215MOL0     C28917   4.788  -1.718   8.757 -0.0508  0.0336  0.5062
  215MOL0     C28918   4.720  -1.616   8.824  0.6425  0.7235 -0.6467
  215MOL0     C28919   4.572  -1.638   8.851 -0.2153  0.4835 -0.1293
  215MOL0     O28920   4.501  -1.746   8.794 -0.0591 -0.7195  0.0175
  215MOL0     C28921   4.376  -1.771   8.843 -0.0014 -0.1944 -1.0037
  215MOL0     C28922   4.336  -1.774   8.977 -0.7501 -0.4159 -0.3829
  215MOL0     C28923   4.205  -1.805   9.016 -0.5750 -0.1146  0.6242
  215MOL0     C28924   4.111  -1.839   8.916 -0.6261  0.6353 -0.0767
  215MOL0     O28925   3.984  -1.862   8.956 -0.2665  1.1145 -0.1374
  215MOL0     C28926   3.936  -1.992   8.987  0.0025  0.0784 -0.9973
  215MOL0     C28927   3.782  -1.998   8.958 -0.7290 -0.7349 -0.1523
  215MOL0     C28928   3.688  -1.933   9.062  0.1271  0.3244  0.4899
  215MOL0     C28929   3.557  -1.892   8.993 -0.3297 -0.5894 -0.8984
  215MOL0     C28930   3.471  -1.840   9.109 -0.6267  0.3520  0.6178
  215MOL0     C28931   3.327  -1.831   9.067  1.2332 -0.1754  0.5097
  215MOL0     C28932   3.236  -1.801   9.186 -0.5041 -1.2718  0.8783
  215MOL0     C28933   3.185  -1.919   9.275 -0.1833 -0.6225  0.2216
  215MOL0    Cl28934   3.097  -1.849   9.402  0.1424  0.0854 -0.0572
  215MOL0     C28935   4.155  -1.844   8.790 -0.0585  0.4530  1.0927
  215MOL0     C28936   4.282  -1.811   8.752 -0.4810 -0.5339  0.7320
  215MOL0     O28937   4.526  -1.552   8.923  1.2724  0.7980 -0.8522
  215MOL0     C28938   4.777  -1.486   8.836 -0.9098 -0.4087  0.1912
  215MOL0     C28939   4.911  -1.467   8.806 -0.0511 -0.5035  0.1797
  215MOL0     N28940   5.582  -1.117   8.606 -0.0452  0.1175  0.0140
  215MOL0     N28941   5.640  -1.004   8.596  0.0454  0.0146 -0.4316
  215MOL0     C28942   5.840  -0.297   9.488  0.0805  0.3258  0.0576
  215MOL0     C28943   5.913  -0.232   9.586 -0.0261 -0.4782  0.8191
  215MOL0     C28944   6.226   0.038   9.765 -0.0297 -0.0366  0.5116
  215MOL0     C28945   6.211   0.178   9.780 -0.2275  0.2419  0.3837
  215MOL0     C28946   6.303   0.255   9.861 -0.7223 -0.0261  0.5098
  215MOL0     C28947   6.411   0.192   9.928 -0.0831 -0.4061 -0.3153
  215MOL0     O28948   6.497   0.280   9.994  0.0188 -0.0001  0.6081
  215MOL0     C28949   6.629   0.236  10.042 -1.0620 -0.8027 -0.7998
  215MOL0     C28950   6.719   0.354  10.073  0.0281 -0.1629 -0.3110
  215MOL0     C28951   6.673   0.430  10.194 -0.6703 -0.3136 -1.1558
  215MOL0     C28952   6.793   0.512  10.244  0.0447 -1.1960 -0.2294
  215MOL0     C28953   6.732   0.608  10.336  0.2568 -0.0587  0.3049
  215MOL0     C28954   6.680   0.701  10.398 -0.1667 -0.3459 -0.6589
  215MOL0     C28955   6.425   0.052   9.915  0.1817 -0.5397  0.6076
  215MOL0     C28956   6.333  -0.025   9.837  0.3069  0.4365  0.1099
  215MOL0     C28957   6.343  -0.171   9.846  0.9407  0.2785  0.4499
  215MOL0     H28958   6.211  -0.344   9.531  0.2140  1.5631  1.2011
  215MOL0     H28959   6.061  -0.499   9.355 -1.9808 -1.1856  0.2149
  215MOL0     H28960   5.634  -0.497   9.392 -1.5384  0.6885 -0.4764
  215MOL0     H28961   5.649  -0.347   9.291  2.2939  0.9690 -1.3959
  215MOL0     H28962   5.534  -0.519   9.164  0.7849  3.0581 -0.5271
  215MOL0     H28963   5.673  -0.635   9.201 -0.1134 -0.2728 -3.6896
  215MOL0     H28964   5.826  -0.482   9.076 -0.2058  1.8249 -0.1671
  215MOL0     H28965   5.698  -0.363   9.052 -3.9371 -0.6604 -2.2080
  215MOL0     H28966   5.695  -0.656   8.957  2.9651  0.6309 -0.2520
  215MOL0     H28967   5.559  -0.554   8.939 -0.3723 -0.1106  0.0349
  215MOL0     H28968   5.728  -0.404   8.802 -0.2261 -0.1549 -0.9148
  215MOL0     H28969   5.831  -0.543   8.776  0.3216  0.0517  0.2547
  215MOL0     H28970   5.537  -0.529   8.698  0.7858  1.6937 -0.5298
  215MOL0     H28971   5.685  -0.532   8.605  2.1896 -2.1601 -0.2455
  215MOL0     H28972   5.618  -0.762   8.803  1.8335 -0.5254  1.1629
  215MOL0     H28973   5.755  -0.764   8.705 -0.8146 -1.8699  1.4139
  215MOL0     H28974   5.475  -0.718   8.573 -1.0960 -1.2626  0.6491
  215MOL0     H28975   5.633  -0.744   8.496  0.0844 -1.5417 -0.2916
  215MOL0     H28976   5.323  -0.916   8.604  0.4894  1.1450 -1.6224
  215MOL0     H28977   5.257  -1.178   8.612 -1.7004 -2.7082  0.0593
  215MOL0     H28978   5.350  -1.248   8.479  0.0089 -1.3561  1.2505
  215MOL0     H28979   5.508  -1.356   8.629 -1.5239 -1.7938 -1.0746
  215MOL0     H28980   5.420  -1.297   8.779 -3.8514 -0.0933  0.5769
  215MOL0     H28981   5.374  -1.533   8.726  0.2847 -0.7099  0.2804
  215MOL0     H28982   5.325  -1.489   8.567  1.4619 -0.8413 -0.0002
  215MOL0     H28983   5.122  -1.377   8.647  0.8489 -0.3191  0.0653
  215MOL0     H28984   5.189  -1.379   8.809  1.3772 -0.8293  0.8665
  215MOL0     H28985   4.990  -1.771   8.686 -1.2347 -1.9408  0.4981
  215MOL0     H28986   4.731  -1.809   8.740 -1.0978  0.5327  1.1920
  215MOL0     H28987   4.402  -1.747   9.059  0.2365 -2.6539 -0.3850
  215MOL0     H28988   4.164  -1.809   9.116 -4.7203  0.3697 -0.8461
  215MOL0     H28989   3.998  -2.062   8.929 -0.2104  0.0232 -1.1571
  215MOL0     H28990   3.944  -2.011   9.094 -1.3032  0.8797 -0.7420
  215MOL0     H28991   3.760  -1.966   8.856 -0.6473 -1.3206 -0.3618
  215MOL0     H28992   3.758  -2.105   8.968  0.9953 -1.0325  1.5441
  215MOL0     H28993   3.669  -2.000   9.146 -0.5532  0.1345  0.1883
  215MOL0     H28994   3.736  -1.847   9.110 -2.2294  0.5847  2.5948
  215MOL0     H28995   3.514  -1.975   8.936 -1.6057 -0.2295 -0.5141
  215MOL0     H28996   3.573  -1.804   8.930 -0.3101 -0.2311 -0.3995
  215MOL0     H28997   3.504  -1.736   9.119 -2.1544  0.8090  1.1637
  215MOL0     H28998   3.483  -1.898   9.202  1.0559 -0.7560 -0.2444
  215MOL0     H28999   3.330  -1.741   9.003  2.1290 -1.0778 -0.7696
  215MOL0     H29000   3.303  -1.922   9.012  5.7667 -0.4403 -1.4604
  215MOL0     H29001   3.152  -1.745   9.144  0.4900 -0.3307  0.0720
  215MOL0     H29002   3.296  -1.725   9.238 -0.0247 -1.3859  0.5047
  215MOL0     H29003   3.124  -1.990   9.218  1.1616  0.3973 -2.6657
  215MOL0     H29004   3.265  -1.983   9.311 -0.7102 -0.6634  1.3484
  215MOL0     H29005   4.079  -1.877   8.721 -2.1782 -2.0874  4.3234
  215MOL0     H29006   4.305  -1.841   8.651 -3.1457  1.0994 -0.4743
  215MOL0     H29007   4.718  -1.402   8.871 -0.2179  0.8608 -1.5429
  215MOL0     H29008   4.946  -1.368   8.835 -1.9322  0.6132 -1.0664
  215MOL0     H29009   5.735  -0.272   9.476 -0.4422 -0.5577  2.1851
  215MOL0     H29010   5.850  -0.178   9.656 -1.3044  0.3673 -0.9018
  215MOL0     H29011   6.132   0.231   9.727 -0.8220 -0.3455  0.6762
  215MOL0     H29012   6.283   0.362   9.859  0.5661  0.2194 -0.5566
  215MOL0     H29013   6.682   0.173   9.970  2.7574  0.7611  0.4086
  215MOL0     H29014   6.624   0.165  10.126  0.9098  0.4595  0.4699
  215MOL0     H29015   6.727   0.425   9.990  0.9949 -0.0357 -0.1142
  215MOL0     H29016   6.822   0.319  10.067 -0.9588 -3.1584 -2.6994
  215MOL0     H29017   6.648   0.364  10.278 -1.6674  1.0009 -0.3734
  215MOL0     H29018   6.587   0.493  10.170 -0.1604 -0.0050 -2.2226
  215MOL0     H29019   6.871   0.448  10.287  1.9617  1.6032  0.7274
  215MOL0     H29020   6.842   0.569  10.165  0.2378 -1.1194 -0.0563
  215MOL0     H29021   6.626   0.771  10.458  0.2562  1.6646 -2.5118
  215MOL0     H29022   6.497  -0.009   9.968  2.1635 -1.3246 -2.6987
  215MOL0     H29023   6.425  -0.193   9.915  1.4239  0.9111  0.0830
  215MOL0     H29024   6.255  -0.217   9.893  0.4012  0.7550 -0.0722
  215MOL0     H29025   6.365  -0.224   9.753 -3.7891 -1.2886 -0.0676
  216MOL0     O29026  10.232   0.268   5.934 -0.5213  0.0176  0.0107
  216MOL0     C29027  10.253   0.240   5.820  0.0800  0.9949 -0.4863
  216MOL0     O29028  10.169   0.248   5.723  0.9748  0.8452 -0.6958
  216MOL0     C29029  10.070   0.343   5.719  0.6139  0.4392 -0.1713
  216MOL0     C29030  10.022   0.438   5.819  0.9117 -0.7882 -0.0115
  216MOL0     C29031   9.909   0.525   5.812  0.7386  0.6403  0.2025
  216MOL0     C29032   9.844   0.517   5.686 -0.2127  0.3088 -0.5863
  216MOL0     O29033   9.739   0.608   5.659 -1.0082 -0.4848  0.3378
  216MOL0     C29034   9.713   0.713   5.747  0.1311  0.1753  0.6648
  216MOL0     C29035   9.612   0.816   5.693 -0.5087  0.1874 -0.1295
  216MOL0     C29036   9.465   0.765   5.698  0.7888 -0.2971 -0.4749
  216MOL0     C29037   9.392   0.853   5.807 -0.9298  0.2232 -0.1071
  216MOL0     C29038   9.244   0.823   5.824 -0.6115  0.4111  0.0872
  216MOL0     C29039   9.179   0.928   5.909  0.2324  0.8527  0.7996
  216MOL0     C29040   9.233   0.953   6.049  0.1844 -0.3239 -0.2657
  216MOL0     C29041   9.150   1.058   6.128 -0.4676  0.3923  0.1861
  216MOL0     N29042   9.216   1.086   6.256  0.0233  1.2418  0.0674
  216MOL0     C29043   9.324   1.163   6.269 -0.1926 -0.0180 -0.3151
  216MOL0     C29044   9.333   1.170   6.405 -0.1512 -0.4606  0.2883
  216MOL0     C29045   9.436   1.248   6.482  0.2205  0.3108 -0.5969
  216MOL0     C29046   9.588   1.223   6.428 -0.1069  0.4413  0.4634
  216MOL0     C29047   9.624   1.080   6.469 -1.2463 -0.0267 -0.8472
  216MOL0     C29048   9.764   1.033   6.421  0.4520  0.3696 -0.5476
  216MOL0     O29049   9.866   1.125   6.463  0.0217 -0.4486  0.2342
  216MOL0     C29050   9.996   1.088   6.469 -0.2618 -0.3218  0.4621
  216MOL0     C29051  10.077   1.193   6.493 -0.2055  0.6768  0.8665
  216MOL0     C29052  10.216   1.168   6.499 -0.9118 -0.2980 -0.8169
  216MOL0     C29053  10.271   1.041   6.474  0.0953 -0.4861 -0.2255
  216MOL0     C29054  10.417   1.020   6.458  0.6834 -0.3117  0.7311
  216MOL0     O29055  10.459   0.907   6.392  0.5683 -0.1092  0.2220
  216MOL0     C29056  10.580   0.850   6.391 -0.1849  0.0149  0.9366
  216MOL0     C29057  10.607   0.752   6.296  0.6471  0.8251  1.0806
  216MOL0     C29058  10.734   0.708   6.269  0.3682 -0.5964  0.4634
  216MOL0     C29059  10.845   0.764   6.348 -0.3583 -0.4133  1.1600
  216MOL0     O29060  10.978   0.717   6.339  0.7835 -0.3981 -0.6913
  216MOL0     C29061  11.020   0.711   6.203 -0.3805  0.8429 -0.5767
  216MOL0     C29062  11.170   0.648   6.203  0.7518  0.5894  0.0167
  216MOL0     C29063  11.283   0.760   6.205  0.3551  0.0808 -0.3943
  216MOL0     C29064  11.320   0.790   6.353  0.2058  0.0488  0.1393
  216MOL0     C29065  11.453   0.880   6.349  0.1024  0.4023  0.9238
  216MOL0     C29066  11.508   0.912   6.486 -0.5748  0.0574 -0.8883
  216MOL0     C29067  11.624   1.012   6.490  1.0030  0.2169 -0.1659
  216MOL0     C29068  11.741   0.984   6.392  0.1927 -0.2991  0.5885
  216MOL0    Cl29069  11.884   1.081   6.430  0.1386 -0.0096  0.4264
  216MOL0     C29070  10.808   0.850   6.451 -0.3266 -0.3852  1.4188
  216MOL0     C29071  10.681   0.891   6.478  0.6249  0.7988  0.3267
  216MOL0     O29072  10.494   1.123   6.475  0.5766  0.0482 -0.0548
  216MOL0     C29073  10.178   0.935   6.444  0.5669  0.9613  0.7540
  216MOL0     C29074  10.046   0.961   6.430 -0.0182 -0.0945 -0.5897
  216MOL0     N29075   9.241   1.095   6.467  0.0613  0.1908  0.3199
  216MOL0     N29076   9.178   1.034   6.376  0.5441 -0.2375 -0.9252
  216MOL0     C29077   9.893   0.435   5.587 -0.0902  0.4403  0.2130
  216MOL0     C29078   9.999   0.351   5.599 -0.4518  0.2268  0.0754
  216MOL0     C29079  10.382   0.168   5.806  0.5480 -0.0506  0.0164
  216MOL0     C29080  10.480   0.176   5.907  0.0967  0.0036  0.2663
  216MOL0     C29081  10.615   0.130   5.893  0.9727  0.4433 -0.0828
  216MOL0     C29082  10.650   0.066   5.772  0.1231  1.2591 -0.7088
  216MOL0     O29083  10.782   0.018   5.760 -0.0291 -0.2338  0.1380
  216MOL0     C29084  10.870   0.123   5.710  0.2021 -0.5391 -0.2258
  216MOL0     C29085  10.922   0.230   5.800 -0.4926 -0.6219  0.5130
  216MOL0     C29086  10.946   0.361   5.722 -0.0494 -0.4159  0.4685
  216MOL0     C29087  11.013   0.470   5.797 -0.7149  0.1836  0.3338
  216MOL0     C29088  11.159   0.438   5.805 -0.5378  0.0144 -0.2525
  216MOL0     C29089  11.283   0.430   5.811  0.4220  0.0589 -0.1766
  216MOL0     C29090  10.549   0.058   5.666  0.5754  0.5154 -0.8231
  216MOL0     C29091  10.423   0.099   5.684  0.0701 -0.4810  0.4052
  216MOL0     C29092  10.338   0.075   5.559 -0.2509 -0.4969  0.3114
  216MOL0     H29093  10.076   0.451   5.913  1.4676  3.6378 -0.7177
  216MOL0     H29094   9.878   0.585   5.897 -1.6481  1.0211 -0.8330
  216MOL0     H29095   9.677   0.670   5.840  0.5029 -2.1886 -0.2079
  216MOL0     H29096   9.809   0.756   5.778 -0.1006 -0.6197  2.6237
  216MOL0     H29097   9.636   0.835   5.588 -0.1476  0.1167 -0.0582
  216MOL0     H29098   9.620   0.911   5.745 -1.7804  0.4294 -0.3212
  216MOL0     H29099   9.463   0.659   5.725  2.0433  0.2991  2.3920
  216MOL0     H29100   9.418   0.779   5.601  0.3162  1.2506 -0.0671
  216MOL0     H29101   9.445   0.833   5.900  0.3893  2.0729 -0.4096
  216MOL0     H29102   9.410   0.959   5.786 -0.6136  1.0649  3.7257
  216MOL0     H29103   9.186   0.815   5.731 -2.7764 -0.0678  1.4090
  216MOL0     H29104   9.244   0.721   5.865 -1.6879  0.2250 -0.3307
  216MOL0     H29105   9.166   1.018   5.848 -1.9845  0.7760  1.0828
  216MOL0     H29106   9.079   0.893   5.938  0.7444  1.1246  3.1231
  216MOL0     H29107   9.337   0.985   6.051  0.5677 -1.5394  1.4600
  216MOL0     H29108   9.231   0.853   6.094 -2.0818 -0.0033  0.4761
  216MOL0     H29109   9.145   1.145   6.063 -2.5078 -0.7354 -1.2726
  216MOL0     H29110   9.048   1.021   6.141  0.2742 -1.3009  1.6504
  216MOL0     H29111   9.391   1.202   6.192  0.8433 -1.9952 -0.4835
  216MOL0     H29112   9.408   1.353   6.489  0.1555  0.4503 -2.5547
  216MOL0     H29113   9.431   1.201   6.581 -0.5651 -2.4185 -1.8285
  216MOL0     H29114   9.590   1.211   6.319  1.3243 -0.6727  0.5790
  216MOL0     H29115   9.648   1.307   6.462  2.2759  0.8716 -4.0594
  216MOL0     H29116   9.547   1.015   6.426 -1.3200 -0.9713  0.6159
  216MOL0     H29117   9.614   1.062   6.577 -3.4104 -2.5404 -1.3686
  216MOL0     H29118   9.760   1.021   6.312 -0.3430  1.7902 -0.6970
  216MOL0     H29119   9.782   0.937   6.470  1.2904  1.6005  1.7134
  216MOL0     H29120  10.028   1.287   6.516 -0.3442  0.4698  1.4363
  216MOL0     H29121  10.287   1.242   6.532 -0.9008 -0.2769 -0.8869
  216MOL0     H29122  10.532   0.726   6.222  2.9381 -0.7144 -0.8507
  216MOL0     H29123  10.754   0.627   6.199 -0.2359  1.7139 -2.6185
  216MOL0     H29124  10.961   0.635   6.151 -2.5389  2.2747 -0.3628
  216MOL0     H29125  11.026   0.802   6.142 -0.6467  0.5637 -1.0265
  216MOL0     H29126  11.182   0.586   6.292 -0.1408  0.9085  0.3701
  216MOL0     H29127  11.184   0.588   6.113  0.5051  0.5029  0.0343
  216MOL0     H29128  11.379   0.728   6.166  0.3986 -0.7167  0.3473
  216MOL0     H29129  11.244   0.845   6.148 -2.6607 -0.9014 -0.0106
  216MOL0     H29130  11.352   0.695   6.397  2.8435  0.5007 -0.6080
  216MOL0     H29131  11.234   0.832   6.405 -0.2860 -1.2804  0.4575
  216MOL0     H29132  11.438   0.970   6.289 -1.9154 -1.0597 -0.9378
  216MOL0     H29133  11.525   0.811   6.305  0.6568  1.5183  0.0203
  216MOL0     H29134  11.428   0.957   6.545 -1.4834 -3.2670  0.6070
  216MOL0     H29135  11.534   0.818   6.535 -0.7129 -0.2564 -1.4039
  216MOL0     H29136  11.660   1.010   6.593  1.4651  1.3931 -0.2958
  216MOL0     H29137  11.572   1.105   6.465 -2.2258 -1.9885 -2.4570
  216MOL0     H29138  11.771   0.881   6.413 -0.5981 -0.2034  2.3758
  216MOL0     H29139  11.715   0.998   6.287 -1.6662 -0.0382  1.0387
  216MOL0     H29140  10.895   0.881   6.508  2.0506 -2.1936 -0.9667
  216MOL0     H29141  10.665   0.964   6.557  1.3197 -0.6706  1.9000
  216MOL0     H29142  10.215   0.843   6.399  0.4544  0.4571  1.6666
  216MOL0     H29143   9.981   0.885   6.389 -0.3143  0.5267 -1.2904
  216MOL0     H29144   9.834   0.437   5.496  1.0458 -2.6412 -0.7439
  216MOL0     H29145  10.029   0.278   5.525 -1.0857 -2.4407  2.2779
  216MOL0     H29146  10.456   0.219   6.004 -4.4346 -0.5612 -0.4160
  216MOL0     H29147  10.687   0.129   5.974 -0.4561 -1.0401  1.2382
  216MOL0     H29148  10.813   0.178   5.634  0.1315 -0.9119 -0.4448
  216MOL0     H29149  10.951   0.070   5.660  0.6708  1.5058 -1.7948
  216MOL0     H29150  11.020   0.210   5.845 -1.7704 -0.5642  3.5774
  216MOL0     H29151  10.858   0.250   5.887 -1.9962 -1.8694 -0.2482
  216MOL0     H29152  10.846   0.397   5.699 -0.1330 -0.7720  0.2641
  216MOL0     H29153  11.001   0.334   5.632  0.4613  1.3761  0.2095
  216MOL0     H29154  11.006   0.571   5.755 -0.8276 -0.8877 -2.3541
  216MOL0     H29155  10.961   0.476   5.894  1.4115 -0.2707  1.5778
  216MOL0     H29156  11.385   0.405   5.833  0.6225  1.3494  0.4355
  216MOL0     H29157  10.580   0.025   5.567  0.2810  1.6178 -1.2964
  216MOL0     H29158  10.375   0.013   5.477  1.5875  2.8954 -1.6373
  216MOL0     H29159  10.231   0.059   5.577 -0.4226  0.3025  0.0411
  216MOL0     H29160  10.336   0.169   5.503 -0.3125  0.5656  2.0026
  217MOL0     O29161   0.733   3.986   4.973  0.9292 -0.0896  0.0570
  217MOL0     C29162   0.763   4.027   4.858 -0.3955 -0.2374  0.2097
  217MOL0     O29163   0.718   3.965   4.743  0.0402 -0.1004  0.3029
  217MOL0     C29164   0.688   3.828   4.765 -0.0508 -0.7642  0.0235
  217MOL0     C29165   0.783   3.727   4.728 -0.4281  0.2274  0.0554
  217MOL0     C29166   0.742   3.593   4.762  0.1131 -0.5553  0.2839
  217MOL0     C29167   0.628   3.551   4.823 -0.6217 -1.1547 -0.8538
  217MOL0     O29168   0.602   3.420   4.836  0.0375 -0.0198 -0.2138
  217MOL0     C29169   0.605   3.341   4.719 -0.0782 -0.7869 -0.3643
  217MOL0     C29170   0.669   3.215   4.756 -0.2601 -0.0806  0.6948
  217MOL0     C29171   0.813   3.237   4.806  0.0741  0.5891  0.3549
  217MOL0     C29172   0.901   3.114   4.818  0.4438  0.1703  1.0677
  217MOL0     C29173   0.951   3.072   4.679  0.4759 -0.4212  0.4403
  217MOL0     C29174   0.966   2.918   4.677 -0.1860  0.6329 -0.0519
  217MOL0     C29175   1.037   2.867   4.556 -0.4503 -0.1991 -0.8895
  217MOL0     C29176   0.955   2.875   4.428  0.0942  0.4920 -0.8019
  217MOL0     N29177   1.006   2.788   4.321  0.4836 -0.6333  0.2322
  217MOL0     C29178   1.087   2.838   4.224  0.2168 -0.4036  0.3277
  217MOL0     C29179   1.138   2.726   4.172 -0.2571  0.0766 -0.1279
  217MOL0     C29180   1.236   2.731   4.050  1.0191 -0.1604 -0.6156
  217MOL0     C29181   1.376   2.683   4.089  0.7469  0.4101 -0.1294
  217MOL0     C29182   1.455   2.775   4.181 -0.9982  0.6022  0.7080
  217MOL0     C29183   1.608   2.743   4.179 -0.2498 -0.7694  0.0036
  217MOL0     O29184   1.672   2.762   4.053 -0.0924  0.4722  0.2709
  217MOL0     C29185   1.806   2.742   4.055  0.5291 -0.3473  0.2138
  217MOL0     C29186   1.887   2.782   3.942 -0.2911  0.3718  0.7448
  217MOL0     C29187   2.025   2.767   3.941  0.5039  0.3138  0.8313
  217MOL0     C29188   2.094   2.701   4.039  0.3292 -0.0512  0.4717
  217MOL0     C29189   2.240   2.692   4.026  0.7366 -0.2182  0.1877
  217MOL0     O29190   2.294   2.767   3.932  0.3294 -0.0598  0.3305
  217MOL0     C29191   2.431   2.799   3.928  0.0834 -1.0947  0.1030
  217MOL0     C29192   2.527   2.798   4.035  0.1534  0.1099 -0.3567
  217MOL0     C29193   2.667   2.813   4.009  0.0947  0.0070 -0.0275
  217MOL0     C29194   2.713   2.825   3.876 -0.2418 -0.1142  0.9365
  217MOL0     O29195   2.849   2.812   3.844  0.2526 -0.7329  0.0874
  217MOL0     C29196   2.897   2.824   3.714 -0.1663  0.7403  0.1825
  217MOL0     C29197   3.049   2.837   3.710 -0.3587  0.0618 -0.1072
  217MOL0     C29198   3.095   2.886   3.570 -0.0736 -0.4934  0.2330
  217MOL0     C29199   3.239   2.924   3.573 -0.4800 -0.1526  0.2199
  217MOL0     C29200   3.342   2.844   3.662 -0.0749  0.0180 -0.3671
  217MOL0     C29201   3.479   2.895   3.649 -0.2987  0.6681  0.2119
  217MOL0     C29202   3.578   2.782   3.674 -0.1335  0.1537  0.0012
  217MOL0     C29203   3.730   2.820   3.637  0.9578 -0.0518  0.0721
  217MOL0    Cl29204   3.840   2.686   3.664  0.3148 -0.4679  0.0512
  217MOL0     C29205   2.621   2.834   3.778 -1.0135 -0.3548  0.0673
  217MOL0     C29206   2.484   2.827   3.800  0.5517  0.2806 -0.5016
  217MOL0     O29207   2.300   2.631   4.118  0.0936  0.6608  0.0910
  217MOL0     C29208   2.023   2.666   4.158  0.5557  1.1030  0.8072
  217MOL0     C29209   1.879   2.679   4.160 -0.2199 -0.8089  0.3182
  217MOL0     N29210   1.089   2.612   4.240 -0.2886 -0.1570  0.1551
  217MOL0     N29211   1.009   2.658   4.325  0.8622  0.1647  0.0451
  217MOL0     C29212   0.539   3.657   4.868  0.2953  0.7863 -0.2131
  217MOL0     C29213   0.570   3.791   4.837 -0.0365 -0.7200 -1.1235
  217MOL0     C29214   0.818   4.172   4.853  0.1494  0.4503  0.1724
  217MOL0     C29215   0.809   4.257   4.744 -0.0962 -0.3181  0.1137
  217MOL0     C29216   0.837   4.390   4.749  0.3759 -0.9225 -1.0248
  217MOL0     C29217   0.888   4.444   4.866  0.5391 -0.1891 -0.4547
  217MOL0     O29218   0.922   4.573   4.864  1.0848  0.0549  1.2364
  217MOL0     C29219   0.857   4.654   4.959 -0.4216 -0.7955  0.6036
  217MOL0     C29220   0.935   4.788   4.989  0.1367  0.8388 -0.0513
  217MOL0     C29221   0.983   4.858   4.858 -1.3673 -0.4082 -0.6474
  217MOL0     C29222   0.871   4.914   4.763  0.0427 -0.1349 -0.0685
  217MOL0     C29223   0.775   4.994   4.835 -0.2677  0.0061  0.1357
  217MOL0     C29224   0.672   5.055   4.874 -0.0266 -0.0664  0.5161
  217MOL0     C29225   0.910   4.364   4.970 -0.6556  0.4575 -0.2200
  217MOL0     C29226   0.875   4.224   4.970 -0.3747 -0.7232 -0.4856
  217MOL0     C29227   0.940   4.144   5.076  0.7237  0.9655  0.2611
  217MOL0     H29228   0.877   3.753   4.681  0.4605 -2.7001  0.0200
  217MOL0     H29229   0.817   3.520   4.735  0.5650  0.1854 -0.5330
  217MOL0     H29230   0.497   3.330   4.703 -0.9520  3.7807  1.0822
  217MOL0     H29231   0.640   3.384   4.624 -0.7554  0.8325  0.0821
  217MOL0     H29232   0.684   3.157   4.665  3.1408  2.3652 -0.5183
  217MOL0     H29233   0.612   3.163   4.834  0.9856  0.2043  1.8354
  217MOL0     H29234   0.804   3.278   4.907 -0.7084 -0.6644  0.8055
  217MOL0     H29235   0.856   3.316   4.743  2.8828  0.0827  1.4750
  217MOL0     H29236   0.994   3.132   4.873 -0.0438 -0.6567  2.2115
  217MOL0     H29237   0.844   3.036   4.869  0.1484  0.5468  1.3207
  217MOL0     H29238   0.878   3.096   4.601 -1.5281  0.0379  2.3654
  217MOL0     H29239   1.046   3.114   4.644 -0.0156 -0.9769 -1.7395
  217MOL0     H29240   1.037   2.904   4.759  0.0382 -0.1380 -0.3766
  217MOL0     H29241   0.870   2.866   4.682 -0.7022  1.3119 -2.0337
  217MOL0     H29242   1.059   2.763   4.580 -1.0661  0.0303  0.8436
  217MOL0     H29243   1.134   2.918   4.543 -1.3395  2.0631  0.6043
  217MOL0     H29244   0.856   2.833   4.447 -0.3307  0.3068 -3.1514
  217MOL0     H29245   0.945   2.981   4.404  0.6627  0.1362 -2.8082
  217MOL0     H29246   1.123   2.938   4.199 -0.6750 -0.2303 -0.3027
  217MOL0     H29247   1.208   2.674   3.961  3.0695  1.0651 -2.1492
  217MOL0     H29248   1.231   2.834   4.013 -3.5615 -0.8182 -2.4524
  217MOL0     H29249   1.368   2.589   4.144 -1.2925 -0.3254 -1.5859
  217MOL0     H29250   1.439   2.670   4.001  1.1905  1.3938  0.0291
  217MOL0     H29251   1.427   2.752   4.284 -0.0004 -3.6229  0.2129
  217MOL0     H29252   1.437   2.881   4.160 -1.3402  1.0600  3.0636
  217MOL0     H29253   1.621   2.640   4.213  3.7632 -0.3082  0.4228
  217MOL0     H29254   1.647   2.813   4.253 -3.1160  1.6871 -0.5814
  217MOL0     H29255   1.838   2.826   3.855  0.8999  0.8243  0.2766
  217MOL0     H29256   2.063   2.814   3.851 -0.0018  1.5380  1.2414
  217MOL0     H29257   2.510   2.776   4.140  3.1955 -1.7058 -0.1236
  217MOL0     H29258   2.747   2.806   4.083  1.6289 -0.3458 -1.6402
  217MOL0     H29259   2.869   2.732   3.662 -0.2283  0.0861  1.3428
  217MOL0     H29260   2.851   2.904   3.655  0.8180  1.7787  0.7870
  217MOL0     H29261   3.077   2.905   3.790  0.0264 -0.1223 -0.0820
  217MOL0     H29262   3.092   2.739   3.730  1.7781  0.9236 -0.2040
  217MOL0     H29263   3.075   2.816   3.488  0.1115  0.5795 -0.7555
  217MOL0     H29264   3.027   2.968   3.542 -2.2328 -2.0692  0.5676
  217MOL0     H29265   3.257   3.026   3.609 -1.1087  0.4004 -0.9535
  217MOL0     H29266   3.273   2.909   3.470 -2.4502 -0.1466 -0.4698
  217MOL0     H29267   3.339   2.736   3.641 -2.7815 -0.1974  0.7365
  217MOL0     H29268   3.304   2.864   3.763 -0.7692 -0.1485 -0.5915
  217MOL0     H29269   3.501   2.922   3.546 -0.9955  0.3286 -0.0365
  217MOL0     H29270   3.493   2.987   3.706  0.2467  2.6252 -2.8581
  217MOL0     H29271   3.558   2.692   3.617  4.9515 -0.3402 -1.5313
  217MOL0     H29272   3.585   2.763   3.782  3.1248  2.4827  0.3761
  217MOL0     H29273   3.731   2.849   3.531  1.1177 -0.3659 -0.0155
  217MOL0     H29274   3.754   2.910   3.694  0.3209 -0.9012  1.7380
  217MOL0     H29275   2.643   2.834   3.672 -0.9348  2.1987  0.0247
  217MOL0     H29276   2.412   2.835   3.719 -0.1510  1.7990  0.2488
  217MOL0     H29277   2.081   2.618   4.236 -0.6710 -0.8902  0.5596
  217MOL0     H29278   1.831   2.629   4.243 -0.7313 -1.9791 -0.6472
  217MOL0     H29279   0.438   3.625   4.890 -0.3333 -0.8737 -4.5676
  217MOL0     H29280   0.504   3.870   4.871  1.8903  1.1315 -1.4555
  217MOL0     H29281   0.769   4.211   4.654  2.5443 -0.7857 -0.9142
  217MOL0     H29282   0.825   4.455   4.663 -0.1752 -0.1482 -0.3719
  217MOL0     H29283   0.856   4.597   5.052  2.2068 -0.5552  0.8558
  217MOL0     H29284   0.759   4.680   4.918 -0.9553 -2.8056  0.5256
  217MOL0     H29285   1.017   4.748   5.049 -1.2461  0.9382  1.9880
  217MOL0     H29286   0.871   4.845   5.056  0.1347 -0.4317  1.0647
  217MOL0     H29287   1.054   4.795   4.804  0.1984 -0.3324  1.1982
  217MOL0     H29288   1.039   4.948   4.883 -2.7515  0.4196 -0.4727
  217MOL0     H29289   0.925   4.976   4.691  2.2445 -0.4691  1.1893
  217MOL0     H29290   0.821   4.838   4.702  0.0259 -0.1025 -0.0947
  217MOL0     H29291   0.576   5.085   4.911 -0.7133 -0.3309 -0.9908
  217MOL0     H29292   0.957   4.409   5.057 -1.4808 -0.0036  0.4793
  217MOL0     H29293   0.977   4.048   5.041 -1.8352 -1.1130  2.7479
  217MOL0     H29294   1.016   4.201   5.131 -1.2056 -0.3253  4.7344
  217MOL0     H29295   0.857   4.123   5.144 -0.3883  0.2386 -1.2534
  218MOL0     O29296   3.795   1.056   4.863 -0.4211 -0.6300 -0.3883
  218MOL0     C29297   3.794   1.176   4.862  0.0580 -0.9476  0.6073
  218MOL0     O29298   3.798   1.263   4.969 -0.3734  0.1124 -0.2395
  218MOL0     C29299   3.823   1.197   5.089 -0.1371  0.7858  0.2448
  218MOL0     C29300   3.717   1.156   5.176  0.2132  0.6331  0.5187
  218MOL0     C29301   3.742   1.113   5.303  0.9794  0.0703  0.7012
  218MOL0     C29302   3.873   1.089   5.338 -0.1570  0.2407 -0.5133
  218MOL0     O29303   3.889   1.016   5.455  0.0204 -0.1802  0.0768
  218MOL0     C29304   3.974   0.907   5.444  0.2704  0.4134 -0.2342
  218MOL0     C29305   3.988   0.830   5.578  0.5163  0.7070  1.1973
  218MOL0     C29306   4.031   0.919   5.699 -0.3515 -0.1509  0.9381
  218MOL0     C29307   4.177   0.971   5.674 -1.1068  0.3321 -0.0667
  218MOL0     C29308   4.255   1.029   5.789  0.2117  0.1676 -0.1625
  218MOL0     C29309   4.384   1.087   5.760 -0.9425  1.0308 -0.9395
  218MOL0     C29310   4.454   1.171   5.873 -0.3297  0.5113 -0.4611
  218MOL0     C29311   4.599   1.122   5.903 -0.1822 -0.6819  0.7222
  218MOL0     N29312   4.679   1.141   5.778  0.1884  0.2930  0.7963
  218MOL0     C29313   4.802   1.079   5.767 -0.1269 -0.7475 -0.4674
  218MOL0     C29314   4.855   1.135   5.653  0.1797 -1.1038  0.3672
  218MOL0     C29315   4.996   1.108   5.592  0.1088 -0.0779 -0.0304
  218MOL0     C29316   5.024   0.957   5.567 -0.7205  0.5449  0.1070
  218MOL0     C29317   5.169   0.922   5.604 -0.7703 -0.0025 -0.6803
  218MOL0     C29318   5.217   0.783   5.562  0.5584  0.8576  0.5853
  218MOL0     O29319   5.157   0.679   5.646 -0.3710 -0.5041  0.4897
  218MOL0     C29320   5.208   0.558   5.640 -0.2050  0.3536 -1.0303
  218MOL0     C29321   5.133   0.455   5.713  0.0040  0.3912  0.3784
  218MOL0     C29322   5.158   0.317   5.697 -0.1320 -0.8402  0.0494
  218MOL0     C29323   5.278   0.279   5.638  0.6239 -0.1187  0.9845
  218MOL0     C29324   5.313   0.139   5.640 -0.2604 -0.2001  0.3110
  218MOL0     O29325   5.218   0.052   5.696 -0.3638  0.1265 -0.6583
  218MOL0     C29326   5.252  -0.081   5.697  0.3570 -0.6382  0.0033
  218MOL0     C29327   5.169  -0.170   5.631 -0.1940 -0.5042 -0.6665
  218MOL0     C29328   5.201  -0.307   5.626 -0.6922  0.2858  0.1483
  218MOL0     C29329   5.316  -0.351   5.689  0.4949  0.3755 -0.0746
  218MOL0     O29330   5.321  -0.489   5.704  0.0659 -0.3859 -0.3684
  218MOL0     C29331   5.409  -0.550   5.796  0.6704  0.0245  0.1829
  218MOL0     C29332   5.372  -0.693   5.811  0.6216  0.3364 -0.1073
  218MOL0     C29333   5.386  -0.770   5.682 -0.4903  0.8001 -1.1909
  218MOL0     C29334   5.371  -0.935   5.713  1.0988 -0.7670 -0.7316
  218MOL0     C29335   5.327  -1.016   5.585 -0.3520 -0.3060 -0.2690
  218MOL0     C29336   5.412  -0.986   5.462 -0.2750 -0.1370  1.3548
  218MOL0     C29337   5.558  -1.019   5.501 -0.3749 -0.6569  0.5562
  218MOL0     C29338   5.649  -1.050   5.384 -0.0745 -0.8781  0.0061
  218MOL0    Cl29339   5.654  -0.923   5.255 -0.0062  0.1251 -0.0961
  218MOL0     C29340   5.406  -0.264   5.744 -0.3470  0.5177 -0.5233
  218MOL0     C29341   5.366  -0.128   5.762 -0.5409  0.9525 -0.8025
  218MOL0     O29342   5.424   0.106   5.587  0.1151  0.9508  0.0224
  218MOL0     C29343   5.351   0.380   5.578 -0.4785  0.1569 -0.8633
  218MOL0     C29344   5.327   0.522   5.580  0.3676  1.3040  0.5045
  218MOL0     N29345   4.768   1.238   5.609 -0.2775 -0.8988 -0.0628
  218MOL0     N29346   4.666   1.238   5.681 -0.9646 -0.2386  0.1653
  218MOL0     C29347   3.980   1.139   5.254 -0.0122  0.5179 -0.5995
  218MOL0     C29348   3.953   1.197   5.136 -0.2265 -0.5143 -0.1012
  218MOL0     C29349   3.779   1.247   4.733 -0.3752 -0.4827  0.3674
  218MOL0     C29350   3.709   1.374   4.736 -0.0753  0.2781 -0.2440
  218MOL0     C29351   3.694   1.443   4.620 -0.7449 -0.1846 -0.0020
  218MOL0     C29352   3.735   1.393   4.497 -0.4978  1.3455 -0.2608
  218MOL0     O29353   3.714   1.449   4.374  0.8439 -0.6817  0.1848
  218MOL0     C29354   3.637   1.580   4.375  0.2523  0.2836  0.9115
  218MOL0     C29355   3.625   1.636   4.235 -0.3198  0.0947  0.2556
  218MOL0     C29356   3.763   1.706   4.194 -0.8954 -0.1063  0.8836
  218MOL0     C29357   3.796   1.681   4.046  0.0939  0.5566 -0.4679
  218MOL0     C29358   3.903   1.770   3.992  0.6842  0.3122  0.7679
  218MOL0     C29359   3.968   1.849   3.930 -0.5521 -0.3265 -0.5552
  218MOL0     C29360   3.803   1.277   4.491  0.1172 -0.2976 -0.1880
  218MOL0     C29361   3.826   1.202   4.605 -0.8666  0.1726  0.4343
  218MOL0     C29362   3.895   1.063   4.598  0.3564 -0.0277 -1.0626
  218MOL0     H29363   3.618   1.166   5.134  0.9967  0.9190 -1.3479
  218MOL0     H29364   3.657   1.100   5.369 -0.2491  3.1377 -0.1139
  218MOL0     H29365   3.931   0.839   5.370 -2.4836  1.3124  0.4215
  218MOL0     H29366   4.075   0.943   5.423 -0.5273  2.2384 -1.2048
  218MOL0     H29367   4.047   0.739   5.568 -2.4455 -1.1300 -1.6555
  218MOL0     H29368   3.887   0.789   5.592  0.5443 -0.0182 -0.4913
  218MOL0     H29369   4.022   0.860   5.791 -0.2465 -1.5775  0.0627
  218MOL0     H29370   3.964   1.005   5.702  2.5485  2.2404  1.1107
  218MOL0     H29371   4.239   0.893   5.629  1.4671  4.0204 -3.4925
  218MOL0     H29372   4.178   1.049   5.597  1.6372  1.1240  0.6626
  218MOL0     H29373   4.190   1.109   5.823  0.1698  0.9730 -1.9936
  218MOL0     H29374   4.270   0.952   5.865 -3.0018  1.0045  1.4679
  218MOL0     H29375   4.450   1.005   5.730  1.2327  1.4390  2.1881
  218MOL0     H29376   4.379   1.160   5.678 -0.6314  1.0553 -0.9392
  218MOL0     H29377   4.402   1.146   5.966  0.6684 -2.0435 -0.5007
  218MOL0     H29378   4.444   1.278   5.853 -2.5333  0.4381  0.0095
  218MOL0     H29379   4.630   1.180   5.990 -1.6501  1.0009  0.1808
  218MOL0     H29380   4.595   1.013   5.917 -0.1318 -1.7212 -5.0434
  218MOL0     H29381   4.850   1.009   5.835  2.7754 -0.5602 -2.1548
  218MOL0     H29382   5.003   1.149   5.491  2.7039 -0.0177  0.0982
  218MOL0     H29383   5.071   1.165   5.647 -0.3913  1.2086 -0.6203
  218MOL0     H29384   4.964   0.885   5.625  1.3311 -1.4886 -0.1648
  218MOL0     H29385   5.017   0.927   5.462  3.3762  1.4913 -0.5805
  218MOL0     H29386   5.193   0.942   5.708  2.2035 -0.8201 -1.1361
  218MOL0     H29387   5.235   0.990   5.549 -0.1029  1.0604  1.3537
  218MOL0     H29388   5.325   0.790   5.574  0.3559  0.7434  2.8337
  218MOL0     H29389   5.188   0.753   5.460  0.7689 -0.7007  0.9639
  218MOL0     H29390   5.039   0.468   5.765 -0.7512 -1.6789 -0.3450
  218MOL0     H29391   5.081   0.252   5.738 -2.2748  1.3196 -0.3618
  218MOL0     H29392   5.076  -0.136   5.586 -0.3317 -0.2656 -0.2136
  218MOL0     H29393   5.138  -0.385   5.584 -0.2610  0.5846 -1.0949
  218MOL0     H29394   5.512  -0.540   5.762 -0.0846  1.5626 -1.8937
  218MOL0     H29395   5.410  -0.511   5.898  4.6970 -2.2001  1.1813
  218MOL0     H29396   5.447  -0.737   5.878  2.0676  0.1072 -1.8100
  218MOL0     H29397   5.275  -0.716   5.857  1.5398 -0.8765  1.3471
  218MOL0     H29398   5.308  -0.737   5.612 -1.2692  0.2819 -0.5861
  218MOL0     H29399   5.482  -0.748   5.635 -0.1660 -1.2666 -1.6233
  218MOL0     H29400   5.291  -0.944   5.787  2.0676 -0.0434  0.4315
  218MOL0     H29401   5.459  -0.971   5.766  0.4459 -0.2592  0.7512
  218MOL0     H29402   5.222  -0.994   5.560  0.4305 -0.7931 -5.1250
  218MOL0     H29403   5.334  -1.122   5.609  2.7009  0.0678  0.8917
  218MOL0     H29404   5.388  -1.058   5.383  0.8388  0.4474  0.4646
  218MOL0     H29405   5.406  -0.885   5.420 -2.5459 -0.8772 -0.3167
  218MOL0     H29406   5.560  -1.104   5.570  0.0950 -0.5365  0.6913
  218MOL0     H29407   5.598  -0.931   5.553  0.9366 -1.3962  0.8361
  218MOL0     H29408   5.750  -1.060   5.424  0.5139  2.2725 -0.3727
  218MOL0     H29409   5.608  -1.141   5.339 -2.7150  0.1439  0.1248
  218MOL0     H29410   5.501  -0.284   5.792  1.5025  1.2743 -3.6314
  218MOL0     H29411   5.445  -0.065   5.803  1.4212 -0.3556 -2.3334
  218MOL0     H29412   5.431   0.349   5.511  0.6851  0.4883  0.3443
  218MOL0     H29413   5.382   0.592   5.518  0.1403  1.5842  0.6203
  218MOL0     H29414   4.081   1.122   5.290  0.4194  0.6009 -1.7336
  218MOL0     H29415   4.035   1.223   5.069  0.2130 -2.3145 -0.3147
  218MOL0     H29416   3.677   1.418   4.830  0.0417 -0.0901 -0.0325
  218MOL0     H29417   3.631   1.531   4.627  1.0445  1.1151  0.6651
  218MOL0     H29418   3.677   1.659   4.440 -1.2625  3.1996 -1.4538
  218MOL0     H29419   3.534   1.560   4.406 -0.7719 -1.0976 -2.8766
  218MOL0     H29420   3.544   1.710   4.238 -0.1980  0.2097  0.9120
  218MOL0     H29421   3.593   1.555   4.169  1.0513  0.3085 -0.7153
  218MOL0     H29422   3.844   1.689   4.266 -0.9236  1.1785  1.2457
  218MOL0     H29423   3.737   1.812   4.193 -2.4358 -0.4114 -1.8382
  218MOL0     H29424   3.836   1.580   4.030 -0.8759 -0.0888  0.9921
  218MOL0     H29425   3.708   1.693   3.984 -1.7330 -0.7070  1.7204
  218MOL0     H29426   4.029   1.926   3.887 -2.4180  1.0636 -0.8432
  218MOL0     H29427   3.834   1.235   4.396 -1.0942  0.6124 -1.0155
  218MOL0     H29428   3.821   0.984   4.614 -0.8186  1.1917 -0.1690
  218MOL0     H29429   3.940   1.048   4.500  1.0164  1.0557 -0.9432
  218MOL0     H29430   3.979   1.071   4.667  2.4364 -2.8901 -3.0270
  219MOL0     O29431   9.795   1.245   7.535  0.3865 -0.2491 -0.1059
  219MOL0     C29432   9.901   1.202   7.513 -0.7846  0.5770 -0.0443
  219MOL0     O29433   9.914   1.068   7.480 -0.8443  0.6162  0.6663
  219MOL0     C29434   9.822   0.998   7.403  0.2269 -0.2791 -0.1744
  219MOL0     C29435   9.749   1.045   7.297  0.8001 -1.4438  0.9167
  219MOL0     C29436   9.654   0.968   7.236 -0.7269  0.5886  0.7385
  219MOL0     C29437   9.624   0.839   7.282 -0.2044 -0.2304 -0.6468
  219MOL0     O29438   9.525   0.774   7.220 -0.6494  0.5113  0.0236
  219MOL0     C29439   9.531   0.629   7.238 -0.6875  0.3588  0.1378
  219MOL0     C29440   9.436   0.577   7.137  0.1734  0.0606  0.7316
  219MOL0     C29441   9.298   0.603   7.190 -0.5492  0.5141 -0.2185
  219MOL0     C29442   9.193   0.547   7.101 -0.3174 -0.4435 -0.0455
  219MOL0     C29443   9.054   0.561   7.180 -0.1101  0.1103 -0.0231
  219MOL0     C29444   8.968   0.457   7.106 -0.3071 -0.2845  0.2467
  219MOL0     C29445   8.823   0.451   7.160  0.4241 -0.1457 -0.5235
  219MOL0     C29446   8.724   0.366   7.071  0.0923 -0.2240 -0.0943
  219MOL0     N29447   8.734   0.404   6.935 -1.2366  0.0910  0.5016
  219MOL0     C29448   8.768   0.317   6.828 -0.1711  0.1847  0.3926
  219MOL0     C29449   8.770   0.393   6.712 -0.7830  0.4863 -0.6091
  219MOL0     C29450   8.810   0.363   6.574 -0.7145  0.5967 -0.6332
  219MOL0     C29451   8.696   0.379   6.473 -0.0531  0.1664 -0.0238
  219MOL0     C29452   8.591   0.263   6.494  0.5072  0.1404 -0.5065
  219MOL0     C29453   8.471   0.288   6.402 -0.6239  0.1390  0.1644
  219MOL0     O29454   8.396   0.395   6.453  0.7534  0.4761 -0.4955
  219MOL0     C29455   8.258   0.384   6.434 -0.7600  0.4281 -0.5021
  219MOL0     C29456   8.205   0.358   6.304 -0.2725  0.3581  0.0779
  219MOL0     C29457   8.069   0.328   6.283  0.1891  0.8505 -0.0504
  219MOL0     C29458   7.981   0.331   6.393  0.8872 -0.2946  0.2621
  219MOL0     C29459   7.837   0.292   6.380 -0.5275 -0.5788  1.4180
  219MOL0     O29460   7.750   0.301   6.489  0.5305  0.7963 -0.2262
  219MOL0     C29461   7.617   0.263   6.485 -0.4835  0.1012 -0.0644
  219MOL0     C29462   7.525   0.341   6.419  0.1001 -0.3584 -1.3471
  219MOL0     C29463   7.380   0.315   6.446 -0.3609  0.1817 -0.3251
  219MOL0     C29464   7.340   0.212   6.537 -0.1093 -0.3113 -0.4134
  219MOL0     O29465   7.211   0.186   6.562  0.1561 -0.3393  0.1839
  219MOL0     C29466   7.108   0.288   6.526  0.4077  1.6780 -0.3186
  219MOL0     C29467   6.967   0.220   6.527 -0.2834  0.4923 -0.1634
  219MOL0     C29468   6.864   0.303   6.457  0.4433 -0.0588 -0.0419
  219MOL0     C29469   6.730   0.286   6.529  0.0474  0.3275  0.0539
  219MOL0     C29470   6.628   0.395   6.478 -0.2090 -0.0929  0.0234
  219MOL0     C29471   6.494   0.364   6.541  0.2423  0.8707 -0.3287
  219MOL0     C29472   6.369   0.458   6.527 -0.5877  0.0194  0.6858
  219MOL0     C29473   6.259   0.423   6.629  0.9902  0.9600  0.6484
  219MOL0    Cl29474   6.178   0.272   6.619 -0.4030  0.5012  0.2005
  219MOL0     C29475   7.441   0.133   6.590 -0.2839 -0.9548 -0.8519
  219MOL0     C29476   7.575   0.157   6.565  1.0125 -0.4463  0.0670
  219MOL0     O29477   7.808   0.230   6.277  0.0430  0.7596 -0.1219
  219MOL0     C29478   8.032   0.371   6.521 -0.9076  0.2133 -0.4022
  219MOL0     C29479   8.171   0.380   6.543 -0.3206  0.3042  0.1103
  219MOL0     N29480   8.739   0.521   6.750 -0.0362  0.5877  0.0896
  219MOL0     N29481   8.710   0.525   6.875 -0.0402  0.5513 -0.2326
  219MOL0     C29482   9.689   0.797   7.402 -0.3618 -0.5556  0.1024
  219MOL0     C29483   9.789   0.876   7.456  0.3676 -0.2911 -0.1659
  219MOL0     C29484  10.020   1.284   7.530 -0.1526  0.2415 -0.9568
  219MOL0     C29485  10.133   1.238   7.464  0.0520 -0.0044  0.4642
  219MOL0     C29486  10.263   1.277   7.488  0.2731 -0.3354 -0.5930
  219MOL0     C29487  10.279   1.399   7.550  0.5312 -0.8808  0.2196
  219MOL0     O29488  10.406   1.440   7.553  0.0949  0.8703 -0.0995
  219MOL0     C29489  10.457   1.489   7.679 -0.6838 -0.1104 -0.0621
  219MOL0     C29490  10.459   1.389   7.790 -0.4587 -0.4569 -0.1675
  219MOL0     C29491  10.544   1.268   7.755  0.5231 -0.1037 -0.3922
  219MOL0     C29492  10.628   1.212   7.868  0.2647  0.3797  0.4847
  219MOL0     C29493  10.728   1.121   7.816  0.0704 -0.1615  0.1613
  219MOL0     C29494  10.810   1.047   7.768  0.3075 -0.0443 -0.4272
  219MOL0     C29495  10.165   1.473   7.594  0.0914  0.1547 -0.0506
  219MOL0     C29496  10.039   1.406   7.608  0.2016 -0.5393 -0.3579
  219MOL0     C29497   9.928   1.467   7.691  0.3348  0.7487  0.7287
  219MOL0     H29498   9.770   1.140   7.249 -1.8368 -1.2732 -0.0570
  219MOL0     H29499   9.594   1.008   7.155  1.5255  0.2831 -1.1581
  219MOL0     H29500   9.630   0.595   7.205 -0.2920 -0.3091  1.9406
  219MOL0     H29501   9.515   0.588   7.338 -4.0244  2.7031  0.7112
  219MOL0     H29502   9.454   0.469   7.138 -2.8698 -0.6267  4.4214
  219MOL0     H29503   9.439   0.621   7.037 -2.7653  1.0770  0.9860
  219MOL0     H29504   9.289   0.710   7.210  1.2501  0.5266  0.7189
  219MOL0     H29505   9.279   0.558   7.287 -1.8374  3.1064  0.8368
  219MOL0     H29506   9.187   0.606   7.009  1.0022  0.6033  0.5151
  219MOL0     H29507   9.202   0.442   7.074  0.9231 -0.5044  0.5668
  219MOL0     H29508   9.060   0.536   7.287 -2.0986 -4.4587 -0.7492
  219MOL0     H29509   9.006   0.660   7.174  0.1812  0.7506  4.5647
  219MOL0     H29510   8.949   0.495   7.005  0.1262 -0.9743 -0.1067
  219MOL0     H29511   9.014   0.358   7.108  1.8232  0.6521  2.3048
  219MOL0     H29512   8.780   0.545   7.195  0.9548  0.4238 -1.3882
  219MOL0     H29513   8.832   0.387   7.248 -2.3106  0.4287  0.2663
  219MOL0     H29514   8.742   0.258   7.066  2.0586  0.0251  0.3933
  219MOL0     H29515   8.622   0.378   7.108  0.5353  0.7724  0.8602
  219MOL0     H29516   8.783   0.211   6.842 -1.4940  0.1044  1.4427
  219MOL0     H29517   8.903   0.411   6.542  0.4808 -2.3542 -1.9919
  219MOL0     H29518   8.838   0.257   6.584 -1.8093  0.1671 -1.7929
  219MOL0     H29519   8.638   0.470   6.490 -1.1658 -0.6254  0.5122
  219MOL0     H29520   8.732   0.384   6.370 -1.6992 -0.0236 -0.6449
  219MOL0     H29521   8.557   0.252   6.597 -0.6451 -3.1885 -1.1278
  219MOL0     H29522   8.635   0.168   6.462  0.0770  0.1678 -1.2084
  219MOL0     H29523   8.422   0.190   6.397 -0.9426  0.3663 -2.8034
  219MOL0     H29524   8.508   0.315   6.303 -1.2904  0.6489  0.0449
  219MOL0     H29525   8.265   0.353   6.213 -1.3024 -1.0090 -0.5550
  219MOL0     H29526   8.030   0.287   6.191  0.9121  0.5891 -0.2471
  219MOL0     H29527   7.566   0.411   6.347  2.4589  0.7874  0.9138
  219MOL0     H29528   7.317   0.388   6.395  1.7035  0.9348 -1.9582
  219MOL0     H29529   7.113   0.359   6.608  0.6883  0.3269  0.8773
  219MOL0     H29530   7.121   0.331   6.426  0.5022 -0.8469 -1.4834
  219MOL0     H29531   6.978   0.125   6.474  1.5105  0.8827 -0.5547
  219MOL0     H29532   6.941   0.204   6.632  0.5016 -1.3937 -0.2167
  219MOL0     H29533   6.896   0.405   6.477  2.5055 -0.5593 -0.5508
  219MOL0     H29534   6.850   0.286   6.349 -4.1011  1.2733  0.1118
  219MOL0     H29535   6.741   0.288   6.638  3.4081 -2.3710 -0.0773
  219MOL0     H29536   6.682   0.191   6.504 -0.4108  0.7831 -0.8390
  219MOL0     H29537   6.619   0.389   6.369  1.0066 -1.2739 -0.0414
  219MOL0     H29538   6.670   0.492   6.506  1.5596 -0.6765 -0.4556
  219MOL0     H29539   6.464   0.263   6.511 -1.2434 -0.1245  3.7424
  219MOL0     H29540   6.511   0.354   6.649  0.6371 -3.2692 -0.6240
  219MOL0     H29541   6.343   0.455   6.421  0.3609  1.9493  0.3465
  219MOL0     H29542   6.410   0.556   6.552  0.4831  0.3798 -2.1083
  219MOL0     H29543   6.302   0.446   6.727  1.2734  0.9578  0.5278
  219MOL0     H29544   6.191   0.507   6.610 -1.2072 -0.8716  0.0807
  219MOL0     H29545   7.416   0.061   6.666 -0.7745  2.5735  2.6823
  219MOL0     H29546   7.643   0.095   6.622 -0.4516 -0.5413  1.7838
  219MOL0     H29547   7.962   0.364   6.603 -2.0334 -1.5557 -1.4563
  219MOL0     H29548   8.211   0.395   6.643  0.4700  2.0965 -0.4250
  219MOL0     H29549   9.667   0.703   7.452 -4.2604  1.2053  2.1189
  219MOL0     H29550   9.849   0.839   7.539 -0.8050  0.9259  1.3017
  219MOL0     H29551  10.128   1.149   7.402 -2.2201  0.0215  0.5088
  219MOL0     H29552  10.336   1.205   7.451 -1.0774 -3.2718  1.9982
  219MOL0     H29553  10.399   1.577   7.711  1.4459  1.5018 -0.4130
  219MOL0     H29554  10.562   1.515   7.664  0.0411 -2.0532  1.2082
  219MOL0     H29555  10.354   1.363   7.808  0.0750 -2.9321 -0.2799
  219MOL0     H29556  10.502   1.443   7.875  0.9647  3.7057 -3.1741
  219MOL0     H29557  10.613   1.292   7.673 -0.1138 -1.9671 -1.5470
  219MOL0     H29558  10.476   1.187   7.725  0.2761 -1.3236  3.0415
  219MOL0     H29559  10.674   1.295   7.921  0.6488  2.4907 -2.8152
  219MOL0     H29560  10.567   1.144   7.928 -0.0253 -2.7711 -2.9883
  219MOL0     H29561  10.883   0.998   7.708  1.6141 -1.1327  1.9483
  219MOL0     H29562  10.173   1.574   7.633 -3.8777 -0.0426  1.7042
  219MOL0     H29563   9.946   1.571   7.720  0.7709  1.7370 -2.6587
  219MOL0     H29564   9.848   1.480   7.618  1.8722  1.5578 -0.8871
  219MOL0     H29565   9.897   1.397   7.770  1.5093  0.6403  1.1126
  220MOL0     O29566   9.847   3.931   6.299 -0.4746  0.3006  0.2230
  220MOL0     C29567   9.814   3.839   6.226 -0.3956  1.0155 -0.4025
  220MOL0     O29568   9.905   3.760   6.152 -0.3299 -0.1088  0.0469
  220MOL0     C29569  10.042   3.773   6.175  0.1757  0.3517  0.0688
  220MOL0     C29570  10.126   3.756   6.065 -0.0374 -0.1190  0.2379
  220MOL0     C29571  10.266   3.775   6.077 -0.1898 -0.4935  0.2534
  220MOL0     C29572  10.322   3.801   6.205 -0.4488  1.2144  0.3498
  220MOL0     O29573  10.454   3.822   6.235  0.1598  0.5886  0.2043
  220MOL0     C29574  10.554   3.848   6.128  0.4197 -0.4331  0.4675
  220MOL0     C29575  10.689   3.879   6.186 -0.4102  0.7896  0.9118
  220MOL0     C29576  10.721   3.752   6.272 -0.5243  0.7205 -0.4221
  220MOL0     C29577  10.864   3.770   6.331  0.8911 -0.3884 -0.8090
  220MOL0     C29578  10.879   3.697   6.466 -0.6360 -0.7773  0.9478
  220MOL0     C29579  11.013   3.733   6.530 -0.4905 -0.4753  0.1518
  220MOL0     C29580  11.141   3.693   6.450  0.0010 -0.8059 -0.5799
  220MOL0     C29581  11.192   3.561   6.504 -0.3929 -0.5042 -0.2707
  220MOL0     N29582  11.091   3.453   6.484  1.3888  0.5798  0.3376
  220MOL0     C29583  11.062   3.390   6.369 -0.6078  0.8339 -0.2330
  220MOL0     C29584  10.962   3.305   6.400  0.6099 -0.6534  0.2619
  220MOL0     C29585  10.914   3.182   6.320 -0.0881  0.1586 -0.0464
  220MOL0     C29586  10.766   3.176   6.318 -0.4952 -0.1733 -0.6050
  220MOL0     C29587  10.696   3.064   6.238 -0.4545 -0.4586  0.5482
  220MOL0     C29588  10.760   3.043   6.097 -1.1720 -0.1104 -0.1693
  220MOL0     O29589  10.790   3.169   6.040  0.0127  0.4292 -0.0433
  220MOL0     C29590  10.691   3.255   5.995 -0.3192 -0.2682  0.5278
  220MOL0     C29591  10.560   3.233   5.983  1.2109 -0.4592 -0.3095
  220MOL0     C29592  10.469   3.323   5.935 -0.1585 -0.1399  0.4623
  220MOL0     C29593  10.512   3.442   5.887 -0.1284  0.5105 -0.1318
  220MOL0     C29594  10.420   3.535   5.828  0.1933  0.7579 -0.8947
  220MOL0     O29595  10.292   3.495   5.816 -0.3977 -0.2547  0.3992
  220MOL0     C29596  10.192   3.572   5.762  1.7852 -0.0091 -0.4896
  220MOL0     C29597  10.065   3.523   5.802 -0.1572  0.3145  1.2281
  220MOL0     C29598   9.955   3.600   5.783  0.5553 -0.1250 -0.1683
  220MOL0     C29599   9.971   3.717   5.710  0.4470 -0.5409 -0.5714
  220MOL0     O29600   9.857   3.799   5.718  0.0927  0.0522  0.2218
  220MOL0     C29601   9.823   3.892   5.612 -0.4721  0.0052  0.6329
  220MOL0     C29602   9.689   3.961   5.622  0.1219 -0.5278 -0.3038
  220MOL0     C29603   9.691   4.040   5.762 -0.0112  1.1101  0.1090
  220MOL0     C29604   9.545   4.072   5.812 -0.0519  0.5909  0.6622
  220MOL0     C29605   9.551   4.139   5.949 -0.1309  0.4048 -0.3565
  220MOL0     C29606   9.416   4.128   6.028 -0.7270  0.0244 -0.3198
  220MOL0     C29607   9.444   4.205   6.157 -0.0746  0.6202  0.0428
  220MOL0     C29608   9.328   4.198   6.260 -0.4171 -0.0821  0.2405
  220MOL0    Cl29609   9.222   4.341   6.229 -0.0153  0.1943 -0.3194
  220MOL0     C29610  10.082   3.754   5.647  0.4189 -0.3309  0.3922
  220MOL0     C29611  10.199   3.691   5.684  0.1425  0.1542 -0.1451
  220MOL0     O29612  10.467   3.642   5.792 -0.5504  0.6282  0.4997
  220MOL0     C29613  10.649   3.467   5.897 -0.4082 -0.0415  0.7851
  220MOL0     C29614  10.741   3.381   5.949 -1.0339 -0.5516 -0.9266
  220MOL0     N29615  10.921   3.334   6.525 -0.4547  0.1982  0.6579
  220MOL0     N29616  11.006   3.415   6.582 -0.0741  0.3215  0.1580
  220MOL0     C29617  10.234   3.818   6.315  0.3774 -0.1972 -0.3770
  220MOL0     C29618  10.098   3.804   6.301  1.7124 -0.0253  0.2154
  220MOL0     C29619   9.669   3.811   6.197  0.4604 -0.0924  0.5912
  220MOL0     C29620   9.628   3.747   6.074  0.2682 -0.6976  0.1572
  220MOL0     C29621   9.497   3.710   6.047 -0.3626 -0.3437  0.4873
  220MOL0     C29622   9.399   3.747   6.145  0.5227 -0.2203  0.3408
  220MOL0     O29623   9.261   3.723   6.116 -0.5194 -0.2789  0.1172
  220MOL0     C29624   9.208   3.632   6.206  0.4716  0.1145 -0.3611
  220MOL0     C29625   9.213   3.483   6.174  0.7435  0.4685 -0.3840
  220MOL0     C29626   9.346   3.415   6.219  0.1266 -1.0923  0.3389
  220MOL0     C29627   9.372   3.418   6.368  0.7954 -0.7161 -0.2466
  220MOL0     C29628   9.505   3.380   6.389 -1.3532 -1.0219 -0.1526
  220MOL0     C29629   9.611   3.342   6.424 -0.3542  0.1967  0.5058
  220MOL0     C29630   9.435   3.820   6.255  0.1802  0.0227  0.1235
  220MOL0     C29631   9.567   3.863   6.286 -0.0368  0.5798 -0.4165
  220MOL0     C29632   9.591   3.944   6.419 -0.2462  0.5760 -0.3547
  220MOL0     H29633  10.082   3.726   5.971  1.1587 -0.7112 -0.1519
  220MOL0     H29634  10.324   3.755   5.987  1.1138 -1.4339  1.2617
  220MOL0     H29635  10.553   3.765   6.057  0.3610  1.4571 -1.8758
  220MOL0     H29636  10.530   3.934   6.066 -0.0968 -0.3271  0.8013
  220MOL0     H29637  10.682   3.960   6.258  2.6733  0.5686  1.5968
  220MOL0     H29638  10.750   3.887   6.095  1.5562 -0.0138  2.0981
  220MOL0     H29639  10.734   3.664   6.209  4.2237  2.4761 -2.3094
  220MOL0     H29640  10.649   3.733   6.352 -2.5449  0.4216 -2.2318
  220MOL0     H29641  10.943   3.744   6.260 -0.0325 -4.7370 -0.5174
  220MOL0     H29642  10.885   3.877   6.341  3.4821 -0.6891 -2.2382
  220MOL0     H29643  10.797   3.735   6.528  1.4501  0.1205  3.3381
  220MOL0     H29644  10.866   3.590   6.448  0.9016 -0.8235 -0.0870
  220MOL0     H29645  11.011   3.840   6.553  2.7023 -0.7572  2.3108
  220MOL0     H29646  11.008   3.680   6.625 -1.9224 -1.3265 -0.3735
  220MOL0     H29647  11.213   3.772   6.472 -1.0387  0.2227 -0.7792
  220MOL0     H29648  11.118   3.682   6.344  1.0815  1.6628 -1.1214
  220MOL0     H29649  11.283   3.546   6.445 -0.1150 -0.7080  0.2031
  220MOL0     H29650  11.216   3.561   6.611 -0.6614  0.7476 -0.1986
  220MOL0     H29651  11.118   3.395   6.277  0.2718  2.6234  0.3593
  220MOL0     H29652  10.963   3.190   6.223 -1.6213 -1.5571 -1.0177
  220MOL0     H29653  10.952   3.094   6.373 -0.1308  0.1687  0.0003
  220MOL0     H29654  10.731   3.156   6.420  0.2253 -5.3846 -1.1370
  220MOL0     H29655  10.727   3.269   6.275 -1.7095  0.5662  1.8722
  220MOL0     H29656  10.591   3.086   6.220 -0.7510 -1.5952  0.7928
  220MOL0     H29657  10.707   2.970   6.294  1.5858 -1.6465 -1.6527
  220MOL0     H29658  10.709   2.977   6.026 -4.6157  0.0385  1.9519
  220MOL0     H29659  10.855   2.995   6.127 -1.7875 -1.3630 -0.1361
  220MOL0     H29660  10.522   3.133   6.003  0.2384 -0.3926 -1.7323
  220MOL0     H29661  10.365   3.292   5.934  0.0780 -0.9353  0.2023
  220MOL0     H29662  10.054   3.433   5.862  2.6907 -0.3054  0.9267
  220MOL0     H29663   9.863   3.590   5.840  1.5702  2.4796  2.1772
  220MOL0     H29664   9.900   3.969   5.616 -0.0811 -0.4181  2.2201
  220MOL0     H29665   9.822   3.841   5.516 -1.3893  3.2550 -1.2162
  220MOL0     H29666   9.671   4.024   5.535 -1.2661 -1.2392 -0.5699
  220MOL0     H29667   9.608   3.887   5.631 -2.3169  2.0369  0.3288
  220MOL0     H29668   9.740   3.968   5.829 -1.4329 -0.4652 -0.4758
  220MOL0     H29669   9.751   4.131   5.752 -0.3299  1.4470  1.1557
  220MOL0     H29670   9.485   3.981   5.813 -2.0341  1.8010 -0.6569
  220MOL0     H29671   9.509   4.145   5.739  0.3133  1.3932  1.2626
  220MOL0     H29672   9.580   4.244   5.948  2.2100 -0.1441  1.4031
  220MOL0     H29673   9.618   4.082   6.015 -1.9954 -0.5539  0.8134
  220MOL0     H29674   9.343   4.189   5.973  1.5439  1.3231 -2.0370
  220MOL0     H29675   9.381   4.026   6.046  1.2616 -0.7063 -0.3886
  220MOL0     H29676   9.462   4.310   6.129  1.6046  0.2206 -0.4829
  220MOL0     H29677   9.536   4.163   6.200  0.0165  1.6293  0.8676
  220MOL0     H29678   9.273   4.103   6.261  2.5616 -1.9627  0.4924
  220MOL0     H29679   9.371   4.207   6.361  0.8551 -1.9242 -0.0732
  220MOL0     H29680  10.091   3.851   5.600  0.1821 -1.2054 -1.5682
  220MOL0     H29681  10.297   3.729   5.655 -0.3997 -0.6773 -3.4645
  220MOL0     H29682  10.686   3.562   5.860 -3.5052 -0.2819 -3.6582
  220MOL0     H29683  10.847   3.397   5.966 -1.3317  0.6600 -0.1016
  220MOL0     H29684  10.269   3.835   6.416  0.8043  2.1435 -0.8552
  220MOL0     H29685  10.028   3.816   6.383  1.3195  0.3407 -0.1744
  220MOL0     H29686   9.690   3.722   5.989  0.0976  1.6775 -0.7511
  220MOL0     H29687   9.469   3.670   5.950 -2.2799  0.7177  0.5642
  220MOL0     H29688   9.101   3.655   6.216  1.1817  3.1366  1.3874
  220MOL0     H29689   9.246   3.657   6.305 -2.3955 -0.2905  0.9665
  220MOL0     H29690   9.196   3.464   6.068 -0.7256 -3.1958  0.3490
  220MOL0     H29691   9.127   3.447   6.231  1.0165  2.0628  1.1196
  220MOL0     H29692   9.426   3.473   6.171 -1.1244 -0.0586 -0.5707
  220MOL0     H29693   9.358   3.314   6.179  1.2182 -1.5564  1.7800
  220MOL0     H29694   9.352   3.518   6.407 -1.1083 -0.5801 -1.4128
  220MOL0     H29695   9.305   3.350   6.422 -0.7566 -1.7870 -3.2660
  220MOL0     H29696   9.714   3.317   6.444  0.0703  0.8800 -0.7135
  220MOL0     H29697   9.352   3.862   6.312 -0.1197 -0.4352  0.0324
  220MOL0     H29698   9.625   4.047   6.408  1.2307  0.0916 -0.5428
  220MOL0     H29699   9.507   3.946   6.488  0.4910  0.9596  0.5528
  220MOL0     H29700   9.662   3.880   6.472 -2.0230 -2.4379 -1.3750
  221MOL0     O29701   4.524   1.691   9.439 -0.4198 -0.8032  0.3181
  221MOL0     C29702   4.440   1.693   9.348  0.3548 -0.3548 -0.5494
  221MOL0     O29703   4.460   1.727   9.215 -0.1012 -0.7566 -0.0990
  221MOL0     C29704   4.572   1.803   9.185  0.5034 -0.8919  0.8259
  221MOL0     C29705   4.565   1.934   9.145 -0.5250 -0.3659 -0.0067
  221MOL0     C29706   4.674   2.004   9.101  0.0456  0.3688  0.4617
  221MOL0     C29707   4.800   1.934   9.094  0.2377 -0.9968 -0.4421
  221MOL0     O29708   4.892   2.010   9.019 -0.5328  0.2556 -0.2101
  221MOL0     C29709   5.004   1.946   8.958  0.0427  0.0705 -0.1218
  221MOL0     C29710   4.964   1.902   8.821  0.1462  0.3333  0.5706
  221MOL0     C29711   4.888   2.004   8.726 -0.1750 -0.3743  0.7589
  221MOL0     C29712   4.875   1.965   8.577 -0.2794  0.3030  0.5744
  221MOL0     C29713   4.849   2.078   8.486  0.1995 -0.7231  0.2918
  221MOL0     C29714   4.882   2.051   8.334  0.0178  0.0301  1.2120
  221MOL0     C29715   5.023   2.046   8.280 -0.1301 -0.5683 -0.1828
  221MOL0     C29716   5.103   2.174   8.273  0.4392  0.1596 -0.1700
  221MOL0     N29717   5.163   2.213   8.403  0.4821 -1.0366  0.0358
  221MOL0     C29718   5.263   2.146   8.467 -1.0296 -0.1453  0.5118
  221MOL0     C29719   5.262   2.196   8.591  0.6590  1.3923 -0.7831
  221MOL0     C29720   5.351   2.161   8.706 -0.4612 -0.0197 -0.4688
  221MOL0     C29721   5.477   2.248   8.725  0.2117  0.1195  0.9426
  221MOL0     C29722   5.579   2.170   8.810  0.0101  0.5652 -0.1410
  221MOL0     C29723   5.665   2.266   8.884 -1.1016 -0.0882 -0.3919
  221MOL0     O29724   5.746   2.347   8.801  0.5465  0.2920  0.9737
  221MOL0     C29725   5.855   2.404   8.870 -0.1008 -0.2216  1.1492
  221MOL0     C29726   5.832   2.530   8.920 -0.0449  0.0625  0.2997
  221MOL0     C29727   5.930   2.601   8.993  0.1088 -1.0898 -0.0173
  221MOL0     C29728   6.047   2.535   9.033 -1.3900  0.2191  0.3304
  221MOL0     C29729   6.151   2.605   9.116  0.3023  0.0535 -0.0169
  221MOL0     O29730   6.128   2.727   9.175 -0.1673  0.0524  0.3195
  221MOL0     C29731   6.220   2.792   9.254  0.3192 -0.6742 -0.0993
  221MOL0     C29732   6.360   2.801   9.212  0.2921  0.0330  0.2970
  221MOL0     C29733   6.453   2.853   9.297 -0.3610  0.0007 -0.4390
  221MOL0     C29734   6.410   2.916   9.424 -0.9327  0.0589 -0.6250
  221MOL0     O29735   6.505   2.987   9.491 -0.2424  0.1411 -0.1985
  221MOL0     C29736   6.529   2.933   9.625 -0.0457  0.0114  0.7269
  221MOL0     C29737   6.615   3.028   9.707 -0.0634 -0.1974  0.0054
  221MOL0     C29738   6.754   3.042   9.651  0.6351 -0.7890  0.4516
  221MOL0     C29739   6.834   3.145   9.742 -0.3278 -0.0484 -0.1954
  221MOL0     C29740   6.975   3.167   9.690  0.0464 -0.6412  0.4270
  221MOL0     C29741   7.074   3.059   9.729  0.5529 -0.1348  0.4389
  221MOL0     C29742   7.202   3.061   9.651 -0.5947  0.3322  0.0973
  221MOL0     C29743   7.307   3.147   9.711  0.5953  0.5244 -0.6965
  221MOL0    Cl29744   7.470   3.098   9.641 -0.1082 -0.2065  0.1520
  221MOL0     C29745   6.274   2.914   9.457 -0.2903  0.0030  0.6414
  221MOL0     C29746   6.180   2.853   9.376 -0.3777  0.0990  1.1388
  221MOL0     O29747   6.256   2.543   9.132 -0.0429  0.7311  0.4150
  221MOL0     C29748   6.066   2.400   8.987 -0.5964  0.3948 -0.0779
  221MOL0     C29749   5.969   2.332   8.910 -0.1353 -0.1553 -0.0960
  221MOL0     N29750   5.175   2.306   8.596  0.0500  0.0779  0.0505
  221MOL0     N29751   5.104   2.294   8.491  0.0905 -0.1110  0.5154
  221MOL0     C29752   4.807   1.803   9.130 -0.5902  0.2592  0.1650
  221MOL0     C29753   4.691   1.740   9.181 -0.1746 -0.1518  0.2426
  221MOL0     C29754   4.324   1.601   9.369 -0.3827 -0.1042 -0.0115
  221MOL0     C29755   4.203   1.635   9.313  1.0729  0.3753  0.4094
  221MOL0     C29756   4.092   1.558   9.327  1.0978 -0.5827 -0.7726
  221MOL0     C29757   4.086   1.450   9.408 -0.1008  0.6815  0.7832
  221MOL0     O29758   3.962   1.396   9.423  0.1117  0.7976  0.2580
  221MOL0     C29759   3.932   1.326   9.544 -0.4789 -0.3551 -0.3128
  221MOL0     C29760   3.783   1.330   9.556  0.5787 -0.7436  0.1990
  221MOL0     C29761   3.718   1.273   9.431  0.8821 -1.0741 -0.3233
  221MOL0     C29762   3.583   1.350   9.408  0.5304  0.5772  0.3194
  221MOL0     C29763   3.489   1.336   9.517  0.5313  1.1258  0.3629
  221MOL0     C29764   3.418   1.331   9.616  0.3030  0.5612  0.1144
  221MOL0     C29765   4.211   1.408   9.462  0.6984 -0.4160 -0.1056
  221MOL0     C29766   4.335   1.481   9.447  0.6709 -0.0768  1.2634
  221MOL0     C29767   4.470   1.418   9.490 -0.9010 -0.6529 -0.6619
  221MOL0     H29768   4.470   1.984   9.129 -0.8398 -0.8252  0.3951
  221MOL0     H29769   4.663   2.106   9.064 -1.0289  0.0544 -0.1320
  221MOL0     H29770   5.072   2.031   8.948  0.0299  0.3078  1.4931
  221MOL0     H29771   5.054   1.867   9.015  2.1842  0.4564 -1.3629
  221MOL0     H29772   4.904   1.811   8.827  0.9065 -0.1416  1.1187
  221MOL0     H29773   5.059   1.874   8.774  0.3868  1.2463  0.4762
  221MOL0     H29774   4.939   2.101   8.728  1.4347 -1.1512 -0.9293
  221MOL0     H29775   4.789   2.029   8.765 -0.9496  0.7413 -1.7166
  221MOL0     H29776   4.971   1.920   8.548  0.8118  2.7900  0.1163
  221MOL0     H29777   4.788   1.898   8.578  0.3832 -0.5915  0.2868
  221MOL0     H29778   4.744   2.091   8.514  0.3566  1.9931 -0.1903
  221MOL0     H29779   4.902   2.165   8.524  0.2380 -1.6198  2.4261
  221MOL0     H29780   4.826   1.963   8.303 -2.6631  0.8497  3.3452
  221MOL0     H29781   4.840   2.139   8.282 -2.0824  0.0521  2.8162
  221MOL0     H29782   5.016   2.015   8.175  3.6071  1.5095 -1.2546
  221MOL0     H29783   5.083   1.975   8.338 -0.1130 -1.0123 -0.7308
  221MOL0     H29784   5.183   2.171   8.198  1.4231 -0.4219  0.8816
  221MOL0     H29785   5.038   2.254   8.237 -0.0048  0.3715  1.0682
  221MOL0     H29786   5.331   2.073   8.425 -2.1055 -0.8843  0.0091
  221MOL0     H29787   5.292   2.162   8.798 -0.3450 -1.3438 -0.3603
  221MOL0     H29788   5.383   2.056   8.715  0.3857  0.2183 -0.6248
  221MOL0     H29789   5.517   2.273   8.626 -2.2030  1.3051  0.1807
  221MOL0     H29790   5.466   2.348   8.769  2.0353  1.1584 -0.7550
  221MOL0     H29791   5.637   2.109   8.741  0.1925 -0.1442  0.6147
  221MOL0     H29792   5.531   2.107   8.886 -0.3241  1.6638  0.5877
  221MOL0     H29793   5.726   2.213   8.958 -1.4783  0.2134  0.1366
  221MOL0     H29794   5.599   2.330   8.943 -2.1301  0.7021 -2.3015
  221MOL0     H29795   5.738   2.583   8.907  1.0525  1.9624 -0.3368
  221MOL0     H29796   5.913   2.701   9.029 -0.4978 -1.2538  0.1497
  221MOL0     H29797   6.392   2.750   9.122 -0.6249 -1.5788  0.8406
  221MOL0     H29798   6.557   2.866   9.270  0.1157  2.2038  2.0801
  221MOL0     H29799   6.439   2.918   9.686 -0.7652 -0.7568 -0.4890
  221MOL0     H29800   6.578   2.836   9.621  0.6997  0.3795  0.7794
  221MOL0     H29801   6.558   3.122   9.705 -0.1187 -0.0737  2.8767
  221MOL0     H29802   6.627   2.998   9.811 -0.1875 -0.6787 -0.1165
  221MOL0     H29803   6.801   2.944   9.658  1.5057 -0.4227 -0.1064
  221MOL0     H29804   6.749   3.083   9.550  0.0818  0.1832  0.8589
  221MOL0     H29805   6.827   3.106   9.844 -3.2781  2.9892  0.9478
  221MOL0     H29806   6.775   3.237   9.743 -0.0355  0.1670 -1.5395
  221MOL0     H29807   7.006   3.261   9.736 -0.7187 -0.6473  0.9646
  221MOL0     H29808   6.973   3.171   9.580  1.2218 -0.7240  0.3825
  221MOL0     H29809   7.106   3.075   9.833  0.6572  2.8325  0.0502
  221MOL0     H29810   7.024   2.966   9.703 -1.4937  1.1647 -0.5961
  221MOL0     H29811   7.176   3.098   9.551 -2.6441  0.4535  0.6286
  221MOL0     H29812   7.237   2.958   9.644 -0.3851  0.5277 -2.7350
  221MOL0     H29813   7.288   3.252   9.687 -0.9742  0.0875 -1.4632
  221MOL0     H29814   7.305   3.129   9.819  0.0347  1.4373 -0.5398
  221MOL0     H29815   6.246   2.955   9.553 -2.6965  0.3768 -0.1496
  221MOL0     H29816   6.076   2.856   9.409 -1.2271  1.8182 -1.3943
  221MOL0     H29817   6.154   2.341   9.009 -1.0045  0.6114  2.5365
  221MOL0     H29818   5.995   2.235   8.871  1.4148  0.2135 -0.0634
  221MOL0     H29819   4.901   1.749   9.122 -0.3757  0.5270  0.7877
  221MOL0     H29820   4.684   1.644   9.230 -3.5750  1.4343  3.3924
  221MOL0     H29821   4.206   1.724   9.251  0.0156 -1.6227 -2.7672
  221MOL0     H29822   3.991   1.588   9.301  0.1832 -0.6643  2.2386
  221MOL0     H29823   3.980   1.376   9.629 -1.0285 -0.3091 -0.0213
  221MOL0     H29824   3.965   1.222   9.550  1.6478  0.3379  1.0997
  221MOL0     H29825   3.747   1.431   9.580  3.6139 -0.1972  3.1524
  221MOL0     H29826   3.754   1.277   9.647 -2.6626  1.6243  0.7571
  221MOL0     H29827   3.690   1.170   9.455  1.8903 -1.5958 -1.3006
  221MOL0     H29828   3.775   1.273   9.338  2.0317 -2.4527  0.3550
  221MOL0     H29829   3.610   1.453   9.384 -0.3402  0.3499 -1.9858
  221MOL0     H29830   3.533   1.308   9.320 -2.3871 -1.7611  2.8456
  221MOL0     H29831   3.354   1.341   9.702  0.8516  1.6326  0.4215
  221MOL0     H29832   4.204   1.319   9.525  0.5874 -0.5511 -0.3102
  221MOL0     H29833   4.484   1.455   9.592 -3.0395 -3.0433  0.6386
  221MOL0     H29834   4.449   1.310   9.495  1.9334 -1.3966 -2.4341
  221MOL0     H29835   4.553   1.439   9.422 -1.2955  1.6444 -0.4899
  222MOL0     O29836   6.441   6.618  10.483  0.0715  0.1315  0.2710
  222MOL0     C29837   6.452   6.500  10.513  0.1837  0.4301 -0.0125
  222MOL0     O29838   6.561   6.429  10.530  0.1184  0.5626  0.7287
  222MOL0     C29839   6.680   6.480  10.504  0.2825 -0.3692 -0.6123
  222MOL0     C29840   6.717   6.620  10.538  0.0862  0.6556  0.7167
  222MOL0     C29841   6.847   6.660  10.502  0.2575 -0.3233 -0.9712
  222MOL0     C29842   6.936   6.573  10.436 -0.1329  0.6066  0.2564
  222MOL0     O29843   7.057   6.601  10.400  0.3361 -0.9687  0.0794
  222MOL0     C29844   7.079   6.726  10.334  0.1209 -0.0130 -0.8737
  222MOL0     C29845   7.193   6.805  10.393 -0.4374 -0.6811 -0.2596
  222MOL0     C29846   7.219   6.939  10.317  0.2168  0.1556  0.4411
  222MOL0     C29847   7.337   7.012  10.369 -0.2893 -0.2007  0.1462
  222MOL0     C29848   7.321   7.084  10.506 -0.1833  0.3994  1.0117
  222MOL0     C29849   7.434   7.152  10.583 -0.7672 -0.1602  0.0787
  222MOL0     C29850   7.503   7.268  10.515 -0.0620  0.6087 -0.0940
  222MOL0     C29851   7.622   7.239  10.423 -0.0721 -0.1877 -0.9993
  222MOL0     N29852   7.673   7.368  10.376  1.0909  0.1926  0.3875
  222MOL0     C29853   7.768   7.442  10.441 -1.1082 -0.1388 -0.3724
  222MOL0     C29854   7.781   7.559  10.366  1.3043  0.9638  0.2965
  222MOL0     C29855   7.872   7.679  10.369 -1.1733  1.1218  0.0711
  222MOL0     C29856   7.808   7.790  10.458 -0.5339  0.2104  0.5086
  222MOL0     C29857   7.895   7.918  10.458  0.1246 -0.7432  0.5113
  222MOL0     C29858   8.033   7.891  10.505 -0.0404 -0.3872 -0.2375
  222MOL0     O29859   8.089   8.017  10.559  0.1807  0.1499  0.2445
  222MOL0     C29860   8.223   8.024  10.572  0.0239 -0.0093 -1.0310
  222MOL0     C29861   8.264   8.151  10.596  0.1406  0.0767  0.1605
  222MOL0     C29862   8.407   8.184  10.611  0.0156 -0.1400  0.9295
  222MOL0     C29863   8.496   8.078  10.594 -0.5785  0.4920 -0.6792
  222MOL0     C29864   8.646   8.091  10.592 -0.0604  0.1828  0.2513
  222MOL0     O29865   8.719   7.976  10.579  0.4668  0.4699 -0.5025
  222MOL0     C29866   8.858   7.969  10.589  0.2090  0.4724  0.4380
  222MOL0     C29867   8.909   7.839  10.557  1.0627 -0.3634 -0.0804
  222MOL0     C29868   9.043   7.811  10.553  0.3918 -0.0933 -0.8537
  222MOL0     C29869   9.128   7.900  10.606  0.1231  0.1974  0.9380
  222MOL0     O29870   9.256   7.858  10.611 -0.6603 -0.0052  0.0193
  222MOL0     C29871   9.365   7.942  10.648  0.0779  0.5906  0.0235
  222MOL0     C29872   9.493   7.865  10.686  0.4182  1.1253  1.0107
  222MOL0     C29873   9.562   7.935  10.797 -0.1949  0.0499  0.4414
  222MOL0     C29874   9.708   7.877  10.815 -0.1170  0.0914 -0.2534
  222MOL0     C29875   9.791   7.982  10.895  0.0569  0.3380 -0.6461
  222MOL0     C29876   9.915   7.902  10.944 -0.3085 -0.1229 -0.0328
  222MOL0     C29877  10.001   7.993  11.028  0.1379  0.4501  0.0998
  222MOL0     C29878  10.127   7.911  11.069 -0.4708  0.2331 -0.4526
  222MOL0    Cl29879  10.230   7.905  10.930 -0.1543  0.4860 -0.3635
  222MOL0     C29880   9.085   8.024  10.648 -0.0891  0.3600  0.5031
  222MOL0     C29881   8.953   8.058  10.642  0.3005  0.4047  0.2391
  222MOL0     O29882   8.693   8.204  10.583  0.4309 -0.4725  0.5524
  222MOL0     C29883   8.447   7.948  10.572  0.1264  0.7329 -0.0060
  222MOL0     C29884   8.309   7.916  10.569 -0.0738 -0.5251 -0.5156
  222MOL0     N29885   7.691   7.555  10.263  0.1096  0.1655 -0.5624
  222MOL0     N29886   7.632   7.437  10.271 -0.3203  0.1708  0.0777
  222MOL0     C29887   6.899   6.441  10.405 -0.4467  0.7134 -0.2993
  222MOL0     C29888   6.778   6.396  10.447 -0.7472 -0.3372 -0.2216
  222MOL0     C29889   6.323   6.426  10.543  0.7437  0.5274  0.1952
  222MOL0     C29890   6.236   6.488  10.630  0.3747  0.1503 -0.1800
  222MOL0     C29891   6.120   6.431  10.670  0.5431  0.3202  0.7608
  222MOL0     C29892   6.087   6.300  10.625 -0.0629  0.0371 -0.0061
  222MOL0     O29893   5.970   6.244  10.668 -0.9749  0.5436  0.3310
  222MOL0     C29894   5.922   6.122  10.605 -0.0132  0.1191 -0.7357
  222MOL0     C29895   5.790   6.086  10.669 -0.1859 -0.1415  0.7866
  222MOL0     C29896   5.716   5.980  10.577 -0.2138  0.0668  0.0122
  222MOL0     C29897   5.588   5.936  10.642 -0.0703 -0.8637  0.0422
  222MOL0     C29898   5.596   5.879  10.778  0.7779  0.4060 -0.0521
  222MOL0     C29899   5.595   5.827  10.890  0.2278 -0.6732 -0.2390
  222MOL0     C29900   6.171   6.244  10.525  0.5761  0.7925 -0.1949
  222MOL0     C29901   6.288   6.305  10.485 -0.6448 -0.0936 -0.2495
  222MOL0     C29902   6.368   6.236  10.377  0.1335  0.8826 -0.0923
  222MOL0     H29903   6.656   6.691  10.594 -1.7680 -0.3181  0.0183
  222MOL0     H29904   6.877   6.763  10.521  0.8380 -0.3610 -1.6245
  222MOL0     H29905   7.094   6.716  10.226  0.7349 -3.5521 -0.5764
  222MOL0     H29906   6.992   6.791  10.345  0.2997 -0.0922  1.5045
  222MOL0     H29907   7.284   6.745  10.401 -0.6696 -1.4505 -2.5516
  222MOL0     H29908   7.165   6.837  10.493  0.8818 -0.7545  0.1392
  222MOL0     H29909   7.135   7.008  10.306  0.6389  0.2737 -3.2842
  222MOL0     H29910   7.228   6.915  10.211 -0.0433  0.0709  0.4359
  222MOL0     H29911   7.425   6.946  10.369 -0.1838 -0.1266 -2.4290
  222MOL0     H29912   7.357   7.095  10.301  1.6243 -1.3408 -0.7717
  222MOL0     H29913   7.253   7.168  10.488 -0.4358 -0.0148 -0.0225
  222MOL0     H29914   7.267   7.028  10.583 -0.2484 -0.0806  0.6191
  222MOL0     H29915   7.394   7.190  10.678  0.2286 -2.3293  1.4583
  222MOL0     H29916   7.508   7.078  10.617  0.5912  0.2825 -1.7675
  222MOL0     H29917   7.529   7.346  10.586 -0.9205  1.0010 -0.1955
  222MOL0     H29918   7.435   7.315  10.444  2.4193  1.1943 -2.2195
  222MOL0     H29919   7.701   7.198  10.487 -2.3586 -0.6747  1.6778
  222MOL0     H29920   7.591   7.170  10.344 -3.8780 -0.8083  0.8397
  222MOL0     H29921   7.833   7.416  10.523 -3.6245 -1.4891  1.3274
  222MOL0     H29922   7.962   7.628  10.402 -2.2851 -1.1979 -0.2778
  222MOL0     H29923   7.882   7.705  10.263 -3.2086 -2.8925 -1.3217
  222MOL0     H29924   7.716   7.832  10.417  0.2124 -0.7162 -2.3419
  222MOL0     H29925   7.785   7.740  10.552  0.6151 -0.3066  0.5338
  222MOL0     H29926   7.853   7.990  10.529  0.6551 -0.9580  1.0487
  222MOL0     H29927   7.902   7.954  10.355  1.7638 -1.6360  0.2794
  222MOL0     H29928   8.099   7.857  10.425  0.7199  0.9854 -0.2259
  222MOL0     H29929   8.026   7.816  10.585 -2.2980 -0.3085 -0.3052
  222MOL0     H29930   8.197   8.235  10.612 -1.1565 -1.4069  3.4401
  222MOL0     H29931   8.438   8.288  10.620  1.1494  0.0389 -3.1784
  222MOL0     H29932   8.835   7.770  10.517 -2.0038  3.4270 -1.5350
  222MOL0     H29933   9.075   7.711  10.525 -0.2221 -0.5811  0.1266
  222MOL0     H29934   9.395   8.020  10.578  0.9622 -0.7891 -1.2057
  222MOL0     H29935   9.323   7.986  10.739  1.0226 -1.2501  1.4212
  222MOL0     H29936   9.478   7.758  10.707  3.4615 -0.2946 -2.7015
  222MOL0     H29937   9.560   7.859  10.599 -0.8487 -2.5733  0.0625
  222MOL0     H29938   9.557   8.042  10.776  2.8322  0.2562  0.4003
  222MOL0     H29939   9.499   7.921  10.885 -0.2478  1.3691  0.6377
  222MOL0     H29940   9.758   7.864  10.719  1.7888 -0.0632  0.7094
  222MOL0     H29941   9.693   7.781  10.866  1.7682 -1.5295 -2.5463
  222MOL0     H29942   9.732   8.006  10.984 -0.8786 -2.5889 -0.3578
  222MOL0     H29943   9.807   8.070  10.833 -1.8148  0.6056 -0.7833
  222MOL0     H29944   9.894   7.820  11.013 -1.0013  0.5622  0.5939
  222MOL0     H29945   9.967   7.867  10.854 -2.1191 -0.6325 -0.9473
  222MOL0     H29946   9.949   8.015  11.121 -0.4559  0.6512 -0.2740
  222MOL0     H29947  10.025   8.087  10.976  0.4683  0.6560  0.6166
  222MOL0     H29948  10.178   7.973  11.143  1.4581 -0.6771 -0.9226
  222MOL0     H29949  10.103   7.816  11.118 -1.1247 -0.6380 -2.3729
  222MOL0     H29950   9.151   8.099  10.691  2.1903 -0.6561 -1.0315
  222MOL0     H29951   8.917   8.154  10.678  0.3206  0.3665  0.3628
  222MOL0     H29952   8.514   7.863  10.559 -0.7470  0.0047  0.1184
  222MOL0     H29953   8.275   7.814  10.557 -3.7496  0.5023  0.0348
  222MOL0     H29954   6.963   6.374  10.348 -1.3373  0.3423 -0.8861
  222MOL0     H29955   6.761   6.296  10.408 -1.4693 -0.1533 -0.3880
  222MOL0     H29956   6.261   6.588  10.663  0.5418 -0.4017  1.4853
  222MOL0     H29957   6.049   6.475  10.740  1.2124  0.6903  1.2177
  222MOL0     H29958   6.000   6.045  10.607 -0.1733 -0.0358 -0.0385
  222MOL0     H29959   5.916   6.137  10.497 -1.9689 -2.0099 -0.9918
  222MOL0     H29960   5.732   6.176  10.692 -1.8493 -0.8442 -0.4082
  222MOL0     H29961   5.814   6.030  10.761 -1.4735  1.0906  1.9196
  222MOL0     H29962   5.780   5.893  10.567 -1.0126 -0.9214  2.6174
  222MOL0     H29963   5.696   6.012  10.474  2.2507 -0.3714 -0.6590
  222MOL0     H29964   5.520   6.021  10.647 -0.1082 -0.8656 -0.4437
  222MOL0     H29965   5.550   5.866  10.567 -0.8308 -0.2866 -0.1230
  222MOL0     H29966   5.588   5.772  10.982 -0.3871 -0.8512 -0.3824
  222MOL0     H29967   6.143   6.146  10.485 -0.4936  0.3137  1.5943
  222MOL0     H29968   6.439   6.166  10.422  1.5193  3.0614  1.3357
  222MOL0     H29969   6.306   6.180  10.307  1.0028  1.0165 -0.9918
  222MOL0     H29970   6.429   6.313  10.328 -2.7227  4.2656  1.2336
  223MOL0     O29971  10.155   4.155   4.441 -0.0961  0.3452  0.0998
  223MOL0     C29972  10.131   4.071   4.528 -0.3505 -0.1240  0.3017
  223MOL0     O29973  10.017   4.052   4.596 -0.6816 -0.1037  0.0852
  223MOL0     C29974   9.907   4.114   4.555  0.7299  0.4665 -0.4440
  223MOL0     C29975   9.862   4.131   4.421 -1.5554  0.5539 -1.3366
  223MOL0     C29976   9.742   4.196   4.399 -0.5074  0.0368 -0.3581
  223MOL0     C29977   9.665   4.251   4.502  0.2846 -0.0659  0.0955
  223MOL0     O29978   9.547   4.319   4.468  0.0160  0.0483 -0.2037
  223MOL0     C29979   9.533   4.450   4.517 -0.1935  0.4823  0.1558
  223MOL0     C29980   9.478   4.529   4.399  0.7059 -0.2002 -0.8562
  223MOL0     C29981   9.547   4.526   4.263  0.0219 -0.0497  0.2995
  223MOL0     C29982   9.468   4.607   4.158 -0.6346 -0.6393  0.6893
  223MOL0     C29983   9.538   4.652   4.035  0.0791  0.1924  0.1048
  223MOL0     C29984   9.591   4.547   3.941  0.2089 -1.2421  0.4542
  223MOL0     C29985   9.673   4.625   3.838  0.5553  0.8586 -0.5204
  223MOL0     C29986   9.707   4.539   3.719 -0.1916 -0.1340  0.0633
  223MOL0     N29987   9.818   4.592   3.638 -0.3167 -0.1981 -1.2140
  223MOL0     C29988   9.946   4.604   3.673 -0.1001 -0.0249 -0.1775
  223MOL0     C29989  10.018   4.634   3.560 -0.1301 -0.1879  0.5713
  223MOL0     C29990  10.168   4.622   3.541  0.2404 -0.5451 -0.0251
  223MOL0     C29991  10.196   4.619   3.378 -1.2055  0.3400 -0.5685
  223MOL0     C29992  10.337   4.554   3.366 -0.8080  0.1815  1.0262
  223MOL0     C29993  10.376   4.556   3.215 -0.3642 -0.3742 -0.1614
  223MOL0     O29994  10.482   4.461   3.188 -0.2845  0.6394  0.2043
  223MOL0     C29995  10.608   4.501   3.221  0.6392  0.9956 -0.8188
  223MOL0     C29996  10.663   4.476   3.355 -0.1672 -0.5007 -0.0114
  223MOL0     C29997  10.800   4.492   3.379  0.3027  0.5492 -0.4283
  223MOL0     C29998  10.869   4.553   3.283 -0.7720 -0.4535 -0.1010
  223MOL0     C29999  11.002   4.596   3.317 -0.2557  0.4971  1.3379
  223MOL0     O30000  11.053   4.588   3.445  1.0188  0.3971  0.5056
  223MOL0     C30001  11.174   4.640   3.468 -0.4894  0.1613 -0.4413
  223MOL0     C30002  11.188   4.770   3.510 -0.4229  0.1216 -0.1966
  223MOL0     C30003  11.305   4.839   3.535 -1.1003 -0.5790  0.1135
  223MOL0     C30004  11.421   4.768   3.502 -0.2511 -0.3228 -0.1468
  223MOL0     O30005  11.535   4.828   3.545 -0.0278  0.9753  0.5702
  223MOL0     C30006  11.667   4.802   3.487  0.1523  0.3042 -0.0824
  223MOL0     C30007  11.764   4.917   3.509 -0.1673  0.2779  0.0881
  223MOL0     C30008  11.901   4.882   3.463 -0.6645 -0.5178 -0.1160
  223MOL0     C30009  12.010   4.975   3.526  0.2444  0.0034 -0.2774
  223MOL0     C30010  12.146   4.923   3.477  0.1121  0.2568  0.5648
  223MOL0     C30011  12.252   4.979   3.570 -0.2212 -0.2688 -0.1817
  223MOL0     C30012  12.397   4.947   3.525 -0.4281  0.4725  0.0947
  223MOL0     C30013  12.463   5.025   3.407  0.3730  0.2300 -0.0875
  223MOL0    Cl30014  12.602   4.956   3.333  0.4744  0.2495  0.4808
  223MOL0     C30015  11.413   4.642   3.445 -0.4732 -0.1303  0.3887
  223MOL0     C30016  11.288   4.578   3.435 -0.0241  0.7764 -0.1048
  223MOL0     O30017  11.059   4.654   3.228 -1.3992 -0.7889 -0.0076
  223MOL0     C30018  10.820   4.573   3.150  0.4111 -0.6144  0.0655
  223MOL0     C30019  10.692   4.545   3.125  0.8927 -0.4927  0.8448
  223MOL0     N30020   9.929   4.632   3.454  0.1125  0.4085  0.0229
  223MOL0     N30021   9.811   4.601   3.503  1.0186 -0.5633 -0.1818
  223MOL0     C30022   9.714   4.240   4.637 -0.6593  0.6354 -0.1165
  223MOL0     C30023   9.833   4.167   4.660  0.0052 -0.2698 -0.7741
  223MOL0     C30024  10.252   3.989   4.572 -0.5095 -0.2682  0.4410
  223MOL0     C30025  10.272   3.994   4.711 -0.2350  0.4017 -0.3108
  223MOL0     C30026  10.357   3.900   4.765  0.3609  0.4598 -0.4959
  223MOL0     C30027  10.449   3.835   4.678  0.3504  0.3553  0.0716
  223MOL0     O30028  10.557   3.751   4.703 -0.6276 -0.3422 -0.2714
  223MOL0     C30029  10.551   3.688   4.834 -0.1890  0.4990 -0.5526
  223MOL0     C30030  10.674   3.601   4.863  0.0420 -0.5876  0.3334
  223MOL0     C30031  10.649   3.451   4.824  0.4875 -1.0212  0.1271
  223MOL0     C30032  10.775   3.364   4.798 -1.1147 -0.3144 -0.5025
  223MOL0     C30033  10.863   3.386   4.912 -0.3960 -0.4921 -0.5877
  223MOL0     C30034  10.936   3.424   5.010 -1.1292 -0.0165  0.2232
  223MOL0     C30035  10.443   3.854   4.542 -0.1541  0.1516  1.1394
  223MOL0     C30036  10.336   3.909   4.481  1.0506  0.0999 -0.6073
  223MOL0     C30037  10.315   3.911   4.333 -0.1500  0.9960 -0.4438
  223MOL0     H30038   9.923   4.082   4.346 -0.2274 -0.3748  0.2645
  223MOL0     H30039   9.710   4.205   4.296  0.2090  1.5856 -0.4830
  223MOL0     H30040   9.461   4.451   4.599 -0.1496 -1.3251  0.2625
  223MOL0     H30041   9.628   4.492   4.550 -0.0002  0.0461  0.1604
  223MOL0     H30042   9.474   4.631   4.439 -1.3248 -1.8968  4.1204
  223MOL0     H30043   9.379   4.485   4.386  0.5144  1.1758 -5.6702
  223MOL0     H30044   9.560   4.423   4.231  2.3530 -0.5503  2.5411
  223MOL0     H30045   9.649   4.561   4.279 -0.7529  1.4877  2.3157
  223MOL0     H30046   9.373   4.556   4.139 -0.7102 -0.2058 -0.1078
  223MOL0     H30047   9.438   4.695   4.216  1.3889  2.0968 -2.0992
  223MOL0     H30048   9.469   4.718   3.982 -1.7526  1.4373  3.7047
  223MOL0     H30049   9.625   4.714   4.061  0.1418  2.0007 -3.7335
  223MOL0     H30050   9.645   4.468   3.993 -0.4898 -0.6899  2.0752
  223MOL0     H30051   9.509   4.505   3.881 -0.3710  0.2153  0.1977
  223MOL0     H30052   9.767   4.658   3.882  1.8557 -0.4988 -2.1911
  223MOL0     H30053   9.629   4.716   3.794 -1.4201  0.9188  1.3718
  223MOL0     H30054   9.747   4.445   3.758  1.6512  0.6616  0.2185
  223MOL0     H30055   9.617   4.523   3.659  0.5596 -0.9515 -0.8836
  223MOL0     H30056   9.985   4.595   3.774  0.7991  0.9154 -0.4236
  223MOL0     H30057  10.229   4.702   3.583  2.2704 -2.0398  0.0209
  223MOL0     H30058  10.190   4.523   3.583 -0.1519  0.0232  1.5592
  223MOL0     H30059  10.126   4.562   3.316 -0.7776 -0.2198 -0.5478
  223MOL0     H30060  10.200   4.721   3.338  0.8006 -0.2650 -2.1184
  223MOL0     H30061  10.327   4.445   3.365  3.3364 -0.3631  1.1750
  223MOL0     H30062  10.420   4.577   3.434  0.6357 -0.5724 -0.3891
  223MOL0     H30063  10.395   4.658   3.179 -0.3677 -0.2285  0.2435
  223MOL0     H30064  10.289   4.523   3.159  1.1409 -3.7113 -0.7538
  223MOL0     H30065  10.598   4.430   3.429 -0.0680  0.9647  1.0421
  223MOL0     H30066  10.833   4.466   3.479  3.4737  0.4784 -1.3856
  223MOL0     H30067  11.095   4.813   3.545 -0.5253  1.4323 -1.9545
  223MOL0     H30068  11.307   4.933   3.590 -1.4334 -1.2888  1.3864
  223MOL0     H30069  11.708   4.709   3.529  0.9926  0.9542  0.5735
  223MOL0     H30070  11.648   4.794   3.380 -1.0712  0.3673  0.1240
  223MOL0     H30071  11.731   5.005   3.453 -3.0438 -1.9735 -2.0014
  223MOL0     H30072  11.760   4.932   3.618 -1.0263  1.9660 -0.1475
  223MOL0     H30073  11.929   4.784   3.503  3.5888  0.8602  0.8904
  223MOL0     H30074  11.914   4.884   3.354 -0.9246 -0.2366 -0.1447
  223MOL0     H30075  12.007   4.984   3.635  1.8481 -2.7225  0.0705
  223MOL0     H30076  12.012   5.070   3.470  1.5516 -1.3287 -2.6446
  223MOL0     H30077  12.171   4.952   3.375 -0.0127 -0.2902  0.3779
  223MOL0     H30078  12.150   4.814   3.480  1.8945  0.2252 -1.0351
  223MOL0     H30079  12.231   5.086   3.572  1.1018  0.0963 -2.3923
  223MOL0     H30080  12.241   4.944   3.673  1.8811  1.1541  0.6107
  223MOL0     H30081  12.398   4.839   3.508 -0.6240  0.6153 -0.8774
  223MOL0     H30082  12.462   4.961   3.611 -0.8113 -0.3779  0.5318
  223MOL0     H30083  12.378   5.036   3.338 -0.2756  2.7291  0.9943
  223MOL0     H30084  12.493   5.125   3.439 -2.0545  0.6416  1.1228
  223MOL0     H30085  11.504   4.591   3.413 -0.8979  0.9124 -2.8377
  223MOL0     H30086  11.276   4.480   3.392  0.3664  1.9388 -3.1077
  223MOL0     H30087  10.878   4.612   3.067  0.4193  1.4358  0.9735
  223MOL0     H30088  10.648   4.552   3.026 -0.5372 -0.4419  1.4648
  223MOL0     H30089   9.665   4.270   4.729  1.1983  0.8596  0.8399
  223MOL0     H30090   9.866   4.158   4.763  3.6918  1.1254 -1.6556
  223MOL0     H30091  10.203   4.051   4.772 -1.3237 -0.7461 -0.4276
  223MOL0     H30092  10.364   3.881   4.872 -2.9753  3.5466  0.4848
  223MOL0     H30093  10.458   3.632   4.841  0.3195 -0.6676 -2.3728
  223MOL0     H30094  10.545   3.765   4.912  0.3832 -0.5928  0.6021
  223MOL0     H30095  10.702   3.619   4.967 -2.9994 -1.6348  1.4354
  223MOL0     H30096  10.755   3.638   4.798 -0.7061  3.4967  1.5040
  223MOL0     H30097  10.598   3.451   4.727  0.9347 -3.3725 -0.1718
  223MOL0     H30098  10.584   3.406   4.899  0.5707 -2.9910 -0.8862
  223MOL0     H30099  10.754   3.257   4.792  1.8594 -1.2123  2.1842
  223MOL0     H30100  10.814   3.385   4.698 -1.8188 -1.8854 -1.1367
  223MOL0     H30101  10.988   3.455   5.098  0.0333  0.4143 -0.5938
  223MOL0     H30102  10.520   3.801   4.488 -0.9725  0.9915 -0.9363
  223MOL0     H30103  10.355   3.818   4.289  1.2637 -2.0884  6.0052
  223MOL0     H30104  10.210   3.909   4.304 -0.2133 -2.7806 -0.5561
  223MOL0     H30105  10.364   3.997   4.287  0.1740  0.6665 -0.7348
  224MOL0     O30106   2.134   9.022   9.848 -0.0200  0.5048  0.0226
  224MOL0     C30107   2.139   9.059   9.732  0.3853  0.1909  0.5027
  224MOL0     O30108   2.031   9.089   9.651  0.6099  0.2611  0.1335
  224MOL0     C30109   1.914   9.091   9.715  0.3627 -0.0964  0.1605
  224MOL0     C30110   1.825   8.983   9.713  0.1504  0.6725  0.7491
  224MOL0     C30111   1.716   8.991   9.796  0.6257 -0.6910 -0.1710
  224MOL0     C30112   1.677   9.101   9.870  0.7708  0.1094 -0.0717
  224MOL0     O30113   1.548   9.091   9.929 -0.0173 -1.3077  0.0607
  224MOL0     C30114   1.519   9.198  10.021  0.1769  0.7058 -0.2343
  224MOL0     C30115   1.384   9.164  10.096  0.6770 -0.1680  0.2846
  224MOL0     C30116   1.360   9.257  10.225 -0.4468  0.7858  1.0508
  224MOL0     C30117   1.217   9.303  10.259 -0.1294  0.9089  0.0100
  224MOL0     C30118   1.210   9.410  10.370 -0.5688 -0.7588 -0.0205
  224MOL0     C30119   1.061   9.418  10.405  0.3357 -0.0068 -0.9334
  224MOL0     C30120   1.046   9.504  10.528 -0.5611 -0.8317 -1.0166
  224MOL0     C30121   0.987   9.425  10.639 -1.0227  0.2667  0.1532
  224MOL0     N30122   1.082   9.326  10.689  0.2152  0.6660 -0.9136
  224MOL0     C30123   1.200   9.343  10.763  0.3843  0.0576  0.1847
  224MOL0     C30124   1.254   9.217  10.781 -0.4880 -0.2227  0.5380
  224MOL0     C30125   1.373   9.199  10.872 -0.0296 -0.3031  0.6871
  224MOL0     C30126   1.344   9.101  10.983 -0.3034  0.7217 -0.5698
  224MOL0     C30127   1.459   9.096  11.082  0.2944  0.1318  0.5923
  224MOL0     C30128   1.590   9.056  11.022  0.0395 -0.0931  0.6812
  224MOL0     O30129   1.649   9.157  10.955 -0.8115 -0.3428 -0.4062
  224MOL0     C30130   1.781   9.147  10.916  1.2576 -0.2565  0.1393
  224MOL0     C30131   1.882   9.147  11.010  1.2294 -0.9284 -0.8884
  224MOL0     C30132   2.014   9.174  10.962 -0.1505 -0.7664 -0.0474
  224MOL0     C30133   2.042   9.189  10.826  0.5945 -0.8910  0.1599
  224MOL0     C30134   2.186   9.199  10.783 -0.2274 -0.7133  0.5003
  224MOL0     O30135   2.223   9.266  10.666  0.1690  0.8515  0.2361
  224MOL0     C30136   2.349   9.245  10.614  0.1312 -0.1970 -0.5596
  224MOL0     C30137   2.405   9.345  10.543  0.3845  0.0514  0.2623
  224MOL0     C30138   2.533   9.339  10.482  0.7679  0.0486  0.1341
  224MOL0     C30139   2.601   9.215  10.500  0.8339 -0.4839  0.5158
  224MOL0     O30140   2.723   9.184  10.439 -0.1066 -0.5339 -0.3213
  224MOL0     C30141   2.764   9.270  10.330 -0.9428  0.4321  0.7275
  224MOL0     C30142   2.896   9.210  10.279  0.9966  0.0707  0.0388
  224MOL0     C30143   2.900   9.053  10.275  1.1920 -1.2492  0.4883
  224MOL0     C30144   3.006   9.005  10.177  0.0826  0.1305 -0.1362
  224MOL0     C30145   2.982   8.861  10.141 -0.0307 -0.2945 -0.2820
  224MOL0     C30146   3.095   8.822  10.046 -0.2670  0.4705  0.6204
  224MOL0     C30147   3.062   8.677   9.985 -0.4079  1.3461  0.4587
  224MOL0     C30148   3.114   8.664   9.845 -1.1064  0.1559 -0.0007
  224MOL0    Cl30149   3.301   8.667   9.839 -0.1355 -0.3490 -0.2279
  224MOL0     C30150   2.548   9.119  10.590  0.2165  0.0362  0.9037
  224MOL0     C30151   2.420   9.130  10.637  0.6956 -0.6348 -0.3487
  224MOL0     O30152   2.269   9.168  10.871 -0.2114  0.6832  0.2192
  224MOL0     C30153   1.941   9.200  10.739  0.6260 -0.2251  0.7337
  224MOL0     C30154   1.810   9.181  10.778 -0.2000  0.3752 -0.3475
  224MOL0     N30155   1.172   9.121  10.719  0.2300  0.4063  0.5995
  224MOL0     N30156   1.066   9.191  10.672  0.3250  0.0897 -0.5348
  224MOL0     C30157   1.763   9.210   9.870 -0.8675 -1.4626  0.3459
  224MOL0     C30158   1.882   9.195   9.792 -0.1612 -0.0401 -0.0002
  224MOL0     C30159   2.269   9.069   9.667  0.2935 -0.4831  0.3530
  224MOL0     C30160   2.330   8.954   9.622 -0.2652 -0.0773  0.6127
  224MOL0     C30161   2.448   8.951   9.552  0.3404  0.7431  0.2292
  224MOL0     C30162   2.500   9.079   9.518 -1.1391 -0.2537  0.2196
  224MOL0     O30163   2.605   9.086   9.431 -0.3280 -0.5664 -0.3811
  224MOL0     C30164   2.659   9.212   9.383 -1.0883  0.5756  0.0985
  224MOL0     C30165   2.601   9.236   9.242 -0.3145  0.1143  0.6771
  224MOL0     C30166   2.445   9.257   9.213 -0.5613 -0.2012 -0.3951
  224MOL0     C30167   2.407   9.255   9.069  0.4426 -0.2964 -0.5496
  224MOL0     C30168   2.420   9.380   8.998 -0.1727  0.1035 -1.4403
  224MOL0     C30169   2.415   9.489   8.945  0.1471 -0.1573 -1.1414
  224MOL0     C30170   2.440   9.202   9.559  0.4027 -0.0435 -0.0587
  224MOL0     C30171   2.316   9.191   9.625 -0.1783  0.1463 -0.5212
  224MOL0     C30172   2.236   9.320   9.664 -0.3111 -0.4579  0.7525
  224MOL0     H30173   1.856   8.895   9.657  1.3067  2.1171 -1.0205
  224MOL0     H30174   1.656   8.900   9.793  1.2614 -1.3464  3.2128
  224MOL0     H30175   1.598   9.221  10.093 -0.8813 -1.5166  1.7492
  224MOL0     H30176   1.505   9.293   9.968  2.0306  1.8648  1.2211
  224MOL0     H30177   1.382   9.062  10.136 -1.2028 -0.1818  0.2467
  224MOL0     H30178   1.300   9.165  10.025 -0.1333  1.7999  1.2088
  224MOL0     H30179   1.424   9.345  10.212  0.6774  0.2666  2.7160
  224MOL0     H30180   1.393   9.207  10.317 -1.6889 -2.0321  0.0886
  224MOL0     H30181   1.158   9.343  10.176 -0.7993  0.4246  0.2466
  224MOL0     H30182   1.165   9.211  10.286 -0.5818  1.9142  2.8341
  224MOL0     H30183   1.281   9.376  10.446  1.4050  0.9856 -0.9457
  224MOL0     H30184   1.238   9.510  10.333  0.5434 -0.8494  0.5327
  224MOL0     H30185   1.010   9.458  10.317  0.4726 -2.6431 -2.2918
  224MOL0     H30186   1.017   9.321  10.430 -0.6984  0.8054  0.5504
  224MOL0     H30187   0.986   9.595  10.518 -0.7859 -0.9305 -0.6175
  224MOL0     H30188   1.144   9.544  10.553 -1.2819  1.0210 -0.9774
  224MOL0     H30189   0.975   9.486  10.729  0.3777  1.7581 -0.6093
  224MOL0     H30190   0.897   9.373  10.606  0.1639 -0.8118 -1.5702
  224MOL0     H30191   1.244   9.438  10.790 -0.5868  2.1863 -4.6288
  224MOL0     H30192   1.459   9.168  10.812  1.1685  2.0117  1.0685
  224MOL0     H30193   1.396   9.299  10.913 -2.6602  1.7691 -2.4105
  224MOL0     H30194   1.245   9.121  11.025 -1.4331 -4.9382  0.2843
  224MOL0     H30195   1.327   9.000  10.943  0.1471  0.1890  0.5538
  224MOL0     H30196   1.426   9.028  11.161 -2.0369  1.5902  0.9535
  224MOL0     H30197   1.470   9.189  11.138 -4.5165  1.3583 -0.1202
  224MOL0     H30198   1.579   8.967  10.959  2.2840 -1.2297  1.7676
  224MOL0     H30199   1.659   9.034  11.103 -1.4660 -0.6459  1.8694
  224MOL0     H30200   1.861   9.144  11.116 -0.0328  0.9994 -1.0444
  224MOL0     H30201   2.089   9.157  11.039  0.5849 -0.3048 -0.6473
  224MOL0     H30202   2.336   9.421  10.508  0.4234 -0.6705 -1.5229
  224MOL0     H30203   2.562   9.412  10.407  0.2956 -0.8033 -0.9019
  224MOL0     H30204   2.689   9.270  10.251  0.1807  1.0703 -0.3803
  224MOL0     H30205   2.769   9.377  10.350 -2.9695  0.7408 -0.2027
  224MOL0     H30206   2.916   9.255  10.182  1.0672 -1.5984 -0.7478
  224MOL0     H30207   2.971   9.252  10.347 -0.7367  2.6937  0.4778
  224MOL0     H30208   2.929   9.009  10.371  0.5402  0.2177  1.3932
  224MOL0     H30209   2.799   9.021  10.250 -0.6189  5.0427 -2.2669
  224MOL0     H30210   3.103   9.019  10.226 -0.4575 -0.0865  1.0244
  224MOL0     H30211   3.018   9.074  10.093  0.1136  1.2894  0.7899
  224MOL0     H30212   2.888   8.851  10.085  0.4895 -1.7538 -0.9536
  224MOL0     H30213   2.964   8.798  10.229 -0.8545  0.9938  0.5044
  224MOL0     H30214   3.095   8.884   9.956  1.1711  0.7977  0.8115
  224MOL0     H30215   3.197   8.823  10.086  0.3641  2.1833 -0.9115
  224MOL0     H30216   2.953   8.670   9.984 -0.3927  0.8278  1.3634
  224MOL0     H30217   3.105   8.603  10.052 -0.5017 -0.0170 -0.9259
  224MOL0     H30218   3.065   8.576   9.801 -0.0901  0.0251 -0.9003
  224MOL0     H30219   3.073   8.746   9.786  2.1834  2.1049  0.2247
  224MOL0     H30220   2.584   9.017  10.599 -4.0391 -2.0329 -1.9552
  224MOL0     H30221   2.392   9.042  10.695  2.1660 -0.7631  0.2136
  224MOL0     H30222   1.950   9.231  10.635 -1.5369 -0.6474  0.3918
  224MOL0     H30223   1.727   9.189  10.708 -0.7329  0.7122  0.3080
  224MOL0     H30224   1.735   9.308   9.909  0.6323  0.3669 -2.7210
  224MOL0     H30225   1.944   9.282   9.775 -0.8925  0.0001 -3.1401
  224MOL0     H30226   2.280   8.858   9.631 -0.5565  0.0421  0.2775
  224MOL0     H30227   2.494   8.857   9.525  1.2034  1.2486 -0.1326
  224MOL0     H30228   2.765   9.190   9.369 -1.2960 -0.6585  0.3781
  224MOL0     H30229   2.650   9.301   9.445  1.0769  0.7427  0.2518
  224MOL0     H30230   2.636   9.149   9.187  0.5883  0.3352  0.8930
  224MOL0     H30231   2.643   9.326   9.196  1.4993 -2.3346 -2.8717
  224MOL0     H30232   2.424   9.346   9.273  1.2246 -1.5118  2.3470
  224MOL0     H30233   2.390   9.173   9.256  1.1354 -0.0703  2.2525
  224MOL0     H30234   2.464   9.174   9.024  0.3517 -0.3103 -0.6380
  224MOL0     H30235   2.304   9.220   9.063 -0.4256  1.3242  2.5580
  224MOL0     H30236   2.415   9.585   8.898 -1.0420 -0.0660 -0.9905
  224MOL0     H30237   2.463   9.305   9.536 -0.4505  0.0421 -0.5681
  224MOL0     H30238   2.294   9.405   9.628 -0.7598 -0.3764  0.2011
  224MOL0     H30239   2.140   9.333   9.613 -1.2282  1.2837  2.8031
  224MOL0     H30240   2.225   9.313   9.772  3.9230  3.2156  1.7102
  225MOL0     O30241   6.311  10.682   0.294  0.1894  0.5341  0.4109
  225MOL0     C30242   6.315  10.664   0.168 -0.2757 -0.4317 -0.2262
  225MOL0     O30243   6.435  10.665   0.096 -0.3470 -0.3353  0.2155
  225MOL0     C30244   6.558  10.652   0.161 -0.6541 -0.4564 -0.5960
  225MOL0     C30245   6.627  10.763   0.188 -0.5226 -0.7839  0.3188
  225MOL0     C30246   6.759  10.752   0.236 -0.8022  0.6534 -0.2396
  225MOL0     C30247   6.814  10.625   0.273 -0.4447  0.6008  0.1094
  225MOL0     O30248   6.942  10.614   0.326 -0.0107 -0.1266 -0.2633
  225MOL0     C30249   6.952  10.618   0.466  0.0102 -0.9025 -1.6010
  225MOL0     C30250   7.084  10.565   0.503 -0.0163  1.1977 -0.7228
  225MOL0     C30251   7.083  10.411   0.472  0.4596  0.1028  0.1610
  225MOL0     C30252   7.205  10.338   0.515  0.8851  0.8852 -0.1428
  225MOL0     C30253   7.332  10.386   0.442  0.3867  0.0794 -0.3016
  225MOL0     C30254   7.456  10.324   0.503  0.1281  0.1440 -0.8546
  225MOL0     C30255   7.581  10.388   0.444  0.1390  0.2900  0.4509
  225MOL0     C30256   7.698  10.348   0.529 -0.4172  0.5773 -0.3190
  225MOL0     N30257   7.820  10.420   0.492  0.2465 -0.8397  0.1040
  225MOL0     C30258   7.845  10.550   0.507  0.0242 -0.1589 -0.5935
  225MOL0     C30259   7.949  10.574   0.422 -0.8883  0.5263 -0.5325
  225MOL0     C30260   8.019  10.707   0.403 -0.4918 -0.0153  0.4977
  225MOL0     C30261   8.089  10.749   0.529 -0.1511  0.1736 -0.6150
  225MOL0     C30262   8.131  10.889   0.517 -0.0186 -0.0341  0.3039
  225MOL0     C30263   8.187  10.959   0.638  0.3602  1.4481 -0.4276
  225MOL0     O30264   8.309  10.900   0.691 -0.6707  0.8731  0.1297
  225MOL0     C30265   8.306  10.858   0.824 -0.4712  0.8677 -1.4006
  225MOL0     C30266   8.337  10.721   0.855 -0.8376  0.7983 -0.6022
  225MOL0     C30267   8.369  10.686   0.985 -0.8489  0.0845 -0.5494
  225MOL0     C30268   8.349  10.784   1.091 -0.0120  0.0593 -0.3880
  225MOL0     C30269   8.377  10.762   1.237  0.6318  0.0109  0.4252
  225MOL0     O30270   8.394  10.622   1.269 -0.2557  0.2438  0.3396
  225MOL0     C30271   8.447  10.611   1.395  0.2484  0.6677 -0.2139
  225MOL0     C30272   8.358  10.590   1.503  0.4907 -0.7647 -0.0800
  225MOL0     C30273   8.406  10.548   1.627  0.4139  0.0215  0.0277
  225MOL0     C30274   8.541  10.527   1.651 -0.5141  0.2785 -0.7509
  225MOL0     O30275   8.582  10.497   1.780  0.1436 -0.8064  0.0183
  225MOL0     C30276   8.721  10.523   1.813 -0.2519 -0.3263  0.0030
  225MOL0     C30277   8.732  10.503   1.966  0.1138 -1.0315  0.7054
  225MOL0     C30278   8.718  10.353   2.015  0.3246 -0.2131  0.4311
  225MOL0     C30279   8.595  10.316   2.096  0.9408 -0.4884 -0.3297
  225MOL0     C30280   8.586  10.163   2.105  0.1281  0.5330 -0.2924
  225MOL0     C30281   8.448  10.107   2.149 -0.3957  0.3362  0.0729
  225MOL0     C30282   8.417   9.968   2.092 -0.7457  0.4506  0.2381
  225MOL0     C30283   8.497   9.845   2.130 -1.4013 -0.3592 -0.4409
  225MOL0    Cl30284   8.470   9.791   2.304  0.4972  0.4978 -0.2086
  225MOL0     C30285   8.628  10.547   1.540 -0.2776  0.2858 -0.0069
  225MOL0     C30286   8.584  10.598   1.418  0.3586  0.4296 -0.1659
  225MOL0     O30287   8.390  10.861   1.313  0.5563  0.5667 -0.5521
  225MOL0     C30288   8.304  10.918   1.059  0.0600  0.9700  0.7603
  225MOL0     C30289   8.281  10.947   0.932 -0.8075 -0.3858  0.7368
  225MOL0     N30290   7.979  10.458   0.355  0.9770  0.0206  0.6516
  225MOL0     N30291   7.904  10.363   0.403 -0.4903  0.3303  0.5830
  225MOL0     C30292   6.734  10.510   0.271 -0.0965 -0.4483 -0.5574
  225MOL0     C30293   6.605  10.525   0.214  0.0373  0.4692  0.2085
  225MOL0     C30294   6.184  10.650   0.094 -0.1496  0.0579 -0.5536
  225MOL0     C30295   6.059  10.638   0.166  0.0249 -0.5286  0.1761
  225MOL0     C30296   5.931  10.616   0.106 -0.7058 -0.5401 -0.3076
  225MOL0     C30297   5.928  10.599  -0.034  0.0300 -0.4843  0.2471
  225MOL0     O30298   5.827  10.572  -0.126  0.3895  0.1950  0.3532
  225MOL0     C30299   5.690  10.577  -0.074 -0.8039 -0.3122 -0.3373
  225MOL0     C30300   5.602  10.551  -0.191  0.5857  0.3675 -0.1382
  225MOL0     C30301   5.455  10.595  -0.165 -0.2674  0.3638  0.4165
  225MOL0     C30302   5.368  10.574  -0.292  1.0120  0.2360  0.2024
  225MOL0     C30303   5.232  10.608  -0.255 -0.5237  0.2315 -0.1453
  225MOL0     C30304   5.112  10.638  -0.247 -0.2306 -0.2925  0.1542
  225MOL0     C30305   6.051  10.615  -0.099 -0.3217  0.7308 -0.3387
  225MOL0     C30306   6.174  10.642  -0.044 -0.3268  0.5286 -0.7346
  225MOL0     C30307   6.288  10.667  -0.139  0.0334 -0.5997  0.4457
  225MOL0     H30308   6.584  10.860   0.167  0.4471 -0.7931 -2.0789
  225MOL0     H30309   6.818  10.842   0.251 -0.3807  0.3585 -0.0997
  225MOL0     H30310   6.954  10.725   0.487  0.3749 -1.7453  4.5134
  225MOL0     H30311   6.870  10.572   0.522 -0.2692  1.5120  0.1657
  225MOL0     H30312   7.105  10.586   0.609 -0.1799  0.4140 -0.5268
  225MOL0     H30313   7.150  10.618   0.435 -0.1011  2.1841 -0.0598
  225MOL0     H30314   7.081  10.410   0.363  2.6797  1.0124  0.0472
  225MOL0     H30315   6.999  10.354   0.513  0.7326 -0.4832 -0.0843
  225MOL0     H30316   7.210  10.353   0.623 -2.1946  2.0567 -0.0628
  225MOL0     H30317   7.186  10.231   0.501 -2.6440  1.3499  0.1736
  225MOL0     H30318   7.323  10.361   0.336  2.3167  4.9003 -1.9039
  225MOL0     H30319   7.352  10.493   0.455  0.7833 -0.2566  2.6998
  225MOL0     H30320   7.459  10.339   0.612  1.8713  3.3853 -1.2276
  225MOL0     H30321   7.456  10.217   0.482 -0.8655  0.1748 -1.0553
  225MOL0     H30322   7.558  10.495   0.442  1.0626  0.5503  1.9817
  225MOL0     H30323   7.597  10.362   0.339 -0.5221  2.8425 -0.3410
  225MOL0     H30324   7.681  10.355   0.636 -1.1150  0.7247 -0.4300
  225MOL0     H30325   7.717  10.241   0.513  2.9737  0.7489  1.5726
  225MOL0     H30326   7.796  10.626   0.566 -2.2862 -0.5803 -1.8603
  225MOL0     H30327   8.091  10.696   0.321 -1.3065 -0.5952 -0.1607
  225MOL0     H30328   7.944  10.780   0.370  0.8552  1.9103  1.5434
  225MOL0     H30329   8.023  10.750   0.617  1.1907  1.0956  0.4168
  225MOL0     H30330   8.157  10.666   0.548  0.8758  0.8708 -1.2144
  225MOL0     H30331   8.053  10.958   0.484  0.5692  0.0500 -0.9619
  225MOL0     H30332   8.202  10.886   0.434  1.5247 -0.0018  1.5553
  225MOL0     H30333   8.111  10.957   0.717 -2.2784  0.5148 -2.8125
  225MOL0     H30334   8.217  11.061   0.611 -0.0889  1.3549 -1.3095
  225MOL0     H30335   8.361  10.649   0.778 -1.1355 -1.2741  1.1407
  225MOL0     H30336   8.407  10.586   1.006 -2.2114 -0.0584  1.4843
  225MOL0     H30337   8.252  10.604   1.488  0.5375  0.0847  0.2975
  225MOL0     H30338   8.339  10.538   1.712  0.8918  0.1553  0.4209
  225MOL0     H30339   8.792  10.463   1.755  0.3467  0.1941  0.1799
  225MOL0     H30340   8.751  10.627   1.798 -2.8353  0.7716  1.7091
  225MOL0     H30341   8.835  10.524   1.996  1.3647 -2.9828 -1.8211
  225MOL0     H30342   8.657  10.564   2.017  0.1611 -0.7596  0.4536
  225MOL0     H30343   8.715  10.292   1.924 -3.8865  0.5481 -0.1498
  225MOL0     H30344   8.809  10.328   2.069  0.2286 -0.3901  0.5141
  225MOL0     H30345   8.505  10.358   2.050 -0.6911  0.0169  2.9983
  225MOL0     H30346   8.588  10.360   2.196  0.4181  4.1978 -2.1626
  225MOL0     H30347   8.674  10.121   2.155  0.4474  1.7018  0.1670
  225MOL0     H30348   8.603  10.131   2.002 -3.4460  0.4853 -0.9970
  225MOL0     H30349   8.437  10.096   2.257 -1.0685 -1.3715 -0.1336
  225MOL0     H30350   8.362  10.169   2.123  1.3493  2.3622 -1.1834
  225MOL0     H30351   8.426   9.975   1.983 -2.2552 -2.2782 -0.1570
  225MOL0     H30352   8.315   9.944   2.123 -0.9735  1.1329  0.0337
  225MOL0     H30353   8.465   9.770   2.057 -1.5825  0.9133 -1.7098
  225MOL0     H30354   8.606   9.860   2.124 -1.2937 -1.2424 -0.9803
  225MOL0     H30355   8.733  10.522   1.548 -0.2107  0.5661  0.0089
  225MOL0     H30356   8.654  10.611   1.337  1.3675 -1.1138  0.4024
  225MOL0     H30357   8.296  10.998   1.131  1.0922  0.2743  1.6692
  225MOL0     H30358   8.247  11.042   0.892  2.3790  0.3566 -0.5875
  225MOL0     H30359   6.763  10.414   0.311  1.0810  0.3114  0.4818
  225MOL0     H30360   6.535  10.442   0.207  1.0478 -0.4720  0.7530
  225MOL0     H30361   6.061  10.642   0.274 -3.2253  0.0476  0.3168
  225MOL0     H30362   5.838  10.607   0.162 -0.5349  2.0507  0.5405
  225MOL0     H30363   5.668  10.679  -0.041  1.3469  0.8057 -2.1691
  225MOL0     H30364   5.678  10.501   0.005 -2.1353 -2.2712 -2.2941
  225MOL0     H30365   5.623  10.444  -0.200  3.9977  1.0668 -2.4788
  225MOL0     H30366   5.638  10.607  -0.278 -0.0995 -0.3216 -0.8890
  225MOL0     H30367   5.459  10.698  -0.130  1.2793 -0.2087  2.1048
  225MOL0     H30368   5.426  10.536  -0.078  2.2583  0.7031  1.5594
  225MOL0     H30369   5.389  10.643  -0.375  1.5063  0.3899  0.4544
  225MOL0     H30370   5.367  10.471  -0.328  1.8443  0.2523  0.1136
  225MOL0     H30371   5.018  10.688  -0.239  0.2034  0.9956 -1.9977
  225MOL0     H30372   6.056  10.600  -0.207 -0.4977  0.9723 -0.3810
  225MOL0     H30373   6.307  10.775  -0.144 -2.1176 -0.2263 -2.0839
  225MOL0     H30374   6.380  10.615  -0.110  1.1096  1.4167  0.8464
  225MOL0     H30375   6.259  10.627  -0.236 -1.9697 -0.2327  0.8421
  226MOL0     O30376  10.697   3.622   9.690 -0.2840  0.0989  0.3303
  226MOL0     C30377  10.751   3.726   9.650  1.1382 -0.5581  1.2197
  226MOL0     O30378  10.885   3.739   9.620 -0.3598 -0.4563  0.9277
  226MOL0     C30379  10.961   3.628   9.648  0.0394  0.0846  0.2148
  226MOL0     C30380  10.951   3.498   9.584  0.2728  0.2455 -0.1846
  226MOL0     C30381  11.035   3.396   9.618  0.0584 -0.7355 -0.6532
  226MOL0     C30382  11.115   3.411   9.730 -0.1503  0.3085  0.1950
  226MOL0     O30383  11.181   3.303   9.793  0.4287 -0.2387 -0.5585
  226MOL0     C30384  11.323   3.291   9.758 -0.4170  0.6749 -0.0334
  226MOL0     C30385  11.391   3.202   9.866  0.3216 -1.1964  0.0394
  226MOL0     C30386  11.542   3.210   9.862 -0.8220 -0.1224  0.4646
  226MOL0     C30387  11.610   3.151   9.989  1.0732 -0.3152  0.5401
  226MOL0     C30388  11.759   3.113   9.967 -0.0962  1.1632 -0.4885
  226MOL0     C30389  11.855   3.225   9.916 -0.4461 -0.7951 -0.2507
  226MOL0     C30390  11.995   3.198   9.974  0.0703  0.2024  0.0565
  226MOL0     C30391  12.109   3.295   9.937  0.1964  0.4710  0.0804
  226MOL0     N30392  12.240   3.258   9.993 -0.1149  0.0019  0.5922
  226MOL0     C30393  12.348   3.236   9.920  0.6839 -0.0986  0.9946
  226MOL0     C30394  12.444   3.210  10.010 -0.3807 -0.3169  0.5427
  226MOL0     C30395  12.587   3.187   9.973  0.2114  1.0184  0.6725
  226MOL0     C30396  12.618   3.097   9.856  0.8963 -0.7045  0.2879
  226MOL0     C30397  12.762   3.089   9.815  1.1803 -0.8340 -0.0917
  226MOL0     C30398  12.846   3.032   9.926 -0.8256  0.1470  0.0980
  226MOL0     O30399  12.973   2.999   9.871 -0.3498  0.2687  0.9477
  226MOL0     C30400  13.071   2.950   9.958 -0.2058 -0.7730 -0.6325
  226MOL0     C30401  13.202   2.941   9.903  1.0572 -0.4263 -0.8009
  226MOL0     C30402  13.304   2.898   9.982 -0.3373  1.2946 -0.3666
  226MOL0     C30403  13.282   2.862  10.116  0.5179  0.6942 -0.2183
  226MOL0     C30404  13.394   2.819  10.200  0.1353 -0.8502  0.5641
  226MOL0     O30405  13.517   2.824  10.143 -0.2878  0.1506 -0.6311
  226MOL0     C30406  13.633   2.781  10.209 -0.0506  0.0474 -0.6133
  226MOL0     C30407  13.740   2.875  10.215 -0.6892  0.4411 -0.1879
  226MOL0     C30408  13.860   2.828  10.266  0.2239  0.7272 -0.2680
  226MOL0     C30409  13.877   2.697  10.314 -0.0902  0.9073 -0.7776
  226MOL0     O30410  14.004   2.667  10.366  0.3728  0.3268 -0.0395
  226MOL0     C30411  14.031   2.525  10.378 -0.7514 -0.7338  0.1364
  226MOL0     C30412  14.175   2.502  10.422 -0.1926 -0.6124 -0.4069
  226MOL0     C30413  14.198   2.347  10.422 -0.5208 -0.3088  0.7097
  226MOL0     C30414  14.163   2.283  10.561  0.8544  0.3334  0.8561
  226MOL0     C30415  14.182   2.130  10.554 -0.0219 -0.1944  0.1942
  226MOL0     C30416  14.199   2.076  10.701  0.2625  0.4831 -1.1501
  226MOL0     C30417  14.187   1.924  10.718  0.2182  0.6837 -0.8596
  226MOL0     C30418  14.277   1.852  10.620 -0.6581 -0.4794 -0.8253
  226MOL0    Cl30419  14.281   1.680  10.654 -0.0633 -0.0481  0.2204
  226MOL0     C30420  13.769   2.614  10.306 -0.0705  0.1026  0.1995
  226MOL0     C30421  13.640   2.658  10.274 -0.0128  0.2706 -0.0801
  226MOL0     O30422  13.356   2.761  10.304  0.2457 -1.2166 -0.7255
  226MOL0     C30423  13.153   2.867  10.172  0.0192 -0.0004 -0.1257
  226MOL0     C30424  13.052   2.920  10.091 -0.0195 -0.0425  0.1304
  226MOL0     N30425  12.385   3.214  10.135  0.0124 -0.7768  0.3404
  226MOL0     N30426  12.260   3.217  10.122 -0.2794 -1.0503  0.1223
  226MOL0     C30427  11.132   3.532   9.793  1.0923  0.0195  0.2755
  226MOL0     C30428  11.058   3.645   9.756 -0.2554 -1.4844  0.1197
  226MOL0     C30429  10.662   3.849   9.615 -0.1102  0.0830  0.0073
  226MOL0     C30430  10.583   3.905   9.710 -0.6278 -1.3180 -0.5876
  226MOL0     C30431  10.510   4.020   9.687  0.0081  0.0069 -0.7353
  226MOL0     C30432  10.507   4.072   9.562 -0.2078  0.0851  0.3927
  226MOL0     O30433  10.426   4.180   9.537  0.0596  0.1439 -0.3657
  226MOL0     C30434  10.341   4.236   9.636 -0.4021 -0.5330 -0.0276
  226MOL0     C30435  10.266   4.353   9.583 -0.9931 -0.4990 -0.8566
  226MOL0     C30436  10.141   4.309   9.502 -0.0534  0.2712  0.3925
  226MOL0     C30437  10.060   4.426   9.424  0.0892  0.7827  0.3385
  226MOL0     C30438   9.947   4.370   9.355  0.3554  0.7026 -0.4168
  226MOL0     C30439   9.845   4.350   9.286 -0.6307  0.5838 -0.6813
  226MOL0     C30440  10.581   4.009   9.454 -0.7924  0.7012  0.0435
  226MOL0     C30441  10.664   3.895   9.482  1.1522  0.3118  0.8740
  226MOL0     C30442  10.729   3.828   9.367  0.1603  1.1427  0.9804
  226MOL0     H30443  10.870   3.472   9.517  0.5885  1.6957 -1.1836
  226MOL0     H30444  11.037   3.296   9.577 -1.8023 -1.4513  0.8242
  226MOL0     H30445  11.333   3.243   9.661 -2.2068  1.1264 -0.4924
  226MOL0     H30446  11.371   3.389   9.755 -1.5424  1.2474  0.0664
  226MOL0     H30447  11.364   3.098   9.846 -0.1711 -0.7103 -1.9968
  226MOL0     H30448  11.353   3.232   9.964 -1.9019 -2.2927 -0.4305
  226MOL0     H30449  11.573   3.315   9.854  1.9764 -0.9908 -1.3457
  226MOL0     H30450  11.582   3.155   9.777  1.8662 -0.0570  1.5791
  226MOL0     H30451  11.602   3.226  10.068 -1.7978  1.5177 -1.2997
  226MOL0     H30452  11.563   3.057  10.019  4.0792 -1.8892  0.7514
  226MOL0     H30453  11.785   3.074  10.066 -3.2374 -3.2856 -1.0961
  226MOL0     H30454  11.764   3.032   9.894  0.2201  2.2520 -1.7061
  226MOL0     H30455  11.856   3.238   9.808  1.1340  0.0329 -0.1768
  226MOL0     H30456  11.824   3.317   9.968 -0.5510  0.0446 -1.7487
  226MOL0     H30457  12.031   3.104   9.930 -1.3517  0.4514 -1.7825
  226MOL0     H30458  11.989   3.190  10.083 -2.8875 -1.5113 -0.1335
  226MOL0     H30459  12.102   3.302   9.828  1.1141 -2.0207 -0.2095
  226MOL0     H30460  12.077   3.391   9.979 -1.0735  0.2205 -0.2903
  226MOL0     H30461  12.352   3.244   9.812 -2.1860 -3.0261  0.5177
  226MOL0     H30462  12.628   3.288   9.967  0.5579  0.7958 -1.6869
  226MOL0     H30463  12.629   3.143  10.064  1.7092 -0.3488 -0.5996
  226MOL0     H30464  12.575   2.997   9.867 -0.4283 -0.4823 -2.1522
  226MOL0     H30465  12.564   3.143   9.772 -0.5405  1.0403  2.0812
  226MOL0     H30466  12.802   3.185   9.780  0.1425 -0.8891 -1.5568
  226MOL0     H30467  12.760   3.020   9.729 -3.0696 -1.1785  0.0521
  226MOL0     H30468  12.793   2.943   9.959 -1.8003 -0.0824 -1.9586
  226MOL0     H30469  12.858   3.118   9.993 -0.5304 -0.0041  0.2405
  226MOL0     H30470  13.210   2.961   9.797 -1.0081 -1.8632 -1.2972
  226MOL0     H30471  13.405   2.891   9.944 -0.6355  1.4613 -1.2181
  226MOL0     H30472  13.736   2.978  10.180  2.8299  1.7720  2.6971
  226MOL0     H30473  13.954   2.882  10.266  1.8827 -1.9523 -0.4102
  226MOL0     H30474  13.967   2.486  10.458 -1.1412  1.7728  1.1589
  226MOL0     H30475  14.016   2.478  10.281 -1.9677  0.6592 -0.3856
  226MOL0     H30476  14.243   2.552  10.353 -0.9151  1.3597  0.2199
  226MOL0     H30477  14.180   2.539  10.525 -2.3141 -1.3478  0.0180
  226MOL0     H30478  14.139   2.288  10.351 -2.3345  1.5031  0.6223
  226MOL0     H30479  14.302   2.327  10.395 -0.9185  0.4346 -1.5610
  226MOL0     H30480  14.056   2.303  10.577  0.4168 -2.4142  1.8700
  226MOL0     H30481  14.226   2.342  10.627 -0.3889  0.5755  1.8600
  226MOL0     H30482  14.277   2.110  10.502 -0.4040 -0.3183 -0.4590
  226MOL0     H30483  14.098   2.075  10.511 -0.0212  1.9207 -2.7504
  226MOL0     H30484  14.293   2.117  10.741 -0.3173  1.0864 -0.3745
  226MOL0     H30485  14.124   2.128  10.761  0.9808 -0.0997  0.3222
  226MOL0     H30486  14.085   1.885  10.704 -1.0681  2.6027  2.2404
  226MOL0     H30487  14.206   1.894  10.821  3.5263 -2.6754 -2.2132
  226MOL0     H30488  14.238   1.859  10.518  0.6689 -0.5899 -1.3651
  226MOL0     H30489  14.375   1.900  10.616 -1.6981  1.6942 -1.9115
  226MOL0     H30490  13.768   2.510  10.340 -2.8260  0.3483  1.0896
  226MOL0     H30491  13.557   2.589  10.278  1.0181 -0.9799  1.1619
  226MOL0     H30492  13.139   2.831  10.274  2.4441  1.2497  0.7340
  226MOL0     H30493  12.956   2.923  10.141  1.6887  1.1877  3.7248
  226MOL0     H30494  11.200   3.552   9.875  1.1965  2.0822 -0.2467
  226MOL0     H30495  11.080   3.742   9.798 -1.0919 -0.9115 -0.7007
  226MOL0     H30496  10.582   3.869   9.812 -2.4193  2.9798  1.1750
  226MOL0     H30497  10.458   4.060   9.773  2.7505  0.5075  0.8166
  226MOL0     H30498  10.393   4.252   9.731  0.0516 -2.1158  0.0098
  226MOL0     H30499  10.267   4.160   9.662 -1.2163  0.1770 -0.2087
  226MOL0     H30500  10.334   4.422   9.532  0.7539 -0.1194  1.7374
  226MOL0     H30501  10.229   4.420   9.661 -0.8338 -0.6031 -0.6899
  226MOL0     H30502  10.066   4.260   9.565  1.8352  0.8901  3.3400
  226MOL0     H30503  10.168   4.232   9.429 -0.0689  0.5156  0.1277
  226MOL0     H30504  10.029   4.489   9.508 -2.7555 -0.2548  0.1547
  226MOL0     H30505  10.122   4.470   9.345 -1.6581  2.0359 -0.3957
  226MOL0     H30506   9.749   4.351   9.238  0.0380  1.3841 -2.0422
  226MOL0     H30507  10.565   4.061   9.359 -1.4423 -1.8145 -1.3194
  226MOL0     H30508  10.695   3.870   9.272 -0.1446 -1.2381 -0.0548
  226MOL0     H30509  10.836   3.851   9.373  1.2013 -2.7192  0.3432
  226MOL0     H30510  10.720   3.719   9.366 -5.7430  1.2777  2.6243
  227MOL0     O30511   2.382   0.993   5.259 -0.0923 -0.0323  0.8085
  227MOL0     C30512   2.355   0.958   5.147 -0.6005  0.1869  0.0092
  227MOL0     O30513   2.450   0.935   5.048  0.7782  0.4084  0.1317
  227MOL0     C30514   2.577   0.916   5.090 -1.0245 -0.8802  0.3708
  227MOL0     C30515   2.668   1.027   5.109 -0.8719 -0.0847 -0.1855
  227MOL0     C30516   2.803   1.006   5.144 -0.1027 -0.9247  0.0498
  227MOL0     C30517   2.846   0.873   5.164  1.0430 -0.2264 -0.4575
  227MOL0     O30518   2.968   0.855   5.221  0.1037  0.3096  0.0790
  227MOL0     C30519   3.072   0.906   5.142  0.3341 -0.0366 -0.1994
  227MOL0     C30520   3.200   0.852   5.189  0.3560  0.5375 -0.3671
  227MOL0     C30521   3.317   0.907   5.116 -0.9279  0.2056  0.3329
  227MOL0     C30522   3.452   0.864   5.182  1.7881  0.0271 -0.2925
  227MOL0     C30523   3.475   0.719   5.141 -0.5465  0.3200 -0.1201
  227MOL0     C30524   3.618   0.664   5.168 -0.4965 -0.5829 -0.5153
  227MOL0     C30525   3.663   0.686   5.317 -0.2506 -0.3610  0.0777
  227MOL0     C30526   3.557   0.633   5.421  0.3548 -0.0818 -0.6089
  227MOL0     N30527   3.604   0.625   5.556 -0.0440 -0.2273  0.4590
  227MOL0     C30528   3.604   0.725   5.649  0.7271 -0.1114  1.4592
  227MOL0     C30529   3.651   0.669   5.768 -0.3566  0.0935 -0.2277
  227MOL0     C30530   3.636   0.716   5.916 -0.8515 -0.6699  0.0720
  227MOL0     C30531   3.748   0.820   5.941 -0.2935  0.1050 -0.2504
  227MOL0     C30532   3.747   0.878   6.082 -0.6787 -1.1473  0.0864
  227MOL0     C30533   3.872   0.959   6.113  0.8157  0.4100 -0.1996
  227MOL0     O30534   3.982   0.873   6.128  0.3730  0.7064 -0.6354
  227MOL0     C30535   4.102   0.942   6.161 -0.3451  0.3567 -1.0380
  227MOL0     C30536   4.207   0.859   6.192  0.3227  0.1524  0.4594
  227MOL0     C30537   4.333   0.899   6.209  0.1299 -0.3963  0.6968
  227MOL0     C30538   4.363   1.039   6.201  0.3876  0.0248 -0.1937
  227MOL0     C30539   4.497   1.081   6.231  0.2327 -0.4193 -0.1968
  227MOL0     O30540   4.565   0.995   6.293 -0.0306 -0.1433 -0.1671
  227MOL0     C30541   4.693   1.019   6.343 -0.0768  0.0388  0.4957
  227MOL0     C30542   4.749   0.921   6.425 -0.6876  0.1017 -0.0314
  227MOL0     C30543   4.875   0.936   6.474 -0.3321 -0.0527  0.1203
  227MOL0     C30544   4.958   1.046   6.448  0.6478  0.0653 -1.3257
  227MOL0     O30545   5.089   1.065   6.479  0.4101  0.7957 -0.4117
  227MOL0     C30546   5.165   0.943   6.508  0.3087 -0.3603 -0.3094
  227MOL0     C30547   5.313   0.975   6.521 -0.3583 -0.0971 -0.0094
  227MOL0     C30548   5.350   1.079   6.631  0.4363  0.5028 -0.4849
  227MOL0     C30549   5.495   1.080   6.657 -1.0466  0.0040  0.5447
  227MOL0     C30550   5.539   1.192   6.767 -0.1936  0.4830  0.3715
  227MOL0     C30551   5.690   1.207   6.780 -0.1143  0.2839 -1.3226
  227MOL0     C30552   5.728   1.305   6.886 -0.4410  0.0024 -1.2443
  227MOL0     C30553   5.757   1.443   6.825 -0.2902 -0.7990  0.2914
  227MOL0    Cl30554   5.842   1.556   6.925  0.0469  0.4149 -0.0214
  227MOL0     C30555   4.907   1.147   6.369 -0.1438  0.9740  0.4798
  227MOL0     C30556   4.783   1.125   6.312  0.7745 -0.4535  0.2586
  227MOL0     O30557   4.533   1.196   6.207  0.5211  0.4535 -0.4114
  227MOL0     C30558   4.263   1.129   6.191 -0.0310 -0.6214 -0.1972
  227MOL0     C30559   4.128   1.081   6.156  0.2089  0.2840 -0.0445
  227MOL0     N30560   3.695   0.545   5.731 -0.0317  0.1506  1.0698
  227MOL0     N30561   3.660   0.521   5.604 -0.1195  0.0720  0.3479
  227MOL0     C30562   2.761   0.767   5.139  0.2429  0.6816 -0.3431
  227MOL0     C30563   2.628   0.789   5.098  0.8258 -0.6696  0.2454
  227MOL0     C30564   2.217   0.973   5.099  0.7403  0.3650 -0.1999
  227MOL0     C30565   2.187   0.989   4.958 -0.4226  0.1582  0.1412
  227MOL0     C30566   2.055   1.014   4.916 -0.6780  0.0437  0.2280
  227MOL0     C30567   1.945   1.025   5.005  0.3820 -0.5548 -0.4063
  227MOL0     O30568   1.811   1.062   4.980  0.4203 -0.6756  1.1575
  227MOL0     C30569   1.776   1.126   4.861  0.1304 -0.6962 -0.1248
  227MOL0     C30570   1.621   1.131   4.847  0.0336  0.0417 -0.2081
  227MOL0     C30571   1.552   0.996   4.888 -0.1798 -0.2547  0.4197
  227MOL0     C30572   1.413   1.038   4.934 -0.1788  0.4303 -0.4106
  227MOL0     C30573   1.356   0.925   4.997 -0.9583  1.2351 -0.6893
  227MOL0     C30574   1.307   0.825   5.053  0.4198 -0.8363  0.0370
  227MOL0     C30575   1.969   0.999   5.144 -1.2237  0.4879  0.1401
  227MOL0     C30576   2.100   0.974   5.191  0.2674  0.2319 -0.6198
  227MOL0     C30577   2.103   0.965   5.344 -0.3055 -0.5134 -0.1257
  227MOL0     H30578   2.629   1.129   5.110  0.5936  0.5164 -0.9764
  227MOL0     H30579   2.875   1.084   5.164  3.2665 -2.9913 -2.8531
  227MOL0     H30580   3.061   0.858   5.044 -0.5554  2.4909 -1.4291
  227MOL0     H30581   3.075   1.015   5.129 -0.2405 -0.1667 -1.7140
  227MOL0     H30582   3.184   0.745   5.176 -3.9816  1.1669 -2.1259
  227MOL0     H30583   3.209   0.877   5.295  0.2304  1.1350 -0.4930
  227MOL0     H30584   3.317   1.017   5.119  3.2880  0.3791  0.0654
  227MOL0     H30585   3.320   0.872   5.012 -0.7542 -0.9251  0.7139
  227MOL0     H30586   3.525   0.934   5.140  0.3996 -0.0649 -3.1727
  227MOL0     H30587   3.442   0.866   5.291 -2.4419 -1.1870 -0.4601
  227MOL0     H30588   3.416   0.655   5.208  2.0435 -1.8017  0.3056
  227MOL0     H30589   3.440   0.701   5.039 -2.3715  1.0083  0.3400
  227MOL0     H30590   3.631   0.556   5.153  0.3228 -0.6010  0.2615
  227MOL0     H30591   3.690   0.714   5.103  1.1327  2.1306  3.0281
  227MOL0     H30592   3.687   0.788   5.347  0.0432 -0.4840  0.2656
  227MOL0     H30593   3.758   0.634   5.333  0.5347  0.7386 -0.9590
  227MOL0     H30594   3.474   0.704   5.419  2.3853  2.4314  0.0407
  227MOL0     H30595   3.544   0.529   5.388 -0.0113 -0.4864  0.7465
  227MOL0     H30596   3.554   0.820   5.637  3.9921  1.3795 -3.2546
  227MOL0     H30597   3.539   0.762   5.938 -0.5992  0.0719 -0.3264
  227MOL0     H30598   3.648   0.626   5.977 -1.7963 -0.7073  0.2159
  227MOL0     H30599   3.840   0.761   5.934 -1.5466 -1.8563 -1.0197
  227MOL0     H30600   3.758   0.899   5.866 -0.9945 -1.5461 -2.1551
  227MOL0     H30601   3.729   0.799   6.155 -0.4097 -1.7692 -0.5131
  227MOL0     H30602   3.666   0.953   6.084  0.5278  0.3579 -2.4086
  227MOL0     H30603   3.850   1.023   6.199 -0.4334 -1.6915  1.1386
  227MOL0     H30604   3.903   1.034   6.040  0.9275  1.5138  0.9437
  227MOL0     H30605   4.196   0.751   6.184  0.6459  0.0983  0.6782
  227MOL0     H30606   4.410   0.829   6.237 -0.7217 -0.4298  3.3144
  227MOL0     H30607   4.694   0.829   6.445  0.0370 -0.5004 -0.7581
  227MOL0     H30608   4.912   0.855   6.537  1.5515 -0.5713 -1.5320
  227MOL0     H30609   5.133   0.904   6.605 -0.9481  0.0116 -0.5529
  227MOL0     H30610   5.146   0.860   6.440 -2.5116  1.2413 -1.6560
  227MOL0     H30611   5.369   0.881   6.520 -0.1273 -0.0018 -2.5005
  227MOL0     H30612   5.337   1.018   6.423  3.4600  2.4836  1.7879
  227MOL0     H30613   5.316   1.180   6.606 -0.2915  0.5528  0.6632
  227MOL0     H30614   5.305   1.055   6.727 -0.7690  1.7232 -0.7062
  227MOL0     H30615   5.538   1.103   6.559 -3.3755  0.5216 -0.4142
  227MOL0     H30616   5.526   0.987   6.704  1.1379 -0.3831 -1.4519
  227MOL0     H30617   5.481   1.171   6.858 -2.5261  1.8212 -0.7068
  227MOL0     H30618   5.496   1.290   6.744  0.1638  0.6980  0.6031
  227MOL0     H30619   5.739   1.110   6.794  0.1243  0.7360  1.7855
  227MOL0     H30620   5.727   1.247   6.685  0.8423  2.2023 -0.2117
  227MOL0     H30621   5.825   1.282   6.933  0.7383  0.4961 -3.3106
  227MOL0     H30622   5.655   1.308   6.967 -0.3233 -0.5787 -1.1138
  227MOL0     H30623   5.783   1.434   6.719 -0.9093 -0.4920  0.1101
  227MOL0     H30624   5.663   1.498   6.811 -0.8252 -0.8910  2.9701
  227MOL0     H30625   4.958   1.236   6.334 -1.6253  1.6804  0.0424
  227MOL0     H30626   4.758   1.192   6.230  0.6687 -1.1345 -0.2673
  227MOL0     H30627   4.263   1.237   6.199 -3.4410 -0.3542 -2.0294
  227MOL0     H30628   4.054   1.153   6.124  1.0496  0.2397 -2.3099
  227MOL0     H30629   2.791   0.664   5.158  0.0736  0.8562  0.9319
  227MOL0     H30630   2.572   0.696   5.093  0.0055 -0.1317 -2.0989
  227MOL0     H30631   2.265   0.994   4.882 -1.4223 -1.2001 -1.0222
  227MOL0     H30632   2.043   1.023   4.809 -0.1341 -3.2436 -0.2023
  227MOL0     H30633   1.832   1.081   4.779  2.3480 -1.0358  1.4806
  227MOL0     H30634   1.799   1.233   4.863 -1.2612 -0.3836  0.8269
  227MOL0     H30635   1.589   1.161   4.747  1.0253  1.0313 -0.2523
  227MOL0     H30636   1.577   1.205   4.915 -2.8144 -3.5975  2.3125
  227MOL0     H30637   1.603   0.952   4.974  1.4655  1.1796  0.2518
  227MOL0     H30638   1.541   0.933   4.799 -0.4647  0.8529 -0.3425
  227MOL0     H30639   1.418   1.123   5.002  2.3688  0.8277 -0.9824
  227MOL0     H30640   1.357   1.073   4.847 -0.2032  4.3296  0.9873
  227MOL0     H30641   1.263   0.747   5.113 -1.1934  1.6999  2.4268
  227MOL0     H30642   1.890   1.001   5.218 -0.7169 -3.1445  0.9500
  227MOL0     H30643   2.010   0.997   5.391 -0.2232 -0.1797 -0.1900
  227MOL0     H30644   2.120   0.865   5.386 -0.1665 -0.2286  0.5092
  227MOL0     H30645   2.184   1.030   5.381  1.9658 -1.4214 -3.1000
  228MOL0     O30646   0.466   8.115   1.725 -0.0728 -0.0673 -0.1493
  228MOL0     C30647   0.407   8.061   1.814 -0.4086 -0.5069 -0.4182
  228MOL0     O30648   0.455   7.968   1.895  0.2895 -0.5769 -0.5928
  228MOL0     C30649   0.570   7.906   1.854 -0.9095 -0.0187 -0.5213
  228MOL0     C30650   0.692   7.946   1.922 -0.4252  0.3948  0.1393
  228MOL0     C30651   0.813   7.884   1.899  0.7828  0.4930 -0.4762
  228MOL0     C30652   0.814   7.782   1.815 -0.1113  0.2119  0.2690
  228MOL0     O30653   0.932   7.725   1.780  0.3166 -1.0766  0.9139
  228MOL0     C30654   0.973   7.761   1.645 -0.1712  1.1478 -0.1088
  228MOL0     C30655   1.115   7.702   1.623 -1.2927 -0.1041  0.3835
  228MOL0     C30656   1.136   7.555   1.647  0.5466 -0.8960  0.6635
  228MOL0     C30657   1.289   7.511   1.669  0.1471 -0.2603 -0.0064
  228MOL0     C30658   1.305   7.373   1.752 -0.6465 -0.3109  0.3001
  228MOL0     C30659   1.252   7.245   1.679 -0.2247 -0.5491 -0.8353
  228MOL0     C30660   1.277   7.124   1.765 -0.1181 -0.5982 -0.9696
  228MOL0     C30661   1.230   6.996   1.692 -0.4754 -0.4609 -0.3189
  228MOL0     N30662   1.225   6.884   1.790 -0.8053 -0.8095 -0.2412
  228MOL0     C30663   1.326   6.795   1.811 -0.0913  0.2872 -1.0256
  228MOL0     C30664   1.262   6.705   1.900 -0.6698  0.0196  0.9648
  228MOL0     C30665   1.324   6.577   1.943  0.1677 -0.0984 -0.4591
  228MOL0     C30666   1.220   6.478   1.992 -0.6312 -0.1975  0.3825
  228MOL0     C30667   1.278   6.336   2.017 -0.1099 -0.1598  0.7991
  228MOL0     C30668   1.326   6.242   1.894  0.3453  0.4276 -0.4036
  228MOL0     O30669   1.435   6.307   1.820 -0.0794  0.2533  0.2774
  228MOL0     C30670   1.554   6.321   1.887  0.5125  0.1867 -0.9947
  228MOL0     C30671   1.636   6.399   1.811  0.3772 -0.3017 -0.5360
  228MOL0     C30672   1.764   6.422   1.858 -0.2218  0.3133 -0.3055
  228MOL0     C30673   1.814   6.374   1.978 -0.0692 -0.1361 -0.0262
  228MOL0     C30674   1.948   6.413   2.027  0.6533  0.4642  0.4016
  228MOL0     O30675   1.992   6.341   2.138 -0.4054 -0.3444  0.6022
  228MOL0     C30676   2.130   6.343   2.167 -0.2916  0.5246 -1.2508
  228MOL0     C30677   2.176   6.291   2.293  0.7074 -0.5458  0.8054
  228MOL0     C30678   2.306   6.310   2.346  0.6860  0.8404 -0.4414
  228MOL0     C30679   2.408   6.371   2.272  0.0967  0.1599  0.1711
  228MOL0     O30680   2.535   6.392   2.323  0.0557 -0.2585  0.0778
  228MOL0     C30681   2.613   6.501   2.283  0.4002  0.0021  0.3272
  228MOL0     C30682   2.761   6.461   2.264  0.3635 -0.0460 -0.6553
  228MOL0     C30683   2.847   6.571   2.185 -0.0413 -0.0613 -0.2000
  228MOL0     C30684   2.992   6.526   2.196 -0.0879 -0.0624  0.3830
  228MOL0     C30685   3.089   6.626   2.136 -1.3534 -0.8104 -0.3376
  228MOL0     C30686   3.234   6.582   2.122  0.5541  0.1238 -0.3580
  228MOL0     C30687   3.268   6.516   1.985  0.2236  0.8195  1.4111
  228MOL0     C30688   3.291   6.602   1.856  0.0217  0.1298  1.0417
  228MOL0    Cl30689   3.446   6.678   1.845 -0.3086 -0.3885 -0.1209
  228MOL0     C30690   2.366   6.409   2.147  0.2349 -0.7479  0.0369
  228MOL0     C30691   2.235   6.393   2.093 -0.1419  0.4047 -0.5776
  228MOL0     O30692   1.993   6.514   1.968  0.1714  0.5663 -0.0636
  228MOL0     C30693   1.731   6.299   2.055 -0.0574  0.5820 -0.2783
  228MOL0     C30694   1.603   6.265   2.002 -0.2195 -0.1709 -0.5642
  228MOL0     N30695   1.137   6.752   1.940  0.5579 -0.1050 -0.0478
  228MOL0     N30696   1.120   6.865   1.872 -0.5230 -0.2258 -0.2421
  228MOL0     C30697   0.700   7.742   1.750 -0.0054  0.7163 -0.4879
  228MOL0     C30698   0.573   7.791   1.774 -0.2043 -0.5692  0.0803
  228MOL0     C30699   0.258   8.100   1.847 -0.8764 -0.1455  1.0073
  228MOL0     C30700   0.207   8.088   1.980  0.6428  0.1645  0.5283
  228MOL0     C30701   0.074   8.127   2.017 -1.0974 -0.4730  0.5275
  228MOL0     C30702   0.005   8.188   1.910  1.1461 -0.1088 -0.7694
  228MOL0     O30703  -0.116   8.255   1.935  0.2016 -0.7213 -0.1505
  228MOL0     C30704  -0.226   8.182   1.988  0.0889 -0.4549 -0.2063
  228MOL0     C30705  -0.271   8.056   1.916 -0.2040 -0.2058 -0.0057
  228MOL0     C30706  -0.302   8.085   1.773 -0.1304  0.5582 -1.0028
  228MOL0     C30707  -0.422   8.163   1.758  0.3056  0.5854 -0.2291
  228MOL0     C30708  -0.475   8.169   1.616  0.0379  0.5927 -0.4055
  228MOL0     C30709  -0.503   8.163   1.500  0.8394 -0.4989  0.1385
  228MOL0     C30710   0.052   8.207   1.783  1.0846 -0.8281 -0.6468
  228MOL0     C30711   0.179   8.161   1.751  0.6977 -0.2131  0.0513
  228MOL0     C30712   0.212   8.173   1.597  0.3779 -0.0471 -0.5445
  228MOL0     H30713   0.703   8.036   1.982 -1.1030 -0.2250  1.2084
  228MOL0     H30714   0.906   7.910   1.948 -0.8318 -0.0170  3.1639
  228MOL0     H30715   0.905   7.717   1.571  0.1224  1.2305 -0.4289
  228MOL0     H30716   0.971   7.870   1.639  1.3540  1.3672  2.2331
  228MOL0     H30717   1.178   7.754   1.696  0.0031 -2.0243  0.7180
  228MOL0     H30718   1.143   7.724   1.519  2.9844 -0.8815  1.1829
  228MOL0     H30719   1.095   7.502   1.561 -2.4710  2.5226 -0.2129
  228MOL0     H30720   1.077   7.527   1.735  0.7966  1.3812  1.6423
  228MOL0     H30721   1.345   7.514   1.575  1.8628 -1.2061  0.9338
  228MOL0     H30722   1.336   7.592   1.727 -0.3330  0.6082 -0.7886
  228MOL0     H30723   1.408   7.347   1.778 -0.2111 -1.3480 -2.1748
  228MOL0     H30724   1.257   7.392   1.849 -1.1331 -0.4677  0.0908
  228MOL0     H30725   1.147   7.261   1.653  0.2817  1.9303 -1.5678
  228MOL0     H30726   1.305   7.220   1.586  0.2716  0.4541 -0.8338
  228MOL0     H30727   1.221   7.133   1.859  0.8320 -1.9028 -0.2320
  228MOL0     H30728   1.382   7.107   1.789 -1.2342 -3.5247  3.0379
  228MOL0     H30729   1.127   7.018   1.661  0.4635  3.4158 -1.3051
  228MOL0     H30730   1.301   6.975   1.611  2.1814  0.9461  1.4861
  228MOL0     H30731   1.426   6.797   1.768  0.2340  2.4875 -0.2600
  228MOL0     H30732   1.366   6.534   1.852  0.1179 -3.3119  0.9210
  228MOL0     H30733   1.400   6.588   2.021  0.7069  1.7977 -1.1832
  228MOL0     H30734   1.183   6.517   2.088  0.0903  0.8106  0.2639
  228MOL0     H30735   1.138   6.466   1.921 -1.2891 -0.7619  1.2165
  228MOL0     H30736   1.192   6.278   2.050 -1.1567  1.2110  0.5409
  228MOL0     H30737   1.350   6.344   2.099  2.0271  1.5020 -1.1056
  228MOL0     H30738   1.241   6.235   1.826  0.9137  3.7963 -1.6638
  228MOL0     H30739   1.339   6.139   1.927 -1.7069  0.5220  0.8926
  228MOL0     H30740   1.597   6.431   1.715 -4.9527 -0.2925  1.3019
  228MOL0     H30741   1.812   6.487   1.786 -1.2409  0.6728 -0.6838
  228MOL0     H30742   2.098   6.240   2.349  2.7822 -4.0230  0.8179
  228MOL0     H30743   2.318   6.269   2.446  1.7668  2.7716  0.2661
  228MOL0     H30744   2.568   6.539   2.192 -0.8308 -1.3596  0.3359
  228MOL0     H30745   2.604   6.581   2.357  2.8146  2.2694 -1.6284
  228MOL0     H30746   2.793   6.438   2.366  2.1269 -1.0411 -1.4021
  228MOL0     H30747   2.780   6.369   2.207 -1.3402 -0.3340 -0.8262
  228MOL0     H30748   2.826   6.590   2.079  1.5514  2.9404 -0.0812
  228MOL0     H30749   2.849   6.662   2.245 -0.5692  0.3178 -0.7533
  228MOL0     H30750   2.997   6.427   2.152 -1.0515 -0.5990  1.4293
  228MOL0     H30751   3.013   6.503   2.301 -1.9856  1.7818  1.2373
  228MOL0     H30752   3.101   6.713   2.202 -0.1265 -2.0207  1.1094
  228MOL0     H30753   3.051   6.659   2.039  2.1831  0.3172 -1.5072
  228MOL0     H30754   3.302   6.665   2.139  3.0188 -1.5086 -1.6370
  228MOL0     H30755   3.260   6.509   2.199 -1.2262 -1.0215 -0.7481
  228MOL0     H30756   3.191   6.442   1.959 -0.1468  2.3907 -2.6303
  228MOL0     H30757   3.360   6.461   2.005 -1.8118 -3.0047  1.2873
  228MOL0     H30758   3.301   6.528   1.776  2.0634  0.8840  0.5394
  228MOL0     H30759   3.208   6.670   1.838  0.7995  1.4186  2.1879
  228MOL0     H30760   2.426   6.452   2.068 -0.9548 -0.7599 -0.9014
  228MOL0     H30761   2.225   6.430   1.991 -0.8100  0.1565 -0.6000
  228MOL0     H30762   1.768   6.263   2.151 -1.2974  4.6179  1.9416
  228MOL0     H30763   1.541   6.198   2.062  1.6184  0.1614  1.8297
  228MOL0     H30764   0.711   7.658   1.682 -0.0204 -0.2337  0.6444
  228MOL0     H30765   0.480   7.766   1.724 -0.8791  1.1519  0.4169
  228MOL0     H30766   0.282   8.063   2.054 -0.2203 -0.1370  1.3206
  228MOL0     H30767   0.040   8.113   2.119 -1.1381  0.9823  0.7277
  228MOL0     H30768  -0.311   8.252   1.990  1.2772  1.0079  1.0539
  228MOL0     H30769  -0.203   8.151   2.090  0.3092  1.4029  0.3411
  228MOL0     H30770  -0.358   8.011   1.964 -0.2108 -1.9326 -1.5223
  228MOL0     H30771  -0.187   7.986   1.908  0.6298  0.9306 -1.9725
  228MOL0     H30772  -0.317   7.990   1.721 -2.4837  0.6618 -0.6225
  228MOL0     H30773  -0.215   8.133   1.726  1.6688  0.0488  1.5966
  228MOL0     H30774  -0.500   8.129   1.827  0.8701  0.9656  0.6115
  228MOL0     H30775  -0.391   8.265   1.785  0.3762  0.6511 -0.5508
  228MOL0     H30776  -0.541   8.143   1.402 -0.8034 -2.0909  1.0526
  228MOL0     H30777  -0.006   8.255   1.705 -0.5234 -1.3065  0.1976
  228MOL0     H30778   0.122   8.189   1.537 -1.2905  0.9157  2.0522
  228MOL0     H30779   0.267   8.267   1.589 -2.0439  1.5249  0.2297
  228MOL0     H30780   0.284   8.100   1.559 -0.2532  0.5466 -3.0310
  229MOL0     O30781   7.568   5.968  10.483  0.1943  0.4578 -0.3326
  229MOL0     C30782   7.528   5.943  10.366  0.0180 -0.0455  0.2698
  229MOL0     O30783   7.603   5.882  10.278 -0.1448  0.6167 -0.3713
  229MOL0     C30784   7.730   5.848  10.315 -0.9283  0.7982  0.7258
  229MOL0     C30785   7.769   5.710  10.311 -1.3853  0.0995  0.2173
  229MOL0     C30786   7.902   5.679  10.349 -0.0820  0.0428 -0.1622
  229MOL0     C30787   7.998   5.779  10.378  0.6222 -0.2147  0.6786
  229MOL0     O30788   8.127   5.754  10.409 -0.8828  0.0642  0.2219
  229MOL0     C30789   8.217   5.798  10.311  0.5381 -0.4522  0.3412
  229MOL0     C30790   8.346   5.842  10.380 -0.3458 -0.1796 -0.1313
  229MOL0     C30791   8.398   5.733  10.472  0.0089 -0.9438 -0.6169
  229MOL0     C30792   8.519   5.780  10.549 -0.4965 -0.0053  0.4933
  229MOL0     C30793   8.472   5.804  10.700  0.0798  0.0862 -0.2088
  229MOL0     C30794   8.441   5.682  10.799  1.0123  0.0071  0.1603
  229MOL0     C30795   8.563   5.650  10.887  0.4664  0.4799  0.7821
  229MOL0     C30796   8.690   5.604  10.796  0.1364 -0.2806 -0.1805
  229MOL0     N30797   8.810   5.578  10.879  0.2307 -0.7341 -0.1166
  229MOL0     C30798   8.826   5.482  10.975  0.4177  0.1860  0.4333
  229MOL0     C30799   8.950   5.494  11.030 -0.7121 -1.2679 -0.7217
  229MOL0     C30800   9.019   5.415  11.137  0.2094 -0.3436  0.1575
  229MOL0     C30801   9.049   5.272  11.085  0.3201 -0.4089  0.3047
  229MOL0     C30802   9.080   5.176  11.197  0.5605 -0.7348  0.1470
  229MOL0     C30803   9.204   5.196  11.281 -0.5975  0.0445  0.2221
  229MOL0     O30804   9.204   5.303  11.374  0.2125 -0.2207 -0.4691
  229MOL0     C30805   9.315   5.333  11.446 -0.4588  0.3305 -0.2177
  229MOL0     C30806   9.305   5.425  11.551  0.5436  0.5402 -0.5597
  229MOL0     C30807   9.416   5.458  11.625  0.2069 -0.8592 -0.4939
  229MOL0     C30808   9.540   5.387  11.613 -0.2218 -0.6389  0.1004
  229MOL0     C30809   9.656   5.426  11.711  0.2401  0.1254 -0.3247
  229MOL0     O30810   9.784   5.389  11.680  0.1344  0.8484  0.5194
  229MOL0     C30811   9.889   5.426  11.766 -0.0817  0.3521 -0.1879
  229MOL0     C30812   9.883   5.396  11.905 -1.5212 -0.5122  0.5976
  229MOL0     C30813   9.978   5.446  11.996 -0.3975  0.0128  0.3353
  229MOL0     C30814  10.069   5.540  11.954  0.1139 -0.6178 -0.4834
  229MOL0     O30815  10.135   5.606  12.055 -0.3116 -0.2266  0.7252
  229MOL0     C30816  10.277   5.632  12.057 -0.0506  0.6879  0.7195
  229MOL0     C30817  10.316   5.775  12.014 -0.1597  0.2970  0.2184
  229MOL0     C30818  10.453   5.796  12.070 -0.4665 -0.5527 -0.0403
  229MOL0     C30819  10.522   5.935  12.037  1.0576  0.4002  0.0298
  229MOL0     C30820  10.652   5.956  12.107 -0.5120  0.1701  1.0348
  229MOL0     C30821  10.725   6.081  12.062 -0.0283 -1.1845  0.7227
  229MOL0     C30822  10.866   6.087  12.104  0.1711 -1.0586 -0.7130
  229MOL0     C30823  10.938   6.208  12.065 -0.4608 -0.8250 -0.2481
  229MOL0    Cl30824  11.086   6.221  12.172 -0.1405 -0.4695 -0.2941
  229MOL0     C30825  10.068   5.581  11.822 -0.5735  0.7929  0.0141
  229MOL0     C30826   9.988   5.517  11.729  0.0648 -0.0801 -0.4726
  229MOL0     O30827   9.632   5.498  11.810 -0.0632 -0.4707 -0.2118
  229MOL0     C30828   9.547   5.295  11.505 -0.0880  0.4247 -0.4973
  229MOL0     C30829   9.442   5.268  11.427  0.5731 -0.1842  0.2042
  229MOL0     N30830   9.007   5.602  10.964 -0.9364 -0.6370 -0.8018
  229MOL0     N30831   8.921   5.652  10.882  0.2731  0.1325  0.0291
  229MOL0     C30832   7.953   5.915  10.392  0.1738  0.4964  0.1575
  229MOL0     C30833   7.823   5.945  10.361  0.0152  0.0370  0.0294
  229MOL0     C30834   7.394   5.996  10.322 -0.7464 -0.2767 -0.0627
  229MOL0     C30835   7.321   5.918  10.230  0.1364  0.6155 -0.3199
  229MOL0     C30836   7.198   5.965  10.177 -0.3178 -0.1078 -0.3877
  229MOL0     C30837   7.147   6.087  10.212 -0.6767  0.1716  0.7453
  229MOL0     O30838   7.023   6.124  10.167  0.6738 -0.1748 -0.6668
  229MOL0     C30839   6.964   6.069  10.050 -0.3074  0.0347  0.3023
  229MOL0     C30840   6.874   6.169   9.988  1.2365  0.6694  0.6276
  229MOL0     C30841   6.777   6.224  10.097  0.7606  0.6339  1.3619
  229MOL0     C30842   6.658   6.289  10.018  0.2262  0.1303 -0.0131
  229MOL0     C30843   6.621   6.417  10.086  1.5577  0.9528  0.7778
  229MOL0     C30844   6.592   6.518  10.146  0.3393  1.0089  0.2637
  229MOL0     C30845   7.218   6.162  10.313 -0.0026  0.4966 -0.2516
  229MOL0     C30846   7.343   6.125  10.365  0.1531  0.9565 -0.0671
  229MOL0     C30847   7.423   6.220  10.460 -0.2347  0.2796 -0.2590
  229MOL0     H30848   7.704   5.638  10.263 -3.1120  1.7430 -0.0193
  229MOL0     H30849   7.934   5.575  10.345  1.6830  0.5959 -1.6105
  229MOL0     H30850   8.244   5.717  10.243 -3.5587 -0.1682 -1.9894
  229MOL0     H30851   8.175   5.877  10.248 -0.2607  0.0855  1.4994
  229MOL0     H30852   8.323   5.932  10.438  1.2055 -1.4941  2.7506
  229MOL0     H30853   8.415   5.871  10.301  0.2666 -0.0945  0.4240
  229MOL0     H30854   8.425   5.660  10.395 -2.0761 -0.4748 -1.8956
  229MOL0     H30855   8.329   5.695  10.548  0.3526  1.4679  0.9855
  229MOL0     H30856   8.597   5.703  10.549 -1.7880 -1.4033 -1.0513
  229MOL0     H30857   8.564   5.867  10.502 -2.0790  0.1745 -0.7957
  229MOL0     H30858   8.545   5.866  10.753  0.1662 -0.5706  0.4536
  229MOL0     H30859   8.374   5.853  10.693 -1.4336 -2.7182 -0.3572
  229MOL0     H30860   8.359   5.724  10.858 -0.3088 -1.6912 -0.3988
  229MOL0     H30861   8.403   5.589  10.756  0.0545 -0.9238  2.8146
  229MOL0     H30862   8.530   5.564  10.946  1.5985 -1.3458 -1.1281
  229MOL0     H30863   8.584   5.722  10.966 -1.9426 -0.3593  2.3001
  229MOL0     H30864   8.667   5.503  10.762 -1.9108 -0.0820  0.5013
  229MOL0     H30865   8.714   5.670  10.712  0.6046 -1.4918 -1.0218
  229MOL0     H30866   8.759   5.399  10.996  0.8598  0.1193  1.6842
  229MOL0     H30867   9.113   5.461  11.169 -1.8866  3.8836  0.8789
  229MOL0     H30868   8.960   5.413  11.229  1.0250  0.9600  0.7515
  229MOL0     H30869   8.965   5.243  11.022 -0.0323  0.0312  0.5648
  229MOL0     H30870   9.138   5.265  11.022  0.0721  1.1096 -0.2474
  229MOL0     H30871   9.075   5.072  11.165 -1.5800 -0.6028 -0.1210
  229MOL0     H30872   8.984   5.181  11.250  0.5619  0.4832  0.0736
  229MOL0     H30873   9.283   5.197  11.205 -0.8059 -1.2465 -0.0205
  229MOL0     H30874   9.216   5.110  11.347 -2.1838  0.4317  1.0467
  229MOL0     H30875   9.215   5.486  11.559  2.5906  3.6198  1.2170
  229MOL0     H30876   9.391   5.532  11.700 -2.6941 -2.0199 -0.1896
  229MOL0     H30877   9.808   5.328  11.944 -0.3527 -1.7933  0.7068
  229MOL0     H30878   9.975   5.418  12.100  1.3954 -0.2933  0.3352
  229MOL0     H30879  10.300   5.619  12.163 -1.0235 -2.4193  0.6329
  229MOL0     H30880  10.331   5.558  11.997 -1.9653 -1.2711  1.3203
  229MOL0     H30881  10.326   5.786  11.905  0.0371  0.4075  0.2482
  229MOL0     H30882  10.247   5.855  12.042 -0.1692  2.9568 -5.7986
  229MOL0     H30883  10.454   5.803  12.179 -0.9180 -0.8869 -0.0122
  229MOL0     H30884  10.523   5.721  12.033 -0.5930 -0.7653  0.1542
  229MOL0     H30885  10.458   6.016  12.071 -2.8237 -2.3652 -0.0817
  229MOL0     H30886  10.530   5.937  11.928 -2.1076  1.2788 -0.2826
  229MOL0     H30887  10.711   5.867  12.085  0.2152  0.3207  2.2459
  229MOL0     H30888  10.631   5.964  12.214 -1.1347 -1.1918  1.0408
  229MOL0     H30889  10.704   6.084  11.955 -1.7650 -1.1698  1.0395
  229MOL0     H30890  10.681   6.168  12.110  0.3519  0.2797 -1.4438
  229MOL0     H30891  10.915   6.007  12.049  0.1647  0.1845 -2.6178
  229MOL0     H30892  10.873   6.082  12.213 -3.4870  0.1727 -0.2720
  229MOL0     H30893  10.974   6.207  11.962 -0.1255  0.1082 -0.1465
  229MOL0     H30894  10.873   6.295  12.079 -0.0651 -0.2576 -1.7450
  229MOL0     H30895  10.131   5.668  11.804 -0.6320  0.6725 -0.7931
  229MOL0     H30896   9.976   5.566  11.632  2.8327  1.9092  0.0614
  229MOL0     H30897   9.642   5.244  11.496  0.7694  1.4926  1.6050
  229MOL0     H30898   9.454   5.200  11.344  1.8021 -1.0486  1.0578
  229MOL0     H30899   8.022   5.991  10.428 -0.9240  3.2889 -3.0111
  229MOL0     H30900   7.787   6.048  10.364  0.5092  0.5635 -4.6091
  229MOL0     H30901   7.347   5.816  10.205 -2.9523 -1.1037  2.5736
  229MOL0     H30902   7.147   5.894  10.112 -2.9719 -1.1249  2.4897
  229MOL0     H30903   6.910   5.977  10.074 -1.4309 -0.4081 -3.2178
  229MOL0     H30904   7.039   6.046   9.974 -0.9222  0.5005 -0.4677
  229MOL0     H30905   6.818   6.116   9.911  0.8944  1.2740  0.4620
  229MOL0     H30906   6.941   6.245   9.947 -0.6404  0.4821 -3.2539
  229MOL0     H30907   6.837   6.299  10.149  0.8945  0.9282  0.7920
  229MOL0     H30908   6.742   6.150  10.169 -1.9796 -1.0512 -1.4591
  229MOL0     H30909   6.688   6.313   9.916 -0.5558  3.3995  0.4159
  229MOL0     H30910   6.576   6.218  10.026  0.1418  0.1127 -0.9699
  229MOL0     H30911   6.580   6.605  10.207 -1.7121  1.0477 -0.1299
  229MOL0     H30912   7.180   6.262  10.334  0.2276  0.1492  2.1477
  229MOL0     H30913   7.523   6.245  10.425 -0.5799 -1.3751 -2.6606
  229MOL0     H30914   7.364   6.312  10.473 -2.2460 -0.7161 -1.7150
  229MOL0     H30915   7.419   6.154  10.547 -1.3511  1.4504  0.6191
  230MOL0     O30916   5.922   8.719   9.101  0.1170 -1.2469 -0.1022
  230MOL0     C30917   5.902   8.618   9.048 -0.4264  0.4508  0.8036
  230MOL0     O30918   5.810   8.613   8.935  0.5874  0.2868 -0.4262
  230MOL0     C30919   5.724   8.720   8.906  0.3657 -0.2617  0.7980
  230MOL0     C30920   5.761   8.856   8.889 -0.4513 -0.3957  0.2574
  230MOL0     C30921   5.674   8.953   8.850  0.4349  0.1151  0.1379
  230MOL0     C30922   5.548   8.914   8.811  0.9121  0.1869  0.0909
  230MOL0     O30923   5.445   8.995   8.771  0.0957  0.6361  0.7003
  230MOL0     C30924   5.436   9.129   8.826 -0.0119  0.5907  0.6287
  230MOL0     C30925   5.341   9.212   8.735  0.1596  0.7851 -0.3685
  230MOL0     C30926   5.397   9.255   8.601 -0.5099  0.2714 -0.5462
  230MOL0     C30927   5.479   9.383   8.609  0.2512 -0.3142  0.5017
  230MOL0     C30928   5.546   9.417   8.475 -0.4161  0.0733 -0.2252
  230MOL0     C30929   5.456   9.484   8.372 -0.0540  0.8252 -0.7744
  230MOL0     C30930   5.535   9.517   8.243  0.2010 -0.1087  0.1746
  230MOL0     C30931   5.491   9.649   8.177 -0.0776  0.1196 -0.9053
  230MOL0     N30932   5.528   9.772   8.261  0.0311 -0.3152 -0.6308
  230MOL0     C30933   5.658   9.796   8.286 -0.5421 -0.0640  0.5051
  230MOL0     C30934   5.660   9.912   8.349  0.0187 -0.6154  0.3949
  230MOL0     C30935   5.781   9.978   8.418  0.8090 -0.2350  0.0514
  230MOL0     C30936   5.812   9.912   8.550 -0.6840 -0.2703 -0.3568
  230MOL0     C30937   5.869  10.000   8.656  0.5536  0.4973 -0.2792
  230MOL0     C30938   6.009  10.062   8.628  0.2066 -0.0676 -1.4878
  230MOL0     O30939   6.033  10.160   8.731  0.9624 -0.0909  0.3444
  230MOL0     C30940   6.157  10.149   8.786  0.5797 -0.4209  0.2696
  230MOL0     C30941   6.192  10.040   8.868 -0.7006 -0.8019 -0.7268
  230MOL0     C30942   6.320  10.026   8.906  0.9405 -0.3666 -0.9529
  230MOL0     C30943   6.416  10.129   8.890  0.5268 -0.5055  0.1856
  230MOL0     C30944   6.544  10.121   8.956 -0.2564 -0.1551 -0.4449
  230MOL0     O30945   6.584  10.006   9.017  0.4190 -0.6895 -0.0743
  230MOL0     C30946   6.721   9.971   9.010 -0.4336  0.7654  0.0584
  230MOL0     C30947   6.832  10.049   9.047 -0.1074 -0.7650 -0.0455
  230MOL0     C30948   6.968  10.003   9.028  0.1308 -0.1506 -1.2063
  230MOL0     C30949   6.991   9.875   8.980  0.8153  0.8254 -0.3824
  230MOL0     O30950   7.107   9.816   8.967 -0.3473  0.5308  0.0198
  230MOL0     C30951   7.228   9.877   9.010 -0.1521  1.1752  0.1238
  230MOL0     C30952   7.345   9.793   8.953  0.0568 -0.8246  0.1034
  230MOL0     C30953   7.373   9.656   9.016  0.5143  0.1059  0.7790
  230MOL0     C30954   7.444   9.574   8.906 -1.1748 -0.3685  0.4726
  230MOL0     C30955   7.540   9.475   8.972 -0.6589  0.6301  0.0156
  230MOL0     C30956   7.483   9.365   9.059  1.2922 -0.3503 -1.1527
  230MOL0     C30957   7.393   9.262   8.982  0.6279 -0.6151  1.0019
  230MOL0     C30958   7.330   9.150   9.062 -0.3766 -0.9237  0.2542
  230MOL0    Cl30959   7.451   9.061   9.163  0.4911 -0.3921  0.0735
  230MOL0     C30960   6.884   9.804   8.935  0.3063 -0.3096 -0.0727
  230MOL0     C30961   6.751   9.846   8.950  0.4578 -0.4775 -1.3916
  230MOL0     O30962   6.614  10.225   8.949  0.3234 -0.3546  0.0225
  230MOL0     C30963   6.383  10.241   8.819  0.3715  0.6489  0.9805
  230MOL0     C30964   6.251  10.249   8.771  0.0383 -0.4659 -0.1374
  230MOL0     N30965   5.535   9.960   8.351  0.6725 -0.4067 -0.2434
  230MOL0     N30966   5.451   9.870   8.317  0.1536  0.3698 -0.1196
  230MOL0     C30967   5.506   8.779   8.817  0.3086  0.5186  0.1825
  230MOL0     C30968   5.599   8.684   8.862  1.1959  0.2109 -0.0576
  230MOL0     C30969   5.978   8.490   9.077 -0.3563 -0.1622  0.3371
  230MOL0     C30970   5.950   8.378   8.996 -0.6287  0.1894  0.6992
  230MOL0     C30971   6.015   8.256   9.013 -0.1171  0.7660  0.7075
  230MOL0     C30972   6.131   8.252   9.098  0.3825 -0.3602 -0.1396
  230MOL0     O30973   6.214   8.142   9.089  0.8917  0.0323  0.5262
  230MOL0     C30974   6.355   8.167   9.089  0.3265 -0.0614 -0.2754
  230MOL0     C30975   6.418   8.039   9.032 -0.1056 -0.5536 -0.7056
  230MOL0     C30976   6.575   8.043   9.010 -0.1036 -0.0712 -0.6061
  230MOL0     C30977   6.602   8.137   8.893 -0.3873 -0.0417  0.5517
  230MOL0     C30978   6.741   8.132   8.847  1.0219 -1.0317  0.5612
  230MOL0     C30979   6.861   8.147   8.809 -0.4333 -0.0816 -0.5945
  230MOL0     C30980   6.157   8.358   9.180 -0.4844 -0.1744 -0.1355
  230MOL0     C30981   6.086   8.475   9.175 -0.0436 -0.1855  0.4801
  230MOL0     C30982   6.126   8.584   9.270  0.1788 -0.0407 -0.8369
  230MOL0     H30983   5.866   8.863   8.917 -0.2500 -0.0477 -0.5497
  230MOL0     H30984   5.703   9.058   8.849  0.1789  0.1897  0.3766
  230MOL0     H30985   5.390   9.120   8.925 -3.2047 -1.3047 -0.8871
  230MOL0     H30986   5.531   9.180   8.805 -0.3018  0.7020 -0.4785
  230MOL0     H30987   5.312   9.301   8.792  0.5395  0.4362  0.3887
  230MOL0     H30988   5.253   9.150   8.714  0.0293  1.1038 -0.7723
  230MOL0     H30989   5.309   9.272   8.538 -3.2201  0.7339  3.0473
  230MOL0     H30990   5.461   9.171   8.574  0.4904  1.2383 -1.3411
  230MOL0     H30991   5.421   9.475   8.626 -0.8070 -0.0656 -3.4667
  230MOL0     H30992   5.557   9.377   8.685  1.6428  0.1602 -0.8279
  230MOL0     H30993   5.630   9.479   8.508  2.4737 -2.9881 -1.2773
  230MOL0     H30994   5.584   9.323   8.434  0.0081 -0.2887  0.9581
  230MOL0     H30995   5.379   9.413   8.343 -1.8446  1.8637  1.2079
  230MOL0     H30996   5.419   9.578   8.415 -2.6647 -0.1022 -0.8332
  230MOL0     H30997   5.527   9.435   8.170 -1.0189  0.4998 -0.4202
  230MOL0     H30998   5.642   9.533   8.253  0.0141  1.1522  0.2625
  230MOL0     H30999   5.523   9.664   8.074 -0.3883 -0.5632 -1.1063
  230MOL0     H31000   5.383   9.632   8.173 -0.1378  0.0310  0.4700
  230MOL0     H31001   5.740   9.726   8.274 -0.8844 -0.5063  0.7225
  230MOL0     H31002   5.868   9.989   8.353 -1.6329  0.0182 -3.4581
  230MOL0     H31003   5.748  10.080   8.442 -0.7906  0.2179 -3.4763
  230MOL0     H31004   5.726   9.873   8.605 -0.7784 -0.8575 -0.9047
  230MOL0     H31005   5.882   9.829   8.540  1.4778  1.5703 -1.3884
  230MOL0     H31006   5.865   9.944   8.749 -0.0583  0.1117 -0.5309
  230MOL0     H31007   5.793  10.078   8.666 -2.4101 -1.6209 -3.7916
  230MOL0     H31008   6.003  10.115   8.533  0.8479  0.2468 -1.3613
  230MOL0     H31009   6.080   9.978   8.627  3.4168  2.4321 -3.0391
  230MOL0     H31010   6.116   9.965   8.889 -1.4751 -0.1316 -1.0549
  230MOL0     H31011   6.342   9.933   8.957  2.7217 -0.7668 -2.3264
  230MOL0     H31012   6.802  10.142   9.093  1.0812 -0.6745  0.5867
  230MOL0     H31013   7.046  10.066   9.070 -1.0239 -0.7129  2.1404
  230MOL0     H31014   7.244   9.978   8.972  2.2412  0.2849 -1.5080
  230MOL0     H31015   7.218   9.875   9.119 -2.1411 -1.4146 -0.0113
  230MOL0     H31016   7.311   9.766   8.853 -0.1343 -2.4453  0.5776
  230MOL0     H31017   7.442   9.845   8.951  0.6963 -1.7428  2.8960
  230MOL0     H31018   7.416   9.651   9.117 -0.6334  1.2282  1.3466
  230MOL0     H31019   7.274   9.612   9.030  0.6264  0.0915  1.5838
  230MOL0     H31020   7.500   9.635   8.835 -1.2604 -1.6663 -0.7675
  230MOL0     H31021   7.370   9.518   8.847 -1.0076 -2.1375  1.8478
  230MOL0     H31022   7.600   9.537   9.040  1.1385  1.5020 -2.2115
  230MOL0     H31023   7.613   9.424   8.909 -0.2136 -0.5307  1.4120
  230MOL0     H31024   7.565   9.317   9.111 -0.3398  1.5200  3.6976
  230MOL0     H31025   7.437   9.423   9.140  2.6011  0.0979 -0.7153
  230MOL0     H31026   7.458   9.222   8.903  2.1721  2.5160  0.5195
  230MOL0     H31027   7.309   9.300   8.923 -1.0612 -4.3484  0.7027
  230MOL0     H31028   7.262   9.201   9.132  0.9838  0.9771  0.2718
  230MOL0     H31029   7.280   9.081   8.993  1.0592  1.7719 -3.8826
  230MOL0     H31030   6.886   9.717   8.871 -0.6887  0.1578 -0.7672
  230MOL0     H31031   6.672   9.789   8.904  1.4104 -2.3811 -0.7659
  230MOL0     H31032   6.443  10.327   8.791  0.2849 -0.2479 -2.4729
  230MOL0     H31033   6.223  10.341   8.721 -0.8428 -0.4844  0.3057
  230MOL0     H31034   5.402   8.762   8.791  0.4851 -0.6470  0.2204
  230MOL0     H31035   5.571   8.585   8.895 -0.6913  1.2267  1.5985
  230MOL0     H31036   5.861   8.378   8.933  0.4648 -0.2666 -0.9249
  230MOL0     H31037   5.990   8.168   8.954  0.4281  0.9674  0.1720
  230MOL0     H31038   6.385   8.183   9.192 -0.9291  0.1768  0.0769
  230MOL0     H31039   6.388   8.250   9.026  1.5510 -0.2880  0.0614
  230MOL0     H31040   6.365   8.002   8.943 -1.9252 -0.6104  0.3431
  230MOL0     H31041   6.392   7.960   9.103  0.5855 -1.2027 -1.1512
  230MOL0     H31042   6.606   7.942   8.982  0.6671  0.2221 -0.8430
  230MOL0     H31043   6.631   8.097   9.087  3.6057  0.0355 -3.0956
  230MOL0     H31044   6.536   8.132   8.806  0.0582  3.8184 -0.1574
  230MOL0     H31045   6.578   8.237   8.929 -1.9178  0.4737 -1.7296
  230MOL0     H31046   6.963   8.173   8.786 -0.5874  1.1065 -0.0313
  230MOL0     H31047   6.242   8.355   9.248  1.2023 -1.4939 -2.1866
  230MOL0     H31048   6.139   8.539   9.369  1.9893  1.5867 -0.2605
  230MOL0     H31049   6.223   8.632   9.250  1.0835 -2.0318 -1.5669
  230MOL0     H31050   6.050   8.659   9.292  0.3226 -0.2139  0.3487
  231MOL0     O31051   3.599   2.522   6.880 -0.3947 -0.6019 -0.1608
  231MOL0     C31052   3.606   2.511   7.003  0.1982 -0.2470 -0.4913
  231MOL0     O31053   3.502   2.544   7.087 -0.0599 -0.5673 -0.1386
  231MOL0     C31054   3.384   2.579   7.026 -0.0135 -0.7079 -0.3116
  231MOL0     C31055   3.300   2.477   6.977 -0.4899 -0.2160 -0.1965
  231MOL0     C31056   3.178   2.527   6.929 -0.8852  0.3810 -0.7582
  231MOL0     C31057   3.144   2.662   6.922 -0.3908  0.6731  0.0115
  231MOL0     O31058   3.031   2.700   6.853  0.0571 -0.5962 -0.4005
  231MOL0     C31059   3.037   2.837   6.809 -0.0553 -0.3207  0.6853
  231MOL0     C31060   2.940   2.845   6.699  0.6878 -0.1896 -1.2442
  231MOL0     C31061   2.910   2.979   6.642 -0.5058  0.0477 -0.3743
  231MOL0     C31062   2.816   2.987   6.515 -0.5521 -0.2799  0.0383
  231MOL0     C31063   2.757   3.125   6.478 -0.6097 -0.1974  0.1174
  231MOL0     C31064   2.669   3.109   6.354  0.0838  0.4477 -0.1386
  231MOL0     C31065   2.614   3.229   6.308  0.3062 -0.4585  0.2416
  231MOL0     C31066   2.716   3.328   6.255 -0.3449  0.8961 -0.0681
  231MOL0     N31067   2.642   3.440   6.190  0.4075 -0.0075  0.7274
  231MOL0     C31068   2.621   3.437   6.056 -0.2799  0.1187  0.1833
  231MOL0     C31069   2.609   3.567   6.031  0.5254  0.0688  0.3819
  231MOL0     C31070   2.594   3.623   5.892 -0.1357 -0.6820  0.4158
  231MOL0     C31071   2.478   3.730   5.885  0.3049  1.5221 -0.5213
  231MOL0     C31072   2.398   3.718   5.763  0.0564  0.3609 -0.9628
  231MOL0     C31073   2.274   3.806   5.760 -0.9138  0.0330 -0.3407
  231MOL0     O31074   2.291   3.944   5.797 -0.5257  0.1502 -0.8540
  231MOL0     C31075   2.333   4.043   5.714  0.7725  0.1787  0.5148
  231MOL0     C31076   2.331   4.167   5.782  0.5892  1.6371  0.4126
  231MOL0     C31077   2.378   4.274   5.721  0.1680  0.4757 -0.3914
  231MOL0     C31078   2.417   4.275   5.588 -0.6709 -0.3684 -0.1874
  231MOL0     C31079   2.466   4.399   5.525  0.0554 -0.3508 -0.4324
  231MOL0     O31080   2.531   4.376   5.409  0.8916 -0.1531  0.7059
  231MOL0     C31081   2.633   4.448   5.360 -0.6064  0.5164  1.0527
  231MOL0     C31082   2.711   4.516   5.437 -0.0539 -0.1323 -0.1575
  231MOL0     C31083   2.831   4.573   5.380 -0.4720  0.2486  0.3821
  231MOL0     C31084   2.861   4.554   5.247  0.0580 -1.0116  1.3483
  231MOL0     O31085   2.973   4.605   5.177 -0.5989 -0.4004  0.4435
  231MOL0     C31086   3.005   4.739   5.200  0.4456 -0.1201 -0.6964
  231MOL0     C31087   3.113   4.774   5.100  0.0992 -0.1249  0.0426
  231MOL0     C31088   3.260   4.735   5.126 -0.3363  0.2320 -0.1765
  231MOL0     C31089   3.356   4.746   5.009 -0.1305 -0.6785  0.9594
  231MOL0     C31090   3.496   4.733   5.069  0.0808  0.8575 -0.1077
  231MOL0     C31091   3.602   4.721   4.962  0.6750 -0.7895 -0.6411
  231MOL0     C31092   3.639   4.854   4.894 -0.1867 -0.6349 -0.9496
  231MOL0     C31093   3.669   4.968   4.997 -0.0097  0.4617  0.5496
  231MOL0    Cl31094   3.749   5.104   4.926 -0.4228  0.1802 -0.3907
  231MOL0     C31095   2.768   4.487   5.165 -0.8055  0.8748 -0.3009
  231MOL0     C31096   2.666   4.416   5.222 -0.3500  0.1946  0.8648
  231MOL0     O31097   2.453   4.507   5.584 -1.0595  0.0125  1.0454
  231MOL0     C31098   2.417   4.155   5.518  0.1416  0.8380 -0.3481
  231MOL0     C31099   2.376   4.038   5.581 -0.1829 -0.6343  0.0925
  231MOL0     N31100   2.623   3.644   6.143  0.6952  0.2806 -0.5004
  231MOL0     N31101   2.636   3.565   6.254  0.8947  0.2986  0.5907
  231MOL0     C31102   3.234   2.757   6.979  0.7965 -0.0677  0.2174
  231MOL0     C31103   3.354   2.717   7.019  0.1097 -0.2483  1.0729
  231MOL0     C31104   3.729   2.461   7.078  0.2676  0.0074  0.5248
  231MOL0     C31105   3.726   2.483   7.219 -0.9795  0.3112 -0.5207
  231MOL0     C31106   3.833   2.450   7.301  0.4892  1.2414 -0.2063
  231MOL0     C31107   3.950   2.384   7.246  0.6001 -0.9257  0.1191
  231MOL0     O31108   4.039   2.321   7.328 -0.1726 -0.1053  0.2259
  231MOL0     C31109   4.042   2.332   7.468 -0.8214 -0.2425  0.0265
  231MOL0     C31110   3.990   2.202   7.526  0.7823 -0.1291  0.0578
  231MOL0     C31111   3.833   2.187   7.485 -0.1277  0.0447 -1.2234
  231MOL0     C31112   3.760   2.095   7.586  1.1489 -0.0778 -0.5519
  231MOL0     C31113   3.609   2.084   7.572 -0.0543  0.7836  0.4147
  231MOL0     C31114   3.487   2.086   7.574  0.3648  0.1533  0.6916
  231MOL0     C31115   3.938   2.349   7.113 -0.5400 -0.5543  0.4206
  231MOL0     C31116   3.841   2.393   7.022  0.7082 -0.5666  0.4357
  231MOL0     C31117   3.853   2.332   6.892 -0.4699  1.0622  0.4778
  231MOL0     H31118   3.313   2.369   6.976 -0.9539 -0.2717 -1.0546
  231MOL0     H31119   3.109   2.458   6.881  0.4656  1.5122 -4.7895
  231MOL0     H31120   3.011   2.910   6.886  2.5733  1.5368 -0.0269
  231MOL0     H31121   3.135   2.864   6.767 -0.6756  1.8251  0.4948
  231MOL0     H31122   2.849   2.802   6.741  1.5450 -1.5840 -0.7701
  231MOL0     H31123   2.979   2.787   6.615  1.2645 -0.1393 -1.0168
  231MOL0     H31124   3.007   3.023   6.616 -1.1066  0.8348 -1.3881
  231MOL0     H31125   2.864   3.035   6.724  0.4114  0.9972 -0.4799
  231MOL0     H31126   2.874   2.948   6.431 -0.2146 -2.9209  1.3964
  231MOL0     H31127   2.744   2.908   6.538 -2.0071  0.4521 -1.7883
  231MOL0     H31128   2.705   3.173   6.562 -1.8204 -0.3445 -0.5253
  231MOL0     H31129   2.831   3.196   6.441 -2.5180  0.9155 -1.8113
  231MOL0     H31130   2.732   3.067   6.276  1.2961  2.0269 -0.0631
  231MOL0     H31131   2.583   3.049   6.386 -3.1337  4.3047 -0.7565
  231MOL0     H31132   2.548   3.265   6.388  0.7128 -2.6663  1.6574
  231MOL0     H31133   2.552   3.207   6.220  0.6991  3.3108 -1.1596
  231MOL0     H31134   2.777   3.373   6.333 -1.4078 -1.8495  2.5404
  231MOL0     H31135   2.772   3.270   6.180  1.2906 -0.8943  2.3893
  231MOL0     H31136   2.621   3.349   5.993  0.4280  1.1094 -1.2673
  231MOL0     H31137   2.685   3.680   5.869 -0.9266  0.8098  0.8061
  231MOL0     H31138   2.588   3.546   5.814 -5.2797  0.5397 -0.8266
  231MOL0     H31139   2.414   3.720   5.974  3.4490 -0.9041  1.6582
  231MOL0     H31140   2.527   3.826   5.902 -0.1710  1.4304  1.7061
  231MOL0     H31141   2.362   3.615   5.759 -1.5540  0.9004 -0.9013
  231MOL0     H31142   2.465   3.730   5.677 -0.3032  0.4333 -1.2344
  231MOL0     H31143   2.188   3.777   5.821  0.5039  0.1441  1.8042
  231MOL0     H31144   2.250   3.805   5.653 -1.3840  2.2664 -0.2944
  231MOL0     H31145   2.301   4.166   5.886 -0.7114  0.3191  0.0523
  231MOL0     H31146   2.375   4.364   5.781 -2.5960  0.3810 -0.2868
  231MOL0     H31147   2.682   4.522   5.541  0.8127  2.0437  0.0026
  231MOL0     H31148   2.912   4.588   5.450  0.3120  0.4803 -0.5487
  231MOL0     H31149   2.918   4.800   5.174  0.2379  0.3443  0.9393
  231MOL0     H31150   3.029   4.755   5.306 -1.4544 -2.0108  0.0827
  231MOL0     H31151   3.077   4.724   5.010  1.0972 -0.8413  0.0243
  231MOL0     H31152   3.109   4.881   5.078  0.4334 -0.8097 -4.0034
  231MOL0     H31153   3.292   4.810   5.198  1.5896 -0.6982  0.0244
  231MOL0     H31154   3.262   4.643   5.184  2.6123  0.5655  0.4091
  231MOL0     H31155   3.362   4.845   4.962 -2.0186 -1.4062 -1.0033
  231MOL0     H31156   3.331   4.670   4.934 -3.0710  1.2605 -0.2168
  231MOL0     H31157   3.505   4.643   5.131  2.4285  1.7501  0.9650
  231MOL0     H31158   3.509   4.810   5.145 -4.5573  2.7261 -0.8986
  231MOL0     H31159   3.691   4.686   5.016  0.8958  0.8374  0.1095
  231MOL0     H31160   3.575   4.641   4.893  1.1280 -1.7872  0.3060
  231MOL0     H31161   3.559   4.879   4.823 -1.2004  1.0767  0.6940
  231MOL0     H31162   3.725   4.836   4.830  0.1460  2.4313 -1.4840
  231MOL0     H31163   3.575   5.015   5.027  1.2846  1.4308  3.4301
  231MOL0     H31164   3.711   4.937   5.094 -2.8964  0.7832  1.9920
  231MOL0     H31165   2.780   4.477   5.058 -0.4806  0.6341 -0.2448
  231MOL0     H31166   2.593   4.373   5.154 -0.6694  1.7368  0.1838
  231MOL0     H31167   2.447   4.143   5.414  0.1801 -1.3735 -0.1249
  231MOL0     H31168   2.382   3.937   5.541 -2.0422 -0.6533 -0.2245
  231MOL0     H31169   3.215   2.864   6.970 -2.0371 -0.2959  2.1362
  231MOL0     H31170   3.429   2.788   7.053 -0.3508  0.7185  0.1491
  231MOL0     H31171   3.644   2.527   7.275  0.3010  0.6035  1.2090
  231MOL0     H31172   3.820   2.472   7.406  0.0348 -2.4600  0.6668
  231MOL0     H31173   3.984   2.419   7.499 -2.0890 -0.9599 -0.2875
  231MOL0     H31174   4.145   2.339   7.506 -0.4423 -1.6147 -0.6907
  231MOL0     H31175   3.982   2.205   7.635 -2.6003 -3.3734  0.1003
  231MOL0     H31176   4.050   2.117   7.491  0.3631 -0.6227  0.5347
  231MOL0     H31177   3.840   2.132   7.392  3.6705  0.1198 -1.1145
  231MOL0     H31178   3.789   2.287   7.482 -0.7316 -0.1104  0.7645
  231MOL0     H31179   3.792   1.995   7.556 -4.3542 -1.6740 -2.2557
  231MOL0     H31180   3.790   2.131   7.685  1.5928 -0.7590 -0.4341
  231MOL0     H31181   3.383   2.107   7.583  0.1987 -1.2271  2.4457
  231MOL0     H31182   4.024   2.292   7.081 -0.1953  0.9751 -1.5404
  231MOL0     H31183   3.918   2.378   6.817  1.1725 -1.6829  0.0679
  231MOL0     H31184   3.897   2.234   6.914  0.1370  0.7037 -2.0427
  231MOL0     H31185   3.753   2.313   6.851 -0.1269 -1.0994  0.5098
  232MOL0     O31186   8.807  10.058   0.406  0.1256  0.4461 -0.5902
  232MOL0     C31187   8.849  10.133   0.324  0.0514 -0.3701 -0.4096
  232MOL0     O31188   8.965  10.210   0.337  0.2680 -0.0437 -0.4257
  232MOL0     C31189   9.045  10.184   0.442  0.1272  0.0955  0.0275
  232MOL0     C31190   9.181  10.155   0.413 -1.1865  0.7501  0.3339
  232MOL0     C31191   9.265  10.130   0.524  0.6475  0.0053 -0.6323
  232MOL0     C31192   9.211  10.118   0.650  0.6388  0.4829 -0.8762
  232MOL0     O31193   9.300  10.080   0.747 -0.1667 -0.1277  0.1042
  232MOL0     C31194   9.262  10.089   0.886  0.7983  0.5024 -0.8359
  232MOL0     C31195   9.385  10.049   0.982 -0.0364  0.1345 -0.4990
  232MOL0     C31196   9.516  10.107   0.947  0.0412  0.9552 -0.1582
  232MOL0     C31197   9.509  10.258   0.990 -0.2247 -0.2121  0.2684
  232MOL0     C31198   9.645  10.335   0.968 -1.2261 -0.0484  0.3164
  232MOL0     C31199   9.678  10.333   0.811  0.4588  0.5385  0.1626
  232MOL0     C31200   9.589  10.413   0.720 -0.2404 -0.5043 -0.4235
  232MOL0     C31201   9.548  10.335   0.594  0.5218 -0.0648 -1.0027
  232MOL0     N31202   9.650  10.328   0.492  0.4779 -0.0665  0.6179
  232MOL0     C31203   9.737  10.433   0.448  0.2639 -0.7532  0.3291
  232MOL0     C31204   9.824  10.375   0.364  0.3349  0.1288  0.9979
  232MOL0     C31205   9.952  10.418   0.295 -0.1265  0.0665  0.1684
  232MOL0     C31206  10.065  10.424   0.399  0.0095 -0.3817 -0.2917
  232MOL0     C31207  10.072  10.305   0.501 -0.3773  0.6533  0.2256
  232MOL0     C31208  10.205  10.300   0.580  0.0896  0.4021  0.3515
  232MOL0     O31209  10.297  10.236   0.495  0.1646  0.1785 -0.3604
  232MOL0     C31210  10.425  10.245   0.544 -0.1112  0.4255  0.4348
  232MOL0     C31211  10.520  10.322   0.472 -0.2902 -0.7615  0.0053
  232MOL0     C31212  10.653  10.339   0.535  0.9747  0.1141  0.2282
  232MOL0     C31213  10.683  10.275   0.650  0.1658  0.4982  0.4883
  232MOL0     C31214  10.812  10.303   0.719 -0.2880 -0.5226  0.2961
  232MOL0     O31215  10.902  10.372   0.648 -0.5816 -0.0433 -0.1855
  232MOL0     C31216  11.011  10.422   0.714  0.6857  0.6667  0.5015
  232MOL0     C31217  11.107  10.324   0.752  0.2823 -0.8120  0.2433
  232MOL0     C31218  11.214  10.365   0.840  0.2158 -0.7844  0.3513
  232MOL0     C31219  11.221  10.504   0.884  0.0130  1.1912  0.9548
  232MOL0     O31220  11.307  10.553   0.968 -0.0100 -0.0202  0.2778
  232MOL0     C31221  11.398  10.456   1.034 -0.5705  0.2985 -0.2956
  232MOL0     C31222  11.511  10.418   0.933 -0.4855  0.2848  0.2775
  232MOL0     C31223  11.644  10.478   0.969  0.2675 -0.9281  0.2612
  232MOL0     C31224  11.746  10.425   0.873 -1.0823 -0.5525 -0.4666
  232MOL0     C31225  11.895  10.459   0.912 -0.1196 -0.1159 -0.1130
  232MOL0     C31226  11.983  10.436   0.792 -0.9846 -0.2774  0.5675
  232MOL0     C31227  12.129  10.419   0.836 -0.0091  0.4900 -0.0185
  232MOL0     C31228  12.156  10.267   0.865  0.5274  0.6217  0.7307
  232MOL0    Cl31229  12.332  10.232   0.862 -0.4730  0.0706  0.3299
  232MOL0     C31230  11.127  10.594   0.841  0.5856  0.1087 -0.2441
  232MOL0     C31231  11.032  10.553   0.751 -0.1536 -0.7789 -0.7719
  232MOL0     O31232  10.822  10.278   0.840  0.2782 -0.5058  0.4358
  232MOL0     C31233  10.580  10.202   0.709 -0.8555 -0.3887 -0.3373
  232MOL0     C31234  10.456  10.178   0.655  0.5939 -0.6001 -0.0443
  232MOL0     N31235   9.800  10.235   0.362  0.2991 -0.4997  0.1308
  232MOL0     N31236   9.703  10.212   0.446 -0.3848  0.2302  0.0113
  232MOL0     C31237   9.079  10.137   0.675  0.2589  0.4216  0.1424
  232MOL0     C31238   8.994  10.172   0.575  0.4680 -0.6295  0.1638
  232MOL0     C31239   8.755  10.158   0.208 -0.5344 -0.9114 -0.3832
  232MOL0     C31240   8.807  10.253   0.118  0.7645  0.5091 -0.1321
  232MOL0     C31241   8.728  10.285   0.011  1.0214  0.1538  0.2714
  232MOL0     C31242   8.614  10.210  -0.030  0.8591 -0.5940  0.0564
  232MOL0     O31243   8.550  10.248  -0.144  0.1369  0.6599 -0.6813
  232MOL0     C31244   8.441  10.174  -0.197  0.1199  0.2524  0.6666
  232MOL0     C31245   8.426  10.223  -0.348  0.4472 -0.3046  0.3358
  232MOL0     C31246   8.296  10.159  -0.404 -0.2311 -0.3132 -0.2576
  232MOL0     C31247   8.306  10.026  -0.492  0.0585 -0.0891 -0.1845
  232MOL0     C31248   8.379   9.921  -0.415 -0.6087  0.1640  0.6572
  232MOL0     C31249   8.433   9.829  -0.362 -0.1047 -0.4895  0.6684
  232MOL0     C31250   8.564  10.109   0.064  0.2194  0.0150 -0.2190
  232MOL0     C31251   8.636  10.088   0.182  0.4930 -0.5204 -0.2087
  232MOL0     C31252   8.568   9.985   0.277  0.7158  0.4308  0.4443
  232MOL0     H31253   9.210  10.168   0.310 -0.2778  3.3952  0.8439
  232MOL0     H31254   9.369  10.104   0.508  1.1687  2.1553 -1.0525
  232MOL0     H31255   9.226  10.192   0.897 -1.1651 -0.2188  0.0168
  232MOL0     H31256   9.187  10.013   0.912  1.9291 -1.1477 -2.1752
  232MOL0     H31257   9.394   9.941   0.969  3.4191  0.3595 -0.8720
  232MOL0     H31258   9.360  10.065   1.087 -1.7846  0.5449 -0.9405
  232MOL0     H31259   9.536  10.087   0.842  1.5148  0.6030  0.1587
  232MOL0     H31260   9.583  10.056   1.017 -2.4942 -0.4753  1.4007
  232MOL0     H31261   9.434  10.310   0.930  1.0582  0.5996 -0.6906
  232MOL0     H31262   9.478  10.269   1.094 -1.2575 -1.0518  0.0681
  232MOL0     H31263   9.659  10.434   1.011  0.0102  0.7182 -1.6722
  232MOL0     H31264   9.721  10.273   1.017 -1.7661 -0.9002  0.1100
  232MOL0     H31265   9.780  10.367   0.795  0.4540 -0.5642 -2.9780
  232MOL0     H31266   9.680  10.227   0.786 -0.7083  0.3753  0.6970
  232MOL0     H31267   9.644  10.504   0.695 -0.2837 -0.2311  0.4453
  232MOL0     H31268   9.498  10.445   0.772  1.3659  0.9308  1.6819
  232MOL0     H31269   9.530  10.229   0.615  1.9094 -0.4137 -1.4669
  232MOL0     H31270   9.460  10.383   0.552  0.4269  0.8274  0.1839
  232MOL0     H31271   9.732  10.539   0.471  0.2688 -0.8435  0.7400
  232MOL0     H31272   9.981  10.345   0.218  2.1401 -0.8921  1.8087
  232MOL0     H31273   9.937  10.512   0.242 -3.9873 -0.2309  0.4756
  232MOL0     H31274  10.165  10.433   0.356  0.2258  1.7519  0.5456
  232MOL0     H31275  10.059  10.518   0.455 -1.1413 -0.1852 -0.7353
  232MOL0     H31276  10.066  10.212   0.443  0.9338  0.1449  0.8587
  232MOL0     H31277   9.983  10.306   0.564 -1.3970  0.3930 -1.1644
  232MOL0     H31278  10.198  10.239   0.670  0.7999  0.8979  0.7547
  232MOL0     H31279  10.224  10.404   0.607  1.9062  0.7150 -1.7745
  232MOL0     H31280  10.495  10.379   0.383 -1.1449 -2.3804 -0.8370
  232MOL0     H31281  10.734  10.390   0.486  0.4608 -1.6692 -2.7005
  232MOL0     H31282  11.091  10.219   0.730 -0.2317 -0.6380 -0.2314
  232MOL0     H31283  11.280  10.291   0.883 -1.1375 -0.7577  2.6595
  232MOL0     H31284  11.439  10.521   1.112  0.1897  0.4685 -0.8219
  232MOL0     H31285  11.356  10.381   1.103 -0.2264 -0.2519 -0.6755
  232MOL0     H31286  11.517  10.309   0.925  0.4566  0.3429  0.0973
  232MOL0     H31287  11.502  10.466   0.835 -2.6352 -1.8672 -0.7159
  232MOL0     H31288  11.639  10.585   0.945 -0.4574 -1.4042 -2.0155
  232MOL0     H31289  11.677  10.452   1.070  1.0857 -2.8789 -0.4541
  232MOL0     H31290  11.732  10.469   0.774 -0.7514  1.6420  0.4189
  232MOL0     H31291  11.726  10.317   0.871 -4.2016 -0.0753 -2.9564
  232MOL0     H31292  11.925  10.400   0.999  1.9682  0.2739 -0.5107
  232MOL0     H31293  11.898  10.561   0.949 -3.0013 -0.7046  2.0820
  232MOL0     H31294  11.945  10.354   0.731  0.3225  0.4457 -1.3252
  232MOL0     H31295  11.975  10.513   0.714  0.4086 -2.2154 -1.6392
  232MOL0     H31296  12.151  10.477   0.926  1.6194  0.4069 -0.3217
  232MOL0     H31297  12.195  10.454   0.756  0.2105  1.6472  0.6406
  232MOL0     H31298  12.128  10.249   0.969 -0.0550 -0.7122  0.3645
  232MOL0     H31299  12.094  10.204   0.800  2.8597 -0.0773 -0.9827
  232MOL0     H31300  11.129  10.693   0.886 -4.3713 -1.0021  3.2239
  232MOL0     H31301  10.966  10.636   0.724  1.4880 -0.1016 -3.0536
  232MOL0     H31302  10.607  10.159   0.804 -0.0961 -1.3792 -0.9820
  232MOL0     H31303  10.386  10.112   0.704  0.7246 -1.4386 -0.9588
  232MOL0     H31304   9.046  10.130   0.778 -0.0100  3.3293  0.3526
  232MOL0     H31305   8.890  10.190   0.596  1.0006  0.2231  2.3298
  232MOL0     H31306   8.907  10.295   0.131  0.4949  0.7427  1.3586
  232MOL0     H31307   8.761  10.363  -0.057 -1.4610 -0.2145 -1.4894
  232MOL0     H31308   8.351  10.185  -0.135  0.1966  0.0998  0.8036
  232MOL0     H31309   8.467  10.068  -0.197 -2.3532 -0.4885 -1.9915
  232MOL0     H31310   8.516  10.185  -0.396 -0.0222  1.5716 -2.2894
  232MOL0     H31311   8.406  10.331  -0.347 -0.7179 -0.5074  1.4239
  232MOL0     H31312   8.245  10.235  -0.464  0.2824  0.4236  0.2184
  232MOL0     H31313   8.240  10.123  -0.317  0.3543  0.4315  0.4488
  232MOL0     H31314   8.211   9.985  -0.527 -0.7636 -1.5269  3.3722
  232MOL0     H31315   8.352  10.048  -0.589  1.2604 -2.7882 -0.3423
  232MOL0     H31316   8.480   9.745  -0.314  0.4970 -0.8060 -0.4397
  232MOL0     H31317   8.468  10.063   0.043  0.3246 -0.0885 -0.4794
  232MOL0     H31318   8.479   9.935   0.238  1.7424 -1.8814  0.8697
  232MOL0     H31319   8.648   9.912   0.294  2.1175  1.6495 -0.6644
  232MOL0     H31320   8.551  10.029   0.376 -0.3411 -0.5215  0.7031
  233MOL0     O31321   5.339   3.258   0.455 -0.2212 -0.7848 -0.2766
  233MOL0     C31322   5.330   3.197   0.560 -0.7941  0.8050  0.0654
  233MOL0     O31323   5.409   3.092   0.597  0.8758 -0.1825 -0.2448
  233MOL0     C31324   5.493   3.038   0.505 -1.0036  0.3370 -0.5310
  233MOL0     C31325   5.449   2.971   0.390 -0.7827  0.1945 -0.1370
  233MOL0     C31326   5.548   2.902   0.320 -0.2041 -0.0988  0.3157
  233MOL0     C31327   5.684   2.904   0.351 -1.1950 -0.0464 -0.9598
  233MOL0     O31328   5.771   2.830   0.269 -0.2723 -0.2868 -0.3711
  233MOL0     C31329   5.902   2.877   0.249 -0.3373  0.3514 -0.1763
  233MOL0     C31330   5.980   2.770   0.173  0.5079 -0.0773  0.0637
  233MOL0     C31331   6.117   2.837   0.123 -0.3665 -0.0859 -0.2736
  233MOL0     C31332   6.091   2.931   0.000 -0.0931  0.2792  0.3949
  233MOL0     C31333   6.220   3.019  -0.030 -0.6102  0.2221 -1.2722
  233MOL0     C31334   6.227   3.055  -0.170  0.6734  0.3447  0.6048
  233MOL0     C31335   6.340   3.147  -0.210 -0.6919 -0.0168  0.3307
  233MOL0     C31336   6.296   3.289  -0.201 -0.7473  0.1971 -0.4941
  233MOL0     N31337   6.402   3.381  -0.239 -0.1221  0.1000 -0.3753
  233MOL0     C31338   6.518   3.396  -0.175  1.3347 -0.1991  0.6359
  233MOL0     C31339   6.577   3.514  -0.227 -0.5412  0.2024  0.4401
  233MOL0     C31340   6.712   3.550  -0.188  0.1245  0.5183  0.3607
  233MOL0     C31341   6.827   3.482  -0.263  0.2878  0.5170  0.6284
  233MOL0     C31342   6.970   3.511  -0.223 -0.3214  0.4212  0.0810
  233MOL0     C31343   7.065   3.443  -0.328  0.4142 -0.3816  0.2239
  233MOL0     O31344   7.065   3.517  -0.461  0.2617  0.5433 -0.0866
  233MOL0     C31345   7.163   3.474  -0.545 -0.5484 -0.2012 -0.4111
  233MOL0     C31346   7.278   3.549  -0.560  0.1593 -0.3687  0.7326
  233MOL0     C31347   7.369   3.501  -0.656 -0.3485 -1.1238 -0.6181
  233MOL0     C31348   7.345   3.397  -0.740 -0.0147  0.0977  1.0084
  233MOL0     C31349   7.436   3.366  -0.852  0.8635 -0.5956 -0.0520
  233MOL0     O31350   7.521   3.467  -0.887  0.7409 -0.5221  0.1938
  233MOL0     C31351   7.605   3.456  -0.989 -0.1377  0.0422 -0.7724
  233MOL0     C31352   7.707   3.359  -0.994  0.1361 -0.7285  0.3500
  233MOL0     C31353   7.794   3.356  -1.103  0.4738 -0.3922  0.8623
  233MOL0     C31354   7.780   3.441  -1.216 -0.4146  0.1699 -0.9886
  233MOL0     O31355   7.875   3.422  -1.316 -0.0852 -0.0533 -0.2782
  233MOL0     C31356   7.901   3.529  -1.411  0.6386  0.1345 -0.7429
  233MOL0     C31357   7.869   3.456  -1.549  0.2686  0.3005  0.0604
  233MOL0     C31358   7.983   3.354  -1.579 -0.0526  0.1606 -0.2814
  233MOL0     C31359   7.995   3.331  -1.729 -0.5690  0.2430  0.8064
  233MOL0     C31360   7.894   3.227  -1.787  0.1700  0.4180 -0.2349
  233MOL0     C31361   7.929   3.077  -1.764 -0.8569  0.2535  0.4929
  233MOL0     C31362   7.832   2.984  -1.842 -0.5915  1.0071 -0.2697
  233MOL0     C31363   7.860   2.999  -1.984 -0.0722 -0.0173  0.8692
  233MOL0    Cl31364   7.784   2.864  -2.076  0.2583 -0.0936  0.1515
  233MOL0     C31365   7.696   3.553  -1.200 -0.5920  0.1016 -0.5813
  233MOL0     C31366   7.605   3.561  -1.089  0.0934 -0.5996  0.0579
  233MOL0     O31367   7.413   3.263  -0.916 -0.2381  0.0215 -0.3503
  233MOL0     C31368   7.231   3.324  -0.716  1.1172 -0.0007  0.7757
  233MOL0     C31369   7.132   3.368  -0.628  0.9440 -0.0464 -0.0427
  233MOL0     N31370   6.499   3.553  -0.329  0.4856  0.8710 -0.1697
  233MOL0     N31371   6.390   3.483  -0.336  0.0607  0.3957 -0.6903
  233MOL0     C31372   5.727   2.968   0.470 -0.0057 -0.0131  0.5448
  233MOL0     C31373   5.630   3.033   0.549 -0.8705  0.4393 -0.8638
  233MOL0     C31374   5.248   3.258   0.665  0.5888  0.1990  0.6431
  233MOL0     C31375   5.236   3.397   0.663  0.3632  1.7447  0.7819
  233MOL0     C31376   5.167   3.462   0.763  0.1403  0.9110 -0.1280
  233MOL0     C31377   5.113   3.394   0.868  0.2574  0.5035 -0.3881
  233MOL0     O31378   5.050   3.443   0.982 -0.1471 -0.0643  0.0955
  233MOL0     C31379   4.959   3.551   0.960 -0.4357 -0.3005 -0.5578
  233MOL0     C31380   4.816   3.504   0.926 -0.4003  0.1266 -0.6321
  233MOL0     C31381   4.763   3.386   1.011 -0.4148  0.9196  0.2483
  233MOL0     C31382   4.776   3.414   1.165  0.7936  0.0500  0.2181
  233MOL0     C31383   4.711   3.543   1.185  0.8945 -0.6665 -0.7870
  233MOL0     C31384   4.642   3.644   1.185 -0.0728  0.8650 -0.2220
  233MOL0     C31385   5.121   3.254   0.873 -1.5422  0.0417  0.5216
  233MOL0     C31386   5.198   3.187   0.777 -1.0189  0.5552 -0.5368
  233MOL0     C31387   5.204   3.035   0.798 -0.0659  0.2419  0.6237
  233MOL0     H31388   5.342   2.970   0.372 -1.9225 -1.2403  5.0391
  233MOL0     H31389   5.523   2.851   0.227  2.3114  2.8239 -2.1948
  233MOL0     H31390   5.891   2.971   0.195 -1.0865 -0.7298 -2.0027
  233MOL0     H31391   5.956   2.896   0.342 -2.3473  0.1037  1.1155
  233MOL0     H31392   5.923   2.727   0.090  2.6313  0.0121 -1.5289
  233MOL0     H31393   6.005   2.682   0.233  0.6763 -0.7941 -1.0355
  233MOL0     H31394   6.179   2.748   0.108 -0.8952 -0.4802 -0.1567
  233MOL0     H31395   6.163   2.890   0.207  0.3837 -1.1439  0.0098
  233MOL0     H31396   6.075   2.872  -0.090 -2.8813 -3.0123  2.7540
  233MOL0     H31397   6.001   2.994  -0.002 -0.8552 -0.7562 -2.1103
  233MOL0     H31398   6.221   3.109   0.033  1.0212  0.1338 -1.1213
  233MOL0     H31399   6.308   2.962  -0.001 -1.7999 -0.7933  0.5685
  233MOL0     H31400   6.229   2.965  -0.232  2.9116  1.6488 -1.3830
  233MOL0     H31401   6.132   3.098  -0.203  0.8030  0.4223  0.3372
  233MOL0     H31402   6.355   3.135  -0.317 -4.5094  0.5246 -0.3818
  233MOL0     H31403   6.436   3.124  -0.161 -0.5536 -0.4349 -0.1211
  233MOL0     H31404   6.206   3.319  -0.255  0.2350  2.6049 -0.8907
  233MOL0     H31405   6.272   3.302  -0.095  1.1383 -0.3010  0.0475
  233MOL0     H31406   6.547   3.327  -0.096 -1.6877  0.3253  2.3907
  233MOL0     H31407   6.734   3.657  -0.193  1.7350  0.2873  1.7969
  233MOL0     H31408   6.716   3.530  -0.081 -1.0130  0.8409  0.4749
  233MOL0     H31409   6.813   3.374  -0.254 -0.9364  0.7251  1.4332
  233MOL0     H31410   6.815   3.495  -0.371 -0.4749 -3.0682  0.1582
  233MOL0     H31411   6.988   3.456  -0.130  2.3132  0.8260 -0.1003
  233MOL0     H31412   6.995   3.617  -0.223  1.2817  0.0767 -0.0341
  233MOL0     H31413   7.028   3.342  -0.347 -0.2460 -0.0999 -0.0371
  233MOL0     H31414   7.164   3.443  -0.282 -0.2898 -0.1664  1.8088
  233MOL0     H31415   7.293   3.639  -0.501 -0.7101 -1.1979  2.2828
  233MOL0     H31416   7.457   3.562  -0.669 -0.9101 -0.1195  0.1888
  233MOL0     H31417   7.695   3.285  -0.916  0.3471 -0.2116  0.8812
  233MOL0     H31418   7.866   3.276  -1.119  1.0098  0.6006 -2.3775
  233MOL0     H31419   7.838   3.618  -1.400 -0.1171 -0.2084 -2.0403
  233MOL0     H31420   8.004   3.565  -1.407  0.3536  0.8508  1.7198
  233MOL0     H31421   7.765   3.421  -1.543  0.0626  0.8450 -0.2183
  233MOL0     H31422   7.870   3.529  -1.630  0.7335 -0.7921 -0.9466
  233MOL0     H31423   8.079   3.389  -1.540  0.4646 -2.7338  1.3924
  233MOL0     H31424   7.970   3.261  -1.523 -4.7278  0.8638  0.1643
  233MOL0     H31425   8.096   3.290  -1.741 -0.5464  0.8203 -1.4892
  233MOL0     H31426   7.998   3.424  -1.788  3.0366  0.5496  1.2292
  233MOL0     H31427   7.877   3.245  -1.893 -1.1841  1.3639  0.1102
  233MOL0     H31428   7.795   3.245  -1.744  0.1615 -0.9887  0.3606
  233MOL0     H31429   8.031   3.052  -1.794 -0.7646  0.7162  0.4062
  233MOL0     H31430   7.911   3.052  -1.659 -2.4245  2.2370  0.7735
  233MOL0     H31431   7.728   3.003  -1.815 -0.6985  2.8002 -1.7000
  233MOL0     H31432   7.854   2.883  -1.809  1.7593  1.3820 -0.4769
  233MOL0     H31433   7.825   3.094  -2.026  0.0696  0.1169  1.0521
  233MOL0     H31434   7.968   2.998  -2.001 -0.0746  0.8991  0.7543
  233MOL0     H31435   7.692   3.628  -1.278  1.5222 -1.9570 -2.8695
  233MOL0     H31436   7.536   3.645  -1.083  1.1350  0.8772 -4.3165
  233MOL0     H31437   7.207   3.246  -0.788  2.6613 -0.3373  0.5932
  233MOL0     H31438   7.036   3.318  -0.628  0.3498  0.9428  2.2051
  233MOL0     H31439   5.826   2.955   0.510  0.0232 -2.3178 -0.1588
  233MOL0     H31440   5.680   3.079   0.634  0.9823 -4.1538  0.8074
  233MOL0     H31441   5.278   3.459   0.584  1.9287 -1.1816 -0.8386
  233MOL0     H31442   5.166   3.569   0.744  0.8646  1.0868  0.7771
  233MOL0     H31443   4.998   3.616   0.880  0.4206 -2.2962 -1.8373
  233MOL0     H31444   4.962   3.614   1.049 -1.4548  0.9704 -1.3848
  233MOL0     H31445   4.821   3.465   0.824  0.0975 -4.9452  1.0961
  233MOL0     H31446   4.753   3.593   0.924  1.2798  1.3721 -0.8417
  233MOL0     H31447   4.813   3.296   0.975  1.2276  0.7340  2.7318
  233MOL0     H31448   4.656   3.382   0.987 -0.5759  0.0081  1.0747
  233MOL0     H31449   4.739   3.330   1.224 -0.2853 -1.0105 -1.8591
  233MOL0     H31450   4.884   3.426   1.178  0.7447  0.1020  0.5945
  233MOL0     H31451   4.593   3.739   1.196 -0.6936  0.6438 -0.9626
  233MOL0     H31452   5.079   3.201   0.958  0.4844  0.5651  1.9094
  233MOL0     H31453   5.134   3.005   0.877 -0.9097 -0.8444 -0.5037
  233MOL0     H31454   5.170   2.974   0.715 -3.5816 -1.1317  2.8300
  233MOL0     H31455   5.307   3.004   0.816  0.7788  0.2687 -3.3541
  234MOL0     O31456   1.266   2.022   9.644  0.3671  0.6515 -0.0575
  234MOL0     C31457   1.241   2.088   9.746  0.2601  0.4694  0.1645
  234MOL0     O31458   1.132   2.169   9.774 -0.1135 -0.3012  1.0222
  234MOL0     C31459   1.054   2.222   9.673 -0.2015 -0.2678  0.3959
  234MOL0     C31460   0.931   2.272   9.707  1.0343 -0.9361  0.0479
  234MOL0     C31461   0.843   2.335   9.618  1.1216  0.1963 -0.2349
  234MOL0     C31462   0.878   2.344   9.481  0.1075 -0.3158 -0.7736
  234MOL0     O31463   0.807   2.414   9.387  0.5094 -0.6485 -0.2428
  234MOL0     C31464   0.681   2.466   9.432  0.5577  0.2354  0.0501
  234MOL0     C31465   0.631   2.566   9.324  0.6793 -1.1424  0.1824
  234MOL0     C31466   0.721   2.683   9.269 -0.4407  0.7280  0.0402
  234MOL0     C31467   0.831   2.636   9.181 -0.0839 -0.1114  0.2374
  234MOL0     C31468   0.911   2.754   9.121  0.1441 -0.2778 -0.1761
  234MOL0     C31469   1.058   2.721   9.091 -0.6288  2.0079 -0.4549
  234MOL0     C31470   1.130   2.842   9.030 -0.2531  0.2542 -0.3797
  234MOL0     C31471   1.269   2.796   8.984 -0.5127  0.1153  0.0272
  234MOL0     N31472   1.373   2.820   9.085 -0.5934  0.2172  0.4821
  234MOL0     C31473   1.432   2.710   9.160 -0.3637 -0.0851  0.8812
  234MOL0     C31474   1.512   2.776   9.249  0.4243 -0.3825  0.8050
  234MOL0     C31475   1.605   2.719   9.352  1.2161  0.1948 -0.0504
  234MOL0     C31476   1.528   2.726   9.493 -0.2658 -0.2177  0.9002
  234MOL0     C31477   1.576   2.631   9.600 -0.0374 -0.0029  0.9846
  234MOL0     C31478   1.720   2.650   9.618 -0.3231  1.2070  0.5520
  234MOL0     O31479   1.761   2.576   9.736 -0.5957  0.0631  0.4778
  234MOL0     C31480   1.892   2.570   9.765 -0.7532 -0.2600 -0.1403
  234MOL0     C31481   1.994   2.646   9.700 -0.2459 -0.2024 -0.0031
  234MOL0     C31482   2.122   2.638   9.747  0.8626  0.5953 -0.8787
  234MOL0     C31483   2.151   2.554   9.858 -0.3610  0.4835  0.2359
  234MOL0     C31484   2.294   2.545   9.910 -0.8737  0.6359  0.1719
  234MOL0     O31485   2.396   2.601   9.829  0.3072  0.0867  0.3568
  234MOL0     C31486   2.520   2.606   9.874  0.0174  0.4553  0.6734
  234MOL0     C31487   2.554   2.704   9.964  0.3819  0.0377 -0.7587
  234MOL0     C31488   2.688   2.725  10.005 -0.0163 -0.1051  0.6304
  234MOL0     C31489   2.790   2.641   9.960  0.3477  0.4373 -0.1848
  234MOL0     O31490   2.916   2.654  10.016  0.5225  0.2602 -0.0148
  234MOL0     C31491   3.013   2.542   9.989 -0.0602  0.2296  0.1480
  234MOL0     C31492   3.122   2.555  10.093 -0.7832 -0.7148 -0.4339
  234MOL0     C31493   3.209   2.430  10.093 -1.1804 -1.1654  0.0141
  234MOL0     C31494   3.289   2.417  10.219 -0.4554  0.4503  0.3417
  234MOL0     C31495   3.358   2.278  10.237 -0.2812 -0.0977  0.5545
  234MOL0     C31496   3.455   2.274  10.367 -0.2848  0.2715 -0.3255
  234MOL0     C31497   3.594   2.335  10.344 -0.5300 -0.7491  0.3080
  234MOL0     C31498   3.672   2.325  10.478  0.3697 -0.4674 -0.8075
  234MOL0    Cl31499   3.623   2.466  10.588  0.0479 -0.4438 -0.0515
  234MOL0     C31500   2.754   2.537   9.875 -0.5881  1.0341  0.2517
  234MOL0     C31501   2.624   2.520   9.839 -0.8636 -0.0438  0.0869
  234MOL0     O31502   2.319   2.489  10.018  0.6535  0.1754 -0.3348
  234MOL0     C31503   2.052   2.483   9.922  0.0831 -0.2198 -0.4155
  234MOL0     C31504   1.921   2.499   9.885  0.4508  0.1122  0.4003
  234MOL0     N31505   1.490   2.914   9.231 -0.2556 -0.7123  0.0460
  234MOL0     N31506   1.399   2.942   9.144  0.1736 -1.0944  0.4953
  234MOL0     C31507   0.998   2.289   9.439 -0.1127 -0.4719  0.1395
  234MOL0     C31508   1.088   2.231   9.533  0.0942 -0.9475 -0.0501
  234MOL0     C31509   1.343   2.047   9.854 -0.0480 -1.1690 -0.4234
  234MOL0     C31510   1.434   1.949   9.825 -0.3054  0.0739 -0.9527
  234MOL0     C31511   1.536   1.914   9.912  0.6829 -0.2288 -0.3534
  234MOL0     C31512   1.541   1.967  10.041  0.6934 -0.9334 -1.0161
  234MOL0     O31513   1.614   1.900  10.139 -0.2147 -0.7905  0.6143
  234MOL0     C31514   1.744   1.960  10.173  0.1833 -0.0730 -0.2399
  234MOL0     C31515   1.749   2.003  10.321 -0.2510  0.6086 -0.2247
  234MOL0     C31516   1.878   2.069  10.350  0.0821 -0.6321 -0.2636
  234MOL0     C31517   1.886   2.108  10.501 -0.0421  0.1603  0.2617
  234MOL0     C31518   1.942   2.003  10.578  0.1260  0.4254  0.0960
  234MOL0     C31519   1.995   1.922  10.637  0.2246  1.0268 -0.4893
  234MOL0     C31520   1.447   2.059  10.077  0.1507 -0.0125  0.0172
  234MOL0     C31521   1.350   2.106   9.986  0.1782  0.3344  0.9164
  234MOL0     C31522   1.264   2.211  10.034  0.1011 -0.3144 -0.0381
  234MOL0     H31523   0.914   2.269   9.814 -0.7796 -3.3657 -0.2078
  234MOL0     H31524   0.755   2.376   9.665  0.0457 -0.8216 -1.2826
  234MOL0     H31525   0.604   2.388   9.436  2.2700 -1.7064 -1.9022
  234MOL0     H31526   0.684   2.519   9.527 -0.9536 -0.6856  0.6497
  234MOL0     H31527   0.544   2.616   9.368  2.4916 -1.3905  4.5408
  234MOL0     H31528   0.589   2.521   9.233  0.8374  2.9998 -2.1790
  234MOL0     H31529   0.761   2.737   9.355 -1.6445  3.8440 -1.1893
  234MOL0     H31530   0.656   2.755   9.219  0.5633  0.9648 -0.9676
  234MOL0     H31531   0.897   2.576   9.243  1.3133  1.1671  0.0559
  234MOL0     H31532   0.785   2.591   9.092 -2.9253  2.0416  0.4371
  234MOL0     H31533   0.870   2.784   9.024  2.8430  0.8745 -1.0541
  234MOL0     H31534   0.899   2.837   9.191 -1.1732 -1.2319  0.7697
  234MOL0     H31535   1.111   2.693   9.182  0.4922 -0.0736 -1.6867
  234MOL0     H31536   1.071   2.628   9.035  0.3312 -0.1855  3.1495
  234MOL0     H31537   1.146   2.927   9.097  2.1058  0.9679 -1.7257
  234MOL0     H31538   1.078   2.889   8.947 -5.1893 -1.1258  1.5609
  234MOL0     H31539   1.259   2.699   8.934 -0.9768  0.2148 -0.0733
  234MOL0     H31540   1.286   2.856   8.894 -3.6341 -0.2043 -0.8764
  234MOL0     H31541   1.426   2.605   9.137 -0.6615 -0.2820  1.8189
  234MOL0     H31542   1.627   2.616   9.321  0.8131  0.0048  0.2870
  234MOL0     H31543   1.698   2.777   9.349  0.4543  1.5322  0.8822
  234MOL0     H31544   1.518   2.829   9.530  2.0920  0.2652  0.3529
  234MOL0     H31545   1.429   2.689   9.465 -0.7686  1.2896  0.6083
  234MOL0     H31546   1.553   2.525   9.583 -1.3098 -0.3804  4.3571
  234MOL0     H31547   1.527   2.654   9.695 -0.3801  0.7958  0.6272
  234MOL0     H31548   1.744   2.757   9.623  4.4666  0.8207 -4.2185
  234MOL0     H31549   1.780   2.619   9.532 -2.1317  1.5888 -0.8894
  234MOL0     H31550   1.977   2.706   9.611  0.8341 -0.9247 -0.7242
  234MOL0     H31551   2.205   2.693   9.704  0.9233  0.3067 -1.1391
  234MOL0     H31552   2.468   2.759  10.001 -1.7779 -3.1081 -0.6985
  234MOL0     H31553   2.715   2.784  10.092  1.1427 -0.3449  0.4544
  234MOL0     H31554   2.962   2.446  10.002 -1.0356  0.8205  0.9251
  234MOL0     H31555   3.053   2.541   9.887 -1.4440 -0.8058 -0.4118
  234MOL0     H31556   3.189   2.640  10.076 -0.9835 -0.2790  0.7871
  234MOL0     H31557   3.077   2.570  10.192  3.9689  0.3191  1.8910
  234MOL0     H31558   3.141   2.345  10.087 -1.7774 -0.7539  0.8356
  234MOL0     H31559   3.274   2.437  10.005  1.1935 -1.0034  1.6613
  234MOL0     H31560   3.219   2.439  10.300  1.2802 -1.3911  2.4628
  234MOL0     H31561   3.362   2.498  10.224 -0.7201  0.8892 -1.8236
  234MOL0     H31562   3.415   2.250  10.148 -0.0281  0.9104  0.3854
  234MOL0     H31563   3.273   2.211  10.255 -2.5153  2.6672  1.0867
  234MOL0     H31564   3.405   2.325  10.449 -0.1011  2.0691 -1.2758
  234MOL0     H31565   3.476   2.167  10.379  0.1628  0.4786  0.8348
  234MOL0     H31566   3.591   2.440  10.313 -0.8707 -0.5247  1.0640
  234MOL0     H31567   3.654   2.286  10.267 -1.1220 -1.3745  0.2307
  234MOL0     H31568   3.652   2.226  10.519 -3.5965  1.4962  2.7395
  234MOL0     H31569   3.780   2.335  10.459  1.0355  1.4022  3.0631
  234MOL0     H31570   2.829   2.479   9.823 -0.9167 -1.7688  2.6425
  234MOL0     H31571   2.604   2.448   9.761 -0.6347 -1.1136  0.9906
  234MOL0     H31572   2.071   2.413  10.003 -1.7901  0.6038  0.8022
  234MOL0     H31573   1.832   2.465   9.936  0.0578 -0.0296 -0.3810
  234MOL0     H31574   1.011   2.287   9.332 -0.3210  0.3035  0.0878
  234MOL0     H31575   1.176   2.184   9.492 -0.9438 -0.9898 -2.4010
  234MOL0     H31576   1.440   1.892   9.733  0.7341 -2.0471  0.3682
  234MOL0     H31577   1.590   1.821   9.898  1.8387  0.3323  0.2349
  234MOL0     H31578   1.764   2.049  10.113 -0.4192  1.8321  2.1957
  234MOL0     H31579   1.825   1.886  10.168  1.0536  0.9171 -1.4493
  234MOL0     H31580   1.729   1.917  10.386  1.4252 -1.2955 -2.0507
  234MOL0     H31581   1.678   2.085  10.334  0.7583  1.4460  0.1653
  234MOL0     H31582   1.899   2.157  10.289  1.2461 -1.4007 -1.0265
  234MOL0     H31583   1.962   2.004  10.325 -1.1184 -2.2711 -0.2225
  234MOL0     H31584   1.948   2.197  10.515  0.5869 -0.3338  0.6926
  234MOL0     H31585   1.789   2.140  10.540  0.1162  1.1730 -0.1376
  234MOL0     H31586   2.037   1.837  10.689 -0.7584  1.2251  0.6919
  234MOL0     H31587   1.450   2.088  10.181 -1.7744  0.6128 -0.0532
  234MOL0     H31588   1.270   2.300   9.970  0.4761  0.8564  1.5666
  234MOL0     H31589   1.164   2.168  10.025 -0.2277 -0.5893  3.5783
  234MOL0     H31590   1.277   2.236  10.139  1.4078  2.8734 -0.8453
  235MOL0     O31591   3.801   6.463   9.935  0.7316  0.1267  1.0316
  235MOL0     C31592   3.782   6.546   9.840  0.4108  0.0434  0.1227
  235MOL0     O31593   3.879   6.580   9.747  0.8708  0.0539  0.1929
  235MOL0     C31594   4.012   6.549   9.766  0.4634  0.0340  0.3564
  235MOL0     C31595   4.053   6.415   9.755  1.0914  0.2288  0.4784
  235MOL0     C31596   4.186   6.375   9.771 -0.4796  1.2198 -0.3537
  235MOL0     C31597   4.291   6.464   9.808 -0.1016  0.2965 -0.1236
  235MOL0     O31598   4.424   6.438   9.811  0.0639  0.4679  0.4605
  235MOL0     C31599   4.453   6.357   9.915 -0.2001  0.2875 -0.8173
  235MOL0     C31600   4.516   6.416  10.037 -0.5103  1.1211  0.2847
  235MOL0     C31601   4.542   6.313  10.148 -0.2237  0.0851 -0.2648
  235MOL0     C31602   4.618   6.362  10.271  0.2039  0.2048  0.5434
  235MOL0     C31603   4.767   6.408  10.257  1.2903 -0.0443 -0.4321
  235MOL0     C31604   4.806   6.492  10.383 -0.4465  0.9326  0.0523
  235MOL0     C31605   4.775   6.641  10.361 -0.1799 -0.4978  0.1418
  235MOL0     C31606   4.815   6.715  10.494 -0.4270  0.6987 -0.0192
  235MOL0     N31607   4.953   6.715  10.517  0.2635 -0.1576 -0.9880
  235MOL0     C31608   5.045   6.808  10.481  0.1383 -0.1532  1.0338
  235MOL0     C31609   5.157   6.779  10.544 -0.3184 -0.2381 -0.5801
  235MOL0     C31610   5.274   6.862  10.539  0.3804 -0.4489  0.5807
  235MOL0     C31611   5.246   6.989  10.608  0.0071  0.8150  0.3305
  235MOL0     C31612   5.380   7.036  10.663 -0.7081 -0.3928  0.3694
  235MOL0     C31613   5.396   6.991  10.807  0.0090 -0.2962 -0.4227
  235MOL0     O31614   5.515   7.052  10.849 -0.0783 -0.1987 -0.9130
  235MOL0     C31615   5.641   7.012  10.831 -0.3918 -0.0415 -0.7678
  235MOL0     C31616   5.675   6.883  10.785 -0.0116 -0.4715  0.0564
  235MOL0     C31617   5.816   6.847  10.771  1.4190 -0.6085  0.1767
  235MOL0     C31618   5.924   6.935  10.815 -0.4074 -0.1918  0.3313
  235MOL0     C31619   6.078   6.902  10.798  1.0950  1.0678 -0.1037
  235MOL0     O31620   6.168   6.999  10.810  0.0413  0.0994  0.0783
  235MOL0     C31621   6.302   6.965  10.814  0.5420  0.1139 -0.1942
  235MOL0     C31622   6.385   7.013  10.911  0.3289 -1.3906 -0.5168
  235MOL0     C31623   6.516   6.994  10.912 -0.2136  0.7234  0.5982
  235MOL0     C31624   6.573   6.923  10.804  0.6334  0.1381 -0.1109
  235MOL0     O31625   6.705   6.910  10.776  0.9763 -0.2299 -0.4377
  235MOL0     C31626   6.790   6.926  10.889 -0.0695 -0.5781 -0.0644
  235MOL0     C31627   6.924   6.852  10.850  0.2115  0.6704  0.3608
  235MOL0     C31628   7.027   6.849  10.972 -0.4489  0.5396  0.9565
  235MOL0     C31629   7.161   6.786  10.938 -0.3435 -0.3757 -0.0115
  235MOL0     C31630   7.260   6.876  10.855  0.2816 -0.1474  0.0572
  235MOL0     C31631   7.390   6.802  10.827 -0.3625  0.6262 -0.0496
  235MOL0     C31632   7.381   6.730  10.694  0.1001  0.2056 -0.8606
  235MOL0     C31633   7.511   6.642  10.686  0.2172 -0.1152  1.0452
  235MOL0    Cl31634   7.525   6.525  10.801 -0.0839  0.0197  0.0614
  235MOL0     C31635   6.496   6.890  10.691 -0.3775 -0.1908  0.1732
  235MOL0     C31636   6.355   6.911  10.698 -0.1196  0.1365  0.5541
  235MOL0     O31637   6.094   6.780  10.798  0.1262 -0.3025 -0.5236
  235MOL0     C31638   5.881   7.050  10.874 -0.1262 -0.0012  0.0644
  235MOL0     C31639   5.740   7.090  10.882  0.8130  0.1525  0.9653
  235MOL0     N31640   5.143   6.666  10.615  0.5065 -0.9045  0.5016
  235MOL0     N31641   5.022   6.625  10.594 -0.0041  0.5049 -0.0789
  235MOL0     C31642   4.251   6.597   9.821 -0.1293  0.1616  0.2983
  235MOL0     C31643   4.112   6.646   9.792  0.9418  0.4921  0.4912
  235MOL0     C31644   3.639   6.584   9.815 -0.8570 -0.3784  0.0491
  235MOL0     C31645   3.536   6.492   9.843  0.5470 -0.3161 -0.4926
  235MOL0     C31646   3.406   6.547   9.860  0.8658 -0.5969  0.7484
  235MOL0     C31647   3.365   6.670   9.804 -0.5850 -0.5411 -1.2711
  235MOL0     O31648   3.240   6.724   9.791  0.6189 -0.3472  0.2543
  235MOL0     C31649   3.141   6.627   9.788 -0.6395 -0.0263 -0.5405
  235MOL0     C31650   3.022   6.708   9.774 -1.0847  1.2546 -0.2636
  235MOL0     C31651   2.912   6.611   9.788 -0.2788 -0.0212 -0.0241
  235MOL0     C31652   2.818   6.621   9.662  0.2132 -0.3015  0.3582
  235MOL0     C31653   2.723   6.520   9.649  0.2630 -0.2177  0.9945
  235MOL0     C31654   2.636   6.432   9.651 -0.1603 -0.4250  0.3424
  235MOL0     C31655   3.472   6.743   9.754  0.1131  0.1516 -0.2569
  235MOL0     C31656   3.609   6.706   9.766  0.5650 -0.1719  0.5883
  235MOL0     C31657   3.700   6.813   9.715  0.5991  0.6857  0.5953
  235MOL0     H31658   3.982   6.335   9.735  0.1407  1.0273  0.6058
  235MOL0     H31659   4.215   6.270   9.769  0.4708  1.4778 -2.0207
  235MOL0     H31660   4.383   6.286   9.961  0.6273  0.4875  0.8381
  235MOL0     H31661   4.530   6.292   9.871  0.4317  2.2379 -2.7718
  235MOL0     H31662   4.439   6.485  10.074 -2.2946 -0.9987  0.7495
  235MOL0     H31663   4.606   6.476  10.019  0.1032 -0.0868 -0.7369
  235MOL0     H31664   4.586   6.227  10.096 -2.2532 -0.2307 -1.5893
  235MOL0     H31665   4.443   6.279  10.180 -1.2810 -0.8622 -4.0492
  235MOL0     H31666   4.570   6.449  10.316  2.0943  0.4908  2.1946
  235MOL0     H31667   4.611   6.282  10.345  0.2485  0.6391  1.0253
  235MOL0     H31668   4.828   6.317  10.253 -0.1912 -1.1757 -6.2146
  235MOL0     H31669   4.787   6.462  10.165 -0.2786 -1.0600 -1.4177
  235MOL0     H31670   4.763   6.453  10.476  0.6408  0.4509  0.3757
  235MOL0     H31671   4.915   6.489  10.388 -0.1961  0.5941 -3.4353
  235MOL0     H31672   4.667   6.658  10.349 -0.1107 -0.8155 -1.0455
  235MOL0     H31673   4.837   6.685  10.283  0.4875 -1.2399  0.2405
  235MOL0     H31674   4.786   6.821  10.500 -0.2569  0.6673  2.1172
  235MOL0     H31675   4.751   6.672  10.572 -0.0679  0.7295  0.2984
  235MOL0     H31676   5.025   6.886  10.408  1.1446 -1.3026 -0.5184
  235MOL0     H31677   5.348   6.804  10.595 -0.4143  0.4729  2.6812
  235MOL0     H31678   5.313   6.887  10.440  1.3263  2.5967  1.6050
  235MOL0     H31679   5.218   7.056  10.527 -0.2941 -0.0359 -0.2880
  235MOL0     H31680   5.166   6.971  10.680 -2.2520  1.9129 -1.7595
  235MOL0     H31681   5.389   7.144  10.656  0.9799 -0.5957 -1.8096
  235MOL0     H31682   5.452   6.995  10.592 -1.8994 -1.5492 -0.2161
  235MOL0     H31683   5.395   6.881  10.806 -1.0996 -0.3070 -1.8854
  235MOL0     H31684   5.309   7.032  10.859  0.3450  0.7092 -0.6319
  235MOL0     H31685   5.597   6.812  10.758  2.0881 -2.9106 -0.0032
  235MOL0     H31686   5.842   6.753  10.723 -0.5226  0.7409 -4.0419
  235MOL0     H31687   6.346   7.079  10.988  0.3627  0.4737 -2.0440
  235MOL0     H31688   6.584   7.025  10.991  0.2015 -1.6624  1.2581
  235MOL0     H31689   6.815   7.028  10.919 -0.3758 -0.2148 -1.0127
  235MOL0     H31690   6.745   6.884  10.979 -1.5157  0.9982 -0.0133
  235MOL0     H31691   6.892   6.748  10.837 -1.1584  1.2534 -1.3368
  235MOL0     H31692   6.975   6.892  10.762  0.6084  3.7884  1.8829
  235MOL0     H31693   7.055   6.951  10.999 -0.5373  0.5957  0.8356
  235MOL0     H31694   6.981   6.802  11.060 -0.1855  1.6200  1.7047
  235MOL0     H31695   7.156   6.685  10.897 -1.1551 -1.3028  2.2556
  235MOL0     H31696   7.216   6.768  11.031  1.8435  0.2814 -1.0979
  235MOL0     H31697   7.278   6.969  10.909 -0.1969  1.2696 -2.0967
  235MOL0     H31698   7.206   6.916  10.769 -1.3548 -2.9257 -0.3239
  235MOL0     H31699   7.472   6.871  10.803  0.4212  0.0424  0.9086
  235MOL0     H31700   7.422   6.735  10.907 -1.6800 -1.1254 -0.9171
  235MOL0     H31701   7.383   6.813  10.623  0.1784  1.9941  1.1228
  235MOL0     H31702   7.292   6.667  10.683  0.1696  0.1222 -0.9441
  235MOL0     H31703   7.509   6.583  10.594 -2.5473 -1.3573  1.7757
  235MOL0     H31704   7.602   6.703  10.683  0.4322 -0.4786 -0.0530
  235MOL0     H31705   6.536   6.850  10.598  1.8651  0.0838  0.9723
  235MOL0     H31706   6.283   6.890  10.620  0.3055 -0.0019  0.1964
  235MOL0     H31707   5.953   7.122  10.914 -0.3027 -0.1382  0.6373
  235MOL0     H31708   5.711   7.189  10.917 -1.3856 -0.0715 -0.0627
  235MOL0     H31709   4.326   6.667   9.857 -1.4617  0.9063  1.8262
  235MOL0     H31710   4.082   6.749   9.809 -1.2294 -0.0237  0.0823
  235MOL0     H31711   3.559   6.391   9.876 -0.4662 -1.5953 -3.3950
  235MOL0     H31712   3.333   6.487   9.913 -0.9268 -0.1897 -1.1056
  235MOL0     H31713   3.139   6.571   9.882 -1.0961  1.3477  0.3030
  235MOL0     H31714   3.145   6.560   9.702 -1.1118  0.2774 -0.8043
  235MOL0     H31715   3.028   6.769   9.683  1.0959  0.0007 -1.0383
  235MOL0     H31716   3.017   6.783   9.853  1.1577  1.7176 -0.4824
  235MOL0     H31717   2.857   6.635   9.880 -0.1344  1.1999 -0.2367
  235MOL0     H31718   2.952   6.509   9.793  1.2765  0.6003  0.8007
  235MOL0     H31719   2.754   6.709   9.669 -0.7988 -0.9010 -0.8958
  235MOL0     H31720   2.881   6.619   9.573  1.1873 -2.2469  1.0452
  235MOL0     H31721   2.553   6.364   9.656 -2.8813  2.6383  0.2276
  235MOL0     H31722   3.453   6.835   9.702  1.8192 -0.8905 -2.8925
  235MOL0     H31723   3.642   6.887   9.659  1.2897  1.2601  0.6221
  235MOL0     H31724   3.741   6.860   9.805  0.6716 -2.0175  2.0620
  235MOL0     H31725   3.787   6.781   9.658  0.6182  2.0051 -0.1699
  236MOL0     O31726   5.633   7.635   5.032  0.6311  0.0615  0.7636
  236MOL0     C31727   5.566   7.636   5.136 -0.7660 -0.4724 -0.3727
  236MOL0     O31728   5.612   7.626   5.264  0.3160 -0.0529 -0.3835
  236MOL0     C31729   5.749   7.617   5.281 -0.6321  0.1581  0.2509
  236MOL0     C31730   5.820   7.723   5.351  0.1111 -0.3184 -0.2460
  236MOL0     C31731   5.956   7.723   5.382  0.4592  1.0201 -0.4815
  236MOL0     C31732   6.028   7.612   5.344 -1.0636 -0.0683  0.3998
  236MOL0     O31733   6.166   7.617   5.382  0.6360 -0.2986  0.1479
  236MOL0     C31734   6.237   7.499   5.393  0.4130  0.6178  0.1659
  236MOL0     C31735   6.318   7.487   5.266  0.4037 -0.2707  0.4494
  236MOL0     C31736   6.389   7.350   5.273  0.4492 -0.2538 -0.4630
  236MOL0     C31737   6.475   7.320   5.151  0.4006  0.1159  1.0872
  236MOL0     C31738   6.384   7.273   5.028 -0.6209 -0.4466  0.1773
  236MOL0     C31739   6.352   7.125   5.030 -0.2030 -0.0228 -0.6132
  236MOL0     C31740   6.283   7.085   4.895 -0.0704  0.0509 -0.5391
  236MOL0     C31741   6.148   7.146   4.893 -0.3296 -0.6470 -0.3059
  236MOL0     N31742   6.073   7.105   5.011  0.3760 -0.6971  0.3817
  236MOL0     C31743   6.027   6.980   5.027  1.1605 -0.9383  0.6036
  236MOL0     C31744   5.943   6.996   5.141 -0.7492  0.5865 -0.5129
  236MOL0     C31745   5.860   6.881   5.195 -0.1223  0.5327  0.7444
  236MOL0     C31746   5.919   6.831   5.329 -0.2916 -0.7469 -0.1936
  236MOL0     C31747   6.057   6.751   5.308  0.1496  0.1960  0.3239
  236MOL0     C31748   6.120   6.699   5.442 -0.3998  0.1438  0.3369
  236MOL0     O31749   6.233   6.613   5.420  0.5060 -0.1145 -0.4532
  236MOL0     C31750   6.357   6.657   5.381 -0.0676 -0.0019 -0.5102
  236MOL0     C31751   6.386   6.784   5.332  0.2833  0.5824  0.0475
  236MOL0     C31752   6.517   6.808   5.286 -0.1810 -0.2642 -0.2315
  236MOL0     C31753   6.617   6.709   5.264 -1.2787 -0.6135  0.0928
  236MOL0     C31754   6.752   6.750   5.223  0.2458  0.7592 -0.5955
  236MOL0     O31755   6.849   6.663   5.254 -0.3121  0.1606  0.9109
  236MOL0     C31756   6.983   6.691   5.235 -0.9235 -0.2604 -0.2112
  236MOL0     C31757   7.070   6.575   5.211 -0.3212 -0.6006  0.7365
  236MOL0     C31758   7.206   6.593   5.165 -0.7531 -0.2202 -1.6249
  236MOL0     C31759   7.253   6.725   5.150 -0.1451  1.1978  0.6063
  236MOL0     O31760   7.394   6.738   5.113  0.1413  1.1340 -0.1755
  236MOL0     C31761   7.465   6.847   5.177 -0.7152 -0.5147 -0.3454
  236MOL0     C31762   7.618   6.818   5.173  0.3492 -1.0353 -0.2357
  236MOL0     C31763   7.653   6.781   5.028 -0.0174 -0.6263 -0.1949
  236MOL0     C31764   7.800   6.744   4.986 -0.2913  0.0633  0.0996
  236MOL0     C31765   7.899   6.857   5.012  0.6323 -0.3749 -0.5254
  236MOL0     C31766   8.045   6.819   4.960  0.3298  0.1718 -0.1119
  236MOL0     C31767   8.126   6.953   4.934 -0.1352 -0.0134  0.1915
  236MOL0     C31768   8.276   6.928   4.932 -0.6759 -0.0534 -0.7420
  236MOL0    Cl31769   8.327   6.921   4.763 -0.4070  0.4637  0.3598
  236MOL0     C31770   7.175   6.834   5.183 -0.9025  0.4166  0.6667
  236MOL0     C31771   7.043   6.825   5.227 -0.4762  0.3176  0.7051
  236MOL0     O31772   6.765   6.851   5.160 -0.1375  0.4478  0.8083
  236MOL0     C31773   6.583   6.583   5.314 -0.4991 -0.5422 -0.9999
  236MOL0     C31774   6.455   6.558   5.369 -0.4874 -0.1268  0.2991
  236MOL0     N31775   5.937   7.131   5.179  0.0915 -0.1973 -0.1024
  236MOL0     N31776   6.021   7.195   5.096  0.4474 -0.0715 -0.0507
  236MOL0     C31777   5.973   7.516   5.258  0.4071 -0.1213  0.7304
  236MOL0     C31778   5.838   7.514   5.224 -0.0315  0.1187  0.0035
  236MOL0     C31779   5.426   7.658   5.126  0.6674  0.6745  0.0423
  236MOL0     C31780   5.370   7.756   5.205  0.1517 -0.7030 -0.0625
  236MOL0     C31781   5.240   7.787   5.190  0.2232 -0.2066  0.5967
  236MOL0     C31782   5.162   7.715   5.104  1.3044  0.0217 -0.1922
  236MOL0     O31783   5.031   7.741   5.120 -0.0271  0.5843  0.2096
  236MOL0     C31784   4.944   7.682   5.029  0.0589 -0.7517  0.1114
  236MOL0     C31785   4.797   7.710   5.054  0.7403 -0.2030  0.2963
  236MOL0     C31786   4.740   7.846   5.036 -0.7205  0.6331  1.1192
  236MOL0     C31787   4.643   7.891   5.136  0.3191 -0.2525 -0.1626
  236MOL0     C31788   4.527   7.796   5.134  0.0290 -0.5346  0.3842
  236MOL0     C31789   4.443   7.718   5.121  0.1915 -0.0826 -0.2144
  236MOL0     C31790   5.216   7.616   5.020  0.0825 -0.1279 -0.7220
  236MOL0     C31791   5.348   7.586   5.033 -0.5250 -0.1743  0.2523
  236MOL0     C31792   5.400   7.465   4.959  0.1618  0.8721 -0.1170
  236MOL0     H31793   5.749   7.802   5.373  0.9563  1.6582 -3.8329
  236MOL0     H31794   5.995   7.806   5.441 -0.3235  0.3565  0.9976
  236MOL0     H31795   6.310   7.493   5.475  0.8568 -1.2272 -0.3114
  236MOL0     H31796   6.167   7.416   5.411 -0.6282  1.6604  1.0740
  236MOL0     H31797   6.390   7.570   5.269 -1.9187  1.8174  0.9576
  236MOL0     H31798   6.252   7.494   5.179 -0.9867 -1.2065  1.3848
  236MOL0     H31799   6.316   7.269   5.284 -0.1130  0.4345  1.1185
  236MOL0     H31800   6.463   7.337   5.353 -1.2032 -1.5882  0.9225
  236MOL0     H31801   6.539   7.405   5.128  2.3849 -1.5495  0.2158
  236MOL0     H31802   6.538   7.233   5.171 -0.3734  0.0544  3.6739
  236MOL0     H31803   6.286   7.323   5.033 -0.1980  0.2585  2.2430
  236MOL0     H31804   6.439   7.290   4.935  1.6118  0.1426  1.5564
  236MOL0     H31805   6.439   7.060   5.041  0.8922  0.7996 -3.4915
  236MOL0     H31806   6.290   7.100   5.117  0.4411 -0.9844 -0.4157
  236MOL0     H31807   6.283   6.976   4.897  0.0577  0.0277  1.8619
  236MOL0     H31808   6.350   7.111   4.813  0.5676 -2.0716 -0.7411
  236MOL0     H31809   6.153   7.254   4.880 -0.3750 -0.6919 -0.7219
  236MOL0     H31810   6.096   7.120   4.800  0.4722 -1.3894 -0.5589
  236MOL0     H31811   6.061   6.886   4.985  3.5049  0.1098 -0.0066
  236MOL0     H31812   5.756   6.912   5.209 -0.2113 -0.7958  3.8317
  236MOL0     H31813   5.867   6.798   5.123  3.5124  0.2561  1.2216
  236MOL0     H31814   5.936   6.919   5.392 -0.4322 -1.9483  1.5662
  236MOL0     H31815   5.844   6.770   5.380 -0.9323 -0.2878 -0.5603
  236MOL0     H31816   6.133   6.801   5.249 -0.3843 -0.3490 -0.8562
  236MOL0     H31817   6.032   6.664   5.247 -2.4904 -0.7035  2.4784
  236MOL0     H31818   6.035   6.658   5.497 -0.8137  1.2855  0.5831
  236MOL0     H31819   6.158   6.789   5.493  1.2928  0.3672 -1.1908
  236MOL0     H31820   6.312   6.863   5.334 -0.0408  0.3095 -0.6892
  236MOL0     H31821   6.535   6.909   5.252 -0.0226  0.3127  1.4952
  236MOL0     H31822   7.029   6.474   5.218  1.1593 -1.3356 -0.5414
  236MOL0     H31823   7.275   6.510   5.158 -0.9515 -0.6276  0.5852
  236MOL0     H31824   7.441   6.949   5.147  0.2809  0.7892  2.8221
  236MOL0     H31825   7.444   6.846   5.284 -1.1339  0.3647 -0.4153
  236MOL0     H31826   7.674   6.900   5.219  1.2293 -0.8618 -1.5762
  236MOL0     H31827   7.630   6.728   5.235 -0.7904 -1.4543 -0.6095
  236MOL0     H31828   7.597   6.692   4.997  1.3224 -1.4568 -0.2722
  236MOL0     H31829   7.619   6.861   4.961 -1.8001 -0.6940  0.5580
  236MOL0     H31830   7.800   6.717   4.880  2.1236  0.1642  0.0233
  236MOL0     H31831   7.834   6.658   5.045 -0.4855 -0.6020 -0.7465
  236MOL0     H31832   7.907   6.871   5.121 -0.0643 -1.9219 -0.2485
  236MOL0     H31833   7.862   6.955   4.979  2.9576  0.2258 -1.5343
  236MOL0     H31834   8.092   6.744   5.024 -0.5462  0.4149  0.8489
  236MOL0     H31835   8.022   6.766   4.867  1.7235 -3.1965  1.3113
  236MOL0     H31836   8.109   7.013   5.024 -0.8758 -1.4843  1.0727
  236MOL0     H31837   8.081   7.010   4.853  3.0828  0.1922 -1.6191
  236MOL0     H31838   8.340   7.014   4.957  0.8243 -1.3259  0.0021
  236MOL0     H31839   8.302   6.836   4.985 -2.4429  0.1752  0.5876
  236MOL0     H31840   7.210   6.937   5.180  0.9516 -0.1912 -1.6881
  236MOL0     H31841   6.985   6.916   5.236 -0.5318  0.3452  0.1239
  236MOL0     H31842   6.656   6.504   5.332 -1.5397 -1.9256 -2.5711
  236MOL0     H31843   6.430   6.463   5.416 -0.2296  0.0070  0.7104
  236MOL0     H31844   6.035   7.435   5.220 -0.3741 -0.7966  0.8813
  236MOL0     H31845   5.801   7.437   5.157  1.4141 -0.2558 -0.4005
  236MOL0     H31846   5.429   7.817   5.272 -0.9136  0.1036  0.1608
  236MOL0     H31847   5.208   7.859   5.264 -0.5510 -0.8699  0.9164
  236MOL0     H31848   4.950   7.573   5.027  0.4168 -0.7292 -0.0690
  236MOL0     H31849   4.963   7.716   4.927  2.4299 -3.9709 -0.6649
  236MOL0     H31850   4.770   7.670   5.153 -0.2734  1.4266  0.7169
  236MOL0     H31851   4.734   7.652   4.987 -0.9519  2.1042 -0.1971
  236MOL0     H31852   4.701   7.862   4.936 -0.8700 -1.4587  0.7973
  236MOL0     H31853   4.828   7.910   5.050  1.5570 -2.1765  0.4969
  236MOL0     H31854   4.682   7.891   5.239  2.0500 -2.0389 -0.7452
  236MOL0     H31855   4.600   7.989   5.115 -4.4843 -0.4287  5.9315
  236MOL0     H31856   4.367   7.643   5.132  0.3507 -0.6000 -2.2051
  236MOL0     H31857   5.152   7.554   4.958 -2.8051  0.8935  1.0697
  236MOL0     H31858   5.456   7.411   5.036 -1.6393 -0.7361  0.1600
  236MOL0     H31859   5.314   7.402   4.932  0.3316  0.1033  1.0453
  236MOL0     H31860   5.467   7.477   4.874 -1.4985  1.7971 -1.3394
  237MOL0     O31861   3.140   4.991   5.356  0.0748  0.5505 -0.3024
  237MOL0     C31862   3.133   5.095   5.427 -1.0248  1.4217  0.2835
  237MOL0     O31863   3.021   5.138   5.503  0.0603  0.0708  0.1336
  237MOL0     C31864   2.914   5.052   5.511  0.0669  0.2977 -0.3967
  237MOL0     C31865   2.878   5.005   5.639  0.5470  0.2687  0.0835
  237MOL0     C31866   2.759   4.934   5.650  1.0142  0.6913  0.7944
  237MOL0     C31867   2.680   4.908   5.538 -0.5514  0.6164 -0.0380
  237MOL0     O31868   2.570   4.828   5.566  0.3577 -0.5265 -0.3629
  237MOL0     C31869   2.477   4.817   5.455  0.0755  0.0897  0.0448
  237MOL0     C31870   2.397   4.941   5.419  0.8516 -0.8309 -0.3514
  237MOL0     C31871   2.327   4.901   5.285 -0.2647  0.4819 -0.1771
  237MOL0     C31872   2.260   5.027   5.239  0.7777 -0.6575  0.5074
  237MOL0     C31873   2.176   5.018   5.111 -0.2794 -0.0922 -0.3305
  237MOL0     C31874   2.034   4.965   5.138 -0.2822  0.4398 -1.3325
  237MOL0     C31875   1.936   5.080   5.170  0.3975  0.1976 -1.0568
  237MOL0     C31876   1.791   5.032   5.203  0.0043  0.3924  0.1854
  237MOL0     N31877   1.751   4.948   5.096 -0.5284  0.1375  0.0081
  237MOL0     C31878   1.700   4.988   4.971 -0.1826  0.8410 -0.1263
  237MOL0     C31879   1.686   4.871   4.908 -0.9406 -0.1249  0.8101
  237MOL0     C31880   1.650   4.858   4.762 -0.4728 -0.4093  0.3717
  237MOL0     C31881   1.770   4.841   4.665  0.3114  0.3562 -0.6884
  237MOL0     C31882   1.734   4.723   4.576  0.5098  0.4519  0.2078
  237MOL0     C31883   1.853   4.701   4.474  0.0120  0.0339 -0.9165
  237MOL0     O31884   1.963   4.631   4.537 -0.1107 -0.1006  0.0548
  237MOL0     C31885   1.955   4.490   4.558 -0.1570  0.7983 -0.3975
  237MOL0     C31886   1.869   4.399   4.486  0.2350  0.5936 -0.0925
  237MOL0     C31887   1.895   4.257   4.487  0.2232 -0.8245 -0.7115
  237MOL0     C31888   2.008   4.211   4.576  1.3342  0.5765  0.0429
  237MOL0     C31889   2.034   4.061   4.591  0.0826 -0.4212  0.5699
  237MOL0     O31890   1.934   3.977   4.543 -0.2261  0.1162 -0.2761
  237MOL0     C31891   1.948   3.844   4.547  0.1873  0.8758  0.1330
  237MOL0     C31892   1.937   3.786   4.421  0.9248  0.2382 -0.9482
  237MOL0     C31893   1.967   3.653   4.407  0.1862 -1.0668  0.0950
  237MOL0     C31894   1.999   3.576   4.515 -0.6654 -0.0115  0.3863
  237MOL0     O31895   2.045   3.445   4.498  0.5873 -0.6440  0.4306
  237MOL0     C31896   2.086   3.372   4.612  0.1479  0.2205 -0.3039
  237MOL0     C31897   2.134   3.226   4.589 -0.4796 -0.0230  0.8825
  237MOL0     C31898   2.242   3.181   4.699  0.3857 -0.9148  0.2215
  237MOL0     C31899   2.175   3.120   4.823 -0.2231 -0.0207 -1.5035
  237MOL0     C31900   2.263   3.136   4.951  0.1393  0.0424 -0.0477
  237MOL0     C31901   2.217   3.063   5.071  0.2439  0.2194  0.2535
  237MOL0     C31902   2.317   3.045   5.180 -0.2907  0.0779 -0.3596
  237MOL0     C31903   2.276   2.941   5.293  0.5662  0.0876  0.1728
  237MOL0    Cl31904   2.131   3.007   5.383  0.2876 -0.1040 -0.0239
  237MOL0     C31905   1.992   3.637   4.643 -1.7437 -0.1092 -0.1591
  237MOL0     C31906   1.962   3.770   4.666  0.6032  0.4979  0.4188
  237MOL0     O31907   2.135   4.031   4.658  0.2647 -0.3559  0.3914
  237MOL0     C31908   2.074   4.304   4.646 -0.5633  0.3260 -0.0814
  237MOL0     C31909   2.059   4.442   4.644  0.4763  0.6297  1.1391
  237MOL0     N31910   1.711   4.755   4.984  0.4618 -0.7093  0.8965
  237MOL0     N31911   1.736   4.808   5.104 -0.0788 -0.0728  0.4526
  237MOL0     C31912   2.723   4.947   5.414  0.6784  0.2571 -0.1459
  237MOL0     C31913   2.844   5.019   5.396 -0.5855 -0.1084  0.1516
  237MOL0     C31914   3.249   5.190   5.427 -0.4876  0.5606 -0.4123
  237MOL0     C31915   3.257   5.297   5.516  0.2312 -0.2979  0.2545
  237MOL0     C31916   3.368   5.368   5.534 -0.0733 -0.5013  0.0734
  237MOL0     C31917   3.485   5.357   5.458  0.0856 -0.1915  0.0362
  237MOL0     O31918   3.592   5.429   5.504  0.0453 -0.5345 -0.7169
  237MOL0     C31919   3.715   5.418   5.436 -0.1606  0.1888 -0.4236
  237MOL0     C31920   3.817   5.477   5.530  0.3592  0.6241 -0.5171
  237MOL0     C31921   3.958   5.457   5.464  0.1643  0.4227 -0.4276
  237MOL0     C31922   4.004   5.561   5.356  1.0510 -0.5349  0.8927
  237MOL0     C31923   4.136   5.535   5.302  0.6351 -0.3332  0.2382
  237MOL0     C31924   4.225   5.498   5.231  0.0845  0.5387 -0.1349
  237MOL0     C31925   3.473   5.257   5.356  0.1601  0.2757 -0.0892
  237MOL0     C31926   3.351   5.188   5.331  0.1242 -1.2510 -0.2979
  237MOL0     C31927   3.348   5.106   5.208 -0.0758 -0.4977  0.0799
  237MOL0     H31928   2.943   5.031   5.721  4.2718  1.3955 -2.9249
  237MOL0     H31929   2.721   4.897   5.744  0.8449 -0.1083  0.4238
  237MOL0     H31930   2.533   4.774   5.371  0.4850 -0.1875  0.4533
  237MOL0     H31931   2.399   4.744   5.476  1.1294 -0.9387  0.5008
  237MOL0     H31932   2.469   5.021   5.401  2.0013 -0.9214  3.1218
  237MOL0     H31933   2.326   4.972   5.496  0.0449  2.7938 -2.3484
  237MOL0     H31934   2.249   4.826   5.303  0.7779 -0.6685 -0.3501
  237MOL0     H31935   2.397   4.867   5.208  1.0975  2.9459 -0.1131
  237MOL0     H31936   2.196   5.076   5.313  1.1132  1.2946 -0.4311
  237MOL0     H31937   2.334   5.102   5.213 -1.7778  1.7710 -0.2134
  237MOL0     H31938   2.171   5.112   5.056  1.7193  0.1686 -0.1176
  237MOL0     H31939   2.229   4.940   5.055  0.9499  1.3603 -1.2473
  237MOL0     H31940   2.000   4.900   5.057 -3.2053  1.9795 -1.4672
  237MOL0     H31941   2.047   4.901   5.226  0.0265 -1.4737 -2.7087
  237MOL0     H31942   1.927   5.152   5.088  3.7958  5.2061  2.3574
  237MOL0     H31943   1.979   5.148   5.245 -2.8684  2.6844 -1.2039
  237MOL0     H31944   1.788   4.956   5.281 -1.4243 -1.0133 -1.1937
  237MOL0     H31945   1.726   5.119   5.221  0.2526  0.4919  0.6404
  237MOL0     H31946   1.674   5.081   4.920  1.1645 -0.7885 -4.1668
  237MOL0     H31947   1.575   4.778   4.756  0.7598 -1.5645 -0.1909
  237MOL0     H31948   1.609   4.956   4.738  0.3133 -0.1085  0.2342
  237MOL0     H31949   1.790   4.931   4.607 -0.9284  2.3780  1.8337
  237MOL0     H31950   1.861   4.815   4.721 -0.4679  0.8377  0.8698
  237MOL0     H31951   1.639   4.743   4.526  0.0048 -1.2321  0.4250
  237MOL0     H31952   1.711   4.633   4.634 -3.2891 -0.3842 -2.2596
  237MOL0     H31953   1.887   4.799   4.442 -1.4845 -0.0857 -3.0413
  237MOL0     H31954   1.817   4.656   4.382  0.6726  0.9737 -1.6473
  237MOL0     H31955   1.781   4.444   4.440  0.8941  2.6697  0.5419
  237MOL0     H31956   1.823   4.190   4.441 -1.7854  0.8828 -0.2188
  237MOL0     H31957   1.911   3.847   4.335 -0.3717  1.0072 -0.0318
  237MOL0     H31958   1.974   3.618   4.305  1.1134 -1.6122  0.3402
  237MOL0     H31959   2.171   3.427   4.655 -0.1114 -0.3160  0.9482
  237MOL0     H31960   2.004   3.360   4.683 -2.5707  2.0270 -2.8984
  237MOL0     H31961   2.053   3.153   4.586 -0.5434  0.0380  1.1011
  237MOL0     H31962   2.185   3.229   4.492 -2.7737 -2.6205 -0.5319
  237MOL0     H31963   2.296   3.098   4.652  2.2946  0.5004 -0.2111
  237MOL0     H31964   2.316   3.259   4.720  0.5324 -0.1963 -2.6240
  237MOL0     H31965   2.139   3.018   4.811  2.6471 -1.6463  1.8301
  237MOL0     H31966   2.086   3.180   4.843 -3.0390 -4.3328  0.2300
  237MOL0     H31967   2.276   3.240   4.983 -0.6173  0.5200 -1.1915
  237MOL0     H31968   2.356   3.095   4.911 -0.4113  2.1865 -4.0173
  237MOL0     H31969   2.141   3.119   5.126 -1.3564 -3.2731  1.9515
  237MOL0     H31970   2.179   2.966   5.038  0.6036  0.3955 -0.7104
  237MOL0     H31971   2.346   3.137   5.231  2.0955 -0.9228  0.2410
  237MOL0     H31972   2.411   3.012   5.136  2.3264  3.5266  2.1764
  237MOL0     H31973   2.261   2.840   5.254  3.1216  0.3622 -1.8154
  237MOL0     H31974   2.352   2.941   5.371 -0.7598 -1.1727  1.5258
  237MOL0     H31975   2.022   3.576   4.728  0.6012  1.8597  0.5476
  237MOL0     H31976   1.983   3.817   4.761  2.6282  4.0544 -1.5747
  237MOL0     H31977   2.145   4.272   4.722 -0.8298 -1.6682 -0.6220
  237MOL0     H31978   2.120   4.496   4.715  1.3752 -0.2594  1.0760
  237MOL0     H31979   2.654   4.926   5.333  1.4079  0.4509 -0.8324
  237MOL0     H31980   2.867   5.046   5.293 -1.2879  0.9010  0.2413
  237MOL0     H31981   3.187   5.307   5.599 -0.0940  0.7836 -0.1347
  237MOL0     H31982   3.372   5.420   5.629 -2.6469 -1.0830  0.5654
  237MOL0     H31983   3.703   5.471   5.341  2.6847 -1.9240 -2.1187
  237MOL0     H31984   3.737   5.313   5.410 -2.3085  0.0511 -2.0052
  237MOL0     H31985   3.810   5.434   5.630  1.8967  0.2112 -0.5735
  237MOL0     H31986   3.780   5.580   5.544 -1.2652  0.2421 -1.6576
  237MOL0     H31987   3.980   5.356   5.430  1.9779  0.1622  1.3921
  237MOL0     H31988   4.014   5.477   5.555  0.5240  0.4576 -0.6557
  237MOL0     H31989   3.931   5.563   5.275  2.0599 -0.6271 -0.0277
  237MOL0     H31990   4.001   5.663   5.395  3.5559  1.2559 -3.0129
  237MOL0     H31991   4.305   5.463   5.168 -2.4265 -0.8165 -2.8249
  237MOL0     H31992   3.544   5.245   5.275  0.9769 -0.3733  0.7085
  237MOL0     H31993   3.388   5.008   5.236  2.9125  0.2292 -1.2270
  237MOL0     H31994   3.248   5.094   5.165  0.2457 -0.2199 -0.7626
  237MOL0     H31995   3.413   5.161   5.139 -0.1741  1.7790  1.6886
  238MOL0     O31996   9.165   2.774  10.140  0.3058 -0.4386  0.2077
  238MOL0     C31997   9.127   2.884  10.180  0.8038  0.0982 -0.6376
  238MOL0     O31998   9.172   3.001  10.134  0.0293  0.3220 -0.2846
  238MOL0     C31999   9.295   2.999  10.076  0.1536  0.5912  0.4795
  238MOL0     C32000   9.317   3.062   9.950  1.2974  0.7230 -0.5473
  238MOL0     C32001   9.444   3.074   9.896  0.2696  0.1047  0.1355
  238MOL0     C32002   9.552   3.026   9.961 -0.1504  0.1943 -0.2594
  238MOL0     O32003   9.675   3.028   9.905 -0.0591  1.3123 -0.6379
  238MOL0     C32004   9.703   3.043   9.768  0.3206 -0.2874 -0.4379
  238MOL0     C32005   9.849   3.052   9.732  0.2842 -0.6422 -0.1531
  238MOL0     C32006   9.910   2.906   9.745  0.1496 -1.5632 -0.0650
  238MOL0     C32007  10.046   2.895   9.682  0.0578 -0.2326  0.8140
  238MOL0     C32008  10.109   2.756   9.710  0.5938 -0.3490 -0.5891
  238MOL0     C32009  10.253   2.747   9.677 -0.1001 -0.0042 -0.2307
  238MOL0     C32010  10.267   2.735   9.518  0.1803  0.0949  0.6342
  238MOL0     C32011  10.407   2.705   9.481  0.2876 -1.0781  0.6518
  238MOL0     N32012  10.449   2.571   9.519 -0.2427 -0.2841 -0.0540
  238MOL0     C32013  10.528   2.545   9.633  0.6786  0.3692  0.1936
  238MOL0     C32014  10.523   2.405   9.645  0.0248  0.1202  0.4736
  238MOL0     C32015  10.572   2.322   9.763 -0.4973  0.0579  0.3293
  238MOL0     C32016  10.718   2.343   9.783  0.7161  0.1529 -0.4926
  238MOL0     C32017  10.764   2.235   9.869 -0.4145  0.6947  0.0354
  238MOL0     C32018  10.903   2.249   9.932  0.9264 -1.2106  0.1629
  238MOL0     O32019  10.953   2.122   9.962 -0.7647  0.3511  0.3180
  238MOL0     C32020  11.064   2.062   9.910 -0.7895  0.1937 -0.3699
  238MOL0     C32021  11.086   1.928   9.944  1.1235 -0.6097 -0.6117
  238MOL0     C32022  11.193   1.851   9.898 -0.6740 -0.2790  0.4873
  238MOL0     C32023  11.279   1.917   9.806 -0.3525 -0.5586 -0.1317
  238MOL0     C32024  11.395   1.849   9.738 -0.4273 -0.1493  0.0397
  238MOL0     O32025  11.439   1.729   9.791 -0.1300 -0.2016 -0.0651
  238MOL0     C32026  11.537   1.660   9.728 -0.3717  0.4045  0.5715
  238MOL0     C32027  11.633   1.600   9.816  0.5731  0.0099  0.2411
  238MOL0     C32028  11.728   1.522   9.765 -0.2456  0.0167 -0.1215
  238MOL0     C32029  11.729   1.477   9.632 -0.3669  0.0376  0.3437
  238MOL0     O32030  11.828   1.384   9.611  0.1415  0.1246 -0.4046
  238MOL0     C32031  11.832   1.312   9.489  0.3244 -0.1797  0.6858
  238MOL0     C32032  11.968   1.241   9.484 -0.1042 -0.6667 -0.1653
  238MOL0     C32033  12.086   1.337   9.529 -0.2173  1.2820 -0.6279
  238MOL0     C32034  12.229   1.292   9.482  0.4453  1.0732  0.2735
  238MOL0     C32035  12.282   1.158   9.534 -0.4553 -0.5440 -0.8421
  238MOL0     C32036  12.428   1.138   9.491  0.0560 -0.0410 -0.2398
  238MOL0     C32037  12.527   1.213   9.573  0.3029 -0.1384 -0.4417
  238MOL0     C32038  12.633   1.121   9.629  0.3635  0.1464 -0.6829
  238MOL0    Cl32039  12.736   1.049   9.497  0.0623 -0.0014  0.1080
  238MOL0     C32040  11.629   1.524   9.547  0.4251  0.0675 -0.4139
  238MOL0     C32041  11.531   1.610   9.593 -0.0942  0.1049  0.1691
  238MOL0     O32042  11.443   1.897   9.639 -0.1920 -0.2398  1.6409
  238MOL0     C32043  11.258   2.050   9.771  0.7759  0.5102 -0.1094
  238MOL0     C32044  11.152   2.127   9.829 -1.0024  0.8202  0.1391
  238MOL0     N32045  10.435   2.357   9.553  0.0856 -0.5137  0.2776
  238MOL0     N32046  10.383   2.458   9.490 -0.8616 -0.4490 -0.3772
  238MOL0     C32047   9.534   2.974  10.095  0.1370  0.7917 -0.2212
  238MOL0     C32048   9.405   2.950  10.148 -0.2688  0.4838  0.8170
  238MOL0     C32049   9.005   2.887  10.260  0.0411 -1.0429 -0.6034
  238MOL0     C32050   8.915   2.999  10.229  0.3449  0.0106  0.5969
  238MOL0     C32051   8.793   3.003  10.289  0.1817  0.6068  0.9895
  238MOL0     C32052   8.750   2.900  10.380  0.3788  0.2655 -0.1495
  238MOL0     O32053   8.627   2.891  10.440  0.3989 -1.0983  0.1153
  238MOL0     C32054   8.519   2.948  10.368  0.0580 -0.8863  0.0749
  238MOL0     C32055   8.386   2.926  10.433 -0.2205 -1.1346  0.7250
  238MOL0     C32056   8.348   2.781  10.450  0.4475  0.5438  0.2927
  238MOL0     C32057   8.233   2.763  10.553 -0.1982 -0.2022 -0.9754
  238MOL0     C32058   8.113   2.841  10.521 -0.9081 -0.4817 -0.1235
  238MOL0     C32059   8.021   2.909  10.498 -0.2432  0.1018  0.0593
  238MOL0     C32060   8.844   2.799  10.412  0.2522  0.0474  0.0817
  238MOL0     C32061   8.970   2.783  10.347  0.5359 -0.0722 -0.4877
  238MOL0     C32062   9.061   2.682  10.406  0.0582  0.4505  0.4036
  238MOL0     H32063   9.228   3.102   9.903  0.4568 -0.8056 -0.3179
  238MOL0     H32064   9.457   3.135   9.807  1.3703  0.1479  0.3056
  238MOL0     H32065   9.646   2.969   9.711  0.9479  0.2833 -1.8420
  238MOL0     H32066   9.660   3.138   9.737  0.9348  0.2928  0.4460
  238MOL0     H32067   9.900   3.124   9.796  1.1490 -1.9496  0.6708
  238MOL0     H32068   9.854   3.093   9.631 -0.5629 -0.0396  0.0384
  238MOL0     H32069   9.860   2.818   9.703  0.1027 -1.7016  0.2790
  238MOL0     H32070   9.926   2.885   9.851  0.9936 -0.9564 -0.0641
  238MOL0     H32071  10.029   2.931   9.581 -1.1774 -0.4461  0.9291
  238MOL0     H32072  10.116   2.971   9.718 -0.4563  1.4271 -1.5000
  238MOL0     H32073  10.094   2.730   9.815  2.0415 -2.6525 -0.8892
  238MOL0     H32074  10.057   2.677   9.655 -0.4475 -0.7568  0.9310
  238MOL0     H32075  10.320   2.828   9.706  4.5603 -2.4454 -2.9582
  238MOL0     H32076  10.281   2.653   9.725 -1.4117  0.3375  1.2678
  238MOL0     H32077  10.234   2.833   9.483  0.5920  0.0166  0.0136
  238MOL0     H32078  10.198   2.665   9.470 -0.8134  0.8935  0.8672
  238MOL0     H32079  10.414   2.718   9.373  2.0905  1.5125  0.9674
  238MOL0     H32080  10.470   2.788   9.516 -2.3327  0.9536  0.8858
  238MOL0     H32081  10.571   2.611   9.707 -0.9276 -0.4488  1.9540
  238MOL0     H32082  10.524   2.337   9.860  1.3235 -0.1323  1.3061
  238MOL0     H32083  10.562   2.217   9.733  2.0113 -0.4070  0.8880
  238MOL0     H32084  10.775   2.332   9.691  1.3494 -3.3835  0.2041
  238MOL0     H32085  10.740   2.438   9.832  0.7079 -0.9775  1.8410
  238MOL0     H32086  10.767   2.142   9.811 -0.7626 -0.1586  1.3356
  238MOL0     H32087  10.697   2.208   9.951  0.9627 -0.3275  0.8692
  238MOL0     H32088  10.898   2.291  10.033 -0.7865 -1.0462  0.0326
  238MOL0     H32089  10.962   2.310   9.864  2.4097 -2.4920  0.2431
  238MOL0     H32090  11.007   1.888  10.007  2.7751 -4.1951 -0.5292
  238MOL0     H32091  11.218   1.750   9.926  1.8114  0.1705  0.1349
  238MOL0     H32092  11.625   1.630   9.920  2.1277  1.6273 -0.0358
  238MOL0     H32093  11.798   1.484   9.839 -2.0792 -0.3875  1.4870
  238MOL0     H32094  11.755   1.237   9.470 -0.9100  1.1261  0.4033
  238MOL0     H32095  11.819   1.388   9.411 -2.7747 -0.3904  0.8755
  238MOL0     H32096  11.966   1.153   9.549 -2.1808  0.3598  1.2606
  238MOL0     H32097  12.002   1.186   9.396  1.0057  1.1047 -0.9118
  238MOL0     H32098  12.064   1.433   9.480 -2.5614  1.0667 -0.1218
  238MOL0     H32099  12.090   1.343   9.638  1.5155 -0.6512 -0.5241
  238MOL0     H32100  12.316   1.354   9.509  1.4046 -1.0454  2.4268
  238MOL0     H32101  12.219   1.289   9.373 -4.3725 -1.7041  0.5001
  238MOL0     H32102  12.215   1.083   9.489  0.5291 -1.1599 -1.3070
  238MOL0     H32103  12.272   1.148   9.642  1.8343 -2.9477 -0.7429
  238MOL0     H32104  12.435   1.030   9.505 -1.7983 -0.1121  0.3257
  238MOL0     H32105  12.460   1.167   9.390 -0.4457  1.6125  0.0615
  238MOL0     H32106  12.471   1.260   9.655  0.3640 -0.9060  0.0523
  238MOL0     H32107  12.576   1.292   9.515  0.6690 -0.5511 -0.6962
  238MOL0     H32108  12.699   1.184   9.690  0.0622 -0.9971  0.8713
  238MOL0     H32109  12.597   1.049   9.702 -0.0657  2.3171  1.3770
  238MOL0     H32110  11.625   1.487   9.444 -0.7896 -1.2605  0.0704
  238MOL0     H32111  11.447   1.633   9.528  0.6916  0.3318 -0.8046
  238MOL0     H32112  11.323   2.105   9.704 -0.3136  3.1207  0.8406
  238MOL0     H32113  11.138   2.230   9.800  2.1902  1.3405  0.1339
  238MOL0     H32114   9.622   2.957  10.156  1.5605 -0.3472 -2.4493
  238MOL0     H32115   9.381   2.903  10.243 -1.6350 -1.3243 -0.3547
  238MOL0     H32116   8.936   3.073  10.151 -3.1280 -0.7126 -1.2046
  238MOL0     H32117   8.731   3.084  10.250  0.1519 -0.5551 -1.6125
  238MOL0     H32118   8.519   2.904  10.268  1.4016  1.0877 -0.8473
  238MOL0     H32119   8.533   3.056  10.361 -1.1797 -0.7800 -1.3118
  238MOL0     H32120   8.310   2.979  10.376 -0.8565 -3.0910 -0.3372
  238MOL0     H32121   8.402   2.973  10.530  1.8778  1.8425 -0.9085
  238MOL0     H32122   8.436   2.728  10.488 -0.4673 -1.1757  0.1107
  238MOL0     H32123   8.324   2.732  10.355  2.5018 -1.1791  0.5846
  238MOL0     H32124   8.195   2.660  10.548 -0.9502 -0.3318  3.1717
  238MOL0     H32125   8.268   2.794  10.652 -0.2964  1.7814 -1.5251
  238MOL0     H32126   7.934   2.969  10.477  1.3694  1.4697 -3.4240
  238MOL0     H32127   8.813   2.724  10.484  1.2996 -0.8853 -0.4065
  238MOL0     H32128   9.045   2.580  10.369 -0.0972  0.3352  0.7807
  238MOL0     H32129   9.165   2.710  10.394  1.0315 -1.9091  2.3883
  238MOL0     H32130   9.034   2.677  10.512 -1.2217 -0.5470  0.0628
  239MOL0     O32131   4.703   8.558   3.697  0.4712 -0.1621  0.1644
  239MOL0     C32132   4.815   8.561   3.747 -0.8144  1.0406 -0.0094
  239MOL0     O32133   4.847   8.634   3.857  0.3243 -0.0907 -0.2546
  239MOL0     C32134   4.946   8.584   3.939 -1.0411 -0.0343  0.2862
  239MOL0     C32135   4.915   8.462   3.999 -1.0135  0.4150 -0.4365
  239MOL0     C32136   5.006   8.394   4.081 -0.1936  0.5401  0.5485
  239MOL0     C32137   5.124   8.463   4.121  0.9871 -0.6831 -0.4699
  239MOL0     O32138   5.228   8.401   4.195  1.0153 -0.0034  0.4595
  239MOL0     C32139   5.184   8.310   4.309 -0.3832  0.7823 -0.5984
  239MOL0     C32140   5.310   8.248   4.373 -0.4436 -0.7996 -0.2001
  239MOL0     C32141   5.375   8.144   4.282 -0.3294 -0.8142 -1.0654
  239MOL0     C32142   5.519   8.115   4.323 -0.4093  0.3290 -0.4746
  239MOL0     C32143   5.583   8.004   4.256 -0.3132 -0.1228  0.2241
  239MOL0     C32144   5.732   8.021   4.253 -1.4928 -0.5884 -0.4269
  239MOL0     C32145   5.818   7.911   4.177  0.5791  0.2404 -0.2349
  239MOL0     C32146   5.745   7.834   4.057  0.0038 -0.3465  0.4452
  239MOL0     N32147   5.724   7.924   3.937  0.6653 -0.1822  0.4998
  239MOL0     C32148   5.778   7.900   3.813 -0.6086  0.2029 -0.1425
  239MOL0     C32149   5.736   8.002   3.733  0.9880  0.1342  0.5275
  239MOL0     C32150   5.762   8.021   3.585  0.5716  0.3564 -0.0339
  239MOL0     C32151   5.635   7.985   3.496  0.0770 -0.2877 -0.2615
  239MOL0     C32152   5.603   7.839   3.518 -0.0268 -0.2046 -0.6587
  239MOL0     C32153   5.553   7.785   3.392 -0.5116  0.6338 -0.4994
  239MOL0     O32154   5.438   7.850   3.332  0.5698  0.5394 -0.3406
  239MOL0     C32155   5.312   7.846   3.394  0.6696 -0.5329 -0.7079
  239MOL0     C32156   5.265   7.943   3.483 -0.0404  0.6982 -0.1401
  239MOL0     C32157   5.155   7.920   3.555  0.3143 -0.4172  0.5765
  239MOL0     C32158   5.078   7.804   3.538 -0.0800  0.3444 -0.3337
  239MOL0     C32159   4.965   7.785   3.630 -0.9235 -0.0178 -1.1234
  239MOL0     O32160   4.880   7.690   3.607  0.3742 -0.2466  0.7608
  239MOL0     C32161   4.802   7.657   3.717  0.2820  0.8961 -0.3152
  239MOL0     C32162   4.657   7.682   3.714  0.3483 -0.5024 -0.1719
  239MOL0     C32163   4.577   7.663   3.824 -0.1366 -0.1192 -0.7012
  239MOL0     C32164   4.628   7.597   3.940  0.2700  0.9880  0.3775
  239MOL0     O32165   4.530   7.579   4.034 -0.0356  0.0322 -0.4061
  239MOL0     C32166   4.502   7.695   4.113 -0.2268  0.0404  0.5020
  239MOL0     C32167   4.406   7.655   4.227 -0.4380  0.4246  0.4578
  239MOL0     C32168   4.267   7.606   4.185 -0.0603 -0.1353  0.0452
  239MOL0     C32169   4.174   7.586   4.311 -0.0145  0.1880  0.5310
  239MOL0     C32170   4.043   7.515   4.274 -0.2497 -0.4586 -0.1076
  239MOL0     C32171   3.945   7.597   4.188 -0.1512 -0.3389  0.7722
  239MOL0     C32172   3.809   7.532   4.194  0.9106 -0.0699  0.7490
  239MOL0     C32173   3.696   7.607   4.128  0.3122  0.5666  0.0479
  239MOL0    Cl32174   3.632   7.735   4.232  0.1976 -0.6252  0.1055
  239MOL0     C32175   4.762   7.561   3.941  0.2019 -0.9940 -0.3175
  239MOL0     C32176   4.849   7.592   3.832  0.1870  0.2292 -0.1063
  239MOL0     O32177   4.953   7.860   3.726  0.5477 -0.0989  0.4263
  239MOL0     C32178   5.112   7.709   3.442 -0.8296 -0.1867  0.0970
  239MOL0     C32179   5.235   7.727   3.371  0.2028  0.6679  1.2024
  239MOL0     N32180   5.656   8.080   3.811 -1.9309  0.6240 -0.0878
  239MOL0     N32181   5.646   8.026   3.931  0.2200  0.5322 -0.1470
  239MOL0     C32182   5.156   8.587   4.053 -0.0421 -0.4164 -0.1480
  239MOL0     C32183   5.070   8.645   3.960  0.1437  0.3000  0.3645
  239MOL0     C32184   4.923   8.481   3.672  0.5318  0.0134 -0.5066
  239MOL0     C32185   5.048   8.533   3.633  0.8469  0.0849 -0.1495
  239MOL0     C32186   5.140   8.469   3.547  0.5435  0.3244 -0.8831
  239MOL0     C32187   5.112   8.333   3.513 -0.0837  0.8220 -0.2129
  239MOL0     O32188   5.200   8.244   3.443  1.2912 -0.0937 -0.0423
  239MOL0     C32189   5.278   8.304   3.345  0.2473 -0.6794 -0.2488
  239MOL0     C32190   5.271   8.205   3.234 -0.0780 -0.0427 -0.4051
  239MOL0     C32191   5.336   8.237   3.101 -0.5174 -0.1298  0.0926
  239MOL0     C32192   5.485   8.232   3.110  0.1174  0.1665  0.0241
  239MOL0     C32193   5.527   8.261   2.971 -0.0432  0.3075  0.1573
  239MOL0     C32194   5.552   8.294   2.862  0.2506  0.4078  0.2058
  239MOL0     C32195   4.992   8.284   3.545  0.0920 -0.1414  0.0658
  239MOL0     C32196   4.901   8.346   3.633 -0.5877  1.1451  0.2506
  239MOL0     C32197   4.793   8.263   3.684  0.6845  0.2898 -0.5270
  239MOL0     H32198   4.819   8.423   3.964 -0.8617 -1.8275  1.4176
  239MOL0     H32199   4.963   8.314   4.139  2.2776 -2.5288 -1.5025
  239MOL0     H32200   5.138   8.369   4.389  0.2794  0.8971 -0.3041
  239MOL0     H32201   5.112   8.233   4.277  1.4334 -0.4512 -1.9026
  239MOL0     H32202   5.274   8.195   4.461 -1.8142  0.3284 -0.0478
  239MOL0     H32203   5.376   8.326   4.411 -1.8884  0.3117  0.1098
  239MOL0     H32204   5.383   8.190   4.183  2.3094  1.3211  0.0152
  239MOL0     H32205   5.307   8.059   4.274 -3.5394  1.6277 -2.1735
  239MOL0     H32206   5.573   8.209   4.305  0.9885  0.0966  1.9972
  239MOL0     H32207   5.528   8.105   4.432  0.4349  1.6950 -0.3922
  239MOL0     H32208   5.562   7.906   4.300  1.4514 -0.2446  0.9013
  239MOL0     H32209   5.552   8.005   4.151  1.6735 -3.3599 -0.5162
  239MOL0     H32210   5.750   8.114   4.199 -3.4009 -1.0994 -2.0557
  239MOL0     H32211   5.772   8.043   4.352 -1.0045  2.5610 -1.2244
  239MOL0     H32212   5.842   7.835   4.252  0.9712  0.6895  0.1014
  239MOL0     H32213   5.908   7.956   4.133  1.3381 -1.3078 -0.3290
  239MOL0     H32214   5.820   7.761   4.026  1.3343  0.9878  0.4037
  239MOL0     H32215   5.652   7.785   4.084 -0.0870  0.3761  1.5253
  239MOL0     H32216   5.837   7.812   3.788 -0.9792 -0.2465  0.5334
  239MOL0     H32217   5.786   8.126   3.568  0.5870  0.9267  2.9778
  239MOL0     H32218   5.839   7.950   3.552  0.2548 -1.0950  2.1336
  239MOL0     H32219   5.563   8.063   3.523  0.3724 -0.5738  1.5201
  239MOL0     H32220   5.670   8.002   3.394  0.6809  2.6088  0.3427
  239MOL0     H32221   5.524   7.819   3.590 -2.7105  0.9648 -3.0898
  239MOL0     H32222   5.689   7.778   3.548 -1.1376 -0.8189  1.4508
  239MOL0     H32223   5.533   7.681   3.417  0.8436  1.3131  4.6903
  239MOL0     H32224   5.644   7.785   3.331 -1.3750 -1.7011 -1.9056
  239MOL0     H32225   5.327   8.031   3.489  1.8038 -0.6037  0.8597
  239MOL0     H32226   5.132   7.997   3.628  1.0007 -0.1704  0.5392
  239MOL0     H32227   4.617   7.722   3.622  1.9678  1.6862  0.0002
  239MOL0     H32228   4.472   7.687   3.820 -0.2609 -0.4245  0.4162
  239MOL0     H32229   4.582   7.749   4.165  0.1522  1.7080 -1.6734
  239MOL0     H32230   4.466   7.776   4.049  0.8419 -0.4333 -0.7430
  239MOL0     H32231   4.450   7.582   4.295 -0.4226 -0.7233 -0.7339
  239MOL0     H32232   4.389   7.748   4.282  2.2408  2.6504 -2.1371
  239MOL0     H32233   4.220   7.673   4.112  1.0274  1.6611  0.9165
  239MOL0     H32234   4.277   7.511   4.131 -0.4297 -0.9582  1.3905
  239MOL0     H32235   4.144   7.680   4.357 -1.9929  0.5328 -1.2861
  239MOL0     H32236   4.220   7.533   4.395  3.7474 -1.9179 -2.5325
  239MOL0     H32237   3.993   7.506   4.371 -0.2057  2.0709  0.2230
  239MOL0     H32238   4.051   7.413   4.236 -1.0681 -0.3141 -0.6907
  239MOL0     H32239   3.933   7.696   4.233  2.3210  1.4113 -2.0824
  239MOL0     H32240   3.984   7.607   4.087 -1.0316  0.1990  0.4764
  239MOL0     H32241   3.778   7.514   4.297 -1.1814  2.4070  0.6489
  239MOL0     H32242   3.811   7.430   4.153  2.9303 -1.0267  3.0206
  239MOL0     H32243   3.721   7.636   4.026  0.6795  2.6907  0.6891
  239MOL0     H32244   3.607   7.544   4.134  0.7311  0.0610  1.4067
  239MOL0     H32245   4.813   7.524   4.029  1.2110  0.6172 -0.1912
  239MOL0     H32246   4.952   7.559   3.843  0.3393  0.4360 -0.8228
  239MOL0     H32247   5.065   7.611   3.439  1.3195 -1.3293  1.1177
  239MOL0     H32248   5.260   7.652   3.297  1.3205  1.9976  0.1629
  239MOL0     H32249   5.250   8.640   4.067  2.5679 -1.6483 -8.0126
  239MOL0     H32250   5.079   8.732   3.896  0.7900  0.8103  1.1359
  239MOL0     H32251   5.049   8.637   3.664  1.0963 -0.3784  1.4825
  239MOL0     H32252   5.229   8.518   3.509  1.6385  0.2585  1.4084
  239MOL0     H32253   5.382   8.325   3.371  0.7348 -0.3866 -2.2662
  239MOL0     H32254   5.243   8.401   3.309  0.9578 -0.7038 -1.0525
  239MOL0     H32255   5.167   8.172   3.224 -0.6313  0.8365  1.9057
  239MOL0     H32256   5.317   8.113   3.271 -1.1122  0.4409  2.3039
  239MOL0     H32257   5.297   8.333   3.064 -1.9424 -1.8086 -3.1482
  239MOL0     H32258   5.306   8.168   3.022  0.1674 -3.2329  2.3557
  239MOL0     H32259   5.525   8.316   3.168 -3.8584 -0.2634  3.9546
  239MOL0     H32260   5.522   8.136   3.147  1.5569  0.9691  0.7813
  239MOL0     H32261   5.564   8.310   2.757  0.5405  0.6289  0.2689
  239MOL0     H32262   4.968   8.182   3.514 -0.7963 -0.3611  1.3930
  239MOL0     H32263   4.739   8.308   3.768 -1.1752 -0.9273 -0.9941
  239MOL0     H32264   4.716   8.240   3.610 -0.7915  3.8381 -0.3197
  239MOL0     H32265   4.830   8.166   3.719  0.0053  0.1748 -0.0876
  240MOL0     O32266  10.381  10.425   7.417 -0.2327  0.2377  0.1268
  240MOL0     C32267  10.415  10.455   7.303  0.0673  0.6399  0.1064
  240MOL0     O32268  10.537  10.521   7.271 -0.1389  0.3586  0.1869
  240MOL0     C32269  10.636  10.529   7.370  0.1253  0.2028 -0.4966
  240MOL0     C32270  10.700  10.652   7.383  0.5504  0.3898 -0.7888
  240MOL0     C32271  10.794  10.668   7.484 -0.3695  0.0881  0.6876
  240MOL0     C32272  10.822  10.563   7.573 -0.0240 -0.2027  0.2814
  240MOL0     O32273  10.922  10.582   7.667  0.6098  0.1105  0.9414
  240MOL0     C32274  10.968  10.465   7.733  0.4251 -1.0537  0.6434
  240MOL0     C32275  11.052  10.505   7.861 -0.1236  1.4017  0.2614
  240MOL0     C32276  11.190  10.565   7.838  0.4500  0.4464 -0.1323
  240MOL0     C32277  11.266  10.537   7.977  0.8177 -0.6029  0.2633
  240MOL0     C32278  11.398  10.612   7.985 -0.3345  0.5710 -0.2374
  240MOL0     C32279  11.475  10.579   8.114 -0.4218  0.1862 -0.5232
  240MOL0     C32280  11.593  10.680   8.128 -0.8143 -1.3115 -0.6263
  240MOL0     C32281  11.688  10.645   8.242 -0.7379 -0.5624  0.2820
  240MOL0     N32282  11.782  10.764   8.257 -0.3196 -0.1650 -0.6432
  240MOL0     C32283  11.895  10.777   8.183 -0.2002 -0.4523  1.1803
  240MOL0     C32284  11.940  10.897   8.225  1.0495 -0.5686  0.4716
  240MOL0     C32285  12.067  10.956   8.179  0.0866  0.1605 -0.2592
  240MOL0     C32286  12.157  10.975   8.310  0.2057 -0.6224 -0.1739
  240MOL0     C32287  12.293  11.046   8.263  0.4161  1.0070 -0.9016
  240MOL0     C32288  12.387  10.949   8.191 -0.8541  0.6056 -0.0829
  240MOL0     O32289  12.424  10.856   8.290  0.3332  0.2970  0.2554
  240MOL0     C32290  12.515  10.761   8.251 -0.6121  0.4049  0.9962
  240MOL0     C32291  12.548  10.730   8.121 -0.3613  0.6744 -0.0209
  240MOL0     C32292  12.651  10.635   8.097  0.1069 -1.0268 -0.2797
  240MOL0     C32293  12.719  10.580   8.207  0.5604  0.5136  0.7822
  240MOL0     C32294  12.831  10.485   8.170 -0.0366 -1.2019  0.0436
  240MOL0     O32295  12.901  10.432   8.277 -0.1738  0.0126 -0.0149
  240MOL0     C32296  13.019  10.365   8.252  0.2971  0.4050  0.0639
  240MOL0     C32297  13.041  10.241   8.306  0.2437  0.6320  0.4651
  240MOL0     C32298  13.157  10.171   8.282  0.2325  1.2038  0.7253
  240MOL0     C32299  13.265  10.232   8.220 -0.0393  1.1959 -0.4847
  240MOL0     O32300  13.387  10.172   8.214 -0.4410  0.4445 -0.2106
  240MOL0     C32301  13.484  10.231   8.301  0.6872 -0.0420  0.0857
  240MOL0     C32302  13.525  10.138   8.406 -0.0134 -0.1419  0.9416
  240MOL0     C32303  13.603  10.014   8.353  0.3137  0.8505  0.1897
  240MOL0     C32304  13.730  10.044   8.266  0.0964  0.0976 -0.8919
  240MOL0     C32305  13.827   9.921   8.239 -0.0325  0.2692  0.0154
  240MOL0     C32306  13.749   9.801   8.197  0.2153 -0.5135  0.6701
  240MOL0     C32307  13.685   9.813   8.059  0.6128  0.0143 -0.1445
  240MOL0     C32308  13.587   9.699   8.032  0.5048 -0.7703 -0.3799
  240MOL0    Cl32309  13.680   9.531   8.032  0.4225 -0.5272 -0.0532
  240MOL0     C32310  13.254  10.356   8.162  0.4807 -0.2667  0.0670
  240MOL0     C32311  13.128  10.423   8.182  0.0623 -0.0836 -0.9288
  240MOL0     O32312  12.864  10.468   8.053 -0.6821  1.0796  0.1978
  240MOL0     C32313  12.687  10.607   8.336  0.3536  0.2783 -0.3101
  240MOL0     C32314  12.584  10.700   8.357  0.7575 -0.4072 -1.0913
  240MOL0     N32315  11.866  10.959   8.318  0.2547  0.7331  0.1212
  240MOL0     N32316  11.768  10.873   8.336  0.1487  0.1838  0.6657
  240MOL0     C32317  10.756  10.438   7.547 -0.1495 -0.2857  0.1034
  240MOL0     C32318  10.664  10.420   7.451  0.8695 -0.0406 -0.4295
  240MOL0     C32319  10.314  10.434   7.187 -0.8230 -0.1093 -1.5611
  240MOL0     C32320  10.330  10.514   7.065  0.3149  0.5752  0.4892
  240MOL0     C32321  10.228  10.517   6.969 -0.2279 -0.4317  0.7218
  240MOL0     C32322  10.118  10.431   6.978 -0.6219  0.7144 -0.0403
  240MOL0     O32323  10.024  10.419   6.881  0.1244  0.1389 -0.2506
  240MOL0     C32324   9.907  10.500   6.899 -0.0804 -0.6255 -0.5287
  240MOL0     C32325   9.848  10.540   6.768 -0.0500  0.1137 -0.3337
  240MOL0     C32326   9.792  10.421   6.691 -0.1882  0.9543  0.9772
  240MOL0     C32327   9.641  10.437   6.653 -0.4457  0.4059  0.1205
  240MOL0     C32328   9.561  10.410   6.764 -0.1544  0.4461 -0.4329
  240MOL0     C32329   9.491  10.370   6.856  0.0524 -0.0909  0.1397
  240MOL0     C32330  10.110  10.344   7.088 -0.2096  0.4328 -1.0121
  240MOL0     C32331  10.197  10.343   7.194  0.8377 -0.3010 -1.5508
  240MOL0     C32332  10.155  10.265   7.314  0.0349  0.0505 -0.0570
  240MOL0     H32333  10.664  10.738   7.327 -1.2735 -0.5256 -1.0798
  240MOL0     H32334  10.847  10.758   7.515  1.6165 -1.0845  0.8015
  240MOL0     H32335  10.874  10.425   7.771  0.1645 -0.9953  0.0643
  240MOL0     H32336  11.028  10.400   7.669  0.3433 -0.6320  0.1268
  240MOL0     H32337  11.069  10.414   7.919  0.5590  1.3421 -0.0220
  240MOL0     H32338  10.999  10.579   7.921 -1.2937 -0.7845  2.0383
  240MOL0     H32339  11.167  10.670   7.819  0.3531  0.1583 -1.7780
  240MOL0     H32340  11.243  10.517   7.756 -0.6560  0.0345 -0.6263
  240MOL0     H32341  11.200  10.558   8.061 -0.8779 -1.1688 -0.8908
  240MOL0     H32342  11.290  10.430   7.982 -1.0586 -1.2732 -2.7358
  240MOL0     H32343  11.464  10.585   7.902 -1.9571 -1.2772 -1.0150
  240MOL0     H32344  11.368  10.718   7.983 -0.0741  0.6450 -0.2247
  240MOL0     H32345  11.409  10.587   8.201  0.0271 -1.7831  0.0459
  240MOL0     H32346  11.510  10.476   8.128 -0.8089  0.4693  4.2800
  240MOL0     H32347  11.549  10.777   8.150 -1.4327 -1.5522 -0.7847
  240MOL0     H32348  11.643  10.684   8.030  0.9234 -0.7428  0.2464
  240MOL0     H32349  11.640  10.615   8.336 -0.5525 -3.5597 -0.4829
  240MOL0     H32350  11.752  10.560   8.217  0.1856  0.9124 -2.9326
  240MOL0     H32351  11.942  10.706   8.116  0.9376 -1.1924  2.7250
  240MOL0     H32352  12.106  10.878   8.113 -3.1819 -0.9204 -1.0896
  240MOL0     H32353  12.052  11.049   8.124  1.6432  0.5709 -0.0378
  240MOL0     H32354  12.111  11.038   8.387 -1.1276 -1.9706  0.1852
  240MOL0     H32355  12.171  10.877   8.356 -0.5417 -0.0969  1.2686
  240MOL0     H32356  12.346  11.076   8.354 -0.3012 -0.9655  0.2363
  240MOL0     H32357  12.284  11.132   8.197 -1.7825 -0.3334 -2.4869
  240MOL0     H32358  12.480  10.996   8.157 -0.1563  0.2191  1.2111
  240MOL0     H32359  12.325  10.906   8.113  1.1769 -1.5795 -0.5949
  240MOL0     H32360  12.524  10.788   8.032  0.6368 -1.3281 -1.7012
  240MOL0     H32361  12.685  10.622   7.994  1.6873 -2.0267  0.3159
  240MOL0     H32362  12.955  10.195   8.352 -0.3198  1.1371 -0.0693
  240MOL0     H32363  13.170  10.072   8.326 -1.9831  0.2387 -0.6316
  240MOL0     H32364  13.565  10.264   8.235 -1.6704  0.2281 -2.8849
  240MOL0     H32365  13.450  10.323   8.350  2.9409  0.7354  0.3048
  240MOL0     H32366  13.598  10.187   8.471  2.0746 -1.4391 -0.2865
  240MOL0     H32367  13.442  10.102   8.467 -1.8838 -2.2425 -2.4852
  240MOL0     H32368  13.631   9.955   8.440 -0.8297 -2.2726 -1.4209
  240MOL0     H32369  13.522   9.955   8.310 -1.6253  0.2467  4.1701
  240MOL0     H32370  13.781  10.128   8.315  0.2366  0.3589 -1.4817
  240MOL0     H32371  13.705  10.079   8.166  1.1471 -0.7610 -1.4768
  240MOL0     H32372  13.885   9.894   8.327  2.4758 -0.3150 -1.6868
  240MOL0     H32373  13.897   9.948   8.159  1.0749 -2.8653 -0.2092
  240MOL0     H32374  13.820   9.718   8.186 -0.1374 -0.4789 -2.8319
  240MOL0     H32375  13.674   9.769   8.270 -2.1443  1.4205 -0.7369
  240MOL0     H32376  13.758   9.823   7.978  0.6277 -0.7380 -0.2321
  240MOL0     H32377  13.630   9.907   8.056 -0.7476 -0.7328  0.5304
  240MOL0     H32378  13.508   9.702   8.107  0.9537  0.8302  0.0658
  240MOL0     H32379  13.545   9.710   7.932  1.3925  2.4075 -0.5035
  240MOL0     H32380  13.340  10.400   8.111  1.2718 -2.6592 -0.8084
  240MOL0     H32381  13.109  10.523   8.145  0.3998  1.0076  1.6645
  240MOL0     H32382  12.747  10.559   8.413  0.5242 -0.3048 -0.7993
  240MOL0     H32383  12.565  10.724   8.461  0.8904  0.7849 -1.3313
  240MOL0     H32384  10.786  10.347   7.599  2.1998  0.8645  0.8848
  240MOL0     H32385  10.609  10.329   7.430 -0.6911  0.7532  0.0634
  240MOL0     H32386  10.414  10.583   7.056 -1.0918  2.2417 -0.2853
  240MOL0     H32387  10.223  10.585   6.885 -0.7247 -1.5644 -0.2020
  240MOL0     H32388   9.922  10.600   6.942 -1.1278  2.1616 -5.7640
  240MOL0     H32389   9.839  10.441   6.960  0.3434 -0.9648 -0.3719
  240MOL0     H32390   9.918  10.594   6.704  0.3900  0.6858  0.6170
  240MOL0     H32391   9.763  10.606   6.790  0.8983  0.4880  2.6126
  240MOL0     H32392   9.793  10.329   6.750  0.1847  0.1237 -0.2794
  240MOL0     H32393   9.851  10.400   6.601 -0.8542 -0.3465  0.8254
  240MOL0     H32394   9.616  10.535   6.610  0.7814  1.3043  1.3714
  240MOL0     H32395   9.618  10.360   6.579  1.4143 -0.8475  0.7569
  240MOL0     H32396   9.442  10.322   6.939  2.7160 -2.2734  0.5887
  240MOL0     H32397  10.040  10.260   7.090 -0.5439  0.7235 -0.1521
  240MOL0     H32398  10.245  10.230   7.365  0.6340  0.4705 -0.8011
  240MOL0     H32399  10.105  10.331   7.385  2.0768 -2.0102  3.6107
  240MOL0     H32400  10.076  10.193   7.289 -2.7526  3.2372 -1.2838
  241MOL0     O32401  10.454   7.947   8.676  0.0483  0.2421  0.5773
  241MOL0     C32402  10.420   7.831   8.694  0.2361 -0.3534 -0.5110
  241MOL0     O32403  10.510   7.739   8.738 -0.6502 -0.1273 -0.4764
  241MOL0     C32404  10.644   7.766   8.726  0.0853  0.0721  0.2650
  241MOL0     C32405  10.719   7.842   8.814 -0.6517  0.5808 -0.6366
  241MOL0     C32406  10.848   7.881   8.782 -0.5323 -0.1027  0.7730
  241MOL0     C32407  10.913   7.842   8.670 -0.4693  1.2308  0.1798
  241MOL0     O32408  11.039   7.889   8.647  0.0742  0.4074  0.5429
  241MOL0     C32409  11.135   7.801   8.584 -0.2078  0.0283 -0.2044
  241MOL0     C32410  11.275   7.856   8.615  0.0260  1.3238 -0.6576
  241MOL0     C32411  11.396   7.756   8.584  0.2381 -0.1148 -0.4379
  241MOL0     C32412  11.517   7.836   8.550 -0.6962 -0.1801  0.3943
  241MOL0     C32413  11.630   7.748   8.510 -0.0822 -0.6860 -0.0296
  241MOL0     C32414  11.770   7.823   8.549  0.0877 -0.2556 -1.0865
  241MOL0     C32415  11.894   7.740   8.556 -0.3047  0.5737  0.6449
  241MOL0     C32416  11.925   7.680   8.416  0.3501 -0.0801 -0.1673
  241MOL0     N32417  12.030   7.579   8.403  0.4787 -0.4311 -0.1719
  241MOL0     C32418  12.159   7.594   8.349  0.8462 -0.2160 -0.0310
  241MOL0     C32419  12.218   7.469   8.340  0.4471  0.1840 -0.3551
  241MOL0     C32420  12.355   7.438   8.293  0.3735 -0.0402  0.1726
  241MOL0     C32421  12.433   7.394   8.414 -1.0531 -0.2608  0.3380
  241MOL0     C32422  12.567   7.334   8.367 -0.2969 -0.1191  0.4269
  241MOL0     C32423  12.650   7.280   8.488  0.1719 -0.7012  0.7662
  241MOL0     O32424  12.660   7.386   8.588  0.0762 -0.2504  0.8182
  241MOL0     C32425  12.687   7.346   8.713 -0.3698 -0.0053  0.3776
  241MOL0     C32426  12.601   7.386   8.821  0.4082  0.3211 -0.4856
  241MOL0     C32427  12.609   7.327   8.953  0.1456  0.0644 -0.0247
  241MOL0     C32428  12.700   7.230   8.979  0.4434 -0.9645 -0.9918
  241MOL0     C32429  12.719   7.174   9.120 -0.0857  0.3395 -0.8227
  241MOL0     O32430  12.837   7.120   9.157  0.3616 -0.5151  0.3429
  241MOL0     C32431  12.859   7.068   9.283 -0.2494 -0.3240  0.5419
  241MOL0     C32432  12.972   7.088   9.345 -0.2939 -0.2500 -0.2218
  241MOL0     C32433  13.010   7.025   9.465  0.3808  0.0208 -0.0072
  241MOL0     C32434  12.925   6.926   9.518 -0.0278  0.5906  0.2453
  241MOL0     O32435  12.953   6.846   9.629 -0.3655  0.2106  0.2359
  241MOL0     C32436  13.092   6.850   9.679  0.6516  0.4563 -0.4820
  241MOL0     C32437  13.098   6.779   9.811 -0.0762  0.7019  0.5487
  241MOL0     C32438  13.240   6.757   9.845 -0.0869 -0.2536 -0.7944
  241MOL0     C32439  13.307   6.875   9.922  0.4494 -0.6689 -0.0177
  241MOL0     C32440  13.379   6.840  10.049  0.4500 -0.9055  0.7952
  241MOL0     C32441  13.289   6.766  10.161  0.2467 -0.1102 -0.2830
  241MOL0     C32442  13.267   6.847  10.294 -0.1975  0.3547 -0.7225
  241MOL0     C32443  13.144   6.940  10.281  0.4571  0.5619 -0.0719
  241MOL0    Cl32444  13.097   7.014  10.431  0.3710  0.1174  0.0425
  241MOL0     C32445  12.803   6.899   9.452 -0.5088 -0.0012  0.0158
  241MOL0     C32446  12.770   6.968   9.334  0.1800 -0.5287  0.0578
  241MOL0     O32447  12.621   7.192   9.190 -0.0011 -0.6695  0.3415
  241MOL0     C32448  12.798   7.200   8.882  0.0054  0.2372  0.7832
  241MOL0     C32449  12.789   7.254   8.743 -0.2336  0.6373 -0.0041
  241MOL0     N32450  12.122   7.380   8.404 -0.7690  0.0490  0.6066
  241MOL0     N32451  12.009   7.444   8.436 -0.9510  0.3147  0.9731
  241MOL0     C32452  10.842   7.745   8.582  0.6040 -0.2599  0.0653
  241MOL0     C32453  10.707   7.727   8.599 -0.5236 -0.3107 -0.4803
  241MOL0     C32454  10.280   7.788   8.681 -0.7044  0.2979 -0.3675
  241MOL0     C32455  10.205   7.840   8.571  0.9010  0.0582  0.0019
  241MOL0     C32456  10.067   7.803   8.539  0.0523  0.2748  0.1615
  241MOL0     C32457  10.009   7.723   8.649  0.2672 -0.3717  0.9017
  241MOL0     O32458   9.877   7.689   8.642  0.0288 -0.2349 -0.4593
  241MOL0     C32459   9.785   7.780   8.711 -0.1471  0.1736 -0.3545
  241MOL0     C32460   9.676   7.833   8.618 -0.3117  0.5043 -0.2647
  241MOL0     C32461   9.588   7.938   8.696 -0.2945  0.5514  0.1363
  241MOL0     C32462   9.653   8.081   8.700  0.1364  0.5091 -0.2013
  241MOL0     C32463   9.629   8.162   8.818 -0.5591  0.1116 -0.8561
  241MOL0     C32464   9.605   8.231   8.917 -0.1126  0.4660 -0.7635
  241MOL0     C32465  10.083   7.680   8.760 -1.1537  0.4175  0.5291
  241MOL0     C32466  10.217   7.699   8.777 -0.4800  0.6610 -1.4778
  241MOL0     C32467  10.284   7.630   8.897  0.0783 -0.1725  0.2261
  241MOL0     H32468  10.675   7.868   8.910  0.3226  1.3595 -0.3818
  241MOL0     H32469  10.916   7.926   8.854  0.2219  2.0036 -1.1138
  241MOL0     H32470  11.121   7.704   8.632 -3.0049  1.2019  1.6176
  241MOL0     H32471  11.131   7.793   8.475  1.1648 -0.3537 -0.2406
  241MOL0     H32472  11.269   7.875   8.723 -0.5580  1.1540 -0.6610
  241MOL0     H32473  11.292   7.958   8.579  0.1771  2.1319  1.5515
  241MOL0     H32474  11.372   7.695   8.496  2.0834 -0.0410 -1.0364
  241MOL0     H32475  11.407   7.692   8.673 -0.4874  0.3289 -0.0160
  241MOL0     H32476  11.488   7.905   8.470 -0.0965 -0.6556 -0.2448
  241MOL0     H32477  11.554   7.893   8.636  1.7380 -2.6192  1.0979
  241MOL0     H32478  11.621   7.652   8.562  2.0517 -0.0197  1.7205
  241MOL0     H32479  11.630   7.748   8.401 -0.1025 -0.3454 -0.0302
  241MOL0     H32480  11.787   7.910   8.484  3.0231 -0.1856 -0.3742
  241MOL0     H32481  11.764   7.859   8.653  2.5471  3.4395 -2.0323
  241MOL0     H32482  11.886   7.656   8.626 -1.0779  1.1347  1.2423
  241MOL0     H32483  11.979   7.806   8.577  1.3434  0.6680 -4.7974
  241MOL0     H32484  11.828   7.654   8.374  0.6974  0.8202 -1.6214
  241MOL0     H32485  11.962   7.766   8.358 -0.7638  3.2003  3.5179
  241MOL0     H32486  12.201   7.687   8.313  1.2692 -0.0905  0.7762
  241MOL0     H32487  12.338   7.345   8.238  2.7492 -1.7417  2.0804
  241MOL0     H32488  12.397   7.522   8.236 -2.0650  2.1367  1.3562
  241MOL0     H32489  12.464   7.484   8.469 -0.2399 -0.6411  0.5212
  241MOL0     H32490  12.379   7.324   8.479  0.3768 -1.7283 -0.0025
  241MOL0     H32491  12.623   7.420   8.329 -1.8449  1.7511  2.1807
  241MOL0     H32492  12.554   7.249   8.298  1.0122 -0.0783  0.1011
  241MOL0     H32493  12.750   7.248   8.459 -0.1332 -4.7214  3.3667
  241MOL0     H32494  12.595   7.190   8.516 -0.3591 -0.3585  0.8438
  241MOL0     H32495  12.528   7.461   8.794 -0.0595 -0.1645 -0.5859
  241MOL0     H32496  12.540   7.368   9.026  2.1122  1.5090  1.1195
  241MOL0     H32497  13.037   7.166   9.305  0.0919 -1.0052 -1.1054
  241MOL0     H32498  13.103   7.063   9.505 -0.9889  1.9720  1.5155
  241MOL0     H32499  13.165   6.809   9.608  1.3655 -1.0742  1.0569
  241MOL0     H32500  13.119   6.953   9.704  0.6599  0.0989  1.0862
  241MOL0     H32501  13.046   6.834   9.890 -1.6075 -1.0671  0.8499
  241MOL0     H32502  13.054   6.680   9.797  1.1695 -0.2604  2.8578
  241MOL0     H32503  13.235   6.673   9.916  1.4652  0.1365 -0.1834
  241MOL0     H32504  13.292   6.721   9.756  1.5158 -1.0698  0.4150
  241MOL0     H32505  13.226   6.943   9.951 -0.6557 -2.8732  2.4929
  241MOL0     H32506  13.377   6.935   9.863 -0.1422  1.3874  1.2620
  241MOL0     H32507  13.406   6.938  10.090 -0.0421 -0.9095  1.1384
  241MOL0     H32508  13.471   6.790  10.020 -0.3345 -0.7086 -2.3922
  241MOL0     H32509  13.195   6.736  10.116  2.3769 -3.3793 -3.1019
  241MOL0     H32510  13.331   6.667  10.186 -0.6922 -0.7498 -1.1740
  241MOL0     H32511  13.354   6.909  10.316 -1.0182  1.6423 -0.9754
  241MOL0     H32512  13.267   6.774  10.375  2.1945 -0.5334 -1.4461
  241MOL0     H32513  13.164   7.012  10.201  2.0754 -0.4423 -0.6254
  241MOL0     H32514  13.057   6.881  10.249  0.1223 -0.3753  2.3840
  241MOL0     H32515  12.736   6.822   9.488  0.5907 -0.5646  0.9243
  241MOL0     H32516  12.672   6.943   9.296 -0.7738  0.5862  1.6531
  241MOL0     H32517  12.861   7.113   8.898 -0.7385 -0.5456 -0.3589
  241MOL0     H32518  12.856   7.218   8.666  0.4850  2.3961 -0.2529
  241MOL0     H32519  10.877   7.695   8.492 -1.7619  0.4222 -1.3259
  241MOL0     H32520  10.642   7.664   8.538 -1.0983  0.1599 -0.3647
  241MOL0     H32521  10.241   7.911   8.498 -0.4160 -0.2490 -0.9744
  241MOL0     H32522  10.011   7.835   8.452 -3.3035  0.1552  2.0757
  241MOL0     H32523   9.846   7.853   8.765  1.8953  0.2281 -2.5579
  241MOL0     H32524   9.725   7.720   8.781 -2.2804  0.0867 -2.1628
  241MOL0     H32525   9.606   7.758   8.581 -1.9332  1.3634  0.8847
  241MOL0     H32526   9.713   7.875   8.524 -0.6565 -2.2694 -1.7246
  241MOL0     H32527   9.569   7.907   8.799  1.0980  0.0597  0.2671
  241MOL0     H32528   9.488   7.942   8.652 -0.6016 -1.3244  0.6002
  241MOL0     H32529   9.761   8.082   8.685  0.3091  2.5138  0.8558
  241MOL0     H32530   9.617   8.131   8.610 -0.5267  0.1909 -0.1207
  241MOL0     H32531   9.575   8.282   9.006  0.9939 -0.4193  0.1578
  241MOL0     H32532  10.030   7.634   8.842  0.8597  0.4528  1.9287
  241MOL0     H32533  10.368   7.694   8.926 -1.5622  2.4825 -0.5247
  241MOL0     H32534  10.210   7.631   8.978  1.9282  0.2608  1.9895
  241MOL0     H32535  10.311   7.527   8.873  0.0184 -0.3564  0.9279
  242MOL0     O32536   4.070   4.229   5.658 -0.1511  1.1374  0.2432
  242MOL0     C32537   3.983   4.267   5.581 -0.3160 -0.4258  0.0085
  242MOL0     O32538   3.964   4.397   5.554  0.4313  0.6389  0.1280
  242MOL0     C32539   4.004   4.479   5.651  0.2353 -0.6141 -0.2374
  242MOL0     C32540   4.097   4.591   5.620 -0.3248  0.3728 -0.4175
  242MOL0     C32541   4.133   4.689   5.711  0.4593 -0.1707 -0.2259
  242MOL0     C32542   4.089   4.680   5.845  0.1762  1.4801  0.0735
  242MOL0     O32543   4.117   4.782   5.941 -0.0195 -0.5496 -0.6090
  242MOL0     C32544   4.117   4.920   5.881  0.4361 -0.5653  0.1871
  242MOL0     C32545   4.124   5.024   5.991  0.5328  0.5109  0.5018
  242MOL0     C32546   4.266   5.066   6.028  0.6003 -0.0881 -0.3362
  242MOL0     C32547   4.323   5.151   5.924 -0.0073 -0.4330  0.2502
  242MOL0     C32548   4.438   5.238   5.986  0.1995 -0.0348 -0.8771
  242MOL0     C32549   4.541   5.298   5.876 -0.8221 -0.0650  0.4645
  242MOL0     C32550   4.617   5.415   5.931 -0.2808 -0.1686  0.4801
  242MOL0     C32551   4.728   5.452   5.841  0.1002 -0.2275  0.3869
  242MOL0     N32552   4.820   5.550   5.903  1.3914 -0.0144 -0.1280
  242MOL0     C32553   4.950   5.516   5.943 -0.4256 -0.6061 -0.0456
  242MOL0     C32554   4.998   5.623   6.004 -0.0316 -0.4353  0.4881
  242MOL0     C32555   5.143   5.631   6.047 -0.0870 -0.7057 -0.2798
  242MOL0     C32556   5.147   5.640   6.205 -0.3367  0.6686  0.4525
  242MOL0     C32557   5.132   5.512   6.284 -0.3564  0.5613  0.2461
  242MOL0     C32558   4.991   5.480   6.319  0.3721  0.1358 -0.1073
  242MOL0     O32559   4.986   5.352   6.387  0.5907  0.8070  0.5499
  242MOL0     C32560   4.870   5.281   6.389 -0.1766  0.4441 -0.8093
  242MOL0     C32561   4.751   5.326   6.337 -0.8244  0.3490  0.0271
  242MOL0     C32562   4.637   5.245   6.336 -0.5139  0.5661 -0.2482
  242MOL0     C32563   4.630   5.125   6.404 -0.4647 -1.0499  0.1050
  242MOL0     C32564   4.501   5.046   6.397  0.2547 -1.1746 -0.5878
  242MOL0     O32565   4.499   4.926   6.448 -0.0777  0.5639 -0.4176
  242MOL0     C32566   4.408   4.838   6.400  0.3449  0.3436  0.1289
  242MOL0     C32567   4.398   4.791   6.267  0.6816 -0.1658  0.5143
  242MOL0     C32568   4.304   4.697   6.215 -0.2476 -0.1823 -0.0367
  242MOL0     C32569   4.205   4.657   6.298 -0.2651  0.5636 -0.3302
  242MOL0     O32570   4.110   4.575   6.242 -0.8474 -0.5467 -0.6285
  242MOL0     C32571   3.981   4.630   6.262 -0.1294  0.4989 -0.0593
  242MOL0     C32572   3.910   4.557   6.376  0.0595  0.2864 -0.2282
  242MOL0     C32573   3.910   4.405   6.379  0.2362  0.5868 -0.5227
  242MOL0     C32574   3.830   4.343   6.259  0.1346 -0.4713  0.1561
  242MOL0     C32575   3.856   4.193   6.242  0.5903 -0.0001 -1.0304
  242MOL0     C32576   4.001   4.160   6.191  0.9942  0.0702 -0.8441
  242MOL0     C32577   4.001   4.010   6.150 -0.6375 -0.8696 -0.2062
  242MOL0     C32578   4.094   4.008   6.018  0.4043 -0.1871 -0.5808
  242MOL0    Cl32579   4.098   3.834   5.979 -0.1643 -0.4011  0.2062
  242MOL0     C32580   4.213   4.686   6.441  0.0570 -0.2917  0.1184
  242MOL0     C32581   4.313   4.775   6.486  0.2505  0.7047 -0.4260
  242MOL0     O32582   4.408   5.111   6.348  0.6173 -0.1912 -0.6628
  242MOL0     C32583   4.755   5.076   6.454 -0.3719 -0.1863 -0.0288
  242MOL0     C32584   4.880   5.148   6.441 -0.3207 -0.6057  0.4133
  242MOL0     N32585   4.898   5.716   6.021  0.7568 -0.4387  0.2790
  242MOL0     N32586   4.788   5.667   5.967  0.0931 -0.2315  0.5290
  242MOL0     C32587   4.009   4.566   5.878  0.0351 -0.0576  0.5974
  242MOL0     C32588   3.977   4.470   5.783 -0.0501 -0.5866  0.6575
  242MOL0     C32589   3.917   4.171   5.501 -0.2057  0.2961 -0.8757
  242MOL0     C32590   3.881   4.199   5.361 -0.0894  0.5257  0.0862
  242MOL0     C32591   3.811   4.103   5.288  0.3810 -0.2460  0.6651
  242MOL0     C32592   3.756   3.988   5.345  0.4867  0.6224 -0.0027
  242MOL0     O32593   3.677   3.910   5.273 -0.0240 -0.2577 -0.3319
  242MOL0     C32594   3.681   3.769   5.281  0.3377  0.6307 -0.7678
  242MOL0     C32595   3.644   3.705   5.144  0.3006 -0.3854  0.1197
  242MOL0     C32596   3.616   3.552   5.155 -0.0508  0.6604  0.6583
  242MOL0     C32597   3.602   3.501   5.020  0.3833  0.5037 -0.2767
  242MOL0     C32598   3.723   3.507   4.942  0.0202  0.3828  0.2064
  242MOL0     C32599   3.814   3.530   4.863  0.7933 -0.0470  0.4048
  242MOL0     C32600   3.797   3.959   5.480  0.3447  0.6574  0.6174
  242MOL0     C32601   3.885   4.043   5.548 -0.6111 -0.0670 -0.1483
  242MOL0     C32602   3.923   3.996   5.683 -0.0456 -0.2591 -0.4403
  242MOL0     H32603   4.136   4.599   5.520  3.4474  2.9665  1.0598
  242MOL0     H32604   4.195   4.773   5.683 -1.1579  0.9464 -0.6125
  242MOL0     H32605   4.200   4.941   5.813  2.7691 -2.1415  2.3535
  242MOL0     H32606   4.019   4.922   5.833  0.2818  0.9395  0.5100
  242MOL0     H32607   4.067   4.976   6.071 -2.9853  2.2500 -0.7313
  242MOL0     H32608   4.074   5.117   5.962 -0.0624  0.5431  1.5690
  242MOL0     H32609   4.328   4.979   6.050 -2.3663 -2.1736  0.3750
  242MOL0     H32610   4.262   5.123   6.122  0.8194  1.4303 -1.2081
  242MOL0     H32611   4.365   5.082   5.851 -1.7181 -1.2021 -0.0637
  242MOL0     H32612   4.251   5.223   5.883 -0.7823 -3.0197 -3.3481
  242MOL0     H32613   4.387   5.325   6.030 -1.5288 -0.5177 -1.8270
  242MOL0     H32614   4.499   5.172   6.049 -3.1421 -2.1126  0.5372
  242MOL0     H32615   4.608   5.221   5.837  1.2450  1.2545  1.2893
  242MOL0     H32616   4.482   5.341   5.794  0.7739  2.7160  0.6331
  242MOL0     H32617   4.665   5.391   6.026  1.0618 -1.3496 -0.4629
  242MOL0     H32618   4.546   5.498   5.936  0.6883  0.6215  1.5829
  242MOL0     H32619   4.777   5.363   5.800 -0.4889 -0.4422  0.1359
  242MOL0     H32620   4.683   5.499   5.753  2.9606  0.4542 -0.8335
  242MOL0     H32621   5.014   5.431   5.923  2.1960  1.6455 -2.1797
  242MOL0     H32622   5.199   5.547   6.003  3.1143  1.6169 -1.0155
  242MOL0     H32623   5.188   5.722   6.007 -0.0878  0.5384  2.3916
  242MOL0     H32624   5.251   5.665   6.228  0.4216 -3.1134  1.9076
  242MOL0     H32625   5.083   5.717   6.248 -0.2986 -0.1687  2.0903
  242MOL0     H32626   5.168   5.536   6.385 -1.4273  0.2174  0.7246
  242MOL0     H32627   5.177   5.425   6.234 -1.0137  0.7126 -0.6335
  242MOL0     H32628   4.927   5.473   6.230 -0.7887 -0.4263  0.7527
  242MOL0     H32629   4.951   5.560   6.381  1.5802  0.3615  0.4037
  242MOL0     H32630   4.741   5.423   6.289  0.4042  1.1089  1.2033
  242MOL0     H32631   4.545   5.291   6.303 -2.1019  0.3488  3.3922
  242MOL0     H32632   4.462   4.840   6.194  1.0700  0.5154  1.2946
  242MOL0     H32633   4.289   4.662   6.113 -1.6035 -0.1990  0.1499
  242MOL0     H32634   3.974   4.738   6.277  1.2075  0.8419 -1.6799
  242MOL0     H32635   3.929   4.601   6.170 -1.8288 -2.2597  1.5763
  242MOL0     H32636   3.950   4.593   6.471  1.4308 -3.1435  0.6527
  242MOL0     H32637   3.802   4.579   6.376 -0.0773 -0.3138 -1.3096
  242MOL0     H32638   4.014   4.373   6.379 -0.4297 -1.7415  0.7524
  242MOL0     H32639   3.866   4.363   6.469  0.0795  0.7950 -0.5014
  242MOL0     H32640   3.856   4.391   6.165 -1.3393 -3.2824 -1.8092
  242MOL0     H32641   3.722   4.356   6.274  0.1751 -0.1659  0.1834
  242MOL0     H32642   3.794   4.143   6.167 -0.0669  2.5216 -2.2744
  242MOL0     H32643   3.852   4.144   6.340  3.3596  1.4571 -0.0776
  242MOL0     H32644   4.022   4.219   6.101 -3.4062  0.4917 -1.8198
  242MOL0     H32645   4.073   4.186   6.269 -0.3162  5.0985 -0.9656
  242MOL0     H32646   3.903   3.962   6.139 -1.7370  1.4193 -1.0266
  242MOL0     H32647   4.046   3.952   6.232 -1.3716  0.1630  0.9588
  242MOL0     H32648   4.046   4.069   5.940 -0.8363  1.1281  1.1465
  242MOL0     H32649   4.197   4.046   6.022 -0.8067  3.4922 -0.4192
  242MOL0     H32650   4.151   4.637   6.515 -0.5204 -2.3604 -1.6428
  242MOL0     H32651   4.311   4.811   6.588 -0.1159 -2.1157  0.6351
  242MOL0     H32652   4.759   4.978   6.502  0.8191 -1.3391 -2.2908
  242MOL0     H32653   4.967   5.102   6.489 -0.8846 -3.3218 -1.0197
  242MOL0     H32654   3.992   4.542   5.983 -0.2979 -0.1059  0.5342
  242MOL0     H32655   3.910   4.393   5.819 -0.7717 -0.9857 -1.3825
  242MOL0     H32656   3.920   4.292   5.322  0.5965 -0.8962 -2.8941
  242MOL0     H32657   3.788   4.132   5.186  2.0597  4.7563  1.4252
  242MOL0     H32658   3.628   3.732   5.369  3.6874  0.8885  1.5447
  242MOL0     H32659   3.781   3.726   5.292 -0.8558 -3.4671 -3.5587
  242MOL0     H32660   3.725   3.718   5.072  0.8349 -1.6620  0.4633
  242MOL0     H32661   3.554   3.747   5.098 -0.1119 -1.1964  0.1702
  242MOL0     H32662   3.514   3.533   5.191 -0.3781  2.7529  0.9546
  242MOL0     H32663   3.684   3.502   5.225  0.1122  1.2044  0.8927
  242MOL0     H32664   3.581   3.397   5.043  0.9646  0.9511  2.7148
  242MOL0     H32665   3.522   3.556   4.971  0.1015  0.8378  0.5356
  242MOL0     H32666   3.894   3.548   4.793 -0.6251  2.0790 -0.7746
  242MOL0     H32667   3.758   3.867   5.522  1.7231  0.2657  1.0925
  242MOL0     H32668   4.025   3.961   5.700 -1.4351 -2.7714  4.9591
  242MOL0     H32669   3.898   4.069   5.761 -1.5381 -0.6663 -0.5075
  242MOL0     H32670   3.869   3.905   5.712  1.2925 -0.9088  0.0809
  243MOL0     O32671   0.427   0.209   4.018 -0.7830 -1.0263 -0.3559
  243MOL0     C32672   0.374   0.117   4.075  0.3142  0.7286 -0.0881
  243MOL0     O32673   0.438  -0.003   4.107  0.1427  0.5451  0.3502
  243MOL0     C32674   0.543  -0.046   4.031  0.5937 -0.2360 -0.3850
  243MOL0     C32675   0.515  -0.113   3.907  0.2422 -0.3005 -0.3135
  243MOL0     C32676   0.620  -0.187   3.848  0.7686 -0.4533  0.3760
  243MOL0     C32677   0.746  -0.191   3.899  0.0678 -0.9881 -0.3622
  243MOL0     O32678   0.837  -0.256   3.830  0.3344  0.2515 -0.0154
  243MOL0     C32679   0.951  -0.168   3.800 -0.2860  0.9391  0.9921
  243MOL0     C32680   1.062  -0.252   3.726 -0.1267  0.2061  0.4305
  243MOL0     C32681   1.190  -0.164   3.724 -0.0943 -0.4363  0.1028
  243MOL0     C32682   1.274  -0.234   3.616 -0.3574 -0.3226  0.2418
  243MOL0     C32683   1.407  -0.157   3.621 -0.5726  0.0749  0.1117
  243MOL0     C32684   1.487  -0.222   3.508 -1.2673  0.2850  0.1313
  243MOL0     C32685   1.627  -0.192   3.540 -1.3181  0.2779  0.2831
  243MOL0     C32686   1.724  -0.249   3.433  0.1793  0.7825  0.2495
  243MOL0     N32687   1.856  -0.222   3.487  0.6018  0.5770 -0.4481
  243MOL0     C32688   1.922  -0.309   3.582  0.0229 -0.5268  0.5029
  243MOL0     C32689   2.050  -0.262   3.593 -0.6206  0.0483 -0.5403
  243MOL0     C32690   2.168  -0.325   3.656 -0.2719 -0.1050 -0.0829
  243MOL0     C32691   2.299  -0.309   3.570 -0.2436  0.9289  0.0566
  243MOL0     C32692   2.406  -0.371   3.644  0.3837 -0.6561 -0.2599
  243MOL0     C32693   2.532  -0.378   3.554 -0.3028 -0.9135 -0.4385
  243MOL0     O32694   2.623  -0.434   3.650 -0.9048 -0.3319 -0.0209
  243MOL0     C32695   2.758  -0.416   3.643 -0.3228  0.3352 -0.1485
  243MOL0     C32696   2.839  -0.472   3.744  0.0445 -0.3447 -0.3379
  243MOL0     C32697   2.982  -0.474   3.746 -0.8156  0.3997 -0.5835
  243MOL0     C32698   3.056  -0.406   3.644  0.3631 -0.5732  0.0959
  243MOL0     C32699   3.198  -0.389   3.645  0.7235  0.1350 -0.6325
  243MOL0     O32700   3.255  -0.343   3.536 -0.5782  0.0853 -0.3733
  243MOL0     C32701   3.386  -0.301   3.549  0.0469  1.0845 -0.1804
  243MOL0     C32702   3.427  -0.185   3.614  0.2034 -0.1959  0.7364
  243MOL0     C32703   3.564  -0.147   3.612 -0.0637  0.2066 -0.4999
  243MOL0     C32704   3.657  -0.224   3.539  0.3289 -1.2219 -0.5225
  243MOL0     O32705   3.781  -0.169   3.525 -0.4723  0.2956 -0.4539
  243MOL0     C32706   3.865  -0.198   3.644  0.9780  0.4130  0.7977
  243MOL0     C32707   4.016  -0.213   3.605 -0.0593 -0.1294 -0.8935
  243MOL0     C32708   4.038  -0.343   3.542 -0.2790  0.2608  0.6364
  243MOL0     C32709   4.180  -0.355   3.472 -1.0418 -0.0356 -0.1146
  243MOL0     C32710   4.189  -0.468   3.373  0.7370 -0.4591 -0.5900
  243MOL0     C32711   4.174  -0.605   3.449  0.7481 -0.8256  0.3645
  243MOL0     C32712   4.217  -0.708   3.344  0.1228 -0.3046  0.0267
  243MOL0     C32713   4.241  -0.844   3.412 -0.6983 -0.2268  0.0851
  243MOL0    Cl32714   4.164  -0.980   3.319 -0.1313  0.0294 -0.0630
  243MOL0     C32715   3.617  -0.336   3.467  0.0476  0.5325  0.5479
  243MOL0     C32716   3.481  -0.371   3.478  0.9272 -0.1098  0.3730
  243MOL0     O32717   3.252  -0.390   3.758  0.0792 -0.0768  0.8813
  243MOL0     C32718   2.970  -0.351   3.543  0.1127  0.2849 -0.1994
  243MOL0     C32719   2.830  -0.366   3.545  1.0108  0.3621  0.0833
  243MOL0     N32720   2.066  -0.146   3.513 -0.2630  0.1175 -0.0935
  243MOL0     N32721   1.949  -0.136   3.441  0.7462 -0.4490  1.0981
  243MOL0     C32722   0.772  -0.120   4.019  0.0385 -0.3011 -0.5599
  243MOL0     C32723   0.672  -0.048   4.088 -0.8206  0.9535  0.6790
  243MOL0     C32724   0.241   0.145   4.131  0.2558  0.8394  0.2127
  243MOL0     C32725   0.176   0.269   4.125 -0.4844 -0.6117  0.3258
  243MOL0     C32726   0.048   0.295   4.172 -0.0453 -0.1384 -0.5205
  243MOL0     C32727  -0.026   0.192   4.222  0.3490 -0.8177 -0.0622
  243MOL0     O32728  -0.156   0.227   4.263 -0.2090  0.0357  0.5539
  243MOL0     C32729  -0.255   0.121   4.277 -0.2146 -0.8853 -0.3346
  243MOL0     C32730  -0.398   0.185   4.281  0.0377  0.6049  0.3338
  243MOL0     C32731  -0.516   0.098   4.277 -0.0380  0.0543 -0.6024
  243MOL0     C32732  -0.603   0.152   4.396  1.2821  0.1488 -0.1238
  243MOL0     C32733  -0.733   0.082   4.390  0.8377 -0.0537  0.7733
  243MOL0     C32734  -0.838   0.020   4.395 -0.4913  0.2960 -0.9849
  243MOL0     C32735   0.033   0.070   4.231  0.3581  0.3965 -0.1699
  243MOL0     C32736   0.159   0.039   4.188 -0.3298  0.1485 -0.0038
  243MOL0     C32737   0.206  -0.101   4.214 -0.4038  0.3348  1.1041
  243MOL0     H32738   0.411  -0.124   3.878 -0.5939  2.4255  1.2672
  243MOL0     H32739   0.586  -0.235   3.757 -1.7802  0.6478  0.6643
  243MOL0     H32740   0.919  -0.080   3.743  0.2113  0.4238 -0.1158
  243MOL0     H32741   1.002  -0.136   3.891 -2.9407 -0.1891  3.0146
  243MOL0     H32742   1.039  -0.268   3.621  2.2346 -2.5594  0.1966
  243MOL0     H32743   1.084  -0.351   3.768 -0.6639 -0.1179 -0.0458
  243MOL0     H32744   1.247  -0.167   3.817  0.3938  0.8796 -0.1321
  243MOL0     H32745   1.159  -0.066   3.689 -0.1288 -0.8862 -1.1989
  243MOL0     H32746   1.294  -0.338   3.641 -1.6257 -0.9049 -1.0540
  243MOL0     H32747   1.223  -0.223   3.520 -1.1203 -1.6409  0.4868
  243MOL0     H32748   1.405  -0.048   3.609 -3.1603  0.1057  0.3411
  243MOL0     H32749   1.455  -0.168   3.719 -2.5820  0.2116  1.1581
  243MOL0     H32750   1.463  -0.328   3.497 -1.3231 -0.0957  3.1742
  243MOL0     H32751   1.455  -0.182   3.411 -2.7105 -5.0837 -1.9445
  243MOL0     H32752   1.656  -0.238   3.635  1.3459 -1.6432 -1.3129
  243MOL0     H32753   1.629  -0.082   3.538 -1.5675  0.3758 -4.5663
  243MOL0     H32754   1.713  -0.357   3.422 -0.4665  0.9028 -0.3168
  243MOL0     H32755   1.718  -0.198   3.337 -0.5941  0.2440  0.0064
  243MOL0     H32756   1.881  -0.399   3.628 -4.4562  0.6786 -0.6366
  243MOL0     H32757   2.188  -0.288   3.756  1.4572 -1.8382  0.2662
  243MOL0     H32758   2.150  -0.433   3.651 -1.0636  0.0609 -1.7192
  243MOL0     H32759   2.279  -0.353   3.472  0.7020 -0.7176  0.5706
  243MOL0     H32760   2.322  -0.203   3.554 -0.8565  1.0095 -0.3604
  243MOL0     H32761   2.370  -0.470   3.676  0.4379 -0.7366 -0.4462
  243MOL0     H32762   2.431  -0.305   3.728  0.5949  1.1607 -1.6959
  243MOL0     H32763   2.557  -0.285   3.504  1.2648 -0.5380  0.9560
  243MOL0     H32764   2.504  -0.451   3.477  0.1899  0.6041 -2.1263
  243MOL0     H32765   2.800  -0.525   3.831  1.0144 -2.0560 -0.9030
  243MOL0     H32766   3.026  -0.523   3.832 -3.5633 -0.1559  0.6166
  243MOL0     H32767   3.359  -0.123   3.672 -1.3023 -1.1199  0.0380
  243MOL0     H32768   3.614  -0.059   3.650 -1.0820  1.1038 -1.1572
  243MOL0     H32769   3.867  -0.116   3.716 -0.0868  2.4785 -1.3824
  243MOL0     H32770   3.839  -0.294   3.690  3.0636 -1.1655 -1.1039
  243MOL0     H32771   4.048  -0.119   3.558  4.3480 -0.8741  0.2330
  243MOL0     H32772   4.070  -0.214   3.700  0.2044  1.6900 -0.9904
  243MOL0     H32773   4.019  -0.427   3.610  0.5690  0.0346  0.6062
  243MOL0     H32774   3.971  -0.347   3.456 -0.2376  1.2317  0.5520
  243MOL0     H32775   4.254  -0.360   3.553 -0.4488  0.7573 -0.5773
  243MOL0     H32776   4.190  -0.255   3.427  1.5949  0.7142  1.8111
  243MOL0     H32777   4.292  -0.458   3.337  0.7089 -0.8148 -0.7763
  243MOL0     H32778   4.116  -0.447   3.295 -0.3733 -2.5884 -0.1881
  243MOL0     H32779   4.240  -0.606   3.536  1.7956 -0.4133 -0.3995
  243MOL0     H32780   4.072  -0.623   3.484  0.3098  0.0272 -0.4542
  243MOL0     H32781   4.304  -0.690   3.280 -0.3782  0.0403 -0.5714
  243MOL0     H32782   4.135  -0.711   3.272 -1.9002 -0.4980  2.2167
  243MOL0     H32783   4.347  -0.870   3.412 -1.0341 -2.3202 -3.6402
  243MOL0     H32784   4.199  -0.834   3.513 -0.9504  0.0515 -0.0457
  243MOL0     H32785   3.690  -0.401   3.418  1.8817 -1.6535  5.5686
  243MOL0     H32786   3.429  -0.455   3.432 -1.8812  0.6986  1.8390
  243MOL0     H32787   3.007  -0.279   3.470  2.4098 -1.9711 -1.4257
  243MOL0     H32788   2.776  -0.336   3.455  0.2290 -1.3727 -0.0679
  243MOL0     H32789   0.871  -0.131   4.063 -0.2050 -0.1956  0.0173
  243MOL0     H32790   0.695  -0.013   4.188 -0.8326  1.5642  0.4751
  243MOL0     H32791   0.238   0.353   4.093 -0.9501 -1.1661 -2.2089
  243MOL0     H32792  -0.005   0.390   4.171 -0.3098 -0.2175 -3.2382
  243MOL0     H32793  -0.249   0.066   4.371  2.2642  0.9942  0.6922
  243MOL0     H32794  -0.236   0.050   4.195 -1.8327 -1.1487 -0.5106
  243MOL0     H32795  -0.407   0.256   4.198  0.9630  1.0919  0.6305
  243MOL0     H32796  -0.400   0.245   4.372 -0.9733 -1.9585  2.1052
  243MOL0     H32797  -0.498  -0.010   4.287  1.4456  0.3801  0.7523
  243MOL0     H32798  -0.572   0.113   4.185  0.3938  0.2410 -0.8353
  243MOL0     H32799  -0.557   0.113   4.488 -1.9353 -0.5291  1.3265
  243MOL0     H32800  -0.610   0.261   4.406 -1.1983 -0.0964  1.7796
  243MOL0     H32801  -0.930  -0.030   4.418  0.1156  0.6049  2.9366
  243MOL0     H32802  -0.026  -0.007   4.280  0.9292  1.4318  2.3369
  243MOL0     H32803   0.127  -0.150   4.271 -2.0225 -1.9539 -2.7219
  243MOL0     H32804   0.213  -0.166   4.126 -0.6727 -2.2070  2.8517
  243MOL0     H32805   0.301  -0.115   4.267  0.7475 -1.9833 -1.3103
  244MOL0     O32806   1.587   8.892   2.684  0.0421  0.5177 -0.0992
  244MOL0     C32807   1.612   9.003   2.736  0.7164  0.2569 -1.4203
  244MOL0     O32808   1.732   9.037   2.788  0.2092 -0.2287 -0.6639
  244MOL0     C32809   1.838   8.951   2.772  0.0121 -0.1507 -0.4570
  244MOL0     C32810   1.860   8.847   2.860 -0.2316 -0.3581 -0.2653
  244MOL0     C32811   1.957   8.754   2.822 -0.4591 -0.2458  1.1898
  244MOL0     C32812   2.032   8.771   2.704  0.1563  0.1744 -0.0286
  244MOL0     O32813   2.114   8.664   2.672  0.1119  0.2544 -0.0408
  244MOL0     C32814   2.217   8.679   2.575  0.1515 -0.3715 -0.6390
  244MOL0     C32815   2.328   8.767   2.627 -0.9303  0.6164  0.0386
  244MOL0     C32816   2.461   8.763   2.540 -0.6072 -0.7044 -0.2612
  244MOL0     C32817   2.543   8.637   2.567  0.2616  0.6080 -0.0565
  244MOL0     C32818   2.672   8.634   2.491  0.0108  0.8629  0.3954
  244MOL0     C32819   2.767   8.752   2.493 -0.2983 -0.4202 -0.0619
  244MOL0     C32820   2.895   8.736   2.406  0.1376  0.1610 -0.4081
  244MOL0     C32821   2.944   8.877   2.374 -0.0327  0.0641  0.5252
  244MOL0     N32822   3.086   8.862   2.331  0.5260 -0.2946  0.2375
  244MOL0     C32823   3.121   8.877   2.191  0.3069 -1.3983  0.2388
  244MOL0     C32824   3.264   8.904   2.199 -0.0437 -0.3085 -0.2182
  244MOL0     C32825   3.343   8.944   2.076  0.0090  0.1572  0.5226
  244MOL0     C32826   3.491   8.984   2.098  0.1813 -0.2813 -0.1443
  244MOL0     C32827   3.514   9.115   2.186  0.4792  0.5844  0.0523
  244MOL0     C32828   3.659   9.152   2.192 -0.2770  0.6677 -0.5253
  244MOL0     O32829   3.711   9.186   2.065  0.0646 -0.0877  0.6734
  244MOL0     C32830   3.845   9.200   2.046  0.1244  1.0915 -0.3809
  244MOL0     C32831   3.924   9.241   2.161 -0.1259 -0.5819  0.5759
  244MOL0     C32832   4.059   9.261   2.146 -0.4552  0.1323  0.2804
  244MOL0     C32833   4.123   9.250   2.019 -0.4005  0.3166  0.2094
  244MOL0     C32834   4.276   9.266   2.019  0.3109 -0.3543  0.2301
  244MOL0     O32835   4.342   9.213   2.130  0.8376  0.3575 -0.2257
  244MOL0     C32836   4.469   9.241   2.130  0.5203 -0.5387 -0.4388
  244MOL0     C32837   4.556   9.137   2.136  0.2856  0.0679 -1.0009
  244MOL0     C32838   4.699   9.145   2.127  0.5936  0.1887 -0.3894
  244MOL0     C32839   4.752   9.272   2.159 -0.0381  0.9930 -0.4426
  244MOL0     O32840   4.889   9.294   2.169  0.1418 -0.1572 -0.0719
  244MOL0     C32841   4.973   9.169   2.156 -1.2803 -0.4990  0.6882
  244MOL0     C32842   5.109   9.197   2.217 -0.1028  0.2852 -0.3226
  244MOL0     C32843   5.211   9.083   2.200 -0.3187 -0.1798 -0.3632
  244MOL0     C32844   5.323   9.106   2.292  0.5533  0.0198 -0.0786
  244MOL0     C32845   5.455   9.034   2.243  0.0196 -0.2295  0.9247
  244MOL0     C32846   5.543   9.020   2.360 -0.0518  0.5767 -1.5000
  244MOL0     C32847   5.691   8.989   2.333  0.1365 -0.0299 -0.0087
  244MOL0     C32848   5.784   9.120   2.334 -0.4143 -0.1190 -0.0700
  244MOL0    Cl32849   5.947   9.054   2.340  0.2174  0.3674  0.3544
  244MOL0     C32850   4.664   9.384   2.174  0.2193  0.2724 -0.2559
  244MOL0     C32851   4.525   9.369   2.158 -0.4302 -0.4508 -0.6827
  244MOL0     O32852   4.327   9.319   1.921  0.2593  0.1106 -0.1443
  244MOL0     C32853   4.045   9.218   1.907  0.4332 -0.7671 -0.2855
  244MOL0     C32854   3.911   9.181   1.922  0.1600  0.1408 -0.1815
  244MOL0     N32855   3.305   8.900   2.331  0.2570 -0.0208  0.5893
  244MOL0     N32856   3.199   8.885   2.401 -0.0729  0.7699  0.1608
  244MOL0     C32857   2.012   8.883   2.618  0.5287 -0.0616  0.5419
  244MOL0     C32858   1.918   8.971   2.657  0.9803 -0.6184 -0.0157
  244MOL0     C32859   1.499   9.102   2.736 -0.3342 -0.0293 -0.0173
  244MOL0     C32860   1.422   9.110   2.619  0.2174  0.2178  0.3603
  244MOL0     C32861   1.305   9.186   2.623 -0.2043  0.1094  0.2088
  244MOL0     C32862   1.268   9.257   2.732  0.2595  1.1109 -0.6150
  244MOL0     O32863   1.148   9.329   2.722 -0.3946  0.3917 -0.2718
  244MOL0     C32864   1.085   9.393   2.842  0.6884  0.0300  0.3264
  244MOL0     C32865   1.022   9.298   2.931  0.0196  0.4508  0.1430
  244MOL0     C32866   0.964   9.363   3.056  0.6320  1.5791 -0.1240
  244MOL0     C32867   0.931   9.273   3.164 -0.1074  0.0139 -0.5709
  244MOL0     C32868   0.831   9.326   3.259  0.0376  0.5145 -0.0105
  244MOL0     C32869   0.733   9.354   3.328 -0.0522  0.7148  0.6022
  244MOL0     C32870   1.357   9.253   2.844  0.2734 -0.0898 -0.4228
  244MOL0     C32871   1.474   9.186   2.842 -0.5855  0.7673 -0.3205
  244MOL0     C32872   1.577   9.196   2.963  0.3673 -0.2784  0.0032
  244MOL0     H32873   1.798   8.827   2.947  1.2902 -0.9215  0.7268
  244MOL0     H32874   1.979   8.675   2.893  2.0316 -0.1111  0.6748
  244MOL0     H32875   2.255   8.580   2.547  2.1439 -0.2647  1.3906
  244MOL0     H32876   2.172   8.715   2.482 -1.7129  3.7431  1.5872
  244MOL0     H32877   2.357   8.735   2.727 -1.5131  1.7728  0.6059
  244MOL0     H32878   2.291   8.870   2.635 -2.4210  0.2004 -1.1386
  244MOL0     H32879   2.520   8.853   2.558 -3.4638  0.6644  3.7121
  244MOL0     H32880   2.412   8.771   2.442 -2.5272  1.1424  0.7830
  244MOL0     H32881   2.569   8.639   2.673  1.2531 -0.3755 -0.2616
  244MOL0     H32882   2.485   8.547   2.545  0.2202  0.1338  1.8406
  244MOL0     H32883   2.715   8.541   2.528 -0.2003  1.2966  1.7962
  244MOL0     H32884   2.645   8.609   2.388  1.6103  0.6329 -0.0048
  244MOL0     H32885   2.710   8.839   2.458 -3.7276 -1.3640  2.6208
  244MOL0     H32886   2.787   8.780   2.596 -0.7290  2.7193 -0.7035
  244MOL0     H32887   2.870   8.673   2.321  3.2307  0.4318 -1.6392
  244MOL0     H32888   2.969   8.683   2.467  0.9466 -1.9561 -3.0714
  244MOL0     H32889   2.896   8.907   2.280  1.4719 -0.8546 -0.5831
  244MOL0     H32890   2.927   8.949   2.454  0.4098  0.2886  0.4250
  244MOL0     H32891   3.062   8.887   2.101  1.1343 -0.3614 -0.2173
  244MOL0     H32892   3.326   8.861   2.006  1.4502  1.5879 -1.6702
  244MOL0     H32893   3.292   9.034   2.041 -3.1283 -0.8736  2.0308
  244MOL0     H32894   3.543   8.890   2.114  2.5127  0.8379 -0.7654
  244MOL0     H32895   3.523   9.030   2.004  0.4468  0.2563  0.2040
  244MOL0     H32896   3.488   9.098   2.290 -0.7261  0.5373 -0.2359
  244MOL0     H32897   3.454   9.202   2.157  1.7452  1.6801  0.6086
  244MOL0     H32898   3.715   9.075   2.246  2.6526 -0.2823 -4.4342
  244MOL0     H32899   3.665   9.238   2.258  0.9410  0.7184 -0.6739
  244MOL0     H32900   3.888   9.258   2.262  1.1386 -1.3256  1.1832
  244MOL0     H32901   4.121   9.276   2.234 -1.8974  0.7985  1.2188
  244MOL0     H32902   4.513   9.037   2.129  1.9867 -0.8723  0.9517
  244MOL0     H32903   4.758   9.058   2.103  0.1771 -1.2255  3.1697
  244MOL0     H32904   4.938   9.078   2.206 -1.9759 -0.2194  0.7237
  244MOL0     H32905   4.981   9.160   2.048 -5.2235  2.4607 -0.0883
  244MOL0     H32906   5.148   9.289   2.173 -1.1946  0.8204 -0.1789
  244MOL0     H32907   5.097   9.213   2.324  2.7683 -2.4924  0.6030
  244MOL0     H32908   5.178   8.981   2.219 -0.4221 -0.1831 -0.5523
  244MOL0     H32909   5.261   9.088   2.102  1.3284  0.6124  0.4765
  244MOL0     H32910   5.294   9.063   2.388 -1.3592  3.2371  0.9315
  244MOL0     H32911   5.337   9.213   2.310 -3.4347  0.2790  2.5098
  244MOL0     H32912   5.487   9.107   2.168 -0.1066 -0.3800  0.7252
  244MOL0     H32913   5.431   8.939   2.196  1.2137 -0.1262  0.0695
  244MOL0     H32914   5.535   9.117   2.411 -1.2843 -0.2408 -0.0646
  244MOL0     H32915   5.489   8.944   2.417 -3.5315  1.1986 -3.6222
  244MOL0     H32916   5.699   8.942   2.235 -0.0567  0.6645 -0.3625
  244MOL0     H32917   5.720   8.917   2.411 -3.3110 -0.3986  1.1414
  244MOL0     H32918   5.761   9.176   2.243  2.2233  1.2602  0.0182
  244MOL0     H32919   5.758   9.186   2.417  0.2180 -0.2499  0.2424
  244MOL0     H32920   4.704   9.484   2.189  1.9448 -0.2707 -1.0132
  244MOL0     H32921   4.465   9.460   2.166 -0.2099 -0.3925  0.5862
  244MOL0     H32922   4.101   9.205   1.814  1.8078 -0.4633  0.4659
  244MOL0     H32923   3.864   9.147   1.830  0.9662  0.8287 -0.8557
  244MOL0     H32924   2.067   8.903   2.527 -0.3175  1.8952  0.4064
  244MOL0     H32925   1.900   9.061   2.599  1.4765  0.8097  1.9474
  244MOL0     H32926   1.439   9.052   2.528 -2.1415  2.7133 -1.8462
  244MOL0     H32927   1.225   9.174   2.551 -1.4747 -1.2359  1.7498
  244MOL0     H32928   1.016   9.473   2.814 -0.3390 -0.7125  0.6757
  244MOL0     H32929   1.164   9.448   2.894  2.4524 -0.9324 -1.2129
  244MOL0     H32930   1.096   9.221   2.956  0.0484  0.2661 -0.4785
  244MOL0     H32931   0.939   9.257   2.873  0.7065  0.9279 -1.2214
  244MOL0     H32932   0.875   9.417   3.022 -0.1021  1.4095  1.4168
  244MOL0     H32933   1.034   9.438   3.094  0.0081  2.1086  0.0022
  244MOL0     H32934   0.901   9.175   3.125  0.4673  0.0974 -1.2492
  244MOL0     H32935   1.023   9.248   3.217  0.8204 -3.1030 -3.3083
  244MOL0     H32936   0.651   9.377   3.393  0.5503 -0.6055  1.8882
  244MOL0     H32937   1.333   9.322   2.924 -1.2677 -2.9386  1.7504
  244MOL0     H32938   1.577   9.096   3.008 -2.1443 -0.3556 -0.0513
  244MOL0     H32939   1.680   9.216   2.932 -0.4028  3.4202 -0.6464
  244MOL0     H32940   1.538   9.265   3.039 -1.5570 -0.0231 -1.1592
  245MOL0     O32941   1.043   7.127   1.438 -0.3220  0.3785 -0.5511
  245MOL0     C32942   0.927   7.136   1.389 -1.2974  0.1528 -0.3616
  245MOL0     O32943   0.823   7.197   1.448 -0.4909 -0.2374 -0.4242
  245MOL0     C32944   0.820   7.209   1.592 -0.5633  0.1931  0.6307
  245MOL0     C32945   0.827   7.343   1.642  0.1073  0.6418  0.3934
  245MOL0     C32946   0.843   7.354   1.782  0.1734  0.0658  0.2860
  245MOL0     C32947   0.826   7.245   1.872  0.2817  0.2362 -0.2663
  245MOL0     O32948   0.818   7.282   2.015 -0.6400 -0.8559 -0.0886
  245MOL0     C32949   0.711   7.215   2.093 -0.3867 -0.7123 -0.2881
  245MOL0     C32950   0.676   7.311   2.197 -0.5185  0.7044  0.0472
  245MOL0     C32951   0.616   7.436   2.138  0.3828 -0.2123 -0.2856
  245MOL0     C32952   0.463   7.421   2.117 -0.1258  0.1857  0.1580
  245MOL0     C32953   0.406   7.561   2.067 -0.1632 -0.0028  0.3388
  245MOL0     C32954   0.393   7.646   2.193  0.1534  1.2509 -0.9108
  245MOL0     C32955   0.417   7.795   2.166 -0.3836  0.8023  0.5750
  245MOL0     C32956   0.449   7.872   2.300  0.4449  0.6632  0.8443
  245MOL0     N32957   0.592   7.853   2.341  0.2356  0.6510 -0.7013
  245MOL0     C32958   0.690   7.796   2.260 -0.1581  0.1064 -0.2848
  245MOL0     C32959   0.795   7.807   2.341  0.3630  1.6367 -0.3048
  245MOL0     C32960   0.935   7.756   2.314 -0.5040 -0.3414  0.5352
  245MOL0     C32961   0.934   7.612   2.260  0.5959 -0.3854  0.7298
  245MOL0     C32962   1.068   7.545   2.228 -0.2888 -0.8365  0.7557
  245MOL0     C32963   1.158   7.619   2.118 -0.6818  0.1787 -0.0358
  245MOL0     O32964   1.219   7.735   2.164 -0.5791 -0.6526 -0.6059
  245MOL0     C32965   1.317   7.728   2.264  0.5913 -0.2484 -0.2812
  245MOL0     C32966   1.388   7.616   2.298  1.0214  0.1306 -0.4642
  245MOL0     C32967   1.481   7.621   2.402 -0.3282  0.6909  0.2413
  245MOL0     C32968   1.506   7.742   2.477 -0.2516 -0.7258 -0.0470
  245MOL0     C32969   1.582   7.754   2.603 -0.6216 -0.5902 -0.4619
  245MOL0     O32970   1.592   7.638   2.683 -0.0260  0.1974  1.0641
  245MOL0     C32971   1.693   7.628   2.771 -1.7946 -0.9315  0.6762
  245MOL0     C32972   1.790   7.525   2.766 -0.4113 -0.3664  0.3910
  245MOL0     C32973   1.890   7.529   2.860  0.8404 -0.5095 -0.3623
  245MOL0     C32974   1.899   7.621   2.961  0.7755 -0.2061 -0.2262
  245MOL0     O32975   2.001   7.621   3.050 -0.3966  0.0606  0.0269
  245MOL0     C32976   2.050   7.748   3.093  1.0766  0.3603  0.0927
  245MOL0     C32977   2.158   7.717   3.189  0.6254  0.1320 -0.1605
  245MOL0     C32978   2.269   7.814   3.203  0.8087 -0.2335 -0.5363
  245MOL0     C32979   2.362   7.776   3.315 -0.0363 -0.4096  0.1547
  245MOL0     C32980   2.453   7.893   3.335 -0.4473  0.1080  0.0946
  245MOL0     C32981   2.557   7.868   3.456  0.2352  0.2440 -0.1047
  245MOL0     C32982   2.667   7.977   3.452  0.1501  0.6051 -0.3571
  245MOL0     C32983   2.713   7.993   3.598  0.2107 -0.0797  0.3644
  245MOL0    Cl32984   2.791   7.831   3.655  0.6081 -0.2459  0.3889
  245MOL0     C32985   1.793   7.711   2.982  0.0928 -0.3198  0.1249
  245MOL0     C32986   1.697   7.727   2.875 -1.4337 -0.2953  0.4131
  245MOL0     O32987   1.640   7.855   2.620 -0.5795 -0.0159  0.3104
  245MOL0     C32988   1.429   7.856   2.436 -0.3185 -0.6074 -1.1190
  245MOL0     C32989   1.339   7.844   2.332 -1.0003 -0.4941 -0.0639
  245MOL0     N32990   0.761   7.863   2.463 -0.3989 -0.0496  0.2990
  245MOL0     N32991   0.638   7.883   2.469  0.3556  0.6486 -0.3742
  245MOL0     C32992   0.804   7.122   1.819  0.2056  0.3715  0.3317
  245MOL0     C32993   0.812   7.102   1.677 -1.1987  0.1926 -0.3793
  245MOL0     C32994   0.903   7.099   1.248  0.2382  0.8579  0.3247
  245MOL0     C32995   0.981   7.161   1.149 -0.5904  0.1691  0.6310
  245MOL0     C32996   0.962   7.124   1.007 -0.2630 -0.0737  0.3757
  245MOL0     C32997   0.861   7.042   0.968  0.9924 -0.7192 -0.1719
  245MOL0     O32998   0.835   7.032   0.834 -0.8281  0.1767 -0.1229
  245MOL0     C32999   0.698   7.015   0.800 -0.2922 -0.4264  0.3334
  245MOL0     C33000   0.678   7.058   0.652  0.2645  0.1921  0.5477
  245MOL0     C33001   0.523   7.072   0.618 -0.6149 -0.3663 -0.6986
  245MOL0     C33002   0.502   7.130   0.484  0.0513  0.1279  0.1705
  245MOL0     C33003   0.537   7.274   0.500 -0.8120 -0.0633  0.0875
  245MOL0     C33004   0.569   7.389   0.531 -0.3679  0.3857 -0.2434
  245MOL0     C33005   0.783   6.982   1.071 -1.2279  0.7312 -0.0082
  245MOL0     C33006   0.798   7.006   1.207  1.0319  0.5629  0.5327
  245MOL0     C33007   0.712   6.934   1.309  0.6886  0.4339 -0.4722
  245MOL0     H33008   0.826   7.424   1.570  0.2434 -1.4607 -2.1147
  245MOL0     H33009   0.848   7.455   1.822  1.4972  1.0713 -2.2002
  245MOL0     H33010   0.628   7.184   2.028  0.6734 -0.1648 -1.9612
  245MOL0     H33011   0.753   7.120   2.127  0.8761  0.0191  0.2565
  245MOL0     H33012   0.772   7.335   2.243 -1.5509 -0.1462  2.8673
  245MOL0     H33013   0.608   7.267   2.272 -0.0702 -2.1093 -1.0644
  245MOL0     H33014   0.662   7.458   2.041  0.0426 -0.9387 -0.6160
  245MOL0     H33015   0.634   7.517   2.210  0.2190  0.2154 -0.7145
  245MOL0     H33016   0.452   7.352   2.033  1.3572 -0.2761  0.3151
  245MOL0     H33017   0.414   7.374   2.203  2.3605 -2.1195  0.4603
  245MOL0     H33018   0.474   7.594   1.988  0.8225  0.6612  1.4276
  245MOL0     H33019   0.306   7.540   2.029  0.0645 -1.1560  0.3318
  245MOL0     H33020   0.295   7.632   2.238  0.2184  3.9679  0.2985
  245MOL0     H33021   0.467   7.619   2.269  0.8143  0.4486 -1.8095
  245MOL0     H33022   0.323   7.833   2.125 -0.5457  1.5892  1.6239
  245MOL0     H33023   0.488   7.824   2.087  0.8522 -1.0364  0.9608
  245MOL0     H33024   0.424   7.979   2.291  0.5676  0.5794 -0.9635
  245MOL0     H33025   0.383   7.834   2.378 -0.1317 -1.5929 -0.6459
  245MOL0     H33026   0.684   7.741   2.166  0.3635 -1.5396  0.6089
  245MOL0     H33027   0.981   7.824   2.242 -0.2471 -1.1400 -0.0677
  245MOL0     H33028   1.009   7.773   2.392  1.0753  0.6899 -1.1352
  245MOL0     H33029   0.890   7.552   2.340 -1.2362  1.5568  1.2634
  245MOL0     H33030   0.871   7.612   2.171  0.1908  0.5598  0.9990
  245MOL0     H33031   1.054   7.445   2.187 -0.7518 -0.9807  1.2534
  245MOL0     H33032   1.123   7.532   2.321  1.7845  0.1730 -0.2627
  245MOL0     H33033   1.098   7.645   2.030  1.2419  1.1142 -1.1286
  245MOL0     H33034   1.239   7.551   2.090  1.9016  2.6337  0.9604
  245MOL0     H33035   1.368   7.531   2.234  2.5251  1.3916 -2.7390
  245MOL0     H33036   1.538   7.532   2.426  1.6543  1.8499  0.0160
  245MOL0     H33037   1.786   7.431   2.711 -1.2330 -0.2174  0.1747
  245MOL0     H33038   1.971   7.457   2.853  2.5191  1.4283 -3.9449
  245MOL0     H33039   2.084   7.797   3.001 -2.2518 -1.1489 -2.1177
  245MOL0     H33040   1.973   7.805   3.145  2.4899  1.1247  1.4433
  245MOL0     H33041   2.117   7.716   3.291 -1.8806 -0.7422 -1.0884
  245MOL0     H33042   2.193   7.617   3.163  1.2990  0.1760  0.5343
  245MOL0     H33043   2.329   7.812   3.111 -1.2208 -0.0810 -1.9287
  245MOL0     H33044   2.224   7.913   3.212  2.6961  0.5527  0.9542
  245MOL0     H33045   2.412   7.679   3.303  1.1454 -0.0224  1.6515
  245MOL0     H33046   2.301   7.765   3.405 -1.4570  2.3709 -0.3639
  245MOL0     H33047   2.397   7.984   3.354 -1.9580 -0.8982  0.6244
  245MOL0     H33048   2.504   7.903   3.239  0.9689  1.7003  0.9689
  245MOL0     H33049   2.504   7.865   3.552  2.0240  3.0232  1.0740
  245MOL0     H33050   2.599   7.767   3.460  0.2806  0.2481 -0.4945
  245MOL0     H33051   2.630   8.073   3.416  1.2598  0.6930 -1.2892
  245MOL0     H33052   2.731   7.934   3.375 -0.5036  0.6615 -0.9474
  245MOL0     H33053   2.798   8.062   3.593  1.0914 -1.1981 -0.6168
  245MOL0     H33054   2.639   8.030   3.670 -2.0158 -0.5600 -1.5578
  245MOL0     H33055   1.783   7.780   3.065 -1.4692 -0.6643  0.2653
  245MOL0     H33056   1.610   7.792   2.888 -0.4542  0.7164  2.5776
  245MOL0     H33057   1.441   7.954   2.481  1.5444 -1.0326 -0.5856
  245MOL0     H33058   1.283   7.935   2.316 -2.2240 -1.2088  0.0384
  245MOL0     H33059   0.783   7.037   1.884 -0.5359 -0.6669 -1.2117
  245MOL0     H33060   0.808   7.007   1.625 -2.7346  0.1109 -0.1787
  245MOL0     H33061   1.049   7.232   1.194 -2.2712 -0.1321  4.0392
  245MOL0     H33062   1.030   7.172   0.938 -0.1362  0.3250  0.7744
  245MOL0     H33063   0.649   7.097   0.854 -1.2170 -0.8854  0.2064
  245MOL0     H33064   0.657   6.917   0.825  0.2202 -0.1517  2.3800
  245MOL0     H33065   0.726   6.987   0.585  0.9558  0.4052  0.8085
  245MOL0     H33066   0.734   7.151   0.636 -0.1757  0.2232 -0.9605
  245MOL0     H33067   0.492   7.143   0.695  2.9634 -1.2482  1.7895
  245MOL0     H33068   0.470   6.978   0.636  1.0056 -0.9736  1.2682
  245MOL0     H33069   0.581   7.090   0.420  2.8883  0.5022  3.1689
  245MOL0     H33070   0.402   7.110   0.446 -0.4859  1.0713  1.0098
  245MOL0     H33071   0.609   7.479   0.572  0.8724  0.1819 -0.9403
  245MOL0     H33072   0.705   6.910   1.045 -0.5399  0.8864 -2.8013
  245MOL0     H33073   0.759   6.928   1.408 -1.8904 -0.8099  0.7692
  245MOL0     H33074   0.620   6.990   1.324  0.5460 -0.2145  1.3703
  245MOL0     H33075   0.699   6.833   1.270  1.3271 -0.8397  2.3243
  246MOL0     O33076   1.329   4.574   8.497 -0.6122  0.1955  0.1741
  246MOL0     C33077   1.235   4.562   8.572 -0.4115 -0.2997 -0.1074
  246MOL0     O33078   1.251   4.553   8.705  0.3247 -0.1408 -0.0084
  246MOL0     C33079   1.375   4.551   8.766  0.6554  0.3580 -0.0561
  246MOL0     C33080   1.373   4.611   8.888 -0.5200 -0.5590  0.0418
  246MOL0     C33081   1.488   4.597   8.965 -0.0067 -0.1566  0.5218
  246MOL0     C33082   1.612   4.536   8.923  0.5813  0.9335  0.6911
  246MOL0     O33083   1.722   4.527   8.999 -0.6229 -0.5962 -0.1421
  246MOL0     C33084   1.844   4.487   8.933  0.0270  0.3112  0.6519
  246MOL0     C33085   1.952   4.474   9.039 -0.5286 -0.4358 -0.2099
  246MOL0     C33086   2.092   4.505   8.982  0.0577 -0.3253 -0.4628
  246MOL0     C33087   2.182   4.549   9.110  0.0379  0.8669 -1.2207
  246MOL0     C33088   2.327   4.576   9.063  0.0632  0.2969 -0.1705
  246MOL0     C33089   2.397   4.476   8.967 -0.7259  0.5262 -0.5082
  246MOL0     C33090   2.536   4.527   8.935  0.2692  0.2367 -0.7384
  246MOL0     C33091   2.546   4.650   8.853 -0.3386  0.0749  0.7192
  246MOL0     N33092   2.684   4.669   8.818  0.6637  0.2750 -0.3303
  246MOL0     C33093   2.783   4.699   8.904  0.6617 -0.4434  0.9716
  246MOL0     C33094   2.895   4.690   8.831  0.1293 -0.4757  0.8076
  246MOL0     C33095   3.036   4.703   8.877  0.4230  0.6441  0.0348
  246MOL0     C33096   3.051   4.836   8.954  0.6977  0.8711  0.2027
  246MOL0     C33097   3.043   4.961   8.853  0.3819 -0.3551 -0.2954
  246MOL0     C33098   3.037   5.089   8.942  1.2319  0.4360  0.3306
  246MOL0     O33099   3.160   5.116   9.004  0.5350  0.4228  0.0841
  246MOL0     C33100   3.240   5.208   8.939  0.3000  0.6777  0.2361
  246MOL0     C33101   3.237   5.245   8.806 -0.0825  0.2781 -0.3332
  246MOL0     C33102   3.330   5.346   8.755  0.1855  0.1385 -0.5162
  246MOL0     C33103   3.414   5.414   8.838  1.2014  0.2201 -0.5762
  246MOL0     C33104   3.507   5.518   8.777 -0.2075 -0.1368  0.3924
  246MOL0     O33105   3.627   5.527   8.843  0.1045  0.0078  0.6645
  246MOL0     C33106   3.707   5.639   8.828  0.5430  0.2733 -0.4320
  246MOL0     C33107   3.728   5.714   8.939  0.4027 -1.0737 -1.2479
  246MOL0     C33108   3.833   5.808   8.944  0.3664 -0.7950 -0.1012
  246MOL0     C33109   3.905   5.834   8.831  0.0101  0.0413 -0.6629
  246MOL0     O33110   4.015   5.913   8.824  0.4052  0.2889 -0.1048
  246MOL0     C33111   4.035   6.008   8.926  0.4472 -0.6820  0.1797
  246MOL0     C33112   4.165   6.080   8.883  0.9405  0.8407 -0.0436
  246MOL0     C33113   4.202   6.196   8.967  0.4057  0.6662  0.1144
  246MOL0     C33114   4.194   6.166   9.125 -0.2301  0.5720  0.3747
  246MOL0     C33115   4.247   6.287   9.195  0.4487  0.8358  0.1548
  246MOL0     C33116   4.247   6.276   9.344  0.1956 -0.2122  0.0055
  246MOL0     C33117   4.345   6.376   9.411  0.2182  0.5118  0.0820
  246MOL0     C33118   4.485   6.316   9.443  0.1212  0.2137  0.4225
  246MOL0    Cl33119   4.502   6.182   9.550 -0.0840  0.4362 -0.0305
  246MOL0     C33120   3.879   5.755   8.717  0.9786 -0.2536 -0.2124
  246MOL0     C33121   3.774   5.663   8.709  0.6588  0.5594  1.1952
  246MOL0     O33122   3.479   5.574   8.671 -0.5512  0.7927 -0.4670
  246MOL0     C33123   3.405   5.381   8.976 -0.2102 -0.1493 -0.8991
  246MOL0     C33124   3.328   5.274   9.021 -0.5803 -0.0343  0.0906
  246MOL0     N33125   2.852   4.646   8.702 -0.6382 -0.0589 -0.0857
  246MOL0     N33126   2.731   4.630   8.700 -0.1491 -0.1435  0.2118
  246MOL0     C33127   1.606   4.477   8.793 -0.0696 -0.4434 -0.0469
  246MOL0     C33128   1.489   4.480   8.718  0.4981 -0.0941  0.9633
  246MOL0     C33129   1.110   4.559   8.500  0.1721  0.7732 -0.4580
  246MOL0     C33130   1.089   4.483   8.386 -0.3874  0.6578  0.4023
  246MOL0     C33131   0.977   4.483   8.316 -0.1570  0.0383  0.6801
  246MOL0     C33132   0.867   4.554   8.360 -0.0492 -1.0664  0.4612
  246MOL0     O33133   0.750   4.573   8.286 -0.0963  0.0954  0.0732
  246MOL0     C33134   0.722   4.478   8.179 -0.3967 -0.1419 -1.5402
  246MOL0     C33135   0.594   4.519   8.108  1.5735 -0.4618 -0.1329
  246MOL0     C33136   0.463   4.546   8.197  0.0357  0.0923 -0.7789
  246MOL0     C33137   0.454   4.443   8.315  0.2421 -0.8040 -0.9658
  246MOL0     C33138   0.469   4.301   8.275  0.1755 -0.1059  0.0661
  246MOL0     C33139   0.467   4.184   8.254 -0.1961 -0.2507  0.0367
  246MOL0     C33140   0.880   4.625   8.485 -0.2430 -0.1469  0.3935
  246MOL0     C33141   1.002   4.627   8.554  0.9089  0.8042 -0.8840
  246MOL0     C33142   1.014   4.712   8.680  0.3054 -0.2533 -1.2052
  246MOL0     H33143   1.290   4.677   8.912 -0.5782 -1.6329  3.2274
  246MOL0     H33144   1.484   4.638   9.066 -1.7034  0.7281  0.1364
  246MOL0     H33145   1.836   4.396   8.873 -0.2602  2.0987 -2.2241
  246MOL0     H33146   1.861   4.579   8.876 -1.4580  0.7506  0.8996
  246MOL0     H33147   1.946   4.375   9.084  0.0534 -1.2334 -1.8306
  246MOL0     H33148   1.936   4.550   9.117  4.1187  0.4711  0.2011
  246MOL0     H33149   2.089   4.589   8.912  1.8283  0.8716  0.8336
  246MOL0     H33150   2.121   4.411   8.934  0.4076 -0.0168 -0.8674
  246MOL0     H33151   2.148   4.634   9.169  1.1648  0.7236 -0.3257
  246MOL0     H33152   2.179   4.461   9.174  2.4160  0.4384 -1.5986
  246MOL0     H33153   2.344   4.680   9.034  1.9008  0.1962  0.4172
  246MOL0     H33154   2.375   4.577   9.162  2.2312  0.5657 -1.1739
  246MOL0     H33155   2.395   4.372   9.000 -0.6262  1.1757  1.7065
  246MOL0     H33156   2.332   4.480   8.879 -2.0410  0.7997  0.4384
  246MOL0     H33157   2.597   4.446   8.893  1.1112  0.4593  0.0191
  246MOL0     H33158   2.588   4.546   9.030 -1.9984  1.7454  0.2833
  246MOL0     H33159   2.478   4.630   8.769  0.1744 -2.8306  0.8679
  246MOL0     H33160   2.504   4.734   8.909 -1.3895 -0.8864  1.4156
  246MOL0     H33161   2.768   4.724   9.009 -4.1235  0.5413  0.2824
  246MOL0     H33162   3.054   4.621   8.948 -0.0113  0.1705 -0.3921
  246MOL0     H33163   3.105   4.702   8.792 -0.8879  0.0883 -1.0710
  246MOL0     H33164   2.980   4.841   9.037 -1.3783 -0.9332 -1.3369
  246MOL0     H33165   3.147   4.833   9.005  0.3514  4.3399  1.3392
  246MOL0     H33166   2.949   4.958   8.797  0.6742 -3.6166 -0.8150
  246MOL0     H33167   3.127   4.972   8.784  0.2404 -0.4889 -0.4894
  246MOL0     H33168   2.964   5.102   9.023  0.9827  3.2353 -0.2524
  246MOL0     H33169   3.013   5.164   8.867 -1.7086  0.3701  1.0971
  246MOL0     H33170   3.188   5.183   8.732  2.3879  0.5383 -2.3111
  246MOL0     H33171   3.328   5.379   8.652 -0.4194  0.5357 -0.3867
  246MOL0     H33172   3.680   5.694   9.034 -1.5133  1.4130 -1.5840
  246MOL0     H33173   3.861   5.859   9.036  0.4829  0.3989 -0.7764
  246MOL0     H33174   3.948   6.071   8.910  0.6359 -1.2764 -5.1695
  246MOL0     H33175   4.040   5.959   9.024  0.7409  1.9742  1.5660
  246MOL0     H33176   4.243   6.004   8.881 -1.2853 -1.5773 -1.5413
  246MOL0     H33177   4.158   6.117   8.780 -0.8557 -2.6449 -1.3306
  246MOL0     H33178   4.308   6.216   8.947  0.6917 -0.2883  0.6245
  246MOL0     H33179   4.144   6.286   8.946 -0.4240 -0.1141 -1.0548
  246MOL0     H33180   4.244   6.072   9.152 -2.2855 -0.6501  0.1362
  246MOL0     H33181   4.091   6.151   9.160 -1.1178  4.3706 -0.1394
  246MOL0     H33182   4.180   6.362   9.153  1.3125  1.2758 -0.4733
  246MOL0     H33183   4.344   6.307   9.148  0.7902 -1.8727 -0.4601
  246MOL0     H33184   4.141   6.282   9.368  0.1061 -0.0659 -0.4294
  246MOL0     H33185   4.268   6.175   9.382 -3.2724 -0.6802  1.0250
  246MOL0     H33186   4.310   6.404   9.511  2.2867 -2.0559  1.6842
  246MOL0     H33187   4.341   6.465   9.348 -1.0900  0.1304 -0.3993
  246MOL0     H33188   4.540   6.298   9.350  1.5545  0.6245  1.1579
  246MOL0     H33189   4.543   6.397   9.490 -0.9250  0.3992  1.4252
  246MOL0     H33190   3.945   5.776   8.633  0.2230  1.2111 -0.4760
  246MOL0     H33191   3.751   5.609   8.618 -0.2354  0.4537  1.4686
  246MOL0     H33192   3.482   5.423   9.040  0.3010 -2.9248  0.4398
  246MOL0     H33193   3.324   5.255   9.128 -3.3975  0.7266  0.2135
  246MOL0     H33194   1.696   4.451   8.739  1.4523 -0.0623  2.1766
  246MOL0     H33195   1.478   4.425   8.625  1.3175  0.4064  0.5618
  246MOL0     H33196   1.174   4.424   8.351  0.2736  2.3033 -0.8947
  246MOL0     H33197   0.964   4.419   8.230  1.6575 -0.8824  1.0502
  246MOL0     H33198   0.725   4.373   8.210  1.3488  0.0549 -0.8706
  246MOL0     H33199   0.801   4.501   8.107 -1.0196  1.4437 -1.7682
  246MOL0     H33200   0.569   4.437   8.041  2.3443 -0.6005 -0.2686
  246MOL0     H33201   0.616   4.607   8.048  0.9201  0.6332  1.1653
  246MOL0     H33202   0.378   4.543   8.129 -0.5214 -2.1668 -0.0689
  246MOL0     H33203   0.481   4.648   8.234  1.0276 -0.8163  1.5050
  246MOL0     H33204   0.538   4.452   8.385  1.3339 -0.2359 -2.2872
  246MOL0     H33205   0.367   4.453   8.379  1.3607  0.3551  0.4358
  246MOL0     H33206   0.474   4.078   8.238 -1.8908 -0.3658 -0.0552
  246MOL0     H33207   0.799   4.689   8.519  0.8275  0.9417  0.9604
  246MOL0     H33208   1.096   4.784   8.685  0.0023  0.1825 -2.1689
  246MOL0     H33209   0.930   4.776   8.711  0.4892 -0.8538  0.6591
  246MOL0     H33210   1.027   4.641   8.762 -0.9250  0.9873  0.1213
  247MOL0     O33211   0.725  11.146   2.049  0.6880 -0.0936 -0.2682
  247MOL0     C33212   0.772  11.203   2.149  0.0532  0.0585 -0.0383
  247MOL0     O33213   0.727  11.322   2.200  0.5768  0.2211  0.0595
  247MOL0     C33214   0.598  11.367   2.203 -0.0917  0.4711  0.2210
  247MOL0     C33215   0.564  11.448   2.314 -0.8203 -0.8510 -0.2391
  247MOL0     C33216   0.427  11.483   2.322  0.6857 -0.6676  0.2980
  247MOL0     C33217   0.325  11.458   2.223  0.8765  0.5055  0.4366
  247MOL0     O33218   0.193  11.503   2.237 -0.1404  0.5633  0.5921
  247MOL0     C33219   0.117  11.531   2.114 -0.5673 -0.2321  0.2371
  247MOL0     C33220  -0.015  11.585   2.149  0.0089 -0.2833  0.5430
  247MOL0     C33221  -0.094  11.614   2.022 -0.3166  0.7900  0.8958
  247MOL0     C33222  -0.210  11.704   2.055  0.2581 -1.0267  0.7084
  247MOL0     C33223  -0.288  11.737   1.935  0.2650  0.3406 -0.4592
  247MOL0     C33224  -0.408  11.829   1.954  0.1769  0.3531 -0.4760
  247MOL0     C33225  -0.364  11.981   1.971 -0.0595  0.1086 -0.3370
  247MOL0     C33226  -0.489  12.079   1.960 -0.9635  0.1022 -0.2279
  247MOL0     N33227  -0.550  12.080   1.829  0.8361 -0.0280  0.1891
  247MOL0     C33228  -0.490  12.138   1.723 -0.3905 -0.5112 -0.6134
  247MOL0     C33229  -0.572  12.132   1.619 -0.2444  0.2878 -0.2199
  247MOL0     C33230  -0.535  12.189   1.481 -1.2833  0.2148 -0.9435
  247MOL0     C33231  -0.405  12.125   1.417 -0.0002  0.1052 -0.0629
  247MOL0     C33232  -0.288  12.217   1.446 -0.0264  0.6748 -0.5001
  247MOL0     C33233  -0.153  12.129   1.474 -0.2638 -0.0391  0.6026
  247MOL0     O33234  -0.179  12.076   1.606  0.2370 -0.6200 -0.7060
  247MOL0     C33235  -0.070  12.045   1.673  0.6144 -0.0689  0.2004
  247MOL0     C33236   0.034  11.967   1.623  0.7359 -0.0053 -0.6407
  247MOL0     C33237   0.141  11.931   1.698 -0.2725 -0.1648 -0.2089
  247MOL0     C33238   0.145  11.962   1.838  0.0597 -0.6574  0.3356
  247MOL0     C33239   0.255  11.909   1.920  0.5348  0.0824 -0.3388
  247MOL0     O33240   0.372  11.894   1.858  0.5264 -0.2779 -0.0936
  247MOL0     C33241   0.487  11.854   1.929  0.8047  0.7639  0.1643
  247MOL0     C33242   0.493  11.772   2.043  0.1440 -0.4107  0.2018
  247MOL0     C33243   0.621  11.752   2.102  1.0439 -0.3856 -0.2400
  247MOL0     C33244   0.738  11.811   2.061  0.1190 -0.0994 -0.1063
  247MOL0     O33245   0.860  11.803   2.125 -1.0178  0.4750 -0.0222
  247MOL0     C33246   0.845  11.782   2.269  0.2319 -0.2068  0.3745
  247MOL0     C33247   0.971  11.841   2.327 -0.3974 -0.1934 -0.2574
  247MOL0     C33248   1.107  11.791   2.288  1.0134  1.1571 -1.0754
  247MOL0     C33249   1.164  11.854   2.162  1.1166  0.8464  0.6798
  247MOL0     C33250   1.312  11.797   2.156  0.0404  0.7252  0.5788
  247MOL0     C33251   1.365  11.832   2.019  0.0254 -0.8476 -0.1855
  247MOL0     C33252   1.512  11.789   2.018 -0.1075 -0.0223 -0.0644
  247MOL0     C33253   1.603  11.898   2.089 -0.1435 -0.8820  0.2562
  247MOL0    Cl33254   1.769  11.855   2.035 -0.1685 -0.1448  0.2267
  247MOL0     C33255   0.734  11.881   1.945 -0.7176  0.4627  0.9172
  247MOL0     C33256   0.605  11.899   1.877  0.2819  0.4161  0.2726
  247MOL0     O33257   0.230  11.879   2.038 -0.1276 -0.2085  0.0736
  247MOL0     C33258   0.044  12.046   1.889  0.4002  0.2674  0.2142
  247MOL0     C33259  -0.068  12.083   1.801  0.0729 -0.1958  0.0107
  247MOL0     N33260  -0.686  12.060   1.662 -0.2004 -0.0371  0.1050
  247MOL0     N33261  -0.672  12.030   1.789  0.0623  0.6799  0.3768
  247MOL0     C33262   0.370  11.387   2.116 -0.1800 -0.7994  0.3744
  247MOL0     C33263   0.497  11.335   2.106 -0.5921  0.2086 -0.5331
  247MOL0     C33264   0.910  11.154   2.198 -0.2289 -0.4010 -0.8755
  247MOL0     C33265   0.959  11.036   2.134  0.4078 -0.2758 -0.2944
  247MOL0     C33266   1.086  10.993   2.162 -0.8293  0.3244  0.0443
  247MOL0     C33267   1.165  11.055   2.253 -0.0980 -0.8291 -0.2970
  247MOL0     O33268   1.286  11.006   2.294  0.4159 -0.1281  0.2865
  247MOL0     C33269   1.359  10.934   2.194  0.3376  0.0793 -0.1774
  247MOL0     C33270   1.506  10.916   2.234  0.1428 -0.1781 -0.4439
  247MOL0     C33271   1.552  11.062   2.264 -0.2647 -0.1144  0.2297
  247MOL0     C33272   1.708  11.071   2.275 -0.1930 -0.1606  0.5106
  247MOL0     C33273   1.770  10.961   2.349 -0.4068 -0.2743  0.1395
  247MOL0     C33274   1.832  10.871   2.415  0.6370  0.4946  0.4217
  247MOL0     C33275   1.117  11.171   2.324  0.3695 -0.4828  0.0295
  247MOL0     C33276   0.987  11.226   2.295 -1.0436 -0.2072 -0.3958
  247MOL0     C33277   0.948  11.344   2.382  0.3239  1.3986 -0.1087
  247MOL0     H33278   0.633  11.469   2.395  1.6171 -1.2610 -2.1059
  247MOL0     H33279   0.384  11.538   2.405 -2.7282  1.2908 -2.5019
  247MOL0     H33280   0.186  11.602   2.066  3.5213 -2.6870  1.8895
  247MOL0     H33281   0.104  11.447   2.045 -1.2052  0.3005 -0.3051
  247MOL0     H33282  -0.006  11.676   2.210  2.6405 -1.2981  1.8438
  247MOL0     H33283  -0.076  11.519   2.211 -1.2016  1.0097  0.7675
  247MOL0     H33284  -0.149  11.526   1.987  1.8574 -0.0203 -0.6869
  247MOL0     H33285  -0.033  11.659   1.943 -1.8520  1.9901  0.3268
  247MOL0     H33286  -0.278  11.655   2.125 -0.7656  0.0060  0.4540
  247MOL0     H33287  -0.180  11.795   2.106  1.8735 -1.4350  0.5448
  247MOL0     H33288  -0.212  11.777   1.867  1.8321 -0.3323  0.8341
  247MOL0     H33289  -0.319  11.639   1.897 -0.2851 -0.4230  1.8169
  247MOL0     H33290  -0.473  11.829   1.866 -1.6324  0.3965  0.8008
  247MOL0     H33291  -0.464  11.798   2.044  1.1251 -0.7967 -0.2635
  247MOL0     H33292  -0.298  11.999   1.885 -3.3623  1.0179 -2.9386
  247MOL0     H33293  -0.301  11.996   2.059 -0.2509  0.4699 -0.2600
  247MOL0     H33294  -0.564  12.058   2.037 -1.3432  2.0782 -0.0015
  247MOL0     H33295  -0.459  12.182   1.983 -1.3320  0.3836 -0.9776
  247MOL0     H33296  -0.397  12.194   1.722 -0.5607 -0.2250 -0.6860
  247MOL0     H33297  -0.619  12.179   1.412 -2.3936 -0.9396  0.5124
  247MOL0     H33298  -0.506  12.294   1.491  1.2418 -0.4263 -0.7219
  247MOL0     H33299  -0.388  12.028   1.466  0.1073 -1.7557 -3.4752
  247MOL0     H33300  -0.418  12.101   1.311  0.6758  2.4941 -0.7502
  247MOL0     H33301  -0.305  12.275   1.537  0.8595 -0.9410  0.7502
  247MOL0     H33302  -0.275  12.282   1.359 -0.2022 -1.2072 -2.0069
  247MOL0     H33303  -0.066  12.197   1.478 -1.4112  1.6113 -0.9383
  247MOL0     H33304  -0.129  12.058   1.395  0.8030 -0.0260  0.8933
  247MOL0     H33305   0.028  11.924   1.524 -2.4906 -1.8058  0.1826
  247MOL0     H33306   0.221  11.873   1.652 -0.3814 -0.5629  0.0923
  247MOL0     H33307   0.405  11.722   2.082  1.9538 -2.5837  1.6772
  247MOL0     H33308   0.625  11.694   2.194  4.9136  1.5142  1.0131
  247MOL0     H33309   0.753  11.819   2.317 -0.0729 -1.9999  1.2454
  247MOL0     H33310   0.845  11.674   2.286  2.0841  0.0016  1.9635
  247MOL0     H33311   0.966  11.949   2.309  1.2803 -0.1966 -0.8857
  247MOL0     H33312   0.960  11.822   2.434  1.0058 -0.7625 -0.2026
  247MOL0     H33313   1.181  11.817   2.365  0.3406  1.9816 -0.6934
  247MOL0     H33314   1.101  11.682   2.290 -2.4562  1.1354  3.3545
  247MOL0     H33315   1.159  11.962   2.176  2.2962  1.0262 -0.1646
  247MOL0     H33316   1.119  11.833   2.065  0.9636  3.9957 -0.0138
  247MOL0     H33317   1.295  11.690   2.171 -1.3261  0.7974 -0.2043
  247MOL0     H33318   1.376  11.825   2.239 -1.3365 -2.2872  2.8090
  247MOL0     H33319   1.308  11.776   1.944  0.0199  0.6900 -1.3777
  247MOL0     H33320   1.339  11.935   1.993 -0.6891 -1.0143 -0.1552
  247MOL0     H33321   1.538  11.779   1.912  2.4927 -2.5035  0.6930
  247MOL0     H33322   1.514  11.690   2.064 -4.1717 -0.7371 -1.0381
  247MOL0     H33323   1.583  12.003   2.067 -0.9097 -0.7369  1.5218
  247MOL0     H33324   1.590  11.890   2.198  0.7459  3.9619  0.9614
  247MOL0     H33325   0.820  11.934   1.905 -0.0992 -0.4139  1.0686
  247MOL0     H33326   0.608  11.979   1.803 -0.6201 -1.0089 -1.3872
  247MOL0     H33327   0.029  12.061   1.996  0.9648  2.9649 -0.0216
  247MOL0     H33328  -0.137  12.160   1.837  1.7577  0.8056  1.2379
  247MOL0     H33329   0.306  11.370   2.030 -0.0767  0.0903  0.1144
  247MOL0     H33330   0.526  11.270   2.024  1.6333 -0.1990  0.4947
  247MOL0     H33331   0.904  10.981   2.059 -0.2587  0.6533 -0.5009
  247MOL0     H33332   1.121  10.899   2.119 -0.4753 -0.0482  1.1289
  247MOL0     H33333   1.347  10.973   2.093 -0.5977 -0.1252 -0.1514
  247MOL0     H33334   1.330  10.829   2.183  1.2291 -0.2286  0.2980
  247MOL0     H33335   1.566  10.857   2.165  0.6744  0.7954 -0.8363
  247MOL0     H33336   1.505  10.865   2.331 -0.2537  0.7964  0.0795
  247MOL0     H33337   1.507  11.100   2.356  1.1466  1.6271  0.2676
  247MOL0     H33338   1.515  11.133   2.190  2.3320  0.7696 -0.3353
  247MOL0     H33339   1.762  11.073   2.180  0.8028  0.3037  1.0784
  247MOL0     H33340   1.735  11.165   2.324 -1.9228  0.4483  0.3726
  247MOL0     H33341   1.886  10.799   2.474 -0.0898 -0.6076 -0.2413
  247MOL0     H33342   1.172  11.221   2.403  0.8199  3.0219 -2.2755
  247MOL0     H33343   1.017  11.372   2.462 -2.1149  1.3534  2.1544
  247MOL0     H33344   0.928  11.436   2.327 -0.5153 -0.1676 -2.5739
  247MOL0     H33345   0.859  11.316   2.439  1.1175 -0.0175  0.4937
  248MOL0     O33346   2.648   9.722   9.348 -0.9530  0.2468 -0.0998
  248MOL0     C33347   2.551   9.725   9.270 -0.2262 -0.6147 -0.2328
  248MOL0     O33348   2.564   9.735   9.135 -0.1289 -0.3931  0.0861
  248MOL0     C33349   2.673   9.680   9.073 -0.2598 -0.8362  0.9309
  248MOL0     C33350   2.771   9.583   9.114  0.9943 -0.7684  0.4955
  248MOL0     C33351   2.882   9.543   9.040 -0.5050  0.0626 -0.1071
  248MOL0     C33352   2.888   9.586   8.909  0.8914 -0.0546 -0.5109
  248MOL0     O33353   2.994   9.531   8.836 -0.0811 -0.8654 -0.1698
  248MOL0     C33354   2.980   9.542   8.691  0.1163  0.2790 -0.6907
  248MOL0     C33355   3.077   9.455   8.615  0.4039 -0.1852  0.1295
  248MOL0     C33356   3.213   9.512   8.604 -0.2203  0.0067  0.7925
  248MOL0     C33357   3.278   9.465   8.479  1.7101 -0.3167 -0.1881
  248MOL0     C33358   3.424   9.502   8.481 -0.8039  0.4409  0.7998
  248MOL0     C33359   3.487   9.448   8.352  0.1543  0.0187  0.4189
  248MOL0     C33360   3.619   9.530   8.329  0.1697 -0.2615 -0.3167
  248MOL0     C33361   3.697   9.453   8.222  0.2663  0.1336 -0.4937
  248MOL0     N33362   3.843   9.476   8.227 -0.0572 -0.2782  0.4218
  248MOL0     C33363   3.911   9.525   8.333 -0.0782 -0.3458 -0.5639
  248MOL0     C33364   4.034   9.577   8.289  0.2423 -0.1040 -0.1850
  248MOL0     C33365   4.122   9.653   8.384 -0.3772  0.1295  1.4206
  248MOL0     C33366   4.087   9.801   8.378  0.3468 -0.5450 -0.5533
  248MOL0     C33367   4.154   9.880   8.499  0.9324  0.1682 -0.5145
  248MOL0     C33368   4.306   9.883   8.502 -0.0015 -0.3105  0.7258
  248MOL0     O33369   4.352   9.946   8.380  0.1967  0.3924 -0.6979
  248MOL0     C33370   4.485   9.978   8.371 -1.2467 -0.2691  0.9820
  248MOL0     C33371   4.523  10.060   8.260 -0.4643  0.4805  0.0854
  248MOL0     C33372   4.652  10.112   8.240  0.1778  0.8711  0.1563
  248MOL0     C33373   4.750  10.077   8.334 -0.6819  0.6708 -0.8475
  248MOL0     C33374   4.883  10.137   8.341  0.0966 -1.0109 -0.1948
  248MOL0     O33375   4.909  10.234   8.240 -0.1353 -0.0251 -0.2663
  248MOL0     C33376   5.032  10.302   8.223 -0.0386 -0.5658  0.9127
  248MOL0     C33377   5.029  10.432   8.162 -0.2770  0.3581  0.2368
  248MOL0     C33378   5.142  10.515   8.142  0.1742  0.6862 -0.0188
  248MOL0     C33379   5.266  10.472   8.184 -0.6402 -0.4035  0.3021
  248MOL0     O33380   5.382  10.535   8.144 -0.8500 -0.5748  0.2169
  248MOL0     C33381   5.388  10.679   8.091 -0.4001  0.4556 -0.7275
  248MOL0     C33382   5.526  10.727   8.077 -0.3037  0.4917 -0.4266
  248MOL0     C33383   5.613  10.731   8.207 -0.0539  0.3732 -0.1136
  248MOL0     C33384   5.761  10.711   8.170 -0.1900 -0.7163 -0.3858
  248MOL0     C33385   5.857  10.711   8.292 -0.2308  0.6398  1.9224
  248MOL0     C33386   5.882  10.843   8.366 -1.3394 -0.8221 -0.5706
  248MOL0     C33387   5.914  10.967   8.279 -0.3141 -0.5271  0.2059
  248MOL0     C33388   6.019  10.938   8.164 -0.3053  0.1394 -0.2329
  248MOL0    Cl33389   6.157  10.879   8.252  0.1403 -0.7667  0.2196
  248MOL0     C33390   5.271  10.348   8.245 -0.5676  0.7994  0.1799
  248MOL0     C33391   5.154  10.262   8.273  0.5323 -0.0768  0.6992
  248MOL0     O33392   4.959  10.100   8.428 -0.4315 -0.1757  0.2463
  248MOL0     C33393   4.715   9.983   8.438  0.1851  0.6459  0.3031
  248MOL0     C33394   4.581   9.943   8.465  0.0104 -0.6838  0.2435
  248MOL0     N33395   4.034   9.557   8.149  0.2257 -0.1383  0.9268
  248MOL0     N33396   3.920   9.505   8.117  0.1612  0.6221  0.1438
  248MOL0     C33397   2.792   9.681   8.862  0.8023 -0.3547 -0.2308
  248MOL0     C33398   2.692   9.729   8.942 -0.3829 -0.5476  1.3111
  248MOL0     C33399   2.421   9.727   9.335 -1.2625 -0.3138  0.4748
  248MOL0     C33400   2.320   9.776   9.255 -0.3853  0.1162  0.0311
  248MOL0     C33401   2.188   9.773   9.303 -0.6458 -0.0778  0.1182
  248MOL0     C33402   2.154   9.724   9.425  0.9736  1.6761  0.6324
  248MOL0     O33403   2.015   9.719   9.449 -0.2959 -0.0339 -0.2983
  248MOL0     C33404   1.973   9.658   9.568 -0.3897 -0.5217 -0.0420
  248MOL0     C33405   1.844   9.710   9.615  0.5134  0.6159 -0.2745
  248MOL0     C33406   1.794   9.658   9.758  0.1706  0.3707  0.0937
  248MOL0     C33407   1.653   9.714   9.791 -0.9750 -0.1300 -0.3629
  248MOL0     C33408   1.674   9.837   9.865  1.1373 -0.0138  0.9662
  248MOL0     C33409   1.692   9.937   9.929 -0.0488 -0.0806 -0.0136
  248MOL0     C33410   2.248   9.675   9.516 -0.8364 -0.7811  0.0304
  248MOL0     C33411   2.384   9.687   9.470  0.5741  0.4155 -0.2206
  248MOL0     C33412   2.492   9.625   9.564  0.1423  0.2072  0.5075
  248MOL0     H33413   2.750   9.543   9.212  0.7707  1.0961  1.2428
  248MOL0     H33414   2.960   9.477   9.076  3.0274  1.2268 -4.5806
  248MOL0     H33415   2.886   9.494   8.665 -0.3067  0.4635  0.4322
  248MOL0     H33416   2.978   9.649   8.669 -0.4942  1.4060  3.8106
  248MOL0     H33417   3.041   9.448   8.512 -0.8154  2.2492  0.3058
  248MOL0     H33418   3.088   9.355   8.659 -0.8475 -0.1492  0.5665
  248MOL0     H33419   3.276   9.476   8.687 -1.2596  0.8402  1.9672
  248MOL0     H33420   3.214   9.621   8.606  1.7403  0.1682 -2.0442
  248MOL0     H33421   3.260   9.358   8.465  0.3184 -0.1427  0.1075
  248MOL0     H33422   3.229   9.516   8.395 -0.1832 -2.0763 -0.2393
  248MOL0     H33423   3.435   9.610   8.492  0.5578  0.1986  2.0738
  248MOL0     H33424   3.483   9.470   8.567  1.9254  1.0868 -0.7206
  248MOL0     H33425   3.508   9.344   8.378 -1.6385  0.0324  2.1256
  248MOL0     H33426   3.425   9.437   8.262  0.5361 -1.5423  0.3096
  248MOL0     H33427   3.672   9.542   8.424  2.1464  2.6218 -1.6307
  248MOL0     H33428   3.599   9.635   8.307 -2.6998 -0.7607 -0.5625
  248MOL0     H33429   3.677   9.346   8.230  5.5411 -1.0515  0.4241
  248MOL0     H33430   3.658   9.481   8.124 -0.6005 -1.7606 -0.7323
  248MOL0     H33431   3.873   9.511   8.433  0.0779  1.0625 -0.2920
  248MOL0     H33432   4.101   9.623   8.487 -1.3633 -0.7845  0.9749
  248MOL0     H33433   4.225   9.625   8.361 -0.2505  1.2119  0.6095
  248MOL0     H33434   4.128   9.835   8.283  1.9889 -1.0857 -0.0765
  248MOL0     H33435   3.979   9.813   8.378  0.4243  2.1846  3.3294
  248MOL0     H33436   4.114   9.829   8.587 -1.6315  0.7748 -1.2470
  248MOL0     H33437   4.124   9.985   8.509  1.1689  0.0578  2.2012
  248MOL0     H33438   4.348   9.782   8.509 -1.1600 -0.9073 -0.5237
  248MOL0     H33439   4.331   9.946   8.588  1.1557  2.6073 -1.5976
  248MOL0     H33440   4.450  10.091   8.186  0.5049  1.9796 -0.3022
  248MOL0     H33441   4.685  10.180   8.162  2.6207  0.1575  0.4759
  248MOL0     H33442   4.930  10.460   8.126 -0.7421 -0.0852  1.1352
  248MOL0     H33443   5.129  10.618   8.109  0.5953  1.5831  2.4186
  248MOL0     H33444   5.345  10.689   7.991  1.2212  0.9966 -1.4062
  248MOL0     H33445   5.338  10.749   8.159  1.2281 -0.0796  1.1019
  248MOL0     H33446   5.590  10.689   7.997  1.8750  1.6081  0.6875
  248MOL0     H33447   5.523  10.827   8.033 -0.1873  1.0766  0.8455
  248MOL0     H33448   5.597  10.825   8.259 -2.8182 -0.2291  0.2982
  248MOL0     H33449   5.582  10.656   8.280 -1.9953  1.0585 -0.1833
  248MOL0     H33450   5.793  10.785   8.096 -1.7902  2.2676  1.6688
  248MOL0     H33451   5.775  10.613   8.125 -1.6836 -1.7764  1.2910
  248MOL0     H33452   5.955  10.680   8.253 -1.3296 -1.9237  0.9504
  248MOL0     H33453   5.812  10.639   8.361 -3.0946 -0.1231 -0.5253
  248MOL0     H33454   5.789  10.876   8.414 -2.3629  0.5165 -3.3082
  248MOL0     H33455   5.961  10.835   8.441 -1.0387  2.8106 -0.3117
  248MOL0     H33456   5.949  11.052   8.338  2.0569 -0.9914 -0.4153
  248MOL0     H33457   5.825  11.003   8.227  0.1162  1.8781  1.0366
  248MOL0     H33458   5.979  10.869   8.089 -2.4801  1.5252 -0.4441
  248MOL0     H33459   6.042  11.031   8.111 -3.5062  1.2968  0.1860
  248MOL0     H33460   5.371  10.308   8.263 -0.8738  0.4029  1.0774
  248MOL0     H33461   5.164  10.171   8.331 -1.6170  0.1317  1.4849
  248MOL0     H33462   4.790   9.935   8.500  1.2148  2.0195  0.1747
  248MOL0     H33463   4.577   9.885   8.556 -2.7870 -0.3417  0.4314
  248MOL0     H33464   2.792   9.737   8.769 -0.3382 -0.8346 -0.5390
  248MOL0     H33465   2.630   9.809   8.903  0.3119  0.1383  1.6016
  248MOL0     H33466   2.342   9.800   9.151 -2.7787  2.9750  0.0200
  248MOL0     H33467   2.109   9.814   9.241  0.6677 -1.0573 -2.3372
  248MOL0     H33468   2.038   9.689   9.651  0.7318  1.3232 -1.5209
  248MOL0     H33469   1.978   9.549   9.559  3.7805 -0.5392  0.4886
  248MOL0     H33470   1.773   9.681   9.536 -0.2874  2.0306 -0.1256
  248MOL0     H33471   1.844   9.819   9.611  1.5876  0.6138 -0.3988
  248MOL0     H33472   1.868   9.686   9.834 -0.9149  1.5330  0.7683
  248MOL0     H33473   1.785   9.549   9.755  0.2458  0.3752 -0.3282
  248MOL0     H33474   1.605   9.738   9.696  1.9029  0.8004 -1.6876
  248MOL0     H33475   1.599   9.642   9.853 -0.5541  0.1802  0.3803
  248MOL0     H33476   1.716  10.014   9.999 -1.8993 -1.4454  2.2835
  248MOL0     H33477   2.216   9.625   9.607 -4.1163 -1.4241 -1.3728
  248MOL0     H33478   2.444   9.583   9.653  0.9518 -1.1851  0.3200
  248MOL0     H33479   2.537   9.538   9.514  1.3719  1.3830 -0.5018
  248MOL0     H33480   2.564   9.695   9.606 -0.4476 -0.4832  2.8055
  249MOL0     O33481   3.080  10.307  10.512  0.2663  0.3885  0.1337
  249MOL0     C33482   3.015  10.286  10.612  0.1272 -1.3676 -0.6769
  249MOL0     O33483   3.033  10.184  10.695  0.4827  0.4537  0.0301
  249MOL0     C33484   3.126  10.081  10.696  0.2588  0.4591  0.4763
  249MOL0     C33485   3.104   9.973  10.782  0.9498  0.5562  0.9531
  249MOL0     C33486   3.201   9.882  10.805 -0.6394 -0.0819 -0.4023
  249MOL0     C33487   3.323   9.875  10.737  0.7991  0.5994  1.1932
  249MOL0     O33488   3.428   9.787  10.745  0.0521  0.0269  0.4873
  249MOL0     C33489   3.411   9.665  10.819 -0.3284 -0.1884  0.4168
  249MOL0     C33490   3.542   9.599  10.827 -0.3971 -0.5025  0.0891
  249MOL0     C33491   3.615   9.580  10.686  0.2570 -0.0692 -0.0419
  249MOL0     C33492   3.744   9.492  10.698 -0.9075 -0.2210 -0.6920
  249MOL0     C33493   3.853   9.548  10.792 -0.8832 -0.4644 -0.0581
  249MOL0     C33494   3.975   9.470  10.759  0.1170 -0.5285  0.3497
  249MOL0     C33495   4.080   9.504  10.871  0.1952 -0.8130 -0.0646
  249MOL0     C33496   4.202   9.408  10.860  0.4237  0.2273 -1.0076
  249MOL0     N33497   4.265   9.398  10.728 -0.2789  0.9455  0.1402
  249MOL0     C33498   4.300   9.510  10.655  0.2919  0.1769  0.2974
  249MOL0     C33499   4.380   9.460  10.561 -0.9026  0.3778  0.2025
  249MOL0     C33500   4.457   9.526  10.450 -0.2879 -0.2250 -0.0560
  249MOL0     C33501   4.608   9.536  10.471  1.0890 -0.2333  0.4568
  249MOL0     C33502   4.677   9.556  10.337 -1.1574  0.4511  0.1001
  249MOL0     C33503   4.828   9.584  10.356 -1.2049 -0.2097  0.2184
  249MOL0     O33504   4.888   9.468  10.401  0.5287  0.1336 -0.3150
  249MOL0     C33505   5.019   9.456  10.414  0.5008 -0.5407  0.2893
  249MOL0     C33506   5.064   9.327  10.445  0.0875  0.3396  0.7648
  249MOL0     C33507   5.204   9.309  10.463  0.5431  0.3971 -0.0458
  249MOL0     C33508   5.295   9.412  10.434  0.6497  0.3793 -0.0648
  249MOL0     C33509   5.443   9.396  10.451 -0.8419 -0.6970 -0.8743
  249MOL0     O33510   5.474   9.276  10.502 -0.1053  0.0281 -0.0721
  249MOL0     C33511   5.607   9.233  10.514  0.4732  0.4953 -0.9820
  249MOL0     C33512   5.730   9.290  10.470  1.2775  0.3783 -0.6642
  249MOL0     C33513   5.848   9.228  10.470 -0.0794  0.7776 -0.3554
  249MOL0     C33514   5.869   9.105  10.522  0.9753 -0.5176 -0.6891
  249MOL0     O33515   5.996   9.061  10.536 -0.2701  0.5920 -0.1072
  249MOL0     C33516   6.023   8.944  10.614 -0.2387  0.5207  1.1191
  249MOL0     C33517   6.168   8.901  10.609 -0.2506  0.3639 -0.5800
  249MOL0     C33518   6.248   8.933  10.475 -0.1956 -0.1888  0.2966
  249MOL0     C33519   6.383   8.877  10.495  0.6112 -0.2746 -1.0880
  249MOL0     C33520   6.449   8.849  10.351 -0.5022 -0.6201 -0.8171
  249MOL0     C33521   6.473   8.704  10.313 -0.5516  0.7293 -0.0957
  249MOL0     C33522   6.350   8.634  10.258  0.3661  0.2446  0.2650
  249MOL0     C33523   6.374   8.482  10.227  0.5013  0.2782  0.2688
  249MOL0    Cl33524   6.541   8.434  10.172  0.1607 -0.7088  0.3389
  249MOL0     C33525   5.753   9.053  10.591 -0.7981  0.0609  0.1315
  249MOL0     C33526   5.625   9.119  10.584  0.1751 -0.7923 -0.1728
  249MOL0     O33527   5.518   9.484  10.406 -0.2183 -0.8100 -0.1642
  249MOL0     C33528   5.249   9.534  10.392 -0.1584 -0.5987 -0.2385
  249MOL0     C33529   5.111   9.559  10.388 -0.4609  0.2332 -0.3778
  249MOL0     N33530   4.383   9.319  10.575 -0.2325  0.1751 -0.1855
  249MOL0     N33531   4.311   9.282  10.675  0.0757 -0.9126  0.1748
  249MOL0     C33532   3.338   9.970  10.640 -0.4084  0.0616 -0.1977
  249MOL0     C33533   3.242  10.072  10.625  0.1959 -1.0467  0.7894
  249MOL0     C33534   2.898  10.368  10.635 -0.3882 -0.0990 -0.1466
  249MOL0     C33535   2.773  10.302  10.666  0.4935 -0.2424 -0.7825
  249MOL0     C33536   2.658  10.384  10.702 -0.7925 -0.6129 -0.8844
  249MOL0     C33537   2.672  10.521  10.714 -0.2008  0.4826  0.1567
  249MOL0     O33538   2.557  10.583  10.747  0.6546  0.6469 -0.0261
  249MOL0     C33539   2.554  10.728  10.764 -0.6385  0.2183 -0.5974
  249MOL0     C33540   2.443  10.788  10.849 -0.5997  0.3493 -0.4877
  249MOL0     C33541   2.315  10.757  10.780  0.0705  0.0439 -0.0183
  249MOL0     C33542   2.187  10.808  10.843  0.3168  0.2616 -0.1121
  249MOL0     C33543   2.169  10.759  10.981  0.0553 -0.2903 -0.2514
  249MOL0     C33544   2.150  10.706  11.089  1.0119 -0.2854  1.0056
  249MOL0     C33545   2.785  10.584  10.661  0.2740 -0.5951  1.0337
  249MOL0     C33546   2.899  10.510  10.621 -0.2091 -0.9421 -1.0188
  249MOL0     C33547   3.016  10.592  10.577 -0.1901 -0.3433 -0.5004
  249MOL0     H33548   3.004   9.965  10.824 -1.8074  4.1033 -3.9040
  249MOL0     H33549   3.184   9.790  10.860 -0.5070  0.2525  0.2070
  249MOL0     H33550   3.378   9.680  10.922  4.4357  0.1909  2.1622
  249MOL0     H33551   3.332   9.606  10.772 -1.7694  2.3869 -0.6469
  249MOL0     H33552   3.544   9.501  10.875  0.0462 -2.0784 -2.8746
  249MOL0     H33553   3.607   9.667  10.883  0.6973 -0.5028 -1.1094
  249MOL0     H33554   3.643   9.680  10.650 -3.1387  1.9554  2.3617
  249MOL0     H33555   3.537   9.533  10.625 -0.8242 -2.5876  3.0339
  249MOL0     H33556   3.719   9.396  10.744  1.6011 -0.0632  1.2085
  249MOL0     H33557   3.792   9.482  10.601  0.2313 -5.4600  0.1304
  249MOL0     H33558   3.861   9.655  10.771  2.0634  0.1936  3.5273
  249MOL0     H33559   3.827   9.545  10.898  0.5338 -0.9490  0.2947
  249MOL0     H33560   3.951   9.363  10.759 -1.0557 -0.3068 -1.5782
  249MOL0     H33561   4.008   9.496  10.658 -0.7810  0.3294  0.2553
  249MOL0     H33562   4.041   9.508  10.973  0.7283  1.5386  0.0914
  249MOL0     H33563   4.122   9.605  10.868 -2.3639  0.3323  0.4742
  249MOL0     H33564   4.279   9.449  10.926 -0.7432  0.8065  0.0438
  249MOL0     H33565   4.165   9.312  10.899 -0.4440  1.1776  0.6277
  249MOL0     H33566   4.273   9.611  10.683 -1.8806 -0.3480  0.3332
  249MOL0     H33567   4.443   9.458  10.366 -0.0668  1.3230 -1.4002
  249MOL0     H33568   4.418   9.623  10.417 -1.3242 -0.2406  1.0562
  249MOL0     H33569   4.630   9.622  10.536  3.2874 -1.4613  1.4330
  249MOL0     H33570   4.648   9.446  10.518 -0.3535  0.6911  3.8491
  249MOL0     H33571   4.626   9.638  10.285  1.6595  3.2315  1.4661
  249MOL0     H33572   4.665   9.467  10.273 -0.6501 -0.3993  1.1636
  249MOL0     H33573   4.840   9.672  10.419  0.4412  0.2668 -0.6929
  249MOL0     H33574   4.870   9.606  10.257  3.2578 -0.6018  1.7973
  249MOL0     H33575   4.996   9.246  10.469  2.2464 -1.0674  2.5144
  249MOL0     H33576   5.237   9.206  10.472 -1.4983 -0.6153 -2.6929
  249MOL0     H33577   5.742   9.387  10.423  1.9436  2.3051  3.0874
  249MOL0     H33578   5.937   9.277  10.431  2.1000 -2.8115 -0.3521
  249MOL0     H33579   5.989   8.967  10.715  0.4858 -1.3291  1.8333
  249MOL0     H33580   5.960   8.863  10.575 -2.0004  2.6692 -0.8053
  249MOL0     H33581   6.216   8.951  10.694  0.9006 -0.0631 -0.9523
  249MOL0     H33582   6.175   8.794  10.629  0.6896  0.7677  1.4960
  249MOL0     H33583   6.193   8.890  10.391 -1.6789 -1.2518  1.7440
  249MOL0     H33584   6.249   9.042  10.459 -0.7521 -0.6414 -3.8030
  249MOL0     H33585   6.388   8.794  10.565  1.5288  0.2164 -0.5635
  249MOL0     H33586   6.427   8.954  10.558 -2.2427  0.8027 -0.2315
  249MOL0     H33587   6.543   8.905  10.352 -1.3130  0.8110 -0.2246
  249MOL0     H33588   6.399   8.903  10.269 -2.1763  0.0754  0.5981
  249MOL0     H33589   6.553   8.704  10.238  0.4373 -2.7962  0.8109
  249MOL0     H33590   6.510   8.648  10.398  0.7816 -0.0308 -1.1331
  249MOL0     H33591   6.321   8.668  10.158 -0.2289 -0.6077  0.1379
  249MOL0     H33592   6.265   8.651  10.324 -0.4510 -1.8723 -0.1825
  249MOL0     H33593   6.343   8.421  10.312  3.5654 -1.9453 -0.0443
  249MOL0     H33594   6.311   8.461  10.140 -0.2269  0.3468  0.7703
  249MOL0     H33595   5.761   8.963  10.651  0.4652  0.7581  1.0589
  249MOL0     H33596   5.542   9.074  10.638  0.5522  0.4018  1.4868
  249MOL0     H33597   5.308   9.622  10.367 -4.2400  1.4790 -3.9136
  249MOL0     H33598   5.080   9.663  10.384 -3.4543 -0.5676 -0.1717
  249MOL0     H33599   3.426   9.958  10.577  0.7639 -1.1098  1.5813
  249MOL0     H33600   3.259  10.149  10.551 -4.3440 -1.6391 -1.2630
  249MOL0     H33601   2.741  10.198  10.665  1.4314 -0.6000  1.5583
  249MOL0     H33602   2.564  10.336  10.725  0.0323 -1.5519  0.7277
  249MOL0     H33603   2.547  10.770  10.663 -3.4130  0.6080 -0.3098
  249MOL0     H33604   2.648  10.756  10.814 -2.1099  1.9540  1.3801
  249MOL0     H33605   2.447  10.896  10.863 -1.1408  0.3309 -0.1532
  249MOL0     H33606   2.448  10.741  10.947 -1.5032  0.2733 -0.4704
  249MOL0     H33607   2.302  10.649  10.767  0.4011 -0.2807  2.0376
  249MOL0     H33608   2.316  10.813  10.686 -1.0254  1.7880  0.9729
  249MOL0     H33609   2.179  10.916  10.832 -1.2147  0.0393 -1.5494
  249MOL0     H33610   2.104  10.769  10.784  1.1314 -2.1179  0.1882
  249MOL0     H33611   2.136  10.662  11.186 -1.5650 -0.1408  0.7761
  249MOL0     H33612   2.774  10.689  10.636 -1.0450 -0.5263  1.8544
  249MOL0     H33613   3.110  10.540  10.559 -0.5159 -1.7294  1.4523
  249MOL0     H33614   2.997  10.657  10.491 -1.8169 -3.2305 -2.5284
  249MOL0     H33615   3.038  10.650  10.667  0.4190 -0.7560 -0.3805
  250MOL0     O33616   3.732  11.363   4.891 -0.4365 -0.1424  0.3895
  250MOL0     C33617   3.771  11.316   4.784  0.2848 -0.0060 -0.6266
  250MOL0     O33618   3.889  11.342   4.711 -0.9764  0.3869  0.2574
  250MOL0     C33619   3.993  11.404   4.779  0.1154  0.2179 -0.1356
  250MOL0     C33620   3.991  11.538   4.799  0.0412 -0.2299 -0.1432
  250MOL0     C33621   4.076  11.608   4.880  0.5965 -0.1059 -0.1270
  250MOL0     C33622   4.187  11.540   4.924  0.3691 -0.4653  0.2440
  250MOL0     O33623   4.294  11.606   4.985 -0.1081  0.5643 -0.0890
  250MOL0     C33624   4.314  11.743   4.951  0.7939  1.0550  0.3159
  250MOL0     C33625   4.453  11.793   4.982 -0.4487  0.0110  0.5164
  250MOL0     C33626   4.454  11.938   4.925  1.1038 -0.1434 -0.5696
  250MOL0     C33627   4.563  12.009   4.995  0.8331 -0.1230  0.0441
  250MOL0     C33628   4.609  12.150   4.935 -0.2776 -0.3902  0.0327
  250MOL0     C33629   4.660  12.138   4.790  0.1262 -0.0994  0.1499
  250MOL0     C33630   4.658  12.285   4.725 -0.8005 -0.1327 -0.6803
  250MOL0     C33631   4.783  12.363   4.757 -0.3979 -0.2131  0.7930
  250MOL0     N33632   4.810  12.398   4.891  0.5328 -0.3966 -0.3320
  250MOL0     C33633   4.910  12.339   4.958 -1.0781 -0.0400 -0.3179
  250MOL0     C33634   4.912  12.412   5.072  0.7288  0.2524 -0.9640
  250MOL0     C33635   5.011  12.388   5.186  0.3396  1.3327  0.4397
  250MOL0     C33636   5.149  12.441   5.150 -0.7443 -0.1961  0.0042
  250MOL0     C33637   5.256  12.431   5.272  0.1726 -0.4466 -0.1949
  250MOL0     C33638   5.396  12.499   5.263  0.7600  0.8863 -0.1917
  250MOL0     O33639   5.454  12.525   5.388  0.0420  0.9375 -0.5905
  250MOL0     C33640   5.549  12.445   5.439  1.4215  0.3104  1.5964
  250MOL0     C33641   5.559  12.438   5.574  0.3358 -0.2625 -0.1648
  250MOL0     C33642   5.658  12.369   5.638 -0.5798  0.1049  0.0941
  250MOL0     C33643   5.760  12.301   5.561 -0.8196 -0.2575 -0.3339
  250MOL0     C33644   5.886  12.266   5.623  0.3183 -0.0655 -0.0362
  250MOL0     O33645   5.968  12.185   5.546 -0.5287  0.5017  0.0319
  250MOL0     C33646   6.088  12.152   5.605  0.0568 -0.4343  0.8051
  250MOL0     C33647   6.096  12.029   5.681 -0.4812  0.3334  0.3003
  250MOL0     C33648   6.220  12.002   5.750  0.8714  0.4959 -0.5698
  250MOL0     C33649   6.338  12.089   5.732 -0.0454 -0.5965 -0.1799
  250MOL0     O33650   6.458  12.076   5.789 -0.1705  0.4357  1.0200
  250MOL0     C33651   6.510  11.945   5.786  1.5496  0.0004 -0.1903
  250MOL0     C33652   6.541  11.895   5.645 -0.0400 -0.5939  0.6880
  250MOL0     C33653   6.631  11.987   5.563 -0.5235  0.6350 -0.6842
  250MOL0     C33654   6.681  11.903   5.439 -0.8952 -0.4600 -0.8384
  250MOL0     C33655   6.743  11.996   5.335  0.0258  0.3238  0.4652
  250MOL0     C33656   6.804  11.923   5.205  0.7896 -0.4654 -0.5918
  250MOL0     C33657   6.860  12.024   5.108 -0.2259 -0.3761 -0.1067
  250MOL0     C33658   6.925  11.966   4.990  0.2691  0.4965 -0.2900
  250MOL0    Cl33659   7.088  11.896   5.038 -0.2165 -0.2574 -0.5148
  250MOL0     C33660   6.314  12.202   5.650 -0.1644  0.1627 -0.1938
  250MOL0     C33661   6.197  12.237   5.591  1.5537  0.7224  0.9509
  250MOL0     O33662   5.898  12.279   5.742  0.8191 -0.7636  0.2696
  250MOL0     C33663   5.750  12.306   5.415  0.0796 -0.3396 -0.4701
  250MOL0     C33664   5.648  12.388   5.358 -0.6205  0.7348  0.3067
  250MOL0     N33665   4.794  12.491   5.074  0.0298  0.3009  0.6121
  250MOL0     N33666   4.739  12.490   4.957 -0.3289 -0.9937  0.7765
  250MOL0     C33667   4.194  11.392   4.904  0.8878  0.1313 -0.2860
  250MOL0     C33668   4.095  11.329   4.835 -1.4728 -0.3243  0.2525
  250MOL0     C33669   3.668  11.243   4.719 -1.3098  0.7951  0.5471
  250MOL0     C33670   3.653  11.262   4.584  0.6193 -0.3488  0.9467
  250MOL0     C33671   3.552  11.195   4.514  1.2366 -0.3730 -0.4479
  250MOL0     C33672   3.465  11.121   4.585  0.3786  0.4380  1.3464
  250MOL0     O33673   3.361  11.049   4.525  0.4884  0.4830  0.6749
  250MOL0     C33674   3.337  11.034   4.386  0.5637 -0.2618  0.7798
  250MOL0     C33675   3.243  10.915   4.381  0.0919 -0.0633 -0.0025
  250MOL0     C33676   3.105  10.936   4.429 -0.3039  0.5391 -0.2740
  250MOL0     C33677   3.044  10.799   4.447 -0.2072 -0.1675 -0.2454
  250MOL0     C33678   2.899  10.817   4.448 -0.1688 -0.8042  0.3786
  250MOL0     C33679   2.781  10.847   4.464 -0.8333 -0.4715  0.4303
  250MOL0     C33680   3.471  11.093   4.716 -0.0729  0.0924 -0.9415
  250MOL0     C33681   3.580  11.147   4.785  0.0423  1.2332  0.1869
  250MOL0     C33682   3.589  11.108   4.930 -0.4749 -0.0234 -0.3375
  250MOL0     H33683   3.897  11.573   4.758 -0.7685 -3.1395 -0.9925
  250MOL0     H33684   4.060  11.713   4.903  1.7645 -0.2244  1.4596
  250MOL0     H33685   4.290  11.767   4.847 -1.1852 -0.3477  0.3964
  250MOL0     H33686   4.229  11.786   5.004  0.0584 -0.2333  0.2293
  250MOL0     H33687   4.532  11.732   4.938  0.6016  1.3731  0.4532
  250MOL0     H33688   4.468  11.780   5.090  1.6074  0.1990  0.2950
  250MOL0     H33689   4.361  11.996   4.936  1.4559  0.1961  0.8247
  250MOL0     H33690   4.476  11.924   4.819 -2.5121 -1.8947 -1.2355
  250MOL0     H33691   4.536  12.009   5.101 -1.6464  2.2294 -0.4729
  250MOL0     H33692   4.651  11.945   4.983  0.7607  0.2427 -3.5828
  250MOL0     H33693   4.522  12.216   4.942 -0.4586 -0.5587 -0.5867
  250MOL0     H33694   4.686  12.198   4.997 -2.2690 -1.6978  3.8642
  250MOL0     H33695   4.760  12.098   4.776  0.5348  0.7503  0.5652
  250MOL0     H33696   4.581  12.103   4.722  1.8381  2.0606 -3.2353
  250MOL0     H33697   4.575  12.335   4.775  0.2304  0.2598  0.6987
  250MOL0     H33698   4.637  12.293   4.618 -0.5638 -1.8954 -0.8839
  250MOL0     H33699   4.869  12.306   4.720 -1.4933 -1.3046 -0.1874
  250MOL0     H33700   4.771  12.454   4.697  5.8762  1.5597  1.5386
  250MOL0     H33701   4.985  12.269   4.922 -1.0989 -0.1552 -0.1415
  250MOL0     H33702   4.976  12.443   5.274 -2.8069  0.0295  0.1277
  250MOL0     H33703   5.022  12.281   5.203  1.3781  1.5907  1.5594
  250MOL0     H33704   5.202  12.388   5.071  0.1887  0.9393 -0.1646
  250MOL0     H33705   5.144  12.546   5.119 -2.0992 -0.0564  0.6068
  250MOL0     H33706   5.267  12.325   5.299  0.9395  0.0208  1.4258
  250MOL0     H33707   5.211  12.485   5.356  0.0505  1.4167 -1.4038
  250MOL0     H33708   5.394  12.594   5.209 -0.4894  0.4412 -0.9678
  250MOL0     H33709   5.449  12.438   5.190 -1.1020  1.7934 -2.4143
  250MOL0     H33710   5.491  12.496   5.635  2.3758 -0.8359  2.8598
  250MOL0     H33711   5.679  12.372   5.744  0.0580 -0.1993 -0.0137
  250MOL0     H33712   6.007  11.968   5.694 -0.5124  0.8483  3.5160
  250MOL0     H33713   6.208  11.931   5.831  1.8240  3.1151  2.0488
  250MOL0     H33714   6.602  11.957   5.843  1.0489 -1.6265  1.0455
  250MOL0     H33715   6.450  11.869   5.838 -0.1552 -0.8453 -3.1283
  250MOL0     H33716   6.593  11.799   5.646  0.2999 -0.5598 -2.6471
  250MOL0     H33717   6.447  11.871   5.594  0.5224  1.0174 -1.2498
  250MOL0     H33718   6.584  12.076   5.520 -0.0176  0.2163 -2.1788
  250MOL0     H33719   6.710  12.034   5.621  0.5179  0.1694 -1.6919
  250MOL0     H33720   6.595  11.854   5.393 -0.9640 -1.0906 -0.0599
  250MOL0     H33721   6.745  11.822   5.474 -1.6456 -0.3687  0.7951
  250MOL0     H33722   6.818  12.057   5.387  0.6209  2.1780 -2.3567
  250MOL0     H33723   6.674  12.066   5.288  3.3600  2.1217 -2.1907
  250MOL0     H33724   6.876  11.843   5.224  0.6104 -0.3903  0.4829
  250MOL0     H33725   6.720  11.887   5.144  0.6074  2.3281 -2.1179
  250MOL0     H33726   6.927  12.093   5.161 -0.2601 -0.0492 -0.4838
  250MOL0     H33727   6.784  12.091   5.068  0.8049  0.3277 -0.9511
  250MOL0     H33728   6.868  11.890   4.937 -1.1248  1.0284  0.3969
  250MOL0     H33729   6.943  12.048   4.920  2.1827 -0.9613 -1.6117
  250MOL0     H33730   6.401  12.265   5.632 -1.1544  0.9618 -2.6509
  250MOL0     H33731   6.191  12.320   5.522 -0.6114 -1.1061 -1.2890
  250MOL0     H33732   5.835  12.287   5.351 -0.6970 -0.2203 -1.5605
  250MOL0     H33733   5.651  12.397   5.250 -3.1623  1.3929  0.2228
  250MOL0     H33734   4.283  11.332   4.925  1.1403 -0.3617 -2.5407
  250MOL0     H33735   4.114  11.225   4.808  1.8708 -0.2644  1.8278
  250MOL0     H33736   3.710  11.340   4.535 -3.2072  0.8862 -2.0097
  250MOL0     H33737   3.542  11.218   4.408 -0.8098  2.9643  0.3143
  250MOL0     H33738   3.424  11.006   4.326  0.0815  1.5435 -0.8503
  250MOL0     H33739   3.286  11.124   4.349  0.8026 -0.5900 -0.3819
  250MOL0     H33740   3.287  10.835   4.441  0.4056  0.0010 -0.1448
  250MOL0     H33741   3.244  10.893   4.274 -1.3503  1.0826 -0.2884
  250MOL0     H33742   3.054  10.988   4.347 -0.9444 -2.4211 -1.8833
  250MOL0     H33743   3.110  10.985   4.527 -1.6632 -0.6794  0.4439
  250MOL0     H33744   3.078  10.734   4.366  0.1340  1.1255 -1.1841
  250MOL0     H33745   3.071  10.746   4.538 -1.4819 -1.4163 -0.5700
  250MOL0     H33746   2.683  10.890   4.472 -1.0605  0.3304 -4.1062
  250MOL0     H33747   3.395  11.042   4.774 -0.1150  0.0396 -1.0449
  250MOL0     H33748   3.590  10.999   4.917 -3.1925  0.1366 -3.1383
  250MOL0     H33749   3.686  11.133   4.974  0.8515  0.2388 -3.1795
  250MOL0     H33750   3.503  11.146   4.985 -1.1595 -3.1846  1.0086
  251MOL0     O33751  10.828   6.323   6.331  0.4180 -0.2158  0.0116
  251MOL0     C33752  10.817   6.341   6.212  0.1411  0.2299  0.0577
  251MOL0     O33753  10.855   6.449   6.139 -0.2913 -0.3291  0.4535
  251MOL0     C33754  10.940   6.541   6.195  0.6918  0.0999  0.0419
  251MOL0     C33755  11.048   6.577   6.118 -0.9523  0.3140 -0.3532
  251MOL0     C33756  11.147   6.670   6.158  0.3172 -0.3233  0.0515
  251MOL0     C33757  11.135   6.735   6.284  0.3669  0.3688  0.5339
  251MOL0     O33758  11.231   6.825   6.317 -0.9477  0.1022  0.2693
  251MOL0     C33759  11.181   6.934   6.389  0.7865 -0.3289  0.1139
  251MOL0     C33760  11.267   7.054   6.368 -0.0411 -0.4018  0.5242
  251MOL0     C33761  11.397   7.037   6.432 -0.6149 -0.1057 -0.1258
  251MOL0     C33762  11.465   7.173   6.439  0.7995 -0.2338 -0.0110
  251MOL0     C33763  11.598   7.171   6.508  0.4648 -0.4421  0.7806
  251MOL0     C33764  11.700   7.128   6.413 -0.3634  0.0438 -0.1424
  251MOL0     C33765  11.849   7.168   6.475 -0.1155 -1.1174 -1.0580
  251MOL0     C33766  11.887   7.127   6.620 -0.9238  0.3277  0.4709
  251MOL0     N33767  12.034   7.144   6.647 -0.7006 -0.1216  0.5474
  251MOL0     C33768  12.087   7.227   6.742 -0.0941  0.0131 -0.0128
  251MOL0     C33769  12.217   7.241   6.711 -0.8914 -0.0517 -0.4204
  251MOL0     C33770  12.306   7.330   6.787 -0.5561  0.8520  0.0504
  251MOL0     C33771  12.442   7.262   6.791  0.2643  0.0846 -0.3478
  251MOL0     C33772  12.470   7.173   6.912  0.3800 -0.3961  0.2967
  251MOL0     C33773  12.616   7.178   6.956  0.2917 -0.1793 -0.6606
  251MOL0     O33774  12.698   7.116   6.855 -0.0634  0.3637 -0.3113
  251MOL0     C33775  12.835   7.132   6.847  0.1515  0.6404 -0.6205
  251MOL0     C33776  12.903   7.232   6.915  0.6866 -0.7987  0.2752
  251MOL0     C33777  13.042   7.245   6.905 -0.0711  0.0150  0.2569
  251MOL0     C33778  13.112   7.165   6.816 -1.0831  0.0515  0.2363
  251MOL0     C33779  13.263   7.178   6.805  0.2337 -0.6810  0.0861
  251MOL0     O33780  13.322   7.256   6.890 -0.2966 -0.8527 -0.5966
  251MOL0     C33781  13.457   7.275   6.892 -0.0410 -0.2619  0.3311
  251MOL0     C33782  13.535   7.297   6.781 -0.1596  0.0539  0.5117
  251MOL0     C33783  13.672   7.321   6.792  0.8725 -0.1796 -0.5163
  251MOL0     C33784  13.727   7.313   6.924 -0.7740  0.0212 -0.1638
  251MOL0     O33785  13.867   7.302   6.939 -0.2674  0.5901 -0.9144
  251MOL0     C33786  13.934   7.387   7.041  0.6532  0.5816  0.1114
  251MOL0     C33787  14.087   7.373   7.040  0.3675 -0.0243  0.2659
  251MOL0     C33788  14.142   7.390   6.901 -0.0265  0.1426 -0.5613
  251MOL0     C33789  14.301   7.396   6.904  0.9329 -0.1432  0.2470
  251MOL0     C33790  14.352   7.439   6.761 -1.3498  0.1101 -0.3071
  251MOL0     C33791  14.508   7.423   6.754  0.9253 -0.0343  0.4852
  251MOL0     C33792  14.547   7.279   6.780 -0.2823  0.4248  1.0003
  251MOL0     C33793  14.668   7.236   6.703 -0.2955  0.3793 -0.0443
  251MOL0    Cl33794  14.730   7.070   6.752  0.0439  0.1703  0.2041
  251MOL0     C33795  13.645   7.288   7.038  0.1241 -0.1064  0.1511
  251MOL0     C33796  13.505   7.270   7.020  0.1925  0.2143 -1.0531
  251MOL0     O33797  13.318   7.108   6.727 -0.0184 -0.0442  0.2554
  251MOL0     C33798  13.047   7.056   6.749 -1.0044  0.0323 -0.6047
  251MOL0     C33799  12.909   7.046   6.765 -0.1925  0.3821  0.0981
  251MOL0     N33800  12.234   7.162   6.592 -0.5005 -0.7264 -0.7772
  251MOL0     N33801  12.125   7.110   6.555  0.6229 -0.0914 -0.3299
  251MOL0     C33802  11.023   6.703   6.364 -0.2603 -0.2718  0.8497
  251MOL0     C33803  10.925   6.608   6.320 -0.2471  0.9826  1.4653
  251MOL0     C33804  10.781   6.222   6.129  0.3450  0.2678  0.3947
  251MOL0     C33805  10.693   6.133   6.198  0.4546 -0.2751 -0.1428
  251MOL0     C33806  10.642   6.028   6.122 -0.1226 -0.4988 -0.3926
  251MOL0     C33807  10.689   5.994   5.996 -0.2960  0.2944  0.2427
  251MOL0     O33808  10.631   5.879   5.936  0.3942  0.3742  0.0614
  251MOL0     C33809  10.637   5.862   5.788  0.8523  0.4163  0.7463
  251MOL0     C33810  10.739   5.756   5.749  0.7570 -0.0732 -0.0927
  251MOL0     C33811  10.752   5.733   5.601  0.1525  0.3365 -1.0596
  251MOL0     C33812  10.807   5.844   5.524  0.5188  0.1617  0.4389
  251MOL0     C33813  10.803   5.804   5.383  0.1233  0.4348  0.4045
  251MOL0     C33814  10.787   5.770   5.267 -0.2698  0.7363 -0.1238
  251MOL0     C33815  10.781   6.085   5.933 -1.0648 -0.0323  0.1922
  251MOL0     C33816  10.830   6.195   5.998  0.1304  0.7302 -0.2258
  251MOL0     C33817  10.928   6.285   5.931  0.0649  0.5773  0.0612
  251MOL0     H33818  11.050   6.548   6.013 -0.3709 -1.3393  0.0708
  251MOL0     H33819  11.233   6.692   6.096 -1.0758 -0.1017 -1.8753
  251MOL0     H33820  11.079   6.961   6.361 -0.2759  0.5502  4.1977
  251MOL0     H33821  11.171   6.898   6.491 -0.8840 -0.4982 -0.0791
  251MOL0     H33822  11.224   7.144   6.413  1.3452 -0.0253  1.1486
  251MOL0     H33823  11.273   7.067   6.259 -0.0924  0.1453  0.5828
  251MOL0     H33824  11.464   6.966   6.383  1.7441 -2.6075  5.7982
  251MOL0     H33825  11.375   6.993   6.529 -2.9337 -3.1245 -1.8389
  251MOL0     H33826  11.471   7.228   6.345  1.9948 -2.4452 -1.3384
  251MOL0     H33827  11.404   7.239   6.501  3.4479 -0.2289  2.8913
  251MOL0     H33828  11.626   7.273   6.538 -0.3413 -0.1961  0.7056
  251MOL0     H33829  11.587   7.105   6.595 -1.8197 -0.7459  0.3115
  251MOL0     H33830  11.692   7.019   6.412 -0.4690  0.0454  0.2856
  251MOL0     H33831  11.687   7.176   6.316 -1.0100 -0.2747 -0.2218
  251MOL0     H33832  11.867   7.275   6.462  0.0382 -0.9032  0.6961
  251MOL0     H33833  11.921   7.121   6.407  3.3344  1.3057  0.6587
  251MOL0     H33834  11.836   7.187   6.695 -2.3411 -0.3251  0.0628
  251MOL0     H33835  11.860   7.021   6.631 -1.2449  0.3333 -0.2028
  251MOL0     H33836  12.037   7.269   6.829 -1.6007  0.6385 -1.1365
  251MOL0     H33837  12.306   7.431   6.745  0.8934 -0.0489 -2.2737
  251MOL0     H33838  12.269   7.351   6.888  1.0974 -0.3283  0.9537
  251MOL0     H33839  12.457   7.199   6.703 -3.5035 -2.1634  0.3843
  251MOL0     H33840  12.509   7.348   6.789 -0.9946  1.0845 -0.6029
  251MOL0     H33841  12.445   7.078   6.863 -1.9585  0.9769 -1.4256
  251MOL0     H33842  12.404   7.179   6.999  0.1100 -1.1133  0.1565
  251MOL0     H33843  12.622   7.123   7.051 -3.3648 -2.2552 -1.4050
  251MOL0     H33844  12.646   7.279   6.983  1.7564 -0.3581 -1.5230
  251MOL0     H33845  12.857   7.301   6.984  0.4665 -1.8796  1.2356
  251MOL0     H33846  13.083   7.327   6.964 -0.2935  0.8067 -0.6719
  251MOL0     H33847  13.490   7.307   6.683 -1.0804 -3.9521  0.3573
  251MOL0     H33848  13.743   7.339   6.712  0.0917 -0.7535 -1.3658
  251MOL0     H33849  13.900   7.490   7.026 -1.3173  0.3068  2.1145
  251MOL0     H33850  13.894   7.366   7.140 -0.0363  0.4633 -0.1840
  251MOL0     H33851  14.117   7.446   7.116 -1.6644  0.5169  0.6097
  251MOL0     H33852  14.103   7.273   7.081 -0.8261 -0.3044  0.0722
  251MOL0     H33853  14.103   7.308   6.839 -2.0993  1.3959 -1.0097
  251MOL0     H33854  14.107   7.484   6.858  1.2387  0.3514 -1.1931
  251MOL0     H33855  14.344   7.309   6.954  2.1027  1.5049  2.2867
  251MOL0     H33856  14.330   7.483   6.964  1.9768  0.6716 -1.3903
  251MOL0     H33857  14.316   7.538   6.732 -3.6216 -1.2653 -2.5726
  251MOL0     H33858  14.303   7.366   6.696 -2.7375 -0.8777  1.7263
  251MOL0     H33859  14.539   7.439   6.650 -0.3999  2.5725  0.4001
  251MOL0     H33860  14.556   7.497   6.819 -0.2229  0.1858  1.1061
  251MOL0     H33861  14.460   7.219   6.751 -1.5510  2.2347  0.8922
  251MOL0     H33862  14.562   7.264   6.888  0.9951 -0.2616  0.7426
  251MOL0     H33863  14.649   7.248   6.596  3.9342  2.0140 -0.7964
  251MOL0     H33864  14.751   7.304   6.724 -0.2837  1.1216 -2.3010
  251MOL0     H33865  13.694   7.256   7.129  0.8959  0.4694 -0.0578
  251MOL0     H33866  13.446   7.240   7.107 -2.7403 -0.2262 -3.0430
  251MOL0     H33867  13.100   6.979   6.695 -3.8813 -1.2384 -1.8240
  251MOL0     H33868  12.864   6.975   6.697  0.0747  2.3731 -2.2623
  251MOL0     H33869  11.011   6.748   6.461  1.1699  2.9584 -0.3468
  251MOL0     H33870  10.834   6.596   6.378 -0.4382 -3.4434  0.5359
  251MOL0     H33871  10.665   6.143   6.302  0.7344  0.1816 -0.1103
  251MOL0     H33872  10.572   5.958   6.167 -2.1695  1.7713  0.1551
  251MOL0     H33873  10.646   5.963   5.747 -3.0194  0.6452  0.0501
  251MOL0     H33874  10.551   5.812   5.744  1.7701 -0.8687  0.3611
  251MOL0     H33875  10.698   5.661   5.785 -1.8932  0.9328 -0.2158
  251MOL0     H33876  10.837   5.777   5.791  0.5446 -1.7382  1.3272
  251MOL0     H33877  10.649   5.705   5.577 -0.2832  0.6255  0.3653
  251MOL0     H33878  10.825   5.651   5.591 -0.1497 -0.0498 -0.1491
  251MOL0     H33879  10.749   5.936   5.537  2.0031  1.7092 -2.7380
  251MOL0     H33880  10.912   5.858   5.551  1.3061 -1.1738 -1.7046
  251MOL0     H33881  10.750   5.735   5.173  1.5341 -1.4418 -0.1289
  251MOL0     H33882  10.823   6.076   5.833  2.9620  2.3824  1.4461
  251MOL0     H33883  10.976   6.221   5.856  2.7121  2.3999  0.0684
  251MOL0     H33884  10.874   6.368   5.883  0.4708  1.1256  0.5384
  251MOL0     H33885  11.009   6.314   5.998 -0.5752  1.5491  0.4453
  252MOL0     O33886   6.366   5.502   6.048  0.3659  0.0259  0.1525
  252MOL0     C33887   6.348   5.545   5.931  0.7372  0.0613 -0.0025
  252MOL0     O33888   6.434   5.637   5.875  0.0580 -0.2840  0.1860
  252MOL0     C33889   6.546   5.674   5.946  0.3919  0.8861 -1.0661
  252MOL0     C33890   6.664   5.610   5.928 -0.1068 -0.6331 -0.3434
  252MOL0     C33891   6.785   5.657   5.993  1.5355  0.0771  1.0561
  252MOL0     C33892   6.782   5.767   6.069 -0.4308 -0.7638 -1.0618
  252MOL0     O33893   6.884   5.823   6.141  0.0188  0.0541 -0.2150
  252MOL0     C33894   6.988   5.727   6.168 -0.2304  0.1495  0.3744
  252MOL0     C33895   7.092   5.782   6.268  0.6488 -0.2062 -0.3929
  252MOL0     C33896   7.212   5.692   6.314 -0.1865 -0.6339  0.1451
  252MOL0     C33897   7.313   5.773   6.389  0.0345  0.0583 -0.2686
  252MOL0     C33898   7.423   5.685   6.440 -0.2053 -0.0614  0.3559
  252MOL0     C33899   7.490   5.739   6.570  0.0238 -0.1430  0.7611
  252MOL0     C33900   7.561   5.872   6.553 -0.0411 -0.4261  0.5931
  252MOL0     C33901   7.623   5.924   6.691  0.7272 -0.3083  0.4006
  252MOL0     N33902   7.727   6.023   6.659 -0.9390 -0.4700 -0.1667
  252MOL0     C33903   7.861   5.993   6.622  0.4187 -0.4830  0.7374
  252MOL0     C33904   7.924   6.116   6.604  0.4065 -0.7872  0.3738
  252MOL0     C33905   8.070   6.148   6.609 -0.5806  0.0321  0.1724
  252MOL0     C33906   8.118   6.263   6.700  0.2808 -0.6808  0.4616
  252MOL0     C33907   8.088   6.241   6.856  0.1670  0.9001 -0.0191
  252MOL0     C33908   8.203   6.296   6.929  0.4514 -0.2051  0.7006
  252MOL0     O33909   8.312   6.201   6.913 -0.2843  0.4426 -0.1368
  252MOL0     C33910   8.436   6.232   6.949  0.1037  0.4515  0.0031
  252MOL0     C33911   8.450   6.294   7.069  0.8521  0.0809 -0.3229
  252MOL0     C33912   8.566   6.307   7.129 -0.8800  0.1432  0.0810
  252MOL0     C33913   8.685   6.269   7.070  0.2988 -0.0686 -0.4163
  252MOL0     C33914   8.819   6.299   7.130  0.2371  1.3089  0.8871
  252MOL0     O33915   8.920   6.229   7.074  0.6468  0.3841 -0.2844
  252MOL0     C33916   9.057   6.257   7.099  1.5137 -0.8852  0.1850
  252MOL0     C33917   9.144   6.151   7.081 -0.2921 -0.4644  0.6718
  252MOL0     C33918   9.280   6.164   7.112  1.0207  0.2361 -0.0842
  252MOL0     C33919   9.328   6.285   7.162 -0.3591  0.1238  0.1354
  252MOL0     O33920   9.462   6.287   7.190  0.0022  0.9464 -0.0447
  252MOL0     C33921   9.498   6.379   7.290 -0.2548 -0.1782  0.0981
  252MOL0     C33922   9.647   6.383   7.331  0.4348  0.7661 -0.0059
  252MOL0     C33923   9.736   6.423   7.221 -0.1835 -0.3330 -0.2152
  252MOL0     C33924   9.884   6.443   7.274  0.1330 -0.6078 -0.1315
  252MOL0     C33925   9.997   6.386   7.190 -0.0886  0.6423 -0.1169
  252MOL0     C33926   9.994   6.436   7.048  0.3483  0.4327 -0.4633
  252MOL0     C33927  10.120   6.389   6.976 -0.7698 -0.4062  0.4329
  252MOL0     C33928  10.124   6.415   6.818  1.4208  0.2766  0.0418
  252MOL0    Cl33929  10.283   6.348   6.755  0.0970  0.2690  0.3661
  252MOL0     C33930   9.246   6.398   7.155  0.2362  1.0388 -0.2853
  252MOL0     C33931   9.109   6.383   7.135  0.2659  0.8368 -0.1928
  252MOL0     O33932   8.826   6.381   7.224 -0.2118  0.2644 -0.0913
  252MOL0     C33933   8.677   6.211   6.942  0.4924  0.3091  0.2299
  252MOL0     C33934   8.547   6.189   6.883 -0.4029 -0.0453 -0.5770
  252MOL0     N33935   7.818   6.209   6.611 -0.0410 -0.5247  0.4866
  252MOL0     N33936   7.701   6.155   6.633 -0.0524  0.0373 -0.0422
  252MOL0     C33937   6.657   5.831   6.094  0.3697 -0.0438  0.5953
  252MOL0     C33938   6.540   5.784   6.030 -0.5545 -0.6674  0.0249
  252MOL0     C33939   6.237   5.489   5.853  0.2290 -0.6260  0.4122
  252MOL0     C33940   6.220   5.349   5.854  0.2899 -0.1601  0.1063
  252MOL0     C33941   6.120   5.280   5.782  0.2091 -0.3172 -0.2716
  252MOL0     C33942   6.030   5.355   5.707  0.0650  0.2909 -1.1289
  252MOL0     O33943   5.923   5.304   5.650  0.4835 -0.3822  0.0546
  252MOL0     C33944   5.840   5.205   5.730  0.0612 -0.3457  0.4125
  252MOL0     C33945   5.876   5.074   5.668  0.1025  0.4832 -0.7783
  252MOL0     C33946   5.762   4.974   5.718 -0.3264 -0.5700 -0.0389
  252MOL0     C33947   5.806   4.877   5.837  0.3846 -0.1247 -0.5774
  252MOL0     C33948   5.853   4.943   5.956  0.6730  0.4253  0.3189
  252MOL0     C33949   5.924   5.002   6.037  0.5762 -0.4224  0.0375
  252MOL0     C33950   6.041   5.494   5.703  0.3930 -0.3280 -0.6357
  252MOL0     C33951   6.145   5.565   5.766 -0.0550  0.1605  0.2282
  252MOL0     C33952   6.154   5.713   5.730  0.9297  0.2649  0.0775
  252MOL0     H33953   6.665   5.527   5.858 -0.8498 -0.6333 -0.3628
  252MOL0     H33954   6.875   5.600   5.970  0.8878 -0.5553  0.0317
  252MOL0     H33955   6.954   5.633   6.213 -3.1727  0.6366 -0.6169
  252MOL0     H33956   7.042   5.708   6.074 -0.2092  5.1296 -0.8963
  252MOL0     H33957   7.036   5.817   6.356 -0.6911 -1.0370 -0.8885
  252MOL0     H33958   7.143   5.866   6.220  1.0911 -0.4646 -0.3790
  252MOL0     H33959   7.262   5.654   6.224 -0.0124 -0.5217  0.1948
  252MOL0     H33960   7.174   5.612   6.378 -4.6607 -1.5549 -3.1501
  252MOL0     H33961   7.360   5.849   6.326  0.1810 -0.3826 -0.6960
  252MOL0     H33962   7.249   5.800   6.474 -0.3729  0.6359 -0.7540
  252MOL0     H33963   7.391   5.582   6.459 -0.7269  0.2168  1.0724
  252MOL0     H33964   7.496   5.680   6.359  0.2214 -1.1968  0.7988
  252MOL0     H33965   7.420   5.738   6.654  0.2479  0.3197  0.9602
  252MOL0     H33966   7.569   5.670   6.601 -0.0229 -1.3050 -1.4613
  252MOL0     H33967   7.494   5.940   6.500  0.4979 -0.3372  0.0161
  252MOL0     H33968   7.642   5.851   6.482  0.7588  1.2830  0.9381
  252MOL0     H33969   7.544   5.974   6.748  0.6979  0.7708 -0.5512
  252MOL0     H33970   7.662   5.841   6.751  1.1853 -1.0265 -0.8578
  252MOL0     H33971   7.914   5.899   6.613 -1.3939 -1.9333  3.7443
  252MOL0     H33972   8.123   6.054   6.628  1.3033  0.7457 -1.2150
  252MOL0     H33973   8.100   6.176   6.508  0.8988  0.4800  0.7023
  252MOL0     H33974   8.227   6.269   6.703  0.2832 -0.7713  0.5667
  252MOL0     H33975   8.085   6.362   6.667 -0.6218 -0.2313  2.5921
  252MOL0     H33976   8.074   6.135   6.877  1.5013  0.4965 -1.0213
  252MOL0     H33977   8.001   6.299   6.888 -0.4144 -0.1177  0.2990
  252MOL0     H33978   8.181   6.299   7.036  0.0637  3.4446  0.6558
  252MOL0     H33979   8.218   6.401   6.903 -1.8375 -0.2770 -1.2423
  252MOL0     H33980   8.370   6.311   7.141  2.2692 -2.9416  2.2334
  252MOL0     H33981   8.575   6.359   7.223  0.1739  0.7468 -0.3349
  252MOL0     H33982   9.112   6.057   7.038 -1.5316 -0.6258  1.8672
  252MOL0     H33983   9.338   6.074   7.102  3.2656  0.9920  3.8608
  252MOL0     H33984   9.476   6.482   7.262  0.8263 -0.7428 -3.3128
  252MOL0     H33985   9.439   6.352   7.378 -0.8981  2.3935  0.5470
  252MOL0     H33986   9.646   6.455   7.414 -1.1556 -0.1298  0.7961
  252MOL0     H33987   9.675   6.284   7.367 -2.1434 -0.0369 -0.0489
  252MOL0     H33988   9.732   6.349   7.141 -0.4726  0.0443 -0.5584
  252MOL0     H33989   9.698   6.513   7.172  0.0089 -1.0293 -1.6974
  252MOL0     H33990   9.893   6.406   7.377 -0.5046 -1.4906 -0.3806
  252MOL0     H33991   9.907   6.549   7.286 -0.2845 -0.2672 -2.0805
  252MOL0     H33992   9.979   6.279   7.201  1.2837  0.3118 -0.8853
  252MOL0     H33993  10.098   6.409   7.226 -0.1432 -1.8530  1.8967
  252MOL0     H33994   9.909   6.388   6.998  0.0748 -2.9593  2.7810
  252MOL0     H33995   9.993   6.545   7.039  0.7900  0.3815 -1.3367
  252MOL0     H33996  10.132   6.281   6.982  1.8418 -0.3341 -1.6391
  252MOL0     H33997  10.201   6.439   7.030 -0.0412  0.9292 -1.7633
  252MOL0     H33998  10.037   6.375   6.765 -0.7989  2.7385  1.5779
  252MOL0     H33999  10.120   6.521   6.791 -2.2241  0.4640  0.7430
  252MOL0     H34000   9.275   6.498   7.186  0.1067  1.6839 -2.1546
  252MOL0     H34001   9.044   6.470   7.139 -0.8127  0.0090  2.3136
  252MOL0     H34002   8.764   6.176   6.888  0.1717 -1.5749  0.8526
  252MOL0     H34003   8.546   6.139   6.786  2.2501  0.1793 -0.8058
  252MOL0     H34004   6.648   5.917   6.159  0.6459  2.2068 -2.1645
  252MOL0     H34005   6.445   5.836   6.026  0.3086  1.0087  0.2204
  252MOL0     H34006   6.294   5.302   5.919  1.0768 -0.6440 -1.1058
  252MOL0     H34007   6.134   5.173   5.775  1.8608 -0.3215  2.0821
  252MOL0     H34008   5.733   5.227   5.729  0.6746  3.2713 -1.4452
  252MOL0     H34009   5.871   5.205   5.835  2.2665 -0.9671 -0.1771
  252MOL0     H34010   5.976   5.052   5.707 -0.9576  1.7681  3.1050
  252MOL0     H34011   5.870   5.089   5.560 -1.6132  3.3375 -0.4097
  252MOL0     H34012   5.738   4.922   5.625  0.0841  0.4091 -0.7150
  252MOL0     H34013   5.672   5.032   5.738 -0.4115 -0.3971 -0.8792
  252MOL0     H34014   5.725   4.808   5.863  0.7272  0.1027  1.2719
  252MOL0     H34015   5.885   4.811   5.800 -0.0760 -1.3994  0.6561
  252MOL0     H34016   5.981   5.044   6.118  0.4158 -1.5042  0.7310
  252MOL0     H34017   5.975   5.558   5.646 -1.3343 -2.2075 -0.8505
  252MOL0     H34018   6.239   5.717   5.661 -0.6607 -2.1587 -2.2040
  252MOL0     H34019   6.075   5.749   5.664  1.2059 -0.4845 -0.6680
  252MOL0     H34020   6.162   5.773   5.822 -0.3774 -1.3703  1.3314
  253MOL0     O34021   4.360   5.850   6.306 -0.6104 -0.2551 -0.2259
  253MOL0     C34022   4.365   5.731   6.308  0.0345 -0.0412 -0.0172
  253MOL0     O34023   4.465   5.662   6.359 -0.9769 -0.2056 -0.3810
  253MOL0     C34024   4.584   5.720   6.403  0.5020  0.0208 -0.3630
  253MOL0     C34025   4.636   5.688   6.527  0.5655 -0.1476  0.7017
  253MOL0     C34026   4.751   5.745   6.583  0.6966  0.8266 -0.1536
  253MOL0     C34027   4.822   5.833   6.504  0.2762 -0.0781 -0.8898
  253MOL0     O34028   4.947   5.884   6.550 -1.3246 -0.2880 -0.1809
  253MOL0     C34029   4.930   5.998   6.641 -0.3941 -0.3201 -0.1944
  253MOL0     C34030   5.054   6.080   6.659 -0.2926 -0.4428  0.5147
  253MOL0     C34031   5.037   6.198   6.758  0.1396  0.4656 -0.0586
  253MOL0     C34032   5.150   6.305   6.739 -0.6480  0.3474  0.3772
  253MOL0     C34033   5.194   6.376   6.867  0.2642  0.0857 -0.1987
  253MOL0     C34034   5.280   6.283   6.967 -0.1707 -0.3512  0.1577
  253MOL0     C34035   5.326   6.361   7.094  0.3182 -0.3822  0.8789
  253MOL0     C34036   5.475   6.327   7.126 -0.5322  0.0800  0.2583
  253MOL0     N34037   5.516   6.407   7.246  0.2559  0.9076 -0.4813
  253MOL0     C34038   5.574   6.533   7.247  0.4762  0.0793 -0.6429
  253MOL0     C34039   5.580   6.554   7.384  0.3325 -0.8651 -0.6929
  253MOL0     C34040   5.661   6.672   7.448 -0.2745  0.3302  0.1533
  253MOL0     C34041   5.806   6.633   7.483 -1.0179 -0.4986  0.2880
  253MOL0     C34042   5.811   6.524   7.588 -0.2250  0.0082  0.8324
  253MOL0     C34043   5.941   6.549   7.670  0.3669  0.3925  0.3078
  253MOL0     O34044   6.055   6.528   7.589 -0.3448  0.3985  0.2957
  253MOL0     C34045   6.179   6.553   7.643 -0.5261  0.3040  0.6305
  253MOL0     C34046   6.289   6.499   7.573  0.0746  0.0542  1.2810
  253MOL0     C34047   6.419   6.509   7.608 -0.0813 -0.1355  0.4785
  253MOL0     C34048   6.454   6.580   7.726  0.4282  1.0016  0.1185
  253MOL0     C34049   6.589   6.610   7.764 -0.0361 -0.6032  0.5922
  253MOL0     O34050   6.600   6.711   7.855  0.3023  0.8706 -0.0324
  253MOL0     C34051   6.723   6.770   7.870 -0.0451  0.2126 -0.7080
  253MOL0     C34052   6.817   6.702   7.955  0.3174  0.6439 -0.9652
  253MOL0     C34053   6.941   6.756   7.973  0.0245 -0.4038  0.0030
  253MOL0     C34054   6.969   6.885   7.928  0.3717 -0.2877 -0.7289
  253MOL0     O34055   7.093   6.940   7.959  0.1774 -0.2203  0.3805
  253MOL0     C34056   7.191   6.937   7.860  0.5244  0.1541 -0.1367
  253MOL0     C34057   7.306   7.026   7.893 -1.1921 -0.5551  0.5507
  253MOL0     C34058   7.429   6.999   7.797  0.0622 -0.2431  0.2873
  253MOL0     C34059   7.565   7.019   7.863 -0.1112 -1.1241 -0.5316
  253MOL0     C34060   7.678   6.980   7.774 -0.4920  0.0872 -0.1866
  253MOL0     C34061   7.819   6.984   7.829 -0.8467  0.2062  0.3335
  253MOL0     C34062   7.866   6.846   7.901  0.2572  0.2411 -0.1206
  253MOL0     C34063   7.885   6.733   7.799  0.3007 -0.2132 -0.2704
  253MOL0    Cl34064   7.995   6.776   7.676 -0.2303 -0.1977  0.2233
  253MOL0     C34065   6.868   6.963   7.869 -0.6468  0.9970 -0.1095
  253MOL0     C34066   6.748   6.906   7.836 -1.1850 -0.6097 -0.5554
  253MOL0     O34067   6.683   6.543   7.726  0.1467 -0.2256  0.3810
  253MOL0     C34068   6.349   6.628   7.806 -0.2272  0.0256 -0.4586
  253MOL0     C34069   6.213   6.623   7.752 -0.1680  0.6644  0.6918
  253MOL0     N34070   5.523   6.453   7.459 -0.4970  0.2257  0.2314
  253MOL0     N34071   5.488   6.365   7.377  0.1973  0.2146 -0.8321
  253MOL0     C34072   4.772   5.870   6.379 -0.7681  0.1843  0.9738
  253MOL0     C34073   4.660   5.812   6.330  0.4041 -0.2756 -0.6465
  253MOL0     C34074   4.242   5.654   6.249 -0.1616  0.3034  0.9688
  253MOL0     C34075   4.137   5.727   6.181 -0.1320 -1.1580 -0.2960
  253MOL0     C34076   4.019   5.670   6.122 -0.7274 -0.2610 -0.4437
  253MOL0     C34077   4.018   5.533   6.128  0.2803 -0.7096  0.6050
  253MOL0     O34078   3.922   5.464   6.054 -0.2488 -0.9968  0.6397
  253MOL0     C34079   3.794   5.473   6.115  0.2781 -0.2308 -0.2019
  253MOL0     C34080   3.781   5.360   6.217 -0.9975 -0.2426  0.2032
  253MOL0     C34081   3.640   5.348   6.279  0.2083 -0.2090 -0.4104
  253MOL0     C34082   3.641   5.249   6.399  0.0338 -0.9476  1.3387
  253MOL0     C34083   3.511   5.215   6.451  0.2940  0.5631  0.1766
  253MOL0     C34084   3.398   5.186   6.488  0.0729  0.0130  0.8564
  253MOL0     C34085   4.099   5.463   6.208 -0.5104 -0.2306  0.1999
  253MOL0     C34086   4.211   5.513   6.260  0.9449 -0.7309  0.5875
  253MOL0     C34087   4.284   5.408   6.343  0.1965  0.0268 -0.2132
  253MOL0     H34088   4.579   5.618   6.587 -0.0023 -1.9120 -1.7605
  253MOL0     H34089   4.779   5.727   6.686 -0.3521  3.4706  0.6675
  253MOL0     H34090   4.855   6.065   6.599 -0.2991 -0.3042 -0.3398
  253MOL0     H34091   4.894   5.960   6.737  0.5377  2.5312  1.3992
  253MOL0     H34092   5.090   6.119   6.563 -0.4291 -0.4840  0.4471
  253MOL0     H34093   5.126   6.014   6.707 -1.3012 -0.3300  2.2508
  253MOL0     H34094   5.044   6.169   6.863  4.0945  2.2960  0.3685
  253MOL0     H34095   4.936   6.240   6.749 -0.6074 -1.3720 -0.6458
  253MOL0     H34096   5.241   6.258   6.700 -0.4823 -0.1670  1.3458
  253MOL0     H34097   5.109   6.382   6.673  1.2954  0.4600 -0.8062
  253MOL0     H34098   5.245   6.464   6.829 -0.7029 -0.9372 -4.3849
  253MOL0     H34099   5.110   6.422   6.921  1.3334 -1.2983  2.9089
  253MOL0     H34100   5.231   6.186   6.980  0.6745 -1.0541 -1.5304
  253MOL0     H34101   5.373   6.256   6.915  0.8284 -0.1783  1.7830
  253MOL0     H34102   5.256   6.333   7.173  0.2131  1.6561  1.5560
  253MOL0     H34103   5.320   6.468   7.074 -1.3952 -1.0860 -3.4805
  253MOL0     H34104   5.501   6.221   7.139  1.1637  0.0662 -2.4343
  253MOL0     H34105   5.542   6.363   7.047 -0.7643  0.1880  0.1096
  253MOL0     H34106   5.619   6.594   7.169 -0.5478  0.8705 -0.6353
  253MOL0     H34107   5.678   6.768   7.398  2.0621  1.1246  2.2957
  253MOL0     H34108   5.606   6.694   7.539  1.3452 -1.6437  1.7247
  253MOL0     H34109   5.854   6.603   7.390 -2.0666  0.9492 -0.7772
  253MOL0     H34110   5.844   6.729   7.522 -1.7663 -0.0480 -0.0742
  253MOL0     H34111   5.801   6.430   7.533 -0.9335 -1.4616  3.3097
  253MOL0     H34112   5.725   6.536   7.655 -0.9858 -0.6954  0.0186
  253MOL0     H34113   5.940   6.477   7.752 -1.4370  0.9645  0.8424
  253MOL0     H34114   5.937   6.652   7.707 -2.7771  0.1431  0.9579
  253MOL0     H34115   6.256   6.437   7.490  1.0021  2.9335 -1.4341
  253MOL0     H34116   6.498   6.459   7.553  1.8370  3.2322 -0.1177
  253MOL0     H34117   6.774   6.615   8.003 -1.6408  2.3921  0.6560
  253MOL0     H34118   7.009   6.692   8.029  0.6119  0.1222 -0.0945
  253MOL0     H34119   7.231   6.835   7.859 -1.9556 -0.9274  0.9301
  253MOL0     H34120   7.163   6.962   7.757  5.4899  2.2097 -1.2808
  253MOL0     H34121   7.274   7.129   7.870 -0.6302 -0.5904 -0.4528
  253MOL0     H34122   7.331   7.023   7.999 -1.6373 -1.9571  0.6339
  253MOL0     H34123   7.414   6.894   7.770 -2.0766 -0.1385  0.8974
  253MOL0     H34124   7.427   7.052   7.701  1.4277 -2.1036 -0.8236
  253MOL0     H34125   7.576   6.969   7.960  2.8943 -0.1038 -0.2484
  253MOL0     H34126   7.574   7.125   7.889  1.4390 -1.3819  0.0833
  253MOL0     H34127   7.667   7.042   7.685 -0.5526  1.5984  0.8315
  253MOL0     H34128   7.657   6.879   7.737  1.1802 -0.2504 -0.2638
  253MOL0     H34129   7.891   6.996   7.748  0.2750  3.0436  1.6166
  253MOL0     H34130   7.831   7.072   7.893 -1.3863  1.0888 -0.7372
  253MOL0     H34131   7.787   6.818   7.971 -1.2163  2.7140 -0.6556
  253MOL0     H34132   7.954   6.854   7.965 -0.6848 -1.1037  1.4200
  253MOL0     H34133   7.934   6.650   7.851  3.1232  2.9580  2.6210
  253MOL0     H34134   7.794   6.705   7.746  1.1373 -0.1898 -1.7720
  253MOL0     H34135   6.876   7.071   7.857  0.6207  1.1615  1.6750
  253MOL0     H34136   6.676   6.974   7.790 -1.5003  0.9327  2.0064
  253MOL0     H34137   6.366   6.679   7.901 -0.3233 -1.9004  0.6347
  253MOL0     H34138   6.129   6.643   7.818 -2.3285 -0.6902 -1.5168
  253MOL0     H34139   4.820   5.938   6.310  0.1010 -0.8394  0.5424
  253MOL0     H34140   4.616   5.853   6.240 -0.7536  0.3667  0.1965
  253MOL0     H34141   4.159   5.833   6.165 -0.4911 -1.1429 -0.7324
  253MOL0     H34142   3.940   5.722   6.068 -0.9825 -1.0702 -0.8686
  253MOL0     H34143   3.718   5.455   6.038  0.9399 -2.6928 -0.3915
  253MOL0     H34144   3.779   5.569   6.164 -2.2752 -0.7507  0.2130
  253MOL0     H34145   3.854   5.387   6.295 -0.8794 -0.4065  0.1513
  253MOL0     H34146   3.824   5.272   6.168  2.0802  1.3267 -0.1392
  253MOL0     H34147   3.573   5.324   6.195 -2.8124 -0.7854  1.9758
  253MOL0     H34148   3.615   5.445   6.322  2.8545  0.0355  0.7182
  253MOL0     H34149   3.687   5.155   6.367  0.0564 -0.1263 -1.2893
  253MOL0     H34150   3.701   5.294   6.478  0.0834 -0.0970  0.8370
  253MOL0     H34151   3.297   5.171   6.520 -0.9582 -0.1390 -2.1871
  253MOL0     H34152   4.081   5.357   6.221 -1.6871 -0.0763 -0.1266
  253MOL0     H34153   4.366   5.370   6.281 -0.2583  0.0595 -0.8488
  253MOL0     H34154   4.325   5.455   6.433  0.5092 -1.8793  0.6781
  253MOL0     H34155   4.228   5.318   6.367  3.9058 -2.9515 -1.6424
  254MOL0     O34156  11.315   1.141  10.018  0.4243 -1.0217 -0.2776
  254MOL0     C34157  11.347   1.248  10.076  0.0303  0.7177 -0.0341
  254MOL0     O34158  11.480   1.288  10.092  0.4244  0.9687  0.0703
  254MOL0     C34159  11.582   1.218  10.039 -0.7989 -0.2332 -0.0941
  254MOL0     C34160  11.653   1.123  10.115 -0.7317 -0.0543 -0.0470
  254MOL0     C34161  11.761   1.058  10.060 -0.3107  0.5009 -0.2342
  254MOL0     C34162  11.812   1.087   9.932  0.8064  0.0144 -0.4778
  254MOL0     O34163  11.943   1.069   9.896  0.2057 -0.5142 -0.5549
  254MOL0     C34164  12.016   0.977   9.977  0.0362 -0.4088 -0.5763
  254MOL0     C34165  12.155   0.967   9.907 -0.8914  0.1503 -0.1030
  254MOL0     C34166  12.147   0.881   9.777 -0.4795  0.2505  0.1686
  254MOL0     C34167  12.145   0.731   9.810 -0.0870  0.1539  0.1001
  254MOL0     C34168  12.275   0.685   9.863  0.0742  1.0582 -0.0342
  254MOL0     C34169  12.287   0.530   9.859  0.3450  0.5050 -0.1243
  254MOL0     C34170  12.423   0.468   9.894  0.2204 -0.0907  0.0733
  254MOL0     C34171  12.472   0.501  10.039 -0.3372 -0.3544  0.3815
  254MOL0     N34172  12.528   0.634  10.049 -0.7155  0.3426 -0.7080
  254MOL0     C34173  12.628   0.692   9.989 -0.4590 -0.4146  0.1954
  254MOL0     C34174  12.654   0.806  10.049 -0.2652 -0.0652 -0.1674
  254MOL0     C34175  12.762   0.915  10.011 -0.1327  0.1320  0.1277
  254MOL0     C34176  12.891   0.874   9.945  0.1962  0.8515  0.2218
  254MOL0     C34177  12.988   0.792  10.030  0.3797 -0.4174  0.3545
  254MOL0     C34178  13.120   0.769   9.950 -0.4663 -0.1381 -0.4671
  254MOL0     O34179  13.103   0.672   9.842 -0.2695 -0.0075  0.2113
  254MOL0     C34180  13.222   0.629   9.789  0.4814 -0.8374 -0.7297
  254MOL0     C34181  13.343   0.686   9.818 -0.1013 -0.2208  1.1721
  254MOL0     C34182  13.457   0.653   9.736 -1.0278 -0.3440 -0.0102
  254MOL0     C34183  13.456   0.578   9.615  0.8779 -0.0346  0.6860
  254MOL0     C34184  13.575   0.546   9.532  0.1679  1.4213 -0.2362
  254MOL0     O34185  13.700   0.593   9.581  0.4616  0.3195 -0.2296
  254MOL0     C34186  13.809   0.553   9.504  0.4899  0.6617 -0.5291
  254MOL0     C34187  13.858   0.634   9.398 -0.8205 -0.2416 -0.1275
  254MOL0     C34188  13.966   0.583   9.327 -0.1393  0.6504 -1.0267
  254MOL0     C34189  14.021   0.450   9.348 -0.7408 -0.2823  0.7692
  254MOL0     O34190  14.122   0.389   9.276 -0.4403  0.1086 -0.4370
  254MOL0     C34191  14.233   0.464   9.224 -0.0230 -0.1548 -0.2298
  254MOL0     C34192  14.362   0.387   9.253 -0.1073 -0.0716 -0.7139
  254MOL0     C34193  14.383   0.366   9.409 -1.2777 -1.5810  0.6977
  254MOL0     C34194  14.515   0.290   9.426 -1.2102 -0.2509 -0.8239
  254MOL0     C34195  14.639   0.376   9.432 -0.5924 -0.7370  0.0219
  254MOL0     C34196  14.770   0.296   9.432  0.9957  0.9972 -0.5266
  254MOL0     C34197  14.890   0.387   9.436 -0.1348 -0.1360  0.0768
  254MOL0     C34198  15.023   0.305   9.437 -0.7500 -0.1717  0.2976
  254MOL0    Cl34199  15.050   0.225   9.275  0.1868 -0.0365  0.1482
  254MOL0     C34200  13.980   0.385   9.463 -0.0264 -0.1553 -0.2543
  254MOL0     C34201  13.860   0.423   9.537 -0.5714 -0.2416 -0.3922
  254MOL0     O34202  13.558   0.475   9.432  0.4979 -0.1091  0.4464
  254MOL0     C34203  13.327   0.527   9.584  0.2388 -1.3723 -0.6899
  254MOL0     C34204  13.217   0.550   9.674 -0.4052  0.6817  0.1315
  254MOL0     N34205  12.558   0.828  10.143  0.4617 -0.3048  1.2796
  254MOL0     N34206  12.479   0.722  10.139 -0.9883  0.0958  0.2194
  254MOL0     C34207  11.730   1.167   9.846 -0.6391 -0.3125 -0.6442
  254MOL0     C34208  11.613   1.225   9.896 -0.1902  0.1899  0.5087
  254MOL0     C34209  11.232   1.334  10.104  0.2470  0.3797  0.2241
  254MOL0     C34210  11.103   1.273  10.103  0.2877  0.2298  0.0683
  254MOL0     C34211  10.991   1.350  10.143  0.3226 -0.1626 -0.0279
  254MOL0     C34212  11.006   1.489  10.175  0.1134  0.4816  0.4607
  254MOL0     O34213  10.917   1.573  10.235  0.4818 -0.5271  0.2371
  254MOL0     C34214  10.793   1.515  10.288  0.3184 -0.0184  0.1165
  254MOL0     C34215  10.716   1.616  10.372  0.4508 -0.1138  0.6058
  254MOL0     C34216  10.574   1.558  10.398 -0.2386 -0.5540  0.1497
  254MOL0     C34217  10.534   1.593  10.537 -0.3100 -0.2494 -0.0493
  254MOL0     C34218  10.614   1.535  10.638  0.1521  0.2660  0.9461
  254MOL0     C34219  10.691   1.494  10.723  1.2924 -0.2411  0.0901
  254MOL0     C34220  11.131   1.544  10.163 -0.6826  0.7924  0.6232
  254MOL0     C34221  11.252   1.467  10.132  0.2134 -0.7196 -0.5998
  254MOL0     C34222  11.367   1.554  10.108 -0.0071  0.0497 -0.0948
  254MOL0     H34223  11.613   1.097  10.212  2.0092  1.8475  1.7254
  254MOL0     H34224  11.815   1.001  10.134  1.6338  0.1146 -1.8545
  254MOL0     H34225  12.029   1.014  10.079 -0.6455 -0.6042 -0.4167
  254MOL0     H34226  11.967   0.880   9.989  2.1531 -1.4495  0.1351
  254MOL0     H34227  12.217   0.914   9.980  0.8077 -1.1987 -2.3784
  254MOL0     H34228  12.199   1.065   9.887  0.7323 -0.5993 -0.3507
  254MOL0     H34229  12.232   0.907   9.713  0.7919 -2.1886  0.7364
  254MOL0     H34230  12.059   0.907   9.718  0.1898 -0.4183 -1.1750
  254MOL0     H34231  12.066   0.700   9.878  0.3522  1.9799  1.5574
  254MOL0     H34232  12.126   0.674   9.719  0.3240  0.6229 -0.2929
  254MOL0     H34233  12.348   0.717   9.788 -0.7354  2.4899 -0.2390
  254MOL0     H34234  12.289   0.709   9.969 -0.8960 -1.2672  0.6876
  254MOL0     H34235  12.205   0.491   9.920  2.4020 -2.7191  0.8415
  254MOL0     H34236  12.270   0.503   9.755  1.2291 -0.1320 -0.1119
  254MOL0     H34237  12.492   0.505   9.818 -2.0823  1.7928 -1.2572
  254MOL0     H34238  12.426   0.360   9.880  1.1876  0.1491 -1.8859
  254MOL0     H34239  12.397   0.480  10.116 -3.8341  0.8374 -2.4700
  254MOL0     H34240  12.549   0.425  10.058  1.0584  0.7793 -0.5254
  254MOL0     H34241  12.672   0.659   9.895 -2.4148  0.4868 -1.0902
  254MOL0     H34242  12.715   0.971   9.930 -0.1565 -0.2251 -0.1110
  254MOL0     H34243  12.777   0.987  10.091 -1.9634  0.3332  0.3344
  254MOL0     H34244  12.859   0.824   9.853 -0.9048  0.4751  0.7841
  254MOL0     H34245  12.933   0.971   9.918  1.7345 -0.4570 -2.4342
  254MOL0     H34246  12.944   0.696  10.061 -1.4942 -1.2678 -4.2073
  254MOL0     H34247  13.004   0.848  10.122  1.0806 -1.0497  0.6298
  254MOL0     H34248  13.197   0.729  10.017  1.2227  2.1773 -0.9000
  254MOL0     H34249  13.151   0.868   9.915 -0.4088 -0.7543 -2.2384
  254MOL0     H34250  13.356   0.770   9.885 -2.6206 -1.0192  2.7709
  254MOL0     H34251  13.554   0.691   9.766 -1.0606 -0.9038  0.8066
  254MOL0     H34252  13.807   0.726   9.374 -0.3241 -0.1007 -0.6445
  254MOL0     H34253  14.000   0.647   9.246  3.3372 -2.9603 -2.7249
  254MOL0     H34254  14.237   0.477   9.115  2.2052 -5.1070 -0.9922
  254MOL0     H34255  14.240   0.564   9.269  3.1201  0.4936 -1.8131
  254MOL0     H34256  14.362   0.286   9.211  1.3881 -1.0223  1.3903
  254MOL0     H34257  14.445   0.437   9.202  0.1693 -1.3006 -1.5031
  254MOL0     H34258  14.388   0.461   9.463  2.1499 -1.2059 -0.0508
  254MOL0     H34259  14.317   0.301   9.467 -0.5261 -1.9173  1.1934
  254MOL0     H34260  14.522   0.214   9.347 -0.3775  0.7361 -1.7168
  254MOL0     H34261  14.507   0.236   9.520  2.4842 -1.3604 -0.9827
  254MOL0     H34262  14.637   0.451   9.512 -1.7678  1.6613 -2.0982
  254MOL0     H34263  14.622   0.431   9.339  0.0915  1.9971  1.4229
  254MOL0     H34264  14.768   0.234   9.523  0.3469 -1.0547 -1.8639
  254MOL0     H34265  14.770   0.226   9.348 -0.3995  2.4205 -1.7754
  254MOL0     H34266  14.876   0.454   9.521  1.1626  2.8909 -1.9295
  254MOL0     H34267  14.886   0.433   9.337 -0.0933 -2.3958 -1.0347
  254MOL0     H34268  15.114   0.363   9.455  0.5361 -2.3185  1.0855
  254MOL0     H34269  15.029   0.234   9.519  0.4786  0.4869  0.8108
  254MOL0     H34270  14.030   0.291   9.483  0.9488  0.9485  3.0734
  254MOL0     H34271  13.831   0.353   9.615  1.7763 -2.5777 -1.4650
  254MOL0     H34272  13.304   0.470   9.494  2.7922 -2.5127 -0.6968
  254MOL0     H34273  13.123   0.512   9.636 -1.4423  0.9814  2.2478
  254MOL0     H34274  11.760   1.210   9.751  0.8204 -0.9086 -0.4679
  254MOL0     H34275  11.551   1.289   9.834 -1.3895 -0.7923  0.6406
  254MOL0     H34276  11.075   1.169  10.094  0.3225  0.1615  0.7231
  254MOL0     H34277  10.891   1.307  10.151  0.6614 -0.9864 -0.1618
  254MOL0     H34278  10.822   1.428  10.348 -1.2774  1.1933  2.8915
  254MOL0     H34279  10.734   1.483  10.203  1.1763 -1.1097 -0.0846
  254MOL0     H34280  10.718   1.712  10.319  0.3822 -1.0227 -1.1318
  254MOL0     H34281  10.776   1.633  10.461 -2.4938 -2.7390  3.3372
  254MOL0     H34282  10.559   1.453  10.374 -1.1275 -0.5947  0.8528
  254MOL0     H34283  10.502   1.617  10.340 -0.1245 -0.2140  0.3459
  254MOL0     H34284  10.525   1.701  10.554 -2.4710  0.0638 -2.5756
  254MOL0     H34285  10.434   1.553  10.551  0.6325 -3.3097 -1.1692
  254MOL0     H34286  10.763   1.456  10.793  1.7084  1.1804  0.4621
  254MOL0     H34287  11.145   1.650  10.185  2.5375  0.1849  1.9584
  254MOL0     H34288  11.457   1.509  10.151  0.5255  1.9403  0.8825
  254MOL0     H34289  11.387   1.563  10.001  0.4163 -1.5730 -0.1923
  254MOL0     H34290  11.366   1.653  10.153 -2.0409  0.6923 -1.4214
  255MOL0     O34291   9.275   8.143   3.384  0.3146 -0.4492  1.2435
  255MOL0     C34292   9.279   8.107   3.500  0.0735 -1.3642  0.0918
  255MOL0     O34293   9.169   8.069   3.575 -0.0438 -0.4831 -0.5113
  255MOL0     C34294   9.048   8.113   3.546 -1.2288  0.0531  0.7266
  255MOL0     C34295   8.984   8.208   3.631  0.3945 -0.0806 -0.4519
  255MOL0     C34296   8.850   8.247   3.603  0.3782  0.0420 -0.9050
  255MOL0     C34297   8.784   8.204   3.487  0.8990  0.7033  0.2180
  255MOL0     O34298   8.652   8.237   3.443 -0.6101  0.4599  0.2656
  255MOL0     C34299   8.597   8.347   3.509  0.1815 -0.9733 -0.4981
  255MOL0     C34300   8.459   8.374   3.470  0.8599  0.1095 -0.2333
  255MOL0     C34301   8.416   8.505   3.540  0.3263  0.4772  0.5265
  255MOL0     C34302   8.291   8.549   3.468  0.0222 -0.4689  0.2747
  255MOL0     C34303   8.193   8.635   3.550 -0.0903 -0.5074 -0.1373
  255MOL0     C34304   8.099   8.711   3.460  0.3039  0.7727 -0.2430
  255MOL0     C34305   8.020   8.814   3.540  0.5869 -0.1455  0.1632
  255MOL0     C34306   7.928   8.899   3.454  0.9025 -0.6784  0.7172
  255MOL0     N34307   8.008   8.993   3.382 -0.4755  0.4566 -0.9094
  255MOL0     C34308   8.008   9.030   3.248 -0.1693 -0.0689  0.2310
  255MOL0     C34309   8.095   9.136   3.239 -0.7958  0.6262 -0.0491
  255MOL0     C34310   8.124   9.227   3.119  0.1090  0.9150  0.2124
  255MOL0     C34311   8.087   9.379   3.136  0.7883  0.0519  0.1778
  255MOL0     C34312   8.172   9.457   3.234  0.1896  0.1681 -0.5675
  255MOL0     C34313   8.320   9.415   3.237 -0.4193  0.7302  0.2876
  255MOL0     O34314   8.367   9.413   3.099 -0.6032 -0.4628 -0.2465
  255MOL0     C34315   8.489   9.362   3.070  0.1646 -0.4685 -0.0464
  255MOL0     C34316   8.573   9.284   3.149  0.6793 -0.1329  0.9298
  255MOL0     C34317   8.698   9.241   3.104  0.4016  0.2483 -0.4479
  255MOL0     C34318   8.742   9.262   2.976 -0.5765  0.0943 -0.3415
  255MOL0     C34319   8.876   9.206   2.917  0.5495  0.0059 -0.2679
  255MOL0     O34320   8.926   9.097   2.980  0.3848 -0.1150 -0.7761
  255MOL0     C34321   9.055   9.052   2.960  1.3017  0.3970 -0.1675
  255MOL0     C34322   9.084   8.910   2.992 -0.1557 -0.2902 -0.0789
  255MOL0     C34323   9.218   8.865   2.975 -0.6792  0.1614  1.6937
  255MOL0     C34324   9.330   8.950   2.956  1.0162 -0.0137 -0.3412
  255MOL0     O34325   9.459   8.908   2.968  0.2217 -0.2836 -0.0075
  255MOL0     C34326   9.480   8.795   3.058  1.2633  0.4551 -0.2294
  255MOL0     C34327   9.624   8.749   3.063  0.4865 -0.1271  0.2266
  255MOL0     C34328   9.720   8.850   3.132  0.8787 -0.4902 -0.1339
  255MOL0     C34329   9.871   8.817   3.103 -0.2170  0.4971  0.6362
  255MOL0     C34330   9.962   8.937   3.123 -0.0303 -0.2307 -0.3250
  255MOL0     C34331   9.951   9.009   3.261  0.7025 -0.6035  0.1363
  255MOL0     C34332  10.021   9.149   3.275  0.2303 -0.0165 -0.8229
  255MOL0     C34333   9.964   9.273   3.195 -0.5128  0.7613  0.0234
  255MOL0    Cl34334   9.820   9.357   3.270  0.4386  0.3353  0.6082
  255MOL0     C34335   9.298   9.088   2.939 -0.3559 -0.1711 -0.7587
  255MOL0     C34336   9.166   9.135   2.948 -0.0670 -0.1521 -0.5658
  255MOL0     O34337   8.924   9.255   2.816 -0.6669  0.0333  0.2747
  255MOL0     C34338   8.665   9.349   2.890  0.8126  0.0741  0.2959
  255MOL0     C34339   8.536   9.390   2.939  0.4525 -0.2626 -0.7139
  255MOL0     N34340   8.158   9.154   3.359 -0.0967  0.4349 -0.2849
  255MOL0     N34341   8.113   9.061   3.437 -0.2621  0.2152 -0.2576
  255MOL0     C34342   8.850   8.111   3.406 -1.1295 -0.5022  0.1075
  255MOL0     C34343   8.976   8.068   3.434 -0.1440  0.8856 -0.6389
  255MOL0     C34344   9.407   8.088   3.553  0.2483  0.1406 -0.7818
  255MOL0     C34345   9.522   8.073   3.469 -0.4557  0.2232  0.3263
  255MOL0     C34346   9.649   8.088   3.521 -0.8455 -0.1342 -0.7743
  255MOL0     C34347   9.668   8.089   3.659  0.2261  0.0398  0.0816
  255MOL0     O34348   9.797   8.103   3.707 -0.5479  0.5967 -0.2455
  255MOL0     C34349   9.844   7.986   3.783 -0.0859 -0.5915  1.1374
  255MOL0     C34350   9.815   7.846   3.721  0.4547  0.5643 -0.5516
  255MOL0     C34351   9.884   7.813   3.584  0.6652  0.4961 -1.1769
  255MOL0     C34352  10.000   7.711   3.604  0.0299 -0.0046  0.6147
  255MOL0     C34353  10.129   7.782   3.643  0.4269  0.1736  0.1202
  255MOL0     C34354  10.231   7.825   3.696  0.4873 -0.7947  0.1071
  255MOL0     C34355   9.562   8.084   3.746  0.2282 -0.2637 -0.8191
  255MOL0     C34356   9.430   8.088   3.701  0.1456 -0.4033 -0.1855
  255MOL0     C34357   9.328   8.098   3.817 -0.5783  0.2955  0.0758
  255MOL0     H34358   9.022   8.244   3.726 -2.7525 -0.0468  0.9413
  255MOL0     H34359   8.795   8.294   3.684 -1.7424 -4.4948  0.6325
  255MOL0     H34360   8.592   8.324   3.616  4.6357  0.6278  0.2349
  255MOL0     H34361   8.658   8.434   3.484  0.9918 -1.6551 -0.9483
  255MOL0     H34362   8.387   8.295   3.489 -0.7185  1.3588 -0.7780
  255MOL0     H34363   8.449   8.377   3.361  1.6074 -0.1699 -0.3148
  255MOL0     H34364   8.497   8.579   3.536  1.7158 -0.9557  1.1161
  255MOL0     H34365   8.401   8.484   3.646  0.8924 -1.8151  0.2144
  255MOL0     H34366   8.324   8.604   3.380 -0.7229 -2.4630 -1.3098
  255MOL0     H34367   8.239   8.459   3.436 -3.4794  0.5142  2.6865
  255MOL0     H34368   8.147   8.583   3.635 -0.0348 -1.1091 -0.4699
  255MOL0     H34369   8.258   8.708   3.600  2.1478 -2.6915  0.3650
  255MOL0     H34370   8.161   8.769   3.391 -3.0101  0.8574 -3.4409
  255MOL0     H34371   8.036   8.648   3.396  0.1425 -0.6092  1.2104
  255MOL0     H34372   8.072   8.876   3.614 -0.4071  0.2595  0.5462
  255MOL0     H34373   7.965   8.768   3.623 -0.2556  1.1566  0.3512
  255MOL0     H34374   7.885   8.848   3.367 -1.2331  5.6699 -2.5787
  255MOL0     H34375   7.847   8.939   3.516 -1.9279 -4.0236 -0.4841
  255MOL0     H34376   7.945   8.987   3.171  1.8661 -4.1638  0.6182
  255MOL0     H34377   8.229   9.214   3.092 -0.3327  0.6365 -1.4698
  255MOL0     H34378   8.063   9.200   3.032  1.7413  2.2555 -1.4348
  255MOL0     H34379   8.111   9.438   3.047 -0.3320  0.2633 -0.0099
  255MOL0     H34380   7.980   9.382   3.160  0.9511 -4.1993  2.5071
  255MOL0     H34381   8.142   9.432   3.336 -0.1488 -0.6876 -0.8695
  255MOL0     H34382   8.165   9.565   3.222  0.1891  0.3795  1.0971
  255MOL0     H34383   8.348   9.324   3.291  1.0932 -0.9397 -3.0234
  255MOL0     H34384   8.374   9.495   3.288 -0.2392  4.7043 -5.1761
  255MOL0     H34385   8.550   9.260   3.253 -1.1655 -1.3797  0.2920
  255MOL0     H34386   8.758   9.185   3.176  1.9930  2.0432 -0.2826
  255MOL0     H34387   8.996   8.849   3.013 -0.0805 -0.0874  0.8588
  255MOL0     H34388   9.225   8.759   2.995  2.8770 -0.2721 -0.9022
  255MOL0     H34389   9.453   8.829   3.158  1.7046  4.0230 -1.1528
  255MOL0     H34390   9.421   8.708   3.028  0.6460  0.5819  0.5989
  255MOL0     H34391   9.634   8.653   3.115  1.8276 -0.5700 -0.7825
  255MOL0     H34392   9.647   8.734   2.957 -4.5928 -2.0109 -0.9343
  255MOL0     H34393   9.698   8.948   3.088  3.6430  0.6320  0.7106
  255MOL0     H34394   9.717   8.862   3.240  3.2876 -0.3704 -0.0185
  255MOL0     H34395   9.879   8.781   2.999  2.1160 -0.3444  1.0566
  255MOL0     H34396   9.907   8.736   3.167  1.7861 -0.8934 -2.0333
  255MOL0     H34397   9.933   9.002   3.040  0.2106  0.6308  0.2509
  255MOL0     H34398  10.067   8.913   3.104  0.4745  1.8503 -0.3090
  255MOL0     H34399   9.843   9.027   3.272  0.7482 -1.3460  2.2502
  255MOL0     H34400   9.968   8.932   3.336 -2.8641 -2.6714 -0.9233
  255MOL0     H34401  10.124   9.133   3.241 -0.0575  0.0025 -1.7114
  255MOL0     H34402  10.020   9.181   3.380  0.4806  4.0245 -1.8964
  255MOL0     H34403  10.046   9.345   3.190 -0.6278  0.8306 -0.9334
  255MOL0     H34404   9.944   9.239   3.093  0.1795 -2.6265  0.8861
  255MOL0     H34405   9.380   9.160   2.939 -1.2596  1.0218  2.2185
  255MOL0     H34406   9.165   9.243   2.946  0.4692 -0.1574 -1.3665
  255MOL0     H34407   8.702   9.374   2.792 -0.2632 -0.2158 -0.2011
  255MOL0     H34408   8.477   9.447   2.868  1.5036 -0.0942 -1.4813
  255MOL0     H34409   8.797   8.054   3.330  1.3217 -1.4176 -1.0154
  255MOL0     H34410   9.022   7.998   3.364  1.2572  0.9214  0.2008
  255MOL0     H34411   9.512   8.060   3.362 -2.0637 -0.4807  0.5298
  255MOL0     H34412   9.729   8.093   3.447 -0.1395 -1.8852 -0.1699
  255MOL0     H34413   9.795   7.990   3.880 -1.6517 -0.0503  0.3573
  255MOL0     H34414   9.953   7.992   3.793 -0.2254  1.3109  2.0964
  255MOL0     H34415   9.706   7.837   3.715  0.5150 -3.0891  1.0712
  255MOL0     H34416   9.847   7.768   3.791  0.8889  0.8624 -0.4115
  255MOL0     H34417   9.903   7.909   3.535 -1.1944  1.6534  0.2531
  255MOL0     H34418   9.815   7.764   3.515  0.4643 -0.0187 -0.6204
  255MOL0     H34419   9.976   7.622   3.662  2.5711 -1.5079 -0.4920
  255MOL0     H34420  10.027   7.676   3.504 -0.1566 -1.9422  1.2078
  255MOL0     H34421  10.313   7.879   3.738 -0.6596  1.0352  0.1333
  255MOL0     H34422   9.580   8.078   3.853 -1.6042  1.4532 -0.3583
  255MOL0     H34423   9.306   7.995   3.848  0.5668 -0.2860 -0.8966
  255MOL0     H34424   9.367   8.149   3.905 -0.4317  2.2161 -1.0411
  255MOL0     H34425   9.235   8.152   3.801 -1.2150 -1.0266 -0.9583
  256MOL0     O34426   2.421   1.706   9.557 -0.1570  0.1316  0.5774
  256MOL0     C34427   2.418   1.735   9.437 -0.2285  0.3474 -0.5471
  256MOL0     O34428   2.528   1.766   9.351 -0.0529 -0.2038  0.0505
  256MOL0     C34429   2.660   1.745   9.385  0.3590 -0.8211 -0.9062
  256MOL0     C34430   2.707   1.733   9.516  0.0305  0.1305 -0.4962
  256MOL0     C34431   2.838   1.708   9.536 -0.0446  0.7186  0.8350
  256MOL0     C34432   2.932   1.684   9.433 -0.3075 -0.3537 -0.3911
  256MOL0     O34433   3.068   1.658   9.454  0.1872 -0.3880  0.3922
  256MOL0     C34434   3.164   1.632   9.347  0.0101 -0.3720 -0.1857
  256MOL0     C34435   3.302   1.622   9.412  0.1852 -0.1890  0.7107
  256MOL0     C34436   3.376   1.754   9.445  0.6736 -0.9379  0.3418
  256MOL0     C34437   3.478   1.725   9.549  0.3586 -0.5266  0.1724
  256MOL0     C34438   3.618   1.707   9.492  0.3582 -0.5700 -0.2437
  256MOL0     C34439   3.677   1.846   9.471  0.1733 -0.0454  0.1107
  256MOL0     C34440   3.809   1.838   9.385 -0.5383 -0.1309  0.3040
  256MOL0     C34441   3.870   1.974   9.350 -0.1699 -0.1481 -1.2033
  256MOL0     N34442   4.016   1.984   9.340 -0.3605 -0.1392  0.2195
  256MOL0     C34443   4.103   2.027   9.437 -0.1256  1.3926 -0.4617
  256MOL0     C34444   4.227   2.034   9.372 -0.0913  0.0941  0.3461
  256MOL0     C34445   4.352   2.041   9.451 -0.3833 -0.3436 -0.5854
  256MOL0     C34446   4.405   2.186   9.449  0.5269  0.3639  0.4080
  256MOL0     C34447   4.545   2.219   9.506  0.4308 -0.3629  0.1513
  256MOL0     C34448   4.660   2.145   9.439 -0.3066 -0.3468  0.1395
  256MOL0     O34449   4.783   2.213   9.488  0.6428  0.5710 -0.0940
  256MOL0     C34450   4.902   2.205   9.421 -0.8860  0.2237  0.7807
  256MOL0     C34451   5.000   2.298   9.440 -0.2376 -0.1175 -0.5297
  256MOL0     C34452   5.119   2.287   9.360  0.7127  0.1594  0.7179
  256MOL0     C34453   5.134   2.175   9.270 -0.9212 -0.7594 -0.0368
  256MOL0     C34454   5.258   2.159   9.191 -0.9634  0.5494  0.7528
  256MOL0     O34455   5.364   2.239   9.237  0.2234  0.1530  0.9022
  256MOL0     C34456   5.505   2.204   9.220  0.5432  0.3233 -0.0108
  256MOL0     C34457   5.595   2.305   9.233 -0.1341  0.8183  0.3272
  256MOL0     C34458   5.732   2.278   9.246  0.3191 -0.0713  0.3551
  256MOL0     C34459   5.788   2.149   9.238  0.3862  0.2955 -0.7256
  256MOL0     O34460   5.920   2.106   9.243  0.5409 -0.9956  0.2993
  256MOL0     C34461   6.022   2.196   9.282 -0.0492  0.4660 -0.3684
  256MOL0     C34462   6.157   2.148   9.214  0.6947  0.4470 -0.3296
  256MOL0     C34463   6.207   2.012   9.269  0.0168  0.2472 -0.2602
  256MOL0     C34464   6.334   1.962   9.204 -0.2224  1.6539 -0.0646
  256MOL0     C34465   6.358   1.825   9.278 -0.2284  0.0264 -0.5177
  256MOL0     C34466   6.499   1.774   9.236 -0.1699 -0.2736 -0.1571
  256MOL0     C34467   6.511   1.626   9.246 -0.0959 -0.5209  0.7426
  256MOL0     C34468   6.644   1.566   9.193 -0.1536 -0.1474 -0.2973
  256MOL0    Cl34469   6.649   1.579   9.020 -0.0618  0.3138 -0.3406
  256MOL0     C34470   5.695   2.048   9.220 -0.2656 -0.0564  1.3123
  256MOL0     C34471   5.551   2.076   9.212  0.1380 -0.2711  1.2040
  256MOL0     O34472   5.264   2.062   9.118 -0.1866  0.1856  0.7271
  256MOL0     C34473   5.038   2.072   9.272  0.2119  0.4873 -0.0312
  256MOL0     C34474   4.922   2.091   9.338  0.8206  0.3649 -0.2122
  256MOL0     N34475   4.208   2.000   9.238  0.1518 -0.1485 -0.2031
  256MOL0     N34476   4.082   1.983   9.220  0.0319  0.1650 -0.8365
  256MOL0     C34477   2.881   1.689   9.307  0.4677 -0.8221  0.5509
  256MOL0     C34478   2.744   1.721   9.280 -0.4112 -0.2001  0.1101
  256MOL0     C34479   2.273   1.760   9.391 -0.2103 -0.2105 -0.0893
  256MOL0     C34480   2.270   1.854   9.283 -0.2425  0.1669 -0.3988
  256MOL0     C34481   2.143   1.885   9.217 -0.1892  1.0352  0.2884
  256MOL0     C34482   2.028   1.811   9.246 -0.7456 -0.1633 -0.5690
  256MOL0     O34483   1.908   1.831   9.173  0.2669 -0.7891  0.8586
  256MOL0     C34484   1.872   1.708   9.105  0.6919  0.1300  0.1638
  256MOL0     C34485   1.722   1.720   9.071  0.0647 -0.0065 -0.2688
  256MOL0     C34486   1.632   1.734   9.194  0.5649 -0.4146 -0.2690
  256MOL0     C34487   1.488   1.740   9.150  0.3777  0.3507 -0.2383
  256MOL0     C34488   1.392   1.790   9.241  0.1038  0.9258 -0.1765
  256MOL0     C34489   1.295   1.830   9.310 -0.7355 -0.0751  0.1775
  256MOL0     C34490   2.032   1.727   9.358  0.0836  0.5844  0.4587
  256MOL0     C34491   2.152   1.698   9.431 -0.3018 -0.3916  0.5117
  256MOL0     C34492   2.147   1.598   9.547  0.7583 -0.0818  0.9723
  256MOL0     H34493   2.650   1.741   9.608  2.0687  0.1168  0.8286
  256MOL0     H34494   2.873   1.691   9.638  1.4670 -0.3484  0.1802
  256MOL0     H34495   3.136   1.535   9.304  0.4991 -1.6599  2.2659
  256MOL0     H34496   3.171   1.709   9.269  0.2185  0.2812  0.4662
  256MOL0     H34497   3.361   1.574   9.333 -1.6625 -0.5934 -0.4987
  256MOL0     H34498   3.303   1.558   9.501 -2.5965  0.1668  1.1148
  256MOL0     H34499   3.309   1.828   9.490  2.5091  0.1428  1.4592
  256MOL0     H34500   3.413   1.789   9.348 -3.1928  0.3218 -0.8466
  256MOL0     H34501   3.486   1.810   9.617  1.4784 -0.5535  0.0994
  256MOL0     H34502   3.453   1.638   9.610 -0.3042 -0.6975 -0.3360
  256MOL0     H34503   3.675   1.650   9.566  0.2283  1.1824  1.2775
  256MOL0     H34504   3.627   1.655   9.396  1.6133  1.7002 -1.4328
  256MOL0     H34505   3.601   1.906   9.420 -0.3891 -0.5298  0.3662
  256MOL0     H34506   3.708   1.895   9.564  2.3648 -2.1709  0.5980
  256MOL0     H34507   3.769   1.783   9.299  0.4075  3.3991 -2.6456
  256MOL0     H34508   3.889   1.777   9.429  0.1533  1.0674  0.7392
  256MOL0     H34509   3.829   2.005   9.253 -2.2479  1.0119 -0.0287
  256MOL0     H34510   3.828   2.034   9.431  0.8838 -2.3884  1.1194
  256MOL0     H34511   4.075   2.035   9.541 -2.2717 -1.5634 -0.6761
  256MOL0     H34512   4.333   2.015   9.556  1.7947  0.2007 -0.0136
  256MOL0     H34513   4.435   1.979   9.415  0.4097 -0.9713  2.0800
  256MOL0     H34514   4.418   2.212   9.344  0.2942  0.3606  0.3783
  256MOL0     H34515   4.334   2.246   9.506  0.9008 -0.1539  1.4648
  256MOL0     H34516   4.565   2.201   9.613  3.1196 -2.1011 -0.5459
  256MOL0     H34517   4.550   2.325   9.483  0.7693 -0.1327  1.2115
  256MOL0     H34518   4.647   2.159   9.331  2.1704 -2.8014 -0.5912
  256MOL0     H34519   4.674   2.039   9.460 -0.8282 -0.3762  0.3487
  256MOL0     H34520   4.983   2.375   9.514  1.5204 -1.0568  0.9144
  256MOL0     H34521   5.191   2.367   9.365  0.7671  0.0581  1.8560
  256MOL0     H34522   5.555   2.406   9.238 -1.8940  0.1843 -0.3000
  256MOL0     H34523   5.794   2.367   9.238  1.0957 -0.6284  0.1395
  256MOL0     H34524   5.993   2.299   9.260 -2.5605  0.2369  1.4570
  256MOL0     H34525   6.026   2.182   9.391 -1.7619  2.2992 -0.0241
  256MOL0     H34526   6.133   2.139   9.108 -0.6047 -2.0111  0.1026
  256MOL0     H34527   6.230   2.223   9.247  0.7439 -0.5695  2.0782
  256MOL0     H34528   6.225   2.022   9.376 -2.3603 -0.1853  0.2447
  256MOL0     H34529   6.128   1.938   9.255 -2.0618  2.7028 -3.0894
  256MOL0     H34530   6.415   2.033   9.221 -0.1229  1.0343  2.4763
  256MOL0     H34531   6.318   1.948   9.097  0.0029 -0.4884  0.1336
  256MOL0     H34532   6.286   1.753   9.238 -0.3998 -1.5085  2.2411
  256MOL0     H34533   6.350   1.827   9.387 -0.7502 -3.0276 -0.3974
  256MOL0     H34534   6.530   1.819   9.141  3.2348  2.3020  1.9394
  256MOL0     H34535   6.580   1.819   9.293  0.0313 -0.1833 -0.5087
  256MOL0     H34536   6.435   1.572   9.188  2.1166 -0.7045 -2.2219
  256MOL0     H34537   6.491   1.602   9.351 -2.4450  3.9681  1.6056
  256MOL0     H34538   6.725   1.627   9.234  1.0852 -1.5911 -0.5214
  256MOL0     H34539   6.668   1.461   9.214  0.4429 -0.3790 -2.0123
  256MOL0     H34540   5.719   1.943   9.215 -1.5679 -0.3508  0.8995
  256MOL0     H34541   5.486   1.990   9.204  0.3981 -0.3572 -0.2985
  256MOL0     H34542   5.056   1.977   9.222  0.5576  0.0155  0.9664
  256MOL0     H34543   4.846   2.013   9.336  1.4706 -0.2577 -0.9415
  256MOL0     H34544   2.934   1.674   9.214 -1.8898 -1.9975 -0.6909
  256MOL0     H34545   2.718   1.717   9.175  1.0613 -2.6437 -0.2589
  256MOL0     H34546   2.361   1.902   9.249  0.8618 -0.3834  1.6077
  256MOL0     H34547   2.136   1.965   9.144 -1.7858 -0.7545 -1.6561
  256MOL0     H34548   1.889   1.626   9.176  1.2443  0.6493  0.6345
  256MOL0     H34549   1.934   1.710   9.015  0.2952  2.1159 -0.1092
  256MOL0     H34550   1.673   1.641   9.013 -1.7485  0.5953  0.3704
  256MOL0     H34551   1.719   1.807   9.004 -0.7701 -1.6172 -2.4682
  256MOL0     H34552   1.653   1.831   9.239  1.3412  0.5816 -2.5863
  256MOL0     H34553   1.640   1.648   9.261 -0.9129 -0.8100 -0.5550
  256MOL0     H34554   1.475   1.797   9.057  0.0341  0.1689 -0.3057
  256MOL0     H34555   1.451   1.640   9.124 -2.1870  1.6794 -2.2020
  256MOL0     H34556   1.218   1.860   9.378  1.1886 -1.0698  2.9858
  256MOL0     H34557   1.941   1.673   9.382  0.3426 -0.0377  0.0403
  256MOL0     H34558   2.209   1.640   9.627 -0.1078  0.1628  1.5273
  256MOL0     H34559   2.050   1.583   9.596  0.8512  2.7051  2.2131
  256MOL0     H34560   2.182   1.501   9.512 -1.1981 -0.6788  0.5321
  257MOL0     O34561   0.087   9.711   4.144 -1.0342 -0.2870  0.5084
  257MOL0     C34562   0.105   9.778   4.241  0.1280  0.7999  0.2631
  257MOL0     O34563   0.026   9.878   4.280  0.2518 -0.1730  0.5629
  257MOL0     C34564  -0.085   9.897   4.214 -0.3283 -0.4281  0.7376
  257MOL0     C34565  -0.211   9.854   4.272  0.5951  0.0163 -0.3546
  257MOL0     C34566  -0.318   9.845   4.188  0.3178  0.0142  0.0679
  257MOL0     C34567  -0.308   9.866   4.052  0.3185 -0.3369 -0.2004
  257MOL0     O34568  -0.411   9.848   3.961  0.1597 -0.3425 -0.9408
  257MOL0     C34569  -0.474   9.721   3.962  0.3750 -0.3326 -0.1942
  257MOL0     C34570  -0.530   9.680   3.833  0.4529  0.6583 -0.1401
  257MOL0     C34571  -0.413   9.649   3.736  0.3211 -0.0963  0.0817
  257MOL0     C34572  -0.454   9.593   3.600 -0.0169 -0.1731 -0.0114
  257MOL0     C34573  -0.341   9.605   3.488  0.5803  0.8934 -0.7214
  257MOL0     C34574  -0.209   9.526   3.531  0.4295 -0.0118  0.6447
  257MOL0     C34575  -0.082   9.585   3.466 -0.5159 -0.2676 -0.3880
  257MOL0     C34576  -0.082   9.575   3.313 -0.7794 -0.8974 -0.0693
  257MOL0     N34577   0.055   9.603   3.262 -0.5168  0.3152 -0.4735
  257MOL0     C34578   0.145   9.518   3.220 -0.4848  0.1999 -0.7543
  257MOL0     C34579   0.249   9.595   3.179  0.0972  0.1212 -0.2631
  257MOL0     C34580   0.383   9.542   3.122  0.3432 -0.5237 -0.3101
  257MOL0     C34581   0.366   9.492   2.983  1.3071  0.5904  0.1868
  257MOL0     C34582   0.505   9.444   2.933 -0.0516 -0.5349 -0.1031
  257MOL0     C34583   0.491   9.440   2.776 -0.1320 -0.0735 -0.3103
  257MOL0     O34584   0.627   9.439   2.723  0.4740  0.4081 -0.3952
  257MOL0     C34585   0.691   9.320   2.703  0.7960  0.0523  0.0025
  257MOL0     C34586   0.807   9.322   2.629  0.1397 -0.2981  0.1579
  257MOL0     C34587   0.885   9.205   2.589 -0.1006 -0.3409 -0.9797
  257MOL0     C34588   0.836   9.083   2.638  0.1429  0.4970  0.3497
  257MOL0     C34589   0.921   8.963   2.632  0.8495 -0.0092  0.7832
  257MOL0     O34590   1.005   8.960   2.524  0.0940  0.3608  0.2907
  257MOL0     C34591   1.069   8.845   2.498  0.7612  0.2122 -0.7913
  257MOL0     C34592   1.192   8.821   2.554  0.2352  0.4855 -0.1870
  257MOL0     C34593   1.279   8.716   2.527 -0.3360  0.0408  0.4206
  257MOL0     C34594   1.235   8.615   2.446 -0.7387  0.0317 -0.4857
  257MOL0     O34595   1.309   8.501   2.411  1.0476 -0.4038  0.1992
  257MOL0     C34596   1.456   8.507   2.428 -0.4189 -0.3915  0.5662
  257MOL0     C34597   1.496   8.431   2.562 -0.0549  0.4137 -0.8196
  257MOL0     C34598   1.648   8.454   2.584  0.5549  0.2220 -0.0270
  257MOL0     C34599   1.736   8.373   2.479 -1.2598 -0.5547 -0.5993
  257MOL0     C34600   1.881   8.366   2.517 -0.4441  0.0500  0.0307
  257MOL0     C34601   1.912   8.322   2.657  0.0463  0.1856  0.0015
  257MOL0     C34602   2.065   8.276   2.651  0.1798 -1.1474  0.9111
  257MOL0     C34603   2.100   8.130   2.614  0.5491 -1.5110 -0.5819
  257MOL0    Cl34604   2.256   8.129   2.529  0.1852 -0.3987  0.2541
  257MOL0     C34605   1.104   8.625   2.404  0.5124 -0.0409 -0.1484
  257MOL0     C34606   1.020   8.734   2.429  0.2363 -0.1251  0.4828
  257MOL0     O34607   0.910   8.879   2.716 -0.0241  0.0686  0.2919
  257MOL0     C34608   0.710   9.084   2.703  0.4364 -0.4024  0.9937
  257MOL0     C34609   0.644   9.197   2.740  0.6584  0.3585  0.3619
  257MOL0     N34610   0.228   9.727   3.211 -0.4123 -0.2439  0.4037
  257MOL0     N34611   0.109   9.729   3.258 -0.0972 -1.3527  0.1515
  257MOL0     C34612  -0.193   9.924   4.005  0.5648 -0.0853  0.3753
  257MOL0     C34613  -0.081   9.941   4.081 -0.3703  0.2153  0.2075
  257MOL0     C34614   0.224   9.760   4.338  0.2867 -0.1992  0.9849
  257MOL0     C34615   0.253   9.852   4.438 -0.2303 -0.7971 -0.8057
  257MOL0     C34616   0.356   9.844   4.531  1.1765  0.0521 -0.1132
  257MOL0     C34617   0.446   9.741   4.529  0.1833  0.0627  0.5057
  257MOL0     O34618   0.537   9.737   4.628  0.3380 -1.0312  0.0712
  257MOL0     C34619   0.643   9.649   4.610 -0.8148  0.0495  0.5065
  257MOL0     C34620   0.760   9.676   4.715  0.3137 -0.7079 -0.0487
  257MOL0     C34621   0.881   9.577   4.703  0.0761  0.3066  0.4579
  257MOL0     C34622   0.839   9.434   4.732 -0.2310  0.1076  0.5170
  257MOL0     C34623   0.952   9.348   4.780 -0.1815 -0.3510  0.7800
  257MOL0     C34624   1.046   9.277   4.802  0.6231 -0.5144 -0.5390
  257MOL0     C34625   0.421   9.645   4.427 -1.1127 -0.5945 -0.8573
  257MOL0     C34626   0.314   9.647   4.340 -0.1378 -0.6327  0.4590
  257MOL0     C34627   0.314   9.536   4.236  0.2767 -1.2836  0.7124
  257MOL0     H34628  -0.217   9.823   4.376  0.4000  1.3436  0.0445
  257MOL0     H34629  -0.412   9.805   4.223  1.4539 -0.7091  2.4630
  257MOL0     H34630  -0.404   9.645   3.996  0.3815 -0.0242  0.4971
  257MOL0     H34631  -0.559   9.726   4.030 -0.5978  0.0943 -1.3921
  257MOL0     H34632  -0.591   9.760   3.788  1.8032  1.4694 -0.5779
  257MOL0     H34633  -0.601   9.599   3.854 -0.0018  1.0985  0.0497
  257MOL0     H34634  -0.342   9.582   3.786 -0.9985 -2.6231 -1.2573
  257MOL0     H34635  -0.366   9.747   3.719 -0.4641  0.7708  2.5180
  257MOL0     H34636  -0.498   9.495   3.621 -1.0101  0.1952 -0.3119
  257MOL0     H34637  -0.540   9.648   3.561 -0.7475 -1.7591 -0.7319
  257MOL0     H34638  -0.372   9.551   3.397 -0.5518 -0.4255  0.4050
  257MOL0     H34639  -0.317   9.710   3.472  2.1909  0.4061 -1.8449
  257MOL0     H34640  -0.199   9.524   3.640  1.5467  1.1744  0.5907
  257MOL0     H34641  -0.223   9.421   3.503  1.4461 -0.0677  0.3181
  257MOL0     H34642   0.004   9.527   3.502 -0.3925 -1.2404 -2.1311
  257MOL0     H34643  -0.069   9.686   3.506 -1.4852 -0.2925  0.0094
  257MOL0     H34644  -0.128   9.484   3.274 -1.0087  0.9634 -4.7022
  257MOL0     H34645  -0.150   9.652   3.276 -1.0568 -1.4065 -0.6382
  257MOL0     H34646   0.137   9.411   3.207  3.7364 -0.1728 -1.3786
  257MOL0     H34647   0.454   9.624   3.118 -1.0896  0.9301  1.7594
  257MOL0     H34648   0.417   9.461   3.187  1.5647  0.5234  0.3936
  257MOL0     H34649   0.295   9.409   2.980  1.2763  0.5675  1.2508
  257MOL0     H34650   0.338   9.580   2.924  1.4759 -0.1751 -1.0725
  257MOL0     H34651   0.522   9.340   2.964 -2.8212 -0.6581  1.3286
  257MOL0     H34652   0.575   9.525   2.956 -1.7891  1.3039 -1.0346
  257MOL0     H34653   0.444   9.534   2.748  0.8253  0.7610  0.7954
  257MOL0     H34654   0.427   9.364   2.730 -0.8673 -0.5880  1.4662
  257MOL0     H34655   0.834   9.422   2.598 -3.0937  0.7421  0.3080
  257MOL0     H34656   0.978   9.240   2.544  0.3538  1.1631  0.9816
  257MOL0     H34657   1.224   8.889   2.632 -2.6223 -0.2679  1.8027
  257MOL0     H34658   1.373   8.702   2.579  2.0497 -0.0577 -3.5128
  257MOL0     H34659   1.500   8.453   2.344  0.9314  0.0705  0.9493
  257MOL0     H34660   1.500   8.608   2.425  1.6159 -1.2270  0.8744
  257MOL0     H34661   1.447   8.472   2.651 -0.4697 -1.6358 -0.0577
  257MOL0     H34662   1.482   8.323   2.554 -0.3155  0.1147  2.3822
  257MOL0     H34663   1.665   8.561   2.593  0.5336  0.1342  1.3366
  257MOL0     H34664   1.675   8.421   2.685  3.3226  0.1639 -0.6857
  257MOL0     H34665   1.734   8.432   2.387 -0.8951 -0.6563 -0.6740
  257MOL0     H34666   1.688   8.275   2.470 -2.3402 -0.3424  1.9383
  257MOL0     H34667   1.935   8.454   2.480 -0.9165  1.0326  1.5825
  257MOL0     H34668   1.912   8.288   2.446 -1.4259  0.1472 -0.5162
  257MOL0     H34669   1.897   8.408   2.723 -1.9098  1.0553 -1.4956
  257MOL0     H34670   1.851   8.236   2.686  1.9141 -1.4022 -0.5146
  257MOL0     H34671   2.107   8.279   2.751  0.0391  1.6326  0.9739
  257MOL0     H34672   2.108   8.350   2.582 -1.9409 -0.9876 -0.3303
  257MOL0     H34673   2.110   8.082   2.711 -2.7788 -0.2259  0.5516
  257MOL0     H34674   2.024   8.078   2.555  0.0955 -3.2651  1.4091
  257MOL0     H34675   1.058   8.540   2.356 -1.8176  0.0478  1.6945
  257MOL0     H34676   0.934   8.747   2.366  1.2505  0.3777 -0.8445
  257MOL0     H34677   0.665   8.986   2.715  3.3425 -2.5133 -3.0019
  257MOL0     H34678   0.545   9.185   2.782  0.3647 -0.8870 -0.6091
  257MOL0     H34679  -0.188   9.949   3.900  0.2681  1.8723  0.7786
  257MOL0     H34680   0.020   9.958   4.045  0.9971 -1.1080  3.0630
  257MOL0     H34681   0.193   9.940   4.460 -1.6176 -1.5909 -1.2436
  257MOL0     H34682   0.352   9.916   4.612 -0.8048  0.1628 -0.2622
  257MOL0     H34683   0.697   9.666   4.517  0.4679 -1.4127  0.9410
  257MOL0     H34684   0.597   9.550   4.625 -0.2143 -0.1001  1.4471
  257MOL0     H34685   0.725   9.671   4.818 -0.9082  0.8126 -0.3610
  257MOL0     H34686   0.792   9.779   4.697 -2.5267  0.3914  0.5550
  257MOL0     H34687   0.952   9.618   4.776 -2.6528  1.1817  2.8122
  257MOL0     H34688   0.925   9.574   4.603 -1.4702 -1.5786 -0.2383
  257MOL0     H34689   0.774   9.452   4.817  0.6953  0.7922  1.1098
  257MOL0     H34690   0.787   9.384   4.650  1.6218  0.0612 -0.7010
  257MOL0     H34691   1.130   9.215   4.826 -0.2228 -0.9931  1.3978
  257MOL0     H34692   0.489   9.561   4.419 -1.2176 -0.6810 -0.8364
  257MOL0     H34693   0.218   9.484   4.247  1.0992 -2.5704  2.2666
  257MOL0     H34694   0.326   9.585   4.139  4.6435  2.4324  2.7725
  257MOL0     H34695   0.395   9.462   4.238 -1.9769 -3.9452  0.6641
  258MOL0     O34696   7.929   9.346   4.920  0.5461  0.0240  0.7215
  258MOL0     C34697   7.843   9.273   4.866  0.1983  0.2606  0.2871
  258MOL0     O34698   7.859   9.205   4.750 -0.2644 -0.1805  0.4207
  258MOL0     C34699   7.974   9.205   4.679 -0.4607  0.9225 -0.9372
  258MOL0     C34700   8.103   9.239   4.722  1.3444  0.1530  0.9409
  258MOL0     C34701   8.206   9.265   4.629 -0.2035 -0.3974  0.5953
  258MOL0     C34702   8.180   9.233   4.493 -0.5153 -0.3168 -0.3105
  258MOL0     O34703   8.265   9.246   4.387 -0.1014 -0.2297  1.0357
  258MOL0     C34704   8.394   9.178   4.396  0.4554 -0.5975 -1.1143
  258MOL0     C34705   8.373   9.037   4.369 -0.2359  0.3508  0.0922
  258MOL0     C34706   8.325   9.008   4.224 -0.2522  0.3771 -0.0002
  258MOL0     C34707   8.269   8.864   4.217  1.2134 -0.0850 -0.6736
  258MOL0     C34708   8.208   8.841   4.074 -0.3907  0.2702 -0.0758
  258MOL0     C34709   8.145   8.709   4.060  0.2983 -0.2969 -0.0144
  258MOL0     C34710   8.104   8.688   3.915  0.7921  0.1304  0.5169
  258MOL0     C34711   8.035   8.554   3.904  0.5874  0.9313 -0.1069
  258MOL0     N34712   8.132   8.444   3.907  0.2891 -0.4792 -0.8387
  258MOL0     C34713   8.120   8.315   3.958  0.2372  0.6308 -1.2698
  258MOL0     C34714   8.247   8.262   3.956  1.0244 -0.7271 -0.5422
  258MOL0     C34715   8.277   8.129   3.982 -0.1900 -0.3658 -0.2796
  258MOL0     C34716   8.254   8.034   3.867  1.0263 -0.2123 -0.2041
  258MOL0     C34717   8.324   8.081   3.741  0.4411 -0.0996 -0.4832
  258MOL0     C34718   8.477   8.089   3.755  0.0564 -0.5057  0.6864
  258MOL0     O34719   8.541   7.961   3.776  0.0424  0.0451  0.1044
  258MOL0     C34720   8.657   7.948   3.848 -0.0524 -0.5421 -0.0612
  258MOL0     C34721   8.653   7.915   3.981  0.5341 -0.0844  0.0371
  258MOL0     C34722   8.764   7.889   4.057 -0.0832 -0.5227  0.1482
  258MOL0     C34723   8.894   7.897   3.995 -0.4281  0.3679  0.4257
  258MOL0     C34724   9.016   7.877   4.080 -0.0151  0.2853  0.5220
  258MOL0     O34725   9.140   7.894   4.025  1.0254  0.2721 -0.5280
  258MOL0     C34726   9.256   7.848   4.082  0.7792 -0.5862  0.7669
  258MOL0     C34727   9.278   7.712   4.100  0.7620  0.2417 -0.4372
  258MOL0     C34728   9.405   7.673   4.145  0.9525 -1.1412 -0.1279
  258MOL0     C34729   9.503   7.758   4.170  0.0938 -0.0491  0.5551
  258MOL0     O34730   9.633   7.709   4.212  0.9458 -0.9244 -0.3512
  258MOL0     C34731   9.715   7.699   4.096 -0.3192  0.0647 -0.0366
  258MOL0     C34732   9.690   7.573   4.017  1.1398  0.7692  0.4826
  258MOL0     C34733   9.683   7.452   4.115  0.0722 -0.6810 -0.5403
  258MOL0     C34734   9.809   7.415   4.199  0.6286 -0.0437  0.1438
  258MOL0     C34735   9.781   7.298   4.293 -0.0385 -0.0869 -0.3919
  258MOL0     C34736   9.889   7.277   4.401  0.0957 -0.2419 -0.6648
  258MOL0     C34737  10.034   7.274   4.346  0.5336 -0.3083 -0.7939
  258MOL0     C34738  10.143   7.247   4.444  0.6348  0.4509 -1.1129
  258MOL0    Cl34739  10.291   7.226   4.352 -0.0663 -0.0638 -0.4985
  258MOL0     C34740   9.482   7.896   4.149 -0.0450  0.5145  0.1363
  258MOL0     C34741   9.356   7.937   4.106 -0.0583 -0.6772 -0.3517
  258MOL0     O34742   8.992   7.833   4.195 -0.7128  0.2396 -0.3394
  258MOL0     C34743   8.900   7.922   3.855  0.1438 -0.5898  0.0306
  258MOL0     C34744   8.782   7.944   3.784 -0.1945  0.7112  0.4753
  258MOL0     N34745   8.342   8.362   3.905  0.3268 -0.5352 -0.1619
  258MOL0     N34746   8.262   8.460   3.873  0.0201 -0.3672  0.6693
  258MOL0     C34747   8.053   9.192   4.456  0.4424  0.3013  0.1099
  258MOL0     C34748   7.950   9.173   4.547  0.4379 -0.8337  0.1315
  258MOL0     C34749   7.698   9.277   4.897  0.3825  0.3056 -0.1719
  258MOL0     C34750   7.608   9.180   4.841  0.7829 -0.4112 -0.9695
  258MOL0     C34751   7.477   9.181   4.885 -0.7695 -0.2731  0.1403
  258MOL0     C34752   7.428   9.264   4.976 -0.1598 -0.0646  0.1311
  258MOL0     O34753   7.299   9.235   5.010  0.8924 -0.5586  0.6740
  258MOL0     C34754   7.232   9.351   5.065 -0.0760 -0.1859  0.7505
  258MOL0     C34755   7.078   9.333   5.067  0.0083 -0.1499 -0.2591
  258MOL0     C34756   7.027   9.330   4.920  1.2154  0.6940  1.1425
  258MOL0     C34757   6.874   9.326   4.946  0.1411  0.1505  0.7913
  258MOL0     C34758   6.796   9.351   4.827 -0.6649 -0.0774  0.1974
  258MOL0     C34759   6.738   9.365   4.725  0.0707 -0.6085 -0.9790
  258MOL0     C34760   7.508   9.360   5.029  0.0062 -0.6912 -1.0811
  258MOL0     C34761   7.635   9.377   4.982 -0.0446  0.1731 -0.7927
  258MOL0     C34762   7.708   9.496   5.037  0.8818  1.7274 -0.1293
  258MOL0     H34763   8.124   9.269   4.824 -1.0043  2.5172  0.8567
  258MOL0     H34764   8.303   9.301   4.662 -1.1400  0.0821  3.0926
  258MOL0     H34765   8.469   9.217   4.326  1.7537 -2.7811 -1.0192
  258MOL0     H34766   8.445   9.194   4.492  1.2018 -0.1415 -1.5772
  258MOL0     H34767   8.289   9.008   4.432  0.6916  2.3089  2.3803
  258MOL0     H34768   8.466   8.982   4.389  2.3465  3.5785 -1.9504
  258MOL0     H34769   8.402   9.020   4.147 -0.0531  2.8159  0.5089
  258MOL0     H34770   8.242   9.071   4.192  0.8033  0.9820 -1.6797
  258MOL0     H34771   8.351   8.796   4.243  0.1068 -0.4548  2.2323
  258MOL0     H34772   8.194   8.843   4.294  1.7289  0.4273 -0.0101
  258MOL0     H34773   8.139   8.924   4.055 -0.3972 -0.1678 -2.2787
  258MOL0     H34774   8.291   8.844   4.003 -0.1141  0.7757  0.2608
  258MOL0     H34775   8.211   8.634   4.105 -0.9962 -0.3227  1.9329
  258MOL0     H34776   8.059   8.708   4.127  0.2842 -2.6427  0.0399
  258MOL0     H34777   8.185   8.709   3.845 -0.5124  3.3850 -0.2015
  258MOL0     H34778   8.030   8.763   3.886 -1.4708 -2.0469  0.3218
  258MOL0     H34779   7.970   8.535   3.990  1.2245 -2.7615 -0.2945
  258MOL0     H34780   7.976   8.549   3.813  1.2051 -1.0032 -0.4534
  258MOL0     H34781   8.031   8.257   3.982  1.1794  0.6339  3.2076
  258MOL0     H34782   8.384   8.128   4.004 -0.4306  2.2118  1.4685
  258MOL0     H34783   8.221   8.074   4.059  0.6725 -2.2529 -0.9252
  258MOL0     H34784   8.295   7.936   3.894  0.0116 -0.5772  0.0902
  258MOL0     H34785   8.149   8.005   3.857  0.0343  1.9651  2.4516
  258MOL0     H34786   8.268   8.171   3.713 -1.4253  0.2867  3.6674
  258MOL0     H34787   8.297   8.008   3.664 -0.2415 -1.1888  0.7559
  258MOL0     H34788   8.510   8.142   3.845  0.3787 -1.1386  0.9480
  258MOL0     H34789   8.523   8.120   3.661 -2.1251 -0.2273 -0.3517
  258MOL0     H34790   8.554   7.928   4.023 -0.0964  0.4053 -1.5447
  258MOL0     H34791   8.748   7.873   4.164  0.1948 -1.6328  0.0409
  258MOL0     H34792   9.198   7.642   4.077  1.5927 -0.9793  0.2553
  258MOL0     H34793   9.431   7.571   4.167  2.0370 -0.2527  3.3527
  258MOL0     H34794   9.708   7.796   4.045 -1.6714  0.5781  1.0686
  258MOL0     H34795   9.817   7.693   4.133  0.3243  2.0668 -1.3204
  258MOL0     H34796   9.596   7.573   3.961  1.9026  3.2256 -0.9663
  258MOL0     H34797   9.769   7.549   3.945 -1.5808 -1.8830 -1.8655
  258MOL0     H34798   9.612   7.466   4.197 -0.4333  0.9216 -1.1963
  258MOL0     H34799   9.658   7.364   4.055  0.9003 -1.3836  0.1157
  258MOL0     H34800   9.823   7.502   4.264 -1.8046 -0.4899  1.3757
  258MOL0     H34801   9.906   7.396   4.152  0.1698  0.0582 -0.8783
  258MOL0     H34802   9.772   7.210   4.228  8.2016 -0.7650 -1.6538
  258MOL0     H34803   9.686   7.308   4.346  0.0249 -2.4785  0.2826
  258MOL0     H34804   9.879   7.360   4.471 -0.0884 -0.1283 -0.8267
  258MOL0     H34805   9.861   7.187   4.457  1.0093 -0.2107 -0.1498
  258MOL0     H34806  10.067   7.368   4.300  1.2778  0.6067  1.4885
  258MOL0     H34807  10.038   7.198   4.267 -0.8925 -0.2881 -0.9152
  258MOL0     H34808  10.148   7.338   4.505 -1.8117  1.9259 -2.9572
  258MOL0     H34809  10.131   7.167   4.517 -1.2345  1.0522 -0.7121
  258MOL0     H34810   9.553   7.970   4.182 -0.9668  1.0031  1.1076
  258MOL0     H34811   9.345   8.044   4.094  0.4765 -0.7315 -1.4683
  258MOL0     H34812   8.999   7.929   3.810 -0.3176 -2.1165 -1.3259
  258MOL0     H34813   8.786   7.964   3.677 -0.8884 -2.3904 -0.2109
  258MOL0     H34814   8.027   9.170   4.352 -1.1561  0.9755  0.3389
  258MOL0     H34815   7.851   9.147   4.512  0.1987 -0.7251  0.7194
  258MOL0     H34816   7.640   9.102   4.773  1.1092 -1.2561  0.1244
  258MOL0     H34817   7.408   9.118   4.830 -1.6556  2.3613 -1.9814
  258MOL0     H34818   7.249   9.446   5.012 -0.4145 -1.0249 -0.9304
  258MOL0     H34819   7.258   9.366   5.170  0.4526 -0.3222  0.6396
  258MOL0     H34820   7.035   9.415   5.126  3.6326  0.3406  2.0523
  258MOL0     H34821   7.057   9.234   5.107  0.6169 -0.0516  0.3289
  258MOL0     H34822   7.065   9.239   4.872  0.4755  0.6882  0.5409
  258MOL0     H34823   7.059   9.408   4.851 -0.7099 -0.5225 -1.3122
  258MOL0     H34824   6.834   9.234   4.990 -1.5318  1.1690  1.4793
  258MOL0     H34825   6.855   9.406   5.018  1.7135 -0.5702  2.0620
  258MOL0     H34826   6.697   9.386   4.629 -0.3735 -3.4894 -1.5162
  258MOL0     H34827   7.474   9.420   5.113  2.7359 -0.7497  0.2093
  258MOL0     H34828   7.802   9.465   5.084 -0.4036 -0.8897  0.9005
  258MOL0     H34829   7.734   9.579   4.971  4.1318  0.5252 -0.5315
  258MOL0     H34830   7.644   9.545   5.110 -0.7975 -1.7192  0.9375
  259MOL0     O34831   1.684   4.092   0.853  0.3367 -0.3486  0.3015
  259MOL0     C34832   1.630   4.050   0.951  1.0496  1.0930 -0.7260
  259MOL0     O34833   1.690   4.017   1.069  0.0491 -0.9177  0.8494
  259MOL0     C34834   1.821   4.052   1.084  0.2439 -0.9045  0.4526
  259MOL0     C34835   1.912   3.951   1.088  0.2402  0.8831  0.1206
  259MOL0     C34836   2.046   3.984   1.096  0.5174 -0.5501 -0.3875
  259MOL0     C34837   2.088   4.119   1.107 -0.4357 -0.4323  0.2483
  259MOL0     O34838   2.223   4.149   1.115  0.1152  0.6834 -0.1841
  259MOL0     C34839   2.273   4.283   1.115 -0.1702 -0.1321  0.2827
  259MOL0     C34840   2.417   4.280   1.178 -0.0892  0.6899  0.6153
  259MOL0     C34841   2.508   4.389   1.121 -0.1932  0.8741  0.1564
  259MOL0     C34842   2.583   4.338   1.004  0.4306 -0.6988 -0.3898
  259MOL0     C34843   2.713   4.417   0.979 -0.5174 -0.0251 -0.4010
  259MOL0     C34844   2.814   4.328   0.893 -0.8279 -0.6403  0.3057
  259MOL0     C34845   2.763   4.294   0.761 -0.1438  0.2463 -0.0355
  259MOL0     C34846   2.868   4.240   0.660 -0.2953 -0.3317 -0.0806
  259MOL0     N34847   2.986   4.323   0.643 -0.1161  0.4575 -0.4243
  259MOL0     C34848   3.010   4.427   0.555  0.6437  0.0241  0.0396
  259MOL0     C34849   3.139   4.471   0.587  0.2229  0.4775  0.1279
  259MOL0     C34850   3.210   4.586   0.523 -0.1619  0.0536  0.1506
  259MOL0     C34851   3.278   4.555   0.381  0.4302 -0.4739 -0.1183
  259MOL0     C34852   3.382   4.661   0.347 -0.4833  0.9216  0.8753
  259MOL0     C34853   3.457   4.644   0.222 -0.1312  0.4161  0.4143
  259MOL0     O34854   3.566   4.737   0.225 -0.2888  0.4789 -0.6482
  259MOL0     C34855   3.670   4.709   0.146 -0.1746 -0.6525 -0.2743
  259MOL0     C34856   3.669   4.625   0.037 -0.1038  0.5314  0.0283
  259MOL0     C34857   3.786   4.598  -0.034 -0.0793  0.4975 -0.0933
  259MOL0     C34858   3.915   4.651   0.006  0.3035  0.9899  0.9057
  259MOL0     C34859   4.043   4.620  -0.064 -0.6836  0.0397 -0.4086
  259MOL0     O34860   4.150   4.696  -0.021  0.7328  0.2440 -0.6251
  259MOL0     C34861   4.263   4.704  -0.098  0.7079 -0.4902  0.7623
  259MOL0     C34862   4.382   4.667  -0.042 -0.3199  0.7662 -0.5168
  259MOL0     C34863   4.496   4.684  -0.119  0.0755  0.3283 -0.1310
  259MOL0     C34864   4.498   4.774  -0.232 -1.4826 -0.0936  0.2297
  259MOL0     O34865   4.612   4.809  -0.302  0.1697  0.0173 -0.1857
  259MOL0     C34866   4.726   4.717  -0.311  0.0291  0.7462  0.3328
  259MOL0     C34867   4.821   4.757  -0.434 -0.2637  0.3526  0.2391
  259MOL0     C34868   4.918   4.639  -0.461 -0.4934 -1.0163  0.0158
  259MOL0     C34869   4.988   4.657  -0.599 -0.4950 -0.3159 -0.0554
  259MOL0     C34870   5.091   4.548  -0.634  0.6866 -0.5142 -0.8633
  259MOL0     C34871   5.221   4.592  -0.698  0.0259 -0.2205  0.5794
  259MOL0     C34872   5.345   4.501  -0.679 -0.7700  0.3569 -0.1562
  259MOL0     C34873   5.391   4.477  -0.535  0.0547  1.2840 -0.7882
  259MOL0    Cl34874   5.385   4.620  -0.420 -0.0926  0.1776 -0.1434
  259MOL0     C34875   4.373   4.811  -0.287  0.2782  0.0656 -0.6443
  259MOL0     C34876   4.258   4.764  -0.227  0.1709 -0.0436 -0.4376
  259MOL0     O34877   4.048   4.531  -0.153 -0.2632  0.7243  0.4971
  259MOL0     C34878   3.910   4.742   0.112 -0.6915 -0.8008  0.3561
  259MOL0     C34879   3.788   4.777   0.169 -1.0827 -1.1217 -0.2075
  259MOL0     N34880   3.188   4.389   0.684 -0.3388 -0.1099  0.4077
  259MOL0     N34881   3.096   4.297   0.714 -0.0588 -0.8948 -0.6831
  259MOL0     C34882   1.989   4.211   1.131  0.2303  0.4955  1.1360
  259MOL0     C34883   1.847   4.185   1.118 -0.8140  0.4934  0.5992
  259MOL0     C34884   1.485   4.018   0.945  1.3193  0.5788 -0.2854
  259MOL0     C34885   1.419   4.028   1.070  0.1184  0.9516  0.0089
  259MOL0     C34886   1.276   4.031   1.075 -0.7134  0.4001 -0.7546
  259MOL0     C34887   1.207   3.965   0.977  0.4028 -1.2131 -0.4993
  259MOL0     O34888   1.072   3.951   1.005  0.5314 -0.2905 -0.2207
  259MOL0     C34889   0.986   3.918   0.896  0.2155 -0.0476  0.7934
  259MOL0     C34890   0.930   4.045   0.824  0.1870  0.0642 -0.4007
  259MOL0     C34891   0.905   4.160   0.931 -0.5002 -0.3319 -0.0140
  259MOL0     C34892   0.782   4.253   0.901 -0.7125 -1.1193  0.4097
  259MOL0     C34893   0.659   4.178   0.907  0.0043 -0.1321  0.1795
  259MOL0     C34894   0.547   4.126   0.909 -0.7119 -0.3400  0.2041
  259MOL0     C34895   1.272   3.947   0.850  0.2101  0.0653 -0.3309
  259MOL0     C34896   1.413   3.977   0.835  0.2067  1.1747  0.5226
  259MOL0     C34897   1.474   3.933   0.702 -0.3146 -1.2261 -0.3221
  259MOL0     H34898   1.875   3.850   1.074 -0.1197  1.1549 -1.0394
  259MOL0     H34899   2.117   3.902   1.085  0.9613 -0.2423  0.0871
  259MOL0     H34900   2.282   4.317   1.011  0.4761 -1.3377 -0.0878
  259MOL0     H34901   2.214   4.352   1.175  0.0551 -0.4519  0.8859
  259MOL0     H34902   2.459   4.181   1.157  0.8029  0.5653  2.7610
  259MOL0     H34903   2.419   4.280   1.287 -1.9389 -2.6758  0.7794
  259MOL0     H34904   2.589   4.416   1.190  1.8942  0.0633 -1.8600
  259MOL0     H34905   2.438   4.466   1.089  1.3552  1.4947 -1.9844
  259MOL0     H34906   2.602   4.231   1.015  0.6335 -0.7093 -0.8022
  259MOL0     H34907   2.526   4.367   0.915  1.1163  4.2197  0.4842
  259MOL0     H34908   2.686   4.505   0.920  1.5102  1.2268  0.4420
  259MOL0     H34909   2.764   4.445   1.072 -3.8255 -0.3957  1.6955
  259MOL0     H34910   2.910   4.379   0.880 -2.3790  1.9017 -2.4670
  259MOL0     H34911   2.823   4.237   0.953 -0.9003 -0.1095  1.1460
  259MOL0     H34912   2.714   4.382   0.718 -3.2736 -1.6408 -0.6934
  259MOL0     H34913   2.685   4.218   0.758  1.4204 -1.3955 -1.3351
  259MOL0     H34914   2.888   4.138   0.695 -1.4926 -1.0616 -1.3830
  259MOL0     H34915   2.818   4.230   0.563  0.6379  0.8001 -0.7000
  259MOL0     H34916   2.934   4.457   0.484 -0.2959 -3.1066 -0.4446
  259MOL0     H34917   3.133   4.662   0.506  0.8380  1.3734  1.2446
  259MOL0     H34918   3.288   4.623   0.590 -2.0870  0.0391  2.5126
  259MOL0     H34919   3.326   4.457   0.380  1.2592 -0.0819 -0.6047
  259MOL0     H34920   3.195   4.556   0.311 -0.7561  0.5003  1.2529
  259MOL0     H34921   3.450   4.673   0.432 -1.4770  0.4870  1.7472
  259MOL0     H34922   3.329   4.757   0.345 -0.2344  1.1605 -3.7242
  259MOL0     H34923   3.402   4.656   0.128 -0.8573 -0.9400  0.6408
  259MOL0     H34924   3.490   4.540   0.219 -3.5373 -0.7835 -0.5994
  259MOL0     H34925   3.577   4.570   0.015  1.1123 -2.2908  1.4791
  259MOL0     H34926   3.779   4.544  -0.128  0.5283  0.4524 -0.1132
  259MOL0     H34927   4.393   4.612   0.051 -1.6384 -0.6897 -1.1919
  259MOL0     H34928   4.589   4.644  -0.079 -1.0153 -2.3307 -0.0594
  259MOL0     H34929   4.777   4.714  -0.215 -0.5706  0.4273  0.6499
  259MOL0     H34930   4.694   4.613  -0.318  2.8944 -0.1340 -1.1078
  259MOL0     H34931   4.761   4.780  -0.523 -2.3789  3.4258  2.2136
  259MOL0     H34932   4.874   4.848  -0.404  0.5651  0.3344 -1.0938
  259MOL0     H34933   4.989   4.632  -0.378  1.3043 -0.2793 -1.3953
  259MOL0     H34934   4.853   4.552  -0.471  0.1958 -1.2643 -3.7882
  259MOL0     H34935   5.042   4.752  -0.587 -2.9902  1.3857 -1.5832
  259MOL0     H34936   4.915   4.670  -0.678 -1.1334 -0.5006  0.4939
  259MOL0     H34937   5.027   4.479  -0.691  0.9211 -2.5431  1.1625
  259MOL0     H34938   5.111   4.493  -0.542 -2.0970  2.1107  1.5157
  259MOL0     H34939   5.208   4.602  -0.806  3.5210 -2.5663 -0.2465
  259MOL0     H34940   5.231   4.693  -0.658 -4.5763  0.4990  0.3923
  259MOL0     H34941   5.428   4.552  -0.730 -1.8273  1.5782 -0.7142
  259MOL0     H34942   5.341   4.400  -0.720  1.2260  0.3737 -0.5093
  259MOL0     H34943   5.318   4.401  -0.506 -1.0555  2.2483 -0.9689
  259MOL0     H34944   5.490   4.432  -0.527 -0.4503  0.2314 -0.1590
  259MOL0     H34945   4.364   4.860  -0.384 -0.4812  3.3909  0.9617
  259MOL0     H34946   4.159   4.775  -0.270 -1.3146  0.1137  2.7111
  259MOL0     H34947   4.001   4.796   0.135 -0.1703 -0.7987 -1.5056
  259MOL0     H34948   3.785   4.863   0.237  0.1135 -0.5741 -0.8223
  259MOL0     H34949   2.025   4.313   1.137  2.1494 -0.2061  3.2573
  259MOL0     H34950   1.772   4.264   1.124 -2.6725 -0.4948 -4.2449
  259MOL0     H34951   1.462   4.060   1.165  1.2695 -0.5315  0.0055
  259MOL0     H34952   1.220   4.044   1.167 -1.7205 -1.9569 -0.9663
  259MOL0     H34953   0.899   3.867   0.939  1.7358 -3.0517  0.5624
  259MOL0     H34954   1.028   3.855   0.817 -2.7621 -2.4941  0.9739
  259MOL0     H34955   0.845   4.006   0.766  0.7218 -0.9932 -0.4839
  259MOL0     H34956   1.007   4.072   0.751  0.7669 -0.2875  0.0831
  259MOL0     H34957   1.002   4.210   0.938 -0.0993 -0.9539 -0.9021
  259MOL0     H34958   0.872   4.122   1.028 -3.3669 -2.0366 -1.5043
  259MOL0     H34959   0.764   4.324   0.983  0.3879 -2.2615  1.6999
  259MOL0     H34960   0.788   4.309   0.807  2.0715  0.2651  1.2962
  259MOL0     H34961   0.454   4.073   0.916 -0.3503 -1.2834 -1.6700
  259MOL0     H34962   1.217   3.901   0.768 -1.3951 -0.1842  0.8348
  259MOL0     H34963   1.581   3.916   0.716 -0.2524  0.5723  2.0112
  259MOL0     H34964   1.423   3.845   0.662  2.5349 -1.4284 -3.9915
  259MOL0     H34965   1.446   4.013   0.634 -0.9229  0.4265  1.7497
  260MOL0     O34966   9.482   8.344   7.072  0.0329  0.2693 -0.2332
  260MOL0     C34967   9.363   8.330   7.110  1.2479  0.5952  0.5234
  260MOL0     O34968   9.306   8.349   7.241 -0.7846 -0.9327  0.4794
  260MOL0     C34969   9.371   8.405   7.349  0.1379  0.4031 -0.0248
  260MOL0     C34970   9.511   8.394   7.364  0.2677 -0.7604 -0.4897
  260MOL0     C34971   9.565   8.448   7.474  0.2820 -1.1178 -0.5533
  260MOL0     C34972   9.493   8.531   7.564 -0.0442 -0.2121 -0.3622
  260MOL0     O34973   9.565   8.584   7.668 -0.6376  0.0525 -0.3679
  260MOL0     C34974   9.603   8.494   7.762 -0.2664  0.0851 -0.2873
  260MOL0     C34975   9.585   8.573   7.895 -1.2439 -0.3523  0.6048
  260MOL0     C34976   9.628   8.485   8.016 -0.4785 -1.0295  1.1914
  260MOL0     C34977   9.775   8.438   8.012 -1.0636  0.8708  0.0722
  260MOL0     C34978   9.826   8.392   8.151 -0.2562  0.5308  0.4508
  260MOL0     C34979   9.959   8.309   8.141 -0.5102 -0.7583  0.0668
  260MOL0     C34980  10.027   8.288   8.273  0.5336 -0.1500 -0.3675
  260MOL0     C34981   9.968   8.169   8.355  0.8091 -0.0698  0.6110
  260MOL0     N34982   9.957   8.043   8.275  0.2992  0.1433  0.4386
  260MOL0     C34983   9.837   7.977   8.252  0.7923 -0.8347 -0.4912
  260MOL0     C34984   9.869   7.859   8.186  0.6915 -0.0776  0.3799
  260MOL0     C34985   9.766   7.762   8.129  0.0697 -0.0416 -0.0159
  260MOL0     C34986   9.787   7.751   7.976 -0.6717  0.6430 -0.2068
  260MOL0     C34987   9.703   7.635   7.915 -0.3673 -0.0299 -0.3062
  260MOL0     C34988   9.682   7.653   7.773 -0.7425  0.5737 -0.1852
  260MOL0     O34989   9.634   7.524   7.717  0.2763  0.1099 -0.4552
  260MOL0     C34990   9.497   7.502   7.708 -0.4514  0.6024  0.0178
  260MOL0     C34991   9.393   7.575   7.764  0.0259 -0.7586  0.4157
  260MOL0     C34992   9.264   7.531   7.756  0.0749  0.6722 -0.3230
  260MOL0     C34993   9.221   7.414   7.692 -1.0832 -0.1891 -0.4291
  260MOL0     C34994   9.083   7.363   7.675 -0.8196 -1.1080  0.1441
  260MOL0     O34995   9.057   7.249   7.600 -0.4597  0.2105  0.2129
  260MOL0     C34996   8.925   7.229   7.565 -0.0620 -0.7797  0.2150
  260MOL0     C34997   8.875   7.281   7.447 -0.4818  0.0853  1.2653
  260MOL0     C34998   8.745   7.262   7.400 -0.0224 -0.5548 -0.6288
  260MOL0     C34999   8.654   7.198   7.485  1.0995  0.0955 -0.5063
  260MOL0     O35000   8.528   7.182   7.447  0.0726  0.9783 -0.5074
  260MOL0     C35001   8.427   7.186   7.557 -0.4505 -0.2871  0.2845
  260MOL0     C35002   8.301   7.216   7.483  0.2377 -1.8308  0.0109
  260MOL0     C35003   8.249   7.100   7.402  0.1552  0.5254  0.1982
  260MOL0     C35004   8.118   7.124   7.327  0.1060 -0.4285 -0.3934
  260MOL0     C35005   8.006   7.150   7.425 -0.6184  0.9309  0.1609
  260MOL0     C35006   7.870   7.149   7.352  0.1491  0.3139  0.4528
  260MOL0     C35007   7.765   7.222   7.432 -0.1783  0.2559  0.4397
  260MOL0     C35008   7.618   7.203   7.379  0.1721  0.0438 -0.4131
  260MOL0    Cl35009   7.511   7.326   7.461  0.2269 -0.3623  0.2543
  260MOL0     C35010   8.705   7.143   7.606 -0.2407  0.5469  0.7808
  260MOL0     C35011   8.840   7.151   7.643 -0.4457  0.7092  0.5200
  260MOL0     O35012   8.997   7.425   7.741 -0.6351  0.3350  0.0759
  260MOL0     C35013   9.332   7.331   7.661 -0.1972  0.2939 -0.2824
  260MOL0     C35014   9.465   7.371   7.665 -0.1231 -0.6347 -0.4868
  260MOL0     N35015  10.007   7.853   8.173 -0.2310 -0.0325  0.3336
  260MOL0     N35016  10.058   7.964   8.225  0.6703 -0.0555 -0.2802
  260MOL0     C35017   9.356   8.557   7.537  0.1725  0.7081 -0.1881
  260MOL0     C35018   9.289   8.485   7.431 -0.0955  0.2239  0.6331
  260MOL0     C35019   9.271   8.254   7.015 -0.3020  0.0928 -0.6485
  260MOL0     C35020   9.163   8.319   6.964 -0.4515  0.0417  0.1922
  260MOL0     C35021   9.072   8.260   6.870 -0.3379 -0.3750  0.1324
  260MOL0     C35022   9.082   8.127   6.841  0.7192 -0.0623  0.0237
  260MOL0     O35023   8.995   8.060   6.749 -0.8861  0.2471  0.6299
  260MOL0     C35024   8.886   8.132   6.687  0.2817  0.1005 -0.6709
  260MOL0     C35025   8.789   8.027   6.616  0.1180  0.9866 -0.2769
  260MOL0     C35026   8.658   8.000   6.691  0.0801  0.0310  0.5628
  260MOL0     C35027   8.557   8.112   6.651 -0.3610  0.2650 -0.3805
  260MOL0     C35028   8.436   8.073   6.727 -0.2494  0.2101 -0.7054
  260MOL0     C35029   8.317   8.046   6.769 -0.9081  0.8594  0.7468
  260MOL0     C35030   9.185   8.049   6.896  0.5018  0.3297  0.3243
  260MOL0     C35031   9.282   8.110   6.981 -0.8711 -0.9025 -0.1610
  260MOL0     C35032   9.397   8.027   7.038 -0.1148  0.3176 -0.3633
  260MOL0     H35033   9.565   8.334   7.292 -0.9506  0.8288 -2.8486
  260MOL0     H35034   9.673   8.442   7.484  0.2677 -2.5493 -1.0030
  260MOL0     H35035   9.529   8.414   7.771 -2.8145  2.3008 -0.2762
  260MOL0     H35036   9.701   8.452   7.738 -0.9545 -3.9907  2.7929
  260MOL0     H35037   9.481   8.606   7.901 -1.9234 -2.4751  1.7752
  260MOL0     H35038   9.656   8.655   7.899 -0.8161 -0.2466 -3.9006
  260MOL0     H35039   9.560   8.399   8.021 -1.1887 -0.4034  3.2465
  260MOL0     H35040   9.618   8.536   8.112 -2.6710  1.1818 -0.0813
  260MOL0     H35041   9.794   8.366   7.932 -1.6617 -0.4967  1.1157
  260MOL0     H35042   9.843   8.521   7.993  2.5591 -2.2533 -2.0022
  260MOL0     H35043   9.834   8.488   8.203 -0.8653  0.5225  0.5665
  260MOL0     H35044   9.747   8.336   8.202 -2.3116  3.0574  0.2815
  260MOL0     H35045   9.936   8.219   8.083  0.7993 -0.6825 -0.6084
  260MOL0     H35046  10.032   8.364   8.081  1.2192 -2.5278  0.4491
  260MOL0     H35047  10.005   8.382   8.326 -1.1883 -1.5026  1.4740
  260MOL0     H35048  10.135   8.286   8.259  0.5403  1.2388 -0.6778
  260MOL0     H35049  10.026   8.156   8.447 -0.9180  0.9744  1.9272
  260MOL0     H35050   9.867   8.194   8.390  0.6398  1.3751 -0.7894
  260MOL0     H35051   9.739   8.010   8.284  1.4392  2.0812 -1.2864
  260MOL0     H35052   9.782   7.669   8.184  2.3495  0.6324  0.5577
  260MOL0     H35053   9.666   7.802   8.149 -0.6469 -0.7714 -1.9178
  260MOL0     H35054   9.774   7.850   7.931  2.0239  0.5343 -1.3663
  260MOL0     H35055   9.891   7.720   7.972 -1.8780 -4.8720  1.8150
  260MOL0     H35056   9.602   7.639   7.957 -1.1406 -2.5598 -1.7109
  260MOL0     H35057   9.755   7.539   7.926  0.7151  0.7130  1.6010
  260MOL0     H35058   9.783   7.659   7.732  0.1468  0.7390  1.9259
  260MOL0     H35059   9.617   7.734   7.738 -1.7456 -0.0726  0.1391
  260MOL0     H35060   9.408   7.671   7.811 -3.9008  1.0685 -1.5828
  260MOL0     H35061   9.186   7.588   7.804 -0.6577  0.1737 -0.9083
  260MOL0     H35062   8.941   7.345   7.389 -1.5402 -1.6488 -2.0940
  260MOL0     H35063   8.721   7.301   7.302 -0.6902 -0.8262 -0.5817
  260MOL0     H35064   8.422   7.090   7.609 -1.0039 -0.1322  0.5283
  260MOL0     H35065   8.453   7.267   7.626 -1.3211  1.0055 -0.8595
  260MOL0     H35066   8.228   7.250   7.558 -0.0511  2.4137 -1.9480
  260MOL0     H35067   8.328   7.298   7.416  2.6064 -4.9073 -3.1840
  260MOL0     H35068   8.329   7.068   7.334 -1.2205 -4.9232  0.6210
  260MOL0     H35069   8.242   7.014   7.469  1.9353 -1.6140 -2.1413
  260MOL0     H35070   8.084   7.043   7.263 -2.4218  0.1853  0.0583
  260MOL0     H35071   8.130   7.210   7.260 -0.1136  0.0303  0.1389
  260MOL0     H35072   8.024   7.249   7.467 -3.6926  1.8638 -0.5293
  260MOL0     H35073   8.004   7.076   7.506  0.0206  0.7457  0.0150
  260MOL0     H35074   7.873   7.190   7.251  1.4247 -0.2148  0.2711
  260MOL0     H35075   7.839   7.045   7.340 -1.4887  0.6937  1.0115
  260MOL0     H35076   7.793   7.326   7.412  0.3173  0.0802  0.2056
  260MOL0     H35077   7.771   7.194   7.537  3.0910 -2.2803 -0.2526
  260MOL0     H35078   7.613   7.216   7.271  0.0671 -0.2039 -0.4406
  260MOL0     H35079   7.568   7.106   7.394 -0.5035 -0.3149 -4.0526
  260MOL0     H35080   8.635   7.095   7.673  0.2384  1.3713  1.9044
  260MOL0     H35081   8.868   7.101   7.735 -1.0296 -4.2734 -1.6384
  260MOL0     H35082   9.312   7.224   7.653  1.3425  0.1277 -5.0132
  260MOL0     H35083   9.543   7.300   7.638 -1.6114 -3.0905  1.2629
  260MOL0     H35084   9.287   8.624   7.587  1.1394  0.9662  0.8399
  260MOL0     H35085   9.182   8.472   7.418  0.1714 -2.8061  0.5353
  260MOL0     H35086   9.146   8.421   6.997 -0.1853  0.2924 -0.4277
  260MOL0     H35087   8.995   8.332   6.841 -0.1511 -0.9752 -2.0449
  260MOL0     H35088   8.924   8.200   6.610 -3.2508  2.1784 -0.8455
  260MOL0     H35089   8.820   8.177   6.761  0.4005 -1.3649  0.3637
  260MOL0     H35090   8.840   7.931   6.612 -0.5289  0.6914 -2.5626
  260MOL0     H35091   8.764   8.061   6.515  0.5616  3.0154  0.2483
  260MOL0     H35092   8.681   8.001   6.798  0.4915 -1.6684  0.5243
  260MOL0     H35093   8.621   7.902   6.661 -0.9678  0.7618 -0.6208
  260MOL0     H35094   8.598   8.211   6.675  1.1030  0.4838 -3.3644
  260MOL0     H35095   8.532   8.108   6.545  0.4575  2.7629 -0.7345
  260MOL0     H35096   8.226   8.010   6.811  0.3049 -1.1567  1.8246
  260MOL0     H35097   9.189   7.943   6.875  0.9323  0.7064 -1.6455
  260MOL0     H35098   9.380   7.992   7.141  0.3590  2.0785  0.3541
  260MOL0     H35099   9.426   7.943   6.974  1.6288  2.0637 -1.9624
  260MOL0     H35100   9.482   8.095   7.040 -1.0912  1.5738 -0.4585
  261MOL0     O35101   1.405   9.543   6.475 -0.2105 -0.5640 -0.4251
  261MOL0     C35102   1.475   9.440   6.486 -0.0717  0.6844  0.2842
  261MOL0     O35103   1.437   9.312   6.486  0.2675 -0.8230 -0.6321
  261MOL0     C35104   1.314   9.265   6.459  0.2903  0.0116  0.9113
  261MOL0     C35105   1.286   9.133   6.507  0.1679  0.4272 -0.0507
  261MOL0     C35106   1.164   9.073   6.470  0.3445  0.0308 -0.8407
  261MOL0     C35107   1.064   9.136   6.390  0.0514 -0.5483  0.3902
  261MOL0     O35108   0.936   9.084   6.360 -0.4081 -0.6498  0.5833
  261MOL0     C35109   0.901   8.942   6.374  0.4385 -0.2526  1.2372
  261MOL0     C35110   0.746   8.927   6.405 -0.2551  0.4541 -0.3321
  261MOL0     C35111   0.714   8.777   6.400  1.0868 -0.5787 -0.6728
  261MOL0     C35112   0.563   8.773   6.434 -0.2144 -0.9591 -0.3913
  261MOL0     C35113   0.484   8.655   6.371  1.5370 -0.4968  0.4336
  261MOL0     C35114   0.465   8.686   6.213  0.8038 -0.0469  0.3451
  261MOL0     C35115   0.390   8.564   6.152 -0.3871  0.3025 -0.0318
  261MOL0     C35116   0.484   8.480   6.066  0.2912  0.6741 -0.1283
  261MOL0     N35117   0.588   8.423   6.144  0.4991  1.0991  0.4876
  261MOL0     C35118   0.712   8.484   6.162 -0.0710  0.1647 -0.8079
  261MOL0     C35119   0.768   8.410   6.266  0.8847  0.5179  0.1930
  261MOL0     C35120   0.906   8.433   6.317 -0.3281 -0.5246 -0.3887
  261MOL0     C35121   1.021   8.443   6.209 -0.1665  0.0697 -0.6564
  261MOL0     C35122   1.156   8.410   6.266 -0.1370  0.4319  0.8396
  261MOL0     C35123   1.215   8.499   6.366 -0.5389  0.8852 -0.4566
  261MOL0     O35124   1.244   8.628   6.303  0.0738 -0.0558 -0.2922
  261MOL0     C35125   1.376   8.672   6.319  1.5115  0.1453  0.1285
  261MOL0     C35126   1.397   8.805   6.369  0.2128 -0.3740  0.1601
  261MOL0     C35127   1.539   8.841   6.381  0.6606  0.1697  0.1552
  261MOL0     C35128   1.644   8.753   6.337  0.0096 -0.5922  0.3722
  261MOL0     C35129   1.780   8.802   6.324  0.4811 -0.0899  0.3651
  261MOL0     O35130   1.788   8.937   6.336 -0.3306  0.1746  0.4768
  261MOL0     C35131   1.904   8.993   6.280  0.2273  0.2320  0.0280
  261MOL0     C35132   1.930   8.983   6.146 -0.9213  0.0240 -0.4124
  261MOL0     C35133   2.035   9.043   6.080 -0.1973  0.2834 -0.2310
  261MOL0     C35134   2.118   9.122   6.154 -0.0044 -1.0551 -0.5669
  261MOL0     O35135   2.231   9.174   6.095  0.3156 -0.1295 -0.1351
  261MOL0     C35136   2.349   9.107   6.110 -0.8998 -0.4006  0.0250
  261MOL0     C35137   2.440   9.114   5.989 -1.0004 -1.0482  0.0026
  261MOL0     C35138   2.476   9.254   5.949 -0.1927  0.0885  0.0395
  261MOL0     C35139   2.519   9.349   6.066 -1.0778  0.1250 -0.2383
  261MOL0     C35140   2.641   9.304   6.146 -0.9020 -0.7901  0.8879
  261MOL0     C35141   2.707   9.411   6.226  0.2679 -0.7221 -0.2428
  261MOL0     C35142   2.807   9.487   6.150  0.6535  0.5131 -0.3336
  261MOL0     C35143   2.851   9.618   6.211 -0.9061 -0.3496  0.1205
  261MOL0    Cl35144   2.717   9.746   6.211  0.4904 -0.2422  0.2501
  261MOL0     C35145   2.100   9.135   6.290  0.0802 -0.6560  0.5766
  261MOL0     C35146   1.995   9.065   6.358  0.2355  0.5231 -0.6737
  261MOL0     O35147   1.872   8.721   6.299  0.3259  0.1626 -0.1013
  261MOL0     C35148   1.611   8.629   6.292 -0.0044  0.4788  0.4202
  261MOL0     C35149   1.483   8.595   6.274 -0.5955 -0.5378 -0.4149
  261MOL0     N35150   0.679   8.315   6.311 -0.4570 -0.2079  0.2327
  261MOL0     N35151   0.569   8.330   6.239  0.3774  0.2013  0.4701
  261MOL0     C35152   1.097   9.271   6.349 -0.8370 -0.7052 -0.0204
  261MOL0     C35153   1.213   9.340   6.384 -0.9809 -0.1185 -0.0669
  261MOL0     C35154   1.615   9.465   6.527 -0.5542 -0.2193 -0.2725
  261MOL0     C35155   1.652   9.575   6.608  0.0527 -0.6384 -0.1234
  261MOL0     C35156   1.777   9.592   6.651  0.1920 -0.8440 -0.5675
  261MOL0     C35157   1.878   9.517   6.599 -0.4533 -0.0533 -0.0817
  261MOL0     O35158   2.012   9.536   6.620  0.0453  0.4680  0.2720
  261MOL0     C35159   2.063   9.649   6.684 -0.7319 -0.1331 -0.5559
  261MOL0     C35160   2.216   9.645   6.690 -0.4468  0.0949 -0.3817
  261MOL0     C35161   2.265   9.531   6.782  0.2287  0.3279  0.2026
  261MOL0     C35162   2.413   9.544   6.805  0.3712  0.6254  0.2352
  261MOL0     C35163   2.486   9.545   6.675 -0.5667 -0.0846 -0.6502
  261MOL0     C35164   2.536   9.515   6.569 -0.2327 -0.0909 -0.2456
  261MOL0     C35165   1.850   9.409   6.514 -0.6006  0.6492  0.0401
  261MOL0     C35166   1.717   9.377   6.482  0.6079  0.2547 -0.6805
  261MOL0     C35167   1.700   9.254   6.402 -0.2974  0.1579  1.2875
  261MOL0     H35168   1.371   9.088   6.558 -1.7319 -1.7994  1.3385
  261MOL0     H35169   1.143   8.974   6.511 -1.4175  0.8918  0.4896
  261MOL0     H35170   0.919   8.884   6.283 -0.6659 -1.1488  1.5665
  261MOL0     H35171   0.963   8.890   6.446  0.9888 -0.3703  0.6835
  261MOL0     H35172   0.682   8.973   6.329 -2.2769 -0.7186  0.5710
  261MOL0     H35173   0.718   8.966   6.504 -0.5944 -1.9462  0.5723
  261MOL0     H35174   0.764   8.711   6.472 -0.1929 -1.6527 -0.7232
  261MOL0     H35175   0.736   8.729   6.304 -0.5747 -3.9099  0.4549
  261MOL0     H35176   0.547   8.772   6.542  1.8473 -2.7652 -0.0402
  261MOL0     H35177   0.515   8.866   6.402  1.7917  1.4381  2.9420
  261MOL0     H35178   0.539   8.561   6.383  4.2861  0.5845 -2.3792
  261MOL0     H35179   0.387   8.649   6.421  0.6304  0.8747 -1.0588
  261MOL0     H35180   0.395   8.768   6.194 -0.1203 -1.2339 -1.7207
  261MOL0     H35181   0.560   8.698   6.161  0.6591 -3.3783 -0.9272
  261MOL0     H35182   0.312   8.608   6.090  1.4903  3.1647 -0.5564
  261MOL0     H35183   0.350   8.509   6.238  3.5891  1.0418  2.6071
  261MOL0     H35184   0.422   8.408   6.012 -0.0406  0.8333  0.0427
  261MOL0     H35185   0.541   8.539   5.994  2.4724  1.8464  2.3845
  261MOL0     H35186   0.755   8.576   6.125  0.9601 -0.0207 -0.1350
  261MOL0     H35187   0.904   8.519   6.384 -0.6970  0.0243 -1.0875
  261MOL0     H35188   0.920   8.341   6.375  0.4124 -1.4903 -1.9984
  261MOL0     H35189   0.986   8.373   6.132 -0.1704  0.4714 -1.0221
  261MOL0     H35190   1.029   8.546   6.175  0.5255  1.7607  3.8837
  261MOL0     H35191   1.228   8.408   6.183 -0.1416  2.9782  0.7004
  261MOL0     H35192   1.149   8.313   6.316  1.1414 -0.2245 -0.2053
  261MOL0     H35193   1.306   8.450   6.401  0.9431  2.3118 -2.1376
  261MOL0     H35194   1.143   8.517   6.447  0.3671 -0.8682  0.8255
  261MOL0     H35195   1.311   8.869   6.383 -1.5000 -1.8328 -2.8105
  261MOL0     H35196   1.562   8.940   6.418  0.9645 -0.0473  0.5516
  261MOL0     H35197   1.856   8.925   6.090  0.9934 -1.8751 -1.1139
  261MOL0     H35198   2.033   9.035   5.972 -0.8239 -1.2806 -0.1299
  261MOL0     H35199   2.404   9.138   6.200 -2.3913  0.3511  0.7061
  261MOL0     H35200   2.322   9.002   6.128 -0.6146 -0.1617  2.1846
  261MOL0     H35201   2.530   9.053   5.993  0.0698  0.4557 -0.3178
  261MOL0     H35202   2.377   9.064   5.915 -2.3673 -0.8382  0.9936
  261MOL0     H35203   2.568   9.250   5.891  1.8966  0.1127  3.1331
  261MOL0     H35204   2.399   9.292   5.881  0.4889 -1.6292 -1.7946
  261MOL0     H35205   2.432   9.378   6.125 -1.8509  1.4987 -1.9712
  261MOL0     H35206   2.542   9.445   6.017 -0.7438 -1.2888 -3.0328
  261MOL0     H35207   2.710   9.253   6.077  1.0394  2.6967  0.0001
  261MOL0     H35208   2.609   9.225   6.215  1.2645 -3.2547 -0.7006
  261MOL0     H35209   2.630   9.484   6.253 -0.7371 -1.3415 -1.3824
  261MOL0     H35210   2.749   9.355   6.310 -1.2503  0.5860  1.4763
  261MOL0     H35211   2.771   9.517   6.051 -0.8693 -1.3426 -0.3771
  261MOL0     H35212   2.890   9.418   6.132  1.8745  2.3311 -2.2806
  261MOL0     H35213   2.902   9.605   6.307 -0.1551 -2.3601 -0.5001
  261MOL0     H35214   2.925   9.672   6.152  1.2145 -0.2992  2.6557
  261MOL0     H35215   2.169   9.202   6.339  0.4858  0.0103 -0.8514
  261MOL0     H35216   1.980   9.049   6.465  1.1040 -5.1438 -1.0590
  261MOL0     H35217   1.684   8.552   6.267  1.0682  1.8161 -0.7314
  261MOL0     H35218   1.472   8.497   6.230 -1.4387 -0.7659  0.2920
  261MOL0     H35219   1.019   9.317   6.289 -1.9583 -0.9070  1.2347
  261MOL0     H35220   1.245   9.438   6.348  0.3903 -1.0710 -1.6076
  261MOL0     H35221   1.588   9.647   6.658  2.0516  0.0409  1.6359
  261MOL0     H35222   1.811   9.664   6.724  1.3180 -3.4011  1.5950
  261MOL0     H35223   2.029   9.652   6.788 -1.1739 -0.0391 -0.7012
  261MOL0     H35224   2.029   9.741   6.635 -0.8264 -0.5425 -1.2790
  261MOL0     H35225   2.262   9.737   6.727  1.1528 -1.4301  1.7086
  261MOL0     H35226   2.272   9.628   6.597  0.9464 -2.3618  0.8215
  261MOL0     H35227   2.237   9.436   6.734  0.4175  1.4600 -2.3187
  261MOL0     H35228   2.211   9.525   6.877 -1.3287 -0.6774 -0.6872
  261MOL0     H35229   2.436   9.634   6.864 -2.0768  1.9114 -0.6032
  261MOL0     H35230   2.436   9.459   6.869 -2.5362 -0.4562 -0.0189
  261MOL0     H35231   2.589   9.495   6.478  0.3148  4.1777 -1.0932
  261MOL0     H35232   1.932   9.354   6.470  0.4398  0.8615  1.6350
  261MOL0     H35233   1.610   9.263   6.340  0.9227  3.0983 -0.2788
  261MOL0     H35234   1.783   9.239   6.332 -3.4692  3.9272 -4.0796
  261MOL0     H35235   1.692   9.165   6.465  0.4610 -1.3878 -0.7067
  262MOL0     O35236   6.836   3.714   8.924  0.0600  0.6722  0.6590
  262MOL0     C35237   6.775   3.727   8.818  0.8417 -0.2401 -0.1136
  262MOL0     O35238   6.786   3.830   8.730  0.1902  0.4679  0.0891
  262MOL0     C35239   6.898   3.907   8.746 -0.7622 -0.0904 -0.2691
  262MOL0     C35240   6.895   4.025   8.827  0.2491 -0.0626 -0.4166
  262MOL0     C35241   7.009   4.112   8.821  0.5550  0.3512 -0.5410
  262MOL0     C35242   7.115   4.092   8.736  0.4878  0.2704 -0.4695
  262MOL0     O35243   7.213   4.183   8.743 -0.3206  0.0474 -0.1327
  262MOL0     C35244   7.293   4.189   8.628 -0.2528  0.5302  0.0370
  262MOL0     C35245   7.380   4.308   8.620 -0.1304  0.1205 -0.4425
  262MOL0     C35246   7.443   4.333   8.479  0.2963  0.1965 -0.5390
  262MOL0     C35247   7.530   4.221   8.426 -0.0109 -0.2853 -0.1627
  262MOL0     C35248   7.671   4.234   8.484  0.6581 -0.4098 -0.3362
  262MOL0     C35249   7.751   4.349   8.420  0.5470  0.3471  0.8658
  262MOL0     C35250   7.903   4.350   8.457 -0.5854  0.1528 -0.1580
  262MOL0     C35251   7.976   4.263   8.363 -0.0330 -1.0806 -0.2918
  262MOL0     N35252   8.119   4.269   8.395 -0.4986 -0.0360  0.1157
  262MOL0     C35253   8.201   4.340   8.310 -0.3292  0.2403 -0.0913
  262MOL0     C35254   8.325   4.301   8.340  0.1632  0.5493  0.8268
  262MOL0     C35255   8.455   4.340   8.270  0.1518 -0.0889 -0.2514
  262MOL0     C35256   8.430   4.464   8.182  0.3679 -0.5182 -0.6972
  262MOL0     C35257   8.542   4.491   8.083 -0.3214  0.0635  0.4452
  262MOL0     C35258   8.535   4.629   8.013  0.0994  1.1123  0.8780
  262MOL0     O35259   8.562   4.748   8.089  0.5447  0.3876 -0.0801
  262MOL0     C35260   8.686   4.778   8.113 -0.0474  0.3994 -1.8302
  262MOL0     C35261   8.800   4.703   8.088 -0.3592 -0.1503 -0.0804
  262MOL0     C35262   8.934   4.741   8.133  1.5232 -0.9482 -0.3027
  262MOL0     C35263   8.936   4.870   8.198 -0.3854  0.4378 -0.7214
  262MOL0     C35264   9.063   4.931   8.263  0.5459 -0.5234  0.1069
  262MOL0     O35265   9.049   5.029   8.355  0.5005 -0.3129 -0.3411
  262MOL0     C35266   9.164   5.086   8.405 -0.6523  0.5693  0.0283
  262MOL0     C35267   9.245   5.018   8.491  0.0789  0.6890  0.2407
  262MOL0     C35268   9.373   5.064   8.533  0.8646 -0.0105  0.2806
  262MOL0     C35269   9.404   5.200   8.512  0.3209  0.2174 -0.9660
  262MOL0     O35270   9.526   5.238   8.562 -1.1193 -0.8922 -0.0958
  262MOL0     C35271   9.579   5.369   8.523  0.2442  0.0331  0.2951
  262MOL0     C35272   9.719   5.381   8.598 -0.2270  0.1626  0.3721
  262MOL0     C35273   9.830   5.418   8.499 -0.2361  0.7676  0.1343
  262MOL0     C35274   9.972   5.414   8.552 -0.5944 -0.6404  0.0074
  262MOL0     C35275  10.073   5.409   8.429  0.3674 -0.3332 -0.4664
  262MOL0     C35276  10.214   5.419   8.474  0.2097 -0.3735  0.7911
  262MOL0     C35277  10.234   5.565   8.510 -0.2576  1.0784  0.7169
  262MOL0     C35278  10.378   5.599   8.492  0.2535 -0.8725  0.1996
  262MOL0    Cl35279  10.477   5.496   8.612  0.0943 -0.1090  0.3343
  262MOL0     C35280   9.314   5.274   8.430  0.3817 -0.6887 -0.6811
  262MOL0     C35281   9.196   5.216   8.381 -0.3545 -0.3438 -0.3300
  262MOL0     O35282   9.163   4.884   8.217  0.1540  0.2064  0.2879
  262MOL0     C35283   8.818   4.940   8.225 -0.0533 -0.2296 -0.4324
  262MOL0     C35284   8.694   4.898   8.188 -0.3904 -0.0419  0.0480
  262MOL0     N35285   8.311   4.206   8.440 -0.0690 -0.7943 -0.5038
  262MOL0     N35286   8.188   4.180   8.465 -0.1617  0.3846  0.3047
  262MOL0     C35287   7.110   3.976   8.652  0.0378  0.0429 -0.0096
  262MOL0     C35288   7.003   3.889   8.658  0.3515 -0.3016 -0.3484
  262MOL0     C35289   6.668   3.630   8.801  0.2484 -0.0737  0.3319
  262MOL0     C35290   6.629   3.544   8.903  0.5632 -1.0088 -0.0115
  262MOL0     C35291   6.537   3.447   8.890  0.4414 -0.5171  0.2636
  262MOL0     C35292   6.474   3.423   8.767  0.0280  0.3718 -1.1137
  262MOL0     O35293   6.383   3.322   8.744  0.1234 -0.2071  0.1438
  262MOL0     C35294   6.347   3.232   8.845  0.6596 -0.1039 -1.2534
  262MOL0     C35295   6.251   3.119   8.794 -0.2850 -0.0311 -0.2242
  262MOL0     C35296   6.232   3.023   8.911 -0.2918  0.3334  0.3525
  262MOL0     C35297   6.132   2.915   8.883 -0.1618 -0.3680  0.1377
  262MOL0     C35298   5.991   2.947   8.915  0.1944  0.2277 -0.6152
  262MOL0     C35299   5.874   2.958   8.936 -0.6863  0.1543 -0.2522
  262MOL0     C35300   6.520   3.492   8.656  0.1183  0.1264  0.3841
  262MOL0     C35301   6.609   3.602   8.670  0.5694 -0.9247  0.1748
  262MOL0     C35302   6.643   3.679   8.541  0.2466 -0.3156  0.0188
  262MOL0     H35303   6.805   4.027   8.889 -0.1125 -5.3580 -0.3227
  262MOL0     H35304   7.023   4.198   8.886  1.7178  0.8633 -1.4465
  262MOL0     H35305   7.356   4.100   8.622  0.4209  0.9006  1.2823
  262MOL0     H35306   7.238   4.207   8.536  0.3871 -0.9228 -0.6686
  262MOL0     H35307   7.461   4.305   8.694  2.4747 -1.2845 -3.1194
  262MOL0     H35308   7.314   4.390   8.650  1.5400  0.7350  1.8985
  262MOL0     H35309   7.504   4.423   8.488 -0.3349  0.4375  3.2112
  262MOL0     H35310   7.365   4.342   8.404  2.3546 -1.8967 -3.1531
  262MOL0     H35311   7.473   4.132   8.453 -3.5462  2.3833  2.0692
  262MOL0     H35312   7.525   4.222   8.317  0.1296 -2.3446 -0.2180
  262MOL0     H35313   7.669   4.265   8.589 -0.1036 -0.0529 -0.4518
  262MOL0     H35314   7.737   4.147   8.483 -1.2125 -1.8970  0.1785
  262MOL0     H35315   7.730   4.347   8.313 -0.9218  1.0601  1.1147
  262MOL0     H35316   7.717   4.452   8.435 -1.5948  0.7061 -4.3970
  262MOL0     H35317   7.921   4.307   8.556  2.5916  0.0011 -0.6826
  262MOL0     H35318   7.937   4.453   8.447  1.3189 -0.2725  1.2422
  262MOL0     H35319   7.941   4.161   8.377  2.7217 -2.1512 -0.7102
  262MOL0     H35320   7.950   4.297   8.262 -1.6721 -0.0880  0.4197
  262MOL0     H35321   8.168   4.407   8.231 -2.8546  0.7454  1.2714
  262MOL0     H35322   8.535   4.369   8.339  1.1500 -0.8882 -1.0498
  262MOL0     H35323   8.495   4.267   8.200 -0.1443 -2.3413  1.8137
  262MOL0     H35324   8.341   4.460   8.117 -0.4563  2.3279  0.0767
  262MOL0     H35325   8.420   4.550   8.249 -0.0324  1.1600 -2.7636
  262MOL0     H35326   8.525   4.415   8.006  3.6250 -0.7846  0.1575
  262MOL0     H35327   8.641   4.482   8.130  1.0466  2.3767 -1.7662
  262MOL0     H35328   8.440   4.644   7.960  1.0209 -0.9681 -1.5868
  262MOL0     H35329   8.610   4.628   7.933  0.6637 -2.6487  1.2839
  262MOL0     H35330   8.788   4.606   8.040 -0.0304  1.3592 -3.4338
  262MOL0     H35331   9.025   4.683   8.122  1.3295 -1.1242 -1.0873
  262MOL0     H35332   9.226   4.911   8.501  0.7045  0.7000  1.8631
  262MOL0     H35333   9.437   4.990   8.580 -0.4749 -2.6494 -1.7928
  262MOL0     H35334   9.600   5.379   8.416  0.6517 -1.6358  0.1967
  262MOL0     H35335   9.518   5.456   8.550  0.7644  0.4319  0.2085
  262MOL0     H35336   9.708   5.455   8.677 -0.4785  0.1775  0.3247
  262MOL0     H35337   9.746   5.290   8.652  2.6137 -0.4498 -1.8533
  262MOL0     H35338   9.821   5.338   8.425 -4.2331  0.3425  0.8314
  262MOL0     H35339   9.813   5.506   8.436 -1.0577  1.7559  1.6707
  262MOL0     H35340   9.989   5.340   8.631  0.8297 -1.7156 -1.2465
  262MOL0     H35341   9.992   5.510   8.601  0.6209 -0.4536 -0.8116
  262MOL0     H35342  10.051   5.479   8.349 -1.2724 -0.5555 -0.2419
  262MOL0     H35343  10.065   5.309   8.384 -0.0449 -1.5434  2.0985
  262MOL0     H35344  10.220   5.362   8.567 -1.4098  0.6194  1.5545
  262MOL0     H35345  10.285   5.383   8.399  0.3072  1.0302  0.1714
  262MOL0     H35346  10.201   5.573   8.614  0.4469 -1.8785  1.2686
  262MOL0     H35347  10.181   5.636   8.447  0.3959 -1.1208 -2.6005
  262MOL0     H35348  10.399   5.578   8.387 -2.8950 -0.8799 -0.5225
  262MOL0     H35349  10.405   5.703   8.512 -0.5395 -0.6070 -0.0736
  262MOL0     H35350   9.331   5.376   8.398 -1.2758 -0.3570 -0.5698
  262MOL0     H35351   9.125   5.271   8.321 -1.7108  0.0302  1.5099
  262MOL0     H35352   8.827   5.040   8.265  3.6725  0.0075 -1.4969
  262MOL0     H35353   8.601   4.950   8.206 -0.1248  0.1536  0.9007
  262MOL0     H35354   7.189   3.955   8.580  3.2650  3.6403  2.0898
  262MOL0     H35355   7.006   3.798   8.599 -1.1322 -1.6710  1.5652
  262MOL0     H35356   6.656   3.560   9.007 -1.2911 -1.1199  0.5255
  262MOL0     H35357   6.497   3.393   8.976 -0.7112  1.1985  0.8709
  262MOL0     H35358   6.297   3.288   8.925 -2.7534 -2.1533 -1.7564
  262MOL0     H35359   6.430   3.182   8.894 -0.7458 -1.4619 -0.1616
  262MOL0     H35360   6.292   3.071   8.704 -0.6918 -1.3225  0.2523
  262MOL0     H35361   6.153   3.162   8.771  0.0864  0.7664 -0.3554
  262MOL0     H35362   6.211   3.073   9.006  0.1427  0.8356  0.1861
  262MOL0     H35363   6.324   2.965   8.916 -0.4297  0.0881  0.1080
  262MOL0     H35364   6.137   2.887   8.778  0.3719 -0.8881  0.2925
  262MOL0     H35365   6.160   2.829   8.945  0.0363  0.3446  1.0548
  262MOL0     H35366   5.774   2.985   8.963 -0.5659  1.1826 -0.7724
  262MOL0     H35367   6.468   3.462   8.566 -1.1762 -1.2459  1.5255
  262MOL0     H35368   6.586   3.770   8.523  0.5411 -0.0679  0.3386
  262MOL0     H35369   6.751   3.697   8.538  0.0254  0.9677 -0.9934
  262MOL0     H35370   6.621   3.619   8.451 -1.6363  0.9652 -0.4201
  263MOL0     O35371   3.613   8.235   2.454 -0.6515 -0.3136  0.4172
  263MOL0     C35372   3.562   8.136   2.506 -0.5502  1.0560 -0.5640
  263MOL0     O35373   3.637   8.037   2.551  0.1060  0.5907 -0.2580
  263MOL0     C35374   3.767   8.066   2.578  0.3455  0.0852 -0.5164
  263MOL0     C35375   3.865   7.993   2.509  0.4241 -0.0601 -0.5071
  263MOL0     C35376   3.998   8.010   2.544  0.2590  0.5508 -0.1180
  263MOL0     C35377   4.033   8.125   2.626  0.1991 -0.8205 -0.9913
  263MOL0     O35378   4.159   8.161   2.652 -0.0640 -0.1152  0.2071
  263MOL0     C35379   4.256   8.134   2.551 -0.4178  1.4672  0.2698
  263MOL0     C35380   4.364   8.239   2.556  0.1174 -0.2438  1.0303
  263MOL0     C35381   4.464   8.232   2.443 -0.5707 -0.0946 -0.0103
  263MOL0     C35382   4.584   8.323   2.486  0.0311  0.6359 -0.2994
  263MOL0     C35383   4.700   8.294   2.392  0.0645  0.9088  0.7037
  263MOL0     C35384   4.826   8.371   2.422 -0.5606 -0.0089 -1.5303
  263MOL0     C35385   4.936   8.341   2.321  0.4686  0.8704 -0.1472
  263MOL0     C35386   5.062   8.411   2.351 -0.5116  1.5830  1.0109
  263MOL0     N35387   5.154   8.368   2.249  1.1064  0.2408 -0.3410
  263MOL0     C35388   5.264   8.296   2.271 -0.4815  0.5521 -0.6733
  263MOL0     C35389   5.309   8.251   2.149 -0.7694  0.3927  0.2357
  263MOL0     C35390   5.419   8.148   2.140 -0.0597  0.0299 -0.6756
  263MOL0     C35391   5.557   8.217   2.123  0.6900  0.3410 -0.1361
  263MOL0     C35392   5.662   8.109   2.100  0.6340 -0.2892  0.0190
  263MOL0     C35393   5.808   8.144   2.124  0.2078  0.1413  0.0496
  263MOL0     O35394   5.886   8.023   2.152  0.0793 -0.7066 -0.1418
  263MOL0     C35395   6.025   8.024   2.165  1.3483 -0.3484 -0.1832
  263MOL0     C35396   6.077   7.920   2.237 -0.1730 -0.4989  0.1800
  263MOL0     C35397   6.213   7.907   2.254  0.0619 -0.2335 -0.2146
  263MOL0     C35398   6.303   8.006   2.195  1.0030  1.2856 -0.5386
  263MOL0     C35399   6.452   7.994   2.218  0.0159 -0.3504  0.6570
  263MOL0     O35400   6.488   7.908   2.319 -0.5042  0.4413 -0.8949
  263MOL0     C35401   6.615   7.915   2.365  1.0242  0.0396 -0.0893
  263MOL0     C35402   6.670   7.793   2.405  0.1433 -0.2191 -0.3428
  263MOL0     C35403   6.799   7.794   2.475  0.0722  0.1114  0.0454
  263MOL0     C35404   6.862   7.912   2.494 -0.8200 -0.1623 -0.8878
  263MOL0     O35405   6.977   7.911   2.581  0.8088  0.7594 -0.5431
  263MOL0     C35406   7.103   7.921   2.513 -0.5831 -0.0175  0.0669
  263MOL0     C35407   7.188   8.020   2.597 -0.1986  0.6843  0.0089
  263MOL0     C35408   7.271   7.964   2.712 -0.3112 -0.0230 -0.2444
  263MOL0     C35409   7.225   8.022   2.850  0.4786  0.1312  0.1947
  263MOL0     C35410   7.302   7.968   2.973 -0.2298 -0.3773 -0.1154
  263MOL0     C35411   7.447   7.974   2.966  0.6583 -0.2101 -0.9473
  263MOL0     C35412   7.493   7.955   3.112  0.3824 -0.4513  0.2382
  263MOL0     C35413   7.637   7.948   3.138 -0.6828  0.6515  0.8639
  263MOL0    Cl35414   7.717   8.099   3.084 -0.5740 -0.6391 -0.0870
  263MOL0     C35415   6.817   8.035   2.455  0.0646 -0.4008  0.0931
  263MOL0     C35416   6.687   8.033   2.396  0.7255  0.3333  1.4230
  263MOL0     O35417   6.527   8.065   2.151 -0.1398  0.4349 -0.1988
  263MOL0     C35418   6.244   8.116   2.133 -0.1980 -0.6682 -0.1930
  263MOL0     C35419   6.106   8.130   2.124  1.0157 -0.0309 -0.3896
  263MOL0     N35420   5.224   8.302   2.052 -0.3196  0.2963  0.3866
  263MOL0     N35421   5.144   8.382   2.111 -0.2656 -0.0544  1.0756
  263MOL0     C35422   3.937   8.184   2.706 -0.0456  0.6812 -0.2373
  263MOL0     C35423   3.803   8.156   2.679 -0.1562 -1.0075 -0.6996
  263MOL0     C35424   3.411   8.112   2.493 -0.7170 -0.8089 -0.1823
  263MOL0     C35425   3.345   8.149   2.373 -0.2458 -0.0251  0.8389
  263MOL0     C35426   3.209   8.131   2.360  0.0042 -0.0084  0.2092
  263MOL0     C35427   3.144   8.075   2.472  0.8858 -0.2947  0.2513
  263MOL0     O35428   3.013   8.048   2.468 -0.3640 -0.1386  0.2710
  263MOL0     C35429   2.918   8.159   2.500  0.1381  0.3222 -1.0970
  263MOL0     C35430   2.840   8.126   2.628  0.0988  0.0731 -0.0273
  263MOL0     C35431   2.746   8.245   2.643  0.3303 -0.6421  0.1793
  263MOL0     C35432   2.635   8.217   2.754  0.0208  0.5082  0.2972
  263MOL0     C35433   2.565   8.344   2.797  0.2545  0.9924 -0.3161
  263MOL0     C35434   2.511   8.446   2.833  0.4928 -0.5014 -0.1394
  263MOL0     C35435   3.210   8.041   2.593  0.7090 -0.0757  0.1617
  263MOL0     C35436   3.347   8.057   2.604 -0.0418  0.0634 -1.1994
  263MOL0     C35437   3.404   8.065   2.750 -0.3434  1.2910  0.1461
  263MOL0     H35438   3.828   7.915   2.443 -0.4617 -0.7626  0.7756
  263MOL0     H35439   4.064   7.941   2.494 -1.8122 -1.3066 -0.4614
  263MOL0     H35440   4.312   8.041   2.566 -0.5568  1.7196  2.7257
  263MOL0     H35441   4.205   8.135   2.454  0.7265  0.2662 -0.3765
  263MOL0     H35442   4.421   8.216   2.646  0.5759  2.2594  1.4482
  263MOL0     H35443   4.320   8.338   2.572 -0.5727  0.0333 -1.8936
  263MOL0     H35444   4.409   8.269   2.357  0.8052  1.9708 -0.0559
  263MOL0     H35445   4.486   8.127   2.420  1.0853  0.8963 -3.5033
  263MOL0     H35446   4.547   8.425   2.467 -0.2851  0.3508 -1.2631
  263MOL0     H35447   4.597   8.302   2.592 -1.2544 -2.9528 -0.7283
  263MOL0     H35448   4.724   8.188   2.403 -1.3795  0.7625  3.4673
  263MOL0     H35449   4.680   8.305   2.285 -0.9616  3.0732  1.0662
  263MOL0     H35450   4.814   8.479   2.432 -1.6466 -0.2991  0.7451
  263MOL0     H35451   4.859   8.334   2.519 -4.2756  0.4687  0.0426
  263MOL0     H35452   4.902   8.364   2.220  1.8255 -1.1803 -1.1218
  263MOL0     H35453   4.970   8.238   2.334  0.4780  1.1748  3.4564
  263MOL0     H35454   5.060   8.520   2.348 -1.4123  1.5563 -1.0757
  263MOL0     H35455   5.093   8.389   2.453  0.3348  1.7259  0.7953
  263MOL0     H35456   5.306   8.265   2.366  0.9299 -0.7776 -1.6976
  263MOL0     H35457   5.416   8.083   2.228  1.9002  1.2649  0.3831
  263MOL0     H35458   5.396   8.087   2.052  0.4417 -1.1472 -0.0121
  263MOL0     H35459   5.544   8.270   2.028 -1.6552 -0.7325 -0.4884
  263MOL0     H35460   5.577   8.294   2.198 -1.5099  1.5696 -0.7149
  263MOL0     H35461   5.662   8.067   1.999 -0.2072 -0.9974  0.3063
  263MOL0     H35462   5.651   8.021   2.163  0.9240 -1.5873 -1.6499
  263MOL0     H35463   5.812   8.215   2.208 -0.5353 -1.4915  1.5328
  263MOL0     H35464   5.840   8.192   2.031  1.0589 -1.4673 -0.5286
  263MOL0     H35465   6.008   7.845   2.276  0.3043  0.4471  3.0323
  263MOL0     H35466   6.253   7.817   2.299 -0.6194 -0.4503 -0.0269
  263MOL0     H35467   6.615   7.701   2.391 -1.8163  0.8197  0.2206
  263MOL0     H35468   6.835   7.694   2.496 -0.1717  0.4153  2.0329
  263MOL0     H35469   7.147   7.821   2.510 -1.0550 -0.1917 -1.6908
  263MOL0     H35470   7.088   7.959   2.412 -1.1199 -0.1592  0.0881
  263MOL0     H35471   7.260   8.058   2.525 -1.7152 -1.0994 -2.5908
  263MOL0     H35472   7.133   8.109   2.630 -0.1905  0.0700  1.8151
  263MOL0     H35473   7.281   7.856   2.723  1.0252  0.1665  0.5498
  263MOL0     H35474   7.373   7.998   2.694 -0.3202  0.1789  0.0836
  263MOL0     H35475   7.120   7.992   2.860  0.6290 -0.2372  0.7045
  263MOL0     H35476   7.223   8.131   2.858 -0.9959  0.1186  0.3514
  263MOL0     H35477   7.275   7.862   2.978 -2.5120 -0.0382 -2.7648
  263MOL0     H35478   7.272   8.017   3.067  1.5994 -0.3002  0.4532
  263MOL0     H35479   7.502   7.908   2.897  2.4800 -0.4228  0.6214
  263MOL0     H35480   7.471   8.071   2.921  2.9269 -1.3802 -2.4645
  263MOL0     H35481   7.445   7.868   3.157  0.1353  0.6774  2.3002
  263MOL0     H35482   7.459   8.032   3.182  0.6727 -0.3283  0.2429
  263MOL0     H35483   7.645   7.942   3.247  2.4334 -1.7753  0.6406
  263MOL0     H35484   7.684   7.863   3.088  0.9510  1.8789  0.2395
  263MOL0     H35485   6.881   8.119   2.478  1.8002 -1.6717  0.0510
  263MOL0     H35486   6.645   8.130   2.371  3.5350  1.5680  1.1691
  263MOL0     H35487   6.309   8.202   2.118  0.1462 -0.5309  1.8037
  263MOL0     H35488   6.052   8.216   2.087 -2.4819 -1.6446  0.5290
  263MOL0     H35489   3.959   8.242   2.795  2.0245 -0.0802 -0.1985
  263MOL0     H35490   3.731   8.214   2.736  0.2833  0.2109 -1.3456
  263MOL0     H35491   3.406   8.185   2.291  1.1328  1.5879  2.4747
  263MOL0     H35492   3.158   8.135   2.264  0.6509 -0.3525 -0.1542
  263MOL0     H35493   2.855   8.176   2.413  3.2063  1.1306 -3.3349
  263MOL0     H35494   2.977   8.244   2.535 -0.4038 -0.3922  1.7815
  263MOL0     H35495   2.921   8.119   2.701  0.3078  1.5852 -0.0902
  263MOL0     H35496   2.780   8.035   2.620 -2.0277  1.4638 -0.8114
  263MOL0     H35497   2.692   8.262   2.549  1.4885 -2.0410 -0.7847
  263MOL0     H35498   2.808   8.334   2.661 -1.1807  0.1359  1.9360
  263MOL0     H35499   2.563   8.145   2.714  0.5091  0.4833 -0.5519
  263MOL0     H35500   2.672   8.170   2.846  0.2162 -0.5002 -0.2740
  263MOL0     H35501   2.480   8.537   2.881 -1.7499  0.0395 -2.4111
  263MOL0     H35502   3.154   8.004   2.678 -0.4885 -2.4853 -1.5783
  263MOL0     H35503   3.495   8.004   2.748 -0.5714  0.8799 -2.6748
  263MOL0     H35504   3.436   8.165   2.781  0.0968  0.8808  1.0478
  263MOL0     H35505   3.341   8.016   2.824  0.4695 -0.5090 -0.3039
  264MOL0     O35506   9.498   5.842   5.583  0.2056  0.0536 -0.0654
  264MOL0     C35507   9.444   5.773   5.667 -0.6879 -0.1993 -0.5813
  264MOL0     O35508   9.508   5.689   5.754  0.2529  0.5488  0.3494
  264MOL0     C35509   9.643   5.662   5.759 -0.0193  0.5086 -0.2532
  264MOL0     C35510   9.732   5.686   5.656  0.8897  0.6942  0.7213
  264MOL0     C35511   9.867   5.668   5.680 -0.6169 -1.0672  0.5937
  264MOL0     C35512   9.922   5.635   5.809  0.1960 -0.8335  0.7801
  264MOL0     O35513  10.059   5.639   5.844  0.1184  0.4904  0.4588
  264MOL0     C35514  10.157   5.676   5.742  0.4341 -0.7499 -0.0430
  264MOL0     C35515  10.290   5.709   5.808 -0.6909  1.0029 -0.0061
  264MOL0     C35516  10.345   5.594   5.909 -0.4496  0.8003 -0.0769
  264MOL0     C35517  10.411   5.635   6.036 -0.2778 -0.5044 -0.2864
  264MOL0     C35518  10.428   5.512   6.120  0.5682  0.0487  0.4025
  264MOL0     C35519  10.507   5.525   6.255 -0.4219  0.7226 -0.7522
  264MOL0     C35520  10.432   5.566   6.386 -0.6355 -0.4351 -0.0338
  264MOL0     C35521  10.515   5.587   6.514 -0.3198  1.2683  1.0648
  264MOL0     N35522  10.429   5.631   6.624  0.7427  0.5155 -0.5272
  264MOL0     C35523  10.349   5.737   6.637  0.1579 -0.3933  1.0887
  264MOL0     C35524  10.275   5.714   6.756  0.1131  0.3433 -0.3673
  264MOL0     C35525  10.168   5.803   6.809  0.4644 -0.1880 -0.3772
  264MOL0     C35526  10.194   5.884   6.933 -0.6688  0.1346  0.2552
  264MOL0     C35527  10.083   5.985   6.959 -0.5857  0.3760 -1.0696
  264MOL0     C35528   9.939   5.942   6.960  0.2560  0.0630  0.8147
  264MOL0     O35529   9.857   6.014   7.049  1.2005  0.5566 -0.0151
  264MOL0     C35530   9.742   5.953   7.098  0.0495 -0.2362 -0.3365
  264MOL0     C35531   9.676   5.828   7.075  0.2193 -1.2266 -0.2118
  264MOL0     C35532   9.573   5.779   7.166  0.3856  0.2271  0.5108
  264MOL0     C35533   9.516   5.858   7.267  0.3424 -0.7063 -0.1334
  264MOL0     C35534   9.407   5.819   7.360 -0.0148 -0.5303  0.9284
  264MOL0     O35535   9.320   5.736   7.302  0.4740 -0.7976  0.6070
  264MOL0     C35536   9.216   5.675   7.358 -0.0937 -0.5912  0.3592
  264MOL0     C35537   9.109   5.661   7.276  0.3433  0.1481 -0.7457
  264MOL0     C35538   8.990   5.600   7.337 -0.2807 -0.2321  0.4733
  264MOL0     C35539   9.000   5.552   7.464 -0.3221 -0.1464  0.0262
  264MOL0     O35540   8.890   5.504   7.528 -0.6774 -0.5741  0.2728
  264MOL0     C35541   8.875   5.548   7.668 -0.0091  0.7035  0.6190
  264MOL0     C35542   8.733   5.512   7.706 -0.0994 -0.3001  0.6514
  264MOL0     C35543   8.617   5.580   7.620  0.2537 -0.3407  0.7819
  264MOL0     C35544   8.592   5.723   7.679 -0.1854 -0.5411 -0.0009
  264MOL0     C35545   8.470   5.795   7.618 -0.6322 -0.3281  0.0304
  264MOL0     C35546   8.484   5.947   7.654  0.2297 -0.5116  1.1726
  264MOL0     C35547   8.380   6.023   7.565 -0.2437  0.4099  0.1808
  264MOL0     C35548   8.238   5.971   7.571 -0.5706  0.0151  0.4679
  264MOL0    Cl35549   8.158   6.045   7.434  0.1563  0.3390 -0.2335
  264MOL0     C35550   9.114   5.556   7.533 -0.7155  0.2741  0.1981
  264MOL0     C35551   9.223   5.621   7.480  0.4618 -0.1546 -0.3803
  264MOL0     O35552   9.418   5.856   7.477  0.4826 -0.6458 -0.0148
  264MOL0     C35553   9.571   5.995   7.276 -0.3536 -0.7552  0.3782
  264MOL0     C35554   9.695   6.025   7.204  0.6987 -0.3254 -0.0532
  264MOL0     N35555  10.334   5.608   6.825 -0.2166  0.4386 -0.4034
  264MOL0     N35556  10.415   5.563   6.745 -0.7408  0.2460  0.4516
  264MOL0     C35557   9.824   5.611   5.910 -1.0205  0.7338  0.8646
  264MOL0     C35558   9.689   5.621   5.883 -0.1289 -0.6279 -0.7812
  264MOL0     C35559   9.301   5.788   5.689  0.2875  0.1911 -0.2228
  264MOL0     C35560   9.257   5.813   5.823 -0.4483  0.6825  0.8605
  264MOL0     C35561   9.124   5.835   5.855 -0.6110 -0.2229  0.0807
  264MOL0     C35562   9.025   5.831   5.760  0.4759 -0.9331 -0.4226
  264MOL0     O35563   8.894   5.867   5.792  0.4285  0.6038  0.2322
  264MOL0     C35564   8.855   5.854   5.931  0.1504  0.0528  0.1819
  264MOL0     C35565   8.711   5.837   5.917 -0.7738  0.3286 -0.1922
  264MOL0     C35566   8.669   5.794   6.051 -0.3277 -0.4012 -1.1739
  264MOL0     C35567   8.518   5.769   6.053  0.3417  0.7049 -0.0173
  264MOL0     C35568   8.481   5.645   5.987  1.1618  0.1374 -0.6060
  264MOL0     C35569   8.440   5.543   5.932 -0.0146  0.1442 -0.0444
  264MOL0     C35570   9.064   5.789   5.632  0.2644  0.2378 -0.3635
  264MOL0     C35571   9.201   5.775   5.596  0.3612 -0.2969  0.5641
  264MOL0     C35572   9.227   5.750   5.448 -0.3966 -0.7321  1.4489
  264MOL0     H35573   9.693   5.708   5.557 -0.2449 -1.8718  0.5117
  264MOL0     H35574   9.936   5.691   5.599 -1.2602  0.8355  0.5389
  264MOL0     H35575  10.166   5.588   5.679  3.0523 -0.1817 -0.5675
  264MOL0     H35576  10.128   5.758   5.676  1.3293 -0.9624 -0.7151
  264MOL0     H35577  10.302   5.807   5.855  1.6273  0.5479  0.4757
  264MOL0     H35578  10.360   5.703   5.723 -0.0788  2.0851  0.4032
  264MOL0     H35579  10.426   5.544   5.856 -0.6029  1.1595 -0.6521
  264MOL0     H35580  10.266   5.523   5.935  2.3800 -1.9394  1.7469
  264MOL0     H35581  10.505   5.683   6.008 -0.9885  1.1354  0.0049
  264MOL0     H35582  10.356   5.714   6.089 -1.7216 -0.6109 -1.5595
  264MOL0     H35583  10.322   5.489   6.138 -0.0351  2.2545 -0.1043
  264MOL0     H35584  10.469   5.431   6.059 -2.0880  0.3396 -2.0078
  264MOL0     H35585  10.530   5.421   6.277 -0.6623  0.7625 -0.3011
  264MOL0     H35586  10.597   5.579   6.224  0.4698 -0.2494  0.0797
  264MOL0     H35587  10.365   5.483   6.407  2.5068 -2.9713  0.7966
  264MOL0     H35588  10.380   5.661   6.372  0.7629  0.3255 -0.3161
  264MOL0     H35589  10.562   5.491   6.537 -0.8004 -0.0206 -2.6334
  264MOL0     H35590  10.589   5.661   6.480 -0.6436 -0.2588 -3.6397
  264MOL0     H35591  10.347   5.819   6.566  1.7873  0.2791  1.7571
  264MOL0     H35592  10.147   5.871   6.727  3.8200  1.5650  0.0320
  264MOL0     H35593  10.087   5.730   6.824  0.2137  0.2083  0.2214
  264MOL0     H35594  10.201   5.817   7.020 -3.0112 -1.1273 -0.4442
  264MOL0     H35595  10.282   5.943   6.906 -1.0213 -0.5364 -2.6155
  264MOL0     H35596  10.097   6.068   6.890 -1.9480  0.8249 -0.8546
  264MOL0     H35597  10.118   6.026   7.055  1.9982  4.2679 -3.4182
  264MOL0     H35598   9.943   5.835   6.983  0.9923  0.0030  0.4338
  264MOL0     H35599   9.915   5.955   6.854 -0.3533  0.6481  1.0185
  264MOL0     H35600   9.716   5.755   7.005  2.9271 -0.5230  0.4576
  264MOL0     H35601   9.535   5.682   7.136  2.6260 -0.5582  0.0040
  264MOL0     H35602   9.108   5.705   7.177  0.4079  2.8620  0.3688
  264MOL0     H35603   8.903   5.607   7.273  0.6129 -0.4736 -0.8175
  264MOL0     H35604   8.949   5.501   7.733  0.3655  3.8398  2.7113
  264MOL0     H35605   8.879   5.656   7.687  1.3091  0.8994 -0.6517
  264MOL0     H35606   8.724   5.404   7.689  1.4315 -0.6444  1.8133
  264MOL0     H35607   8.731   5.535   7.813 -0.8551  4.0867 -0.1358
  264MOL0     H35608   8.643   5.581   7.514  1.6649 -1.5965  1.0742
  264MOL0     H35609   8.534   5.509   7.628  0.8482 -1.7239 -3.3173
  264MOL0     H35610   8.677   5.789   7.659 -0.1174 -0.7130 -0.2866
  264MOL0     H35611   8.587   5.725   7.788  1.5876  3.1069  0.1931
  264MOL0     H35612   8.384   5.749   7.668  0.8037 -1.3811  1.6448
  264MOL0     H35613   8.456   5.794   7.510  0.8049  2.6359 -0.2884
  264MOL0     H35614   8.462   5.971   7.758  1.3542 -0.5683  1.4354
  264MOL0     H35615   8.585   5.979   7.626  1.0018 -3.3161  0.3797
  264MOL0     H35616   8.403   6.013   7.458 -5.1185 -0.4458 -1.0320
  264MOL0     H35617   8.382   6.127   7.598  2.8287 -0.0144  1.6512
  264MOL0     H35618   8.227   5.862   7.565 -1.8148 -0.0271  2.7673
  264MOL0     H35619   8.191   5.982   7.669 -1.3412 -1.3481  0.2707
  264MOL0     H35620   9.115   5.503   7.628 -2.7224 -3.6548 -1.7768
  264MOL0     H35621   9.314   5.645   7.534  0.6286  0.5990 -0.9873
  264MOL0     H35622   9.544   6.065   7.354  0.5076 -1.7415  1.5977
  264MOL0     H35623   9.746   6.117   7.230 -0.4203  0.9360 -2.0029
  264MOL0     H35624   9.859   5.583   6.009  0.1907  0.6638  0.4310
  264MOL0     H35625   9.614   5.598   5.959 -1.4604  3.0338 -0.7740
  264MOL0     H35626   9.328   5.821   5.906  0.6804 -2.1260  0.2617
  264MOL0     H35627   9.103   5.862   5.958 -0.4741 -0.3458  0.1416
  264MOL0     H35628   8.871   5.953   5.973 -0.3813  0.7396 -1.1970
  264MOL0     H35629   8.903   5.773   5.987  0.7852  0.3810  0.1192
  264MOL0     H35630   8.702   5.745   5.857 -0.6536 -1.0289  1.7827
  264MOL0     H35631   8.655   5.916   5.866  0.0743  1.3576  0.4497
  264MOL0     H35632   8.700   5.871   6.122  3.7967 -2.2223 -0.7372
  264MOL0     H35633   8.719   5.703   6.085  0.4704  0.1914 -0.7323
  264MOL0     H35634   8.471   5.775   6.151 -2.0000 -0.0705 -1.0049
  264MOL0     H35635   8.463   5.847   5.999 -1.5415 -0.9952 -0.6923
  264MOL0     H35636   8.403   5.448   5.898  1.6977 -2.0703  3.6762
  264MOL0     H35637   8.977   5.789   5.567  0.1364  2.4584 -0.2646
  264MOL0     H35638   9.242   5.840   5.387 -0.8858 -0.8826  1.1060
  264MOL0     H35639   9.318   5.697   5.419 -0.3008  0.6986 -1.2555
  264MOL0     H35640   9.153   5.688   5.397  1.2181 -0.0592 -2.0676
  265MOL0     O35641   5.898   4.337   3.239 -1.5353  0.0740 -0.5712
  265MOL0     C35642   5.867   4.454   3.252 -0.2043  0.0450 -0.0437
  265MOL0     O35643   5.875   4.535   3.363 -0.4421 -0.6694  0.3501
  265MOL0     C35644   5.958   4.500   3.464 -0.3845 -0.1303 -0.3034
  265MOL0     C35645   5.976   4.372   3.516 -0.2298  0.2905  0.3565
  265MOL0     C35646   6.065   4.349   3.623 -0.1119 -0.3192 -0.1877
  265MOL0     C35647   6.144   4.447   3.672 -0.7777 -0.3384  0.5184
  265MOL0     O35648   6.235   4.425   3.779 -0.5397 -0.0588 -0.2733
  265MOL0     C35649   6.221   4.505   3.894 -0.0763 -0.1253  0.2745
  265MOL0     C35650   6.257   4.441   4.023 -0.0460  0.2470  0.3553
  265MOL0     C35651   6.197   4.509   4.147  0.3645 -0.0964  0.1093
  265MOL0     C35652   6.225   4.656   4.175  0.0616 -0.2387  0.5931
  265MOL0     C35653   6.369   4.699   4.146  0.5039 -0.4268 -0.9426
  265MOL0     C35654   6.458   4.698   4.282 -0.4071 -0.2472  0.1248
  265MOL0     C35655   6.596   4.732   4.255 -0.2170  0.4117 -0.6112
  265MOL0     C35656   6.670   4.602   4.204  0.3916 -0.4717 -0.2685
  265MOL0     N35657   6.814   4.616   4.187 -0.5721  1.0001  0.6553
  265MOL0     C35658   6.899   4.714   4.145 -0.4152 -0.3509  0.1503
  265MOL0     C35659   7.030   4.676   4.170  0.1520 -0.1397 -0.1192
  265MOL0     C35660   7.160   4.741   4.182  1.0856 -0.4058  0.0044
  265MOL0     C35661   7.145   4.890   4.225 -0.4435  0.0824  0.2626
  265MOL0     C35662   7.276   4.961   4.211  0.2551 -0.0268  0.1874
  265MOL0     C35663   7.391   4.906   4.300  0.1519 -0.4376 -0.1483
  265MOL0     O35664   7.487   5.006   4.305 -0.0002 -0.5924  0.7226
  265MOL0     C35665   7.620   4.980   4.336 -0.9986  0.0075  0.8705
  265MOL0     C35666   7.715   5.077   4.341  0.7753 -0.0147  0.5385
  265MOL0     C35667   7.846   5.052   4.374 -0.4415  0.0496 -0.9537
  265MOL0     C35668   7.890   4.916   4.412 -0.6031 -0.2141  0.9144
  265MOL0     C35669   8.032   4.882   4.444  0.0971  0.2288  0.0593
  265MOL0     O35670   8.071   4.751   4.434 -0.5582 -0.4022 -0.3508
  265MOL0     C35671   8.197   4.702   4.455  0.2201 -0.8893 -0.0716
  265MOL0     C35672   8.204   4.566   4.502 -0.0749 -0.0381 -0.4827
  265MOL0     C35673   8.326   4.494   4.528  0.2660 -0.1875 -0.1091
  265MOL0     C35674   8.446   4.563   4.500 -0.7641 -0.4808 -0.7241
  265MOL0     O35675   8.560   4.480   4.506  0.2719  0.0028  0.1018
  265MOL0     C35676   8.689   4.545   4.506  0.1957 -0.6131 -0.0089
  265MOL0     C35677   8.800   4.459   4.567  1.1304 -0.5959  0.3344
  265MOL0     C35678   8.831   4.337   4.478 -0.6325  0.0472 -1.0025
  265MOL0     C35679   8.967   4.265   4.497  0.2728  0.1929  0.5418
  265MOL0     C35680   8.979   4.214   4.641  1.1419 -0.0014  0.1960
  265MOL0     C35681   9.086   4.111   4.664 -0.2313  0.7054  0.0958
  265MOL0     C35682   9.222   4.173   4.689 -0.5832  0.3126 -0.7553
  265MOL0     C35683   9.225   4.261   4.816 -0.1296  0.2640  0.1744
  265MOL0    Cl35684   9.386   4.301   4.869  0.5632 -0.5981 -0.0446
  265MOL0     C35685   8.437   4.699   4.463 -0.2694  0.2795  0.2417
  265MOL0     C35686   8.321   4.771   4.444 -0.1440  0.8949  0.5653
  265MOL0     O35687   8.110   4.975   4.456  0.0611 -0.3301  0.0990
  265MOL0     C35688   7.788   4.821   4.421  0.9247  0.0356  0.6495
  265MOL0     C35689   7.658   4.854   4.385  0.1771  0.3032 -0.3460
  265MOL0     N35690   7.020   4.545   4.192  0.0124 -0.0987  0.0459
  265MOL0     N35691   6.899   4.515   4.210 -0.5110 -0.1294 -0.4333
  265MOL0     C35692   6.117   4.576   3.621  0.2748  0.2724 -0.3097
  265MOL0     C35693   6.029   4.602   3.520  0.2112  0.4150 -0.2189
  265MOL0     C35694   5.796   4.523   3.150 -0.5169 -0.3167  0.3569
  265MOL0     C35695   5.698   4.451   3.089  0.0570  0.1452 -0.1993
  265MOL0     C35696   5.610   4.511   3.004 -0.8950  0.4346  0.3516
  265MOL0     C35697   5.635   4.642   2.964  0.4674  0.3246  0.1380
  265MOL0     O35698   5.542   4.705   2.885 -0.2052  0.0695  0.8675
  265MOL0     C35699   5.419   4.700   2.940  0.5463  0.4730  0.3979
  265MOL0     C35700   5.326   4.797   2.878 -0.7587  1.0760 -0.5802
  265MOL0     C35701   5.355   4.939   2.916 -0.0771  0.1477 -0.4124
  265MOL0     C35702   5.292   4.972   3.054 -0.4484 -0.1455  1.0506
  265MOL0     C35703   5.304   5.119   3.071 -0.3566 -0.0757  0.5985
  265MOL0     C35704   5.327   5.240   3.096 -0.3834 -0.1604  0.9697
  265MOL0     C35705   5.735   4.715   3.020 -0.1738 -0.1153  0.3954
  265MOL0     C35706   5.829   4.657   3.104 -0.3451  0.1110 -1.0759
  265MOL0     C35707   5.948   4.738   3.147 -0.3945 -0.5837  0.5800
  265MOL0     H35708   5.921   4.285   3.481  1.3818 -0.6644  0.1088
  265MOL0     H35709   6.080   4.246   3.654  2.0323  0.1589  0.5184
  265MOL0     H35710   6.267   4.604   3.886  0.0471  0.1383  3.0473
  265MOL0     H35711   6.115   4.535   3.890 -0.2733 -0.6682 -4.7689
  265MOL0     H35712   6.366   4.444   4.036  0.1262 -2.0429 -0.1969
  265MOL0     H35713   6.238   4.334   4.021  2.0170 -0.1588 -0.8065
  265MOL0     H35714   6.239   4.450   4.229  1.1530 -0.0771 -0.2700
  265MOL0     H35715   6.088   4.505   4.156  0.2237 -0.9000 -1.5645
  265MOL0     H35716   6.182   4.727   4.103  1.4710  0.8140  0.7466
  265MOL0     H35717   6.198   4.679   4.278 -0.9740  0.0684  0.2693
  265MOL0     H35718   6.416   4.641   4.066  1.3346 -0.5678 -0.3637
  265MOL0     H35719   6.365   4.801   4.105 -2.4759 -0.2519 -0.4458
  265MOL0     H35720   6.427   4.773   4.356 -0.1554  2.4779 -2.3430
  265MOL0     H35721   6.451   4.596   4.321 -1.1835 -2.0451 -4.1160
  265MOL0     H35722   6.644   4.765   4.347  0.8370 -1.1995 -0.5371
  265MOL0     H35723   6.600   4.812   4.181 -0.2169  1.4700  0.5031
  265MOL0     H35724   6.655   4.516   4.270 -1.6159 -1.0453 -1.4031
  265MOL0     H35725   6.622   4.584   4.107 -2.6602 -0.1448  1.0628
  265MOL0     H35726   6.868   4.812   4.109 -2.1562 -1.3192 -1.1993
  265MOL0     H35727   7.225   4.692   4.255  1.0285 -1.0896 -0.3949
  265MOL0     H35728   7.211   4.728   4.086 -0.5057 -0.5855 -0.8465
  265MOL0     H35729   7.083   4.937   4.149 -0.1144 -2.0918 -1.4383
  265MOL0     H35730   7.098   4.906   4.323  1.2148  2.0782  0.8079
  265MOL0     H35731   7.267   5.068   4.229  2.0551  0.3913 -1.1242
  265MOL0     H35732   7.300   4.955   4.105 -1.9721  2.0568 -0.5187
  265MOL0     H35733   7.435   4.819   4.250  1.5810  1.4460 -2.3884
  265MOL0     H35734   7.356   4.896   4.403  1.2892  3.0132  0.7063
  265MOL0     H35735   7.684   5.180   4.331 -1.0585 -0.4961  0.8082
  265MOL0     H35736   7.905   5.143   4.376  0.2398 -0.3887 -0.8215
  265MOL0     H35737   8.105   4.523   4.516  0.5467 -0.9945  1.2232
  265MOL0     H35738   8.329   4.389   4.557 -0.3783  0.0254  0.7753
  265MOL0     H35739   8.716   4.568   4.402  1.7311 -4.0304 -0.5090
  265MOL0     H35740   8.689   4.639   4.561  1.7530  0.0307 -1.0370
  265MOL0     H35741   8.882   4.531   4.566  1.5730 -1.0856  0.3982
  265MOL0     H35742   8.784   4.430   4.672 -2.9743 -1.7592 -0.4220
  265MOL0     H35743   8.754   4.261   4.465  2.0005 -2.6316 -2.1809
  265MOL0     H35744   8.847   4.367   4.374  2.6753 -1.1188 -0.9611
  265MOL0     H35745   9.056   4.323   4.473  3.1313 -3.0896  2.1713
  265MOL0     H35746   8.982   4.175   4.436  0.6416 -0.8824  2.1249
  265MOL0     H35747   8.886   4.158   4.654  0.1629  1.8197  1.4418
  265MOL0     H35748   8.968   4.292   4.717 -2.8314  1.6287 -1.7492
  265MOL0     H35749   9.056   4.042   4.743 -0.6658 -3.0034 -3.0026
  265MOL0     H35750   9.097   4.051   4.573  2.2738  0.5500  0.4175
  265MOL0     H35751   9.243   4.230   4.599 -4.6256  2.1790 -0.7379
  265MOL0     H35752   9.306   4.102   4.693 -1.8850 -1.2500  0.6415
  265MOL0     H35753   9.164   4.349   4.796 -0.2961  0.0724 -0.1679
  265MOL0     H35754   9.181   4.212   4.904  3.8448  1.8133  3.3371
  265MOL0     H35755   8.533   4.743   4.440  0.2904 -1.4871 -1.0402
  265MOL0     H35756   8.336   4.871   4.406 -1.3916  0.9440  0.1512
  265MOL0     H35757   7.793   4.719   4.458 -0.8857 -0.3566 -0.0676
  265MOL0     H35758   7.573   4.790   4.405  1.8137 -1.9884 -0.3602
  265MOL0     H35759   6.170   4.663   3.658  0.8888  1.1503 -3.0280
  265MOL0     H35760   6.004   4.704   3.495  0.8304  0.3063 -1.3484
  265MOL0     H35761   5.665   4.349   3.108 -1.2780  0.0871 -2.4325
  265MOL0     H35762   5.537   4.442   2.962  0.0722 -0.0901 -0.5126
  265MOL0     H35763   5.433   4.724   3.045 -0.3768 -0.3918  0.7357
  265MOL0     H35764   5.379   4.598   2.935  0.8749  0.3206  0.8663
  265MOL0     H35765   5.226   4.765   2.907 -0.6134 -0.3701 -1.5871
  265MOL0     H35766   5.323   4.796   2.768  2.9164  0.0886 -0.8117
  265MOL0     H35767   5.317   5.020   2.852  1.4400  2.2248  1.1763
  265MOL0     H35768   5.460   4.968   2.922 -0.7367  3.2060 -1.7088
  265MOL0     H35769   5.184   4.957   3.044 -1.3487  4.2911  2.1631
  265MOL0     H35770   5.345   4.915   3.131  0.4823 -0.1511  0.4243
  265MOL0     H35771   5.341   5.346   3.106 -1.8516 -0.1288  3.4663
  265MOL0     H35772   5.753   4.816   2.985 -2.6896 -0.8142 -3.4805
  265MOL0     H35773   5.918   4.776   3.245  0.3631 -0.7826  0.8974
  265MOL0     H35774   6.031   4.667   3.158 -1.7658 -2.0092  2.4757
  265MOL0     H35775   5.975   4.816   3.076 -1.7579 -1.1368 -0.5996
  266MOL0     O35776   1.936   8.279  10.579  0.1695  0.4004  0.3400
  266MOL0     C35777   1.821   8.325  10.563 -0.8416 -0.6057 -0.7215
  266MOL0     O35778   1.791   8.457  10.535 -0.4403  0.0976 -0.1162
  266MOL0     C35779   1.882   8.560  10.527  0.3139 -0.6676  0.8915
  266MOL0     C35780   1.885   8.668  10.621  1.2922  0.5965 -1.0575
  266MOL0     C35781   1.989   8.758  10.612  0.1599  0.8360  0.3543
  266MOL0     C35782   2.080   8.764  10.510 -0.7261 -0.0540 -0.5101
  266MOL0     O35783   2.185   8.855  10.517 -0.2077 -0.1562 -0.5516
  266MOL0     C35784   2.248   8.892  10.391 -0.9319  0.3155 -0.1100
  266MOL0     C35785   2.158   8.971  10.314  0.1852 -0.1848  0.4277
  266MOL0     C35786   2.124   9.112  10.372  0.2563  0.6534  1.1058
  266MOL0     C35787   2.036   9.191  10.276 -0.4210  0.0741  0.2472
  266MOL0     C35788   1.980   9.323  10.335 -0.2736  0.6073 -0.5490
  266MOL0     C35789   1.908   9.401  10.227  0.5277  0.0663 -0.0604
  266MOL0     C35790   2.005   9.519  10.191  0.3941 -0.1216  0.3001
  266MOL0     C35791   2.010   9.530  10.035 -0.6077  0.8737  0.2611
  266MOL0     N35792   2.098   9.636   9.989  0.5475 -0.4254  0.8499
  266MOL0     C35793   2.104   9.767  10.019 -0.1850 -0.5909  0.5097
  266MOL0     C35794   2.184   9.828   9.929  0.9827  0.4872 -0.1567
  266MOL0     C35795   2.212   9.969   9.935 -0.0316 -0.4906 -0.4715
  266MOL0     C35796   2.091  10.056   9.899 -0.2147  0.5880 -0.6047
  266MOL0     C35797   2.054  10.071   9.753  0.8415  1.3023  0.1104
  266MOL0     C35798   2.164  10.054   9.644 -0.4294  0.1639 -0.1501
  266MOL0     O35799   2.269  10.144   9.675 -0.0112 -0.1560 -0.0229
  266MOL0     C35800   2.364  10.165   9.574 -0.8211 -0.2252 -0.0098
  266MOL0     C35801   2.425  10.288   9.554  0.8185  1.6917  0.3584
  266MOL0     C35802   2.511  10.322   9.450  0.2399 -0.8902 -0.4520
  266MOL0     C35803   2.536  10.223   9.352 -0.3602 -0.0416  0.0326
  266MOL0     C35804   2.626  10.261   9.237  0.9188  0.2140  0.9648
  266MOL0     O35805   2.709  10.358   9.255  0.1379 -0.6666  0.0072
  266MOL0     C35806   2.786  10.418   9.155  0.4551  0.2534  0.1180
  266MOL0     C35807   2.888  10.340   9.093 -0.5234  0.0981  0.9144
  266MOL0     C35808   2.978  10.402   9.005  0.1637 -1.1301  0.0312
  266MOL0     C35809   2.965  10.541   8.970  0.7219  0.7572 -1.5232
  266MOL0     O35810   3.040  10.614   8.878  0.5791  0.3631  0.0137
  266MOL0     C35811   3.124  10.548   8.779  0.0085  0.0791  0.1165
  266MOL0     C35812   3.165  10.648   8.670 -0.0392  0.7097 -0.5794
  266MOL0     C35813   3.277  10.587   8.593 -0.1658 -0.7242 -1.0963
  266MOL0     C35814   3.234  10.483   8.501  1.0420  0.0039 -0.0636
  266MOL0     C35815   3.354  10.413   8.435 -0.3673 -0.3107 -0.1755
  266MOL0     C35816   3.446  10.324   8.521 -0.3602  1.1345  0.3867
  266MOL0     C35817   3.383  10.187   8.562 -0.4459  0.8259  0.0192
  266MOL0     C35818   3.484  10.080   8.605  0.4194 -0.1630 -0.4302
  266MOL0    Cl35819   3.409   9.902   8.613 -0.1730  0.0462 -0.3015
  266MOL0     C35820   2.872  10.606   9.053 -0.6142 -0.0133  0.8459
  266MOL0     C35821   2.780  10.553   9.140 -0.1613  0.0020  0.5365
  266MOL0     O35822   2.626  10.189   9.138  0.0468 -0.7730  0.1141
  266MOL0     C35823   2.466  10.099   9.363  0.3686  0.9522 -0.0471
  266MOL0     C35824   2.381  10.072   9.474  0.0662  0.2579  0.2281
  266MOL0     N35825   2.245   9.726   9.857  1.3249  0.5528  0.0511
  266MOL0     N35826   2.198   9.611   9.899  0.0837  0.8768  0.7178
  266MOL0     C35827   2.066   8.662  10.409 -1.0249 -0.0479 -0.3702
  266MOL0     C35828   1.979   8.550  10.425 -1.1858  0.7803  0.3888
  266MOL0     C35829   1.697   8.228  10.580 -0.3667  0.0770  0.1040
  266MOL0     C35830   1.709   8.096  10.542 -0.1597  0.0743  0.3307
  266MOL0     C35831   1.593   8.011  10.551  0.1338  0.0325 -0.7671
  266MOL0     C35832   1.469   8.055  10.610 -0.1030 -0.5803 -0.6898
  266MOL0     O35833   1.355   7.988  10.627 -0.3682  0.2962  0.1705
  266MOL0     C35834   1.348   7.854  10.587  0.4127  0.2962  0.3034
  266MOL0     C35835   1.386   7.757  10.691  0.3892 -0.0446  0.1039
  266MOL0     C35836   1.319   7.776  10.831 -0.8494 -0.1018 -0.3731
  266MOL0     C35837   1.271   7.643  10.886  0.9051  0.1135  0.4211
  266MOL0     C35838   1.140   7.610  10.831 -0.3504  1.4028 -0.3724
  266MOL0     C35839   1.029   7.579  10.802 -0.8970 -0.3811  0.1407
  266MOL0     C35840   1.466   8.190  10.645  0.3658  0.1546  0.6801
  266MOL0     C35841   1.575   8.275  10.636 -0.2526 -0.1155 -0.4713
  266MOL0     C35842   1.555   8.418  10.676  0.6331  0.3779 -1.0066
  266MOL0     H35843   1.814   8.669  10.703  1.3255 -1.5864 -0.9573
  266MOL0     H35844   1.991   8.831  10.693 -0.9422 -0.1813  1.3482
  266MOL0     H35845   2.334   8.958  10.402  0.3627 -0.9710 -1.9859
  266MOL0     H35846   2.294   8.803  10.347  0.4406  0.5682  0.7789
  266MOL0     H35847   2.062   8.920  10.301  0.1489  0.0858 -0.4792
  266MOL0     H35848   2.199   8.988  10.214  1.3426 -0.1416  0.9036
  266MOL0     H35849   2.219   9.157  10.405  1.2469  1.3347 -2.2770
  266MOL0     H35850   2.061   9.088  10.458 -0.5259 -0.4919  0.2377
  266MOL0     H35851   2.089   9.222  10.186 -1.0362  3.3800  0.8982
  266MOL0     H35852   1.959   9.129  10.228  1.8345 -0.6064 -2.7842
  266MOL0     H35853   1.898   9.294  10.401  0.2779 -3.4611 -1.3986
  266MOL0     H35854   2.061   9.368  10.393 -2.6548  0.7315  2.9116
  266MOL0     H35855   1.888   9.338  10.140  1.2844  2.2010 -1.8665
  266MOL0     H35856   1.815   9.445  10.265 -0.0894 -1.7346  0.6241
  266MOL0     H35857   2.107   9.503  10.226 -0.0809 -0.8238  1.4150
  266MOL0     H35858   1.968   9.614  10.230  0.7701  0.0472  0.2471
  266MOL0     H35859   2.058   9.442   9.990  0.4978  2.2660 -1.3821
  266MOL0     H35860   1.912   9.533   9.986 -0.1932 -2.4151 -1.0338
  266MOL0     H35861   2.036   9.817  10.088 -1.5224 -1.1654 -0.3553
  266MOL0     H35862   2.250  10.003  10.032  1.9475  1.9087 -1.9547
  266MOL0     H35863   2.287  10.009   9.866 -2.5801  1.2799 -2.4218
  266MOL0     H35864   2.008  10.037   9.968  0.4102 -1.4058 -0.3430
  266MOL0     H35865   2.123  10.155   9.933 -0.3871  0.0395  1.2385
  266MOL0     H35866   2.003  10.168   9.746 -2.7301 -0.4441  0.0037
  266MOL0     H35867   1.977   9.997   9.733  1.9962  0.0197  0.2817
  266MOL0     H35868   2.115  10.080   9.550  0.3171  3.6919  0.2937
  266MOL0     H35869   2.204   9.953   9.657  1.0033  0.5701 -1.1768
  266MOL0     H35870   2.407  10.365   9.629 -1.6460  1.1723  0.4026
  266MOL0     H35871   2.550  10.423   9.449 -0.6685 -0.4205 -4.0686
  266MOL0     H35872   2.890  10.235   9.122 -2.5070  0.0035  0.8631
  266MOL0     H35873   3.056  10.346   8.954  2.0096  0.8719  0.5134
  266MOL0     H35874   3.213  10.502   8.823  0.1292  0.3119  0.1144
  266MOL0     H35875   3.071  10.464   8.733  0.2724  1.1005 -2.1537
  266MOL0     H35876   3.071  10.662   8.617 -1.1795 -0.9014  0.8894
  266MOL0     H35877   3.203  10.746   8.700 -1.1569  2.3844 -4.1470
  266MOL0     H35878   3.317  10.657   8.519 -3.3275  0.2956 -1.9999
  266MOL0     H35879   3.346  10.549   8.668 -1.4166 -0.9862 -0.0447
  266MOL0     H35880   3.179  10.534   8.421  0.1980  0.3369  0.7085
  266MOL0     H35881   3.171  10.411   8.553 -1.1274  0.6358 -1.6665
  266MOL0     H35882   3.422  10.488   8.394 -1.8917  0.6427 -1.0806
  266MOL0     H35883   3.307  10.355   8.356 -1.2674  0.6524 -0.3749
  266MOL0     H35884   3.534  10.299   8.460 -0.8099 -3.4251  1.3223
  266MOL0     H35885   3.476  10.376   8.612  0.0656  2.0524 -0.2571
  266MOL0     H35886   3.315  10.159   8.481  0.8874  2.1495 -1.6399
  266MOL0     H35887   3.321  10.218   8.647 -3.6875  3.2666 -2.9592
  266MOL0     H35888   3.561  10.085   8.527 -1.2889 -0.0111 -2.1861
  266MOL0     H35889   3.543  10.105   8.694 -0.7180  0.8570  0.0503
  266MOL0     H35890   2.872  10.714   9.042  0.4894  0.0045  0.8631
  266MOL0     H35891   2.713  10.608   9.205 -2.6861 -1.3824 -0.7399
  266MOL0     H35892   2.465  10.032   9.277  0.0593  3.0395 -1.7630
  266MOL0     H35893   2.326   9.978   9.471  0.5692 -0.1128 -4.2849
  266MOL0     H35894   2.134   8.653  10.325  0.6313  0.1597  0.8942
  266MOL0     H35895   1.990   8.478  10.345 -0.1360  0.9512  0.3674
  266MOL0     H35896   1.805   8.051  10.518 -0.2485 -1.2449  2.2294
  266MOL0     H35897   1.607   7.907  10.523 -2.9259 -0.8021  0.4147
  266MOL0     H35898   1.405   7.821  10.499  5.1265 -1.4598  3.6216
  266MOL0     H35899   1.241   7.841  10.569  0.0288  1.4013  1.6902
  266MOL0     H35900   1.492   7.772  10.712  1.4797 -3.1574 -2.3651
  266MOL0     H35901   1.373   7.655  10.653 -1.6539 -0.0241  0.6213
  266MOL0     H35902   1.245   7.856  10.830  1.2704  2.2338 -4.9721
  266MOL0     H35903   1.395   7.825  10.894 -0.3397  2.4703 -2.7806
  266MOL0     H35904   1.337   7.559  10.863 -0.6178 -1.3435  1.2173
  266MOL0     H35905   1.261   7.651  10.994 -0.7902  1.2194  0.2186
  266MOL0     H35906   0.941   7.528  10.767 -0.3892 -1.2326  0.0677
  266MOL0     H35907   1.368   8.234  10.664  1.0050  1.7267  0.4468
  266MOL0     H35908   1.640   8.455  10.734 -1.0066 -2.2062  3.4931
  266MOL0     H35909   1.539   8.471  10.581 -0.5382 -0.2825 -1.1915
  266MOL0     H35910   1.463   8.427  10.735  1.8511  2.6506  0.7251
  267MOL0     O35911   0.015   6.653   7.964 -0.0918  0.3667 -0.7884
  267MOL0     C35912   0.007   6.771   8.003 -0.6189 -0.3877  0.2342
  267MOL0     O35913   0.106   6.870   7.998  0.4170  0.1790 -0.0195
  267MOL0     C35914   0.233   6.827   7.973 -0.4811 -0.1480  0.8050
  267MOL0     C35915   0.293   6.713   8.030  0.1014 -0.4887  0.4388
  267MOL0     C35916   0.425   6.683   7.994 -0.1350  0.8213 -0.1989
  267MOL0     C35917   0.510   6.755   7.907  0.4578  0.4846 -0.1717
  267MOL0     O35918   0.642   6.735   7.875  0.5699 -0.6293 -0.7070
  267MOL0     C35919   0.707   6.625   7.941  0.1302  0.7197  0.4506
  267MOL0     C35920   0.851   6.615   7.882 -0.0262 -0.0216 -0.1590
  267MOL0     C35921   0.935   6.740   7.909 -0.9137  0.5083  0.0186
  267MOL0     C35922   1.036   6.712   8.015  0.1171 -0.0083 -0.8611
  267MOL0     C35923   1.117   6.839   8.046  0.4882 -0.2572 -0.3664
  267MOL0     C35924   1.141   6.838   8.199 -0.3148  0.5051 -0.6605
  267MOL0     C35925   1.249   6.947   8.238  0.2949 -0.2213  0.5944
  267MOL0     C35926   1.397   6.922   8.202  0.3327  0.0308  0.6736
  267MOL0     N35927   1.440   6.786   8.242 -0.3565  0.1114  0.1069
  267MOL0     C35928   1.529   6.759   8.344  0.0326  0.8602 -0.0811
  267MOL0     C35929   1.555   6.626   8.337  0.1239 -0.1435  0.8483
  267MOL0     C35930   1.653   6.548   8.422 -0.1094 -0.4457  0.7766
  267MOL0     C35931   1.802   6.569   8.369  0.0491 -0.4312  0.1977
  267MOL0     C35932   1.890   6.465   8.434  0.5163  0.2097 -0.0815
  267MOL0     C35933   2.032   6.463   8.399 -1.3793 -0.0261 -0.3068
  267MOL0     O35934   2.088   6.335   8.415 -0.3092 -0.5888 -0.1998
  267MOL0     C35935   2.223   6.347   8.422  0.4603 -0.6970 -0.1735
  267MOL0     C35936   2.303   6.385   8.323 -0.7482 -0.4350 -0.4415
  267MOL0     C35937   2.442   6.401   8.350  0.0703  0.1908 -0.4130
  267MOL0     C35938   2.500   6.375   8.476 -0.6956  0.0253  1.1122
  267MOL0     C35939   2.638   6.392   8.513  0.7553  0.1563  0.6611
  267MOL0     O35940   2.671   6.432   8.636  0.3490  0.2152 -0.4045
  267MOL0     C35941   2.803   6.448   8.675  0.0029 -0.2710  1.1232
  267MOL0     C35942   2.818   6.569   8.751 -0.6619  0.6806  0.6644
  267MOL0     C35943   2.945   6.591   8.804 -0.3011 -0.5546  0.3466
  267MOL0     C35944   3.053   6.504   8.768  0.5209 -1.5061  0.1161
  267MOL0     O35945   3.181   6.542   8.802  0.0399  0.5572  0.4222
  267MOL0     C35946   3.230   6.623   8.699  0.0355 -0.5756  0.1050
  267MOL0     C35947   3.354   6.681   8.756  0.0443 -0.9756  0.2492
  267MOL0     C35948   3.448   6.726   8.652 -0.2678  0.0135  0.8865
  267MOL0     C35949   3.537   6.604   8.591  1.1920 -0.8378 -0.7411
  267MOL0     C35950   3.667   6.661   8.530  0.0094  0.5798 -0.0424
  267MOL0     C35951   3.637   6.755   8.415  0.1143  0.1489 -0.6352
  267MOL0     C35952   3.745   6.753   8.312  0.0855  0.9885 -0.1446
  267MOL0     C35953   3.736   6.868   8.216  0.5642 -0.8898  0.3451
  267MOL0    Cl35954   3.588   6.878   8.115  0.1007  0.4081  0.0692
  267MOL0     C35955   3.039   6.391   8.689 -0.3356  0.4737 -0.4975
  267MOL0     C35956   2.906   6.351   8.653  0.0628 -0.1108  0.3096
  267MOL0     O35957   2.718   6.394   8.418 -0.3385  0.5466 -0.3325
  267MOL0     C35958   2.410   6.333   8.576 -0.4182  0.2457 -0.1744
  267MOL0     C35959   2.275   6.318   8.547  0.4995  0.2232 -0.0044
  267MOL0     N35960   1.490   6.580   8.222 -0.7008 -1.3764 -0.0114
  267MOL0     N35961   1.417   6.673   8.170  0.2763  0.3720 -0.6031
  267MOL0     C35962   0.453   6.868   7.850  0.7247 -0.5771  0.4832
  267MOL0     C35963   0.314   6.904   7.890 -0.4093  0.4952  0.1384
  267MOL0     C35964  -0.139   6.800   8.045 -0.3954 -0.0753 -0.4388
  267MOL0     C35965  -0.237   6.701   8.027  0.0764  0.3343 -0.4362
  267MOL0     C35966  -0.376   6.726   8.043  0.5147 -0.3704 -0.4880
  267MOL0     C35967  -0.420   6.854   8.097  0.0418  0.6449 -0.5218
  267MOL0     O35968  -0.550   6.865   8.128  0.0868 -0.3207 -0.0422
  267MOL0     C35969  -0.620   6.960   8.045  0.3688 -0.2155  0.0603
  267MOL0     C35970  -0.623   7.100   8.105  0.1982  0.5407  0.5413
  267MOL0     C35971  -0.729   7.200   8.060  0.0240  0.0185 -0.1674
  267MOL0     C35972  -0.718   7.237   7.912 -0.0683  0.2856 -0.3651
  267MOL0     C35973  -0.606   7.324   7.892 -0.3367  0.6060  0.1005
  267MOL0     C35974  -0.512   7.391   7.870 -0.0700 -0.7785 -0.3178
  267MOL0     C35975  -0.323   6.950   8.127 -0.2599  1.4198 -0.0811
  267MOL0     C35976  -0.187   6.922   8.096 -0.3964  0.1097 -0.6971
  267MOL0     C35977  -0.098   7.044   8.121  0.4921  0.6015  0.0691
  267MOL0     H35978   0.230   6.658   8.099 -0.6903  0.0086  0.1359
  267MOL0     H35979   0.464   6.595   8.045  0.6787 -0.4167 -2.7639
  267MOL0     H35980   0.713   6.652   8.047  2.0354 -0.0390  0.5768
  267MOL0     H35981   0.656   6.530   7.923  2.4918 -0.5264 -0.0687
  267MOL0     H35982   0.846   6.596   7.775 -2.2410  1.0620 -0.2961
  267MOL0     H35983   0.902   6.530   7.929  0.1506  0.7023  0.9937
  267MOL0     H35984   0.879   6.833   7.917 -0.8349  0.7538 -1.8388
  267MOL0     H35985   0.985   6.758   7.813  0.6371  2.7253  1.1428
  267MOL0     H35986   0.979   6.688   8.105 -2.2917  1.7003 -1.8176
  267MOL0     H35987   1.103   6.629   7.991  0.7418  0.3443 -0.3613
  267MOL0     H35988   1.214   6.831   7.995  1.1785  1.5630  0.5889
  267MOL0     H35989   1.056   6.924   8.015  2.5234  1.9757  1.4102
  267MOL0     H35990   1.048   6.849   8.255 -1.1857 -3.3026 -1.0447
  267MOL0     H35991   1.170   6.739   8.237  3.1136  2.0552  1.2628
  267MOL0     H35992   1.246   6.964   8.346 -0.4251  0.1617  0.5224
  267MOL0     H35993   1.209   7.040   8.195 -2.8733  0.3527  4.2118
  267MOL0     H35994   1.407   6.927   8.094  1.3805 -1.1421  0.6900
  267MOL0     H35995   1.453   7.013   8.224 -0.7110  0.8482  0.0426
  267MOL0     H35996   1.576   6.818   8.422 -0.7872  1.3928  0.0190
  267MOL0     H35997   1.640   6.583   8.524  0.0575  1.2877  0.2380
  267MOL0     H35998   1.626   6.442   8.416  4.1980 -1.7119 -0.6974
  267MOL0     H35999   1.812   6.552   8.261  0.8799 -0.0584  0.2112
  267MOL0     H36000   1.841   6.666   8.401  2.1080 -0.7315 -1.2412
  267MOL0     H36001   1.846   6.368   8.410  1.0904  0.1089 -0.7652
  267MOL0     H36002   1.883   6.475   8.543  0.7847 -0.3156 -0.0135
  267MOL0     H36003   2.080   6.530   8.471 -2.8610  0.2184  0.4937
  267MOL0     H36004   2.030   6.494   8.294 -2.7592 -0.7145 -0.5110
  267MOL0     H36005   2.258   6.411   8.228 -0.6042 -2.0131 -0.9685
  267MOL0     H36006   2.488   6.441   8.261 -0.3411  2.5231  0.3350
  267MOL0     H36007   2.737   6.640   8.743 -0.9879  0.0764 -4.0249
  267MOL0     H36008   2.963   6.682   8.860 -1.0561 -2.5276  4.1599
  267MOL0     H36009   3.245   6.574   8.602  0.7552 -3.8578  1.7206
  267MOL0     H36010   3.159   6.701   8.669 -1.1091 -2.3140 -2.0243
  267MOL0     H36011   3.331   6.769   8.817 -0.5366 -1.9032  1.4263
  267MOL0     H36012   3.395   6.601   8.818 -3.1079 -1.3817  2.0142
  267MOL0     H36013   3.398   6.783   8.574 -0.4703 -0.7478  0.4443
  267MOL0     H36014   3.513   6.801   8.698  0.5919  1.3148 -2.1513
  267MOL0     H36015   3.486   6.538   8.520 -1.8292  0.5410 -0.0409
  267MOL0     H36016   3.566   6.542   8.676  0.8600 -1.0931 -0.8108
  267MOL0     H36017   3.720   6.572   8.494  1.5745  1.3156  0.3825
  267MOL0     H36018   3.728   6.703   8.610 -0.3158 -0.7833  0.9657
  267MOL0     H36019   3.552   6.719   8.356 -0.2711  0.5585 -0.3402
  267MOL0     H36020   3.613   6.851   8.463  2.9641 -0.4030  2.1909
  267MOL0     H36021   3.742   6.663   8.250 -0.1085  1.5307 -0.9449
  267MOL0     H36022   3.838   6.760   8.369  1.0603 -0.4522 -1.4944
  267MOL0     H36023   3.750   6.961   8.272 -1.1351  0.0768 -0.7421
  267MOL0     H36024   3.823   6.857   8.150  1.5416  1.4354  1.1537
  267MOL0     H36025   3.122   6.325   8.666 -2.7609 -2.3255 -1.8546
  267MOL0     H36026   2.883   6.265   8.590  0.7486 -1.5907  1.9878
  267MOL0     H36027   2.448   6.303   8.673  0.6021 -1.8379 -1.1478
  267MOL0     H36028   2.213   6.285   8.630 -1.0321 -1.5638 -1.7816
  267MOL0     H36029   0.518   6.929   7.787  1.3822 -2.1816 -0.4429
  267MOL0     H36030   0.262   6.994   7.859 -1.6932  0.0207  0.8017
  267MOL0     H36031  -0.211   6.600   7.995  2.6125  0.9256 -0.4656
  267MOL0     H36032  -0.450   6.649   8.021  1.8113 -0.6894 -4.4806
  267MOL0     H36033  -0.714   6.906   8.035  1.7289 -2.5465 -0.8152
  267MOL0     H36034  -0.590   6.967   7.940 -1.6064  0.9068 -0.4896
  267MOL0     H36035  -0.524   7.145   8.116  0.7803 -1.0955  2.5314
  267MOL0     H36036  -0.654   7.084   8.208  2.2455 -2.4144  0.8436
  267MOL0     H36037  -0.721   7.288   8.124  0.0577 -0.4184  0.4364
  267MOL0     H36038  -0.830   7.160   8.067 -0.0359 -0.1006 -1.4183
  267MOL0     H36039  -0.700   7.151   7.847 -2.4190  0.0109 -0.7630
  267MOL0     H36040  -0.816   7.278   7.884 -0.3604 -0.8540 -1.0845
  267MOL0     H36041  -0.425   7.451   7.855  0.1835 -1.6960 -3.3765
  267MOL0     H36042  -0.354   7.042   8.175 -1.5486  0.8339  0.2555
  267MOL0     H36043  -0.145   7.121   8.183  1.4931 -0.5260  2.3466
  267MOL0     H36044  -0.004   7.005   8.163  0.3333 -3.3547 -2.7132
  267MOL0     H36045  -0.069   7.085   8.024 -3.9734 -1.0373 -2.2403
  268MOL0     O36046   6.058   4.452  10.132  0.1573  0.0485 -0.2949
  268MOL0     C36047   6.006   4.565  10.121  0.1984  0.5073 -0.1850
  268MOL0     O36048   6.075   4.678  10.077  0.2523  0.4213 -0.1432
  268MOL0     C36049   6.207   4.674  10.053  0.0687 -0.8407 -0.2937
  268MOL0     C36050   6.255   4.668   9.918 -0.2944  0.2282  0.2389
  268MOL0     C36051   6.390   4.674   9.893 -0.8075  0.6681 -0.2067
  268MOL0     C36052   6.489   4.673   9.997 -0.2689  0.1457 -0.3165
  268MOL0     O36053   6.624   4.692   9.960 -0.1272  0.8216  0.2011
  268MOL0     C36054   6.731   4.694  10.063 -0.5404 -0.0267  1.6748
  268MOL0     C36055   6.866   4.715   9.996 -0.5207  0.8231  0.5976
  268MOL0     C36056   6.881   4.830   9.908 -0.0489 -0.1243 -0.2041
  268MOL0     C36057   7.030   4.868   9.880  0.1833 -0.3245 -0.6565
  268MOL0     C36058   7.094   4.935  10.000 -0.3027  0.7707 -0.8470
  268MOL0     C36059   7.194   5.042   9.946 -1.3279 -0.0038  0.9733
  268MOL0     C36060   7.272   5.100  10.062  0.2865  0.0921 -0.3984
  268MOL0     C36061   7.370   5.214  10.016 -1.1253 -0.8167 -0.1971
  268MOL0     N36062   7.310   5.307   9.925 -0.7239 -1.6309 -0.1704
  268MOL0     C36063   7.219   5.407   9.955 -0.5641  0.7685 -0.7395
  268MOL0     C36064   7.203   5.474   9.836 -0.8233 -0.4093  0.8515
  268MOL0     C36065   7.103   5.587   9.811 -0.0497 -0.1324  0.3158
  268MOL0     C36066   7.155   5.724   9.846 -0.3976 -0.3656 -0.1251
  268MOL0     C36067   7.097   5.829   9.749  0.5713 -0.1485  0.1044
  268MOL0     C36068   6.942   5.858   9.762  0.4977  0.7188  0.0194
  268MOL0     O36069   6.866   5.766   9.687  0.4124  0.4053  0.0893
  268MOL0     C36070   6.729   5.775   9.696  0.2334 -0.0674  0.2478
  268MOL0     C36071   6.654   5.877   9.757  0.2826  0.1228 -0.4983
  268MOL0     C36072   6.516   5.885   9.734  0.2227  0.0243  0.4827
  268MOL0     C36073   6.442   5.782   9.660  0.6456 -0.1843 -0.4312
  268MOL0     C36074   6.298   5.773   9.639 -0.3045  0.3662  0.6316
  268MOL0     O36075   6.228   5.893   9.626 -0.0374 -0.3689  0.1922
  268MOL0     C36076   6.090   5.910   9.617 -0.4433  0.1261 -0.6555
  268MOL0     C36077   5.989   5.816   9.609 -0.6955  0.1134 -0.1606
  268MOL0     C36078   5.858   5.841   9.585 -0.2835 -0.1414  0.4355
  268MOL0     C36079   5.821   5.977   9.559  0.0562 -0.0326 -0.0505
  268MOL0     O36080   5.693   6.014   9.529 -0.2198  0.0079 -0.0488
  268MOL0     C36081   5.633   6.133   9.593 -0.5325 -0.4523 -0.1045
  268MOL0     C36082   5.484   6.140   9.584  0.3980 -0.7724  0.2006
  268MOL0     C36083   5.412   6.043   9.676 -0.5758 -0.8001  0.0113
  268MOL0     C36084   5.269   6.090   9.715  0.5799  0.4656 -0.1957
  268MOL0     C36085   5.164   6.054   9.597 -0.3265  0.4349 -1.2015
  268MOL0     C36086   5.029   6.106   9.633 -0.1472 -1.4707 -0.1153
  268MOL0     C36087   5.020   6.259   9.650  0.1501  0.3036  0.7432
  268MOL0     C36088   4.878   6.307   9.670  0.5484 -0.1252 -0.6089
  268MOL0    Cl36089   4.807   6.277   9.827 -0.2164  0.1788 -0.5895
  268MOL0     C36090   5.918   6.082   9.572 -0.4959  0.3829  0.5300
  268MOL0     C36091   6.050   6.048   9.607  0.1932  0.0951 -0.6864
  268MOL0     O36092   6.255   5.661   9.639 -0.7170 -0.0040  0.2188
  268MOL0     C36093   6.522   5.676   9.621  0.4580 -0.0115  0.0626
  268MOL0     C36094   6.659   5.673   9.630 -0.1098 -0.0215  0.4879
  268MOL0     N36095   7.288   5.426   9.739  0.4993 -0.1246  1.0028
  268MOL0     N36096   7.349   5.321   9.792  0.2429  0.8457  0.9615
  268MOL0     C36097   6.443   4.685  10.127  0.9203  0.4500  0.0391
  268MOL0     C36098   6.299   4.684  10.158 -0.1664 -0.3652 -0.9535
  268MOL0     C36099   5.862   4.589  10.157  0.1844 -0.1500 -0.4035
  268MOL0     C36100   5.803   4.717  10.132 -0.5725  1.2028  0.3439
  268MOL0     C36101   5.671   4.741  10.175 -0.3150 -0.5332  0.0176
  268MOL0     C36102   5.588   4.644  10.222 -0.1022 -0.3333  0.1432
  268MOL0     O36103   5.455   4.687  10.239  0.2265 -0.3292 -0.2630
  268MOL0     C36104   5.356   4.590  10.273 -0.4724 -0.1127 -0.7248
  268MOL0     C36105   5.223   4.643  10.223  0.4990  0.3892  0.7636
  268MOL0     C36106   5.095   4.587  10.295 -1.1502 -0.3813 -0.1259
  268MOL0     C36107   4.967   4.590  10.203 -0.5099 -0.1631 -0.2546
  268MOL0     C36108   4.858   4.552  10.289 -0.2818  0.9681  0.3599
  268MOL0     C36109   4.764   4.520  10.359 -0.8677  0.0375  0.4236
  268MOL0     C36110   5.640   4.515  10.237 -1.0426 -0.2967 -0.6058
  268MOL0     C36111   5.777   4.488  10.213 -0.1138 -0.3038  0.2750
  268MOL0     C36112   5.817   4.341  10.236 -0.7175 -0.2532 -1.2500
  268MOL0     H36113   6.185   4.661   9.835  0.8005  1.7194 -0.8634
  268MOL0     H36114   6.424   4.674   9.790 -0.2379  1.0398 -0.0266
  268MOL0     H36115   6.712   4.772  10.137 -1.3044 -1.4008  3.0004
  268MOL0     H36116   6.738   4.599  10.117  1.1304  0.2961  2.0761
  268MOL0     H36117   6.892   4.623   9.943 -1.8031  0.5494  0.3900
  268MOL0     H36118   6.930   4.720  10.084  0.3583 -1.3137  0.1542
  268MOL0     H36119   6.830   4.911   9.960 -0.4419 -0.1324 -0.5689
  268MOL0     H36120   6.825   4.808   9.817  1.8926  0.0211 -1.4801
  268MOL0     H36121   7.085   4.779   9.848  1.7000  0.5705 -0.6291
  268MOL0     H36122   7.018   4.932   9.792 -0.2936  1.0490  0.3853
  268MOL0     H36123   7.012   4.980  10.057 -0.6574  0.0646 -0.7945
  268MOL0     H36124   7.144   4.857  10.058  1.7449  1.6482 -1.3286
  268MOL0     H36125   7.271   4.995   9.884 -1.4132 -0.4921  1.2298
  268MOL0     H36126   7.146   5.120   9.888  1.0518 -0.5614 -1.9698
  268MOL0     H36127   7.334   5.012  10.082 -2.6382 -1.7258  1.4415
  268MOL0     H36128   7.206   5.119  10.147 -0.8961 -2.7928 -0.5689
  268MOL0     H36129   7.404   5.267  10.105 -2.7252 -0.4707  0.2304
  268MOL0     H36130   7.460   5.173   9.969  0.7160  1.0881  1.4728
  268MOL0     H36131   7.165   5.441  10.042 -0.1585 -0.6966  0.1250
  268MOL0     H36132   7.073   5.572   9.707  0.4783 -3.4176  0.5233
  268MOL0     H36133   7.020   5.572   9.880  1.3781  3.3625  3.0600
  268MOL0     H36134   7.134   5.756   9.948  1.9544 -1.5821  0.8080
  268MOL0     H36135   7.263   5.738   9.838 -0.3750 -0.9557 -1.0342
  268MOL0     H36136   7.134   5.804   9.649 -1.1040  0.6658 -0.7744
  268MOL0     H36137   7.157   5.920   9.763 -0.5264  0.3262  2.0437
  268MOL0     H36138   6.925   5.959   9.724  0.9362 -0.2139 -2.9225
  268MOL0     H36139   6.910   5.856   9.866  0.7867  2.1424  0.1460
  268MOL0     H36140   6.694   5.969   9.799  3.6715  0.7456 -4.4317
  268MOL0     H36141   6.467   5.968   9.783  2.6141  0.5381  2.1556
  268MOL0     H36142   6.006   5.708   9.612 -0.2099  0.0754 -2.4768
  268MOL0     H36143   5.787   5.761   9.566 -1.0999  0.8152 -0.6793
  268MOL0     H36144   5.659   6.132   9.699  2.6123 -1.7985 -0.7804
  268MOL0     H36145   5.674   6.224   9.548  2.6906 -0.8469  1.7778
  268MOL0     H36146   5.444   6.239   9.611 -0.3884 -0.9025 -0.4377
  268MOL0     H36147   5.448   6.128   9.482 -0.0833 -3.7209  0.6378
  268MOL0     H36148   5.405   5.960   9.605 -0.6786 -1.6165  0.9460
  268MOL0     H36149   5.478   6.032   9.762 -0.9688 -0.9947  0.2922
  268MOL0     H36150   5.264   6.195   9.744 -2.3968  0.1762  0.7133
  268MOL0     H36151   5.236   6.036   9.805 -0.9406 -0.7959 -1.4321
  268MOL0     H36152   5.151   5.947   9.578 -1.9208  0.3032  0.4118
  268MOL0     H36153   5.201   6.102   9.506 -2.5058 -0.2850 -2.5553
  268MOL0     H36154   4.965   6.070   9.552 -1.1090  2.0289 -1.0971
  268MOL0     H36155   4.992   6.069   9.729  1.0203  0.4952  1.1590
  268MOL0     H36156   5.060   6.314   9.564  1.3629  1.0591  1.7590
  268MOL0     H36157   5.068   6.290   9.744  1.4762 -2.3066  1.0198
  268MOL0     H36158   4.891   6.416   9.674  0.1866 -0.1216  1.0675
  268MOL0     H36159   4.814   6.285   9.584  0.3385 -1.3299 -0.1584
  268MOL0     H36160   5.896   6.181   9.535 -0.9468 -1.0887 -3.7105
  268MOL0     H36161   6.125   6.127   9.606  2.6590 -2.0707  0.6382
  268MOL0     H36162   6.483   5.584   9.579  3.7805 -2.3773  1.6581
  268MOL0     H36163   6.710   5.586   9.590 -1.4108  0.5217 -2.5828
  268MOL0     H36164   6.515   4.702  10.206  2.4908 -1.1762 -0.9792
  268MOL0     H36165   6.261   4.691  10.259  0.1884 -1.5755 -0.7203
  268MOL0     H36166   5.862   4.787  10.074  0.0256 -1.1007 -2.0785
  268MOL0     H36167   5.620   4.836  10.163 -2.7085 -1.4346  2.0025
  268MOL0     H36168   5.353   4.579  10.382 -0.0457  2.1360 -0.4348
  268MOL0     H36169   5.372   4.488  10.235 -1.8118 -1.6342  2.4348
  268MOL0     H36170   5.226   4.619  10.116  3.9094 -0.8633  0.9949
  268MOL0     H36171   5.215   4.749  10.245 -3.8439  1.2163 -3.2963
  268MOL0     H36172   5.088   4.651  10.383  1.8042  0.6390 -0.5162
  268MOL0     H36173   5.112   4.484  10.328 -0.8888  0.8199  4.0940
  268MOL0     H36174   4.952   4.692  10.165  0.8009  0.9150  1.8975
  268MOL0     H36175   4.973   4.507  10.132  1.2746 -0.5768  0.3345
  268MOL0     H36176   4.689   4.510  10.435  0.9116 -0.6613  2.1668
  268MOL0     H36177   5.582   4.431  10.275  0.5128 -0.4071  1.7800
  268MOL0     H36178   5.740   4.292  10.296  0.7899 -2.2817 -0.8674
  268MOL0     H36179   5.818   4.305  10.132 -0.2380  2.0317 -2.1008
  268MOL0     H36180   5.916   4.318  10.276 -2.3312 -4.4264  0.9704
  269MOL0     O36181   8.029  10.301   8.972 -0.3674  0.1803  0.0086
  269MOL0     C36182   8.013  10.233   8.879  0.9152  1.0925  0.0381
  269MOL0     O36183   8.083  10.110   8.846  0.1345  0.0408  0.5027
  269MOL0     C36184   8.185  10.068   8.924  0.0713 -0.3204  0.6886
  269MOL0     C36185   8.255   9.959   8.874 -0.4034  0.5733  0.5015
  269MOL0     C36186   8.357   9.899   8.945  0.3817 -0.2873  0.6833
  269MOL0     C36187   8.399   9.940   9.070 -0.2466 -0.1502 -0.3470
  269MOL0     O36188   8.502   9.866   9.124  0.5611  0.6907 -0.1171
  269MOL0     C36189   8.626   9.935   9.093  0.7735 -0.1915  0.0865
  269MOL0     C36190   8.748   9.861   9.147  0.3633 -0.8648 -0.1028
  269MOL0     C36191   8.880   9.931   9.103  0.6905  0.1847  0.1258
  269MOL0     C36192   8.997   9.860   9.154 -0.6278 -0.0143  0.2012
  269MOL0     C36193   9.117   9.899   9.067 -0.0905  0.4564  0.9713
  269MOL0     C36194   9.255   9.853   9.125  0.9277  0.1046  0.0324
  269MOL0     C36195   9.364   9.877   9.032  0.5692 -0.5077  0.3984
  269MOL0     C36196   9.364   9.774   8.916 -0.5185 -0.1746 -0.1102
  269MOL0     N36197   9.484   9.790   8.831 -0.0773 -0.5661 -0.1136
  269MOL0     C36198   9.494   9.761   8.699  0.2892 -0.3696  0.0665
  269MOL0     C36199   9.603   9.827   8.660  0.2119 -0.0939 -0.3182
  269MOL0     C36200   9.651   9.845   8.520 -0.6352 -0.3726 -0.6834
  269MOL0     C36201   9.607   9.969   8.442  0.2927  0.0706 -0.6155
  269MOL0     C36202   9.655   9.961   8.293 -0.0880 -0.3375  0.8940
  269MOL0     C36203   9.809   9.918   8.275  0.0603  0.1399 -0.2771
  269MOL0     O36204   9.890  10.000   8.366 -0.6745 -0.3013  0.4824
  269MOL0     C36205  10.026   9.981   8.368 -0.1313 -0.9527  0.2513
  269MOL0     C36206  10.109   9.944   8.263  0.1490 -0.4677  0.2292
  269MOL0     C36207  10.250   9.919   8.274 -0.3967  0.6862 -0.3065
  269MOL0     C36208  10.311   9.947   8.398 -0.5468 -0.1487 -0.1402
  269MOL0     C36209  10.452   9.916   8.421 -0.4292  0.1347  0.3875
  269MOL0     O36210  10.511   9.807   8.356 -0.0688 -0.3138  0.2088
  269MOL0     C36211  10.643   9.764   8.381  0.1941 -1.3694 -0.5749
  269MOL0     C36212  10.712   9.708   8.263  0.2921 -0.8889  0.0798
  269MOL0     C36213  10.842   9.665   8.280  0.2983  0.1375 -0.0522
  269MOL0     C36214  10.891   9.643   8.412  0.6522 -0.6597  0.5091
  269MOL0     O36215  11.009   9.570   8.430  0.3045 -0.3858  0.7241
  269MOL0     C36216  11.121   9.644   8.475 -0.4742 -1.2879  0.3034
  269MOL0     C36217  11.248   9.557   8.467  0.2095  0.3944  0.7648
  269MOL0     C36218  11.359   9.626   8.535 -0.0247  0.2975 -0.9521
  269MOL0     C36219  11.474   9.524   8.572 -0.4728  0.3682  0.3369
  269MOL0     C36220  11.530   9.432   8.454  0.7566  0.0343  0.6887
  269MOL0     C36221  11.646   9.327   8.484 -0.2109 -0.2967  0.3616
  269MOL0     C36222  11.777   9.408   8.510 -0.4062  0.9139  0.0473
  269MOL0     C36223  11.866   9.451   8.393 -0.3464  0.5582  0.1708
  269MOL0    Cl36224  12.018   9.510   8.464  0.3431  0.1007 -0.4000
  269MOL0     C36225  10.820   9.690   8.520  0.3645  0.6857 -0.3009
  269MOL0     C36226  10.699   9.757   8.502 -1.1180  0.4457 -0.3668
  269MOL0     O36227  10.513   9.987   8.498 -0.4506  0.3181 -0.3418
  269MOL0     C36228  10.232  10.001   8.502 -0.1663  1.1987 -0.2715
  269MOL0     C36229  10.094  10.009   8.483  0.1972 -0.0637  0.2851
  269MOL0     N36230   9.665   9.898   8.760 -0.3182  0.0410 -0.1373
  269MOL0     N36231   9.599   9.858   8.867  0.6125 -0.4921  0.1295
  269MOL0     C36232   8.336  10.046   9.126  0.2920 -0.1804  0.0006
  269MOL0     C36233   8.228  10.109   9.051 -0.3940 -0.2431 -0.4751
  269MOL0     C36234   7.899  10.270   8.794  0.6128 -0.0809 -0.4546
  269MOL0     C36235   7.817  10.170   8.738 -0.5543  0.3390  0.6120
  269MOL0     C36236   7.712  10.206   8.652  0.2626 -0.1661 -0.4363
  269MOL0     C36237   7.698  10.340   8.621 -0.2344 -0.6454 -0.1332
  269MOL0     O36238   7.607  10.366   8.509 -0.2448  0.0222 -0.1294
  269MOL0     C36239   7.646  10.492   8.443  0.2262  0.2547  0.5178
  269MOL0     C36240   7.571  10.620   8.487 -0.3724  0.7342 -0.1090
  269MOL0     C36241   7.430  10.619   8.432  0.4185  1.0297  0.1291
  269MOL0     C36242   7.350  10.492   8.470  0.0847 -0.4661 -0.2771
  269MOL0     C36243   7.206  10.520   8.441 -0.1163 -0.2969  0.3276
  269MOL0     C36244   7.095  10.561   8.413  0.2074  0.2456  0.8409
  269MOL0     C36245   7.768  10.435   8.697 -0.5235  0.7599 -0.2197
  269MOL0     C36246   7.871  10.405   8.785  0.0441 -0.7719  0.2965
  269MOL0     C36247   7.936  10.530   8.848  0.5965  1.1551  0.0847
  269MOL0     H36248   8.210   9.910   8.788 -1.2423 -0.1304  1.3223
  269MOL0     H36249   8.381   9.809   8.890  0.2746  0.7681 -1.1997
  269MOL0     H36250   8.639   9.943   8.985 -2.0156 -2.1922 -0.4993
  269MOL0     H36251   8.620  10.035   9.135 -1.1776 -0.1520 -0.2074
  269MOL0     H36252   8.752   9.754   9.124 -3.2179 -2.0877  3.7694
  269MOL0     H36253   8.738   9.865   9.255 -0.3349 -0.4900 -0.1754
  269MOL0     H36254   8.896  10.035   9.135  0.8382  2.2926 -5.6153
  269MOL0     H36255   8.878   9.939   8.994  3.3910 -0.7689 -0.0575
  269MOL0     H36256   9.011   9.893   9.258 -0.8769 -1.2676  0.6467
  269MOL0     H36257   8.987   9.751   9.151  0.4631 -0.1458  0.8500
  269MOL0     H36258   9.107   9.850   8.970  2.5231  0.3556  0.6822
  269MOL0     H36259   9.121  10.003   9.035  3.4817  0.0568 -0.3424
  269MOL0     H36260   9.281   9.906   9.217 -1.6728 -1.4451  1.7971
  269MOL0     H36261   9.241   9.746   9.143 -1.4699  0.2506 -0.6447
  269MOL0     H36262   9.455   9.848   9.085  2.5717 -1.1293 -3.0541
  269MOL0     H36263   9.380   9.981   9.002  1.8038 -1.3736 -2.3006
  269MOL0     H36264   9.366   9.668   8.941  1.3675  0.0171  0.7225
  269MOL0     H36265   9.278   9.774   8.848 -2.2110 -1.8374  1.8912
  269MOL0     H36266   9.436   9.705   8.626  0.6957  1.6897 -1.9550
  269MOL0     H36267   9.760   9.838   8.524 -0.6695 -0.3988  1.4343
  269MOL0     H36268   9.608   9.763   8.462 -1.0113 -0.2732 -0.5536
  269MOL0     H36269   9.500   9.991   8.454  0.6955  1.0629  1.6385
  269MOL0     H36270   9.658  10.048   8.497 -1.7851  0.4579  0.8982
  269MOL0     H36271   9.636  10.061   8.251 -3.4001 -1.0448  0.4029
  269MOL0     H36272   9.597   9.894   8.229 -0.4230  0.5615  0.2322
  269MOL0     H36273   9.844   9.930   8.172  1.4416 -1.6550 -0.0775
  269MOL0     H36274   9.822   9.810   8.288  1.6490  0.4699  1.2609
  269MOL0     H36275  10.052   9.918   8.175  1.4951 -3.6009  0.1502
  269MOL0     H36276  10.310   9.890   8.188 -1.7905  2.4201 -1.9269
  269MOL0     H36277  10.680   9.705   8.160  0.5728 -2.6139  0.0084
  269MOL0     H36278  10.894   9.622   8.195  1.4008 -1.7967  1.5026
  269MOL0     H36279  11.134   9.736   8.418 -0.5381 -2.3708 -1.5621
  269MOL0     H36280  11.107   9.677   8.578 -1.4213  0.6990 -0.4079
  269MOL0     H36281  11.235   9.465   8.525 -1.9846  0.0330 -0.1967
  269MOL0     H36282  11.273   9.535   8.363 -0.3167 -0.2636  0.7698
  269MOL0     H36283  11.407   9.706   8.478  1.6976  1.2104  1.6078
  269MOL0     H36284  11.329   9.663   8.633  1.1729 -0.1230 -0.4124
  269MOL0     H36285  11.450   9.457   8.656  1.7836  1.1990  1.7288
  269MOL0     H36286  11.563   9.571   8.614  0.5633 -2.9262  2.2471
  269MOL0     H36287  11.569   9.488   8.368  1.2237 -1.4149 -0.0682
  269MOL0     H36288  11.443   9.379   8.414  1.3749  0.3829 -1.2289
  269MOL0     H36289  11.615   9.272   8.573 -0.5203 -2.9933 -1.2865
  269MOL0     H36290  11.663   9.251   8.407  0.2397 -0.1371  0.2973
  269MOL0     H36291  11.835   9.354   8.585  0.3671  1.2311 -0.3194
  269MOL0     H36292  11.746   9.501   8.559  0.3167  1.3946 -0.3860
  269MOL0     H36293  11.891   9.360   8.337 -0.4923 -0.3034  1.4835
  269MOL0     H36294  11.826   9.527   8.325  0.5733 -0.4329 -1.5677
  269MOL0     H36295  10.864   9.689   8.619 -3.8974 -4.0661  2.0238
  269MOL0     H36296  10.655   9.791   8.595  1.0113 -1.5268  1.4757
  269MOL0     H36297  10.277  10.031   8.596  1.4164  0.3923 -0.7526
  269MOL0     H36298  10.025  10.042   8.561  1.0615  3.3156 -0.2016
  269MOL0     H36299   8.350  10.086   9.226 -4.5246 -1.8623  1.6640
  269MOL0     H36300   8.184  10.191   9.107  1.2040  0.0335  0.4331
  269MOL0     H36301   7.832  10.063   8.752 -0.0398  0.0964 -1.4864
  269MOL0     H36302   7.656  10.126   8.605 -1.0871 -0.9127  2.2460
  269MOL0     H36303   7.619  10.480   8.338 -4.7946  0.8263  1.5199
  269MOL0     H36304   7.755  10.492   8.452  0.1298  0.4180  1.8548
  269MOL0     H36305   7.627  10.711   8.463 -2.5885  2.0937 -0.4553
  269MOL0     H36306   7.579  10.622   8.596  3.5352 -0.1724 -0.2301
  269MOL0     H36307   7.437  10.630   8.324 -0.7734  0.3773 -0.0281
  269MOL0     H36308   7.378  10.705   8.476  1.3929  2.6813 -1.7420
  269MOL0     H36309   7.377  10.401   8.416  3.6117  0.7280 -0.8114
  269MOL0     H36310   7.344  10.482   8.579 -0.8214  1.1199 -0.1567
  269MOL0     H36311   6.995  10.597   8.395  0.3363 -0.0020 -0.4619
  269MOL0     H36312   7.754  10.538   8.665 -0.5447 -0.0458 -3.0182
  269MOL0     H36313   7.923  10.529   8.957  0.2559  0.1137  0.0436
  269MOL0     H36314   8.041  10.530   8.820  0.3091 -0.5866 -1.1461
  269MOL0     H36315   7.889  10.617   8.800  0.5461 -0.1149 -2.2612
  270MOL0     O36316   2.659   8.647   6.109 -0.2757  0.5469  0.0971
  270MOL0     C36317   2.562   8.716   6.111  0.2334 -0.3472 -0.2202
  270MOL0     O36318   2.569   8.847   6.150  0.2720 -0.1127  0.3224
  270MOL0     C36319   2.692   8.888   6.185 -0.7565 -0.1811  0.0637
  270MOL0     C36320   2.776   8.937   6.092  0.1142 -0.7796 -0.4368
  270MOL0     C36321   2.903   8.984   6.122  0.3742  0.1677 -0.2430
  270MOL0     C36322   2.949   8.987   6.254  0.2249  0.7998  0.1445
  270MOL0     O36323   3.063   9.061   6.281  0.2190 -0.2460  0.2693
  270MOL0     C36324   3.082   9.134   6.402 -1.3473 -0.6015 -0.5011
  270MOL0     C36325   3.207   9.215   6.388 -0.0847 -1.8007  0.1175
  270MOL0     C36326   3.197   9.352   6.308  0.6938  0.3962  0.3960
  270MOL0     C36327   3.297   9.460   6.338  0.1555  0.9321  0.2470
  270MOL0     C36328   3.268   9.572   6.235 -0.0828 -0.4725 -0.2048
  270MOL0     C36329   3.350   9.702   6.275 -0.3658  0.2943 -0.6238
  270MOL0     C36330   3.497   9.695   6.225 -0.5169 -0.2645 -1.2773
  270MOL0     C36331   3.495   9.707   6.079  0.0376  0.7425  0.1954
  270MOL0     N36332   3.535   9.581   6.015 -0.2071  0.3909  0.3475
  270MOL0     C36333   3.641   9.504   6.052  0.1291 -0.3449  0.0156
  270MOL0     C36334   3.633   9.390   5.981 -0.5890 -0.5627  0.0716
  270MOL0     C36335   3.738   9.286   5.986 -0.5532  0.0466  0.7977
  270MOL0     C36336   3.877   9.351   5.998  0.4460  0.1245  0.0156
  270MOL0     C36337   3.980   9.246   5.977 -0.6772 -0.3530  0.9358
  270MOL0     C36338   4.120   9.288   6.029  0.0481 -0.3728 -0.0149
  270MOL0     O36339   4.163   9.400   5.945 -0.2869  0.3464  0.0467
  270MOL0     C36340   4.290   9.446   5.961 -0.1091 -1.5977  0.6800
  270MOL0     C36341   4.385   9.386   6.043 -0.4703  0.5159 -0.3039
  270MOL0     C36342   4.519   9.431   6.048  0.2933 -0.6946 -0.3979
  270MOL0     C36343   4.546   9.554   5.979 -0.0617  0.2613 -0.8572
  270MOL0     C36344   4.680   9.615   5.990 -0.9976 -0.7597 -1.0764
  270MOL0     O36345   4.777   9.558   6.068  0.3336  0.4379 -0.7057
  270MOL0     C36346   4.878   9.636   6.105  1.0221 -0.1364 -0.6174
  270MOL0     C36347   4.861   9.733   6.212  0.5851  0.4401  0.2294
  270MOL0     C36348   4.973   9.798   6.262  0.0081  0.0696  0.5898
  270MOL0     C36349   5.089   9.774   6.202 -0.1173 -0.1221 -0.2029
  270MOL0     O36350   5.192   9.824   6.272 -0.5575 -0.5754  0.3758
  270MOL0     C36351   5.325   9.825   6.226 -0.1815  0.7789  0.0319
  270MOL0     C36352   5.405   9.894   6.341  0.9635 -0.4583 -0.1906
  270MOL0     C36353   5.543   9.847   6.330 -0.6124 -0.0290 -1.1605
  270MOL0     C36354   5.627   9.890   6.208 -0.3752 -0.3274  0.1244
  270MOL0     C36355   5.772   9.841   6.227  0.3731  0.1415 -0.0803
  270MOL0     C36356   5.863   9.882   6.106  0.0698  0.1942  0.9017
  270MOL0     C36357   6.012   9.830   6.114 -0.3637  0.4681 -0.4574
  270MOL0     C36358   6.116   9.914   6.178 -0.4414  0.6644  0.2249
  270MOL0    Cl36359   6.257   9.810   6.157  0.0347 -0.0490  0.0050
  270MOL0     C36360   5.111   9.689   6.089 -0.5649  0.7166 -0.4014
  270MOL0     C36361   5.005   9.618   6.049 -0.5579 -0.6004 -0.2291
  270MOL0     O36362   4.701   9.722   5.927 -0.6073  0.2347 -0.0157
  270MOL0     C36363   4.449   9.619   5.900 -0.2886  0.8202  0.3577
  270MOL0     C36364   4.321   9.561   5.893 -0.4724 -0.4237  0.7009
  270MOL0     N36365   3.525   9.402   5.903  1.2948  0.6051  0.4768
  270MOL0     N36366   3.469   9.517   5.912  0.5385  0.3730  0.7986
  270MOL0     C36367   2.864   8.927   6.349 -0.6845 -0.3250  0.6078
  270MOL0     C36368   2.740   8.879   6.316  0.8693 -0.2306  0.5672
  270MOL0     C36369   2.432   8.654   6.088  0.2538 -0.1011  0.0817
  270MOL0     C36370   2.321   8.701   6.164 -0.7525 -0.4160  0.4361
  270MOL0     C36371   2.183   8.664   6.146 -0.6285 -0.0849 -0.0007
  270MOL0     C36372   2.157   8.568   6.053  0.1927  0.7460 -0.1612
  270MOL0     O36373   2.029   8.521   6.028  0.3085 -0.4939 -0.4914
  270MOL0     C36374   1.949   8.462   6.129 -0.4721 -0.7523 -0.3884
  270MOL0     C36375   1.886   8.330   6.092  0.0318 -1.0398 -1.1421
  270MOL0     C36376   1.987   8.221   6.052  0.0843 -0.0228 -0.4200
  270MOL0     C36377   2.076   8.188   6.168  0.8596 -0.2923  0.3807
  270MOL0     C36378   2.163   8.069   6.135  0.2141 -0.2016  0.2484
  270MOL0     C36379   2.238   7.977   6.100  0.4770  0.8277  0.2121
  270MOL0     C36380   2.260   8.525   5.973 -0.8191 -0.2596  0.8542
  270MOL0     C36381   2.400   8.556   5.990 -0.1733 -0.8037  0.2538
  270MOL0     C36382   2.504   8.488   5.912  0.4801 -0.1847 -0.1732
  270MOL0     H36383   2.726   8.953   5.997 -0.5274  3.4809  0.4072
  270MOL0     H36384   2.958   9.030   6.040 -1.8355  2.8298 -0.3700
  270MOL0     H36385   2.999   9.186   6.451  0.0851 -0.6500  2.1516
  270MOL0     H36386   3.112   9.062   6.478 -2.8640  0.4732  1.1963
  270MOL0     H36387   3.287   9.151   6.349 -0.1367 -1.8289  0.0549
  270MOL0     H36388   3.236   9.235   6.491 -1.4976  0.6480  0.1245
  270MOL0     H36389   3.093   9.385   6.320  0.4674 -0.1803  0.0675
  270MOL0     H36390   3.217   9.322   6.204  3.0503  2.2553  0.2232
  270MOL0     H36391   3.272   9.495   6.439  0.5912  1.5033  0.1580
  270MOL0     H36392   3.397   9.417   6.327 -1.7362 -3.5160 -3.1495
  270MOL0     H36393   3.305   9.529   6.141 -1.3251  1.0660 -1.4534
  270MOL0     H36394   3.168   9.615   6.233  1.1233  3.0541  2.5877
  270MOL0     H36395   3.294   9.790   6.243 -0.5975 -0.4731 -2.4405
  270MOL0     H36396   3.363   9.704   6.384 -1.8097  1.5857 -0.4392
  270MOL0     H36397   3.537   9.600   6.262 -2.4023 -0.3636  0.6906
  270MOL0     H36398   3.543   9.775   6.284 -0.5155 -0.0669 -1.5388
  270MOL0     H36399   3.397   9.739   6.042 -0.6652  1.7997  2.7691
  270MOL0     H36400   3.568   9.780   6.044 -0.4099  1.9194  1.6335
  270MOL0     H36401   3.715   9.547   6.119  2.7260  3.6148 -4.7755
  270MOL0     H36402   3.709   9.222   6.070 -1.7286  1.6521  1.6768
  270MOL0     H36403   3.735   9.233   5.891  0.2463  0.1412  0.7136
  270MOL0     H36404   3.892   9.428   5.922 -0.1086 -1.8736 -2.2158
  270MOL0     H36405   3.889   9.380   6.103 -1.7851 -0.9229  0.6170
  270MOL0     H36406   3.979   9.242   5.868 -0.1059  0.4112  0.8956
  270MOL0     H36407   3.950   9.148   6.016 -3.0519  0.2736  0.8681
  270MOL0     H36408   4.187   9.202   6.022 -1.3270 -1.7932  2.5570
  270MOL0     H36409   4.105   9.312   6.135  0.3953 -0.5756  0.0807
  270MOL0     H36410   4.356   9.303   6.107  1.0756 -1.2206 -1.7479
  270MOL0     H36411   4.593   9.383   6.110 -0.6726 -2.0208 -0.2230
  270MOL0     H36412   4.763   9.759   6.250 -2.2632 -2.1168 -4.3595
  270MOL0     H36413   4.966   9.869   6.344 -0.0585  0.3017  0.3814
  270MOL0     H36414   5.354   9.721   6.212  3.4443  1.4658  1.0776
  270MOL0     H36415   5.328   9.881   6.132 -1.5951  0.5870 -0.1356
  270MOL0     H36416   5.411  10.002   6.327  0.6723 -0.6459 -2.1237
  270MOL0     H36417   5.369   9.865   6.440 -1.2389  0.0765 -0.7764
  270MOL0     H36418   5.603   9.876   6.417 -0.8595 -0.8917 -0.6925
  270MOL0     H36419   5.542   9.739   6.347 -0.7198 -0.1497 -1.9014
  270MOL0     H36420   5.618   9.999   6.205 -1.8797 -0.4555 -1.1781
  270MOL0     H36421   5.595   9.857   6.108  1.9475  0.2160 -0.8710
  270MOL0     H36422   5.764   9.732   6.227 -1.2887  0.2053 -1.6684
  270MOL0     H36423   5.811   9.880   6.321  1.9109 -1.1097 -0.1607
  270MOL0     H36424   5.825   9.837   6.015  0.5514 -1.5975  1.5369
  270MOL0     H36425   5.858   9.990   6.088 -2.8628  0.1462  1.0287
  270MOL0     H36426   6.038   9.816   6.009 -2.4304  0.9516 -1.0578
  270MOL0     H36427   6.007   9.733   6.164  0.7636  1.3915  1.5562
  270MOL0     H36428   6.126  10.016   6.141  1.1224  0.6499  0.5319
  270MOL0     H36429   6.103   9.904   6.287  0.9113 -0.9925  0.2668
  270MOL0     H36430   5.211   9.677   6.047  0.3000  1.2472  1.4276
  270MOL0     H36431   5.009   9.543   5.970  0.1035 -3.0729  2.0099
  270MOL0     H36432   4.479   9.713   5.856  0.2584  0.4999  0.0453
  270MOL0     H36433   4.257   9.612   5.822 -0.4540  1.0695  1.7113
  270MOL0     H36434   2.901   8.937   6.451  1.7700  3.3598 -0.4274
  270MOL0     H36435   2.673   8.851   6.396  1.6092  1.7062  1.9682
  270MOL0     H36436   2.345   8.783   6.231  0.8627  2.2208 -3.0308
  270MOL0     H36437   2.096   8.697   6.202 -1.0323  0.1549 -0.7501
  270MOL0     H36438   1.871   8.539   6.129 -0.7968 -1.0119 -2.6173
  270MOL0     H36439   2.007   8.469   6.221  0.2450  2.8447 -0.9420
  270MOL0     H36440   1.811   8.359   6.017 -0.3495 -0.4951 -0.5638
  270MOL0     H36441   1.836   8.303   6.186 -0.7325 -1.3021 -1.6107
  270MOL0     H36442   2.043   8.254   5.965  0.1353 -1.8556 -1.1294
  270MOL0     H36443   1.924   8.138   6.021  1.2171 -1.7342  1.5775
  270MOL0     H36444   2.138   8.274   6.194  1.3595 -1.0718  1.8494
  270MOL0     H36445   2.015   8.164   6.255  2.1427 -0.0028  1.3839
  270MOL0     H36446   2.284   7.901   6.040  2.4583  0.5799  1.9260
  270MOL0     H36447   2.228   8.456   5.895  1.3001 -0.3151 -0.0302
  270MOL0     H36448   2.464   8.467   5.812  3.3681  0.1485 -1.4849
  270MOL0     H36449   2.599   8.541   5.908  0.9137 -1.0142 -2.9772
  270MOL0     H36450   2.512   8.390   5.961  0.9720  0.1827  0.5013
  271MOL0     O36451   4.005   9.901   6.296 -0.6078 -0.5699  0.2814
  271MOL0     C36452   4.048   9.908   6.180 -0.4654 -0.0654  0.1879
  271MOL0     O36453   4.167   9.863   6.138 -0.3640  0.3577  0.6668
  271MOL0     C36454   4.228   9.754   6.202 -0.3890 -0.1352 -1.8277
  271MOL0     C36455   4.168   9.638   6.256  0.4773 -0.1901 -0.3144
  271MOL0     C36456   4.244   9.544   6.327  0.1381 -0.3869 -0.0597
  271MOL0     C36457   4.382   9.554   6.360  0.6129 -1.2162 -0.8074
  271MOL0     O36458   4.428   9.459   6.443 -0.7168 -0.7534  0.0846
  271MOL0     C36459   4.564   9.438   6.451 -0.1945  0.1147  0.3370
  271MOL0     C36460   4.592   9.342   6.565 -0.2915  0.5708 -1.2693
  271MOL0     C36461   4.747   9.299   6.549  0.1609  0.2468  0.0070
  271MOL0     C36462   4.790   9.213   6.666 -0.0845 -0.1721  0.5648
  271MOL0     C36463   4.819   9.304   6.782 -0.2245  0.2525  0.2444
  271MOL0     C36464   4.823   9.229   6.917 -0.9371  0.5275 -0.4766
  271MOL0     C36465   4.840   9.320   7.046  0.2993  0.3384 -0.4216
  271MOL0     C36466   4.966   9.409   7.043  0.5237  0.0535  0.2384
  271MOL0     N36467   5.086   9.327   7.058  0.1481  0.5296 -0.2540
  271MOL0     C36468   5.211   9.351   7.014  0.7418 -0.3285  0.6025
  271MOL0     C36469   5.294   9.258   7.063 -0.1927  0.3852 -0.0672
  271MOL0     C36470   5.443   9.281   7.043 -0.9224  0.9251 -0.8049
  271MOL0     C36471   5.498   9.167   6.957  1.0175 -0.1189 -0.6375
  271MOL0     C36472   5.649   9.172   6.923  0.2552 -0.5742 -0.6824
  271MOL0     C36473   5.744   9.169   7.043 -0.0731 -1.0833  0.5284
  271MOL0     O36474   5.881   9.185   6.992 -0.3053 -0.3264  0.5042
  271MOL0     C36475   5.986   9.153   7.078  0.3592  0.3087  0.2258
  271MOL0     C36476   5.996   9.155   7.216  0.3661 -0.1811 -0.5177
  271MOL0     C36477   6.116   9.113   7.285 -0.5481  0.5658 -0.8412
  271MOL0     C36478   6.230   9.083   7.227 -0.3177 -0.0707 -0.0349
  271MOL0     C36479   6.363   9.053   7.292  0.6106 -0.2935 -0.2047
  271MOL0     O36480   6.352   9.029   7.429 -0.3487 -0.5122  0.2569
  271MOL0     C36481   6.470   9.001   7.497 -0.5191  0.3111  0.3587
  271MOL0     C36482   6.479   8.891   7.581 -0.5085  0.0855 -0.7722
  271MOL0     C36483   6.590   8.881   7.666 -0.5945  0.7971 -0.1818
  271MOL0     C36484   6.697   8.970   7.663  0.2818 -0.2251  0.0314
  271MOL0     O36485   6.805   8.935   7.743 -0.8667 -0.0747 -0.4508
  271MOL0     C36486   6.883   9.038   7.775  0.1964 -0.1080  0.2075
  271MOL0     C36487   7.001   8.987   7.861 -0.5622 -0.2217 -0.2336
  271MOL0     C36488   7.099   9.110   7.866  0.2705 -0.4430  0.3840
  271MOL0     C36489   7.211   9.109   7.968  1.0812 -0.7252  0.0873
  271MOL0     C36490   7.312   8.998   7.963  0.0249  0.0768 -0.0508
  271MOL0     C36491   7.383   8.975   8.099 -0.3531  0.6492 -0.0570
  271MOL0     C36492   7.445   8.832   8.103 -0.1191 -0.5250  0.0515
  271MOL0     C36493   7.469   8.791   8.248 -0.0650 -0.7075 -0.7700
  271MOL0    Cl36494   7.615   8.873   8.304 -0.4122  0.1088  0.1870
  271MOL0     C36495   6.680   9.081   7.573  0.2982 -1.0878 -0.2268
  271MOL0     C36496   6.570   9.098   7.495 -0.1351 -0.1794 -0.1241
  271MOL0     O36497   6.471   9.050   7.226  0.5753  0.0216 -0.0453
  271MOL0     C36498   6.222   9.083   7.088 -1.0378 -0.0629 -0.1373
  271MOL0     C36499   6.104   9.108   7.018  0.3459 -0.1629 -0.0138
  271MOL0     N36500   5.225   9.173   7.146 -0.2131 -0.3483 -0.0477
  271MOL0     N36501   5.103   9.222   7.150 -0.2708 -0.9277  0.1144
  271MOL0     C36502   4.439   9.666   6.305 -0.9637  0.5673  0.2166
  271MOL0     C36503   4.369   9.757   6.221 -0.2077  0.0108 -0.3341
  271MOL0     C36504   3.966   9.990   6.082  0.3823  0.1496  0.3580
  271MOL0     C36505   4.034  10.043   5.968  0.2622 -0.1617 -0.2044
  271MOL0     C36506   3.973  10.136   5.886 -0.6421 -0.3866  1.4168
  271MOL0     C36507   3.845  10.184   5.913  0.5092  0.1822 -0.2898
  271MOL0     O36508   3.784  10.267   5.827  0.1835  0.6414 -0.3478
  271MOL0     C36509   3.665  10.338   5.854  0.7183  0.8144 -0.2885
  271MOL0     C36510   3.667  10.447   5.751 -0.2943  0.5257 -0.9430
  271MOL0     C36511   3.660  10.397   5.600 -0.1856  0.5947  0.5076
  271MOL0     C36512   3.672  10.514   5.503 -0.0423 -0.3089 -0.3441
  271MOL0     C36513   3.643  10.471   5.368  0.2682 -0.5951 -0.5005
  271MOL0     C36514   3.614  10.436   5.256  0.7917  0.0991  0.5052
  271MOL0     C36515   3.766  10.111   6.009  0.2758  0.8158  0.2867
  271MOL0     C36516   3.833  10.023   6.093  0.8630 -0.1733  0.0282
  271MOL0     C36517   3.751   9.981   6.210 -0.3195  0.0121 -0.5807
  271MOL0     H36518   4.065   9.608   6.245 -0.0305  1.2912  0.2068
  271MOL0     H36519   4.190   9.456   6.360 -0.6872 -0.5301 -1.6837
  271MOL0     H36520   4.603   9.391   6.360 -0.4092  2.5335 -1.0999
  271MOL0     H36521   4.618   9.531   6.467 -1.4955  1.0284 -0.3516
  271MOL0     H36522   4.532   9.251   6.561  1.2459 -0.5648  0.3276
  271MOL0     H36523   4.581   9.390   6.663 -0.3567 -1.5928 -0.1651
  271MOL0     H36524   4.809   9.389   6.558 -0.1500  0.2281  4.5920
  271MOL0     H36525   4.770   9.254   6.452  0.6605 -1.7192  0.9901
  271MOL0     H36526   4.707   9.145   6.687 -1.2741  0.9918 -0.1659
  271MOL0     H36527   4.878   9.150   6.655 -1.0114 -1.2600 -1.0064
  271MOL0     H36528   4.913   9.350   6.750  1.0874 -1.5770  1.2979
  271MOL0     H36529   4.745   9.385   6.789 -0.4208  0.5921 -3.6169
  271MOL0     H36530   4.734   9.166   6.928 -0.8916  0.7641  1.6431
  271MOL0     H36531   4.911   9.165   6.912 -0.2122  1.2782  1.5178
  271MOL0     H36532   4.825   9.248   7.127  1.4220 -1.6911 -1.9273
  271MOL0     H36533   4.753   9.386   7.040  0.3740  0.7833  2.2044
  271MOL0     H36534   4.961   9.459   6.946  3.3003 -0.6978 -0.3835
  271MOL0     H36535   4.956   9.482   7.123  0.6160  1.9383 -1.3941
  271MOL0     H36536   5.245   9.436   6.956 -2.1280 -1.1166 -2.5474
  271MOL0     H36537   5.471   9.382   7.011 -0.8929  1.9405  2.1301
  271MOL0     H36538   5.503   9.275   7.134  2.1772 -1.0686 -2.8158
  271MOL0     H36539   5.488   9.076   7.016  3.8818 -0.7450 -0.9578
  271MOL0     H36540   5.441   9.169   6.863 -1.1894  1.7853  0.6354
  271MOL0     H36541   5.675   9.256   6.857  0.0448 -1.2544 -1.6622
  271MOL0     H36542   5.673   9.084   6.863 -1.5530 -1.5128 -0.1050
  271MOL0     H36543   5.741   9.071   7.091 -1.6708 -1.4169 -0.2114
  271MOL0     H36544   5.710   9.247   7.112  2.8327 -1.6468  2.8106
  271MOL0     H36545   5.907   9.174   7.275  0.7912 -1.2886  0.5295
  271MOL0     H36546   6.110   9.126   7.392  2.6896  0.0174 -0.5037
  271MOL0     H36547   6.395   8.822   7.574 -0.7579  0.4224 -1.1391
  271MOL0     H36548   6.590   8.804   7.743 -0.6839  0.0073 -0.9639
  271MOL0     H36549   6.928   9.086   7.688 -1.4437  1.1535  0.0248
  271MOL0     H36550   6.831   9.118   7.828  0.5368 -3.2087  6.1117
  271MOL0     H36551   6.965   8.959   7.961 -0.1819 -0.4794 -0.1638
  271MOL0     H36552   7.041   8.898   7.811 -0.3465  0.0541 -0.5558
  271MOL0     H36553   7.150   9.129   7.771 -0.9728  1.0220 -0.0415
  271MOL0     H36554   7.049   9.202   7.897  3.8546  1.6973  0.3693
  271MOL0     H36555   7.162   9.111   8.066  0.4793  2.5430 -0.1731
  271MOL0     H36556   7.270   9.199   7.951  1.6351 -1.1610 -0.3170
  271MOL0     H36557   7.386   9.011   7.884 -0.7359  0.3542 -0.7368
  271MOL0     H36558   7.263   8.901   7.949  1.0418 -0.9106  2.4698
  271MOL0     H36559   7.468   9.036   8.131  1.1224 -1.2230 -0.2328
  271MOL0     H36560   7.318   8.976   8.187  3.4677 -2.0056  3.2304
  271MOL0     H36561   7.544   8.837   8.056 -0.5651  3.0284 -0.8220
  271MOL0     H36562   7.387   8.746   8.071 -0.9216  0.5651 -1.5638
  271MOL0     H36563   7.376   8.815   8.301 -1.3059  1.6220 -3.6787
  271MOL0     H36564   7.496   8.685   8.243 -0.9306 -0.8817 -3.1714
  271MOL0     H36565   6.757   9.157   7.566 -0.4867 -0.3710 -1.2964
  271MOL0     H36566   6.571   9.182   7.426 -2.1520  0.5117  0.5997
  271MOL0     H36567   6.315   9.068   7.034 -1.6196 -1.8327 -0.7009
  271MOL0     H36568   6.112   9.118   6.910 -1.4326  1.4197 -0.0474
  271MOL0     H36569   4.546   9.659   6.325 -1.2016  0.0167  1.3849
  271MOL0     H36570   4.413   9.847   6.178 -1.6290  0.8430 -0.1029
  271MOL0     H36571   4.134  10.010   5.942  0.4900  0.3467  0.0250
  271MOL0     H36572   4.026  10.176   5.800 -3.2113  1.4514  0.5723
  271MOL0     H36573   3.664  10.377   5.956 -2.3913  0.2268  0.0162
  271MOL0     H36574   3.569  10.287   5.844  0.1917  0.9580  2.8703
  271MOL0     H36575   3.765  10.490   5.773  0.1421  0.3625 -2.5051
  271MOL0     H36576   3.591  10.525   5.766 -0.9392 -0.2713  0.1084
  271MOL0     H36577   3.569  10.339   5.583  1.2855 -1.4891 -0.6225
  271MOL0     H36578   3.745  10.331   5.583  0.2575  0.3095  3.3938
  271MOL0     H36579   3.608  10.601   5.521 -0.0719 -0.8754  2.8504
  271MOL0     H36580   3.773  10.556   5.503 -0.9049  1.9107 -1.7661
  271MOL0     H36581   3.575  10.396   5.165  0.2116 -1.6237  1.4782
  271MOL0     H36582   3.661  10.126   6.031  0.7771  0.3933  3.3977
  271MOL0     H36583   3.771   9.876   6.233  0.3876 -0.1171 -1.7094
  271MOL0     H36584   3.785  10.035   6.299 -0.3757 -0.0966 -0.4931
  271MOL0     H36585   3.644   9.992   6.195 -0.1533 -0.4505 -2.3545
  272MOL0     O36586   2.058   5.341   6.539 -0.0939 -0.2871 -0.1513
  272MOL0     C36587   2.068   5.308   6.658  0.2787  0.4534  0.4972
  272MOL0     O36588   2.148   5.214   6.708  0.0133 -0.5072 -0.4153
  272MOL0     C36589   2.223   5.133   6.636 -0.3632  0.4560 -0.5401
  272MOL0     C36590   2.175   5.066   6.525  0.6743  1.1191  0.5962
  272MOL0     C36591   2.259   4.978   6.451  0.5372 -1.0489  1.0042
  272MOL0     C36592   2.393   4.974   6.487  0.6268  0.7820  0.2655
  272MOL0     O36593   2.494   4.900   6.427 -0.3076 -0.5028 -0.0617
  272MOL0     C36594   2.468   4.803   6.319 -0.5596 -0.3788  0.5599
  272MOL0     C36595   2.397   4.676   6.368  0.4298  0.1251  0.1772
  272MOL0     C36596   2.471   4.602   6.489 -0.5377  0.2923 -0.0659
  272MOL0     C36597   2.416   4.463   6.516 -0.5404  0.9131  0.8476
  272MOL0     C36598   2.527   4.350   6.539  0.5480 -0.8206  0.2932
  272MOL0     C36599   2.568   4.382   6.688  0.2998  0.3532  0.7563
  272MOL0     C36600   2.647   4.256   6.743 -0.6229 -0.1592 -0.3210
  272MOL0     C36601   2.790   4.241   6.699 -0.3485  0.0507  1.1063
  272MOL0     N36602   2.873   4.138   6.768  0.6546 -0.0096 -0.5649
  272MOL0     C36603   2.903   4.015   6.715  0.0775  0.4782  0.9273
  272MOL0     C36604   2.961   3.948   6.821 -0.3176  0.0891  0.7014
  272MOL0     C36605   3.004   3.795   6.825 -0.6203 -0.6843 -0.3132
  272MOL0     C36606   3.144   3.783   6.881  0.0794  0.0270  0.0036
  272MOL0     C36607   3.199   3.639   6.866  0.8053 -0.2530 -0.3841
  272MOL0     C36608   3.351   3.623   6.874 -0.7523  1.0287  0.0726
  272MOL0     O36609   3.387   3.671   6.997  0.2429  0.2493 -0.0520
  272MOL0     C36610   3.508   3.633   7.038 -0.7656 -0.1707 -0.2017
  272MOL0     C36611   3.560   3.506   7.065  0.2680 -0.2495  0.4306
  272MOL0     C36612   3.695   3.488   7.101  0.7145  0.4755  0.2367
  272MOL0     C36613   3.778   3.602   7.119 -0.3502  0.1573  0.1320
  272MOL0     C36614   3.924   3.567   7.152 -0.6523 -0.7937  0.0614
  272MOL0     O36615   4.006   3.679   7.164  0.3042  0.7005 -0.1407
  272MOL0     C36616   4.145   3.661   7.156  1.4242  1.0607 -0.4448
  272MOL0     C36617   4.217   3.702   7.045  0.5323 -0.2830 -0.4011
  272MOL0     C36618   4.350   3.666   7.026  0.4125  0.2268  0.2617
  272MOL0     C36619   4.426   3.602   7.123  0.3251 -0.0864  0.0135
  272MOL0     O36620   4.560   3.576   7.090  0.4194  0.6381 -0.3131
  272MOL0     C36621   4.646   3.546   7.205 -0.6661 -0.1855  0.0983
  272MOL0     C36622   4.790   3.518   7.168 -0.2945  0.1221 -0.0615
  272MOL0     C36623   4.870   3.550   7.299 -0.1494 -0.4851  0.3854
  272MOL0     C36624   5.015   3.489   7.284  0.9090 -0.5039  0.4282
  272MOL0     C36625   5.117   3.537   7.380  0.3115  0.3416 -0.2523
  272MOL0     C36626   5.099   3.490   7.524 -0.6144  0.1399 -0.3412
  272MOL0     C36627   5.233   3.477   7.600  0.0065  0.3591 -0.2008
  272MOL0     C36628   5.321   3.600   7.620  0.0184  0.0254  0.1770
  272MOL0    Cl36629   5.230   3.749   7.584 -0.5070  0.5043 -0.1201
  272MOL0     C36630   4.358   3.569   7.246  1.3754  1.0831  0.2795
  272MOL0     C36631   4.220   3.586   7.252  0.6730  0.5566 -0.5896
  272MOL0     O36632   3.961   3.449   7.155  0.5881  0.4129 -0.2994
  272MOL0     C36633   3.728   3.733   7.088  0.1263  1.3813  0.1475
  272MOL0     C36634   3.596   3.743   7.059  0.8636 -0.4324 -0.5619
  272MOL0     N36635   2.972   4.039   6.932  0.5109 -1.1572 -0.1949
  272MOL0     N36636   2.937   4.148   6.879 -0.1815  0.0992 -0.4329
  272MOL0     C36637   2.435   5.042   6.608 -0.5148  1.1939  0.2585
  272MOL0     C36638   2.355   5.123   6.680  0.1897  0.7115 -0.5686
  272MOL0     C36639   1.987   5.374   6.759  0.7212  1.5252  1.1058
  272MOL0     C36640   2.032   5.373   6.897 -0.2581 -0.1686  0.1656
  272MOL0     C36641   1.959   5.440   6.994 -0.0240  0.4040  0.0921
  272MOL0     C36642   1.836   5.504   6.975 -0.2642  0.1511 -0.5419
  272MOL0     O36643   1.766   5.574   7.064  0.3319 -0.0631 -0.3014
  272MOL0     C36644   1.826   5.615   7.181 -0.8427 -0.0632 -0.6847
  272MOL0     C36645   1.723   5.696   7.272  0.3045  1.3065 -0.2912
  272MOL0     C36646   1.755   5.732   7.411 -0.2899 -0.2719 -0.1709
  272MOL0     C36647   1.758   5.612   7.520  0.2979 -0.1334  0.2922
  272MOL0     C36648   1.641   5.526   7.509 -0.1541 -1.1744 -0.5631
  272MOL0     C36649   1.545   5.456   7.510 -0.3155  0.0474  0.6556
  272MOL0     C36650   1.786   5.492   6.843  0.5148  0.4916 -0.0740
  272MOL0     C36651   1.858   5.419   6.740  0.6501 -0.9868  1.0538
  272MOL0     C36652   1.783   5.414   6.609 -0.1149  0.1252  0.6097
  272MOL0     H36653   2.076   5.098   6.492 -0.7713  2.0925  5.0991
  272MOL0     H36654   2.225   4.935   6.358 -2.9221 -0.3892  1.8318
  272MOL0     H36655   2.395   4.852   6.255  0.2148  2.2869  1.5970
  272MOL0     H36656   2.563   4.776   6.271 -1.0595  0.2261 -0.8231
  272MOL0     H36657   2.394   4.608   6.282 -2.8001 -1.9690  1.7368
  272MOL0     H36658   2.296   4.707   6.397  1.9214  3.3408  2.4798
  272MOL0     H36659   2.463   4.673   6.571  2.5324  1.4048 -0.6205
  272MOL0     H36660   2.574   4.586   6.456 -1.1505 -0.3861 -1.7762
  272MOL0     H36661   2.346   4.467   6.600 -0.0528  3.3798  1.2089
  272MOL0     H36662   2.364   4.427   6.426  2.6866  0.6382 -1.0568
  272MOL0     H36663   2.480   4.251   6.532  0.1339 -0.9548  3.4411
  272MOL0     H36664   2.614   4.359   6.473  1.2405  0.0408  1.2945
  272MOL0     H36665   2.641   4.463   6.687  0.0413  0.6328 -1.5067
  272MOL0     H36666   2.474   4.402   6.741 -1.2930 -1.8820 -1.0264
  272MOL0     H36667   2.597   4.163   6.715  0.8922 -1.3343  0.7266
  272MOL0     H36668   2.643   4.266   6.851  0.2769  1.3163 -0.3955
  272MOL0     H36669   2.783   4.200   6.598  1.2558 -1.5991  1.6260
  272MOL0     H36670   2.841   4.337   6.710 -1.4301  0.4867  2.8432
  272MOL0     H36671   2.883   3.969   6.619 -2.7411  1.5460  0.9253
  272MOL0     H36672   2.937   3.725   6.876 -1.8285 -2.7726 -4.2947
  272MOL0     H36673   3.005   3.751   6.725  1.9936 -0.8159 -0.2891
  272MOL0     H36674   3.219   3.850   6.837 -1.9062  2.1492 -0.3484
  272MOL0     H36675   3.137   3.795   6.990  1.4054  0.5325  0.0594
  272MOL0     H36676   3.163   3.600   6.770 -0.1103  1.5788 -0.8300
  272MOL0     H36677   3.149   3.576   6.940 -3.0213 -0.7056 -3.0333
  272MOL0     H36678   3.395   3.680   6.792  0.6969  1.1935  0.9223
  272MOL0     H36679   3.383   3.519   6.864  2.0120  1.3741  3.3649
  272MOL0     H36680   3.487   3.429   7.043  0.0773 -0.2546  1.0641
  272MOL0     H36681   3.733   3.387   7.112  2.4200  1.1463  0.8992
  272MOL0     H36682   4.168   3.754   6.962  0.2371  1.0888  0.5921
  272MOL0     H36683   4.396   3.689   6.931  2.7053  1.0963  1.5189
  272MOL0     H36684   4.640   3.629   7.276  3.5388 -0.0291  0.5519
  272MOL0     H36685   4.610   3.457   7.256 -1.0213  1.1167  2.2675
  272MOL0     H36686   4.799   3.413   7.142  3.5014  0.3065 -0.0511
  272MOL0     H36687   4.818   3.593   7.093 -3.8639  2.1024  0.3271
  272MOL0     H36688   4.878   3.656   7.323  0.7388 -0.9251  2.2640
  272MOL0     H36689   4.830   3.504   7.390  0.0608 -2.1541 -0.3270
  272MOL0     H36690   5.058   3.528   7.191  2.2162 -1.0850  0.7616
  272MOL0     H36691   5.016   3.380   7.275 -1.3015 -0.7899  2.6162
  272MOL0     H36692   5.109   3.645   7.392 -1.6953  0.0248  1.8156
  272MOL0     H36693   5.213   3.512   7.334  1.3757  0.6521  1.7303
  272MOL0     H36694   5.035   3.548   7.591  2.7552 -0.8109  4.1349
  272MOL0     H36695   5.062   3.388   7.509  2.9355 -1.0997 -1.6487
  272MOL0     H36696   5.300   3.400   7.559  0.0640 -0.6856  1.7127
  272MOL0     H36697   5.200   3.429   7.693 -1.9587 -2.9563 -2.4095
  272MOL0     H36698   5.354   3.596   7.724 -1.4776 -0.8821  0.6388
  272MOL0     H36699   5.409   3.590   7.555 -0.6060 -2.7145 -0.3633
  272MOL0     H36700   4.413   3.529   7.330  1.2057  2.3607  1.0300
  272MOL0     H36701   4.159   3.549   7.335 -3.6209  1.7206 -2.9058
  272MOL0     H36702   3.791   3.820   7.105 -0.6558  2.3401 -1.6152
  272MOL0     H36703   3.556   3.843   7.050 -0.4077 -0.6437  1.8412
  272MOL0     H36704   2.541   5.041   6.629 -0.3897 -1.6543 -0.1347
  272MOL0     H36705   2.394   5.178   6.765  1.8107 -1.8910  0.4794
  272MOL0     H36706   2.130   5.332   6.920  0.2383  0.4420 -0.7789
  272MOL0     H36707   2.013   5.446   7.088  2.0153 -0.8028 -0.9181
  272MOL0     H36708   1.915   5.676   7.172  0.9849 -2.0935  2.0006
  272MOL0     H36709   1.853   5.521   7.231 -0.2778  1.1184  1.3248
  272MOL0     H36710   1.621   5.661   7.253  0.8614 -0.5828  0.0250
  272MOL0     H36711   1.740   5.792   7.222  3.8188 -0.3362 -2.6635
  272MOL0     H36712   1.689   5.807   7.455 -2.2081 -1.7098 -0.4908
  272MOL0     H36713   1.856   5.774   7.419 -0.1218 -0.9799  2.5559
  272MOL0     H36714   1.846   5.548   7.504 -0.3325 -0.7608 -0.7491
  272MOL0     H36715   1.772   5.652   7.621 -1.3746  3.2961 -0.7182
  272MOL0     H36716   1.455   5.399   7.519 -1.7606  2.1542  0.4874
  272MOL0     H36717   1.683   5.521   6.826 -0.0277 -0.8747  0.7090
  272MOL0     H36718   1.822   5.330   6.551  0.5361  0.4429  0.5707
  272MOL0     H36719   1.677   5.399   6.631 -0.3011 -0.8331 -0.8496
  272MOL0     H36720   1.797   5.502   6.545  2.9486 -0.8379 -0.2126
  273MOL0     O36721   5.132   7.735  10.393  0.1871  0.9724 -0.4831
  273MOL0     C36722   5.041   7.665  10.338 -0.3667  0.1681 -0.7645
  273MOL0     O36723   5.048   7.534  10.323  0.4904  0.0904 -0.2623
  273MOL0     C36724   5.155   7.450  10.362 -0.4363 -0.5213  0.0548
  273MOL0     C36725   5.208   7.465  10.491 -0.0861  0.8985  0.3489
  273MOL0     C36726   5.315   7.387  10.520  0.9212 -0.7661 -0.7828
  273MOL0     C36727   5.392   7.310  10.429 -0.4863 -1.0128  0.3177
  273MOL0     O36728   5.515   7.256  10.462  0.0291  0.0945 -0.3529
  273MOL0     C36729   5.579   7.171  10.365 -0.3952 -0.1522  0.8414
  273MOL0     C36730   5.708   7.111  10.430  0.3650  0.1809 -0.6372
  273MOL0     C36731   5.780   7.040  10.316  0.6119 -1.2069  0.3508
  273MOL0     C36732   5.867   6.937  10.383  0.0223  0.0454 -0.0029
  273MOL0     C36733   5.964   6.852  10.291 -0.6720  0.1707  0.4830
  273MOL0     C36734   6.056   6.766  10.376  0.1548 -1.1805  0.0388
  273MOL0     C36735   6.135   6.679  10.286 -0.7102 -0.3206  0.9780
  273MOL0     C36736   6.238   6.735  10.181  0.1161 -0.2706 -0.2793
  273MOL0     N36737   6.174   6.801  10.066 -0.2870  0.0987 -0.5055
  273MOL0     C36738   6.190   6.936  10.041 -0.2554 -0.4829 -0.4550
  273MOL0     C36739   6.088   6.966   9.954  0.0469 -0.6435 -0.2804
  273MOL0     C36740   6.050   7.100   9.891 -0.5005  0.0813 -0.4989
  273MOL0     C36741   5.900   7.122   9.920 -0.4704  0.7547 -0.0424
  273MOL0     C36742   5.846   7.244   9.839 -0.2239  1.2043  0.1638
  273MOL0     C36743   5.689   7.256   9.837 -0.3197  0.6446 -0.4836
  273MOL0     O36744   5.636   7.277   9.971 -0.4094  0.4003 -0.1643
  273MOL0     C36745   5.534   7.364   9.972  0.8009  0.3746 -0.0066
  273MOL0     C36746   5.531   7.477  10.042  0.4308  0.6577  0.2516
  273MOL0     C36747   5.428   7.563  10.035  0.6207 -0.4552 -0.0235
  273MOL0     C36748   5.317   7.543   9.957 -0.0429  0.3571  0.0538
  273MOL0     C36749   5.214   7.646   9.934 -0.3344  0.3802 -0.2030
  273MOL0     O36750   5.146   7.636   9.815 -0.6245 -0.4081  0.5218
  273MOL0     C36751   5.049   7.726   9.798  0.9471 -0.6056 -0.4181
  273MOL0     C36752   5.043   7.820   9.699  0.3848 -0.2842 -0.0728
  273MOL0     C36753   4.922   7.892   9.672  0.1825  0.2172 -0.2269
  273MOL0     C36754   4.811   7.880   9.758 -0.3762  0.7899  0.3123
  273MOL0     O36755   4.692   7.941   9.744 -0.0828  0.0499  0.8382
  273MOL0     C36756   4.635   7.953   9.614 -1.1397  0.3816  0.5470
  273MOL0     C36757   4.482   7.949   9.637 -0.2834  0.0883 -0.5855
  273MOL0     C36758   4.410   7.970   9.503 -0.4706 -0.4654  0.4896
  273MOL0     C36759   4.259   7.965   9.538  0.4636 -0.6526  0.3937
  273MOL0     C36760   4.176   8.021   9.421  0.3263 -0.2443 -0.3904
  273MOL0     C36761   4.181   7.924   9.304 -0.7510  0.9297 -0.0872
  273MOL0     C36762   4.099   7.974   9.181  0.1903 -0.3353 -0.1345
  273MOL0     C36763   3.945   7.940   9.203 -0.4212  1.0845 -0.5229
  273MOL0    Cl36764   3.923   7.761   9.198 -0.0259  0.3086  0.1251
  273MOL0     C36765   4.810   7.786   9.863 -1.2893  0.1364 -0.2983
  273MOL0     C36766   4.932   7.706   9.868  0.0775  0.4537  0.0349
  273MOL0     O36767   5.216   7.744  10.011 -0.5425  0.4020  0.7322
  273MOL0     C36768   5.316   7.423   9.884  1.2086 -0.6824 -0.0264
  273MOL0     C36769   5.428   7.332   9.888  0.3750 -0.0177  0.5764
  273MOL0     N36770   6.014   6.851   9.933 -0.0200  0.6844  0.4649
  273MOL0     N36771   6.075   6.753   9.987 -0.3569  0.6601  0.3053
  273MOL0     C36772   5.328   7.297  10.303  0.5552 -0.2940  0.4367
  273MOL0     C36773   5.213   7.363  10.266  0.2029 -0.6890 -0.3291
  273MOL0     C36774   4.916   7.732  10.327  0.3542  0.9215  0.4119
  273MOL0     C36775   4.809   7.660  10.395  0.6504 -0.7408  0.0208
  273MOL0     C36776   4.683   7.712  10.397  1.1471  0.3597 -0.1016
  273MOL0     C36777   4.662   7.841  10.343  0.2229 -0.6479 -0.6738
  273MOL0     O36778   4.550   7.916  10.333  0.3823  0.1614  0.0991
  273MOL0     C36779   4.437   7.872  10.406  0.2498  0.0815 -0.0381
  273MOL0     C36780   4.318   7.813  10.338 -0.0535 -0.5116  0.7819
  273MOL0     C36781   4.244   7.920  10.246  0.2503 -0.1235 -0.3325
  273MOL0     C36782   4.308   7.961  10.111  0.1173  0.7902  0.0343
  273MOL0     C36783   4.377   7.855  10.039 -0.6224  0.1989  0.5202
  273MOL0     C36784   4.440   7.769   9.977  0.1554 -0.2242 -0.1503
  273MOL0     C36785   4.762   7.909  10.292 -0.0512  0.0014  0.8796
  273MOL0     C36786   4.897   7.858  10.275  0.1753 -0.5791 -0.4385
  273MOL0     C36787   4.990   7.960  10.208  0.1171 -0.3916  0.5019
  273MOL0     H36788   5.176   7.541  10.561  1.5401  2.2268 -0.2914
  273MOL0     H36789   5.355   7.419  10.616 -0.0068  0.8770 -0.8967
  273MOL0     H36790   5.508   7.091  10.342 -0.7254  0.0374  1.1948
  273MOL0     H36791   5.609   7.234  10.282 -2.3749  1.4339  1.2666
  273MOL0     H36792   5.671   7.039  10.504 -0.8960  2.3292  0.9446
  273MOL0     H36793   5.779   7.183  10.470  2.4963 -1.0010 -2.1321
  273MOL0     H36794   5.838   7.112  10.256  0.4158 -0.5494  0.9352
  273MOL0     H36795   5.711   6.985  10.252  2.9406 -2.3788 -1.3288
  273MOL0     H36796   5.924   6.989  10.460  1.0046  0.9925 -1.3253
  273MOL0     H36797   5.803   6.859  10.426 -0.5836  1.0527  0.9701
  273MOL0     H36798   5.893   6.793  10.232 -0.7212  2.1966 -1.6354
  273MOL0     H36799   6.019   6.915  10.222  0.8961 -2.2948 -0.6377
  273MOL0     H36800   6.112   6.828  10.447 -1.8007 -1.7274  2.1738
  273MOL0     H36801   6.015   6.691  10.444  2.2446 -1.6565  0.8483
  273MOL0     H36802   6.058   6.624  10.230 -1.7287  0.8239  1.1983
  273MOL0     H36803   6.191   6.608  10.348  0.7929 -0.0719 -0.0394
  273MOL0     H36804   6.323   6.788  10.224  2.3136 -3.1866 -0.6869
  273MOL0     H36805   6.279   6.642  10.140 -3.2971 -3.3046  2.3925
  273MOL0     H36806   6.269   6.999  10.079  0.7420 -2.5505  1.0925
  273MOL0     H36807   6.099   7.188   9.935 -4.4869  1.9776  0.5721
  273MOL0     H36808   6.070   7.096   9.784  1.0558 -0.5381 -0.2133
  273MOL0     H36809   5.841   7.039   9.880 -1.1504 -0.0411  2.4012
  273MOL0     H36810   5.885   7.142  10.027  1.1727 -1.5332  0.6836
  273MOL0     H36811   5.879   7.243   9.735 -0.7173  1.2739  0.0086
  273MOL0     H36812   5.885   7.336   9.884 -2.0854  1.1864  1.9631
  273MOL0     H36813   5.658   7.160   9.794 -0.6191 -0.1356  1.3727
  273MOL0     H36814   5.662   7.341   9.774  2.1962  1.3794 -0.6901
  273MOL0     H36815   5.616   7.494  10.107  0.4121  2.9212 -0.2170
  273MOL0     H36816   5.443   7.650  10.098 -1.9799 -0.1328  0.2304
  273MOL0     H36817   5.134   7.847   9.645 -0.7235 -1.4044 -2.6515
  273MOL0     H36818   4.922   7.974   9.601  0.8283  1.0901  0.7517
  273MOL0     H36819   4.659   8.049   9.568  2.2124 -0.7434 -0.3489
  273MOL0     H36820   4.666   7.878   9.542 -0.6506  1.9889 -0.9930
  273MOL0     H36821   4.445   7.857   9.682 -1.6857  2.2055  3.0727
  273MOL0     H36822   4.452   8.033   9.700  1.8546  1.5754 -1.4261
  273MOL0     H36823   4.426   8.072   9.467  2.7937  0.0361  2.8187
  273MOL0     H36824   4.436   7.892   9.431 -0.1870  0.0947 -0.0237
  273MOL0     H36825   4.246   8.039   9.617 -1.3029 -0.7653  0.2394
  273MOL0     H36826   4.223   7.870   9.577 -0.3539 -0.7759 -0.6262
  273MOL0     H36827   4.206   8.123   9.395 -0.3392  0.0648  0.0096
  273MOL0     H36828   4.080   8.036   9.471  1.1921  1.6534  0.8269
  273MOL0     H36829   4.283   7.927   9.265 -0.7546  0.5573 -0.1292
  273MOL0     H36830   4.159   7.822   9.335 -0.5698 -0.0072 -2.7612
  273MOL0     H36831   4.136   7.930   9.088 -0.8666 -0.3295 -0.5650
  273MOL0     H36832   4.129   8.079   9.174  0.1175 -0.4128 -2.1318
  273MOL0     H36833   3.924   7.980   9.303 -0.9830 -0.8539  0.1872
  273MOL0     H36834   3.868   7.982   9.138 -2.6019 -1.7293  0.0387
  273MOL0     H36835   4.727   7.787   9.933 -0.9143  0.1403  0.1465
  273MOL0     H36836   4.951   7.617   9.927 -3.2399 -0.8727 -0.6607
  273MOL0     H36837   5.232   7.401   9.819  0.6404 -2.0963  1.1267
  273MOL0     H36838   5.421   7.244   9.825 -2.3904  1.9545 -2.1693
  273MOL0     H36839   5.382   7.234  10.234  1.4863  0.0355  0.8402
  273MOL0     H36840   5.172   7.359  10.165  0.2768 -0.6981 -0.3584
  273MOL0     H36841   4.822   7.566  10.447  4.1787 -0.1442  0.5039
  273MOL0     H36842   4.604   7.657  10.447  1.4521  0.7222  0.7894
  273MOL0     H36843   4.399   7.966  10.447  2.3301 -0.2175  2.8959
  273MOL0     H36844   4.460   7.810  10.493 -0.8710  1.3098  1.1788
  273MOL0     H36845   4.250   7.762  10.407 -0.0102 -1.6116  0.0362
  273MOL0     H36846   4.363   7.734  10.279  1.2800  0.4505  0.4572
  273MOL0     H36847   4.222   8.010  10.303 -1.4681 -1.4709  1.2559
  273MOL0     H36848   4.146   7.872  10.234 -0.2191  0.1703  1.8419
  273MOL0     H36849   4.237   8.012  10.045  0.8444 -0.3749 -1.7351
  273MOL0     H36850   4.380   8.036  10.144 -0.6107  0.3531  2.8671
  273MOL0     H36851   4.480   7.688   9.919 -2.5588 -0.2058 -2.2736
  273MOL0     H36852   4.747   7.998  10.232  0.2474  0.3310  1.2875
  273MOL0     H36853   5.074   7.895  10.179 -0.3060 -1.2444  1.1415
  273MOL0     H36854   4.931   7.985  10.120 -4.7740 -1.8400  3.0444
  273MOL0     H36855   5.018   8.049  10.265 -3.2894 -0.2634  2.2230
  274MOL0     O36856   2.394   7.713   2.454 -0.9529  0.7817  0.0042
  274MOL0     C36857   2.273   7.717   2.495 -0.1091 -0.6030 -0.8069
  274MOL0     O36858   2.238   7.752   2.622  0.0113  0.5183 -0.1501
  274MOL0     C36859   2.333   7.778   2.708  0.1095 -0.1326 -1.1036
  274MOL0     C36860   2.436   7.876   2.701  0.5405  0.3527  0.3621
  274MOL0     C36861   2.532   7.878   2.802 -0.5550  0.1996 -0.2863
  274MOL0     C36862   2.531   7.790   2.912 -0.5265  0.0677  0.4387
  274MOL0     O36863   2.638   7.775   2.996  0.2182 -1.3619  0.3564
  274MOL0     C36864   2.748   7.872   2.991 -0.6343 -0.3761 -0.4025
  274MOL0     C36865   2.842   7.858   3.120  0.3949 -0.3082  0.9793
  274MOL0     C36866   2.891   8.001   3.155  0.3032  0.4306 -0.3047
  274MOL0     C36867   3.015   7.995   3.242  0.0962 -0.2447  0.0464
  274MOL0     C36868   3.145   7.984   3.173 -0.5947 -0.2072  0.4321
  274MOL0     C36869   3.257   8.051   3.256  0.9291 -0.0684  0.3249
  274MOL0     C36870   3.404   8.060   3.203 -0.2938  0.4900 -0.3524
  274MOL0     C36871   3.498   8.080   3.324  0.8769  0.6062  0.3625
  274MOL0     N36872   3.640   8.108   3.299 -0.7276 -0.7355  0.3304
  274MOL0     C36873   3.738   8.022   3.256 -0.3305  0.6208  0.4929
  274MOL0     C36874   3.851   8.099   3.235  0.1724  0.4948 -0.2246
  274MOL0     C36875   3.981   8.053   3.182  0.7215 -0.4081 -0.3554
  274MOL0     C36876   4.057   8.161   3.098  0.2682 -0.4984 -0.0340
  274MOL0     C36877   4.188   8.085   3.068  0.5744  0.1781  0.6245
  274MOL0     C36878   4.297   8.175   3.004 -0.0025  0.1613 -1.0102
  274MOL0     O36879   4.421   8.098   3.018  0.3719 -0.2242  0.1731
  274MOL0     C36880   4.543   8.150   2.983 -0.1876 -0.1471  0.3120
  274MOL0     C36881   4.656   8.088   3.041  0.5958 -0.8938  0.5805
  274MOL0     C36882   4.786   8.134   3.019  0.1493 -1.5343 -0.1885
  274MOL0     C36883   4.814   8.246   2.922  0.5557  0.0806  0.2650
  274MOL0     C36884   4.946   8.309   2.891 -0.1627  0.1151  0.8407
  274MOL0     O36885   4.949   8.396   2.782  0.5824  0.2799  0.0651
  274MOL0     C36886   5.059   8.441   2.720  0.3525 -1.2083 -0.4908
  274MOL0     C36887   5.065   8.576   2.686 -0.3077  0.2149  0.2645
  274MOL0     C36888   5.175   8.627   2.623 -1.3346  0.6485 -0.3687
  274MOL0     C36889   5.285   8.543   2.601 -0.3615 -0.4851 -0.3244
  274MOL0     O36890   5.395   8.593   2.532 -0.0220 -0.2520  0.0703
  274MOL0     C36891   5.488   8.648   2.627  0.8739 -0.8363  0.9382
  274MOL0     C36892   5.626   8.613   2.577  0.2026  0.1799  0.1037
  274MOL0     C36893   5.732   8.638   2.684 -0.5516  0.0728  1.1197
  274MOL0     C36894   5.872   8.613   2.616  0.3686 -1.1641  1.0338
  274MOL0     C36895   5.909   8.713   2.520  0.1583  0.4369 -0.2773
  274MOL0     C36896   6.049   8.701   2.467 -0.5592 -0.5252 -0.0213
  274MOL0     C36897   6.083   8.572   2.390  0.5302 -0.4891 -0.3593
  274MOL0     C36898   6.218   8.596   2.313  0.5705  0.1702 -0.3398
  274MOL0    Cl36899   6.255   8.452   2.214 -0.1059  0.2861  0.0731
  274MOL0     C36900   5.284   8.416   2.641 -0.1305 -0.7013  0.1106
  274MOL0     C36901   5.174   8.362   2.701 -0.4659 -1.2769 -0.8734
  274MOL0     O36902   5.036   8.297   2.979 -0.2312  0.1963  0.2889
  274MOL0     C36903   4.702   8.294   2.858 -0.4379 -0.1264  0.0365
  274MOL0     C36904   4.571   8.261   2.891 -0.3750  0.7789 -0.0482
  274MOL0     N36905   3.828   8.225   3.276  0.7580  0.9320 -0.2722
  274MOL0     N36906   3.702   8.230   3.313  0.3561  0.8055  0.3785
  274MOL0     C36907   2.424   7.706   2.918  0.5434 -0.4905 -0.6457
  274MOL0     C36908   2.334   7.690   2.818  0.2854  0.1991 -1.1824
  274MOL0     C36909   2.163   7.693   2.405  0.5447  0.4132  0.5079
  274MOL0     C36910   2.025   7.701   2.454 -0.0824  0.5755 -1.1732
  274MOL0     C36911   1.917   7.682   2.362 -0.4641  0.0842 -0.7217
  274MOL0     C36912   1.944   7.657   2.226  0.1416 -0.3552  0.4410
  274MOL0     O36913   1.845   7.644   2.119 -0.8248 -0.3065 -0.7184
  274MOL0     C36914   1.703   7.631   2.157  0.8885  0.3308  1.3560
  274MOL0     C36915   1.615   7.662   2.030  0.2989 -0.3887 -0.0638
  274MOL0     C36916   1.634   7.804   1.961  0.2233  0.2266  0.3410
  274MOL0     C36917   1.578   7.933   2.023 -0.3169  0.2104  0.4782
  274MOL0     C36918   1.633   7.957   2.157 -0.3209 -0.0111 -0.9259
  274MOL0     C36919   1.663   7.992   2.272 -0.0750 -0.4596 -0.9845
  274MOL0     C36920   2.064   7.658   2.176 -0.4230  0.1568 -0.3973
  274MOL0     C36921   2.180   7.673   2.262  0.0805  0.9028  0.1801
  274MOL0     C36922   2.323   7.667   2.191  0.1084 -0.3604  0.0785
  274MOL0     H36923   2.442   7.932   2.608  2.2983 -1.1518 -0.4866
  274MOL0     H36924   2.619   7.943   2.791 -0.3368 -0.3655 -2.2998
  274MOL0     H36925   2.805   7.851   2.900  0.8381 -4.9020  1.2563
  274MOL0     H36926   2.719   7.977   2.979  2.8054  0.8789  0.9026
  274MOL0     H36927   2.922   7.796   3.079  1.5278  2.3977 -1.2110
  274MOL0     H36928   2.799   7.805   3.205 -0.5756 -1.8771 -0.4317
  274MOL0     H36929   2.806   8.052   3.200 -0.7353 -0.2811 -1.4199
  274MOL0     H36930   2.910   8.054   3.061  1.1485 -0.0632 -0.4176
  274MOL0     H36931   3.012   8.085   3.304  2.2949 -2.0033  3.0179
  274MOL0     H36932   3.016   7.916   3.318  1.1538  0.7252  1.0825
  274MOL0     H36933   3.164   7.877   3.163 -1.1254 -0.3230  0.6602
  274MOL0     H36934   3.135   8.032   3.075 -3.8429 -2.6240 -0.5642
  274MOL0     H36935   3.214   8.152   3.264 -2.9646 -1.7070  3.4149
  274MOL0     H36936   3.242   8.002   3.352 -2.8428 -1.8302 -0.9676
  274MOL0     H36937   3.422   8.148   3.140  3.2522  0.2124  0.0626
  274MOL0     H36938   3.421   7.966   3.150  3.4759 -0.2347  1.7778
  274MOL0     H36939   3.455   8.159   3.386 -0.0997 -0.1345  0.6467
  274MOL0     H36940   3.485   7.986   3.380 -2.4372  1.5241  1.3676
  274MOL0     H36941   3.716   7.920   3.229 -3.0031  1.2079  0.1911
  274MOL0     H36942   4.039   8.025   3.270 -0.2804 -1.7435 -0.0992
  274MOL0     H36943   3.956   7.972   3.113 -4.0928  0.6861 -0.2014
  274MOL0     H36944   4.000   8.179   3.006 -1.3296 -4.2541  0.0273
  274MOL0     H36945   4.078   8.257   3.145  1.9853 -0.9639  0.1936
  274MOL0     H36946   4.176   8.000   3.000 -0.7017  0.4994  0.4267
  274MOL0     H36947   4.229   8.062   3.167 -0.7403  3.0413  1.9698
  274MOL0     H36948   4.328   8.256   3.071  2.2042 -1.6150  0.2601
  274MOL0     H36949   4.265   8.208   2.904 -1.8671  1.0519 -0.1632
  274MOL0     H36950   4.636   8.012   3.115 -3.7088  0.4525  1.1022
  274MOL0     H36951   4.857   8.087   3.087 -1.7447 -0.8707  2.4088
  274MOL0     H36952   4.970   8.627   2.702 -0.7984 -0.0301 -1.5632
  274MOL0     H36953   5.173   8.727   2.579 -1.3995  1.3358  1.1420
  274MOL0     H36954   5.461   8.753   2.639 -1.8025 -1.3226 -0.1647
  274MOL0     H36955   5.470   8.599   2.723  1.2659  1.7391  2.4203
  274MOL0     H36956   5.621   8.507   2.552  0.2857 -0.0358  1.0027
  274MOL0     H36957   5.640   8.677   2.489 -2.2332  0.8320  0.1109
  274MOL0     H36958   5.728   8.741   2.719  1.7273  0.2448  1.0188
  274MOL0     H36959   5.722   8.576   2.774 -1.5932  0.4167  1.2542
  274MOL0     H36960   5.883   8.514   2.569  2.0301 -0.3029 -0.4927
  274MOL0     H36961   5.941   8.610   2.701 -0.2988 -0.5069  1.6110
  274MOL0     H36962   5.915   8.807   2.576  0.7027 -0.3871  1.1072
  274MOL0     H36963   5.839   8.719   2.436  0.8039 -4.3454 -1.4535
  274MOL0     H36964   6.061   8.787   2.399  4.0703  0.9809  2.2850
  274MOL0     H36965   6.108   8.707   2.559 -0.3641  0.2510 -0.1847
  274MOL0     H36966   6.008   8.541   2.317 -0.5619  2.7517 -0.7746
  274MOL0     H36967   6.087   8.497   2.469  0.4379  1.2013  1.3461
  274MOL0     H36968   6.235   8.685   2.250 -1.1089  0.9385  0.2140
  274MOL0     H36969   6.294   8.608   2.390 -0.8596  1.0971  0.9933
  274MOL0     H36970   5.365   8.346   2.628 -0.0865 -0.6225 -0.0482
  274MOL0     H36971   5.185   8.256   2.721  1.4122 -0.5368  3.0160
  274MOL0     H36972   4.707   8.373   2.784 -2.2641 -0.2021 -0.2191
  274MOL0     H36973   4.486   8.317   2.854 -0.5038  1.8280  1.7540
  274MOL0     H36974   2.425   7.634   3.000  0.3290  0.7322  0.4554
  274MOL0     H36975   2.252   7.619   2.820  1.4225 -1.2127  1.8864
  274MOL0     H36976   2.004   7.720   2.559  0.2177  0.3296 -1.0655
  274MOL0     H36977   1.817   7.681   2.405 -0.0449 -2.2704  0.3317
  274MOL0     H36978   1.672   7.697   2.239 -0.9613  1.1562  0.0786
  274MOL0     H36979   1.684   7.531   2.196  1.4157 -0.6557 -0.8120
  274MOL0     H36980   1.507   7.656   2.041 -0.2777  2.9522 -2.3707
  274MOL0     H36981   1.656   7.591   1.957 -0.1679 -1.0198  0.2820
  274MOL0     H36982   1.582   7.797   1.865  0.6387 -1.0664  0.1833
  274MOL0     H36983   1.738   7.828   1.937  0.1612  2.7316  2.1700
  274MOL0     H36984   1.599   8.018   1.958 -1.9881  0.1469 -0.1943
  274MOL0     H36985   1.468   7.927   2.028 -0.3052 -0.7694 -0.2327
  274MOL0     H36986   1.705   8.017   2.367 -1.9197 -3.4978  0.8100
  274MOL0     H36987   2.078   7.649   2.068  2.1126 -1.1764 -0.0477
  274MOL0     H36988   2.361   7.768   2.173 -1.3778 -0.1960 -2.5295
  274MOL0     H36989   2.392   7.605   2.250 -1.5332 -1.7733  0.6263
  274MOL0     H36990   2.321   7.628   2.089 -2.2077  0.3651 -0.2217
  275MOL0     O36991   6.183   4.835   1.451 -0.1104 -0.5035 -0.1950
  275MOL0     C36992   6.088   4.853   1.529  0.8097  0.0838 -0.1588
  275MOL0     O36993   6.096   4.883   1.660 -0.6333 -0.7004  0.1132
  275MOL0     C36994   6.211   4.849   1.723  0.3318  0.9494  0.5103
  275MOL0     C36995   6.272   4.720   1.721 -1.2504 -0.7249 -0.6469
  275MOL0     C36996   6.402   4.705   1.773  0.9957  0.1877  0.4557
  275MOL0     C36997   6.471   4.807   1.837 -0.3398 -0.0833 -0.0648
  275MOL0     O36998   6.602   4.771   1.885 -0.2376  0.3764 -0.3824
  275MOL0     C36999   6.636   4.818   2.016  0.2479  0.5182  0.3928
  275MOL0     C37000   6.787   4.772   2.050  0.2206  0.2191 -0.6326
  275MOL0     C37001   6.879   4.823   1.945 -0.5585 -0.0400  0.4418
  275MOL0     C37002   7.023   4.789   1.988 -0.3127  0.5741 -0.1254
  275MOL0     C37003   7.120   4.797   1.875  0.5772  0.1068  0.0108
  275MOL0     C37004   7.266   4.740   1.919 -0.3318 -0.2194  0.1344
  275MOL0     C37005   7.355   4.751   1.792 -0.2788  0.0557  0.9263
  275MOL0     C37006   7.509   4.720   1.828 -0.1052 -0.3032  0.7202
  275MOL0     N37007   7.606   4.732   1.712 -0.5045 -0.0865 -0.6189
  275MOL0     C37008   7.663   4.623   1.657 -0.2314 -0.6145 -0.0104
  275MOL0     C37009   7.777   4.667   1.591  0.0191  0.2491  0.2542
  275MOL0     C37010   7.871   4.590   1.510 -1.1786  0.3185  0.0592
  275MOL0     C37011   8.017   4.634   1.530 -0.5572 -0.1588  0.4154
  275MOL0     C37012   8.094   4.566   1.637 -0.5201 -0.7981  0.3887
  275MOL0     C37013   8.242   4.606   1.640 -0.8711  1.2270  0.4244
  275MOL0     O37014   8.300   4.516   1.735  0.1245 -0.0856  0.2021
  275MOL0     C37015   8.432   4.519   1.771  1.3011  0.6613  0.2366
  275MOL0     C37016   8.520   4.599   1.688  0.3430  0.0419  0.8511
  275MOL0     C37017   8.653   4.614   1.722  0.1999 -0.1829 -1.0459
  275MOL0     C37018   8.700   4.555   1.838 -0.2199  0.2381 -0.8136
  275MOL0     C37019   8.850   4.586   1.876 -0.2368 -0.1796  0.6777
  275MOL0     O37020   8.921   4.500   1.948 -0.1348 -0.0185  0.1708
  275MOL0     C37021   9.060   4.502   1.964 -0.4241  0.4606  0.6518
  275MOL0     C37022   9.143   4.529   1.857 -0.0050 -0.5616  0.0034
  275MOL0     C37023   9.278   4.539   1.875  0.6686 -0.6056  0.7411
  275MOL0     C37024   9.340   4.520   1.996  0.5596  0.6208  0.1625
  275MOL0     O37025   9.472   4.530   2.002 -0.4795 -1.4410 -0.2264
  275MOL0     C37026   9.540   4.518   2.127  0.0201  0.7415  0.5277
  275MOL0     C37027   9.693   4.510   2.096 -0.2332  0.5454 -0.1881
  275MOL0     C37028   9.745   4.392   2.180 -0.2658 -0.0472  0.4575
  275MOL0     C37029   9.896   4.381   2.168 -0.7255 -0.2459 -1.3430
  275MOL0     C37030   9.959   4.246   2.185 -0.1222  0.8331  0.0843
  275MOL0     C37031   9.972   4.188   2.327  0.4103 -0.2543 -0.5979
  275MOL0     C37032  10.037   4.299   2.422 -0.8875 -0.7991 -0.2089
  275MOL0     C37033  10.069   4.260   2.566 -0.4058 -0.3113  0.1060
  275MOL0    Cl37034   9.939   4.167   2.653 -0.3057  0.0565  0.1271
  275MOL0     C37035   9.256   4.474   2.095 -0.9009  0.8127 -0.1097
  275MOL0     C37036   9.121   4.474   2.086 -0.4157  0.0233  0.5970
  275MOL0     O37037   8.893   4.687   1.826 -0.2575 -0.7921 -0.4888
  275MOL0     C37038   8.623   4.466   1.921 -1.0346  0.2233 -0.0069
  275MOL0     C37039   8.487   4.450   1.884 -0.6054  1.4589  0.4131
  275MOL0     N37040   7.772   4.808   1.593  0.4541  0.1972 -0.6450
  275MOL0     N37041   7.674   4.846   1.678  0.2159 -0.1332 -0.0734
  275MOL0     C37042   6.406   4.928   1.838  0.1916  0.3688 -0.4274
  275MOL0     C37043   6.280   4.948   1.787 -0.2475  0.6628  0.4585
  275MOL0     C37044   5.953   4.869   1.468 -0.4555  0.0803 -1.1640
  275MOL0     C37045   5.845   4.806   1.538  0.0501 -0.9302  0.4540
  275MOL0     C37046   5.716   4.802   1.478  0.1412  0.0002  0.4242
  275MOL0     C37047   5.698   4.853   1.351  0.1723 -0.1013 -0.5803
  275MOL0     O37048   5.580   4.856   1.281  0.1339 -0.2206 -0.5425
  275MOL0     C37049   5.463   4.845   1.357  0.8086  0.2303  0.6029
  275MOL0     C37050   5.333   4.863   1.285  0.0901 -1.1148  0.8886
  275MOL0     C37051   5.201   4.850   1.374 -0.0788  0.5848  0.0663
  275MOL0     C37052   5.062   4.848   1.306 -0.3174  0.9862  0.8079
  275MOL0     C37053   4.952   4.879   1.392 -0.5778 -0.4622  0.1846
  275MOL0     C37054   4.851   4.892   1.463 -0.0172 -0.2787  0.3497
  275MOL0     C37055   5.801   4.908   1.283 -0.3812  0.3761  0.2668
  275MOL0     C37056   5.927   4.924   1.340  1.2178 -0.1482 -0.3146
  275MOL0     C37057   6.019   4.990   1.249 -1.1551  0.2259 -1.0909
  275MOL0     H37058   6.214   4.648   1.665 -0.5415 -0.9377 -1.1244
  275MOL0     H37059   6.465   4.617   1.767  0.0375 -0.4774  0.0944
  275MOL0     H37060   6.620   4.926   2.026 -0.2313  0.6679 -1.5881
  275MOL0     H37061   6.577   4.764   2.090 -0.4431 -2.3593 -2.0769
  275MOL0     H37062   6.807   4.669   2.080  2.0073  0.7938  0.3080
  275MOL0     H37063   6.816   4.828   2.140  0.9571 -0.1727 -0.6203
  275MOL0     H37064   6.873   4.931   1.928  0.2713 -0.1796 -0.8500
  275MOL0     H37065   6.867   4.783   1.844  1.0937  4.1975 -1.6679
  275MOL0     H37066   7.054   4.864   2.061  1.2188 -0.1466 -0.0025
  275MOL0     H37067   7.031   4.689   2.032  1.1933  1.1345  0.9359
  275MOL0     H37068   7.089   4.748   1.782 -4.6337  0.3981  1.2798
  275MOL0     H37069   7.118   4.905   1.857 -1.0623 -0.1457 -1.7136
  275MOL0     H37070   7.301   4.807   1.999 -1.9130  0.0312  0.6603
  275MOL0     H37071   7.255   4.638   1.957 -2.3250 -1.0972 -2.5500
  275MOL0     H37072   7.337   4.843   1.736 -3.3798 -1.7118 -1.3350
  275MOL0     H37073   7.323   4.669   1.727 -0.1961  2.3047 -2.1734
  275MOL0     H37074   7.533   4.785   1.913 -2.7817  0.2653  1.1428
  275MOL0     H37075   7.521   4.618   1.865  3.6691  0.6229  2.5387
  275MOL0     H37076   7.639   4.520   1.683  0.3049 -0.6698  0.2874
  275MOL0     H37077   7.854   4.485   1.531 -0.0991 -0.0832 -0.9486
  275MOL0     H37078   7.843   4.587   1.404  0.2332  0.4060 -0.3430
  275MOL0     H37079   8.073   4.624   1.437  0.3720 -2.4697  1.1382
  275MOL0     H37080   8.031   4.739   1.554  0.5402 -0.9204  3.5951
  275MOL0     H37081   8.093   4.460   1.608 -0.6899 -0.5220 -0.6385
  275MOL0     H37082   8.046   4.598   1.730  2.5595 -2.0059  2.5928
  275MOL0     H37083   8.260   4.711   1.666 -1.8369  0.8797  2.7579
  275MOL0     H37084   8.284   4.590   1.541  0.3445  3.5700  0.4897
  275MOL0     H37085   8.485   4.644   1.596  0.7836 -0.9242  0.1971
  275MOL0     H37086   8.714   4.670   1.652  1.2407 -0.2464 -0.2082
  275MOL0     H37087   9.108   4.541   1.755  2.0259  1.3126 -0.5403
  275MOL0     H37088   9.332   4.580   1.791  2.2883  0.5502  2.2631
  275MOL0     H37089   9.506   4.597   2.195 -0.3983  2.6324 -1.7237
  275MOL0     H37090   9.504   4.426   2.172  2.1519 -0.0413  0.7350
  275MOL0     H37091   9.707   4.487   1.990 -2.2793  2.2920 -0.9139
  275MOL0     H37092   9.734   4.610   2.114 -0.9365  0.8294 -0.1623
  275MOL0     H37093   9.726   4.404   2.287  0.1272  3.2761  0.2591
  275MOL0     H37094   9.693   4.308   2.133  0.8182 -0.0702 -0.7667
  275MOL0     H37095   9.944   4.452   2.236 -1.4573 -0.2932 -0.7613
  275MOL0     H37096   9.927   4.417   2.070 -0.1397 -3.1624 -2.3196
  275MOL0     H37097  10.061   4.259   2.149 -1.2310  0.2489 -3.6681
  275MOL0     H37098   9.902   4.172   2.128 -0.3540 -0.2184  1.6098
  275MOL0     H37099   9.872   4.175   2.368 -0.4818  0.9594 -2.2922
  275MOL0     H37100  10.027   4.093   2.339 -0.1918 -0.6673 -1.0334
  275MOL0     H37101   9.957   4.373   2.431 -2.1387 -2.0291 -0.7834
  275MOL0     H37102  10.132   4.333   2.380 -2.5504  2.2565 -1.8389
  275MOL0     H37103  10.162   4.204   2.556  0.6771  1.4200 -0.0199
  275MOL0     H37104  10.094   4.353   2.617 -0.4351 -0.5817  0.6122
  275MOL0     H37105   9.285   4.453   2.198  1.0935  1.3153 -0.5191
  275MOL0     H37106   9.059   4.451   2.172 -0.3519  2.4668  1.3475
  275MOL0     H37107   8.654   4.426   2.017 -0.2589  1.3117  0.2195
  275MOL0     H37108   8.418   4.390   1.942 -2.8256  2.2770 -1.2102
  275MOL0     H37109   6.458   5.017   1.873 -1.5803  0.5485  1.9757
  275MOL0     H37110   6.249   5.051   1.769  4.4267  2.0997 -0.8001
  275MOL0     H37111   5.854   4.758   1.635  0.7564 -0.1343  0.7906
  275MOL0     H37112   5.640   4.761   1.543  0.3164 -1.0838 -0.0348
  275MOL0     H37113   5.475   4.923   1.433 -0.8234 -0.1874  1.3225
  275MOL0     H37114   5.466   4.748   1.408  1.0759 -0.7404 -1.1899
  275MOL0     H37115   5.341   4.789   1.205  0.4794  1.2156 -1.3837
  275MOL0     H37116   5.329   4.966   1.246  1.0464 -1.1749  0.6132
  275MOL0     H37117   5.209   4.918   1.459 -0.0316 -0.0359  0.5621
  275MOL0     H37118   5.215   4.752   1.419 -0.8367  1.0773  1.4114
  275MOL0     H37119   5.058   4.909   1.216 -2.3657  1.4034  1.1410
  275MOL0     H37120   5.041   4.745   1.278 -0.9712  1.0179  1.1785
  275MOL0     H37121   4.764   4.903   1.524 -1.2593 -0.3168 -1.3716
  275MOL0     H37122   5.778   4.958   1.190 -0.0724  0.2489  0.1200
  275MOL0     H37123   5.970   5.068   1.192  0.1691  1.9030 -0.0385
  275MOL0     H37124   6.095   5.049   1.302  1.6130 -1.1711 -3.2578
  275MOL0     H37125   6.081   4.928   1.184 -1.6171 -0.4379 -0.9054
  276MOL0     O37126   6.468   7.201   3.917  0.1988  0.2720  0.0252
  276MOL0     C37127   6.463   7.305   3.986 -1.0540  0.4973  1.4148
  276MOL0     O37128   6.352   7.351   4.050  0.0963  0.4123  0.6612
  276MOL0     C37129   6.245   7.268   4.033  0.3776 -0.4697  0.2792
  276MOL0     C37130   6.190   7.262   3.899 -0.3797 -0.4250  0.5719
  276MOL0     C37131   6.069   7.189   3.871  0.5366  0.1647 -0.2224
  276MOL0     C37132   5.998   7.147   3.980 -1.2925 -0.1034 -0.3228
  276MOL0     O37133   5.881   7.088   3.981  0.3780 -0.2735  0.6840
  276MOL0     C37134   5.834   7.049   3.853  0.0564 -0.7231 -0.1219
  276MOL0     C37135   5.692   7.003   3.872  0.2622  0.4830 -0.2132
  276MOL0     C37136   5.590   7.108   3.913 -0.4966 -1.3576  0.5194
  276MOL0     C37137   5.442   7.053   3.921  0.4336 -0.6087 -0.5460
  276MOL0     C37138   5.380   7.000   3.787 -0.5971  0.1535 -0.1553
  276MOL0     C37139   5.372   7.108   3.682  0.2494  0.0920 -0.3495
  276MOL0     C37140   5.280   7.066   3.566  0.2357  0.0571  0.2388
  276MOL0     C37141   5.251   7.183   3.471 -0.1353 -0.1142 -0.7900
  276MOL0     N37142   5.369   7.240   3.415  0.5883  0.0653  0.6168
  276MOL0     C37143   5.440   7.184   3.306  1.2805 -0.1831  0.2954
  276MOL0     C37144   5.528   7.288   3.281  0.2154 -0.0813 -0.2195
  276MOL0     C37145   5.620   7.288   3.157  1.1573  0.1606  0.0110
  276MOL0     C37146   5.723   7.187   3.159  0.3364  0.2064  0.1239
  276MOL0     C37147   5.798   7.167   3.027  0.2474  0.1649  0.3263
  276MOL0     C37148   5.868   7.025   3.029 -0.0161 -0.5690  0.2592
  276MOL0     O37149   5.940   7.006   2.905  0.2475 -0.0048 -0.0123
  276MOL0     C37150   5.863   6.984   2.790 -0.1589 -0.6207 -0.4244
  276MOL0     C37151   5.942   6.971   2.665  0.4011  0.8547 -1.6718
  276MOL0     C37152   5.887   6.930   2.548 -0.6472 -0.2763 -0.0905
  276MOL0     C37153   5.745   6.909   2.540  0.1123 -0.3935  0.6713
  276MOL0     C37154   5.678   6.867   2.420  0.3796 -0.4168 -0.1765
  276MOL0     O37155   5.539   6.854   2.424  0.7294 -0.1610 -0.1911
  276MOL0     C37156   5.473   6.828   2.313  0.4788 -0.1787  0.3997
  276MOL0     C37157   5.353   6.752   2.338 -0.8624 -0.9491 -0.8144
  276MOL0     C37158   5.264   6.720   2.232 -0.3114 -0.0231 -0.4992
  276MOL0     C37159   5.279   6.776   2.109 -0.3958  0.5245 -0.7119
  276MOL0     O37160   5.182   6.765   2.013 -0.1555  0.3527 -0.2781
  276MOL0     C37161   5.173   6.864   1.911  0.9984  0.2078  0.8107
  276MOL0     C37162   5.030   6.835   1.844 -0.4765 -0.1345  0.1008
  276MOL0     C37163   5.024   6.916   1.713  0.1500  0.6205 -0.2759
  276MOL0     C37164   4.882   6.932   1.661  1.5336  0.3829  0.2350
  276MOL0     C37165   4.832   6.801   1.606 -0.6090 -0.3670 -0.0530
  276MOL0     C37166   4.683   6.794   1.587  0.1490  0.3845  0.2348
  276MOL0     C37167   4.640   6.851   1.447  0.2380  0.0091 -0.6236
  276MOL0     C37168   4.593   6.744   1.346  0.1700 -0.7569  0.0300
  276MOL0    Cl37169   4.730   6.657   1.276  0.2082  0.6580 -0.2008
  276MOL0     C37170   5.392   6.861   2.083 -0.2419  0.2590  0.6492
  276MOL0     C37171   5.490   6.884   2.182 -0.0532 -0.4157  0.7274
  276MOL0     O37172   5.748   6.843   2.323  0.3012 -0.3540  0.4449
  276MOL0     C37173   5.672   6.930   2.658 -1.3080  0.1380  0.2308
  276MOL0     C37174   5.721   6.972   2.779  0.3938 -0.6456 -0.2497
  276MOL0     N37175   5.515   7.394   3.365 -0.7079 -0.2439 -0.5565
  276MOL0     N37176   5.423   7.364   3.450  0.4405 -0.4998 -0.3949
  276MOL0     C37177   6.051   7.153   4.115 -0.5292  0.1110  0.9366
  276MOL0     C37178   6.173   7.211   4.137  0.9819 -1.1333  0.7446
  276MOL0     C37179   6.590   7.383   3.992  0.3190 -0.2657 -0.0031
  276MOL0     C37180   6.707   7.307   4.020 -0.0247 -0.0008  0.0505
  276MOL0     C37181   6.823   7.368   4.001 -0.2102  0.4191 -0.0609
  276MOL0     C37182   6.837   7.509   3.987 -0.7874 -0.2418  0.7607
  276MOL0     O37183   6.961   7.567   3.988  0.7248 -0.3395 -0.2314
  276MOL0     C37184   6.973   7.697   3.934 -0.5689 -0.5450 -0.1346
  276MOL0     C37185   7.125   7.715   3.905  0.6812  0.1771  0.2498
  276MOL0     C37186   7.212   7.734   4.027 -0.5610  0.3176  0.3185
  276MOL0     C37187   7.356   7.781   3.992  0.5910  0.6154 -0.0053
  276MOL0     C37188   7.432   7.689   3.906  0.2161  0.7556 -0.4342
  276MOL0     C37189   7.475   7.593   3.839  0.3610 -0.2640 -0.3781
  276MOL0     C37190   6.719   7.582   3.975 -0.4016  0.0753  1.0843
  276MOL0     C37191   6.598   7.520   3.971 -0.5769 -0.2327 -0.2814
  276MOL0     C37192   6.478   7.599   3.943  0.2019 -0.3770  1.1529
  276MOL0     H37193   6.242   7.310   3.817 -0.3317 -1.0724  0.2164
  276MOL0     H37194   6.031   7.187   3.769 -3.7173  0.9040  1.1650
  276MOL0     H37195   5.835   7.137   3.789  0.7401  0.2537  1.1703
  276MOL0     H37196   5.900   6.973   3.811  2.2958  1.8366 -1.5694
  276MOL0     H37197   5.700   6.919   3.942 -0.1132  1.8075  1.4808
  276MOL0     H37198   5.675   6.953   3.776 -3.5139 -0.5123  0.8086
  276MOL0     H37199   5.589   7.198   3.851 -0.9480 -0.4764  1.7626
  276MOL0     H37200   5.626   7.148   4.009  1.7677 -2.5425  0.2026
  276MOL0     H37201   5.414   6.983   4.000 -0.9565  0.5166 -0.0027
  276MOL0     H37202   5.381   7.139   3.949 -0.7822 -1.2672 -1.0713
  276MOL0     H37203   5.444   6.916   3.760 -0.0008  0.0096  1.5837
  276MOL0     H37204   5.276   6.971   3.808 -0.6036 -1.1998 -1.8339
  276MOL0     H37205   5.335   7.202   3.725 -0.1771 -0.0953 -0.3096
  276MOL0     H37206   5.474   7.130   3.648  0.6458  2.2654  1.9575
  276MOL0     H37207   5.184   7.030   3.606 -0.5979  0.4747 -1.3304
  276MOL0     H37208   5.325   6.980   3.516 -1.4892 -1.6025  1.4009
  276MOL0     H37209   5.197   7.146   3.384  0.3727 -1.9696 -0.3549
  276MOL0     H37210   5.197   7.263   3.523 -0.0073  0.6265 -1.7852
  276MOL0     H37211   5.423   7.088   3.260  1.6701 -0.5653  0.9311
  276MOL0     H37212   5.549   7.283   3.075 -2.4411  1.0218  2.8171
  276MOL0     H37213   5.663   7.389   3.154  0.8836  0.3559  1.4923
  276MOL0     H37214   5.787   7.199   3.246  1.2117  1.1200 -0.6246
  276MOL0     H37215   5.666   7.094   3.168  0.7822 -0.4654 -2.9013
  276MOL0     H37216   5.875   7.243   3.015  1.4535 -0.7346  1.9283
  276MOL0     H37217   5.728   7.169   2.942  0.4716 -1.1240  0.0752
  276MOL0     H37218   5.802   6.941   3.051 -1.2867  0.8383  2.1075
  276MOL0     H37219   5.943   7.022   3.108 -0.0157 -3.3620  0.2440
  276MOL0     H37220   6.050   6.985   2.674  0.7660 -2.1159 -0.0256
  276MOL0     H37221   5.943   6.905   2.459 -1.7951 -0.3787 -0.8051
  276MOL0     H37222   5.334   6.718   2.439  2.9243  2.4521  1.3535
  276MOL0     H37223   5.173   6.669   2.261 -2.3192  2.4158 -2.0260
  276MOL0     H37224   5.166   6.968   1.943 -2.9664  0.6919 -0.9912
  276MOL0     H37225   5.244   6.852   1.829  0.8432 -1.0450  0.8399
  276MOL0     H37226   5.026   6.732   1.809  2.6400  0.1448 -1.4487
  276MOL0     H37227   4.963   6.868   1.924  0.5030 -3.0860  2.3118
  276MOL0     H37228   5.057   7.018   1.736  1.8840 -0.2116  1.1367
  276MOL0     H37229   5.092   6.872   1.640  3.1916 -0.7153  3.0531
  276MOL0     H37230   4.869   7.011   1.586  5.1284  1.2709  0.3710
  276MOL0     H37231   4.817   6.960   1.745 -1.0051  0.0170 -1.4984
  276MOL0     H37232   4.860   6.708   1.656  1.2871 -1.2729 -2.5547
  276MOL0     H37233   4.878   6.796   1.507 -0.9777  2.0589 -0.4015
  276MOL0     H37234   4.654   6.689   1.587  0.2993  0.2947  2.8200
  276MOL0     H37235   4.627   6.852   1.661  1.6412  0.6475  1.2020
  276MOL0     H37236   4.721   6.910   1.403  0.4406  1.5876  1.7010
  276MOL0     H37237   4.558   6.917   1.478 -0.1227 -0.5573 -0.3644
  276MOL0     H37238   4.522   6.679   1.399 -0.9534  0.3725 -0.0425
  276MOL0     H37239   4.524   6.792   1.276 -3.7270 -2.2048  2.5128
  276MOL0     H37240   5.385   6.912   1.987  2.6966  2.1220  1.3089
  276MOL0     H37241   5.567   6.958   2.161  1.4458 -1.8305  1.0465
  276MOL0     H37242   5.571   6.890   2.654 -1.1487 -0.2020 -0.4231
  276MOL0     H37243   5.649   6.983   2.860  0.4917 -1.6450 -0.0162
  276MOL0     H37244   5.990   7.107   4.191 -0.3134 -2.7066 -0.4763
  276MOL0     H37245   6.221   7.207   4.234 -0.0623  0.7636  1.3918
  276MOL0     H37246   6.707   7.204   4.054  0.7433  0.2787  0.9402
  276MOL0     H37247   6.912   7.307   4.010 -1.1088 -0.7343  1.6416
  276MOL0     H37248   6.935   7.779   3.995  1.9775  1.2342 -0.8025
  276MOL0     H37249   6.931   7.694   3.833  4.2857 -1.2212 -2.4090
  276MOL0     H37250   7.141   7.795   3.832  1.4801 -2.3258 -2.4859
  276MOL0     H37251   7.161   7.624   3.855 -1.0082  0.4188 -1.5411
  276MOL0     H37252   7.211   7.633   4.069 -1.0255 -0.5551 -1.6495
  276MOL0     H37253   7.169   7.799   4.104  1.1491  0.2476  1.3659
  276MOL0     H37254   7.359   7.881   3.948  1.7419 -0.4453 -2.5113
  276MOL0     H37255   7.405   7.794   4.089  1.6581 -1.2199 -0.2515
  276MOL0     H37256   7.505   7.502   3.792 -1.8087 -1.2253 -0.0176
  276MOL0     H37257   6.723   7.690   3.978  3.1474  0.1515 -0.9959
  276MOL0     H37258   6.499   7.695   3.896  0.4812  0.2711  2.5481
  276MOL0     H37259   6.414   7.550   3.869  3.0045 -1.1743 -0.9102
  276MOL0     H37260   6.421   7.624   4.033  2.8403  3.1207  2.0425
  277MOL0     O37261   3.085   3.705   6.403 -0.3248  0.3387 -0.4216
  277MOL0     C37262   3.089   3.830   6.398  0.0111  0.0216  0.1053
  277MOL0     O37263   3.202   3.910   6.432  1.0648  0.4511 -0.6175
  277MOL0     C37264   3.317   3.836   6.452 -0.3558  0.1196  0.5749
  277MOL0     C37265   3.370   3.729   6.367  0.1741  0.1351  0.3972
  277MOL0     C37266   3.496   3.660   6.396  0.3108  0.4214  0.4297
  277MOL0     C37267   3.571   3.698   6.506 -0.8408 -0.7173  0.0744
  277MOL0     O37268   3.688   3.625   6.535  0.1554  0.2106  0.2453
  277MOL0     C37269   3.794   3.702   6.606 -0.9113 -0.1032 -0.0895
  277MOL0     C37270   3.861   3.780   6.501  0.3094 -1.1036  0.1526
  277MOL0     C37271   3.970   3.871   6.552  0.5011 -0.0046  0.4714
  277MOL0     C37272   4.112   3.811   6.550 -0.5271  0.7407  0.4586
  277MOL0     C37273   4.209   3.890   6.462  1.0342  0.0306  0.3691
  277MOL0     C37274   4.363   3.867   6.513  0.8196 -0.0700  0.2473
  277MOL0     C37275   4.454   3.934   6.404  0.4728  0.0954  0.1368
  277MOL0     C37276   4.491   3.846   6.283 -0.7738 -0.3627 -0.0799
  277MOL0     N37277   4.633   3.816   6.291 -1.3021  0.0217  0.3175
  277MOL0     C37278   4.697   3.721   6.367 -0.1424 -0.9019  0.5378
  277MOL0     C37279   4.824   3.723   6.311 -0.1090  0.3580 -0.9254
  277MOL0     C37280   4.935   3.621   6.333 -0.2041 -0.4071  0.3195
  277MOL0     C37281   5.070   3.669   6.404 -0.0979 -0.4790  0.2679
  277MOL0     C37282   5.051   3.756   6.526  0.6073  0.4603  0.6136
  277MOL0     C37283   5.169   3.785   6.614  0.5463  0.0621  0.2977
  277MOL0     O37284   5.273   3.863   6.548  0.1773 -0.8809  0.5249
  277MOL0     C37285   5.371   3.918   6.627  0.0322 -0.1820 -0.3308
  277MOL0     C37286   5.481   3.962   6.560 -0.0867 -0.4437 -1.0532
  277MOL0     C37287   5.588   4.025   6.627 -0.4237 -0.2511  0.0387
  277MOL0     C37288   5.585   4.050   6.764 -0.2969 -0.0003 -0.1426
  277MOL0     C37289   5.691   4.131   6.827 -0.2725  0.2657 -1.3978
  277MOL0     O37290   5.665   4.177   6.949  0.0539 -0.3087 -0.4071
  277MOL0     C37291   5.763   4.213   7.035  0.0819  0.0497 -0.2320
  277MOL0     C37292   5.742   4.335   7.102  0.2632  0.5493 -1.4356
  277MOL0     C37293   5.842   4.377   7.194  0.2667 -0.4377 -0.3884
  277MOL0     C37294   5.952   4.301   7.209 -0.4210  0.0182  0.0025
  277MOL0     O37295   6.055   4.355   7.273  0.1015  0.4580  0.1015
  277MOL0     C37296   6.095   4.277   7.393  0.1539 -0.6136  0.0721
  277MOL0     C37297   5.988   4.290   7.506  0.1892 -0.6794  0.8895
  277MOL0     C37298   5.923   4.152   7.536 -0.2903 -0.3095 -1.3285
  277MOL0     C37299   5.811   4.167   7.643  0.3758 -1.0475 -0.0745
  277MOL0     C37300   5.738   4.034   7.653 -0.3089  0.5689  0.3481
  277MOL0     C37301   5.623   4.050   7.754 -0.9732  0.1488  0.2600
  277MOL0     C37302   5.534   3.928   7.759 -1.0010 -0.0678  0.3878
  277MOL0     C37303   5.464   3.928   7.890 -0.3714 -0.1314 -0.5286
  277MOL0    Cl37304   5.575   3.880   8.024  0.1606 -0.4120 -0.4422
  277MOL0     C37305   5.970   4.181   7.145 -0.1354  0.1317 -0.0124
  277MOL0     C37306   5.876   4.134   7.063  0.5078 -0.4069  0.2223
  277MOL0     O37307   5.790   4.159   6.759 -0.3415 -1.2619  0.4027
  277MOL0     C37308   5.470   3.997   6.833 -0.7803  0.4303  0.0539
  277MOL0     C37309   5.374   3.931   6.765  0.6386  0.9970  0.2362
  277MOL0     N37310   4.844   3.807   6.207 -0.1466  0.3532 -0.5115
  277MOL0     N37311   4.725   3.864   6.194 -0.1500 -0.5892 -0.9575
  277MOL0     C37312   3.524   3.806   6.585 -0.1177  0.2292 -0.2000
  277MOL0     C37313   3.394   3.859   6.564  0.4205  1.2227 -1.1355
  277MOL0     C37314   2.964   3.903   6.353  0.5198  0.5858  0.3386
  277MOL0     C37315   2.847   3.833   6.352 -0.3689  0.5223 -0.1122
  277MOL0     C37316   2.723   3.894   6.319 -0.5498  0.0205  1.0035
  277MOL0     C37317   2.709   4.015   6.269 -0.4598 -0.1948 -0.1634
  277MOL0     O37318   2.598   4.082   6.259 -0.0444  0.6308 -0.0896
  277MOL0     C37319   2.487   4.017   6.207 -0.3929 -0.2101  0.6897
  277MOL0     C37320   2.367   4.102   6.235  0.2734  0.7116 -0.1310
  277MOL0     C37321   2.297   4.054   6.367 -0.0828  0.2005 -0.1145
  277MOL0     C37322   2.200   3.930   6.361  0.0929  0.7964 -0.0616
  277MOL0     C37323   2.115   3.937   6.237 -0.4857 -0.5318 -0.1292
  277MOL0     C37324   2.042   3.959   6.147  0.1741  0.1841 -0.7374
  277MOL0     C37325   2.823   4.092   6.265 -0.5605  0.0602 -0.7486
  277MOL0     C37326   2.953   4.041   6.309  0.6962  0.5304 -0.1549
  277MOL0     C37327   3.064   4.139   6.288 -0.1773  1.2344 -0.3313
  277MOL0     H37328   3.327   3.687   6.278 -1.7663 -0.1081  1.3996
  277MOL0     H37329   3.519   3.574   6.335  0.8802  1.5618 -1.0126
  277MOL0     H37330   3.773   3.764   6.694  1.0852  1.0015 -0.3396
  277MOL0     H37331   3.867   3.637   6.655 -0.8647  0.9438  1.2758
  277MOL0     H37332   3.787   3.854   6.469  1.0057 -0.0272  0.9452
  277MOL0     H37333   3.896   3.719   6.418 -1.0668 -1.3934 -0.2362
  277MOL0     H37334   3.944   3.896   6.655  5.0261  1.0288  1.6255
  277MOL0     H37335   3.960   3.968   6.504  2.8186  1.1742  2.1304
  277MOL0     H37336   4.140   3.813   6.655 -1.4765  2.9786  0.7149
  277MOL0     H37337   4.101   3.709   6.512  0.0032  1.1806 -0.9545
  277MOL0     H37338   4.200   3.859   6.357  1.7541 -1.2975  0.6931
  277MOL0     H37339   4.197   3.998   6.474  0.6978 -0.0705  0.9455
  277MOL0     H37340   4.391   3.918   6.605  0.3545  0.5086  0.0736
  277MOL0     H37341   4.390   3.761   6.525 -0.2327 -0.3210  0.4593
  277MOL0     H37342   4.551   3.964   6.445  0.8015 -0.2127 -0.4048
  277MOL0     H37343   4.397   4.023   6.379 -0.3901 -0.5465 -0.2119
  277MOL0     H37344   4.432   3.754   6.275  1.3867 -1.8457  0.0737
  277MOL0     H37345   4.477   3.897   6.188 -0.0256 -3.3419 -1.9274
  277MOL0     H37346   4.662   3.647   6.438  0.3460  0.5860  2.4204
  277MOL0     H37347   4.891   3.544   6.396 -2.7721 -0.2250 -1.1259
  277MOL0     H37348   4.958   3.586   6.232 -0.1467 -0.7021  0.4365
  277MOL0     H37349   5.115   3.575   6.437  1.2988  1.1106  3.4008
  277MOL0     H37350   5.138   3.718   6.334  1.7753 -2.1090  0.8591
  277MOL0     H37351   4.979   3.709   6.593 -0.3796 -0.6633 -1.1513
  277MOL0     H37352   5.010   3.852   6.493 -2.9520 -0.4946  1.7050
  277MOL0     H37353   5.212   3.689   6.646 -0.8138 -0.9343 -0.7324
  277MOL0     H37354   5.134   3.840   6.702  1.0647 -1.7624  1.7014
  277MOL0     H37355   5.504   3.953   6.454 -0.3346  1.0838 -1.2597
  277MOL0     H37356   5.675   4.061   6.571 -0.9400 -0.1687 -0.7291
  277MOL0     H37357   5.661   4.406   7.087 -0.6135  0.7920  3.0073
  277MOL0     H37358   5.826   4.472   7.245  2.9249 -0.1122 -0.0146
  277MOL0     H37359   6.139   4.181   7.365  1.7078  0.6039 -1.9390
  277MOL0     H37360   6.184   4.336   7.418  0.2370 -0.3972 -0.7094
  277MOL0     H37361   6.043   4.333   7.590  2.0425 -3.7405  1.4188
  277MOL0     H37362   5.906   4.352   7.470  0.8957 -1.3658 -2.1319
  277MOL0     H37363   5.886   4.089   7.454 -2.2041 -3.0635  1.4389
  277MOL0     H37364   6.001   4.094   7.587 -1.0649 -1.8667 -1.8543
  277MOL0     H37365   5.745   4.245   7.603  1.3675 -0.3169 -0.3306
  277MOL0     H37366   5.842   4.198   7.743 -0.0433  0.7932 -0.4853
  277MOL0     H37367   5.816   3.970   7.695 -2.7483 -1.4845  2.0808
  277MOL0     H37368   5.703   3.989   7.559  1.9822  2.9008 -1.7988
  277MOL0     H37369   5.662   4.075   7.853 -0.2837  3.4174 -0.7233
  277MOL0     H37370   5.573   4.139   7.715 -1.2913  0.5386  1.5157
  277MOL0     H37371   5.589   3.835   7.743 -1.6043 -0.3565 -0.0284
  277MOL0     H37372   5.466   3.933   7.674  3.3676 -1.5958 -3.6075
  277MOL0     H37373   5.415   4.025   7.903 -2.8371 -1.2199 -1.0451
  277MOL0     H37374   5.382   3.856   7.891 -3.0520  2.7017  1.2707
  277MOL0     H37375   6.060   4.121   7.153  0.2943  0.3732 -2.1950
  277MOL0     H37376   5.888   4.042   7.008 -0.2248  0.0336 -0.7256
  277MOL0     H37377   5.469   3.993   6.941 -4.3280 -0.3564  0.1143
  277MOL0     H37378   5.297   3.881   6.823  3.0009 -4.2405 -0.5336
  277MOL0     H37379   3.570   3.841   6.676  0.5128 -0.9531 -0.0429
  277MOL0     H37380   3.370   3.934   6.638  4.8305 -0.9844  3.0921
  277MOL0     H37381   2.833   3.736   6.400  3.2961 -1.4774 -2.6212
  277MOL0     H37382   2.636   3.835   6.347  0.4260 -3.3983 -2.2787
  277MOL0     H37383   2.482   3.918   6.253  0.0030 -1.3733 -1.6448
  277MOL0     H37384   2.481   3.999   6.100 -2.9787  3.7919 -0.0578
  277MOL0     H37385   2.305   4.094   6.145  2.9399 -0.5104 -1.9923
  277MOL0     H37386   2.389   4.209   6.243  2.1123  0.3903 -0.2771
  277MOL0     H37387   2.246   4.142   6.408 -0.0668  0.1477  0.0189
  277MOL0     H37388   2.374   4.045   6.445  0.0959 -1.6630 -0.4772
  277MOL0     H37389   2.252   3.834   6.356 -2.5455 -0.7440  0.4585
  277MOL0     H37390   2.147   3.932   6.456  0.2136  1.9133 -0.0021
  277MOL0     H37391   1.980   3.972   6.061 -1.6250 -0.4974  0.4036
  277MOL0     H37392   2.830   4.193   6.226  5.1627 -0.3173 -1.5914
  277MOL0     H37393   3.028   4.234   6.246 -0.7223 -0.3007 -3.6856
  277MOL0     H37394   3.112   4.168   6.382 -0.9932 -1.6538  1.0932
  277MOL0     H37395   3.142   4.094   6.226  0.7914  0.4410  1.3947
  278MOL0     O37396   0.215   3.477   2.428  0.0167  0.1956 -0.1898
  278MOL0     C37397   0.223   3.421   2.321  0.1643  0.9669  0.0236
  278MOL0     O37398   0.333   3.348   2.292 -0.2321  0.1646  0.1156
  278MOL0     C37399   0.447   3.384   2.362 -0.4514 -0.0461 -0.5075
  278MOL0     C37400   0.522   3.282   2.432 -0.1145 -0.3892  0.1280
  278MOL0     C37401   0.645   3.318   2.494 -0.4915 -0.3506  0.8415
  278MOL0     C37402   0.702   3.456   2.494 -0.9077 -0.2185 -0.3481
  278MOL0     O37403   0.803   3.504   2.575 -0.4117 -1.0185  0.5563
  278MOL0     C37404   0.912   3.419   2.571 -0.7721  0.3262  0.1184
  278MOL0     C37405   1.007   3.484   2.666 -0.0970  0.2595 -0.5998
  278MOL0     C37406   1.154   3.433   2.645  0.2228 -0.4094  0.2073
  278MOL0     C37407   1.241   3.532   2.577  1.2372 -0.8991 -0.9413
  278MOL0     C37408   1.380   3.496   2.546 -0.4166  0.4181  0.2261
  278MOL0     C37409   1.486   3.601   2.544 -0.1968  0.2608  0.0743
  278MOL0     C37410   1.622   3.546   2.553 -1.0649  0.2507 -0.4455
  278MOL0     C37411   1.731   3.651   2.566 -0.8257 -0.2858  0.2193
  278MOL0     N37412   1.753   3.717   2.694  0.9751 -0.0247  0.5091
  278MOL0     C37413   1.859   3.716   2.779 -0.5703 -1.0406  0.0306
  278MOL0     C37414   1.822   3.782   2.885  1.1198  0.0066 -0.8221
  278MOL0     C37415   1.898   3.825   3.014  0.6006  0.4617  0.0646
  278MOL0     C37416   2.053   3.839   3.010  0.4051 -0.2304  0.4627
  278MOL0     C37417   2.099   3.921   3.135 -0.4792  0.2695 -0.0412
  278MOL0     C37418   2.116   3.841   3.260 -0.3385  1.4570  1.2406
  278MOL0     O37419   2.193   3.903   3.360 -0.0884  0.3306 -0.2760
  278MOL0     C37420   2.326   3.880   3.371 -0.9611 -0.3957 -0.4215
  278MOL0     C37421   2.381   3.954   3.478  0.1992  0.3790  0.2077
  278MOL0     C37422   2.516   3.944   3.516  0.1217 -0.8715  0.7521
  278MOL0     C37423   2.593   3.852   3.446 -0.8443  0.6219  0.1928
  278MOL0     C37424   2.737   3.831   3.486  0.7131  0.3083 -0.7130
  278MOL0     O37425   2.804   3.724   3.432 -0.3686 -0.4694  0.5599
  278MOL0     C37426   2.937   3.713   3.449  0.1300  0.4415 -0.1261
  278MOL0     C37427   2.995   3.616   3.545  0.0420 -0.9005  0.6295
  278MOL0     C37428   3.138   3.601   3.555 -0.8078  0.4783  0.0910
  278MOL0     C37429   3.220   3.668   3.471  0.2502  0.3223  0.3659
  278MOL0     O37430   3.348   3.633   3.482 -0.0258  0.1243  0.5269
  278MOL0     C37431   3.452   3.708   3.417  0.1824  0.4165  0.3040
  278MOL0     C37432   3.589   3.658   3.470  0.0517  0.1703 -0.2179
  278MOL0     C37433   3.668   3.773   3.534  0.2393 -0.1958 -0.8853
  278MOL0     C37434   3.805   3.719   3.574 -0.1722  0.5485 -0.8074
  278MOL0     C37435   3.893   3.813   3.667 -0.1605 -0.3943  0.2586
  278MOL0     C37436   4.010   3.731   3.723 -0.9431 -0.5446 -0.9591
  278MOL0     C37437   4.121   3.827   3.793  0.1886 -0.0329  0.1880
  278MOL0     C37438   4.090   3.862   3.940 -0.3764  0.1495  0.4390
  278MOL0    Cl37439   3.966   3.982   3.954  0.0422 -0.1093  0.2795
  278MOL0     C37440   3.165   3.757   3.379 -0.3530  0.4783 -0.5573
  278MOL0     C37441   3.026   3.784   3.368 -0.5021 -0.4721  0.1341
  278MOL0     O37442   2.782   3.913   3.562 -0.0309 -0.1310  0.3380
  278MOL0     C37443   2.539   3.771   3.340  0.4911  0.2229  0.5717
  278MOL0     C37444   2.407   3.790   3.300  0.3526 -0.1211  0.1455
  278MOL0     N37445   1.686   3.820   2.872 -0.0090 -0.7017 -0.3920
  278MOL0     N37446   1.647   3.790   2.750 -0.2473 -0.0824 -1.1025
  278MOL0     C37447   0.618   3.550   2.439 -0.4046 -0.9526  0.4401
  278MOL0     C37448   0.498   3.515   2.375 -0.9096  0.5726  0.3101
  278MOL0     C37449   0.104   3.414   2.233 -0.0003 -0.1761  0.3383
  278MOL0     C37450   0.112   3.320   2.124 -1.3082  1.1535  0.5064
  278MOL0     C37451   0.016   3.305   2.019  1.1149  0.2876  0.2345
  278MOL0     C37452  -0.102   3.383   2.034  0.6433  0.3196  0.1088
  278MOL0     O37453  -0.205   3.356   1.943 -0.3002 -0.0205 -0.2463
  278MOL0     C37454  -0.299   3.466   1.921 -1.0524  0.1061 -0.6040
  278MOL0     C37455  -0.377   3.435   1.787 -0.3115  0.4758  0.7035
  278MOL0     C37456  -0.486   3.531   1.753  0.5963 -0.4943 -0.2287
  278MOL0     C37457  -0.610   3.536   1.845  0.2191  0.1618  0.2950
  278MOL0     C37458  -0.721   3.537   1.745 -0.6268  0.8424  0.3371
  278MOL0     C37459  -0.814   3.524   1.667 -0.0295  0.0995  0.3382
  278MOL0     C37460  -0.114   3.476   2.138  0.7272  0.2482  0.0500
  278MOL0     C37461  -0.011   3.493   2.233  1.0880 -0.3543 -0.2791
  278MOL0     C37462  -0.038   3.598   2.342 -0.0962  0.2889 -0.1659
  278MOL0     H37463   0.495   3.178   2.421  3.7037 -1.7801  2.0026
  278MOL0     H37464   0.704   3.237   2.535 -1.3770 -1.6507 -0.3769
  278MOL0     H37465   0.895   3.314   2.598  1.8087 -0.1409  0.1209
  278MOL0     H37466   0.959   3.418   2.473 -0.2065  1.4695  0.3595
  278MOL0     H37467   0.974   3.453   2.765  2.5132 -2.0593 -0.3154
  278MOL0     H37468   1.003   3.593   2.662  0.5971  0.2927 -0.5507
  278MOL0     H37469   1.160   3.335   2.598 -0.8279 -0.6951  0.6538
  278MOL0     H37470   1.199   3.412   2.743  0.2436  1.0963  0.5499
  278MOL0     H37471   1.190   3.580   2.492 -1.2064  0.2133  1.0230
  278MOL0     H37472   1.247   3.616   2.646 -1.2925 -1.0375 -0.4618
  278MOL0     H37473   1.405   3.420   2.621  1.6276  1.8588  1.1001
  278MOL0     H37474   1.381   3.446   2.449  0.5588  0.6179  0.1227
  278MOL0     H37475   1.478   3.674   2.463 -0.1911  1.1296  0.8465
  278MOL0     H37476   1.478   3.657   2.638  2.8098 -2.1773  1.9819
  278MOL0     H37477   1.640   3.497   2.457 -0.1953  0.0186 -0.1745
  278MOL0     H37478   1.622   3.475   2.637 -2.6271  0.2268 -0.4336
  278MOL0     H37479   1.826   3.600   2.547  1.2476  3.1741  0.3630
  278MOL0     H37480   1.738   3.709   2.474  0.4786 -0.7066  0.0335
  278MOL0     H37481   1.963   3.686   2.766  0.0752  1.3067 -0.7616
  278MOL0     H37482   1.857   3.922   3.043 -1.1493  0.4760 -2.1742
  278MOL0     H37483   1.874   3.757   3.097  0.3419 -0.7891 -1.0105
  278MOL0     H37484   2.097   3.739   3.013  4.5969  1.3943  2.6751
  278MOL0     H37485   2.078   3.894   2.919 -2.3120 -1.3849 -1.0998
  278MOL0     H37486   2.032   4.006   3.155 -1.1222 -0.4403  0.9080
  278MOL0     H37487   2.204   3.950   3.128  0.4235 -0.8283  4.9698
  278MOL0     H37488   2.158   3.746   3.227  0.3262  2.8407 -2.3830
  278MOL0     H37489   2.017   3.826   3.306  0.5645  0.6328  3.0018
  278MOL0     H37490   2.324   4.019   3.543 -1.0931 -0.9204  0.4235
  278MOL0     H37491   2.548   4.000   3.603  1.8485 -1.3470  0.4694
  278MOL0     H37492   2.928   3.581   3.624 -2.4884  0.3109 -0.8373
  278MOL0     H37493   3.185   3.526   3.619 -0.6097 -1.0646 -1.7703
  278MOL0     H37494   3.458   3.692   3.309  0.6591 -2.0814  0.6312
  278MOL0     H37495   3.438   3.816   3.427 -1.5437  0.4279 -1.6247
  278MOL0     H37496   3.575   3.583   3.549  0.5145  0.4737  0.1571
  278MOL0     H37497   3.645   3.611   3.389  0.0978 -0.3768  0.1277
  278MOL0     H37498   3.693   3.853   3.464  2.2081 -3.3191 -4.0902
  278MOL0     H37499   3.615   3.823   3.616 -1.3556 -1.6774 -0.9473
  278MOL0     H37500   3.852   3.706   3.476 -0.9127 -0.6907 -1.0239
  278MOL0     H37501   3.792   3.617   3.612  1.4112  0.3833 -0.6537
  278MOL0     H37502   3.834   3.845   3.753  1.1711  1.6265  0.4962
  278MOL0     H37503   3.928   3.905   3.618 -0.7803  0.5908  1.5967
  278MOL0     H37504   3.968   3.668   3.803  1.2716 -0.3659  0.4202
  278MOL0     H37505   4.060   3.675   3.643  1.5543 -0.9296  0.7489
  278MOL0     H37506   4.135   3.923   3.743 -0.2063 -0.7333 -1.3523
  278MOL0     H37507   4.214   3.769   3.783 -0.2980 -1.0719  1.4125
  278MOL0     H37508   4.057   3.771   3.990  0.8467 -0.9552 -0.6856
  278MOL0     H37509   4.184   3.891   3.989  0.9841 -0.2013 -1.8376
  278MOL0     H37510   3.242   3.800   3.316  1.0094 -2.7725 -1.3264
  278MOL0     H37511   2.983   3.855   3.299  0.5492  0.1920  0.1517
  278MOL0     H37512   2.604   3.700   3.290  0.5634 -0.6915  1.9268
  278MOL0     H37513   2.371   3.735   3.213 -0.6373 -1.3343  1.2899
  278MOL0     H37514   0.647   3.655   2.440 -0.4447 -0.9205  2.2946
  278MOL0     H37515   0.434   3.597   2.345 -0.3378  0.6345 -0.7698
  278MOL0     H37516   0.195   3.252   2.111 -1.4804  0.9448  0.4889
  278MOL0     H37517   0.032   3.226   1.946 -1.1680 -1.8037  1.8162
  278MOL0     H37518  -0.247   3.562   1.907  2.1830 -1.0756  2.0464
  278MOL0     H37519  -0.365   3.474   2.008 -0.8137  4.2034 -0.5844
  278MOL0     H37520  -0.412   3.331   1.794  2.3518 -0.5552 -0.1630
  278MOL0     H37521  -0.310   3.428   1.701  0.7785  3.9779  1.1306
  278MOL0     H37522  -0.518   3.501   1.653 -1.0338  0.8252 -0.1529
  278MOL0     H37523  -0.447   3.632   1.737  0.2803 -0.4185 -0.5253
  278MOL0     H37524  -0.616   3.442   1.900  0.1836  0.3065  0.5402
  278MOL0     H37525  -0.619   3.622   1.912  0.5917 -0.3720  1.0462
  278MOL0     H37526  -0.890   3.527   1.592  1.8691  1.3369 -1.6480
  278MOL0     H37527  -0.199   3.543   2.141  1.3359  1.0914 -0.8971
  278MOL0     H37528  -0.119   3.656   2.295 -2.3746 -2.4707  0.0397
  278MOL0     H37529  -0.068   3.573   2.444  1.3523 -0.7362  0.0397
  278MOL0     H37530   0.055   3.655   2.347 -0.8368  1.4317  1.6520
  279MOL0     O37531   9.173   7.735   3.246 -0.0981 -0.3682  0.4156
  279MOL0     C37532   9.232   7.828   3.192 -0.2354 -0.5494  0.3372
  279MOL0     O37533   9.169   7.930   3.128 -0.1683  0.0575 -0.1739
  279MOL0     C37534   9.032   7.947   3.107  0.8704 -0.2543 -0.5213
  279MOL0     C37535   8.930   7.841   3.118 -0.6614 -0.2363 -0.0611
  279MOL0     C37536   8.798   7.871   3.104 -0.4343  0.4423 -0.4478
  279MOL0     C37537   8.753   8.004   3.070 -0.2339 -0.2709  0.8641
  279MOL0     O37538   8.617   8.019   3.066 -0.4438  0.2615  0.2984
  279MOL0     C37539   8.576   8.148   3.098 -0.7144 -0.0809 -0.4503
  279MOL0     C37540   8.427   8.154   3.137 -0.3173 -0.8489 -0.4377
  279MOL0     C37541   8.406   8.064   3.265 -0.2211 -0.3900 -0.3256
  279MOL0     C37542   8.258   8.031   3.273 -0.7767 -0.0301 -0.0317
  279MOL0     C37543   8.172   8.152   3.306  1.0644  0.6789  0.2582
  279MOL0     C37544   8.018   8.134   3.270  0.2798 -0.3100  0.4835
  279MOL0     C37545   7.942   8.233   3.346  0.3431 -0.0875  0.0083
  279MOL0     C37546   7.877   8.189   3.475 -0.0800 -0.1208 -0.3536
  279MOL0     N37547   7.802   8.310   3.518 -0.3766  0.5641  0.0091
  279MOL0     C37548   7.695   8.360   3.438 -0.5237 -0.5452  0.2059
  279MOL0     C37549   7.682   8.487   3.498  0.0244 -0.0781 -0.8008
  279MOL0     C37550   7.561   8.579   3.476 -0.6497  0.2323  0.5821
  279MOL0     C37551   7.604   8.720   3.487  0.2996  0.0126 -0.7527
  279MOL0     C37552   7.497   8.826   3.441 -0.2618 -0.9324  0.1102
  279MOL0     C37553   7.370   8.772   3.374  0.0839 -0.2143 -0.3545
  279MOL0     O37554   7.382   8.716   3.243  0.2619  0.4898  1.0242
  279MOL0     C37555   7.276   8.632   3.212  0.5364  0.4493  0.5550
  279MOL0     C37556   7.307   8.537   3.123  0.4385 -0.0453 -0.0206
  279MOL0     C37557   7.212   8.440   3.091 -0.0271 -0.1830 -0.3257
  279MOL0     C37558   7.083   8.430   3.156 -0.1878  0.6653  0.3130
  279MOL0     C37559   6.988   8.330   3.117 -0.0634  0.5033  0.5554
  279MOL0     O37560   6.854   8.350   3.144  0.6888 -0.2626 -0.3694
  279MOL0     C37561   6.756   8.271   3.095 -1.1533  1.0328  0.1454
  279MOL0     C37562   6.627   8.286   3.152  0.1483  0.7749 -0.4366
  279MOL0     C37563   6.526   8.208   3.093  0.2059 -0.3278  0.3789
  279MOL0     C37564   6.547   8.123   2.974  0.0903 -0.8744  0.2123
  279MOL0     O37565   6.434   8.063   2.925 -1.0120  0.5792  0.3136
  279MOL0     C37566   6.462   7.973   2.814  0.2154 -0.9132  0.2350
  279MOL0     C37567   6.321   7.905   2.798 -0.9019 -0.2276 -0.9351
  279MOL0     C37568   6.306   7.818   2.678 -0.1107  0.3418 -0.0239
  279MOL0     C37569   6.392   7.692   2.695  0.6202  1.0420 -0.5024
  279MOL0     C37570   6.362   7.592   2.582 -0.1516 -0.3944 -0.3900
  279MOL0     C37571   6.476   7.486   2.561 -0.4284  0.2996 -0.0528
  279MOL0     C37572   6.474   7.382   2.677 -0.0400  0.0124  1.4448
  279MOL0     C37573   6.378   7.259   2.642 -0.2139  0.0404 -0.3873
  279MOL0    Cl37574   6.365   7.163   2.797  0.0462 -0.0193  0.0800
  279MOL0     C37575   6.672   8.122   2.919 -0.4384  0.7278 -1.1968
  279MOL0     C37576   6.776   8.194   2.978 -0.4950  0.8970  0.9411
  279MOL0     O37577   7.039   8.231   3.073  0.8581  0.3860  0.1497
  279MOL0     C37578   7.046   8.537   3.239 -0.3206  0.4611 -0.2137
  279MOL0     C37579   7.146   8.631   3.272  0.4316 -0.8252 -0.1804
  279MOL0     N37580   7.767   8.496   3.609  0.2342  1.1282 -0.5862
  279MOL0     N37581   7.842   8.396   3.619 -0.8246  0.6876  0.3972
  279MOL0     C37582   8.852   8.100   3.048  0.3036 -0.7965 -0.4825
  279MOL0     C37583   8.988   8.073   3.061 -0.7388  0.6264  0.1476
  279MOL0     C37584   9.382   7.824   3.172 -0.0168  0.4739  1.3421
  279MOL0     C37585   9.458   7.719   3.232  0.2740  0.0359 -0.7704
  279MOL0     C37586   9.595   7.700   3.209 -0.1162  0.5683 -0.1774
  279MOL0     C37587   9.667   7.776   3.125 -0.0783 -0.8669 -0.5935
  279MOL0     O37588   9.801   7.772   3.099 -0.1604 -0.0705 -0.3069
  279MOL0     C37589   9.879   7.816   3.212  0.2895  0.6648 -0.3014
  279MOL0     C37590  10.008   7.868   3.164  0.3267 -0.5875  0.1410
  279MOL0     C37591  10.083   7.927   3.285 -0.1484  0.2531  0.6094
  279MOL0     C37592  10.234   7.940   3.244 -0.3099  0.1679 -1.3769
  279MOL0     C37593  10.266   8.069   3.194  1.0529 -0.9653 -0.1312
  279MOL0     C37594  10.282   8.181   3.163  0.0168 -0.2836  0.1352
  279MOL0     C37595   9.591   7.882   3.062 -1.3752 -0.6775  0.0354
  279MOL0     C37596   9.452   7.909   3.079 -0.5561  0.2109  0.1641
  279MOL0     C37597   9.396   8.028   3.002  0.2414 -0.4092  0.5467
  279MOL0     H37598   8.946   7.736   3.138 -4.4676 -1.1569 -0.9866
  279MOL0     H37599   8.722   7.796   3.127 -1.7915  2.3434  1.6710
  279MOL0     H37600   8.641   8.187   3.176  2.5874  0.0010 -3.0134
  279MOL0     H37601   8.587   8.201   3.003  1.2002 -2.0546 -1.4037
  279MOL0     H37602   8.368   8.117   3.053  1.2770 -1.1652 -1.4699
  279MOL0     H37603   8.410   8.260   3.158  0.7428 -1.0512  1.7105
  279MOL0     H37604   8.437   8.113   3.357 -0.2515 -0.2445 -0.3923
  279MOL0     H37605   8.447   7.963   3.258  1.0553  0.0894 -0.0456
  279MOL0     H37606   8.232   7.967   3.188  2.0544 -3.3585  1.3227
  279MOL0     H37607   8.245   7.970   3.362  0.8452  0.2037  0.4047
  279MOL0     H37608   8.184   8.158   3.414  1.0521  2.3930  0.1865
  279MOL0     H37609   8.205   8.242   3.252  1.6594 -0.8995 -2.1721
  279MOL0     H37610   8.008   8.136   3.161 -0.7915 -1.2247  0.5547
  279MOL0     H37611   7.987   8.034   3.301 -1.5468  0.1863  0.3831
  279MOL0     H37612   7.869   8.283   3.281 -1.7841 -0.7784  1.7393
  279MOL0     H37613   8.006   8.319   3.367 -0.9788  1.1247 -0.7266
  279MOL0     H37614   7.818   8.100   3.456  3.1063 -2.5013  0.0410
  279MOL0     H37615   7.959   8.158   3.541 -0.0438 -1.8442 -1.1497
  279MOL0     H37616   7.639   8.311   3.359 -1.2425  1.1739 -0.4055
  279MOL0     H37617   7.530   8.567   3.372  1.3215  5.0873 -0.8289
  279MOL0     H37618   7.480   8.555   3.544  0.2855 -1.5964  1.1352
  279MOL0     H37619   7.627   8.744   3.591 -2.0183 -0.0785 -0.1608
  279MOL0     H37620   7.688   8.732   3.417 -0.7350 -2.2011 -2.5114
  279MOL0     H37621   7.546   8.895   3.372 -0.7564  1.2198  1.8209
  279MOL0     H37622   7.463   8.883   3.528  0.1811  0.0509 -0.3477
  279MOL0     H37623   7.297   8.852   3.362  0.1223 -0.2482 -0.8417
  279MOL0     H37624   7.319   8.703   3.441  1.6592 -0.6003  0.4873
  279MOL0     H37625   7.397   8.524   3.063  1.5654 -2.6956  2.0542
  279MOL0     H37626   7.233   8.359   3.022 -0.8408 -2.7990  2.3027
  279MOL0     H37627   6.613   8.352   3.238  2.0833  1.1564 -0.3807
  279MOL0     H37628   6.426   8.205   3.135 -0.1390  1.7148 -0.2282
  279MOL0     H37629   6.491   8.030   2.725  0.9878 -2.0331 -0.2508
  279MOL0     H37630   6.540   7.896   2.819  0.3948 -1.0403 -2.5357
  279MOL0     H37631   6.285   7.863   2.892 -1.4331 -0.0373 -1.0514
  279MOL0     H37632   6.250   7.988   2.792  1.2771  1.7533 -0.8989
  279MOL0     H37633   6.201   7.788   2.672 -0.1928 -0.3273  3.1072
  279MOL0     H37634   6.344   7.866   2.587 -1.3730  1.9684  0.2592
  279MOL0     H37635   6.376   7.656   2.797 -3.0349  0.4957 -1.1121
  279MOL0     H37636   6.497   7.721   2.691  1.5830 -1.9774  0.1670
  279MOL0     H37637   6.358   7.631   2.480  3.3023  1.9314  0.1735
  279MOL0     H37638   6.265   7.545   2.599 -0.0416 -0.6489 -0.4621
  279MOL0     H37639   6.458   7.429   2.469  2.5509 -0.9415  0.0319
  279MOL0     H37640   6.572   7.538   2.556 -0.0830 -0.2399  0.9041
  279MOL0     H37641   6.446   7.426   2.773 -2.3623 -0.2974  0.9808
  279MOL0     H37642   6.575   7.344   2.694 -0.2270 -0.5137  1.3938
  279MOL0     H37643   6.279   7.297   2.615 -2.0280 -3.2086  1.0328
  279MOL0     H37644   6.421   7.200   2.560  2.6883  3.4878 -1.5823
  279MOL0     H37645   6.693   8.069   2.827 -0.3305 -2.3916  0.4804
  279MOL0     H37646   6.869   8.179   2.923 -1.9475 -1.0491 -1.1639
  279MOL0     H37647   6.942   8.556   3.263 -0.3613  1.5505 -1.1448
  279MOL0     H37648   7.116   8.702   3.349  0.6963 -2.3164  1.3643
  279MOL0     H37649   8.819   8.197   3.011 -0.9104 -1.2001 -0.4965
  279MOL0     H37650   9.062   8.149   3.041  1.9506 -0.9824  3.0509
  279MOL0     H37651   9.415   7.652   3.306 -2.1121  0.5764 -1.6033
  279MOL0     H37652   9.644   7.626   3.270 -2.5561 -1.3884 -0.4390
  279MOL0     H37653   9.901   7.732   3.278 -0.0101  1.3254  0.6744
  279MOL0     H37654   9.832   7.890   3.278  2.4360  0.3463  1.7355
  279MOL0     H37655   9.991   7.945   3.088 -0.0371 -1.0270 -0.2311
  279MOL0     H37656  10.072   7.793   3.115  0.2526 -0.7134  0.2356
  279MOL0     H37657  10.074   7.869   3.377  1.1526  0.3003  0.7870
  279MOL0     H37658  10.043   8.027   3.306  0.7857  1.0329 -1.0432
  279MOL0     H37659  10.298   7.928   3.332 -0.2643  2.9731 -0.9232
  279MOL0     H37660  10.261   7.858   3.178  1.0684  0.1202 -0.7875
  279MOL0     H37661  10.309   8.276   3.123  0.7165  0.1109  1.4600
  279MOL0     H37662   9.657   7.950   3.009 -0.2517 -1.1711  0.7765
  279MOL0     H37663   9.444   8.037   2.904 -2.6699  0.1610 -0.9396
  279MOL0     H37664   9.300   7.999   2.958  0.6078 -2.8578  1.2214
  279MOL0     H37665   9.394   8.121   3.060 -0.6444  0.4081 -0.7432
  280MOL0     O37666   5.648   4.006   0.408  0.2710  0.6020 -0.5745
  280MOL0     C37667   5.617   3.894   0.370  0.3776  0.6485 -0.3755
  280MOL0     O37668   5.700   3.809   0.299 -0.1146  0.7581 -0.2660
  280MOL0     C37669   5.834   3.837   0.284  0.5552  0.3457 -0.1050
  280MOL0     C37670   5.881   3.877   0.155  0.6185 -0.0624  0.4449
  280MOL0     C37671   6.013   3.889   0.120  0.7568 -1.3278 -0.9904
  280MOL0     C37672   6.113   3.871   0.216  0.7003 -0.0470  0.3285
  280MOL0     O37673   6.250   3.881   0.207 -0.7530  0.5253 -0.1473
  280MOL0     C37674   6.306   3.889   0.073 -0.0333  0.2615 -0.5839
  280MOL0     C37675   6.358   3.748   0.013  0.6283  0.1104 -0.3324
  280MOL0     C37676   6.354   3.629   0.105  0.2841  0.1330  0.3903
  280MOL0     C37677   6.458   3.622   0.211  0.0019 -0.3361  0.0042
  280MOL0     C37678   6.391   3.584   0.351 -0.3215 -0.4479  0.3008
  280MOL0     C37679   6.490   3.617   0.479 -0.5626  0.6355 -0.6375
  280MOL0     C37680   6.608   3.518   0.465  0.0962  0.4339 -0.0475
  280MOL0     C37681   6.715   3.551   0.570  1.0025  0.1311  0.1792
  280MOL0     N37682   6.838   3.477   0.571 -0.1370 -0.2392 -0.4238
  280MOL0     C37683   6.903   3.437   0.690  0.7671  0.1349  0.1083
  280MOL0     C37684   7.032   3.424   0.652  0.4005 -0.6735  0.1260
  280MOL0     C37685   7.160   3.405   0.738  0.2467 -1.0638  0.2312
  280MOL0     C37686   7.291   3.383   0.658  0.0261  0.8789 -0.0449
  280MOL0     C37687   7.415   3.402   0.740 -0.6975  0.1860  0.0038
  280MOL0     C37688   7.548   3.419   0.667 -0.0049  0.9724 -0.7493
  280MOL0     O37689   7.608   3.294   0.646 -0.2476  0.5841  0.3219
  280MOL0     C37690   7.725   3.286   0.566  0.7281  0.1548 -0.2783
  280MOL0     C37691   7.772   3.163   0.510  0.0190  0.2270 -0.1409
  280MOL0     C37692   7.891   3.147   0.450 -0.5293 -0.1708 -0.2269
  280MOL0     C37693   7.981   3.253   0.438  0.7512 -0.1484  0.4316
  280MOL0     C37694   8.112   3.253   0.378 -0.2734  0.7773 -0.5655
  280MOL0     O37695   8.185   3.362   0.395 -0.3427 -0.1438 -0.0683
  280MOL0     C37696   8.319   3.379   0.378  0.5207  0.1977  0.0714
  280MOL0     C37697   8.405   3.262   0.385  1.0123 -0.1722  0.1812
  280MOL0     C37698   8.535   3.268   0.332 -0.9564  0.2023 -0.4717
  280MOL0     C37699   8.575   3.398   0.284  0.5956 -0.3153  0.1488
  280MOL0     O37700   8.692   3.399   0.217  0.4792  0.5728  0.0706
  280MOL0     C37701   8.775   3.517   0.229 -0.0323  0.0366 -0.0427
  280MOL0     C37702   8.844   3.509   0.366  0.4146 -0.7623  0.1887
  280MOL0     C37703   8.926   3.381   0.375 -0.6420 -0.0791 -0.8268
  280MOL0     C37704   9.040   3.387   0.471  0.4251  0.1650  0.0150
  280MOL0     C37705   9.112   3.244   0.491 -0.0695 -0.0403  0.2455
  280MOL0     C37706   9.220   3.266   0.598  0.0003  0.3767 -0.1890
  280MOL0     C37707   9.326   3.155   0.623 -1.0408  0.7428 -0.6197
  280MOL0     C37708   9.399   3.181   0.755 -0.4541  0.8334  0.2385
  280MOL0    Cl37709   9.310   3.174   0.906  0.3464 -0.0686  0.0021
  280MOL0     C37710   8.492   3.512   0.290 -0.1302 -1.1823 -0.4496
  280MOL0     C37711   8.353   3.501   0.329 -0.0725  0.2082  0.1982
  280MOL0     O37712   8.145   3.150   0.317 -0.4313 -0.1926  0.6071
  280MOL0     C37713   7.935   3.378   0.490 -0.1568 -0.3706  0.5232
  280MOL0     C37714   7.815   3.395   0.555  0.3409 -0.0138 -0.1884
  280MOL0     N37715   7.039   3.458   0.517 -0.4441 -0.2880 -0.0788
  280MOL0     N37716   6.925   3.485   0.467  0.4791 -0.1705 -0.0515
  280MOL0     C37717   6.077   3.829   0.345 -0.2389 -0.2415 -1.0145
  280MOL0     C37718   5.935   3.822   0.386  0.9071  0.3071  0.9400
  280MOL0     C37719   5.480   3.843   0.401 -0.8887 -0.3993  0.3047
  280MOL0     C37720   5.456   3.717   0.367 -0.3921 -0.3552 -0.0051
  280MOL0     C37721   5.334   3.657   0.391  0.1637  0.2883 -0.4316
  280MOL0     C37722   5.233   3.734   0.447 -0.7688 -0.5956  0.7434
  280MOL0     O37723   5.115   3.685   0.473  0.3197 -0.5528  0.0375
  280MOL0     C37724   5.068   3.580   0.382 -1.0554  0.7652 -0.3000
  280MOL0     C37725   4.926   3.586   0.371  0.4145 -0.4628 -0.3693
  280MOL0     C37726   4.851   3.540   0.486 -0.3727 -0.0669 -0.6056
  280MOL0     C37727   4.707   3.558   0.464  0.6843  0.9782  0.5776
  280MOL0     C37728   4.630   3.468   0.552 -0.8182  0.2099 -0.4513
  280MOL0     C37729   4.565   3.403   0.630 -1.2862  0.1720  0.0712
  280MOL0     C37730   5.258   3.858   0.489 -0.5644 -0.3661 -0.2533
  280MOL0     C37731   5.382   3.915   0.470 -0.0625  0.1098 -0.0174
  280MOL0     C37732   5.398   4.062   0.511 -0.6536 -0.2499 -0.9677
  280MOL0     H37733   5.809   3.883   0.074 -0.0870 -3.0575  0.7345
  280MOL0     H37734   6.037   3.932   0.023  2.0524  1.9665  0.6306
  280MOL0     H37735   6.228   3.918   0.002 -0.7900  1.9946  0.8896
  280MOL0     H37736   6.391   3.958   0.070  0.6477 -0.5056  0.3268
  280MOL0     H37737   6.455   3.761  -0.038  0.5969  2.4377  0.1069
  280MOL0     H37738   6.294   3.724  -0.072 -1.5594 -1.4104  1.6179
  280MOL0     H37739   6.370   3.545   0.036 -2.0984 -0.7819  0.8303
  280MOL0     H37740   6.253   3.606   0.142  0.6068 -0.8465  0.6952
  280MOL0     H37741   6.539   3.556   0.179 -0.3125 -1.0031  0.5498
  280MOL0     H37742   6.496   3.722   0.231  0.3639 -0.9804  3.1458
  280MOL0     H37743   6.309   3.656   0.356  1.5578  2.1429 -2.5507
  280MOL0     H37744   6.349   3.483   0.349  1.2725 -1.1435  0.2338
  280MOL0     H37745   6.521   3.721   0.466 -3.0078  1.3870 -1.0924
  280MOL0     H37746   6.441   3.595   0.574 -1.3062 -0.9568 -1.3379
  280MOL0     H37747   6.644   3.536   0.363 -3.4167 -3.8735 -2.3562
  280MOL0     H37748   6.580   3.413   0.473  2.9758 -0.8207 -3.7007
  280MOL0     H37749   6.748   3.655   0.575  0.8836  0.1257  2.5909
  280MOL0     H37750   6.668   3.530   0.667  1.9847  3.9471  1.6803
  280MOL0     H37751   6.871   3.436   0.793  2.3548  0.2774  0.6254
  280MOL0     H37752   7.166   3.506   0.781 -0.8894 -0.9352  0.1181
  280MOL0     H37753   7.150   3.336   0.822  2.7007  3.0911  4.4385
  280MOL0     H37754   7.300   3.283   0.615  2.4162  0.6972  0.7379
  280MOL0     H37755   7.306   3.448   0.571  0.8679  0.8221  0.0547
  280MOL0     H37756   7.421   3.315   0.806  1.2014 -1.2293 -1.8845
  280MOL0     H37757   7.397   3.500   0.785 -1.8132  0.5138 -1.0988
  280MOL0     H37758   7.619   3.485   0.718  0.8535 -1.0353  0.7718
  280MOL0     H37759   7.520   3.462   0.571  0.6201 -0.5272 -1.6396
  280MOL0     H37760   7.704   3.080   0.528  2.2495 -1.4643  0.9965
  280MOL0     H37761   7.931   3.055   0.408  2.7689  1.3951 -0.8741
  280MOL0     H37762   8.376   3.163   0.418  2.6387 -1.8612 -3.0167
  280MOL0     H37763   8.595   3.177   0.333  1.0466  1.4279  1.8758
  280MOL0     H37764   8.839   3.529   0.141  0.4001 -0.1941  0.2395
  280MOL0     H37765   8.716   3.609   0.217 -1.8379 -0.8493  1.4703
  280MOL0     H37766   8.902   3.601   0.381 -1.1551  0.9267 -3.1331
  280MOL0     H37767   8.763   3.516   0.439 -0.3116  1.3502 -0.7288
  280MOL0     H37768   8.865   3.297   0.412  2.3098 -1.1639  2.1074
  280MOL0     H37769   8.961   3.350   0.276 -2.8258 -0.7088 -1.4610
  280MOL0     H37770   8.997   3.404   0.570  1.5625  0.7018  0.4341
  280MOL0     H37771   9.115   3.465   0.456  0.8666  0.0218  1.3452
  280MOL0     H37772   9.149   3.207   0.395 -3.4988  0.1146 -1.2759
  280MOL0     H37773   9.032   3.180   0.529 -2.2721  2.4731  0.1604
  280MOL0     H37774   9.273   3.359   0.575 -1.1714  1.9480  2.8771
  280MOL0     H37775   9.171   3.290   0.693  1.3269  2.3290  0.0747
  280MOL0     H37776   9.408   3.156   0.550 -1.3736 -4.6103 -1.4542
  280MOL0     H37777   9.280   3.056   0.625 -0.8820  0.6573 -1.0252
  280MOL0     H37778   9.473   3.100   0.750  0.4246  1.6818 -1.1207
  280MOL0     H37779   9.460   3.272   0.756  2.2604 -0.8648 -0.5398
  280MOL0     H37780   8.528   3.612   0.267 -0.8619 -0.8435 -0.1537
  280MOL0     H37781   8.277   3.575   0.307 -0.2207 -0.3124 -1.1136
  280MOL0     H37782   8.002   3.463   0.495 -1.1567  0.4051  0.8882
  280MOL0     H37783   7.806   3.491   0.605  0.0553 -0.2014  0.1286
  280MOL0     H37784   6.160   3.808   0.413 -1.5954 -2.5812  0.0662
  280MOL0     H37785   5.888   3.783   0.476 -0.7859  1.6207  0.6674
  280MOL0     H37786   5.534   3.653   0.327  0.5413 -0.1362  1.4353
  280MOL0     H37787   5.320   3.555   0.357  3.8940 -0.2200 -0.9056
  280MOL0     H37788   5.096   3.477   0.408 -2.4386  0.0393 -1.5103
  280MOL0     H37789   5.104   3.601   0.281 -1.7946  0.8494 -0.5459
  280MOL0     H37790   4.899   3.523   0.286  2.7477 -1.2892 -0.5720
  280MOL0     H37791   4.904   3.691   0.347  0.2863 -0.4913 -0.3786
  280MOL0     H37792   4.875   3.578   0.586  0.2194  1.6287 -1.3523
  280MOL0     H37793   4.880   3.435   0.496  0.7862  0.2637 -0.3336
  280MOL0     H37794   4.684   3.662   0.490 -3.5324  0.3589 -0.0534
  280MOL0     H37795   4.675   3.538   0.362  1.5361 -2.3219  0.8449
  280MOL0     H37796   4.498   3.347   0.691  0.4887 -1.0094  1.0081
  280MOL0     H37797   5.183   3.913   0.546  0.2791  0.9125 -0.3461
  280MOL0     H37798   5.455   4.125   0.443  0.2772 -1.2338 -1.1263
  280MOL0     H37799   5.297   4.103   0.519  0.1004  1.3765  0.8850
  280MOL0     H37800   5.443   4.077   0.610  1.8836  0.9355 -2.2079
  281MOL0     O37801   9.103   9.152   1.801  0.0067  1.1630 -0.7022
  281MOL0     C37802   9.156   9.072   1.880 -0.4411  0.3695 -0.4298
  281MOL0     O37803   9.172   8.941   1.858 -0.3363 -0.1133 -0.0249
  281MOL0     C37804   9.129   8.894   1.738 -0.5281 -0.0856 -0.5365
  281MOL0     C37805   8.993   8.853   1.727  0.2158 -0.1309 -0.0627
  281MOL0     C37806   8.943   8.802   1.600  0.2871 -1.3147 -0.1975
  281MOL0     C37807   9.026   8.793   1.488  0.3216 -1.4010 -0.1996
  281MOL0     O37808   8.965   8.749   1.372 -0.1339 -0.0564 -0.1890
  281MOL0     C37809   8.887   8.849   1.311 -0.9704  0.3363  0.1070
  281MOL0     C37810   8.854   8.778   1.177 -0.0649 -0.6795  0.7635
  281MOL0     C37811   8.968   8.769   1.071  0.7164  0.0477  0.6045
  281MOL0     C37812   9.013   8.906   1.028 -0.4007  0.1389 -0.3474
  281MOL0     C37813   9.098   8.900   0.899 -0.3059  0.6714  0.1049
  281MOL0     C37814   9.225   8.993   0.901 -0.2802  0.0287  0.0425
  281MOL0     C37815   9.315   8.961   0.774  0.2883  0.1293  0.3431
  281MOL0     C37816   9.381   8.830   0.778  0.4701 -0.0624 -0.6054
  281MOL0     N37817   9.449   8.797   0.905 -0.1623  0.4807 -0.7031
  281MOL0     C37818   9.402   8.718   1.000 -0.2091  0.7373  0.0126
  281MOL0     C37819   9.488   8.695   1.102  0.1407 -0.6026 -0.2083
  281MOL0     C37820   9.457   8.598   1.201  0.1917 -0.0552 -0.4853
  281MOL0     C37821   9.485   8.668   1.340  0.4188  0.6795 -0.0019
  281MOL0     C37822   9.424   8.593   1.455  0.1935  1.0797  0.3578
  281MOL0     C37823   9.462   8.451   1.470 -0.1759  0.3253 -0.2805
  281MOL0     O37824   9.611   8.436   1.468 -0.1069  0.0688 -0.4603
  281MOL0     C37825   9.681   8.440   1.594  0.6305 -0.2791  0.0712
  281MOL0     C37826   9.640   8.499   1.717  0.0948 -0.0673 -0.1319
  281MOL0     C37827   9.740   8.513   1.814  0.6300  0.6206  0.1099
  281MOL0     C37828   9.871   8.453   1.794  1.0425  0.5937 -0.7447
  281MOL0     C37829   9.982   8.453   1.895  0.4766 -0.3458  0.2892
  281MOL0     O37830   9.958   8.524   2.010 -0.2213  1.5741  0.1056
  281MOL0     C37831  10.054   8.558   2.107  0.1146  0.2087  0.6090
  281MOL0     C37832  10.006   8.570   2.243  0.2054 -0.4846 -1.1022
  281MOL0     C37833  10.087   8.596   2.348 -0.0844  1.0168 -0.1499
  281MOL0     C37834  10.227   8.626   2.326  0.8494 -0.1950  0.3856
  281MOL0     O37835  10.317   8.673   2.415 -0.1907  0.8407 -0.6519
  281MOL0     C37836  10.285   8.695   2.557 -0.1793  0.3312 -0.1846
  281MOL0     C37837  10.409   8.713   2.640  0.2211  0.5730 -0.4405
  281MOL0     C37838  10.498   8.810   2.573 -0.8959 -0.4790 -0.5620
  281MOL0     C37839  10.569   8.914   2.669 -0.2907  0.1419 -0.6734
  281MOL0     C37840  10.666   9.015   2.600  0.1770  0.3217 -0.0449
  281MOL0     C37841  10.737   9.098   2.716  0.4134 -0.2149  0.1290
  281MOL0     C37842  10.830   9.212   2.666  0.3674 -0.6247 -0.2091
  281MOL0     C37843  10.949   9.156   2.579 -0.1698  0.3427  0.5134
  281MOL0    Cl37844  11.084   9.111   2.682  0.0768  0.3192  0.3438
  281MOL0     C37845  10.270   8.600   2.191 -0.1456 -0.8390  0.4940
  281MOL0     C37846  10.186   8.571   2.084  0.0236  0.5040 -0.3468
  281MOL0     O37847  10.086   8.399   1.862 -0.4486 -0.0703  0.0777
  281MOL0     C37848   9.897   8.382   1.673 -0.2856 -0.7841 -0.5936
  281MOL0     C37849   9.802   8.378   1.572  0.4586  0.0192 -0.6256
  281MOL0     N37850   9.598   8.771   1.061  0.3694 -0.5779 -0.4274
  281MOL0     N37851   9.568   8.834   0.952  0.4194  0.9545 -0.1060
  281MOL0     C37852   9.159   8.839   1.498  0.7351 -0.4284  0.7107
  281MOL0     C37853   9.210   8.883   1.623  0.4946 -0.3073 -0.3067
  281MOL0     C37854   9.194   9.124   2.016  0.6726 -0.9487 -0.4225
  281MOL0     C37855   9.251   9.027   2.101 -1.0470 -0.1342 -0.4683
  281MOL0     C37856   9.267   9.057   2.234 -0.0730 -0.4887  0.3791
  281MOL0     C37857   9.228   9.178   2.291 -0.4763 -0.3167  0.1960
  281MOL0     O37858   9.273   9.198   2.419  0.6011 -0.1860 -0.2636
  281MOL0     C37859   9.233   9.314   2.491  0.7540 -0.3991 -0.6911
  281MOL0     C37860   9.329   9.442   2.458  0.2448  0.3665 -0.3941
  281MOL0     C37861   9.482   9.430   2.509  0.5572  0.2474  0.7494
  281MOL0     C37862   9.589   9.512   2.436 -0.4695  0.3997  0.6093
  281MOL0     C37863   9.723   9.506   2.501 -0.1976 -1.0695 -0.1248
  281MOL0     C37864   9.840   9.499   2.545  0.3394  1.1380 -1.0401
  281MOL0     C37865   9.160   9.274   2.218  0.0024 -0.1934 -0.2435
  281MOL0     C37866   9.142   9.245   2.082  0.8949  0.1556  0.4366
  281MOL0     C37867   9.089   9.362   1.994  0.0849  0.2633 -1.2700
  281MOL0     H37868   8.924   8.875   1.808 -2.0207 -1.3683 -1.5217
  281MOL0     H37869   8.838   8.779   1.583 -0.1016 -0.3792  0.8281
  281MOL0     H37870   8.796   8.863   1.370 -1.8697  0.6759 -1.3080
  281MOL0     H37871   8.924   8.951   1.295 -0.7071 -0.0147 -1.7129
  281MOL0     H37872   8.770   8.832   1.133  1.3871 -0.2298 -1.6620
  281MOL0     H37873   8.811   8.678   1.190  0.8113 -1.5813 -2.3058
  281MOL0     H37874   8.914   8.718   0.990  2.6872 -1.5394  0.2253
  281MOL0     H37875   9.039   8.699   1.115 -0.5572 -2.8417 -1.5538
  281MOL0     H37876   8.920   8.957   1.002 -0.7201  1.1398  2.3855
  281MOL0     H37877   9.062   8.957   1.112  0.8032 -1.9018  0.2647
  281MOL0     H37878   9.138   8.799   0.888 -1.3686 -0.0135  2.0412
  281MOL0     H37879   9.037   8.915   0.809 -2.4632 -1.2990  1.1262
  281MOL0     H37880   9.189   9.096   0.909  0.6309  0.3453  0.1298
  281MOL0     H37881   9.288   8.971   0.988 -0.8175  0.6784  0.6123
  281MOL0     H37882   9.394   9.036   0.769 -0.7419  1.1807 -0.8404
  281MOL0     H37883   9.264   8.969   0.677  1.9211 -4.1426 -1.1212
  281MOL0     H37884   9.302   8.755   0.766 -0.2321  0.8744 -2.2087
  281MOL0     H37885   9.449   8.819   0.694  1.2043  1.7817 -0.2841
  281MOL0     H37886   9.299   8.686   1.012  0.4837 -1.5599  0.2913
  281MOL0     H37887   9.353   8.565   1.192 -1.2098  3.7935  0.0266
  281MOL0     H37888   9.524   8.514   1.179  0.0809 -0.3171  0.1621
  281MOL0     H37889   9.592   8.678   1.363  0.5616 -1.0845  0.2481
  281MOL0     H37890   9.435   8.765   1.350 -1.1378 -0.2248  1.4493
  281MOL0     H37891   9.314   8.589   1.451  0.1459 -0.9082  1.8130
  281MOL0     H37892   9.456   8.652   1.541  0.0218  1.7670 -0.0396
  281MOL0     H37893   9.422   8.398   1.383  1.3949  3.1969 -2.9546
  281MOL0     H37894   9.423   8.407   1.562  0.3159 -0.2846 -0.3547
  281MOL0     H37895   9.546   8.553   1.722 -2.1055 -3.6529  0.8774
  281MOL0     H37896   9.733   8.579   1.899  2.5046  2.0844 -0.7851
  281MOL0     H37897   9.899   8.566   2.260  0.3752  0.8916  0.5260
  281MOL0     H37898  10.047   8.618   2.446 -0.3633  2.5759 -0.5767
  281MOL0     H37899  10.235   8.792   2.558 -0.4113  0.3103 -2.5823
  281MOL0     H37900  10.218   8.611   2.580  0.9833 -1.5516 -3.0624
  281MOL0     H37901  10.375   8.747   2.738  2.1372  3.2462 -0.5934
  281MOL0     H37902  10.463   8.619   2.654 -0.8264  0.0871  0.4972
  281MOL0     H37903  10.576   8.752   2.523 -1.8642 -0.7546 -1.7868
  281MOL0     H37904  10.443   8.869   2.499 -2.6298 -1.9261 -0.4944
  281MOL0     H37905  10.626   8.858   2.743 -0.8109  1.5686  0.8807
  281MOL0     H37906  10.496   8.972   2.727 -2.7483 -2.6767 -0.7138
  281MOL0     H37907  10.611   9.078   2.529 -0.2973 -1.3904 -1.2745
  281MOL0     H37908  10.737   8.961   2.537 -0.5139 -1.1383  0.3917
  281MOL0     H37909  10.662   9.134   2.787  1.8186 -1.5691  2.4337
  281MOL0     H37910  10.795   9.034   2.783  1.3272  1.2826  0.8410
  281MOL0     H37911  10.865   9.274   2.749  1.9107 -2.3290  0.4740
  281MOL0     H37912  10.760   9.279   2.614  0.1041 -0.2240  0.6294
  281MOL0     H37913  10.928   9.071   2.513  1.8430  0.3636 -0.2243
  281MOL0     H37914  10.988   9.229   2.506 -0.3261  0.9600  1.0452
  281MOL0     H37915  10.378   8.606   2.180 -0.3108  2.8350 -0.4284
  281MOL0     H37916  10.230   8.558   1.986 -2.1435 -1.5698 -1.1529
  281MOL0     H37917   9.996   8.339   1.661  0.2373 -1.0511  3.4605
  281MOL0     H37918   9.830   8.349   1.472 -2.9247 -0.7808 -1.4764
  281MOL0     H37919   9.225   8.836   1.411  0.2054 -0.9473  0.3239
  281MOL0     H37920   9.314   8.911   1.631  0.5154  0.2219 -2.0270
  281MOL0     H37921   9.292   8.932   2.067 -3.2422 -1.2910 -0.1473
  281MOL0     H37922   9.313   8.987   2.302 -0.2818  0.7118  1.7924
  281MOL0     H37923   9.234   9.296   2.599 -1.4552  2.4481 -0.0748
  281MOL0     H37924   9.128   9.341   2.483 -0.0034 -2.8382  0.2119
  281MOL0     H37925   9.281   9.525   2.511 -2.6566  0.2328 -2.5923
  281MOL0     H37926   9.317   9.469   2.353  0.6527  0.9436 -0.2987
  281MOL0     H37927   9.507   9.323   2.510  1.6629  0.2150 -4.2714
  281MOL0     H37928   9.484   9.475   2.609  1.0159 -0.2971  0.9917
  281MOL0     H37929   9.595   9.480   2.331 -1.1982 -1.3481  1.0722
  281MOL0     H37930   9.548   9.613   2.445 -2.4174 -0.1486 -1.1693
  281MOL0     H37931   9.941   9.507   2.581 -0.2120 -0.1773  0.9523
  281MOL0     H37932   9.145   9.377   2.250  0.9743  0.2710 -1.2266
  281MOL0     H37933   9.093   9.459   2.044 -3.1128 -0.6853  1.1374
  281MOL0     H37934   9.139   9.377   1.897  1.3958  5.3521 -0.1279
  281MOL0     H37935   8.985   9.337   1.972 -0.3584  0.1814  0.7346
  282MOL0     O37936   5.448  10.602  10.773  0.2727 -0.1486  0.5853
  282MOL0     C37937   5.494  10.498  10.719 -0.0642  0.2949 -1.2879
  282MOL0     O37938   5.614  10.443  10.757 -0.0290 -0.0333  1.4263
  282MOL0     C37939   5.715  10.521  10.819 -0.3040 -0.1818  0.3578
  282MOL0     C37940   5.848  10.475  10.795 -0.0079 -0.3219  0.5615
  282MOL0     C37941   5.954  10.551  10.844 -0.9351 -0.4765 -0.3994
  282MOL0     C37942   5.943  10.679  10.910  0.4555 -0.5641  0.6512
  282MOL0     O37943   6.061  10.751  10.933  0.0119 -0.3560 -0.8637
  282MOL0     C37944   6.060  10.856  11.032  0.1219 -0.4579 -0.7853
  282MOL0     C37945   6.196  10.927  11.032 -0.5320  0.3382  0.2399
  282MOL0     C37946   6.203  11.043  11.136  0.9369  0.1171  0.4951
  282MOL0     C37947   6.320  11.144  11.086  0.6129  0.1081  0.0349
  282MOL0     C37948   6.465  11.097  11.100  0.0556  0.4021  0.1671
  282MOL0     C37949   6.493  11.034  11.240 -0.2320  1.1519  0.4686
  282MOL0     C37950   6.641  11.004  11.253  0.1887 -0.0257  0.0689
  282MOL0     C37951   6.714  10.917  11.150 -0.4410  0.5164 -0.5083
  282MOL0     N37952   6.865  10.919  11.157  0.0528 -0.3731  0.4020
  282MOL0     C37953   6.952  10.919  11.264  0.1701 -1.2677  0.0601
  282MOL0     C37954   7.078  10.923  11.216 -0.4996  0.1938  0.9431
  282MOL0     C37955   7.201  10.941  11.304 -0.4367  1.0956 -0.1535
  282MOL0     C37956   7.293  11.059  11.258  0.1497  0.8791 -0.7303
  282MOL0     C37957   7.390  11.106  11.366 -0.0314 -0.1867 -0.6633
  282MOL0     C37958   7.503  11.190  11.309 -0.1685  0.4829 -0.3516
  282MOL0     O37959   7.543  11.271  11.423  0.5641  0.5009  0.6448
  282MOL0     C37960   7.661  11.348  11.415  1.0605 -0.5721  0.2200
  282MOL0     C37961   7.707  11.411  11.533  0.3957 -0.2344  0.1540
  282MOL0     C37962   7.817  11.485  11.528  0.4493  0.1619  0.1622
  282MOL0     C37963   7.895  11.500  11.413  0.6446  0.1846  0.4230
  282MOL0     C37964   8.028  11.569  11.410  0.5827 -0.9238 -0.2651
  282MOL0     O37965   8.097  11.582  11.296  0.2605  0.0265 -0.2594
  282MOL0     C37966   8.226  11.611  11.304 -0.7744 -1.0036 -0.5373
  282MOL0     C37967   8.323  11.532  11.360  0.5535  0.3497 -0.3497
  282MOL0     C37968   8.454  11.583  11.354 -0.5192 -1.0687  0.0736
  282MOL0     C37969   8.495  11.705  11.297 -0.6570 -0.2800 -0.5642
  282MOL0     O37970   8.628  11.728  11.277  0.8593  0.2093  0.0942
  282MOL0     C37971   8.735  11.654  11.339  0.3768  0.2225 -0.2090
  282MOL0     C37972   8.857  11.759  11.342  0.2120  0.0608  0.0644
  282MOL0     C37973   8.934  11.764  11.213 -0.2409  0.0421  0.2226
  282MOL0     C37974   9.021  11.640  11.187  0.7855  0.5509  0.9771
  282MOL0     C37975   9.087  11.644  11.049  0.7537  0.3585  0.1067
  282MOL0     C37976   9.217  11.722  11.017 -1.1406 -0.4317 -0.0917
  282MOL0     C37977   9.280  11.689  10.887  0.2196  0.5783  0.4748
  282MOL0     C37978   9.404  11.777  10.856  0.7392 -1.8101  0.0356
  282MOL0    Cl37979   9.340  11.930  10.778  0.5428 -0.0283  0.3493
  282MOL0     C37980   8.396  11.781  11.247  0.9233 -0.4861  0.1006
  282MOL0     C37981   8.257  11.736  11.255  0.4692  0.4499  1.1723
  282MOL0     O37982   8.073  11.610  11.519  0.2630  0.0781  0.5229
  282MOL0     C37983   7.845  11.441  11.293  0.8744 -0.0578 -0.5667
  282MOL0     C37984   7.728  11.368  11.297 -0.1812 -1.0351 -0.1420
  282MOL0     N37985   7.056  10.933  11.077 -0.1004 -0.4546  0.5429
  282MOL0     N37986   6.933  10.925  11.042 -0.2798  0.0747  0.0505
  282MOL0     C37987   5.812  10.720  10.940 -0.0551  0.9948 -0.6343
  282MOL0     C37988   5.702  10.638  10.894  1.4232  0.1372  0.2595
  282MOL0     C37989   5.405  10.423  10.626  0.4492  0.0264  0.2909
  282MOL0     C37990   5.271  10.470  10.595 -0.3269  0.8795  0.1324
  282MOL0     C37991   5.191  10.405  10.503 -0.4949  0.4592  0.6953
  282MOL0     C37992   5.234  10.279  10.445  0.9644 -1.1229  0.6922
  282MOL0     O37993   5.153  10.199  10.363 -0.2237 -0.5666 -0.0369
  282MOL0     C37994   5.030  10.247  10.313  0.3844 -0.6847  0.8773
  282MOL0     C37995   5.005  10.189  10.174 -0.2339 -0.3363  0.3141
  282MOL0     C37996   5.040  10.043  10.166 -0.3806  1.0080  0.6945
  282MOL0     C37997   4.951   9.949  10.258 -0.5399 -0.1498 -0.7865
  282MOL0     C37998   4.815   9.975  10.219 -0.0812  0.1950 -0.4379
  282MOL0     C37999   4.699   9.986  10.185  0.3841 -1.2097  0.5808
  282MOL0     C38000   5.364  10.232  10.478  1.0631 -0.0883  0.1714
  282MOL0     C38001   5.449  10.298  10.568  0.4502 -0.4890 -0.8603
  282MOL0     C38002   5.582  10.240  10.591 -0.6190  0.5142 -0.3924
  282MOL0     H38003   5.875  10.389  10.735  2.8483  0.3932  0.7100
  282MOL0     H38004   6.056  10.528  10.813 -0.9043 -0.0581 -0.6117
  282MOL0     H38005   5.983  10.931  11.013  0.0054  0.2082  1.9353
  282MOL0     H38006   6.038  10.806  11.127  3.0364 -2.1440 -0.8627
  282MOL0     H38007   6.206  10.967  10.930  0.0004 -1.5392 -0.5008
  282MOL0     H38008   6.279  10.858  11.050 -0.4820  0.0694 -0.9197
  282MOL0     H38009   6.228  10.993  11.230 -1.1507 -0.6406  0.6828
  282MOL0     H38010   6.112  11.100  11.153  0.8136 -0.1421  0.7136
  282MOL0     H38011   6.299  11.156  10.979 -1.4949  1.5730  0.5412
  282MOL0     H38012   6.307  11.242  11.131 -2.7982 -0.2656  0.1136
  282MOL0     H38013   6.490  11.026  11.021 -1.1608  0.3227 -0.1774
  282MOL0     H38014   6.526  11.187  11.084 -1.2710  1.2647 -0.2718
  282MOL0     H38015   6.478  11.105  11.322  1.4262  0.8049  1.1273
  282MOL0     H38016   6.437  10.940  11.247  2.0297 -0.3106  0.2740
  282MOL0     H38017   6.662  10.967  11.354 -0.7611  0.8558  0.6137
  282MOL0     H38018   6.691  11.102  11.255  0.6183 -0.2451  0.3454
  282MOL0     H38019   6.686  10.812  11.163 -1.4363  0.7259 -0.8366
  282MOL0     H38020   6.683  10.956  11.052 -1.4431 -0.2055 -0.5000
  282MOL0     H38021   6.919  10.920  11.368  0.0050 -1.0988  0.0054
  282MOL0     H38022   7.161  10.978  11.399 -0.7311 -0.3870  0.3344
  282MOL0     H38023   7.255  10.847  11.310 -0.3231  1.0498 -1.4633
  282MOL0     H38024   7.350  11.010  11.179  0.8081 -0.7101  0.6542
  282MOL0     H38025   7.237  11.146  11.222  0.4494 -0.2896 -4.3508
  282MOL0     H38026   7.434  11.021  11.418 -1.1464  0.0150  0.6854
  282MOL0     H38027   7.339  11.174  11.435  0.2442  0.9311 -1.5313
  282MOL0     H38028   7.468  11.251  11.224 -2.7559 -1.9608 -1.1846
  282MOL0     H38029   7.577  11.124  11.263 -1.2202  0.3548 -1.9734
  282MOL0     H38030   7.663  11.398  11.631 -1.1400 -1.6744 -0.6799
  282MOL0     H38031   7.846  11.529  11.623  2.1111  0.5082 -0.4597
  282MOL0     H38032   8.298  11.437  11.408  2.0436  0.2362  0.2541
  282MOL0     H38033   8.527  11.512  11.391  1.5379  0.1048 -1.5360
  282MOL0     H38034   8.710  11.605  11.433  1.3778  0.1486  0.0271
  282MOL0     H38035   8.769  11.575  11.272 -4.5057 -1.7039 -0.8564
  282MOL0     H38036   8.826  11.863  11.361 -0.8486 -0.1555 -0.4059
  282MOL0     H38037   8.926  11.726  11.420 -0.4927  2.2097  1.7191
  282MOL0     H38038   8.860  11.775  11.132 -0.1456 -0.7073  0.0316
  282MOL0     H38039   8.998  11.852  11.223 -0.8399  0.2514  3.0254
  282MOL0     H38040   8.961  11.549  11.192  1.4754  0.1425  1.9963
  282MOL0     H38041   9.091  11.635  11.271 -0.4642 -0.2288  2.0071
  282MOL0     H38042   9.020  11.680  10.969  1.6927  2.7743  0.3220
  282MOL0     H38043   9.112  11.539  11.033 -0.9623  0.2525 -2.4819
  282MOL0     H38044   9.197  11.829  11.028 -2.9356 -0.8061  0.5534
  282MOL0     H38045   9.279  11.693  11.102  0.7044 -1.7609 -1.7891
  282MOL0     H38046   9.208  11.699  10.806 -0.3802 -1.9522  0.5934
  282MOL0     H38047   9.321  11.589  10.905  1.5981  0.8021 -1.1762
  282MOL0     H38048   9.452  11.808  10.949 -1.9728 -2.0141  1.6023
  282MOL0     H38049   9.468  11.737  10.777  0.6737  1.7583 -2.0750
  282MOL0     H38050   8.417  11.873  11.194 -0.1559  1.6929  3.2157
  282MOL0     H38051   8.180  11.797  11.209  0.4762 -0.7250 -0.5098
  282MOL0     H38052   7.893  11.463  11.198  1.9048  0.8222  0.1296
  282MOL0     H38053   7.694  11.309  11.212  4.2155 -0.6519 -2.4477
  282MOL0     H38054   5.796  10.815  10.990  1.8386  1.6308 -1.1469
  282MOL0     H38055   5.604  10.676  10.917  1.3834 -0.8659  1.9255
  282MOL0     H38056   5.242  10.564  10.642  1.9353  2.0022 -0.5527
  282MOL0     H38057   5.098  10.451  10.471  1.4449  1.7077 -4.0701
  282MOL0     H38058   5.024  10.356  10.305  0.5065 -0.7981 -1.5902
  282MOL0     H38059   4.947  10.217  10.376  0.2096 -1.3420  0.3450
  282MOL0     H38060   5.056  10.260  10.108  0.5179 -0.4561  0.7482
  282MOL0     H38061   4.899  10.209  10.155 -0.6227 -1.1859  1.4632
  282MOL0     H38062   5.147  10.029  10.185 -0.5346 -0.8810  0.3599
  282MOL0     H38063   5.032  10.012  10.061  0.2627  2.8672  0.0394
  282MOL0     H38064   4.960   9.842  10.239 -0.6365 -1.2063  3.8803
  282MOL0     H38065   4.981   9.964  10.362 -3.0058 -0.3809  0.0269
  282MOL0     H38066   4.594   9.995  10.170  0.2158 -1.2473  1.6681
  282MOL0     H38067   5.396  10.138  10.433  0.3644 -1.0999  1.6902
  282MOL0     H38068   5.604  10.163  10.517  0.7897  1.5197 -1.0587
  282MOL0     H38069   5.663  10.312  10.580  0.8160 -1.0501 -0.4366
  282MOL0     H38070   5.591  10.185  10.685 -1.1056 -0.2540 -0.7885
  283MOL0     O38071   0.264   7.379   3.828 -0.4864 -0.0032 -0.1732
  283MOL0     C38072   0.309   7.269   3.837  0.1728 -0.5966 -0.3769
  283MOL0     O38073   0.233   7.154   3.842 -0.3034 -0.3550 -0.1860
  283MOL0     C38074   0.095   7.156   3.833  0.1762 -0.1551  0.3514
  283MOL0     C38075   0.041   7.069   3.735  0.7536 -0.4183  0.0079
  283MOL0     C38076  -0.101   7.064   3.712  0.4438 -0.1671 -0.7040
  283MOL0     C38077  -0.181   7.153   3.781 -0.5673  0.3877 -0.5786
  283MOL0     O38078  -0.317   7.159   3.744 -0.3248  0.1860 -0.3929
  283MOL0     C38079  -0.407   7.224   3.831 -0.0670 -0.5372  0.2831
  283MOL0     C38080  -0.554   7.224   3.780  0.4636 -1.2940 -0.3306
  283MOL0     C38081  -0.607   7.084   3.794 -0.3200  0.2922  0.2359
  283MOL0     C38082  -0.757   7.070   3.762  0.1861  0.2004  0.2853
  283MOL0     C38083  -0.801   7.145   3.634 -0.8170  0.5532 -1.3476
  283MOL0     C38084  -0.938   7.094   3.582  0.3454  0.4773  0.3582
  283MOL0     C38085  -0.977   7.200   3.475 -0.2279  1.4138  0.2014
  283MOL0     C38086  -1.085   7.292   3.527  0.4504  0.6867  0.5871
  283MOL0     N38087  -1.133   7.382   3.421  0.5551 -0.8288 -0.2428
  283MOL0     C38088  -1.186   7.344   3.299 -0.2518  0.7148 -0.0268
  283MOL0     C38089  -1.205   7.462   3.227  0.0240  0.1015 -0.8996
  283MOL0     C38090  -1.263   7.468   3.091 -1.0300  0.4401  0.1689
  283MOL0     C38091  -1.172   7.509   2.967 -0.6803  0.2432  0.2424
  283MOL0     C38092  -1.037   7.432   2.948  0.3333 -0.0834 -1.0913
  283MOL0     C38093  -1.059   7.291   2.907 -0.4796  0.2841  0.7148
  283MOL0     O38094  -1.102   7.204   3.007 -0.5868 -0.2927  0.2907
  283MOL0     C38095  -1.014   7.127   3.077  0.6703 -0.4656  0.4233
  283MOL0     C38096  -1.073   7.018   3.133 -0.4630  0.5793 -0.0161
  283MOL0     C38097  -1.011   6.928   3.218  0.8193 -0.4535 -0.6107
  283MOL0     C38098  -0.870   6.952   3.246 -0.9459  0.0953  0.9164
  283MOL0     C38099  -0.786   6.860   3.324  0.6477  0.0069  0.1246
  283MOL0     O38100  -0.648   6.882   3.341 -0.0802  0.4875  0.6291
  283MOL0     C38101  -0.571   6.823   3.436 -0.6569  0.0597  0.4878
  283MOL0     C38102  -0.433   6.849   3.422  0.5988  0.3039  0.3325
  283MOL0     C38103  -0.341   6.787   3.500 -0.6255  0.1294 -0.7080
  283MOL0     C38104  -0.384   6.711   3.613 -0.0879 -0.0389  0.4328
  283MOL0     O38105  -0.281   6.656   3.677  0.0393 -0.0793  0.1399
  283MOL0     C38106  -0.288   6.653   3.826  0.6858 -0.3149  0.5669
  283MOL0     C38107  -0.300   6.786   3.893  0.2710  0.0722 -0.0500
  283MOL0     C38108  -0.264   6.782   4.042 -0.4400  0.7487  0.8322
  283MOL0     C38109  -0.263   6.927   4.092  0.3472  0.1157 -0.1380
  283MOL0     C38110  -0.243   6.916   4.248 -0.3470 -1.0410 -0.0398
  283MOL0     C38111  -0.108   6.864   4.287  0.0090  0.1711 -0.5920
  283MOL0     C38112  -0.003   6.971   4.265  0.8282 -0.7092  0.1068
  283MOL0     C38113   0.136   6.910   4.310 -0.8140  0.2277 -1.3072
  283MOL0    Cl38114   0.258   7.028   4.239 -0.0522 -0.0401 -0.7210
  283MOL0     C38115  -0.514   6.701   3.639  0.5710  0.0443  0.4770
  283MOL0     C38116  -0.613   6.755   3.548 -0.7076 -0.9271  0.5373
  283MOL0     O38117  -0.860   6.782   3.384 -1.0213 -0.4427 -0.2938
  283MOL0     C38118  -0.810   7.063   3.185  0.0042 -0.9567  0.0788
  283MOL0     C38119  -0.882   7.145   3.093  1.0179  0.2256 -0.2120
  283MOL0     N38120  -1.179   7.575   3.306  0.6384  1.2010 -0.4520
  283MOL0     N38121  -1.133   7.519   3.418 -0.5536  0.3315 -0.7392
  283MOL0     C38122  -0.129   7.234   3.888  0.2135  0.4106 -0.2219
  283MOL0     C38123   0.007   7.234   3.909  0.0737  0.7458 -0.2300
  283MOL0     C38124   0.459   7.250   3.875  1.2588 -0.2071  0.1613
  283MOL0     C38125   0.487   7.133   3.951 -0.0468 -1.2276 -0.1091
  283MOL0     C38126   0.621   7.102   3.985 -0.6754 -0.0427  0.0019
  283MOL0     C38127   0.721   7.193   3.959 -0.6173  0.9893 -0.5120
  283MOL0     O38128   0.847   7.154   3.997 -1.4956 -0.6825 -0.5240
  283MOL0     C38129   0.954   7.208   3.927 -0.8510 -0.1377  0.0738
  283MOL0     C38130   1.076   7.123   3.955  0.6517 -0.1784  0.3293
  283MOL0     C38131   1.213   7.192   3.947 -0.6688  0.1955  0.3010
  283MOL0     C38132   1.335   7.096   3.949  1.4426 -0.1343 -0.1245
  283MOL0     C38133   1.343   7.000   4.059 -0.3884 -0.1779 -0.6793
  283MOL0     C38134   1.334   6.924   4.160 -0.4358  0.3826 -0.3482
  283MOL0     C38135   0.693   7.307   3.884  0.4894 -0.5385  0.8558
  283MOL0     C38136   0.563   7.342   3.838 -0.2389 -0.3406 -0.4022
  283MOL0     C38137   0.545   7.464   3.758  0.5962  0.0023 -0.0768
  283MOL0     H38138   0.106   7.015   3.667 -0.1233  0.5687 -1.6976
  283MOL0     H38139  -0.152   7.006   3.636 -1.6227 -0.1608  0.6096
  283MOL0     H38140  -0.393   7.181   3.931  0.5930  1.2289  0.9946
  283MOL0     H38141  -0.382   7.331   3.837 -2.0356 -0.0838  1.5109
  283MOL0     H38142  -0.553   7.251   3.675  1.1133  2.7936  0.5496
  283MOL0     H38143  -0.613   7.290   3.844  3.1433 -0.9657  2.0066
  283MOL0     H38144  -0.593   7.043   3.895  2.2261  2.8099  1.0804
  283MOL0     H38145  -0.551   7.021   3.725  1.6959  2.7391 -0.5596
  283MOL0     H38146  -0.779   6.966   3.740  0.8756  0.4211 -1.5922
  283MOL0     H38147  -0.822   7.098   3.847 -1.4066  2.1554 -1.4564
  283MOL0     H38148  -0.806   7.247   3.674 -2.2987 -0.7516  2.1377
  283MOL0     H38149  -0.721   7.137   3.559  0.8973 -0.7504  0.5324
  283MOL0     H38150  -0.927   6.994   3.539  1.2743  0.5302  0.4693
  283MOL0     H38151  -1.006   7.099   3.668  2.5081  2.3384  2.1013
  283MOL0     H38152  -1.019   7.152   3.385 -0.4280  0.5588  0.7383
  283MOL0     H38153  -0.898   7.265   3.438 -0.2990  2.1089  1.2238
  283MOL0     H38154  -1.168   7.230   3.562  0.4882 -0.3653 -1.0412
  283MOL0     H38155  -1.050   7.344   3.616  0.0868 -0.6018  1.5080
  283MOL0     H38156  -1.201   7.242   3.266 -2.1031 -0.4710  3.8168
  283MOL0     H38157  -1.311   7.373   3.066 -0.6448  0.2754  0.0503
  283MOL0     H38158  -1.335   7.550   3.084 -1.9314 -0.2695  0.9010
  283MOL0     H38159  -1.234   7.499   2.877  2.5302  3.1244 -2.5581
  283MOL0     H38160  -1.146   7.615   2.968 -1.7044  0.5025  0.5627
  283MOL0     H38161  -0.967   7.451   3.030  0.3926  2.3250 -1.6215
  283MOL0     H38162  -0.984   7.473   2.862 -0.4375  3.8009  0.0964
  283MOL0     H38163  -0.961   7.261   2.867  0.0023  2.5396  0.0682
  283MOL0     H38164  -1.138   7.284   2.831 -0.1928  0.4785  0.3981
  283MOL0     H38165  -1.181   7.008   3.141 -1.1036  3.7383 -2.8494
  283MOL0     H38166  -1.057   6.843   3.266  0.5548  0.3837  0.6587
  283MOL0     H38167  -0.391   6.906   3.340  1.4443  1.0000  1.2308
  283MOL0     H38168  -0.235   6.786   3.478 -0.8613  1.3008 -2.0811
  283MOL0     H38169  -0.370   6.587   3.859  1.3492 -1.4236  0.0562
  283MOL0     H38170  -0.201   6.596   3.859 -0.6083 -1.5405  2.0949
  283MOL0     H38171  -0.218   6.836   3.841  0.4892  0.4780  0.6765
  283MOL0     H38172  -0.391   6.844   3.875 -0.0539  0.4182  2.3748
  283MOL0     H38173  -0.336   6.727   4.104  0.2328  0.1344  1.0956
  283MOL0     H38174  -0.168   6.730   4.052 -1.0432 -0.7012 -0.4686
  283MOL0     H38175  -0.352   6.978   4.053  0.3463 -1.0795 -1.8419
  283MOL0     H38176  -0.185   6.980   4.037 -2.1766  0.3171 -3.8855
  283MOL0     H38177  -0.321   6.846   4.278 -2.4447  0.2584 -2.0908
  283MOL0     H38178  -0.251   7.013   4.299  1.2275 -0.1769 -1.3129
  283MOL0     H38179  -0.104   6.833   4.392  0.5838  1.0927 -0.3277
  283MOL0     H38180  -0.084   6.773   4.232 -0.9827  0.2150 -1.1290
  283MOL0     H38181  -0.035   7.048   4.335  1.7170 -2.6761  2.8712
  283MOL0     H38182   0.005   6.998   4.160 -1.3075  0.6420  0.2312
  283MOL0     H38183   0.149   6.904   4.418  0.9988 -0.3315 -1.5237
  283MOL0     H38184   0.146   6.809   4.271  2.0153 -0.5098  0.9805
  283MOL0     H38185  -0.552   6.643   3.722 -2.1016  1.0506  0.0691
  283MOL0     H38186  -0.719   6.734   3.562 -0.7854 -0.6787  0.3406
  283MOL0     H38187  -0.709   7.089   3.214 -1.3566  0.0198  4.7359
  283MOL0     H38188  -0.831   7.230   3.048 -1.7094  1.6541 -0.8785
  283MOL0     H38189  -0.196   7.277   3.962 -0.7608 -2.3451  0.6249
  283MOL0     H38190   0.049   7.286   3.995  2.3222 -1.1105 -0.1038
  283MOL0     H38191   0.406   7.068   3.984 -1.7559  2.2766  3.4557
  283MOL0     H38192   0.639   7.019   4.052 -1.8492 -0.9973 -0.8290
  283MOL0     H38193   0.973   7.309   3.965  0.8647 -0.5598  0.4197
  283MOL0     H38194   0.942   7.218   3.819  0.2419  0.9720  0.0337
  283MOL0     H38195   1.076   7.052   3.871 -2.2010 -1.7665  1.4962
  283MOL0     H38196   1.077   7.065   4.048 -0.3699  0.1188  0.5394
  283MOL0     H38197   1.215   7.257   4.035 -3.1821  2.1405 -0.9299
  283MOL0     H38198   1.217   7.253   3.856  2.1672 -2.0312 -1.2433
  283MOL0     H38199   1.344   7.052   3.849  2.4993  0.2634 -0.2160
  283MOL0     H38200   1.425   7.157   3.962 -0.0697  2.1361  0.2060
  283MOL0     H38201   1.339   6.864   4.249 -0.9909 -0.9231 -1.1732
  283MOL0     H38202   0.760   7.389   3.860 -1.0360  0.3270 -0.7422
  283MOL0     H38203   0.633   7.511   3.714  0.3689  0.3658 -0.1426
  283MOL0     H38204   0.477   7.430   3.680 -0.1102 -1.3198  1.0657
  283MOL0     H38205   0.489   7.541   3.810  2.5853  2.4036 -1.2840
  284MOL0     O38206   9.767   6.536   6.851 -0.6564 -0.2395  0.4063
  284MOL0     C38207   9.719   6.647   6.857 -0.4796  0.3789  0.0876
  284MOL0     O38208   9.783   6.767   6.848  0.1031  0.2014 -0.8512
  284MOL0     C38209   9.915   6.773   6.841  0.3688  0.1613  0.0327
  284MOL0     C38210   9.980   6.756   6.724  0.0555 -0.2275 -0.3942
  284MOL0     C38211  10.119   6.773   6.713 -0.4493  0.8411  0.4360
  284MOL0     C38212  10.193   6.807   6.830  0.4051  0.2309  0.5491
  284MOL0     O38213  10.329   6.792   6.829 -0.4530  0.2980  0.1612
  284MOL0     C38214  10.400   6.722   6.732 -0.7733 -1.0776 -0.5219
  284MOL0     C38215  10.522   6.658   6.793  0.8848  0.2255  0.2779
  284MOL0     C38216  10.608   6.583   6.684  1.1241 -0.5209 -0.4221
  284MOL0     C38217  10.738   6.532   6.742 -0.3175 -0.2508  0.5901
  284MOL0     C38218  10.814   6.470   6.626  0.1145 -0.3953  0.1618
  284MOL0     C38219  10.938   6.382   6.661  0.9726  0.0011  0.7812
  284MOL0     C38220  11.059   6.455   6.700  1.0832 -0.8294  0.3910
  284MOL0     C38221  11.183   6.363   6.704 -0.1481  0.1571 -0.2680
  284MOL0     N38222  11.298   6.442   6.662 -0.6121  0.3688  0.8430
  284MOL0     C38223  11.313   6.528   6.553 -0.4068 -0.7455 -0.1765
  284MOL0     C38224  11.440   6.576   6.571  0.6033  0.5323  0.2078
  284MOL0     C38225  11.518   6.675   6.494  1.0302  0.2697  0.4337
  284MOL0     C38226  11.655   6.620   6.455  0.9168 -0.5657 -0.2200
  284MOL0     C38227  11.684   6.688   6.314 -0.8635 -0.5196 -0.8073
  284MOL0     C38228  11.599   6.636   6.202 -0.2591 -0.5761 -0.5534
  284MOL0     O38229  11.608   6.490   6.207  1.0364 -0.0859  0.2780
  284MOL0     C38230  11.652   6.429   6.089  0.0536  0.4987  0.2301
  284MOL0     C38231  11.779   6.457   6.045 -0.3621 -0.0800 -0.2597
  284MOL0     C38232  11.826   6.379   5.942 -0.3453  0.1615 -0.3631
  284MOL0     C38233  11.755   6.274   5.876 -0.0483 -0.5213  0.3555
  284MOL0     C38234  11.807   6.192   5.766 -0.2177  0.6123 -0.0296
  284MOL0     O38235  11.933   6.223   5.727 -0.2844 -0.2377 -0.0814
  284MOL0     C38236  11.992   6.168   5.613  0.2460 -0.2560  0.4022
  284MOL0     C38237  12.123   6.140   5.608 -0.0234 -0.1903 -0.1728
  284MOL0     C38238  12.188   6.098   5.489 -0.7035  0.2147  0.2318
  284MOL0     C38239  12.107   6.062   5.376  0.6737 -0.8131 -0.0321
  284MOL0     O38240  12.158   6.005   5.268  0.4884 -0.4967 -0.0730
  284MOL0     C38241  12.300   6.002   5.251  0.0057 -0.6974 -0.5629
  284MOL0     C38242  12.384   6.121   5.199  0.4415 -0.1930 -0.2885
  284MOL0     C38243  12.323   6.172   5.071 -0.1829  0.7065  0.9349
  284MOL0     C38244  12.297   6.084   4.957  0.1952  0.2669 -0.0014
  284MOL0     C38245  12.422   6.015   4.906 -0.3946 -1.0470 -1.0192
  284MOL0     C38246  12.394   5.922   4.790  0.4424  0.0602  0.4924
  284MOL0     C38247  12.315   6.003   4.687  0.6302 -0.5107  1.0163
  284MOL0     C38248  12.303   5.959   4.541 -0.3857  0.7841  0.6177
  284MOL0    Cl38249  12.457   5.951   4.459  0.0585  0.1116  0.5533
  284MOL0     C38250  11.969   6.089   5.383  0.6787  0.9123 -0.9065
  284MOL0     C38251  11.913   6.148   5.496 -0.2550  0.2339 -0.6416
  284MOL0     O38252  11.744   6.091   5.731  0.1593  0.3202  0.3253
  284MOL0     C38253  11.623   6.259   5.917  0.3331  0.4141  0.8032
  284MOL0     C38254  11.577   6.336   6.028  0.1497 -0.5538  0.6701
  284MOL0     N38255  11.500   6.515   6.673  0.0986 -0.0687 -0.5625
  284MOL0     N38256  11.413   6.445   6.728 -0.4658 -0.2317 -0.1261
  284MOL0     C38257  10.120   6.816   6.952 -0.1076 -0.4224 -0.2630
  284MOL0     C38258   9.978   6.801   6.957  0.4402  0.7378 -0.2302
  284MOL0     C38259   9.571   6.648   6.870  0.6684 -0.3525  0.1787
  284MOL0     C38260   9.500   6.531   6.818  0.0089 -0.9462 -1.2554
  284MOL0     C38261   9.365   6.520   6.830  1.4681  0.1638  0.1729
  284MOL0     C38262   9.286   6.634   6.878 -0.1286  0.8854 -0.3420
  284MOL0     O38263   9.148   6.618   6.891  0.2535  0.0253 -0.4208
  284MOL0     C38264   9.076   6.524   6.815  0.2208 -0.5353 -0.1605
  284MOL0     C38265   8.922   6.530   6.837 -0.9146 -0.6990  0.6420
  284MOL0     C38266   8.857   6.667   6.820  0.5294 -1.1110 -0.6699
  284MOL0     C38267   8.727   6.694   6.909  0.0727  0.5337  1.0033
  284MOL0     C38268   8.608   6.613   6.883  0.3552 -0.4225  0.4385
  284MOL0     C38269   8.511   6.541   6.854 -0.0984 -0.0850  0.2312
  284MOL0     C38270   9.357   6.744   6.925 -0.2410  0.8656  0.1892
  284MOL0     C38271   9.494   6.750   6.929  0.4352 -0.2468  0.7069
  284MOL0     C38272   9.558   6.883   6.978  0.3235  0.5432  0.2407
  284MOL0     H38273   9.927   6.721   6.636 -3.6556  0.2036  1.4919
  284MOL0     H38274  10.174   6.748   6.623  2.1669 -0.9364  2.3808
  284MOL0     H38275  10.346   6.653   6.668  2.7960 -1.9853 -2.8279
  284MOL0     H38276  10.440   6.799   6.665  1.5727 -1.9924 -0.2828
  284MOL0     H38277  10.481   6.581   6.859 -3.0421 -0.1716 -2.3276
  284MOL0     H38278  10.584   6.738   6.834  1.2794 -0.2470  0.6215
  284MOL0     H38279  10.613   6.657   6.604  1.7334  0.8299  0.8149
  284MOL0     H38280  10.561   6.489   6.651  0.3263 -0.9541  1.7429
  284MOL0     H38281  10.786   6.615   6.794 -3.4492  1.1889  1.4126
  284MOL0     H38282  10.722   6.447   6.808  1.2236 -1.7177 -0.8536
  284MOL0     H38283  10.751   6.398   6.572 -0.5020 -0.2529  0.6843
  284MOL0     H38284  10.831   6.554   6.558 -3.4661 -1.4189 -2.3051
  284MOL0     H38285  10.922   6.310   6.743 -2.0081 -1.8676 -1.2063
  284MOL0     H38286  10.958   6.319   6.574  0.5703  2.9327 -1.5971
  284MOL0     H38287  11.048   6.490   6.803  1.7837  1.2630 -0.1867
  284MOL0     H38288  11.064   6.540   6.631 -1.3879 -0.8064  0.1479
  284MOL0     H38289  11.201   6.339   6.809  0.4699 -0.4337 -0.4995
  284MOL0     H38290  11.176   6.272   6.644  0.0427 -0.6875  0.9473
  284MOL0     H38291  11.234   6.548   6.481 -0.9474  1.4672  0.9365
  284MOL0     H38292  11.449   6.695   6.411 -1.5395  0.1239  2.3949
  284MOL0     H38293  11.535   6.769   6.549 -1.8703  1.6306 -0.7963
  284MOL0     H38294  11.723   6.643   6.537  0.8992  1.8455 -0.7960
  284MOL0     H38295  11.634   6.514   6.437 -2.5520 -0.1771  0.8365
  284MOL0     H38296  11.790   6.668   6.293  0.5097  2.1208  2.5859
  284MOL0     H38297  11.678   6.797   6.314  1.6171 -0.3180  0.2217
  284MOL0     H38298  11.629   6.678   6.105 -0.1925 -0.1536 -0.3533
  284MOL0     H38299  11.496   6.671   6.216 -0.4565 -1.2661 -0.2633
  284MOL0     H38300  11.852   6.521   6.092 -0.3409 -0.4017  0.1534
  284MOL0     H38301  11.925   6.417   5.921 -0.4901  1.4201  1.0687
  284MOL0     H38302  12.172   6.139   5.705 -1.7539 -2.3643  0.7578
  284MOL0     H38303  12.295   6.108   5.474 -0.1955 -3.5410  0.4830
  284MOL0     H38304  12.336   5.954   5.343 -0.2723  0.8866  0.3996
  284MOL0     H38305  12.307   5.926   5.172  0.3457 -0.3112 -0.9045
  284MOL0     H38306  12.387   6.201   5.272  0.8254  1.5478 -2.1169
  284MOL0     H38307  12.488   6.092   5.179  0.3426 -0.5149 -0.3494
  284MOL0     H38308  12.223   6.213   5.092 -0.7830  1.9606 -3.3905
  284MOL0     H38309  12.385   6.252   5.033  2.8076 -1.0430  1.7901
  284MOL0     H38310  12.263   6.158   4.884 -0.7993 -1.7895 -1.7185
  284MOL0     H38311  12.216   6.013   4.978 -0.2432  1.1299  1.3130
  284MOL0     H38312  12.456   5.954   4.991 -0.0206  1.2873  0.5912
  284MOL0     H38313  12.487   6.096   4.874 -3.3866  1.1387 -1.9824
  284MOL0     H38314  12.491   5.880   4.761  0.3788  2.4176 -4.1469
  284MOL0     H38315  12.335   5.838   4.826 -1.1684  1.6365  1.6737
  284MOL0     H38316  12.353   6.106   4.679 -1.3997  0.2297  0.0739
  284MOL0     H38317  12.210   6.006   4.719  0.3596 -3.1161  0.5963
  284MOL0     H38318  12.265   5.857   4.538  2.0957 -0.1910 -1.3518
  284MOL0     H38319  12.234   6.029   4.491 -2.3858 -1.4766  0.0157
  284MOL0     H38320  11.901   6.075   5.300 -1.3619 -0.8967  0.9425
  284MOL0     H38321  11.811   6.183   5.495 -0.0212  0.9486 -0.4534
  284MOL0     H38322  11.558   6.177   5.889 -0.4460  0.8496  1.2666
  284MOL0     H38323  11.478   6.310   6.065  0.2904 -2.2186 -0.0429
  284MOL0     H38324  10.182   6.839   7.038  1.0825 -2.0259 -0.6365
  284MOL0     H38325   9.936   6.816   7.056 -0.6457  2.0879 -0.8747
  284MOL0     H38326   9.557   6.448   6.777 -1.3076 -4.2965  2.8383
  284MOL0     H38327   9.303   6.443   6.785 -2.3197  1.4904  2.5836
  284MOL0     H38328   9.109   6.429   6.857 -0.0235  0.9442  3.8634
  284MOL0     H38329   9.093   6.529   6.707  1.3094 -0.7794 -0.0061
  284MOL0     H38330   8.909   6.493   6.939 -0.1845  1.3589  1.5440
  284MOL0     H38331   8.874   6.466   6.763  0.4215 -2.0014  0.8422
  284MOL0     H38332   8.841   6.689   6.714  1.7040  2.0236 -0.3021
  284MOL0     H38333   8.921   6.752   6.844  0.4556 -0.5093 -2.4250
  284MOL0     H38334   8.753   6.681   7.015  0.9753  0.0025  0.7247
  284MOL0     H38335   8.696   6.796   6.887 -1.1227 -0.5294 -3.1244
  284MOL0     H38336   8.426   6.485   6.819 -0.5141 -0.0713  1.2016
  284MOL0     H38337   9.306   6.828   6.972  1.1068  2.4051 -0.9736
  284MOL0     H38338   9.613   6.942   6.905  2.5700  2.2683  3.1033
  284MOL0     H38339   9.476   6.943   7.018  1.2997  0.7430  2.0640
  284MOL0     H38340   9.628   6.860   7.060  1.3061  0.8365 -0.4997
  285MOL0     O38341   8.771   8.111  10.220 -0.3199  0.5804 -0.2261
  285MOL0     C38342   8.752   8.208  10.149 -0.7589 -0.3754  0.1381
  285MOL0     O38343   8.857   8.285  10.092  1.1694 -0.2358 -0.3064
  285MOL0     C38344   8.989   8.283  10.143 -0.6367  0.2086  0.0301
  285MOL0     C38345   9.077   8.351  10.058 -0.5922 -0.0723  0.0872
  285MOL0     C38346   9.206   8.385  10.088 -0.0385  0.3967 -0.2942
  285MOL0     C38347   9.257   8.336  10.213  0.2915  0.2028  0.3511
  285MOL0     O38348   9.388   8.337  10.245  0.0451 -0.0097  0.6716
  285MOL0     C38349   9.428   8.320  10.387  0.3403 -0.3485 -0.1096
  285MOL0     C38350   9.562   8.380  10.422  0.4965  0.2491 -0.4498
  285MOL0     C38351   9.677   8.310  10.343  0.2748 -0.5272 -0.0046
  285MOL0     C38352   9.807   8.380  10.368 -0.4083 -0.0366 -0.6669
  285MOL0     C38353   9.937   8.302  10.330  0.4912 -0.1622  0.0837
  285MOL0     C38354   9.942   8.158  10.390 -0.0331  1.2722 -0.5289
  285MOL0     C38355  10.080   8.083  10.386  0.0745 -0.1495 -0.1229
  285MOL0     C38356  10.138   8.054  10.523  0.0848 -0.4275  0.2165
  285MOL0     N38357  10.153   8.179  10.608 -0.9418  0.7875  0.0103
  285MOL0     C38358  10.223   8.292  10.572  1.1057  0.1874  0.5048
  285MOL0     C38359  10.175   8.393  10.657 -0.1841 -0.9609  0.0714
  285MOL0     C38360  10.240   8.526  10.661  0.2361 -0.3400 -0.0768
  285MOL0     C38361  10.369   8.529  10.754 -0.3076  0.0866 -0.4580
  285MOL0     C38362  10.390   8.657  10.820  0.4339 -0.0355 -0.1662
  285MOL0     C38363  10.443   8.749  10.720 -0.4094 -0.5164  0.2380
  285MOL0     O38364  10.554   8.688  10.648 -0.0323  0.2475 -0.3111
  285MOL0     C38365  10.668   8.767  10.623  0.0625 -0.4612 -0.1798
  285MOL0     C38366  10.660   8.902  10.604 -0.3428  0.5906  1.1207
  285MOL0     C38367  10.774   8.981  10.584 -0.2607  0.5261  0.4001
  285MOL0     C38368  10.892   8.915  10.554  0.3006 -0.5549 -0.8295
  285MOL0     C38369  11.004   9.002  10.497 -0.6481  0.0538 -0.7118
  285MOL0     O38370  10.975   9.139  10.485 -0.3701 -0.0186  0.3094
  285MOL0     C38371  11.086   9.222  10.450 -0.9889  0.7453  0.8061
  285MOL0     C38372  11.071   9.311  10.345 -0.2405 -0.1009 -0.1947
  285MOL0     C38373  11.171   9.414  10.332  0.0327  0.3381  0.1225
  285MOL0     C38374  11.292   9.423  10.412 -0.2534 -0.1482  0.5223
  285MOL0     O38375  11.389   9.516  10.416 -0.9470 -0.3994  0.6747
  285MOL0     C38376  11.380   9.642  10.336  0.3614 -1.1828 -0.0898
  285MOL0     C38377  11.503   9.740  10.333 -0.9408  0.7897 -0.5320
  285MOL0     C38378  11.632   9.680  10.271  1.1658 -1.0985  0.1468
  285MOL0     C38379  11.627   9.688  10.120  0.4616 -1.0109  0.4636
  285MOL0     C38380  11.689   9.566  10.055 -0.0071  0.1760  0.0085
  285MOL0     C38381  11.684   9.568   9.895 -0.3699 -0.9306 -0.5940
  285MOL0     C38382  11.808   9.645   9.834 -0.0576  0.0325  0.3612
  285MOL0     C38383  11.836   9.582   9.695  0.0989 -0.5333  0.1212
  285MOL0    Cl38384  11.904   9.422   9.714  0.1522 -0.3687  0.5281
  285MOL0     C38385  11.296   9.324  10.512  0.1896 -0.0950 -0.8302
  285MOL0     C38386  11.198   9.231  10.537 -0.6064  0.1733  0.3981
  285MOL0     O38387  11.113   8.954  10.459  0.6288  0.4252 -0.1288
  285MOL0     C38388  10.904   8.780  10.560 -1.3296 -0.6673 -0.2206
  285MOL0     C38389  10.795   8.706  10.596 -0.3765  0.1070  0.0519
  285MOL0     N38390  10.078   8.333  10.739 -0.0805  0.4689  0.5396
  285MOL0     N38391  10.068   8.211  10.706  0.2527  0.0429  0.5827
  285MOL0     C38392   9.164   8.263  10.298  0.0071  0.2865  0.3068
  285MOL0     C38393   9.034   8.239  10.269  0.3299  1.1591 -0.7656
  285MOL0     C38394   8.622   8.241  10.094  0.0336 -0.3603  0.7337
  285MOL0     C38395   8.611   8.313   9.971 -0.3950 -1.0880  0.6201
  285MOL0     C38396   8.489   8.352   9.911 -0.3524  0.7862  0.0527
  285MOL0     C38397   8.372   8.315   9.971 -0.7236 -0.6203  0.8197
  285MOL0     O38398   8.255   8.333   9.906 -0.4754  0.1594 -0.1714
  285MOL0     C38399   8.256   8.345   9.766  1.1330  0.4379  1.1391
  285MOL0     C38400   8.141   8.275   9.699 -0.1288 -0.2189  0.4050
  285MOL0     C38401   8.015   8.351   9.729 -0.1300  0.5321  0.0880
  285MOL0     C38402   7.896   8.299   9.645 -0.2018 -0.3820  0.7931
  285MOL0     C38403   7.878   8.158   9.676  1.1147  0.4674 -0.3484
  285MOL0     C38404   7.852   8.039   9.686  0.2514  1.0445 -0.7260
  285MOL0     C38405   8.375   8.252  10.093 -0.6971 -0.2528 -0.2227
  285MOL0     C38406   8.498   8.213  10.153  0.6173 -0.1306  0.1863
  285MOL0     C38407   8.492   8.139  10.285  0.4571 -0.7593 -0.0686
  285MOL0     H38408   9.035   8.387   9.964 -2.4152  1.1673  1.3147
  285MOL0     H38409   9.263   8.440  10.014 -0.2350  0.2827 -0.5320
  285MOL0     H38410   9.350   8.371  10.445 -0.5414  0.0153 -1.5823
  285MOL0     H38411   9.439   8.213  10.409 -1.7807 -0.5093  0.3566
  285MOL0     H38412   9.580   8.376  10.530  0.6211  0.8581 -0.4454
  285MOL0     H38413   9.552   8.486  10.396 -1.7011 -0.9140 -5.2773
  285MOL0     H38414   9.659   8.295  10.236 -0.8104 -1.3831  0.2711
  285MOL0     H38415   9.688   8.211  10.390  2.7299 -0.7278 -0.9067
  285MOL0     H38416   9.807   8.476  10.315  1.6027  0.9304  0.9651
  285MOL0     H38417   9.802   8.414  10.472 -3.0741 -0.5598 -0.5416
  285MOL0     H38418   9.936   8.283  10.222  1.6433 -1.6957  0.3161
  285MOL0     H38419  10.025   8.359  10.360  0.6661  0.0602 -0.8169
  285MOL0     H38420   9.908   8.148  10.493  1.1616  1.0149 -0.1365
  285MOL0     H38421   9.864   8.106  10.335  0.1495 -0.8219  1.0675
  285MOL0     H38422  10.142   8.134  10.312 -0.7279 -1.6470 -1.9084
  285MOL0     H38423  10.068   7.990  10.329 -1.7490  0.9244 -1.6334
  285MOL0     H38424  10.070   7.985  10.573 -1.3890  0.3695 -0.6303
  285MOL0     H38425  10.232   7.997  10.518  0.2357 -0.3960  2.1156
  285MOL0     H38426  10.298   8.299  10.494  2.5192  1.6348  1.8872
  285MOL0     H38427  10.269   8.559  10.561 -1.5048  1.0647 -0.1577
  285MOL0     H38428  10.160   8.591  10.699  0.5668 -0.6831  1.2880
  285MOL0     H38429  10.344   8.464  10.838  1.0557 -1.8902 -1.5116
  285MOL0     H38430  10.456   8.492  10.699  1.1029  2.2672  0.1429
  285MOL0     H38431  10.464   8.642  10.898  2.5198  0.2296 -1.9891
  285MOL0     H38432  10.300   8.679  10.879 -1.0736  0.2007 -2.3923
  285MOL0     H38433  10.468   8.840  10.775 -0.3309 -0.9014  0.8452
  285MOL0     H38434  10.363   8.780  10.653 -2.1537 -3.5950  0.7158
  285MOL0     H38435  10.563   8.950  10.611 -0.4064  0.4278  1.3479
  285MOL0     H38436  10.753   9.087  10.573 -0.9399  0.3760  0.2173
  285MOL0     H38437  10.989   9.302  10.274 -0.6314 -1.5267  0.4049
  285MOL0     H38438  11.154   9.496  10.262  2.3503  1.1191  0.3872
  285MOL0     H38439  11.369   9.614  10.231 -1.7139 -0.8831 -0.0008
  285MOL0     H38440  11.291   9.699  10.365 -0.6757 -1.5854 -2.2593
  285MOL0     H38441  11.469   9.832  10.284 -1.8485  0.2189 -1.0121
  285MOL0     H38442  11.521   9.777  10.434 -4.4900  5.6235 -1.2903
  285MOL0     H38443  11.720   9.712  10.328  0.6775 -0.7604  0.7189
  285MOL0     H38444  11.627   9.571  10.279  1.3562 -1.0443  1.0553
  285MOL0     H38445  11.693   9.764  10.077 -0.2820  0.6082  2.0649
  285MOL0     H38446  11.523   9.695  10.085  0.4249 -3.1433 -0.0245
  285MOL0     H38447  11.642   9.470  10.077  0.4487 -0.3768 -1.2998
  285MOL0     H38448  11.795   9.575  10.081 -0.3149  4.4793  0.5322
  285MOL0     H38449  11.687   9.463   9.865  0.1143 -1.6465  1.7793
  285MOL0     H38450  11.588   9.606   9.858 -0.5759  2.7977  3.0624
  285MOL0     H38451  11.898   9.650   9.895  0.0138 -0.1057  0.2685
  285MOL0     H38452  11.777   9.748   9.818  2.8215  1.4340  2.8129
  285MOL0     H38453  11.750   9.582   9.628  2.3950  0.4131 -3.0749
  285MOL0     H38454  11.905   9.652   9.647 -0.4596  2.9721  3.9455
  285MOL0     H38455  11.377   9.323  10.585  0.4816 -0.7384 -1.1507
  285MOL0     H38456  11.208   9.162  10.620 -0.2700 -1.5648 -1.0247
  285MOL0     H38457  10.994   8.724  10.538  0.2841  2.0994 -1.1736
  285MOL0     H38458  10.810   8.600  10.617  0.5406  0.1626 -0.2816
  285MOL0     H38459   9.187   8.247  10.403 -0.8153  2.8492  0.9518
  285MOL0     H38460   8.970   8.192  10.343  1.5410  2.8434  1.4889
  285MOL0     H38461   8.703   8.324   9.914 -0.1553 -1.7428  0.8777
  285MOL0     H38462   8.490   8.406   9.817 -1.1791 -2.7441 -2.1817
  285MOL0     H38463   8.338   8.291   9.718  0.9258 -1.0101  2.3545
  285MOL0     H38464   8.262   8.452   9.743  0.0113  0.2765  0.0052
  285MOL0     H38465   8.144   8.171   9.732 -1.6484 -0.1355  0.8914
  285MOL0     H38466   8.159   8.290   9.592 -0.1760  2.8556  0.7282
  285MOL0     H38467   8.041   8.453   9.699 -1.0727  0.3307 -1.5435
  285MOL0     H38468   7.993   8.345   9.836  1.5017  2.5591  0.6039
  285MOL0     H38469   7.806   8.357   9.665 -0.5100  0.4665 -2.3995
  285MOL0     H38470   7.914   8.293   9.537 -1.6221 -2.2495  0.6120
  285MOL0     H38471   7.834   7.934   9.696 -1.1570  1.3260 -0.0818
  285MOL0     H38472   8.279   8.232  10.139 -0.9473  0.5223 -0.4000
  285MOL0     H38473   8.538   8.039  10.283  0.9917 -0.5318  0.7398
  285MOL0     H38474   8.541   8.204  10.358  0.3338  1.6456 -2.0025
  285MOL0     H38475   8.388   8.121  10.313 -0.3947 -2.0367 -3.5336
  286MOL0     O38476   3.375   4.569   9.689  0.3327  0.5324 -0.3794
  286MOL0     C38477   3.329   4.531   9.800  1.1338  0.2359 -0.1747
  286MOL0     O38478   3.379   4.562   9.923 -0.1283 -0.1953 -0.0313
  286MOL0     C38479   3.509   4.589   9.946 -0.6925  0.2219  0.5267
  286MOL0     C38480   3.546   4.662  10.050 -0.1052 -0.1278 -0.1523
  286MOL0     C38481   3.679   4.696  10.084  0.2437  0.0225 -0.0122
  286MOL0     C38482   3.782   4.639  10.000 -0.6470 -0.8045 -0.5088
  286MOL0     O38483   3.900   4.654  10.054 -0.6263  0.1776  0.4288
  286MOL0     C38484   4.014   4.649   9.964  0.0136 -0.3219 -0.9011
  286MOL0     C38485   4.136   4.741  10.014  0.6862 -0.3788  0.3497
  286MOL0     C38486   4.253   4.721   9.926 -0.4482 -0.3743 -0.1394
  286MOL0     C38487   4.382   4.796   9.958  0.3901  0.1673 -0.0320
  286MOL0     C38488   4.447   4.738  10.082  0.2266  0.2308  0.3245
  286MOL0     C38489   4.599   4.765  10.098  0.3768 -0.0466  0.3002
  286MOL0     C38490   4.630   4.919  10.087  1.0264 -0.2057 -0.8534
  286MOL0     C38491   4.767   4.944  10.139 -0.1434 -1.5666 -0.7901
  286MOL0     N38492   4.868   4.937  10.028  1.0564  0.3161 -0.4236
  286MOL0     C38493   4.998   4.925  10.065 -0.0896 -0.5234  0.3028
  286MOL0     C38494   5.063   4.916   9.948  0.5138  0.0250  0.3014
  286MOL0     C38495   5.207   4.886   9.942  0.9418  0.2742 -0.0866
  286MOL0     C38496   5.248   4.771   9.850  0.4474 -0.0228  0.4065
  286MOL0     C38497   5.401   4.760   9.827  0.0472  0.0569  0.0850
  286MOL0     C38498   5.453   4.827   9.714 -0.6943 -0.3379 -0.2609
  286MOL0     O38499   5.601   4.854   9.721 -0.2299  0.3138 -0.6623
  286MOL0     C38500   5.689   4.746   9.699  0.3493 -0.7686 -1.3955
  286MOL0     C38501   5.669   4.648   9.600  0.2100 -0.0845 -1.1349
  286MOL0     C38502   5.744   4.537   9.584 -0.6263  0.4420  0.7549
  286MOL0     C38503   5.859   4.517   9.670  1.2335 -0.4239 -0.3066
  286MOL0     C38504   5.955   4.413   9.646  0.0235  0.8652  0.7489
  286MOL0     O38505   6.050   4.393   9.746 -0.3114  0.2511 -0.0969
  286MOL0     C38506   6.138   4.291   9.751  0.3998  0.0653 -0.0856
  286MOL0     C38507   6.239   4.303   9.844  0.0264 -0.2163  0.5332
  286MOL0     C38508   6.339   4.202   9.850 -0.4387 -0.3825 -0.0528
  286MOL0     C38509   6.336   4.086   9.773  0.5859  0.0626 -0.0391
  286MOL0     O38510   6.448   4.014   9.773 -0.2987  0.2176  0.2833
  286MOL0     C38511   6.440   3.887   9.709 -0.3704 -0.4850  1.2251
  286MOL0     C38512   6.574   3.809   9.728 -0.1011 -0.0171 -0.2883
  286MOL0     C38513   6.696   3.881   9.668 -0.5359  0.1458 -0.4732
  286MOL0     C38514   6.797   3.923   9.781 -1.0635  0.0674 -0.3959
  286MOL0     C38515   6.917   3.981   9.706 -0.3714 -0.3390  0.6351
  286MOL0     C38516   7.027   4.016   9.812 -0.8180 -0.5979  1.3530
  286MOL0     C38517   7.149   4.064   9.733 -0.8124 -0.5199 -0.0648
  286MOL0     C38518   7.277   4.088   9.816  0.5264  0.2303  0.0050
  286MOL0    Cl38519   7.421   4.137   9.707  0.0927  0.1594  0.1223
  286MOL0     C38520   6.217   4.065   9.693  0.3168  0.2221 -0.5014
  286MOL0     C38521   6.120   4.168   9.688  0.9090  0.3859  0.5022
  286MOL0     O38522   5.957   4.359   9.535 -0.0362 -0.0138 -0.0755
  286MOL0     C38523   5.880   4.616   9.769  0.2988  0.4652 -0.0881
  286MOL0     C38524   5.791   4.717   9.785  0.1033  0.2139 -0.2616
  286MOL0     N38525   4.973   4.924   9.848  0.9013  0.7474  0.1295
  286MOL0     N38526   4.858   4.938   9.897 -0.6076 -0.9897 -0.3653
  286MOL0     C38527   3.746   4.556   9.898  0.2902 -0.7574  0.4473
  286MOL0     C38528   3.613   4.530   9.866  1.1960 -0.4855  0.0939
  286MOL0     C38529   3.195   4.460   9.798 -0.4867  0.5461 -0.4474
  286MOL0     C38530   3.119   4.458   9.919  0.3633  0.7741  1.0085
  286MOL0     C38531   2.991   4.391   9.925 -0.3273  0.2376  0.4207
  286MOL0     C38532   2.937   4.331   9.804 -0.2045 -0.2131 -0.7568
  286MOL0     O38533   2.823   4.268   9.821 -0.4218 -0.2475  0.7895
  286MOL0     C38534   2.758   4.220   9.699 -0.6789 -0.3558  0.8204
  286MOL0     C38535   2.704   4.334   9.619  0.4006  0.2404  0.5794
  286MOL0     C38536   2.679   4.291   9.470 -0.2199 -0.5608  0.5345
  286MOL0     C38537   2.610   4.409   9.395 -0.3579  1.2094  0.0138
  286MOL0     C38538   2.670   4.541   9.377 -0.2154  0.6032 -0.5223
  286MOL0     C38539   2.737   4.640   9.351  0.4497  0.1464 -0.5240
  286MOL0     C38540   3.022   4.333   9.691 -0.7898  0.4693 -0.2535
  286MOL0     C38541   3.154   4.385   9.690 -0.2694 -0.6750  0.1469
  286MOL0     C38542   3.232   4.372   9.560 -0.9945 -0.3910 -0.1683
  286MOL0     H38543   3.469   4.704  10.114  0.2840  0.9314 -0.3618
  286MOL0     H38544   3.714   4.758  10.166  1.8697  1.3966 -1.6715
  286MOL0     H38545   4.053   4.548   9.956 -0.2564 -0.7717  2.2756
  286MOL0     H38546   3.993   4.683   9.862  3.5527  0.5001 -1.4959
  286MOL0     H38547   4.159   4.722  10.120 -1.3449 -1.5058  0.6449
  286MOL0     H38548   4.104   4.845  10.025 -0.5628 -0.3704 -2.5203
  286MOL0     H38549   4.215   4.747   9.827  0.0469  0.6061 -0.0847
  286MOL0     H38550   4.283   4.616   9.918 -1.0505 -0.4012 -3.1199
  286MOL0     H38551   4.453   4.796   9.876  0.8979  1.8154  0.3749
  286MOL0     H38552   4.350   4.900   9.961 -2.4415 -0.5561 -1.4214
  286MOL0     H38553   4.386   4.777  10.163  1.8165 -0.8574  2.1357
  286MOL0     H38554   4.451   4.630  10.100  1.5493  0.1970 -0.0706
  286MOL0     H38555   4.617   4.728  10.199  1.1972 -0.7008 -0.0728
  286MOL0     H38556   4.655   4.717  10.017  0.4216  3.8168 -2.2160
  286MOL0     H38557   4.556   4.970  10.149  1.9304 -0.8822  0.8585
  286MOL0     H38558   4.612   4.941   9.981 -1.9110 -0.4981 -0.5008
  286MOL0     H38559   4.773   5.048  10.173 -0.9765 -1.6267 -0.4369
  286MOL0     H38560   4.791   4.880  10.224 -5.7608 -0.8643  1.8168
  286MOL0     H38561   5.039   4.906  10.164  0.0285 -0.7639  0.2081
  286MOL0     H38562   5.253   4.978   9.905  0.9524  0.1489 -0.3877
  286MOL0     H38563   5.241   4.858  10.042 -1.4197  0.1685  0.7574
  286MOL0     H38564   5.233   4.669   9.887  3.6862 -1.9261 -2.8787
  286MOL0     H38565   5.201   4.782   9.752  2.3581  2.3418 -0.3341
  286MOL0     H38566   5.441   4.659   9.820  2.0364  0.8409 -0.5543
  286MOL0     H38567   5.443   4.815   9.912  0.6063 -2.2434  1.3690
  286MOL0     H38568   5.418   4.930   9.709 -0.1409 -0.1646 -0.6533
  286MOL0     H38569   5.426   4.775   9.622  2.7485 -0.8009 -1.1478
  286MOL0     H38570   5.589   4.673   9.531 -1.0625 -0.1539  0.2548
  286MOL0     H38571   5.726   4.459   9.510  0.7892 -0.1784  1.0146
  286MOL0     H38572   6.226   4.398   9.895 -2.2589  0.0195 -0.3750
  286MOL0     H38573   6.421   4.218   9.920 -2.2280 -2.9613  2.9143
  286MOL0     H38574   6.368   3.814   9.747  0.0312 -1.5230  0.0527
  286MOL0     H38575   6.419   3.895   9.602 -1.9879 -1.6167  1.4328
  286MOL0     H38576   6.589   3.809   9.837  2.4443  1.4137 -0.5663
  286MOL0     H38577   6.565   3.707   9.690 -1.5670 -0.2428  0.5850
  286MOL0     H38578   6.747   3.817   9.595 -0.0878 -0.7616  0.5816
  286MOL0     H38579   6.669   3.974   9.620 -2.4432 -1.1331 -2.0018
  286MOL0     H38580   6.843   3.839   9.833  3.5888 -0.1489 -4.1502
  286MOL0     H38581   6.753   3.999   9.847  2.8086  1.2947  1.0289
  286MOL0     H38582   6.881   4.067   9.650  2.0221 -0.6978 -1.6608
  286MOL0     H38583   6.957   3.910   9.633 -2.4708  0.0580 -0.9778
  286MOL0     H38584   6.994   4.091   9.885 -1.6390  0.5395 -0.1376
  286MOL0     H38585   7.058   3.928   9.870  2.6392  0.3062  1.1221
  286MOL0     H38586   7.118   4.161   9.695 -1.4835 -0.1955  1.2626
  286MOL0     H38587   7.186   3.996   9.655  0.5349 -0.8009  0.7734
  286MOL0     H38588   7.266   4.167   9.891 -0.9108  0.5905 -0.5394
  286MOL0     H38589   7.298   3.995   9.869  1.9134  1.3931  1.6153
  286MOL0     H38590   6.215   3.974   9.634 -0.8534  0.8236 -1.4302
  286MOL0     H38591   6.034   4.145   9.625  2.3006 -1.0039 -0.9695
  286MOL0     H38592   5.968   4.617   9.832  1.0270 -0.7322 -1.0320
  286MOL0     H38593   5.807   4.781   9.871 -0.8950  1.8673 -1.2574
  286MOL0     H38594   3.820   4.508   9.835  1.6282  2.5404 -0.7091
  286MOL0     H38595   3.587   4.477   9.775  3.0004  0.6458 -1.1528
  286MOL0     H38596   3.156   4.506  10.009  0.2262 -2.7995  3.1381
  286MOL0     H38597   2.947   4.405  10.024  0.8661  0.3793  0.9452
  286MOL0     H38598   2.683   4.144   9.720 -0.3520 -1.1414 -0.7178
  286MOL0     H38599   2.829   4.158   9.643 -3.0044 -3.6948  1.2566
  286MOL0     H38600   2.782   4.410   9.615 -0.9463  1.6215 -0.8014
  286MOL0     H38601   2.631   4.396   9.673  0.0813  2.2308 -1.9673
  286MOL0     H38602   2.619   4.199   9.467 -1.2599  0.1184 -2.5503
  286MOL0     H38603   2.774   4.275   9.419 -0.2197 -2.8291  1.1276
  286MOL0     H38604   2.593   4.365   9.296  1.4513 -0.3975  0.3530
  286MOL0     H38605   2.509   4.414   9.436 -0.9129 -3.7584 -0.1476
  286MOL0     H38606   2.774   4.739   9.337 -0.1656  1.1217  3.4745
  286MOL0     H38607   2.996   4.307   9.589 -0.0814 -0.3349 -0.2510
  286MOL0     H38608   3.210   4.270   9.527  0.7133 -1.3449  1.4131
  286MOL0     H38609   3.210   4.450   9.487 -0.2555  0.3357  0.3674
  286MOL0     H38610   3.339   4.358   9.582 -1.0680 -2.5754 -0.8842
  287MOL0     O38611   6.133   1.989  10.813 -0.2584 -0.7569 -0.6403
  287MOL0     C38612   6.017   1.981  10.852  0.8295  0.7671 -0.2726
  287MOL0     O38613   5.970   2.021  10.971 -0.1125 -0.1313 -0.1032
  287MOL0     C38614   6.048   2.056  11.076  0.0815 -0.2016  0.2350
  287MOL0     C38615   6.175   2.009  11.100 -0.6787 -0.6826  0.6291
  287MOL0     C38616   6.251   2.053  11.210 -1.0814  0.7402 -0.1487
  287MOL0     C38617   6.197   2.146  11.302  1.0067  0.0261  0.1261
  287MOL0     O38618   6.274   2.179  11.409  0.2114 -0.6446 -0.1848
  287MOL0     C38619   6.234   2.265  11.515  1.0756  0.2056 -0.0632
  287MOL0     C38620   6.358   2.323  11.592  0.7036  0.4759  0.2249
  287MOL0     C38621   6.426   2.415  11.492  0.4448 -0.4894  0.1419
  287MOL0     C38622   6.571   2.434  11.522 -0.4911 -0.2040 -0.7736
  287MOL0     C38623   6.645   2.533  11.433  0.1972 -0.9318 -0.3244
  287MOL0     C38624   6.790   2.559  11.483 -0.3138  0.4534  0.5373
  287MOL0     C38625   6.800   2.640  11.615  0.4645 -0.4420  0.1590
  287MOL0     C38626   6.729   2.778  11.593  0.0132 -0.4170 -0.2060
  287MOL0     N38627   6.786   2.871  11.691 -0.1799 -0.0051  0.2181
  287MOL0     C38628   6.910   2.925  11.666 -0.6689  0.0853 -0.3181
  287MOL0     C38629   6.940   2.992  11.781 -0.3022 -1.0271 -0.0586
  287MOL0     C38630   7.046   3.101  11.803  0.0705  0.1642  0.1066
  287MOL0     C38631   7.177   3.047  11.857 -0.7386  0.3191  0.1342
  287MOL0     C38632   7.237   2.939  11.758 -0.2238  0.4972  0.0924
  287MOL0     C38633   7.383   2.909  11.809 -0.2416  0.1688  0.3621
  287MOL0     O38634   7.438   2.805  11.729 -0.1062 -0.1704  0.1083
  287MOL0     C38635   7.570   2.760  11.760  0.0103 -0.4061 -0.1131
  287MOL0     C38636   7.626   2.771  11.884 -0.3248 -0.5283  0.1468
  287MOL0     C38637   7.754   2.719  11.903  0.0237 -0.0788  0.7475
  287MOL0     C38638   7.825   2.643  11.807  0.4610 -0.0673  0.3964
  287MOL0     C38639   7.945   2.570  11.838  0.6303  0.1486  0.4950
  287MOL0     O38640   7.988   2.477  11.742  0.3365  0.1453  0.7221
  287MOL0     C38641   8.107   2.408  11.766 -0.6408  0.5916  1.2356
  287MOL0     C38642   8.095   2.269  11.759  0.1477 -0.4113 -0.0620
  287MOL0     C38643   8.208   2.188  11.786 -0.1617 -0.8509  0.1456
  287MOL0     C38644   8.331   2.243  11.823  0.2996 -0.8369 -0.6286
  287MOL0     O38645   8.435   2.160  11.852  0.0679 -0.1063 -0.7419
  287MOL0     C38646   8.578   2.205  11.848  0.4362  0.7663 -0.3474
  287MOL0     C38647   8.673   2.088  11.830  0.2346  1.8876  0.2409
  287MOL0     C38648   8.816   2.141  11.824  0.0008 -0.6021  0.2626
  287MOL0     C38649   8.917   2.020  11.784 -0.6654  0.6059  0.7831
  287MOL0     C38650   9.051   2.043  11.836 -0.3631 -0.2140 -0.5672
  287MOL0     C38651   9.116   2.183  11.808  1.0787 -0.0586  0.7861
  287MOL0     C38652   9.116   2.224  11.654 -0.7787 -0.1916  0.4756
  287MOL0     C38653   9.192   2.359  11.647  1.0371 -0.1878  0.3348
  287MOL0    Cl38654   9.299   2.374  11.496 -0.1331 -0.2413 -0.3025
  287MOL0     C38655   8.340   2.386  11.823  1.1222  0.0958 -0.3214
  287MOL0     C38656   8.229   2.467  11.796  0.2808 -0.1087 -0.8433
  287MOL0     O38657   7.991   2.586  11.953  0.0317 -1.0403  0.9526
  287MOL0     C38658   7.764   2.627  11.680  0.9632  0.3215  0.1133
  287MOL0     C38659   7.637   2.692  11.660 -0.0452  0.4633  0.1257
  287MOL0     N38660   6.834   2.974  11.871  0.4919 -0.0783 -0.0005
  287MOL0     N38661   6.739   2.894  11.816 -0.2847 -0.4802  0.0607
  287MOL0     C38662   6.066   2.183  11.281  0.2736 -0.9643 -0.4973
  287MOL0     C38663   5.988   2.142  11.170  0.5004 -0.0114  1.0489
  287MOL0     C38664   5.911   1.917  10.767 -0.7074 -0.6006 -0.4654
  287MOL0     C38665   5.775   1.944  10.780 -0.3917  0.1973 -0.0057
  287MOL0     C38666   5.679   1.880  10.697 -0.1397 -0.1556  0.4524
  287MOL0     C38667   5.716   1.789  10.591 -0.3906 -1.3364 -0.2659
  287MOL0     O38668   5.627   1.746  10.494 -0.3982 -0.6247 -0.4660
  287MOL0     C38669   5.485   1.756  10.505 -0.8213  1.0716  0.0981
  287MOL0     C38670   5.439   1.890  10.447  0.2423 -0.4988  0.3226
  287MOL0     C38671   5.288   1.903  10.433  0.2963 -0.0397  0.0609
  287MOL0     C38672   5.209   1.870  10.559 -0.0662 -0.3454 -0.0736
  287MOL0     C38673   5.063   1.882  10.540 -0.1489  0.2219 -0.5545
  287MOL0     C38674   4.945   1.876  10.521  0.1801  0.0579 -0.8871
  287MOL0     C38675   5.848   1.760  10.589 -0.1362 -0.1299  0.9152
  287MOL0     C38676   5.945   1.822  10.663 -0.1486  0.6808 -0.5930
  287MOL0     C38677   6.084   1.765  10.647 -0.3168 -0.4059  0.1399
  287MOL0     H38678   6.228   1.937  11.039  0.5977  0.4788  0.3011
  287MOL0     H38679   6.354   2.017  11.213 -0.9683  1.0810  0.1020
  287MOL0     H38680   6.169   2.344  11.477  0.1755 -1.4404 -2.1819
  287MOL0     H38681   6.173   2.214  11.590 -0.1039  0.1814 -1.0069
  287MOL0     H38682   6.424   2.244  11.630 -0.6440  0.0793  1.8675
  287MOL0     H38683   6.324   2.382  11.678  1.2159  3.9208 -1.7587
  287MOL0     H38684   6.368   2.508  11.492 -0.0087 -0.7457 -1.3200
  287MOL0     H38685   6.426   2.372  11.392 -0.8647 -1.7554  0.6570
  287MOL0     H38686   6.579   2.470  11.624 -4.6911  0.4465 -0.5156
  287MOL0     H38687   6.622   2.337  11.521  0.9862  0.5045 -2.8494
  287MOL0     H38688   6.651   2.483  11.336 -2.0024 -2.2426  0.1405
  287MOL0     H38689   6.593   2.628  11.419  0.6828 -0.9642 -2.5842
  287MOL0     H38690   6.847   2.466  11.488  2.6947  2.2385  1.6892
  287MOL0     H38691   6.840   2.609  11.400 -0.5928 -1.2574 -0.7018
  287MOL0     H38692   6.906   2.644  11.643  0.6043 -0.8833 -0.2794
  287MOL0     H38693   6.749   2.588  11.697 -0.5487 -2.2257 -1.5180
  287MOL0     H38694   6.743   2.820  11.493 -1.4622  0.9755  0.1215
  287MOL0     H38695   6.622   2.774  11.615 -0.0658  0.0258 -0.4997
  287MOL0     H38696   6.971   2.934  11.577  1.3066 -0.5821  0.8922
  287MOL0     H38697   7.077   3.142  11.706  0.2704  0.9747  0.4987
  287MOL0     H38698   7.007   3.181  11.867  1.2634  1.3383 -0.5900
  287MOL0     H38699   7.249   3.126  11.880 -1.3128  1.2526 -1.1650
  287MOL0     H38700   7.164   3.000  11.955 -0.7504 -1.9403 -0.8769
  287MOL0     H38701   7.258   2.987  11.662  2.7527 -0.8343 -0.0490
  287MOL0     H38702   7.172   2.852  11.747 -1.6554  1.0909  3.0501
  287MOL0     H38703   7.393   2.875  11.912  0.8496 -2.0314 -0.4018
  287MOL0     H38704   7.440   2.998  11.783  1.7905 -2.3245 -5.2789
  287MOL0     H38705   7.580   2.831  11.962  1.0132  1.3659 -0.4487
  287MOL0     H38706   7.805   2.727  11.999 -1.5727 -2.5332  1.9001
  287MOL0     H38707   8.000   2.238  11.717  0.2364  2.2824 -2.5509
  287MOL0     H38708   8.199   2.081  11.769 -2.5185 -0.6094 -0.5126
  287MOL0     H38709   8.589   2.262  11.755  2.4875 -2.0069 -1.9586
  287MOL0     H38710   8.599   2.272  11.933  1.3191  2.7706 -2.0509
  287MOL0     H38711   8.656   2.012  11.907 -2.5889  1.0640 -1.0785
  287MOL0     H38712   8.649   2.041  11.735  2.4359 -0.2764  0.6543
  287MOL0     H38713   8.822   2.212  11.741  1.3028 -1.0047 -0.0231
  287MOL0     H38714   8.845   2.192  11.916  0.4750 -3.8469  2.0580
  287MOL0     H38715   8.928   2.014  11.675 -2.6982  2.9080  0.3652
  287MOL0     H38716   8.873   1.926  11.817 -0.6487  0.9766  1.8934
  287MOL0     H38717   9.108   1.959  11.794  0.9040 -0.0105  0.6570
  287MOL0     H38718   9.053   2.033  11.945 -0.1422 -1.7355 -0.6930
  287MOL0     H38719   9.068   2.272  11.850 -0.0316  1.3526 -3.0575
  287MOL0     H38720   9.222   2.176  11.833  1.4894 -3.1481 -1.2599
  287MOL0     H38721   9.012   2.228  11.621 -0.4844  1.4781 -0.3927
  287MOL0     H38722   9.173   2.147  11.601 -1.3706  0.2964 -0.9429
  287MOL0     H38723   9.112   2.434  11.646 -0.1235 -1.3864 -0.7825
  287MOL0     H38724   9.256   2.380  11.733 -1.0717 -0.0998  1.9772
  287MOL0     H38725   8.433   2.435  11.850  1.5414  0.2606 -1.9702
  287MOL0     H38726   8.248   2.574  11.789 -1.8010  0.2556 -1.6997
  287MOL0     H38727   7.810   2.592  11.588  1.9609 -0.1877  0.7829
  287MOL0     H38728   7.581   2.701  11.567 -0.8036 -1.9038  0.2691
  287MOL0     H38729   6.021   2.251  11.353  1.1000 -2.3015  1.3684
  287MOL0     H38730   5.883   2.168  11.171  0.2359 -1.0564  1.5835
  287MOL0     H38731   5.740   2.015  10.855 -2.0155  1.0994 -1.5442
  287MOL0     H38732   5.573   1.899  10.705 -0.3410 -0.6030 -0.8847
  287MOL0     H38733   5.454   1.758  10.610 -0.0816 -0.5185  0.3831
  287MOL0     H38734   5.446   1.668  10.452  0.3187  1.5573 -1.6103
  287MOL0     H38735   5.476   1.902  10.344  2.1883  1.2070  1.1606
  287MOL0     H38736   5.487   1.973  10.500 -0.2255 -0.2238  0.3251
  287MOL0     H38737   5.247   1.841  10.353 -1.7403 -1.6969  2.2310
  287MOL0     H38738   5.275   2.009  10.409 -1.3134 -0.6588 -2.0814
  287MOL0     H38739   5.220   1.764  10.585  3.5460  0.2571  1.5113
  287MOL0     H38740   5.252   1.926  10.642 -0.4928 -0.0983 -0.0218
  287MOL0     H38741   4.839   1.864  10.511 -0.0260  1.4827 -0.5353
  287MOL0     H38742   5.869   1.697  10.504 -0.6892  1.3189 -0.3512
  287MOL0     H38743   6.133   1.846  10.593 -0.0042 -0.1615  0.7776
  287MOL0     H38744   6.123   1.749  10.748  0.7014  0.0480 -0.1684
  287MOL0     H38745   6.079   1.673  10.589 -1.0041 -0.7806  0.7625
  288MOL0     O38746   0.117   2.352   3.865  0.0171 -0.0661  0.1983
  288MOL0     C38747   0.158   2.375   3.751 -0.2691 -0.5816  0.2816
  288MOL0     O38748   0.293   2.392   3.709 -0.2978  0.3732 -1.0681
  288MOL0     C38749   0.388   2.325   3.784 -0.3344  0.6010  0.5983
  288MOL0     C38750   0.448   2.385   3.900  0.3253  0.2591  0.1411
  288MOL0     C38751   0.555   2.324   3.956 -0.3771 -0.3408 -0.6263
  288MOL0     C38752   0.612   2.209   3.915  0.7059  0.2373  0.2259
  288MOL0     O38753   0.713   2.158   3.984  0.6483 -0.5403 -0.2786
  288MOL0     C38754   0.793   2.050   3.933  0.1390  0.9583 -0.4585
  288MOL0     C38755   0.900   2.022   4.039  0.4387 -0.0893 -0.1026
  288MOL0     C38756   0.990   1.904   3.992 -0.2833  0.4276 -0.7464
  288MOL0     C38757   1.032   1.903   3.845  0.8603 -0.0703  0.8643
  288MOL0     C38758   1.113   1.776   3.812 -0.7736  1.0129  0.3023
  288MOL0     C38759   1.031   1.647   3.826  1.2777  0.6220  0.2250
  288MOL0     C38760   1.128   1.531   3.848 -0.3131 -0.1227 -0.6287
  288MOL0     C38761   1.199   1.501   3.719 -0.1760  0.1129  0.1053
  288MOL0     N38762   1.292   1.386   3.725  0.4116  0.3348 -0.0143
  288MOL0     C38763   1.280   1.258   3.784 -0.6529  0.0350  0.1155
  288MOL0     C38764   1.404   1.206   3.794 -0.2743  0.0123 -0.2786
  288MOL0     C38765   1.445   1.068   3.843 -0.6584  0.2505  0.1737
  288MOL0     C38766   1.594   1.033   3.830 -0.5476  0.1058 -0.6587
  288MOL0     C38767   1.622   0.912   3.729  1.1719  1.4253 -0.3321
  288MOL0     C38768   1.766   0.857   3.744 -0.0769 -0.1979  0.8093
  288MOL0     O38769   1.864   0.958   3.714  0.1547  0.3525  0.3940
  288MOL0     C38770   1.974   0.970   3.792  0.6344 -0.1350 -0.0483
  288MOL0     C38771   2.039   1.097   3.789  0.4653  0.2183  0.1170
  288MOL0     C38772   2.146   1.127   3.872 -0.5912  0.9232 -0.1141
  288MOL0     C38773   2.219   1.023   3.943  0.1832 -0.5941 -0.9911
  288MOL0     C38774   2.335   1.063   4.025  0.1120 -0.4394  0.0699
  288MOL0     O38775   2.386   1.191   4.008 -0.0558 -0.3741  0.7342
  288MOL0     C38776   2.485   1.216   4.095  0.2909  0.3336 -0.3708
  288MOL0     C38777   2.626   1.211   4.056  0.1692  0.1216 -0.0984
  288MOL0     C38778   2.733   1.234   4.142 -0.2732 -0.3431 -0.0633
  288MOL0     C38779   2.702   1.259   4.278 -0.3626  0.2748  0.8888
  288MOL0     O38780   2.788   1.293   4.379  0.8921 -0.4921  0.2871
  288MOL0     C38781   2.920   1.235   4.385  0.4228  0.1769  0.2845
  288MOL0     C38782   2.962   1.204   4.526  0.3613  0.1668 -0.8186
  288MOL0     C38783   2.964   1.318   4.630  0.7061 -0.2225  0.2024
  288MOL0     C38784   3.079   1.321   4.728 -0.1121 -0.6873 -0.4356
  288MOL0     C38785   3.071   1.437   4.827 -0.3898 -0.0628  0.5182
  288MOL0     C38786   3.204   1.443   4.913  0.7630  0.7193  0.4615
  288MOL0     C38787   3.229   1.574   4.977  0.3631  0.4308  0.2770
  288MOL0     C38788   3.309   1.552   5.096 -0.1664 -0.3479 -0.3218
  288MOL0    Cl38789   3.484   1.530   5.059  0.1927 -0.3533  0.3558
  288MOL0     C38790   2.568   1.266   4.319 -0.1401  0.3324 -0.2124
  288MOL0     C38791   2.465   1.255   4.226 -0.6699 -0.1297 -0.2451
  288MOL0     O38792   2.384   0.975   4.095  0.4237  0.3202 -0.0465
  288MOL0     C38793   2.151   0.897   3.948  0.2014 -0.1628  0.2953
  288MOL0     C38794   2.036   0.870   3.866 -0.1526  0.0438 -0.0795
  288MOL0     N38795   1.489   1.298   3.747 -0.3358  0.4330  0.5204
  288MOL0     N38796   1.426   1.401   3.696  0.1843  0.8224  0.0457
  288MOL0     C38797   0.555   2.153   3.797 -0.0894  1.2918 -0.7866
  288MOL0     C38798   0.445   2.212   3.726  1.4907  0.3872  0.2062
  288MOL0     C38799   0.051   2.410   3.656 -0.1145 -0.2785  0.0909
  288MOL0     C38800   0.074   2.509   3.564  0.8678  0.2118  0.4150
  288MOL0     C38801  -0.017   2.543   3.473 -0.5029  0.4117  0.7913
  288MOL0     C38802  -0.137   2.478   3.450 -0.0616 -0.7190  0.5853
  288MOL0     O38803  -0.226   2.495   3.345 -0.5388 -1.0618  0.0718
  288MOL0     C38804  -0.179   2.575   3.233  0.8990  0.3136  0.4143
  288MOL0     C38805  -0.290   2.586   3.136  0.0362 -0.2679 -0.0441
  288MOL0     C38806  -0.410   2.672   3.193  0.4193 -0.3999  0.5533
  288MOL0     C38807  -0.490   2.742   3.075 -0.1734  0.2707 -1.1721
  288MOL0     C38808  -0.538   2.650   2.977 -0.4163  0.2916  0.8668
  288MOL0     C38809  -0.576   2.579   2.887 -0.1935 -1.1034 -0.0101
  288MOL0     C38810  -0.155   2.362   3.532 -1.2264  0.5944  0.4112
  288MOL0     C38811  -0.063   2.335   3.633  0.9625 -0.1073  0.2760
  288MOL0     C38812  -0.109   2.223   3.719 -1.2883 -0.4719  0.0476
  288MOL0     H38813   0.418   2.482   3.937  0.8183 -0.6034  3.0204
  288MOL0     H38814   0.598   2.363   4.048 -1.7770 -0.3271  0.0605
  288MOL0     H38815   0.731   1.960   3.919 -1.7383  1.4901  3.2306
  288MOL0     H38816   0.835   2.084   3.838 -1.9405  1.0513 -1.3886
  288MOL0     H38817   0.842   1.996   4.128 -0.1887  1.9056  0.1358
  288MOL0     H38818   0.968   2.103   4.065  0.0120  0.7857 -1.5459
  288MOL0     H38819   0.929   1.816   4.015  0.9705  0.7687  5.7799
  288MOL0     H38820   1.079   1.893   4.055 -1.8318 -1.3545  1.2600
  288MOL0     H38821   0.937   1.891   3.792  1.3976 -1.5861  0.1809
  288MOL0     H38822   1.088   1.994   3.825  1.2829 -0.7937 -1.5648
  288MOL0     H38823   1.159   1.785   3.713  2.1857  1.5686  1.6069
  288MOL0     H38824   1.200   1.775   3.879  0.0602 -1.3622 -0.7106
  288MOL0     H38825   0.960   1.641   3.909  2.4859 -1.6188  1.1777
  288MOL0     H38826   0.981   1.639   3.729 -0.3175 -0.0152  1.0723
  288MOL0     H38827   1.077   1.444   3.890  0.0499  0.4065  1.0122
  288MOL0     H38828   1.201   1.557   3.926 -0.4426 -1.5240 -0.0223
  288MOL0     H38829   1.128   1.483   3.637  0.7719 -0.8250 -0.5454
  288MOL0     H38830   1.257   1.588   3.688  0.1106  0.0368  0.4201
  288MOL0     H38831   1.179   1.230   3.811 -1.5370  1.4332 -1.5621
  288MOL0     H38832   1.426   1.055   3.950  0.3338 -2.8705  0.0806
  288MOL0     H38833   1.381   0.990   3.802  0.6710 -0.5273 -0.4951
  288MOL0     H38834   1.654   1.122   3.808 -1.5370  1.0718  0.3796
  288MOL0     H38835   1.634   0.988   3.922 -1.6988  0.2947 -0.0446
  288MOL0     H38836   1.599   0.940   3.625  3.8308 -1.6526 -1.9556
  288MOL0     H38837   1.553   0.831   3.755  2.7520  0.5530  1.3401
  288MOL0     H38838   1.774   0.765   3.684  2.7469  0.9110 -0.6832
  288MOL0     H38839   1.775   0.836   3.851  2.5208 -0.2513  0.6461
  288MOL0     H38840   1.981   1.175   3.739  0.3812  0.7499  1.0218
  288MOL0     H38841   2.179   1.229   3.888  0.2642  0.5178  0.8444
  288MOL0     H38842   2.650   1.213   3.951  0.4659 -0.0707 -0.0354
  288MOL0     H38843   2.829   1.227   4.092  0.1711  0.7727  0.6165
  288MOL0     H38844   2.927   1.147   4.320 -0.3691 -0.8865  1.6009
  288MOL0     H38845   2.979   1.318   4.344 -3.4454  3.3905  0.5982
  288MOL0     H38846   2.901   1.122   4.565  2.2091 -1.0060 -0.2228
  288MOL0     H38847   3.062   1.161   4.514  0.8078  1.3917 -1.6873
  288MOL0     H38848   2.960   1.413   4.576  2.5694 -0.2942 -0.1474
  288MOL0     H38849   2.869   1.314   4.684  0.9561  0.1411  0.6702
  288MOL0     H38850   3.176   1.333   4.678  0.2907  0.5366  0.5794
  288MOL0     H38851   3.070   1.233   4.791 -2.0920 -0.6039 -0.5546
  288MOL0     H38852   2.982   1.428   4.889 -1.6759 -1.6756 -1.4229
  288MOL0     H38853   3.062   1.528   4.768 -0.4884 -1.5051 -1.8389
  288MOL0     H38854   3.195   1.363   4.987  0.6176 -0.1408 -0.4539
  288MOL0     H38855   3.283   1.423   4.839 -0.6234 -1.8766 -0.4567
  288MOL0     H38856   3.130   1.620   4.987 -0.9994 -1.3139 -3.1836
  288MOL0     H38857   3.288   1.627   4.901  3.0833 -1.0928  1.1840
  288MOL0     H38858   3.296   1.632   5.170 -1.3598 -2.7194  2.2364
  288MOL0     H38859   3.278   1.464   5.153 -1.4413 -0.5646 -1.3082
  288MOL0     H38860   2.538   1.287   4.421  2.6499  0.1526  0.7562
  288MOL0     H38861   2.366   1.269   4.269 -0.1158  0.0617  1.0166
  288MOL0     H38862   2.190   0.821   4.015  1.1537  0.0341 -0.0324
  288MOL0     H38863   2.009   0.766   3.881  1.4812 -0.4522 -0.3558
  288MOL0     H38864   0.608   2.073   3.746 -0.5994 -0.9031  1.9226
  288MOL0     H38865   0.391   2.160   3.647  0.4828 -0.9765  1.7174
  288MOL0     H38866   0.173   2.554   3.569  0.4818  0.9695  1.7486
  288MOL0     H38867   0.003   2.625   3.404 -0.3304 -1.1295 -1.0576
  288MOL0     H38868  -0.084   2.545   3.187  0.0492 -0.9159 -0.6117
  288MOL0     H38869  -0.155   2.677   3.264  1.6882  0.0199  0.7899
  288MOL0     H38870  -0.325   2.489   3.099  1.3018 -0.1837 -1.5937
  288MOL0     H38871  -0.243   2.648   3.060  2.2327 -1.0328  0.5955
  288MOL0     H38872  -0.369   2.749   3.260 -0.7791  2.6353 -1.9270
  288MOL0     H38873  -0.478   2.613   3.254 -1.2652  1.6655  0.7938
  288MOL0     H38874  -0.569   2.812   3.103 -0.4110 -0.0440 -1.0469
  288MOL0     H38875  -0.418   2.812   3.032 -1.1722  0.0593 -3.2717
  288MOL0     H38876  -0.601   2.500   2.819  0.6234  0.7097 -2.5974
  288MOL0     H38877  -0.248   2.307   3.520 -1.5926  1.5430 -1.4857
  288MOL0     H38878  -0.034   2.168   3.775 -0.3368 -0.5121 -1.2287
  288MOL0     H38879  -0.174   2.254   3.802  0.2798  3.8285 -0.0765
  288MOL0     H38880  -0.155   2.148   3.654  1.1971  0.4746 -3.0832
  289MOL0     O38881   1.290   8.851   5.372  0.4148 -0.9300  0.3066
  289MOL0     C38882   1.313   8.766   5.462 -0.3822  0.6749 -0.1957
  289MOL0     O38883   1.413   8.770   5.551  0.0573 -0.6072 -0.1246
  289MOL0     C38884   1.535   8.814   5.502 -0.0575  0.9886 -0.3514
  289MOL0     C38885   1.565   8.943   5.465  0.2933 -0.0041  0.8229
  289MOL0     C38886   1.692   8.974   5.406  0.0267  0.3313 -0.2734
  289MOL0     C38887   1.786   8.876   5.381  0.4604  0.1220  0.1798
  289MOL0     O38888   1.897   8.907   5.316  0.1156 -0.7257  0.3549
  289MOL0     C38889   2.012   8.860   5.370 -0.1123  0.0481 -0.3807
  289MOL0     C38890   2.125   8.961   5.327  0.4234 -0.0626 -0.1040
  289MOL0     C38891   2.178   8.927   5.191  0.6555  0.1276 -0.4279
  289MOL0     C38892   2.310   8.995   5.164 -0.2806  0.1442  0.3026
  289MOL0     C38893   2.367   8.974   5.024 -0.0038 -0.2362  0.0181
  289MOL0     C38894   2.507   9.053   4.999  0.1361  0.1743 -0.7877
  289MOL0     C38895   2.533   9.055   4.847 -0.5889 -0.9676  0.0935
  289MOL0     C38896   2.681   9.025   4.821  0.4134 -0.5685  0.4417
  289MOL0     N38897   2.720   9.049   4.678  0.0995 -0.9350 -0.2533
  289MOL0     C38898   2.681   9.159   4.613 -0.1603  0.2306  0.4793
  289MOL0     C38899   2.729   9.151   4.485  0.3476 -0.4064  0.2613
  289MOL0     C38900   2.721   9.242   4.371  0.6811  0.6837 -0.4223
  289MOL0     C38901   2.655   9.384   4.386  0.9396 -1.2286 -0.0171
  289MOL0     C38902   2.512   9.390   4.441  0.7158 -0.3148  0.5976
  289MOL0     C38903   2.417   9.313   4.343 -0.5982  0.1433  0.0062
  289MOL0     O38904   2.288   9.331   4.403 -0.6046 -1.1921  0.3281
  289MOL0     C38905   2.183   9.323   4.313  0.9067  1.4475 -1.5317
  289MOL0     C38906   2.169   9.230   4.209  0.1902  0.0963  0.1279
  289MOL0     C38907   2.049   9.196   4.153 -0.4372 -0.2114  0.3047
  289MOL0     C38908   1.941   9.279   4.182  0.8728  0.4645 -0.0941
  289MOL0     C38909   1.801   9.251   4.130  0.4525  0.3056  0.5077
  289MOL0     O38910   1.780   9.150   4.038 -0.7268  0.4290  0.2309
  289MOL0     C38911   1.660   9.141   3.969 -0.0709 -1.1885  0.2316
  289MOL0     C38912   1.530   9.132   4.026  0.5094  0.4881  0.0780
  289MOL0     C38913   1.420   9.125   3.943 -0.3742  0.0018  0.0540
  289MOL0     C38914   1.424   9.135   3.809 -0.0362 -0.0284 -0.6412
  289MOL0     O38915   1.307   9.125   3.725 -0.5286  0.0212  0.1005
  289MOL0     C38916   1.190   9.189   3.767  0.8076 -0.0121 -0.6287
  289MOL0     C38917   1.094   9.210   3.658  0.1152 -0.3542 -0.4411
  289MOL0     C38918   1.023   9.093   3.613 -0.0263 -0.0441 -0.3643
  289MOL0     C38919   0.902   9.129   3.524 -0.7935 -0.1265  0.5135
  289MOL0     C38920   0.814   8.996   3.522  1.1211 -0.1234  0.1981
  289MOL0     C38921   0.686   9.027   3.433  0.5770  0.1492 -0.9214
  289MOL0     C38922   0.581   8.906   3.427 -0.1042 -0.7022  0.4897
  289MOL0     C38923   0.491   8.912   3.553  0.0332  0.0241  0.3020
  289MOL0    Cl38924   0.360   8.796   3.521  0.0238  0.0636  0.0781
  289MOL0     C38925   1.549   9.129   3.754 -0.8219 -0.7372  0.0640
  289MOL0     C38926   1.667   9.131   3.831 -0.0648 -1.4306  1.1861
  289MOL0     O38927   1.716   9.326   4.180 -0.5829  0.1882  0.2469
  289MOL0     C38928   1.950   9.376   4.275 -0.5006  0.1400 -0.0618
  289MOL0     C38929   2.064   9.392   4.346 -0.2337 -0.2022 -1.0144
  289MOL0     N38930   2.808   9.036   4.476  0.1666  0.1293 -0.1568
  289MOL0     N38931   2.800   8.976   4.591  0.3539 -0.5011  0.4181
  289MOL0     C38932   1.743   8.747   5.402 -0.0139 -0.0988  0.6717
  289MOL0     C38933   1.630   8.715   5.478  0.8275 -0.6205  0.2516
  289MOL0     C38934   1.221   8.641   5.461  0.0971  0.6765 -0.2687
  289MOL0     C38935   1.271   8.526   5.533 -0.7211  0.2764  0.1621
  289MOL0     C38936   1.195   8.404   5.549 -0.1820 -1.1047  0.6597
  289MOL0     C38937   1.074   8.390   5.481 -0.6401 -0.6004 -0.1982
  289MOL0     O38938   1.005   8.269   5.486 -0.1020  0.2923 -0.2673
  289MOL0     C38939   0.873   8.246   5.434  0.1703  0.6616  0.0738
  289MOL0     C38940   0.759   8.262   5.543 -0.4925 -0.1534 -0.3219
  289MOL0     C38941   0.739   8.399   5.598  0.3095 -0.8074 -0.8769
  289MOL0     C38942   0.663   8.379   5.726  0.3970  0.0928  0.6600
  289MOL0     C38943   0.761   8.345   5.828  0.3302  0.6513 -0.0880
  289MOL0     C38944   0.849   8.298   5.895  0.0510 -0.6009 -0.3065
  289MOL0     C38945   1.027   8.508   5.409  0.9796 -1.0528 -0.0584
  289MOL0     C38946   1.089   8.630   5.402 -0.7626  0.0374 -0.5798
  289MOL0     C38947   1.012   8.751   5.335 -0.7313  0.5862  0.0246
  289MOL0     H38948   1.504   9.027   5.495  0.9855  1.2533 -1.0467
  289MOL0     H38949   1.723   9.076   5.388 -2.6327  1.6369  1.7590
  289MOL0     H38950   2.012   8.858   5.480  0.9945 -0.7352 -0.3808
  289MOL0     H38951   2.041   8.759   5.339 -0.0398 -0.7783  2.1005
  289MOL0     H38952   2.210   8.943   5.394 -1.6606 -0.2131  2.6753
  289MOL0     H38953   2.090   9.064   5.331 -1.1449 -0.5809 -0.0791
  289MOL0     H38954   2.097   8.956   5.123 -1.2961  0.9979  2.1245
  289MOL0     H38955   2.200   8.820   5.186 -0.3378 -0.1955  1.4319
  289MOL0     H38956   2.291   9.100   5.186 -2.6302 -0.3740  1.0108
  289MOL0     H38957   2.389   8.962   5.232 -0.6919  0.4895  0.9617
  289MOL0     H38958   2.389   8.868   5.011 -1.5851 -0.4902 -0.8671
  289MOL0     H38959   2.284   9.010   4.962 -1.3143  0.0233  1.8470
  289MOL0     H38960   2.493   9.151   5.045 -1.8693 -1.1531  1.6973
  289MOL0     H38961   2.589   9.003   5.051 -1.2263 -1.6811 -0.3167
  289MOL0     H38962   2.504   9.153   4.808 -2.3617 -1.4243  0.1377
  289MOL0     H38963   2.466   8.989   4.790 -0.0850 -0.4762 -1.0941
  289MOL0     H38964   2.732   9.085   4.897 -1.4315 -1.4060  2.4513
  289MOL0     H38965   2.688   8.919   4.845 -2.2623 -0.7438  0.7238
  289MOL0     H38966   2.625   9.239   4.661  0.5936  0.4869  0.9447
  289MOL0     H38967   2.823   9.254   4.333  0.4278  3.9256 -0.3876
  289MOL0     H38968   2.661   9.193   4.295 -2.4104  0.2581  2.0769
  289MOL0     H38969   2.727   9.433   4.453  2.4222 -2.5550 -0.5789
  289MOL0     H38970   2.653   9.443   4.294 -0.8118 -0.3619  0.5377
  289MOL0     H38971   2.478   9.494   4.444  0.9718 -0.2324  0.7029
  289MOL0     H38972   2.502   9.355   4.544  0.6590 -0.1344  0.6532
  289MOL0     H38973   2.439   9.206   4.350 -1.5313  0.0427  2.2020
  289MOL0     H38974   2.418   9.351   4.241  0.8885 -0.7827 -0.3588
  289MOL0     H38975   2.246   9.167   4.165 -2.0107 -3.4526  0.9398
  289MOL0     H38976   2.045   9.121   4.075 -2.7803  0.0131  0.1342
  289MOL0     H38977   1.516   9.144   4.133  1.3026  0.6857  0.1693
  289MOL0     H38978   1.322   9.105   3.985  0.3183  0.2280  1.8861
  289MOL0     H38979   1.133   9.138   3.845  2.6377  0.0742  0.8431
  289MOL0     H38980   1.216   9.280   3.822 -1.3215 -0.1171  0.6192
  289MOL0     H38981   1.026   9.286   3.698  2.6430  1.9775 -0.2330
  289MOL0     H38982   1.141   9.267   3.577 -0.7341  2.7377  1.0772
  289MOL0     H38983   1.085   9.030   3.548 -2.6640 -1.2745 -1.8361
  289MOL0     H38984   0.984   9.056   3.709  0.3780  2.6475  0.9295
  289MOL0     H38985   0.948   9.168   3.433  0.4748  1.8791  1.9458
  289MOL0     H38986   0.850   9.217   3.563  0.2285 -0.3549  2.5334
  289MOL0     H38987   0.785   8.969   3.623  2.3329 -0.5950  0.4333
  289MOL0     H38988   0.872   8.916   3.473  0.2650 -0.3348 -0.4930
  289MOL0     H38989   0.633   9.112   3.476  1.8550 -0.2889  1.7228
  289MOL0     H38990   0.716   9.054   3.331 -1.6601  2.2124 -1.1158
  289MOL0     H38991   0.624   8.806   3.411 -2.1271 -1.7319  1.1534
  289MOL0     H38992   0.522   8.921   3.337  1.8576 -1.1817 -0.9447
  289MOL0     H38993   0.540   8.886   3.648  0.1279 -0.7267  0.0585
  289MOL0     H38994   0.460   9.015   3.568  1.5381  0.2894  2.0554
  289MOL0     H38995   1.563   9.115   3.647 -2.1100 -0.0960 -0.2088
  289MOL0     H38996   1.761   9.120   3.777  0.1531  1.6035  0.7540
  289MOL0     H38997   1.861   9.435   4.293  1.4148  2.9139  0.9806
  289MOL0     H38998   2.068   9.467   4.424  0.6974  0.1591 -1.3933
  289MOL0     H38999   1.820   8.676   5.375  0.7015  0.0752  2.1310
  289MOL0     H39000   1.597   8.615   5.502  0.7428 -0.1656  2.1175
  289MOL0     H39001   1.373   8.506   5.564 -0.8240 -2.2697 -0.8905
  289MOL0     H39002   1.243   8.326   5.607 -1.8860 -1.5961  1.4544
  289MOL0     H39003   0.881   8.148   5.386 -0.8500  0.9010 -0.6232
  289MOL0     H39004   0.853   8.315   5.351  0.6347  2.9258  1.7239
  289MOL0     H39005   0.791   8.189   5.618 -2.1405 -2.7529 -1.9843
  289MOL0     H39006   0.667   8.230   5.493 -0.2539 -0.5192 -0.5348
  289MOL0     H39007   0.692   8.462   5.522  2.7878 -0.7586 -2.5039
  289MOL0     H39008   0.830   8.458   5.615 -1.4853  1.5133  1.5171
  289MOL0     H39009   0.625   8.481   5.738  2.2509  0.7967  0.8564
  289MOL0     H39010   0.573   8.317   5.724  0.0869  0.5312  0.7593
  289MOL0     H39011   0.932   8.250   5.942 -1.2177 -1.1893  1.4594
  289MOL0     H39012   0.927   8.509   5.367 -0.1469  1.7067  2.3568
  289MOL0     H39013   0.922   8.723   5.279 -2.3284  3.5832  0.8926
  289MOL0     H39014   0.994   8.820   5.418 -1.2436  0.8457 -0.2994
  289MOL0     H39015   1.074   8.801   5.260  0.7841 -0.8756  0.2532
  290MOL0     O39016   1.882   4.385   9.495 -1.0693 -0.2221  0.6340
  290MOL0     C39017   1.801   4.365   9.576  0.9390 -0.7594  0.7733
  290MOL0     O39018   1.823   4.315   9.707  0.7070  0.5571 -0.1490
  290MOL0     C39019   1.931   4.367   9.776 -0.5996 -0.2066  0.1337
  290MOL0     C39020   2.047   4.285   9.806 -0.0380  0.6065  0.1227
  290MOL0     C39021   2.151   4.348   9.859  0.2021  0.0659 -0.1383
  290MOL0     C39022   2.164   4.491   9.882  0.0019  0.2817  0.1305
  290MOL0     O39023   2.283   4.556   9.916  0.3591  0.9958  1.2213
  290MOL0     C39024   2.398   4.481   9.930  0.6584 -0.0080 -0.3175
  290MOL0     C39025   2.508   4.581   9.964 -0.5852  0.4845 -0.0708
  290MOL0     C39026   2.544   4.666   9.841  0.6035 -0.4480  0.1997
  290MOL0     C39027   2.690   4.721   9.833 -0.2331 -0.1672 -1.2255
  290MOL0     C39028   2.713   4.806   9.706  0.7175  0.2200  0.2077
  290MOL0     C39029   2.838   4.897   9.726  0.5125  0.2347  0.1012
  290MOL0     C39030   2.970   4.815   9.752 -0.8775 -0.8638  0.3822
  290MOL0     C39031   3.023   4.734   9.641  0.6049  0.0379  0.7273
  290MOL0     N39032   3.083   4.805   9.520  0.1813  0.1515  0.4647
  290MOL0     C39033   3.194   4.885   9.510  0.2848 -0.1233 -0.1543
  290MOL0     C39034   3.187   4.935   9.384 -0.1051 -0.2433 -0.5845
  290MOL0     C39035   3.285   5.040   9.343  0.2960 -0.4785  0.3683
  290MOL0     C39036   3.442   4.988   9.332  0.1780  0.8554 -0.7779
  290MOL0     C39037   3.461   4.857   9.245 -0.4094  0.4500 -0.3440
  290MOL0     C39038   3.609   4.825   9.227 -0.5607  0.0916  0.7296
  290MOL0     O39039   3.667   4.917   9.120  0.8559 -0.0464 -0.0963
  290MOL0     C39040   3.802   4.930   9.098 -0.4118  0.0009  0.0848
  290MOL0     C39041   3.899   4.846   9.157 -0.3329 -0.5724  0.1796
  290MOL0     C39042   4.031   4.882   9.139 -0.5892  0.5952  0.0338
  290MOL0     C39043   4.073   4.999   9.070 -0.6844  0.3288  0.2928
  290MOL0     C39044   4.218   5.031   9.056  0.6125  1.1696 -0.1870
  290MOL0     O39045   4.260   5.119   8.954  0.5170  0.2242  0.3900
  290MOL0     C39046   4.390   5.151   8.948  0.1119 -0.7293  0.6985
  290MOL0     C39047   4.442   5.176   8.817 -0.2452  0.0095  0.4716
  290MOL0     C39048   4.573   5.234   8.805  0.4230  0.2004 -0.4623
  290MOL0     C39049   4.651   5.256   8.925  0.3717  0.4801  0.9704
  290MOL0     O39050   4.775   5.321   8.909 -0.4336  0.5115  0.1370
  290MOL0     C39051   4.881   5.267   8.984  0.0162  0.0738 -1.4634
  290MOL0     C39052   5.016   5.320   8.953  0.5463  0.4680 -0.4014
  290MOL0     C39053   5.076   5.238   8.844 -0.0603  0.5738 -0.2307
  290MOL0     C39054   5.226   5.258   8.828  0.0965 -0.3812  0.1044
  290MOL0     C39055   5.312   5.162   8.907 -0.1048  0.4686 -0.1708
  290MOL0     C39056   5.468   5.202   8.935  0.9683 -0.4329  0.1489
  290MOL0     C39057   5.467   5.319   9.047  0.2869  0.7067  0.8936
  290MOL0     C39058   5.600   5.385   9.042 -0.7218 -0.3636 -0.0545
  290MOL0    Cl39059   5.636   5.501   9.175  0.3603  0.0491 -0.0572
  290MOL0     C39060   4.594   5.227   9.047 -0.3261 -0.5544  0.8395
  290MOL0     C39061   4.468   5.183   9.059  0.4812 -0.1665 -0.1747
  290MOL0     O39062   4.294   4.977   9.139  0.1819  0.2672 -0.0176
  290MOL0     C39063   3.971   5.078   9.015  0.4469 -1.1246 -0.6900
  290MOL0     C39064   3.839   5.036   9.028  0.4351 -0.5889  0.3523
  290MOL0     N39065   3.081   4.873   9.318 -0.0637  0.6490  0.1293
  290MOL0     N39066   3.024   4.793   9.397  0.3017  0.5301 -0.0470
  290MOL0     C39067   2.057   4.568   9.847 -0.3752 -0.0426 -0.4514
  290MOL0     C39068   1.939   4.509   9.805 -0.9739  0.7684  0.7650
  290MOL0     C39069   1.661   4.422   9.540  0.1383  0.3781 -0.6063
  290MOL0     C39070   1.578   4.448   9.647 -0.9596 -0.8486  0.0619
  290MOL0     C39071   1.444   4.482   9.616 -1.0053 -0.1432 -0.6906
  290MOL0     C39072   1.385   4.496   9.492  0.3899  0.3681  0.0912
  290MOL0     O39073   1.247   4.507   9.495  0.8699 -0.2213 -0.5993
  290MOL0     C39074   1.174   4.506   9.369 -0.1112 -0.6258  0.1564
  290MOL0     C39075   1.023   4.550   9.375 -0.1838 -0.3042  0.1303
  290MOL0     C39076   1.002   4.680   9.462  0.4184  0.5110 -0.3921
  290MOL0     C39077   0.858   4.733   9.474 -0.2101 -1.1225 -0.0647
  290MOL0     C39078   0.784   4.735   9.343  0.2964 -0.6045 -0.2076
  290MOL0     C39079   0.723   4.742   9.238 -0.3211 -0.1159  0.1811
  290MOL0     C39080   1.471   4.468   9.384  0.2305  0.0501 -0.1445
  290MOL0     C39081   1.609   4.431   9.407  0.2208 -0.4134 -0.4097
  290MOL0     C39082   1.688   4.372   9.284  0.2093 -0.4437  0.1943
  290MOL0     H39083   2.043   4.181   9.776  3.5026  0.3609  0.1262
  290MOL0     H39084   2.226   4.278   9.896  0.0679 -0.4948 -0.9124
  290MOL0     H39085   2.387   4.419  10.020  1.5391  2.0251  1.2838
  290MOL0     H39086   2.429   4.422   9.843 -0.4928  1.0976 -1.4989
  290MOL0     H39087   2.601   4.535   9.999  0.3926  1.7643 -0.9108
  290MOL0     H39088   2.475   4.645  10.047  3.5379  0.9648  1.4548
  290MOL0     H39089   2.473   4.749   9.851 -0.2090 -1.0776 -0.2066
  290MOL0     H39090   2.517   4.598   9.760 -2.2504 -1.1144  1.5860
  290MOL0     H39091   2.703   4.787   9.920 -5.3457  1.9632 -1.6665
  290MOL0     H39092   2.761   4.641   9.855 -1.5875 -1.2311 -0.5393
  290MOL0     H39093   2.727   4.737   9.621 -0.5665 -2.3966  1.9736
  290MOL0     H39094   2.623   4.861   9.676  0.2573 -1.8622 -2.7580
  290MOL0     H39095   2.847   4.953   9.633 -2.6120  1.0142  0.1617
  290MOL0     H39096   2.814   4.958   9.814  1.5340 -0.1474  0.6653
  290MOL0     H39097   2.961   4.751   9.841 -2.6188  0.4410  1.2087
  290MOL0     H39098   3.055   4.880   9.774  0.0516 -1.5407 -1.0379
  290MOL0     H39099   3.104   4.669   9.675  1.3928  0.3888 -0.4308
  290MOL0     H39100   2.942   4.673   9.601  0.7446  0.1963  0.1965
  290MOL0     H39101   3.257   4.915   9.594 -1.4667  1.6345  0.5985
  290MOL0     H39102   3.253   5.072   9.243 -1.7656  0.2687  1.2058
  290MOL0     H39103   3.285   5.122   9.415  2.3769 -0.9423  0.9530
  290MOL0     H39104   3.513   5.063   9.296  0.3736 -0.6157 -3.8044
  290MOL0     H39105   3.474   4.964   9.434  1.0495 -4.1863 -1.9634
  290MOL0     H39106   3.432   4.855   9.140  3.1340  1.4001 -1.4764
  290MOL0     H39107   3.416   4.773   9.298  3.1037 -0.1927  1.9816
  290MOL0     H39108   3.628   4.721   9.201  0.2150  0.5014 -0.4639
  290MOL0     H39109   3.667   4.853   9.315  0.8366  3.9536 -1.1433
  290MOL0     H39110   3.861   4.766   9.219  1.4086 -0.3732  1.5803
  290MOL0     H39111   4.107   4.820   9.184 -0.8702 -0.2272 -0.5931
  290MOL0     H39112   4.391   5.153   8.724  2.6572 -0.8770 -1.0105
  290MOL0     H39113   4.624   5.279   8.721  0.4889  2.6835  0.8155
  290MOL0     H39114   4.859   5.299   9.086  0.5814 -1.8658 -0.6942
  290MOL0     H39115   4.881   5.159   8.998  1.3025  0.3083  0.7252
  290MOL0     H39116   4.998   5.425   8.929  2.3412  1.6317  2.7473
  290MOL0     H39117   5.086   5.304   9.035  1.7870  2.0900 -1.0944
  290MOL0     H39118   5.063   5.130   8.855  4.2109 -0.1357 -0.5838
  290MOL0     H39119   5.030   5.259   8.747 -0.0195 -1.7141 -0.8140
  290MOL0     H39120   5.254   5.357   8.864  2.9104 -0.9990 -0.1377
  290MOL0     H39121   5.254   5.248   8.722 -2.0610 -1.8030 -0.3840
  290MOL0     H39122   5.317   5.065   8.855  1.8703  0.4752 -0.0764
  290MOL0     H39123   5.275   5.150   9.010  1.8872  1.4888  0.7184
  290MOL0     H39124   5.525   5.112   8.957 -0.5662 -1.4119  0.3102
  290MOL0     H39125   5.492   5.246   8.837 -1.6877  0.4162 -0.2164
  290MOL0     H39126   5.448   5.279   9.147 -0.0384  1.3018  1.0745
  290MOL0     H39127   5.396   5.400   9.027 -0.9477 -0.8438 -1.3011
  290MOL0     H39128   5.685   5.316   9.046 -0.3258  0.0376 -1.1301
  290MOL0     H39129   5.610   5.430   8.942 -1.0683  1.1258  0.5574
  290MOL0     H39130   4.650   5.236   9.140  0.1688 -0.5447  0.5458
  290MOL0     H39131   4.433   5.165   9.160 -0.0391 -1.0887 -0.5045
  290MOL0     H39132   3.999   5.166   8.957 -0.9528  1.1060  1.7797
  290MOL0     H39133   3.774   5.094   8.963 -0.3523 -1.9159 -0.0783
  290MOL0     H39134   2.076   4.674   9.861  1.4441 -0.1096 -1.9741
  290MOL0     H39135   1.853   4.573   9.787 -0.0692  1.4439 -1.5206
  290MOL0     H39136   1.617   4.445   9.748  0.7653  1.2127 -0.4485
  290MOL0     H39137   1.378   4.496   9.701  1.4764  1.0637  1.1565
  290MOL0     H39138   1.167   4.404   9.330  0.6710 -0.6984  0.1921
  290MOL0     H39139   1.228   4.565   9.294 -1.5102 -2.0908 -2.1262
  290MOL0     H39140   0.974   4.467   9.427  0.9917 -0.9890  0.1589
  290MOL0     H39141   0.986   4.560   9.273  0.4965 -1.7944 -0.2918
  290MOL0     H39142   1.068   4.756   9.418  0.6882  0.0200 -0.8562
  290MOL0     H39143   1.060   4.666   9.554  1.8394  1.5430 -1.0879
  290MOL0     H39144   0.804   4.671   9.546  1.7149 -0.5620  1.9722
  290MOL0     H39145   0.863   4.832   9.520 -3.3019 -1.5220  1.3903
  290MOL0     H39146   0.687   4.737   9.137  1.4461  2.4745 -0.6969
  290MOL0     H39147   1.416   4.454   9.292 -1.7306 -0.6267  1.0714
  290MOL0     H39148   1.612   4.380   9.206 -3.2855 -1.3174  3.1816
  290MOL0     H39149   1.773   4.434   9.255  0.6847 -1.5490 -0.8806
  290MOL0     H39150   1.700   4.264   9.300 -0.4909 -0.5709 -0.0715
  291MOL0     O39151   2.723   9.192   6.562  0.1873 -0.2959 -0.4682
  291MOL0     C39152   2.675   9.234   6.664  0.8895  0.0646 -0.6154
  291MOL0     O39153   2.742   9.304   6.761  0.5308 -0.1268  0.6949
  291MOL0     C39154   2.876   9.288   6.782 -0.0900 -0.0204 -0.8325
  291MOL0     C39155   2.955   9.175   6.774  0.6693  0.9204  0.5075
  291MOL0     C39156   3.083   9.171   6.814  0.1381 -0.3958 -0.5947
  291MOL0     C39157   3.150   9.286   6.844 -0.6291 -0.0472  0.1790
  291MOL0     O39158   3.285   9.295   6.864  0.7588 -0.6134  0.9944
  291MOL0     C39159   3.353   9.186   6.923 -0.1582 -1.0722  0.1562
  291MOL0     C39160   3.497   9.220   6.915 -1.2138 -0.1577  0.3129
  291MOL0     C39161   3.585   9.130   7.004  0.3053 -0.2990  0.1317
  291MOL0     C39162   3.731   9.175   7.002  1.0308 -0.3655 -0.0794
  291MOL0     C39163   3.837   9.103   7.081 -0.0667  0.0387  0.7002
  291MOL0     C39164   3.858   8.958   7.025  0.3638 -0.0921  0.3755
  291MOL0     C39165   3.963   8.875   7.105 -0.6984  0.2433  0.5085
  291MOL0     C39166   4.099   8.923   7.075 -0.3926 -0.0765 -0.4821
  291MOL0     N39167   4.194   8.853   7.160 -0.2697 -0.2877 -0.2209
  291MOL0     C39168   4.284   8.924   7.245 -0.7373  0.6413  0.2406
  291MOL0     C39169   4.377   8.840   7.294  0.3550  0.9675  0.3173
  291MOL0     C39170   4.491   8.885   7.378 -0.3104  0.8623 -0.0120
  291MOL0     C39171   4.627   8.836   7.316  1.2689  0.5061 -0.0742
  291MOL0     C39172   4.664   8.892   7.180  0.1315 -1.3349 -0.1434
  291MOL0     C39173   4.817   8.890   7.161 -1.0383  0.3278 -0.6836
  291MOL0     O39174   4.861   8.758   7.163  0.6442  0.5106 -0.4965
  291MOL0     C39175   4.994   8.744   7.144 -0.2358 -0.5638  0.1305
  291MOL0     C39176   5.038   8.608   7.130  0.7485 -0.3115  0.2596
  291MOL0     C39177   5.177   8.585   7.092  0.0059  0.1852  0.1017
  291MOL0     C39178   5.270   8.689   7.094 -0.2184  0.1804  1.3005
  291MOL0     C39179   5.414   8.643   7.082  0.2236  0.1233 -0.3925
  291MOL0     O39180   5.514   8.722   7.128  0.1225 -0.5103 -0.1252
  291MOL0     C39181   5.649   8.700   7.106 -0.0850 -0.3998 -0.3320
  291MOL0     C39182   5.704   8.624   6.992  0.4576  0.6434 -0.4825
  291MOL0     C39183   5.844   8.582   6.985  0.0517  0.3513  0.1147
  291MOL0     C39184   5.929   8.630   7.089 -0.3265  0.8876 -0.1595
  291MOL0     O39185   6.063   8.593   7.082 -0.0162 -0.1388 -0.2738
  291MOL0     C39186   6.161   8.672   7.147 -1.5647  0.5727 -0.1950
  291MOL0     C39187   6.301   8.609   7.134 -0.6586 -0.0506  0.8223
  291MOL0     C39188   6.406   8.710   7.183 -0.1303 -1.0245  0.1797
  291MOL0     C39189   6.543   8.662   7.137 -0.2510  0.3319  0.2170
  291MOL0     C39190   6.649   8.738   7.212 -0.2228 -0.0943 -0.3098
  291MOL0     C39191   6.793   8.701   7.188  0.0688  0.3333  0.3840
  291MOL0     C39192   6.892   8.814   7.231 -0.3747  0.0261  0.0613
  291MOL0     C39193   6.906   8.829   7.380  0.3385  0.4475  0.3261
  291MOL0    Cl39194   7.010   8.971   7.387 -0.2010 -0.4977  0.1930
  291MOL0     C39195   5.872   8.710   7.181  0.3764 -0.4253 -1.1856
  291MOL0     C39196   5.742   8.751   7.193  0.1369 -0.9042  0.6992
  291MOL0     O39197   5.432   8.534   7.025 -0.4664 -0.2712 -0.0975
  291MOL0     C39198   5.225   8.823   7.106  0.7706 -0.3951  0.3291
  291MOL0     C39199   5.090   8.852   7.130 -0.5298  0.1973  0.3664
  291MOL0     N39200   4.344   8.717   7.234 -0.5341  0.3304 -0.5756
  291MOL0     N39201   4.232   8.722   7.165 -0.1499  0.5402  0.9130
  291MOL0     C39202   3.077   9.405   6.851  1.2006  0.2091 -0.3348
  291MOL0     C39203   2.940   9.404   6.815 -0.9681  0.1260 -0.3011
  291MOL0     C39204   2.531   9.201   6.695 -0.7920  0.4935 -0.2063
  291MOL0     C39205   2.439   9.201   6.591  0.8780 -0.4565  0.1133
  291MOL0     C39206   2.309   9.176   6.625 -0.5507  0.0374  0.4574
  291MOL0     C39207   2.269   9.131   6.750  0.4603  0.4378 -0.5869
  291MOL0     O39208   2.143   9.083   6.770 -0.1047 -0.5563  0.0640
  291MOL0     C39209   2.052   9.163   6.848  0.4180 -0.2752 -0.0229
  291MOL0     C39210   1.924   9.083   6.856  0.2222 -0.3577  0.0280
  291MOL0     C39211   1.843   9.066   6.729 -0.3586  0.4376  0.1817
  291MOL0     C39212   1.726   8.974   6.768  0.4745 -0.2316 -0.3921
  291MOL0     C39213   1.603   9.047   6.808  0.4092  0.5756 -0.4498
  291MOL0     C39214   1.492   9.102   6.829 -0.3213  0.2078 -0.0157
  291MOL0     C39215   2.355   9.130   6.849  0.2022  0.8409 -0.4765
  291MOL0     C39216   2.485   9.171   6.827 -0.0877  1.0203 -0.2068
  291MOL0     C39217   2.568   9.177   6.954  0.7257  0.2463  1.6602
  291MOL0     H39218   2.906   9.082   6.746  2.8685 -0.3006  0.5434
  291MOL0     H39219   3.128   9.072   6.803  3.3940  0.5897  2.1571
  291MOL0     H39220   3.312   9.183   7.024  0.1689  1.7948  0.4706
  291MOL0     H39221   3.332   9.097   6.863  0.4939  0.5873 -2.7438
  291MOL0     H39222   3.521   9.326   6.926 -1.7089 -0.2459  2.7241
  291MOL0     H39223   3.531   9.195   6.814  0.4968  1.5681  0.4101
  291MOL0     H39224   3.587   9.033   6.954 -1.1750  0.1204 -0.8015
  291MOL0     H39225   3.546   9.115   7.104 -1.9289 -3.8683 -1.0923
  291MOL0     H39226   3.759   9.178   6.897 -0.5512  2.6824 -0.5145
  291MOL0     H39227   3.729   9.279   7.034  4.4495  1.7324 -5.4785
  291MOL0     H39228   3.929   9.161   7.070 -0.0321 -0.0008  0.7959
  291MOL0     H39229   3.818   9.094   7.188 -2.2692  2.4610  0.6138
  291MOL0     H39230   3.758   8.917   7.042 -0.2493  0.8103 -0.8717
  291MOL0     H39231   3.885   8.972   6.920 -1.2292  2.3398  0.2132
  291MOL0     H39232   3.954   8.771   7.072 -1.9199  0.3680  0.4096
  291MOL0     H39233   3.936   8.871   7.211  0.0296  2.4243  0.8333
  291MOL0     H39234   4.122   8.906   6.970 -3.2321  2.3765 -1.6208
  291MOL0     H39235   4.110   9.030   7.094  0.4118 -0.5724  2.5151
  291MOL0     H39236   4.273   9.029   7.270 -1.2431  0.2833  1.6217
  291MOL0     H39237   4.489   8.994   7.378 -4.8350  1.1074 -3.7966
  291MOL0     H39238   4.478   8.845   7.480  3.2082 -1.9871 -0.4617
  291MOL0     H39239   4.705   8.862   7.388  0.6615  0.6117  0.5534
  291MOL0     H39240   4.619   8.727   7.310 -3.7243  0.6618 -0.2693
  291MOL0     H39241   4.634   8.997   7.171  2.5218 -0.4775  1.0697
  291MOL0     H39242   4.612   8.841   7.098 -1.0277  4.0107 -3.1861
  291MOL0     H39243   4.845   8.947   7.250 -0.9766  2.0618 -1.7733
  291MOL0     H39244   4.842   8.943   7.069  2.5422 -2.2712 -1.4289
  291MOL0     H39245   4.967   8.528   7.145  1.8633 -1.6890 -1.4020
  291MOL0     H39246   5.209   8.486   7.060 -1.4261 -0.1544 -0.3938
  291MOL0     H39247   5.650   8.620   6.898 -0.3922  0.2692  0.0161
  291MOL0     H39248   5.872   8.515   6.905 -1.3402 -1.6608  1.2119
  291MOL0     H39249   6.159   8.775   7.109  0.6044  1.7503  2.5758
  291MOL0     H39250   6.139   8.685   7.253  2.9529 -0.1601  1.0443
  291MOL0     H39251   6.309   8.533   7.212 -1.1109 -1.9208 -0.8824
  291MOL0     H39252   6.321   8.578   7.031 -0.9023 -1.5777  1.2113
  291MOL0     H39253   6.403   8.814   7.149  0.2563 -1.7728 -2.3680
  291MOL0     H39254   6.400   8.705   7.292 -3.4800  0.2934  0.2005
  291MOL0     H39255   6.543   8.658   7.028 -0.5668 -4.0400  0.1999
  291MOL0     H39256   6.564   8.558   7.164  2.3166  0.7179 -0.0179
  291MOL0     H39257   6.631   8.737   7.320  0.2494 -1.1652 -0.2315
  291MOL0     H39258   6.627   8.842   7.185 -0.4142 -0.6553 -2.5212
  291MOL0     H39259   6.814   8.607   7.240 -0.4287 -0.7297 -1.2661
  291MOL0     H39260   6.814   8.682   7.082  2.7292 -1.3892  1.1372
  291MOL0     H39261   6.858   8.908   7.188 -3.7849 -0.5815  1.1025
  291MOL0     H39262   6.991   8.787   7.192 -0.0655  1.9814 -0.6195
  291MOL0     H39263   6.807   8.841   7.424  0.0117  3.6712 -1.0078
  291MOL0     H39264   6.958   8.743   7.422 -0.8988  0.4621  1.9581
  291MOL0     H39265   5.928   8.751   7.265 -0.9312  0.7530 -0.8645
  291MOL0     H39266   5.730   8.801   7.289 -2.6821 -3.1238  1.6429
  291MOL0     H39267   5.300   8.901   7.102 -1.0063  1.3933  0.3818
  291MOL0     H39268   5.061   8.956   7.116  0.6116  0.3349 -1.2772
  291MOL0     H39269   3.139   9.491   6.872  1.1351 -0.0317  0.9262
  291MOL0     H39270   2.886   9.498   6.813  0.6073  1.0816  0.2027
  291MOL0     H39271   2.475   9.213   6.489  1.1866 -1.8389  0.0270
  291MOL0     H39272   2.229   9.173   6.551 -1.4174  1.0490  1.3169
  291MOL0     H39273   2.023   9.254   6.795  1.6982  0.4982  0.5669
  291MOL0     H39274   2.095   9.175   6.948  0.2285 -0.5388  0.0925
  291MOL0     H39275   1.859   9.140   6.923  0.2133 -0.7687  0.3723
  291MOL0     H39276   1.958   8.993   6.909 -0.1615  0.8700  2.5298
  291MOL0     H39277   1.894   9.005   6.654 -2.5864 -1.8708  0.4375
  291MOL0     H39278   1.827   9.160   6.675  1.3389 -1.1978 -3.4941
  291MOL0     H39279   1.704   8.906   6.686 -1.2091 -2.4871  1.7539
  291MOL0     H39280   1.766   8.911   6.848  1.6453  0.1395 -0.6647
  291MOL0     H39281   1.411   9.168   6.847  0.9919  3.4458 -4.2275
  291MOL0     H39282   2.324   9.100   6.949  1.4421  0.7840 -0.0963
  291MOL0     H39283   2.579   9.278   6.994  1.3317  0.6786  0.4600
  291MOL0     H39284   2.518   9.131   7.039 -3.3487 -0.5358 -0.8774
  291MOL0     H39285   2.663   9.126   6.938 -0.1602 -0.3713 -3.2489
  292MOL0     O39286  10.996   4.566   6.354 -0.5304 -0.1540  0.2861
  292MOL0     C39287  10.897   4.536   6.419  0.2096 -0.1935  0.5212
  292MOL0     O39288  10.872   4.587   6.542  0.3652  0.1274 -0.4465
  292MOL0     C39289  10.968   4.667   6.593  0.1028 -0.2535 -0.3775
  292MOL0     C39290  11.081   4.610   6.654  0.5653  0.7632 -0.2895
  292MOL0     C39291  11.164   4.690   6.724  0.1004  0.3220  0.1741
  292MOL0     C39292  11.157   4.827   6.744 -0.7603  0.1809  0.2518
  292MOL0     O39293  11.247   4.900   6.825  0.1691  0.1698  0.3395
  292MOL0     C39294  11.375   4.846   6.863  0.0006  1.0703 -0.9400
  292MOL0     C39295  11.461   4.946   6.934 -0.7663 -0.1488 -0.5326
  292MOL0     C39296  11.403   5.004   7.065  0.3939 -0.2239 -0.2326
  292MOL0     C39297  11.480   5.123   7.122 -0.0452  0.0603  0.0323
  292MOL0     C39298  11.432   5.171   7.258  0.0387 -0.2396  0.7767
  292MOL0     C39299  11.428   5.065   7.368  0.4794  0.8431 -0.7640
  292MOL0     C39300  11.401   5.132   7.492 -0.8665 -0.1185 -0.9758
  292MOL0     C39301  11.421   5.049   7.622  0.4932 -0.5461 -0.0040
  292MOL0     N39302  11.330   4.931   7.626 -0.4459 -0.3674  0.5888
  292MOL0     C39303  11.191   4.927   7.656 -0.2224 -0.0863  0.3151
  292MOL0     C39304  11.165   4.796   7.685  0.4395 -0.2100  0.5043
  292MOL0     C39305  11.048   4.725   7.745 -0.3012 -0.7767 -0.1785
  292MOL0     C39306  10.917   4.802   7.704 -0.0262  0.5927 -0.2667
  292MOL0     C39307  10.778   4.742   7.744  0.3731 -0.3628 -0.8410
  292MOL0     C39308  10.662   4.832   7.722  0.4427  0.2032 -0.3596
  292MOL0     O39309  10.631   4.855   7.584 -0.2525 -0.7159  0.1440
  292MOL0     C39310  10.544   4.949   7.549 -0.2964 -0.0734  0.6494
  292MOL0     C39311  10.535   4.974   7.410 -0.9166  0.4160 -0.4397
  292MOL0     C39312  10.458   5.079   7.361 -0.4233  0.0136 -0.1688
  292MOL0     C39313  10.379   5.157   7.435  0.2089  0.4391 -0.2631
  292MOL0     C39314  10.294   5.269   7.364  0.5293 -0.0062  0.4046
  292MOL0     O39315  10.296   5.286   7.225 -0.4465 -0.4370  0.0479
  292MOL0     C39316  10.187   5.342   7.159  0.3881  0.2037 -0.0001
  292MOL0     C39317  10.121   5.459   7.202  0.4295 -0.6182  0.1256
  292MOL0     C39318  10.024   5.526   7.116 -0.5098  0.1883 -0.8059
  292MOL0     C39319   9.981   5.468   6.999 -0.1698  0.3816  0.0916
  292MOL0     O39320   9.903   5.535   6.912  0.5375 -0.4060  0.0895
  292MOL0     C39321   9.830   5.463   6.811 -0.5230 -0.1466  0.0573
  292MOL0     C39322   9.747   5.566   6.737 -0.1721 -0.1005  0.7560
  292MOL0     C39323   9.607   5.576   6.805  0.6768 -0.1908 -0.2711
  292MOL0     C39324   9.516   5.697   6.773  0.1473  0.6236  0.7388
  292MOL0     C39325   9.379   5.691   6.833 -0.2887  0.6174  0.4862
  292MOL0     C39326   9.290   5.800   6.772 -0.4258  1.0822 -0.3912
  292MOL0     C39327   9.147   5.791   6.841 -0.5353  0.0492  0.8689
  292MOL0     C39328   9.065   5.911   6.783 -0.8926  0.4794 -0.0467
  292MOL0    Cl39329   8.900   5.919   6.838  0.0181 -0.2656  0.3197
  292MOL0     C39330  10.029   5.340   6.966  0.1086 -0.1096  0.7485
  292MOL0     C39331  10.136   5.287   7.037  0.0685 -0.2476  0.7320
  292MOL0     O39332  10.232   5.338   7.447 -0.6358 -0.2344  0.6376
  292MOL0     C39333  10.382   5.125   7.574 -0.4197  0.2772 -0.2741
  292MOL0     C39334  10.459   5.025   7.637 -0.2680  0.1243  0.1394
  292MOL0     N39335  11.279   4.725   7.668  0.1336 -0.1050 -0.0784
  292MOL0     N39336  11.376   4.798   7.625  0.9386 -0.3195  0.6365
  292MOL0     C39337  11.054   4.886   6.676  0.9827 -0.0536 -0.4687
  292MOL0     C39338  10.960   4.811   6.603 -0.0444 -0.6555  0.1770
  292MOL0     C39339  10.793   4.437   6.370 -0.9351 -0.3163  0.2628
  292MOL0     C39340  10.667   4.430   6.441  1.0347  0.4723 -0.7698
  292MOL0     C39341  10.566   4.348   6.402 -0.2945  0.7479 -0.7203
  292MOL0     C39342  10.581   4.271   6.286  0.6607 -0.8546 -0.6229
  292MOL0     O39343  10.483   4.199   6.225  0.0422  0.6079 -0.3047
  292MOL0     C39344  10.339   4.213   6.253 -0.6415  1.2200  0.3159
  292MOL0     C39345  10.271   4.170   6.124 -0.1614  0.0181  0.1020
  292MOL0     C39346  10.115   4.165   6.133 -0.3654  1.5303 -0.1115
  292MOL0     C39347  10.058   4.103   6.007 -0.4191 -0.2072  0.4074
  292MOL0     C39348  10.073   4.198   5.889 -0.0967 -0.7047  0.8226
  292MOL0     C39349  10.064   4.292   5.809 -0.8257 -0.5128  0.6682
  292MOL0     C39350  10.705   4.274   6.217  0.7548  0.4753  0.8025
  292MOL0     C39351  10.811   4.356   6.254  0.4562 -0.4160 -0.2755
  292MOL0     C39352  10.938   4.344   6.182  0.6373  0.0058 -0.2549
  292MOL0     H39353  11.080   4.504   6.631  1.4032  1.0853 -2.0152
  292MOL0     H39354  11.239   4.643   6.787  0.3105 -0.6535 -0.7809
  292MOL0     H39355  11.346   4.765   6.931  1.5134  0.1383 -1.3532
  292MOL0     H39356  11.430   4.798   6.781  0.5039 -0.5634  0.2816
  292MOL0     H39357  11.474   5.024   6.859 -1.5985  1.8649  1.3340
  292MOL0     H39358  11.557   4.901   6.960 -0.4233 -0.2437 -1.8561
  292MOL0     H39359  11.401   4.924   7.140  0.0540  0.5486  0.6013
  292MOL0     H39360  11.306   5.052   7.049  0.4102 -0.4284 -1.0055
  292MOL0     H39361  11.585   5.092   7.132  0.1519  1.1885  2.1921
  292MOL0     H39362  11.457   5.205   7.054 -2.1854  0.3278  1.0033
  292MOL0     H39363  11.491   5.258   7.289  2.0245 -2.0903  2.4909
  292MOL0     H39364  11.330   5.207   7.241  1.1593  1.9569 -2.1054
  292MOL0     H39365  11.359   4.983   7.342  2.1508 -1.5118  1.7362
  292MOL0     H39366  11.525   5.017   7.382 -0.0283  0.0295  0.0821
  292MOL0     H39367  11.294   5.151   7.505 -0.9722 -2.3049  2.8387
  292MOL0     H39368  11.463   5.222   7.503 -2.5417  1.1584 -1.5569
  292MOL0     H39369  11.525   5.015   7.622  0.3291 -1.0624 -0.7340
  292MOL0     H39370  11.416   5.113   7.711  0.7713  1.4733 -1.3695
  292MOL0     H39371  11.122   5.011   7.662 -0.0004  0.1459 -0.2283
  292MOL0     H39372  11.037   4.626   7.702  0.5590 -1.0872  0.2820
  292MOL0     H39373  11.045   4.721   7.854 -1.6516 -0.1198 -0.1742
  292MOL0     H39374  10.928   4.905   7.739  1.7527  1.2636 -2.5088
  292MOL0     H39375  10.908   4.813   7.595  1.7330  2.8798 -0.2434
  292MOL0     H39376  10.785   4.702   7.846 -0.1107 -0.9161 -1.0154
  292MOL0     H39377  10.765   4.656   7.677 -1.1304 -2.8405  2.3455
  292MOL0     H39378  10.689   4.929   7.766  1.7251 -0.2042 -0.2168
  292MOL0     H39379  10.574   4.795   7.776  0.0351 -2.8474 -2.8301
  292MOL0     H39380  10.585   4.907   7.340 -0.5365 -0.1789  0.3809
  292MOL0     H39381  10.440   5.087   7.254 -3.3138 -1.1450  0.1293
  292MOL0     H39382  10.143   5.520   7.289 -0.3636 -0.2282  0.0605
  292MOL0     H39383   9.975   5.615   7.154 -0.2667 -0.7817  1.9810
  292MOL0     H39384   9.904   5.427   6.738  0.4669  1.7463  0.0757
  292MOL0     H39385   9.767   5.389   6.861 -1.6958  1.3518  0.8569
  292MOL0     H39386   9.799   5.662   6.732  3.1437 -1.8004 -0.8257
  292MOL0     H39387   9.744   5.512   6.642  0.4331 -3.2739  2.3790
  292MOL0     H39388   9.543   5.491   6.778 -0.5703  0.5071  0.3964
  292MOL0     H39389   9.620   5.577   6.913  1.2668  2.0809 -0.3098
  292MOL0     H39390   9.516   5.724   6.667  0.4931  1.6646  0.9995
  292MOL0     H39391   9.545   5.792   6.819 -0.0825  2.2094 -2.1580
  292MOL0     H39392   9.376   5.699   6.942 -3.2392  1.6161  0.4315
  292MOL0     H39393   9.339   5.598   6.791 -1.8821  0.9797  1.1273
  292MOL0     H39394   9.337   5.894   6.801 -1.2939  1.2047  0.6988
  292MOL0     H39395   9.289   5.783   6.664  3.8792 -0.9326 -0.3586
  292MOL0     H39396   9.165   5.786   6.949 -2.0266 -1.7465  1.0922
  292MOL0     H39397   9.092   5.704   6.803  0.7247 -0.2156 -0.4292
  292MOL0     H39398   9.114   6.007   6.806 -0.3213  0.2749 -0.3895
  292MOL0     H39399   9.065   5.897   6.674 -3.6859  1.1093 -0.1956
  292MOL0     H39400  10.002   5.280   6.879  1.4084  0.5806 -0.1637
  292MOL0     H39401  10.192   5.197   7.013  0.6021  0.2936 -0.0783
  292MOL0     H39402  10.340   5.197   7.644  1.9098  2.1260 -0.6452
  292MOL0     H39403  10.446   5.019   7.744 -0.9064  0.5561  0.0882
  292MOL0     H39404  11.028   4.991   6.685 -0.2210 -0.4642  1.4429
  292MOL0     H39405  10.870   4.861   6.570  1.0263  0.9293 -0.4154
  292MOL0     H39406  10.647   4.509   6.513  1.5356  2.2469 -2.4896
  292MOL0     H39407  10.477   4.342   6.464 -2.5594  3.0891 -3.4439
  292MOL0     H39408  10.312   4.312   6.291 -1.7940  1.0169  0.0459
  292MOL0     H39409  10.316   4.140   6.332  3.2236  2.0516  2.4962
  292MOL0     H39410  10.312   4.077   6.084 -0.5160 -0.1292  0.0705
  292MOL0     H39411  10.303   4.245   6.050  1.0397  0.8823  1.4469
  292MOL0     H39412  10.062   4.258   6.156 -0.7154  1.5458 -0.9243
  292MOL0     H39413  10.089   4.098   6.215 -1.0572  4.0116  1.7933
  292MOL0     H39414  10.107   4.008   5.983  0.3618 -0.0943  1.5026
  292MOL0     H39415   9.951   4.080   6.015 -0.6255  0.2376 -0.9039
  292MOL0     H39416  10.021   4.372   5.753 -2.9753 -0.9892  1.5776
  292MOL0     H39417  10.724   4.202   6.138 -1.8203  0.4012  0.1528
  292MOL0     H39418  10.935   4.257   6.116  2.5668  1.8474 -2.9885
  292MOL0     H39419  10.963   4.432   6.123  3.8586 -0.4287  0.2680
  292MOL0     H39420  11.022   4.319   6.248  0.9830  0.5377 -0.4858
  293MOL0     O39421   5.059   7.380   6.835  0.4510  1.0670 -0.1631
  293MOL0     C39422   5.079   7.268   6.784 -0.9678  0.1259 -0.6597
  293MOL0     O39423   5.204   7.215   6.770  0.0263 -0.3582  0.3177
  293MOL0     C39424   5.316   7.293   6.780  0.4015 -1.0430  0.6951
  293MOL0     C39425   5.405   7.258   6.876  0.0802 -0.1431  0.0291
  293MOL0     C39426   5.515   7.351   6.902  0.9977 -0.1118  0.4675
  293MOL0     C39427   5.541   7.459   6.820  0.5846 -0.5271 -0.2652
  293MOL0     O39428   5.629   7.550   6.869 -0.8709 -1.1613  0.1311
  293MOL0     C39429   5.666   7.664   6.784  0.0884  0.4464  0.9009
  293MOL0     C39430   5.747   7.762   6.873  0.9145 -0.3751 -0.2081
  293MOL0     C39431   5.867   7.691   6.939 -0.3908 -0.3465  0.3430
  293MOL0     C39432   5.958   7.806   6.997 -0.2940  0.1241  0.3332
  293MOL0     C39433   6.067   7.725   7.069  0.1947  0.4124  0.1783
  293MOL0     C39434   6.154   7.827   7.150  0.0586 -0.2287 -0.2811
  293MOL0     C39435   6.224   7.938   7.064 -0.5652  0.2038 -1.2915
  293MOL0     C39436   6.355   7.888   7.019  0.1063 -0.5498  0.1240
  293MOL0     N39437   6.459   7.860   7.113  0.3882  0.3484 -0.6759
  293MOL0     C39438   6.473   7.890   7.245  0.4265 -0.1056 -0.4083
  293MOL0     C39439   6.598   7.848   7.285  0.6896  0.4057 -0.3484
  293MOL0     C39440   6.670   7.884   7.414  0.0439 -0.0093 -0.0365
  293MOL0     C39441   6.808   7.945   7.394 -0.4077  0.0831  0.2504
  293MOL0     C39442   6.882   7.970   7.532  0.2262 -0.4432  0.0612
  293MOL0     C39443   6.938   7.839   7.583  0.2568 -0.5168 -0.5399
  293MOL0     O39444   7.029   7.771   7.489  0.0563  0.6764 -0.3646
  293MOL0     C39445   7.164   7.780   7.519 -0.4141 -0.2783  0.3747
  293MOL0     C39446   7.251   7.684   7.447 -0.2596 -0.5028 -0.8612
  293MOL0     C39447   7.391   7.703   7.456 -0.2314 -0.0661 -0.2007
  293MOL0     C39448   7.449   7.813   7.516  0.1951 -0.0134 -0.1756
  293MOL0     C39449   7.599   7.816   7.530  0.7782 -1.0843  0.5188
  293MOL0     O39450   7.650   7.943   7.558 -0.2759  0.2694  0.2203
  293MOL0     C39451   7.782   7.957   7.560  0.2659  0.8240 -0.1900
  293MOL0     C39452   7.845   7.901   7.674 -0.2539 -0.1172 -0.3335
  293MOL0     C39453   7.986   7.892   7.690 -0.8954 -0.6269  0.1898
  293MOL0     C39454   8.070   7.941   7.591  0.8046 -0.0765  0.4778
  293MOL0     O39455   8.202   7.950   7.599  0.4610 -0.8616  0.7336
  293MOL0     C39456   8.258   7.998   7.723  0.1609  0.0139 -0.8248
  293MOL0     C39457   8.349   7.879   7.772  0.0811 -0.6250  0.2772
  293MOL0     C39458   8.274   7.750   7.776  0.3415 -0.3118  0.4999
  293MOL0     C39459   8.378   7.635   7.800  0.0321  0.2135 -0.6101
  293MOL0     C39460   8.461   7.641   7.933 -0.4227 -0.1717  0.0221
  293MOL0     C39461   8.545   7.511   7.947 -0.2373  0.3321 -0.0201
  293MOL0     C39462   8.653   7.524   8.054  0.1603  0.1166 -0.4292
  293MOL0     C39463   8.745   7.406   8.061 -0.8525  0.1060 -0.4159
  293MOL0    Cl39464   8.673   7.245   8.076 -0.5180 -0.0013  0.1361
  293MOL0     C39465   8.006   8.004   7.484  0.0260  1.0268  0.9843
  293MOL0     C39466   7.867   8.012   7.460 -0.0744 -0.9222 -0.2777
  293MOL0     O39467   7.665   7.715   7.484 -0.3790 -0.2480 -0.2164
  293MOL0     C39468   7.366   7.907   7.585 -0.6000  0.2035 -0.4600
  293MOL0     C39469   7.231   7.889   7.582  0.0610 -0.5187 -0.3973
  293MOL0     N39470   6.654   7.785   7.173 -0.4710  0.3425  0.3897
  293MOL0     N39471   6.571   7.795   7.072 -0.1607 -0.0640  0.5377
  293MOL0     C39472   5.442   7.484   6.719  0.7643 -0.2785 -0.6560
  293MOL0     C39473   5.332   7.407   6.694  0.8050  0.0550 -0.5296
  293MOL0     C39474   4.971   7.169   6.772 -0.0607  0.0923  0.5623
  293MOL0     C39475   4.845   7.203   6.836  0.4426 -0.5654 -1.2470
  293MOL0     C39476   4.729   7.138   6.799  0.4005 -0.5637 -0.2900
  293MOL0     C39477   4.727   7.032   6.705 -0.3755 -0.2657 -0.2879
  293MOL0     O39478   4.613   6.959   6.672  0.1332 -0.3887  0.1762
  293MOL0     C39479   4.492   6.993   6.740 -0.0880  0.7970 -0.7156
  293MOL0     C39480   4.379   6.926   6.674  0.2840 -0.2466 -0.1832
  293MOL0     C39481   4.246   6.990   6.732  0.3512 -0.2245 -0.9092
  293MOL0     C39482   4.131   6.925   6.655 -0.0177 -0.2197 -0.6186
  293MOL0     C39483   4.004   6.973   6.699  1.2383 -0.2057 -0.7884
  293MOL0     C39484   3.902   7.035   6.739 -0.4963 -0.2053  0.4234
  293MOL0     C39485   4.847   6.997   6.642  0.4930 -0.7835 -0.5695
  293MOL0     C39486   4.971   7.063   6.671  0.8743 -0.7077  0.0498
  293MOL0     C39487   5.074   7.038   6.563  0.3033 -0.2014 -0.1496
  293MOL0     H39488   5.395   7.159   6.920  1.1361 -0.8748 -1.2877
  293MOL0     H39489   5.581   7.343   6.988  2.2801  0.2132 -0.4622
  293MOL0     H39490   5.718   7.631   6.694 -0.4987  4.2413 -1.0043
  293MOL0     H39491   5.580   7.717   6.742  0.3706 -1.3629 -2.2517
  293MOL0     H39492   5.685   7.790   6.959 -1.9680  0.4374 -2.3969
  293MOL0     H39493   5.770   7.849   6.811  1.3275 -1.2951 -1.4043
  293MOL0     H39494   5.911   7.632   6.857  1.8403 -1.2261  2.0786
  293MOL0     H39495   5.841   7.617   7.015 -0.4359  0.6727  1.3481
  293MOL0     H39496   5.992   7.874   6.919 -4.0397 -0.0155 -1.6416
  293MOL0     H39497   5.899   7.875   7.059 -2.1563  1.8489 -3.0722
  293MOL0     H39498   6.022   7.667   7.150  4.3468  1.5087  3.6344
  293MOL0     H39499   6.125   7.660   7.002  2.0228 -1.3105  3.2123
  293MOL0     H39500   6.081   7.874   7.217 -1.0162 -0.3137 -1.3602
  293MOL0     H39501   6.230   7.777   7.211 -0.9409 -0.2003  1.0281
  293MOL0     H39502   6.229   8.016   7.140 -1.7533 -0.8785 -0.0511
  293MOL0     H39503   6.169   7.981   6.980 -1.4027  2.9893  0.5666
  293MOL0     H39504   6.350   7.814   6.939 -0.3875 -0.5042  0.1095
  293MOL0     H39505   6.403   7.973   6.970 -2.3064 -0.6547 -2.6839
  293MOL0     H39506   6.398   7.941   7.305  0.2774  0.0152 -0.6894
  293MOL0     H39507   6.601   7.944   7.474  1.9744 -0.0168  2.3347
  293MOL0     H39508   6.689   7.795   7.474  0.3469 -0.9435 -1.4542
  293MOL0     H39509   6.866   7.876   7.332 -1.0219  1.2663 -1.7431
  293MOL0     H39510   6.797   8.041   7.342 -0.1969 -0.8241 -1.5579
  293MOL0     H39511   6.804   8.012   7.595  0.2623  0.9187 -0.7769
  293MOL0     H39512   6.955   8.050   7.520 -1.7483  1.2791 -1.1330
  293MOL0     H39513   6.858   7.770   7.610 -0.2941  0.3508  0.1123
  293MOL0     H39514   6.988   7.866   7.677 -1.0481 -1.1390  0.3499
  293MOL0     H39515   7.200   7.602   7.397 -1.2259 -1.0717  0.9699
  293MOL0     H39516   7.452   7.642   7.390 -3.1196  1.1669 -4.4006
  293MOL0     H39517   7.790   7.863   7.760  0.6950 -0.8041 -0.0144
  293MOL0     H39518   8.031   7.850   7.779  0.6290  0.6732  0.0682
  293MOL0     H39519   8.311   8.091   7.700 -1.7938  0.8558 -2.2143
  293MOL0     H39520   8.179   8.026   7.794  2.7932  4.0202  0.9029
  293MOL0     H39521   8.422   7.868   7.690  0.9813  2.1046  0.6367
  293MOL0     H39522   8.389   7.908   7.869  0.8323 -0.4650 -0.0654
  293MOL0     H39523   8.219   7.746   7.871  2.3505  0.1722  1.7578
  293MOL0     H39524   8.210   7.737   7.689 -1.9780 -2.5786  2.3818
  293MOL0     H39525   8.452   7.636   7.718  2.0400 -2.6266  0.9791
  293MOL0     H39526   8.340   7.533   7.806  0.3385  0.0855 -0.8129
  293MOL0     H39527   8.389   7.654   8.014 -1.2098  0.7295 -0.7985
  293MOL0     H39528   8.530   7.725   7.930  0.5708 -0.9539  0.3134
  293MOL0     H39529   8.486   7.421   7.970  0.9367 -0.3037  0.5968
  293MOL0     H39530   8.594   7.490   7.852 -1.3530  0.5887 -0.6626
  293MOL0     H39531   8.605   7.537   8.151 -0.2202 -0.6611 -0.5015
  293MOL0     H39532   8.718   7.610   8.036  0.0510  0.4389  0.6617
  293MOL0     H39533   8.815   7.407   7.976 -1.4201 -2.0215 -0.9510
  293MOL0     H39534   8.799   7.409   8.156 -1.2579 -2.7058 -0.0089
  293MOL0     H39535   8.062   8.046   7.401 -1.6231  1.1874 -0.0932
  293MOL0     H39536   7.827   8.061   7.371  2.2126 -2.1678 -2.0943
  293MOL0     H39537   7.409   7.996   7.631 -1.6308  0.4300  0.0997
  293MOL0     H39538   7.174   7.971   7.625  2.5127  0.5473  1.0046
  293MOL0     H39539   5.446   7.584   6.677 -0.3137  1.3716  2.7934
  293MOL0     H39540   5.254   7.430   6.622 -2.3567  0.8947  2.8024
  293MOL0     H39541   4.847   7.289   6.903  2.7603 -0.3476 -1.4980
  293MOL0     H39542   4.641   7.169   6.855  0.4070  1.4290 -1.3209
  293MOL0     H39543   4.467   7.097   6.716  1.3903  1.5203  0.7076
  293MOL0     H39544   4.502   6.981   6.848  1.5835  0.1219 -0.9240
  293MOL0     H39545   4.372   6.822   6.706 -0.6303 -0.3015 -0.5296
  293MOL0     H39546   4.382   6.940   6.566 -1.3713  3.4079  0.0802
  293MOL0     H39547   4.238   7.098   6.744  1.2976 -0.3274  1.2062
  293MOL0     H39548   4.235   6.950   6.833 -1.2965  1.2442 -0.4635
  293MOL0     H39549   4.135   6.950   6.548  1.0024 -2.9382 -1.2905
  293MOL0     H39550   4.125   6.817   6.668  2.4130 -0.1983  1.4317
  293MOL0     H39551   3.814   7.093   6.762 -0.6143  0.2362 -1.0015
  293MOL0     H39552   4.854   6.924   6.562  1.8036 -0.8434 -0.4078
  293MOL0     H39553   5.171   7.028   6.613  0.0781 -0.6314  0.2011
  293MOL0     H39554   5.057   6.946   6.506 -1.6028  0.4062 -0.6392
  293MOL0     H39555   5.072   7.118   6.488 -0.0919 -0.8077 -0.8019
  294MOL0     O39556   5.246   4.208   4.685 -0.8781  0.8799  0.2012
  294MOL0     C39557   5.194   4.114   4.623 -0.1784  0.1087  0.0735
  294MOL0     O39558   5.247   3.993   4.592  0.0329  0.3455  0.3170
  294MOL0     C39559   5.382   3.962   4.640 -0.2340 -0.8998  0.9173
  294MOL0     C39560   5.425   3.841   4.591  0.4262  0.7279 -0.6174
  294MOL0     C39561   5.556   3.798   4.610  0.0259 -0.4435  0.4937
  294MOL0     C39562   5.645   3.872   4.676 -0.3823  0.0364 -0.9288
  294MOL0     O39563   5.774   3.841   4.701  0.3853 -0.3287 -0.1989
  294MOL0     C39564   5.849   3.790   4.589 -0.2178 -0.0711 -0.5618
  294MOL0     C39565   5.983   3.734   4.645  0.3281 -0.2879 -0.0258
  294MOL0     C39566   6.059   3.835   4.728 -1.2675 -0.2865 -0.1407
  294MOL0     C39567   6.204   3.785   4.754  0.1485  0.0155 -0.3929
  294MOL0     C39568   6.293   3.906   4.789 -0.2998  0.0508 -0.6918
  294MOL0     C39569   6.441   3.897   4.746  0.0125  0.0138 -0.4172
  294MOL0     C39570   6.511   3.776   4.825  0.5715 -1.4271  0.3484
  294MOL0     C39571   6.661   3.773   4.774  0.1070  0.2997  0.4244
  294MOL0     N39572   6.663   3.750   4.627  0.1921 -0.1192  0.1368
  294MOL0     C39573   6.591   3.657   4.555 -1.1748  0.3861  0.8650
  294MOL0     C39574   6.645   3.667   4.429 -0.3262 -0.0968  0.6895
  294MOL0     C39575   6.587   3.592   4.311  0.3583  0.1760 -0.2834
  294MOL0     C39576   6.553   3.684   4.189  0.4580 -0.0915  0.1888
  294MOL0     C39577   6.456   3.789   4.238  0.0680 -0.6036  0.2368
  294MOL0     C39578   6.456   3.910   4.142 -0.6225  0.0964  0.0042
  294MOL0     O39579   6.393   3.874   4.014 -0.6791  0.8585  0.3931
  294MOL0     C39580   6.387   3.977   3.921  0.8138  0.7460  0.3314
  294MOL0     C39581   6.317   3.947   3.799  0.5662 -0.3399  0.6687
  294MOL0     C39582   6.335   4.031   3.683 -0.5500  0.1486  0.1115
  294MOL0     C39583   6.399   4.159   3.706  0.2662 -0.7022  1.0117
  294MOL0     C39584   6.429   4.250   3.592 -0.8981 -0.1091 -0.7765
  294MOL0     O39585   6.523   4.353   3.602 -0.1482 -0.3343 -0.2780
  294MOL0     C39586   6.555   4.419   3.483  0.3818  0.2882 -0.0683
  294MOL0     C39587   6.458   4.476   3.394  0.1121 -0.3424 -0.4487
  294MOL0     C39588   6.509   4.547   3.281 -0.6417 -0.1499 -0.3898
  294MOL0     C39589   6.651   4.565   3.265  0.7799  0.5131  0.7499
  294MOL0     O39590   6.703   4.614   3.149 -0.2086  0.1545  0.0923
  294MOL0     C39591   6.619   4.673   3.045  0.7061 -1.0947  0.6508
  294MOL0     C39592   6.695   4.710   2.915  0.9250  0.3477  0.4193
  294MOL0     C39593   6.828   4.773   2.948  0.5235 -0.2324  0.1983
  294MOL0     C39594   6.933   4.726   2.855  0.4070 -0.7860  0.4319
  294MOL0     C39595   7.076   4.781   2.876  0.1380 -1.2282 -0.0261
  294MOL0     C39596   7.073   4.936   2.878  0.5405  0.6477 -0.9363
  294MOL0     C39597   7.221   5.005   2.865  0.4122  0.4762 -0.5971
  294MOL0     C39598   7.278   5.052   2.999 -0.3625 -0.4651  0.0248
  294MOL0    Cl39599   7.447   5.104   3.009 -0.4789 -0.0476 -0.1962
  294MOL0     C39600   6.735   4.517   3.359  0.4902 -0.4153  0.2022
  294MOL0     C39601   6.692   4.444   3.467  0.1605 -0.0699 -0.3950
  294MOL0     O39602   6.382   4.210   3.488  0.0692  0.2492  0.6409
  294MOL0     C39603   6.445   4.191   3.833  0.3941  0.3383  0.2446
  294MOL0     C39604   6.444   4.102   3.938 -0.1556 -0.5957 -0.1201
  294MOL0     N39605   6.757   3.752   4.425  0.6843 -0.3595 -0.6319
  294MOL0     N39606   6.752   3.810   4.540  0.9274 -0.5213 -0.1842
  294MOL0     C39607   5.600   3.990   4.740  0.3959  0.4464  0.5262
  294MOL0     C39608   5.468   4.036   4.718  0.1083 -0.5136 -0.1810
  294MOL0     C39609   5.060   4.143   4.560 -0.1735 -0.5598 -0.1006
  294MOL0     C39610   5.053   4.265   4.485  0.7902  0.3728 -0.1600
  294MOL0     C39611   4.927   4.300   4.433 -0.6391 -0.3020  0.4700
  294MOL0     C39612   4.817   4.222   4.443  0.1239 -0.2938 -0.2411
  294MOL0     O39613   4.712   4.263   4.375  0.0992 -0.6734  0.3381
  294MOL0     C39614   4.596   4.272   4.463  0.4148  0.3878 -0.3194
  294MOL0     C39615   4.591   4.408   4.546 -0.1571 -0.2922 -0.3261
  294MOL0     C39616   4.458   4.426   4.623 -0.4431  0.3399 -0.1263
  294MOL0     C39617   4.456   4.325   4.739  0.0781 -0.4126  0.0261
  294MOL0     C39618   4.328   4.337   4.810  0.1691 -0.4158  0.2875
  294MOL0     C39619   4.213   4.356   4.849 -1.1532 -0.0480  0.3453
  294MOL0     C39620   4.827   4.099   4.511 -0.0415  0.5542  0.9108
  294MOL0     C39621   4.948   4.054   4.569 -0.1335  0.2849 -0.7886
  294MOL0     C39622   4.952   3.921   4.647  0.0217 -0.7743 -0.2845
  294MOL0     H39623   5.338   3.789   4.553  0.6309 -1.4782  1.6827
  294MOL0     H39624   5.591   3.701   4.576  2.9238 -0.1715  2.2836
  294MOL0     H39625   5.790   3.709   4.544  0.2903 -0.7544 -0.0154
  294MOL0     H39626   5.864   3.866   4.512  1.9718 -1.7811 -1.9748
  294MOL0     H39627   6.036   3.693   4.558 -0.1030  0.7763 -0.8103
  294MOL0     H39628   5.957   3.647   4.706  2.4870 -0.8688  0.1571
  294MOL0     H39629   6.023   3.840   4.831 -2.9482 -3.5705 -0.4238
  294MOL0     H39630   6.055   3.932   4.676 -2.2791 -0.6940 -0.8734
  294MOL0     H39631   6.202   3.719   4.841  1.9933  0.9897  0.4393
  294MOL0     H39632   6.246   3.741   4.663  0.6685 -2.1132  0.8165
  294MOL0     H39633   6.259   4.003   4.749 -0.3778 -0.2328 -1.3323
  294MOL0     H39634   6.285   3.897   4.897  1.1446 -1.5961 -0.6908
  294MOL0     H39635   6.447   3.889   4.637 -0.8512 -0.9933 -0.4075
  294MOL0     H39636   6.497   3.984   4.781  0.6309  0.0043 -1.3347
  294MOL0     H39637   6.452   3.687   4.805 -0.9813 -0.1313 -1.1381
  294MOL0     H39638   6.505   3.804   4.931 -1.2625  0.8955 -0.2818
  294MOL0     H39639   6.698   3.871   4.806 -0.0363  0.2290  0.8159
  294MOL0     H39640   6.707   3.687   4.825  0.8095 -1.0554 -2.3095
  294MOL0     H39641   6.512   3.597   4.600 -0.0123 -0.7582  1.4440
  294MOL0     H39642   6.660   3.514   4.284  0.1746  0.9887 -3.6493
  294MOL0     H39643   6.513   3.521   4.346 -0.0861  0.4259 -0.7001
  294MOL0     H39644   6.645   3.739   4.169 -0.1133  0.3342 -1.4139
  294MOL0     H39645   6.518   3.624   4.105 -0.2977  0.3103  0.2084
  294MOL0     H39646   6.466   3.822   4.342 -0.7058 -3.8275  1.4554
  294MOL0     H39647   6.366   3.727   4.225  1.8935 -3.0256 -1.6921
  294MOL0     H39648   6.555   3.955   4.133  1.7447 -4.2903  1.1656
  294MOL0     H39649   6.400   3.995   4.181  1.5731  0.8138  1.8351
  294MOL0     H39650   6.269   3.853   3.775 -1.6672  0.6587  0.9355
  294MOL0     H39651   6.289   3.997   3.591 -2.4768  0.8438  0.7683
  294MOL0     H39652   6.351   4.465   3.407  0.4077 -0.8856  1.8816
  294MOL0     H39653   6.437   4.580   3.207 -0.0145 -0.9600 -1.3822
  294MOL0     H39654   6.533   4.616   3.010 -0.1438  0.4226  0.1833
  294MOL0     H39655   6.591   4.772   3.081 -0.5975 -1.5107  0.8011
  294MOL0     H39656   6.709   4.614   2.864 -1.4704 -2.0316  3.7879
  294MOL0     H39657   6.638   4.771   2.844  0.1799  0.1341  0.8224
  294MOL0     H39658   6.815   4.881   2.939  1.2632 -0.2113 -0.7225
  294MOL0     H39659   6.860   4.747   3.049 -2.2656 -1.9951  0.7472
  294MOL0     H39660   6.903   4.762   2.756 -2.0215 -0.5528  1.1968
  294MOL0     H39661   6.949   4.618   2.851  0.8774 -0.6970 -0.3900
  294MOL0     H39662   7.129   4.760   2.783  3.9924  2.8174  0.9076
  294MOL0     H39663   7.125   4.735   2.962  0.9021 -2.0303 -0.8811
  294MOL0     H39664   7.022   4.972   2.788  4.7711  1.2521 -3.3833
  294MOL0     H39665   7.015   4.968   2.965  0.5556  0.7822 -0.9748
  294MOL0     H39666   7.217   5.092   2.798 -2.2037  1.4132  0.6341
  294MOL0     H39667   7.295   4.937   2.823  0.7753 -0.1004  0.9218
  294MOL0     H39668   7.213   5.120   3.055 -1.4853 -0.2740 -1.4209
  294MOL0     H39669   7.284   4.957   3.052 -1.3777 -0.1807  0.6802
  294MOL0     H39670   6.842   4.533   3.350  0.2058  1.5590 -0.1378
  294MOL0     H39671   6.768   4.401   3.531 -1.0447 -0.1493  1.0458
  294MOL0     H39672   6.476   4.292   3.857 -1.4383  0.3934  2.8640
  294MOL0     H39673   6.481   4.135   4.035 -0.5687 -2.0788  0.5564
  294MOL0     H39674   5.672   4.049   4.796 -0.4547  0.4348  1.6681
  294MOL0     H39675   5.437   4.131   4.760 -1.4430 -0.2703 -1.7693
  294MOL0     H39676   5.149   4.315   4.478  0.1400  1.5567 -0.7121
  294MOL0     H39677   4.920   4.391   4.375 -4.6839 -0.0900  1.0286
  294MOL0     H39678   4.592   4.184   4.527  1.0940  0.7120  0.1891
  294MOL0     H39679   4.515   4.260   4.390  2.3280 -2.0854 -2.2087
  294MOL0     H39680   4.611   4.497   4.486  0.4638  1.0556  1.7903
  294MOL0     H39681   4.672   4.403   4.619  0.5160 -0.3056 -1.0665
  294MOL0     H39682   4.367   4.414   4.563 -1.1814  1.6444  0.7000
  294MOL0     H39683   4.462   4.531   4.651 -0.3797  0.5478 -0.8737
  294MOL0     H39684   4.465   4.220   4.709 -2.2889 -0.3695 -1.0349
  294MOL0     H39685   4.533   4.349   4.812  0.2780 -3.5991  1.0100
  294MOL0     H39686   4.112   4.363   4.886 -0.7569 -0.2099  1.5053
  294MOL0     H39687   4.737   4.038   4.507  0.9966 -1.0206 -3.1034
  294MOL0     H39688   5.053   3.904   4.687  0.6905 -1.5858 -2.1923
  294MOL0     H39689   4.875   3.940   4.722 -0.5577 -0.7685 -0.8670
  294MOL0     H39690   4.922   3.834   4.588 -0.4450  1.0621 -2.9807
  295MOL0     O39691   6.900   2.915   8.412  0.0905  0.2443 -0.4912
  295MOL0     C39692   6.873   3.036   8.428 -0.4546 -0.2794 -0.8327
  295MOL0     O39693   6.938   3.115   8.522 -0.7687  0.2430 -0.0111
  295MOL0     C39694   7.066   3.080   8.559 -0.7421 -0.2780  0.2344
  295MOL0     C39695   7.084   2.969   8.639 -1.1034  0.1043  0.2478
  295MOL0     C39696   7.210   2.940   8.698 -0.7700 -0.0003 -0.6006
  295MOL0     C39697   7.317   3.006   8.658  0.7455  0.6798  0.1871
  295MOL0     O39698   7.439   2.949   8.711 -0.4277  0.8353 -0.2579
  295MOL0     C39699   7.545   2.927   8.618 -0.8212 -0.2146 -0.9182
  295MOL0     C39700   7.677   2.881   8.674  0.6555  0.4049 -0.6279
  295MOL0     C39701   7.793   2.870   8.575  0.8787 -0.0236 -0.5839
  295MOL0     C39702   7.866   3.004   8.563 -0.2159  0.5454 -0.8048
  295MOL0     C39703   7.931   3.056   8.698  0.6235 -0.8432  0.8872
  295MOL0     C39704   7.990   2.942   8.775 -0.5783  0.3265 -0.0255
  295MOL0     C39705   8.069   3.002   8.889  0.2449 -0.8235 -0.2320
  295MOL0     C39706   7.985   3.075   8.998 -0.6424  0.0319 -0.8388
  295MOL0     N39707   8.060   3.109   9.121  0.3867  0.0158  0.5495
  295MOL0     C39708   8.177   3.058   9.166 -0.0346 -0.1431  0.1474
  295MOL0     C39709   8.205   3.136   9.280 -0.4898  0.6121 -0.0833
  295MOL0     C39710   8.327   3.127   9.368 -0.9095 -0.2588 -0.8306
  295MOL0     C39711   8.391   3.260   9.385  1.0341 -0.1529 -0.3603
  295MOL0     C39712   8.504   3.252   9.495  0.0441 -0.1555  0.4307
  295MOL0     C39713   8.581   3.381   9.483 -0.1546  0.0990  0.3433
  295MOL0     O39714   8.651   3.376   9.353 -0.5281 -0.4610 -0.2648
  295MOL0     C39715   8.780   3.425   9.350  0.2330 -0.2686  0.6038
  295MOL0     C39716   8.817   3.538   9.422 -0.7057  0.0105 -0.3070
  295MOL0     C39717   8.954   3.581   9.419 -0.1070  0.4545  0.0228
  295MOL0     C39718   9.052   3.507   9.348  0.7270 -1.0252 -0.1791
  295MOL0     C39719   9.194   3.544   9.359 -0.9485 -0.3319 -0.0532
  295MOL0     O39720   9.278   3.500   9.265 -0.2830  0.8387  0.4149
  295MOL0     C39721   9.417   3.479   9.276  0.1570  0.5125 -0.6427
  295MOL0     C39722   9.461   3.371   9.350 -0.6478  0.7705 -0.8642
  295MOL0     C39723   9.594   3.350   9.381 -0.2630  1.3483  0.0093
  295MOL0     C39724   9.688   3.435   9.329 -0.3051 -0.2377  0.5541
  295MOL0     O39725   9.828   3.426   9.327  1.0177 -0.0746  0.0880
  295MOL0     C39726   9.887   3.291   9.351  0.4888  0.3438 -0.4533
  295MOL0     C39727  10.042   3.301   9.330  0.0318 -0.7319  0.3942
  295MOL0     C39728  10.124   3.187   9.407  0.2312 -0.4340 -0.0419
  295MOL0     C39729  10.263   3.168   9.357 -0.7681  0.7538 -0.5458
  295MOL0     C39730  10.362   3.282   9.414 -0.7820 -0.1137 -0.3803
  295MOL0     C39731  10.349   3.298   9.564 -0.5158 -0.3381 -0.2092
  295MOL0     C39732  10.467   3.378   9.633  0.3471  0.6375  1.1644
  295MOL0     C39733  10.462   3.363   9.783  0.6259 -0.4298 -1.1127
  295MOL0    Cl39734  10.312   3.436   9.862 -0.0647  0.0617 -0.3467
  295MOL0     C39735   9.638   3.550   9.258 -0.4330  0.0639  0.8977
  295MOL0     C39736   9.510   3.568   9.225  0.0324 -0.3366  0.9232
  295MOL0     O39737   9.241   3.611   9.447 -0.5356  0.8941 -0.2775
  295MOL0     C39738   9.010   3.401   9.272 -0.8216  0.3045  0.3960
  295MOL0     C39739   8.878   3.360   9.272  0.2431  1.2769 -0.0410
  295MOL0     N39740   8.101   3.223   9.302 -0.1476 -0.3770  0.8572
  295MOL0     N39741   8.017   3.209   9.200  0.4795  0.0771 -1.1527
  295MOL0     C39742   7.302   3.128   8.582 -0.1924 -0.7721 -0.3835
  295MOL0     C39743   7.178   3.165   8.535  1.1686 -0.2595 -0.0906
  295MOL0     C39744   6.741   3.078   8.388 -0.4611  0.3709 -0.0290
  295MOL0     C39745   6.644   2.978   8.385 -0.4523 -0.9443 -0.1941
  295MOL0     C39746   6.517   3.010   8.345  0.0989 -0.5279 -0.2373
  295MOL0     C39747   6.479   3.147   8.322  0.1277  0.1129 -0.0131
  295MOL0     O39748   6.349   3.183   8.296 -1.0554 -0.4291  0.4820
  295MOL0     C39749   6.233   3.125   8.366  0.1684  0.4722  0.6271
  295MOL0     C39750   6.148   3.237   8.431 -0.7580  0.7667  0.4072
  295MOL0     C39751   6.150   3.368   8.349  0.2965  0.8942  0.1468
  295MOL0     C39752   6.092   3.479   8.430 -1.0307 -1.1059  0.4313
  295MOL0     C39753   5.947   3.496   8.423  0.5733  0.1552 -0.5300
  295MOL0     C39754   5.829   3.519   8.435  0.4528  0.2831 -0.6101
  295MOL0     C39755   6.577   3.245   8.324  0.4437 -0.1672  0.0780
  295MOL0     C39756   6.705   3.212   8.362 -1.0326 -0.6293  0.1402
  295MOL0     C39757   6.801   3.325   8.340 -0.6417  0.6693 -0.2874
  295MOL0     H39758   6.995   2.914   8.670 -0.6825  0.0935  1.5020
  295MOL0     H39759   7.220   2.856   8.766  1.7474  1.3577  0.8937
  295MOL0     H39760   7.519   2.862   8.534  2.9760  1.4464 -3.6534
  295MOL0     H39761   7.563   3.018   8.560  0.2574 -1.5929 -2.8951
  295MOL0     H39762   7.663   2.777   8.707 -0.1016  0.9832  0.9694
  295MOL0     H39763   7.695   2.934   8.768 -0.6099  1.0580 -0.7350
  295MOL0     H39764   7.758   2.839   8.476  0.9353 -0.8825 -0.3416
  295MOL0     H39765   7.857   2.794   8.621  1.3488 -1.1301 -2.9044
  295MOL0     H39766   7.947   2.974   8.495 -1.9249 -4.0905 -1.1310
  295MOL0     H39767   7.806   3.088   8.528 -2.8819 -1.3691 -1.0821
  295MOL0     H39768   7.999   3.138   8.672 -1.6130  1.7952  2.8497
  295MOL0     H39769   7.850   3.098   8.758  1.0261 -0.2811  1.0436
  295MOL0     H39770   7.908   2.885   8.821 -0.8460 -0.7722 -1.7763
  295MOL0     H39771   8.058   2.889   8.709 -0.1967  0.0844  0.5560
  295MOL0     H39772   8.143   3.071   8.849  0.2301 -0.2494  0.6993
  295MOL0     H39773   8.116   2.914   8.934  0.2764  0.2763  1.9950
  295MOL0     H39774   7.926   3.161   8.964 -0.6184  0.0319 -0.8805
  295MOL0     H39775   7.913   3.000   9.032  0.5737 -0.4840  0.7548
  295MOL0     H39776   8.236   2.975   9.126  0.2992  0.1727 -0.0211
  295MOL0     H39777   8.287   3.098   9.465 -0.2328  0.9542 -0.1684
  295MOL0     H39778   8.402   3.060   9.325 -2.0730 -0.4473 -2.6862
  295MOL0     H39779   8.433   3.291   9.289 -0.7854  1.4313 -0.7085
  295MOL0     H39780   8.320   3.336   9.420  2.1251  0.8085 -0.1660
  295MOL0     H39781   8.561   3.161   9.476 -2.1086 -1.4315 -0.2210
  295MOL0     H39782   8.464   3.253   9.597  0.9947 -3.0638  0.9250
  295MOL0     H39783   8.656   3.373   9.562  1.2038 -0.7525 -0.9792
  295MOL0     H39784   8.517   3.469   9.495  0.6664  0.6373  0.8840
  295MOL0     H39785   8.745   3.592   9.483  0.5882 -0.1137  1.3886
  295MOL0     H39786   8.971   3.674   9.472 -1.8483  0.9928 -0.2782
  295MOL0     H39787   9.388   3.301   9.390  1.3404 -0.3847  0.9394
  295MOL0     H39788   9.630   3.258   9.426  1.3216  0.1872 -3.2956
  295MOL0     H39789   9.857   3.247   9.446  0.4087 -2.6300 -1.7305
  295MOL0     H39790   9.836   3.221   9.283 -3.3150  1.5179  0.9662
  295MOL0     H39791  10.070   3.279   9.227  2.8249 -0.2804  0.9779
  295MOL0     H39792  10.075   3.405   9.333  2.0170 -1.2962 -0.3626
  295MOL0     H39793  10.121   3.201   9.515  0.0910  0.6202 -0.1693
  295MOL0     H39794  10.070   3.092   9.398 -2.3953  1.0541 -1.3581
  295MOL0     H39795  10.257   3.161   9.248 -2.5319  1.8998 -0.5738
  295MOL0     H39796  10.297   3.069   9.388 -1.2087  0.1021 -2.0627
  295MOL0     H39797  10.346   3.384   9.378 -0.3327 -0.7802 -2.6095
  295MOL0     H39798  10.463   3.251   9.385  0.5103  2.7823  0.6421
  295MOL0     H39799  10.256   3.341   9.602  0.8644  3.2790 -0.5254
  295MOL0     H39800  10.351   3.196   9.605 -0.1754 -0.0166  0.5824
  295MOL0     H39801  10.469   3.480   9.594 -0.9153  0.0257 -0.6747
  295MOL0     H39802  10.556   3.325   9.597 -0.0217 -3.3189  5.1787
  295MOL0     H39803  10.462   3.256   9.809 -2.2797 -0.8417 -2.5002
  295MOL0     H39804  10.553   3.407   9.827 -0.1646  0.3501 -0.2233
  295MOL0     H39805   9.712   3.622   9.226  0.8738 -1.4520  0.3650
  295MOL0     H39806   9.461   3.660   9.192 -2.4876 -0.9359  2.6799
  295MOL0     H39807   9.076   3.339   9.213  0.0852  1.8879 -0.3375
  295MOL0     H39808   8.864   3.255   9.245  1.8988  0.4374  2.0665
  295MOL0     H39809   7.390   3.181   8.547 -1.3526  1.1332 -0.5396
  295MOL0     H39810   7.163   3.246   8.464 -0.7569  0.3565  0.9575
  295MOL0     H39811   6.664   2.872   8.397 -0.0102 -0.6873  1.6416
  295MOL0     H39812   6.442   2.932   8.339  0.3412 -0.8789  0.9298
  295MOL0     H39813   6.254   3.053   8.446 -3.4280 -0.6720  0.6827
  295MOL0     H39814   6.176   3.065   8.295  1.6115 -1.0902  0.7253
  295MOL0     H39815   6.193   3.250   8.529 -1.2925  1.4351  0.5699
  295MOL0     H39816   6.043   3.212   8.450 -0.9056  1.4412  0.5113
  295MOL0     H39817   6.093   3.354   8.257 -0.6303  2.5176  0.4394
  295MOL0     H39818   6.254   3.378   8.315  0.1100 -0.1564 -0.7950
  295MOL0     H39819   6.117   3.484   8.536 -0.8275 -1.8803  0.4218
  295MOL0     H39820   6.130   3.558   8.363  0.0441  1.0079  3.3429
  295MOL0     H39821   5.724   3.538   8.444  0.5265  1.1649 -1.4022
  295MOL0     H39822   6.560   3.346   8.288 -1.3142  0.5481  2.5999
  295MOL0     H39823   6.758   3.421   8.371  0.8282  1.0966  0.5268
  295MOL0     H39824   6.895   3.314   8.394 -1.1917 -1.5754  0.3160
  295MOL0     H39825   6.829   3.330   8.234  1.2948 -0.0466  0.1599
  296MOL0     O39826   7.888   8.774   2.053 -0.0815 -0.0305  0.2657
  296MOL0     C39827   7.783   8.730   2.005  0.3731 -0.4213  0.2471
  296MOL0     O39828   7.771   8.672   1.878 -0.1377 -0.1647 -0.3235
  296MOL0     C39829   7.882   8.657   1.792 -0.7657 -0.3059  0.0522
  296MOL0     C39830   7.909   8.536   1.730 -0.2804  0.6876  0.0454
  296MOL0     C39831   7.999   8.515   1.625  0.6311 -0.2694 -0.0980
  296MOL0     C39832   8.076   8.631   1.579  0.0244 -0.2480 -0.4798
  296MOL0     O39833   8.165   8.610   1.474  0.0533 -0.3205 -0.6661
  296MOL0     C39834   8.247   8.726   1.441 -0.8235  0.2560  0.0720
  296MOL0     C39835   8.371   8.661   1.358  0.0169  0.1011 -0.3378
  296MOL0     C39836   8.433   8.549   1.436 -0.4817  0.1393  0.1112
  296MOL0     C39837   8.556   8.491   1.369 -0.2197 -0.1626  0.3885
  296MOL0     C39838   8.630   8.387   1.459  0.0160 -0.6651  0.3086
  296MOL0     C39839   8.733   8.311   1.375 -0.3178 -0.9830 -0.0722
  296MOL0     C39840   8.843   8.407   1.324  0.3145 -0.2014  0.2552
  296MOL0     C39841   8.985   8.346   1.318  0.7148  0.1704  0.5906
  296MOL0     N39842   9.036   8.301   1.447 -0.2713  0.1809  0.2748
  296MOL0     C39843   9.081   8.390   1.542  0.0221  0.4650 -0.6573
  296MOL0     C39844   9.107   8.322   1.656 -0.9633  0.5485 -0.7755
  296MOL0     C39845   9.187   8.369   1.775  0.1461 -0.1855 -0.1608
  296MOL0     C39846   9.146   8.512   1.798  0.1075 -0.1638  0.8731
  296MOL0     C39847   9.153   8.570   1.947 -0.2691  0.8772  0.9710
  296MOL0     C39848   9.294   8.586   2.006 -0.0890 -0.5005 -0.5105
  296MOL0     O39849   9.377   8.691   1.960  0.5754 -0.6802 -0.6136
  296MOL0     C39850   9.481   8.736   2.034 -0.4360 -0.1810  0.1320
  296MOL0     C39851   9.510   8.685   2.160 -0.9289  0.2387  0.4613
  296MOL0     C39852   9.622   8.737   2.227 -0.3260  0.1218 -0.0821
  296MOL0     C39853   9.699   8.845   2.175  0.6860 -0.5572  0.7413
  296MOL0     C39854   9.810   8.895   2.252  1.0271 -0.4880 -0.4642
  296MOL0     O39855   9.904   8.970   2.184 -0.4765 -0.1383 -0.7041
  296MOL0     C39856   9.999   9.042   2.254 -0.7896 -0.0125  1.0033
  296MOL0     C39857   9.962   9.161   2.308 -1.0012 -0.4562 -0.0749
  296MOL0     C39858  10.049   9.242   2.376 -0.3628 -0.3295 -0.6236
  296MOL0     C39859  10.179   9.195   2.399 -1.0226 -0.4331 -0.1641
  296MOL0     O39860  10.282   9.272   2.460  0.0220 -0.4378  0.1160
  296MOL0     C39861  10.240   9.389   2.535  0.5128 -0.0217 -0.0473
  296MOL0     C39862  10.348   9.425   2.641 -0.0077 -0.4824 -0.9084
  296MOL0     C39863  10.343   9.558   2.723  0.0621 -1.0074  0.2965
  296MOL0     C39864  10.483   9.613   2.749 -0.8096 -0.2387 -0.4667
  296MOL0     C39865  10.485   9.727   2.849 -0.4493  0.1288 -0.6717
  296MOL0     C39866  10.404   9.860   2.828 -0.1803  0.8302  0.6518
  296MOL0     C39867  10.458   9.981   2.905 -0.8064 -0.0526 -0.0860
  296MOL0     C39868  10.352  10.095   2.920 -0.1035 -0.9644 -0.4468
  296MOL0    Cl39869  10.426  10.234   3.000 -0.1522 -0.0936 -0.7116
  296MOL0     C39870  10.224   9.074   2.342  0.3548 -0.4398 -0.6819
  296MOL0     C39871  10.135   8.996   2.271 -0.5609  0.9460 -0.4467
  296MOL0     O39872   9.823   8.861   2.370 -0.4938 -0.0377  0.0818
  296MOL0     C39873   9.667   8.896   2.049 -0.0839  0.0813  0.2084
  296MOL0     C39874   9.560   8.841   1.980  0.9641  0.1254 -0.3933
  296MOL0     N39875   9.087   8.188   1.631 -0.7290  0.1437 -0.0720
  296MOL0     N39876   9.040   8.179   1.511  0.8944  0.3501  0.3883
  296MOL0     C39877   8.054   8.755   1.640  0.2702 -0.3486 -0.2462
  296MOL0     C39878   7.950   8.767   1.750 -0.0447  0.4854  1.4814
  296MOL0     C39879   7.668   8.750   2.095  0.1225  0.2526 -0.0236
  296MOL0     C39880   7.543   8.693   2.050 -0.0743 -0.2142  0.0373
  296MOL0     C39881   7.433   8.686   2.130 -0.3804  0.8720 -0.5656
  296MOL0     C39882   7.429   8.744   2.263 -0.8372 -0.5681  0.3011
  296MOL0     O39883   7.313   8.755   2.335 -0.1291  0.4552  0.2207
  296MOL0     C39884   7.217   8.842   2.262 -0.3951  0.7944  1.0325
  296MOL0     C39885   7.147   8.922   2.374  0.1809  0.0210  0.2011
  296MOL0     C39886   7.232   8.975   2.485 -0.2567  0.0546 -0.7906
  296MOL0     C39887   7.310   9.103   2.451 -0.1230 -0.4756  0.4866
  296MOL0     C39888   7.355   9.177   2.573 -0.1069  0.2102  0.1476
  296MOL0     C39889   7.397   9.240   2.669  0.1258 -0.0514 -0.3667
  296MOL0     C39890   7.548   8.808   2.306 -0.3300  0.1000 -0.3325
  296MOL0     C39891   7.672   8.808   2.231 -0.3967 -0.2882 -1.1955
  296MOL0     C39892   7.802   8.870   2.293  0.2792  0.1923  0.8829
  296MOL0     H39893   7.852   8.446   1.749 -0.9226  1.5012  2.2889
  296MOL0     H39894   8.003   8.417   1.578 -1.4880  0.1146 -1.1954
  296MOL0     H39895   8.207   8.785   1.358  2.9914 -0.9683 -2.9231
  296MOL0     H39896   8.288   8.784   1.523 -0.1200  1.3916 -1.0527
  296MOL0     H39897   8.447   8.737   1.339 -0.6073  0.7443 -0.3251
  296MOL0     H39898   8.351   8.617   1.261  0.8657  2.7950 -1.8423
  296MOL0     H39899   8.360   8.470   1.455 -1.2101  0.3406 -1.6570
  296MOL0     H39900   8.444   8.599   1.533 -1.6335 -1.2391  0.9851
  296MOL0     H39901   8.522   8.450   1.273  1.5640  1.0054 -0.7908
  296MOL0     H39902   8.627   8.571   1.350 -1.1836  0.3310 -1.3456
  296MOL0     H39903   8.681   8.441   1.540  1.6823 -3.4589  1.2638
  296MOL0     H39904   8.554   8.321   1.500 -0.2790 -0.1367  0.6222
  296MOL0     H39905   8.782   8.237   1.440  0.9614  1.4159  1.8443
  296MOL0     H39906   8.699   8.257   1.286 -1.4856 -1.3958  0.6040
  296MOL0     H39907   8.851   8.489   1.395 -3.9846  0.5709  0.1295
  296MOL0     H39908   8.823   8.457   1.229  0.8391 -0.6316 -0.0822
  296MOL0     H39909   8.978   8.262   1.248  2.4219  0.8670 -0.4916
  296MOL0     H39910   9.055   8.416   1.273  0.0062  0.6967  0.2981
  296MOL0     H39911   9.086   8.495   1.518  0.8070  0.5646 -0.0740
  296MOL0     H39912   9.171   8.314   1.868  2.1384  0.4823  0.6552
  296MOL0     H39913   9.293   8.371   1.745  0.0661  2.0025 -0.4351
  296MOL0     H39914   9.197   8.583   1.733 -2.3637  0.1369 -0.9010
  296MOL0     H39915   9.041   8.527   1.772  0.1835  1.1557  1.3004
  296MOL0     H39916   9.098   8.505   2.017  1.2404 -0.7596  0.6957
  296MOL0     H39917   9.112   8.671   1.940 -1.7071  0.2498 -0.1492
  296MOL0     H39918   9.335   8.486   1.996 -1.9526 -1.4354  0.5499
  296MOL0     H39919   9.285   8.602   2.114  2.8930 -3.3076  0.3117
  296MOL0     H39920   9.451   8.604   2.202 -2.3988  2.1978  2.3848
  296MOL0     H39921   9.643   8.691   2.324 -1.7639 -4.1505 -1.5820
  296MOL0     H39922   9.862   9.202   2.303  0.0305  2.4393  0.9948
  296MOL0     H39923  10.015   9.340   2.410 -0.6701 -0.7889  0.4206
  296MOL0     H39924  10.231   9.467   2.459 -0.7196  0.6144  0.7225
  296MOL0     H39925  10.142   9.379   2.583  0.3356 -0.1846 -0.4438
  296MOL0     H39926  10.345   9.346   2.716 -0.1438  2.1645  2.0854
  296MOL0     H39927  10.449   9.417   2.599  1.3809 -0.6115  2.2104
  296MOL0     H39928  10.288   9.625   2.656  1.2555 -1.2461 -0.9919
  296MOL0     H39929  10.291   9.540   2.817  1.2205 -1.5961  0.8539
  296MOL0     H39930  10.509   9.642   2.647  0.9148 -1.3557 -0.3818
  296MOL0     H39931  10.554   9.537   2.784 -0.7026  0.4180  0.7836
  296MOL0     H39932  10.589   9.756   2.835  0.6633 -2.9060  0.5255
  296MOL0     H39933  10.476   9.686   2.950  2.3753 -1.8698 -1.1284
  296MOL0     H39934  10.406   9.878   2.720 -2.2665 -1.5816  0.1180
  296MOL0     H39935  10.297   9.848   2.846  0.1100 -0.1451  1.8635
  296MOL0     H39936  10.555  10.023   2.875 -0.9412  1.1452  1.0370
  296MOL0     H39937  10.495   9.938   2.999  1.0637  0.5332 -0.5071
  296MOL0     H39938  10.321  10.125   2.819 -1.2301  0.0535  0.1861
  296MOL0     H39939  10.264  10.064   2.976  1.5048 -0.8219  2.3288
  296MOL0     H39940  10.326   9.047   2.370  0.7133  1.6851  0.2787
  296MOL0     H39941  10.172   8.901   2.236 -2.5339  0.0070 -0.0927
  296MOL0     H39942   9.721   8.977   2.003  1.0684 -0.7743  0.0184
  296MOL0     H39943   9.546   8.863   1.874 -2.0357 -0.9949 -0.3203
  296MOL0     H39944   8.085   8.844   1.587  1.8674 -1.3966 -1.1624
  296MOL0     H39945   7.928   8.868   1.781 -0.8210  0.7796  0.0400
  296MOL0     H39946   7.534   8.648   1.952  0.9150 -1.9978  0.7072
  296MOL0     H39947   7.344   8.636   2.095 -0.4292 -1.5568  2.5688
  296MOL0     H39948   7.141   8.775   2.219  1.7428 -2.2113  1.5735
  296MOL0     H39949   7.258   8.917   2.194 -0.4913  0.0065  0.0856
  296MOL0     H39950   7.075   8.850   2.414 -0.8858 -0.2574 -2.0183
  296MOL0     H39951   7.081   8.993   2.322  1.6816  2.4036  1.4089
  296MOL0     H39952   7.305   8.903   2.523  0.7955  1.7475  0.6125
  296MOL0     H39953   7.168   8.992   2.572  2.9441  1.4282  1.5039
  296MOL0     H39954   7.403   9.072   2.401  1.3274  2.9496  0.7779
  296MOL0     H39955   7.255   9.173   2.387  0.8149  0.7062  0.9213
  296MOL0     H39956   7.411   9.287   2.764  3.5812 -0.4991 -0.5370
  296MOL0     H39957   7.549   8.860   2.401  0.6594  0.4449 -0.5179
  296MOL0     H39958   7.856   8.938   2.226 -1.7145  1.1719  0.2101
  296MOL0     H39959   7.779   8.923   2.386  0.7077  4.7149 -1.3049
  296MOL0     H39960   7.877   8.795   2.322  0.7501  0.3757  0.1610
  297MOL0     O39961   0.813   4.928   8.913 -0.0325  0.3226  0.1109
  297MOL0     C39962   0.772   4.998   9.001 -0.1668 -1.4859  0.3853
  297MOL0     O39963   0.843   5.040   9.110 -0.0803 -0.0209  0.4760
  297MOL0     C39964   0.959   4.971   9.141  0.1197 -0.7208 -0.2616
  297MOL0     C39965   1.004   4.848   9.101  0.4938  1.1204 -0.0960
  297MOL0     C39966   1.129   4.794   9.126 -0.7802 -0.5244  0.1784
  297MOL0     C39967   1.220   4.865   9.207 -1.2106 -0.0329  0.2541
  297MOL0     O39968   1.345   4.803   9.228  0.4867  0.8959  0.5492
  297MOL0     C39969   1.412   4.833   9.349 -0.0498 -0.5848 -0.3358
  297MOL0     C39970   1.565   4.807   9.314  0.6693  0.5823 -0.0027
  297MOL0     C39971   1.645   4.825   9.439  0.5091 -0.6709  0.9326
  297MOL0     C39972   1.787   4.779   9.426 -0.2985  0.2400 -0.1823
  297MOL0     C39973   1.870   4.846   9.529 -0.4225  0.5680  0.5307
  297MOL0     C39974   2.016   4.776   9.534 -0.3670  0.2394  0.3964
  297MOL0     C39975   2.112   4.849   9.625 -0.0903 -0.3913  0.0579
  297MOL0     C39976   2.262   4.804   9.626  0.1011  0.3953 -0.3083
  297MOL0     N39977   2.316   4.844   9.494 -0.0742 -0.4523  0.2193
  297MOL0     C39978   2.368   4.965   9.467  0.1198 -0.1258  0.5136
  297MOL0     C39979   2.427   4.959   9.343 -0.4178 -0.7287 -0.4052
  297MOL0     C39980   2.513   5.064   9.273  0.4224  0.0625 -0.4554
  297MOL0     C39981   2.647   5.065   9.345 -0.5905 -0.5602  0.1638
  297MOL0     C39982   2.753   5.115   9.256 -0.1720  0.4295  0.3735
  297MOL0     C39983   2.888   5.119   9.321 -0.5396  0.3936  0.2874
  297MOL0     O39984   2.907   5.230   9.410  0.5875  0.2751  0.0201
  297MOL0     C39985   3.010   5.321   9.400  0.3181 -0.7569  0.3839
  297MOL0     C39986   3.092   5.344   9.287  0.6756 -0.0466 -0.1093
  297MOL0     C39987   3.192   5.434   9.294  0.3712  0.7136 -0.1037
  297MOL0     C39988   3.208   5.514   9.406 -0.3021 -0.6067 -0.6935
  297MOL0     C39989   3.334   5.605   9.422 -0.6226  0.4661 -1.3030
  297MOL0     O39990   3.414   5.601   9.312 -0.5295 -0.4860 -0.2577
  297MOL0     C39991   3.537   5.674   9.322  0.4142  0.3226  0.2464
  297MOL0     C39992   3.656   5.603   9.295  0.0817  0.1851 -0.0277
  297MOL0     C39993   3.777   5.672   9.310 -0.1249 -0.2966 -0.4660
  297MOL0     C39994   3.780   5.805   9.350  0.3029  0.0309 -0.3081
  297MOL0     O39995   3.894   5.874   9.375 -0.7053  0.1143  0.0016
  297MOL0     C39996   4.013   5.794   9.392 -0.2406  0.4463  0.5418
  297MOL0     C39997   4.129   5.889   9.403  0.1375  0.0142  0.4324
  297MOL0     C39998   4.254   5.810   9.429  0.1026 -0.3078 -0.1035
  297MOL0     C39999   4.372   5.898   9.459 -0.3293  0.5785  0.0870
  297MOL0     C40000   4.468   5.842   9.556 -0.1916 -0.2923 -0.4333
  297MOL0     C40001   4.412   5.834   9.705 -0.3575  0.7577 -0.2181
  297MOL0     C40002   4.528   5.819   9.809  0.2495  0.2780  0.2855
  297MOL0     C40003   4.574   5.950   9.887  0.2524 -0.2010  0.0302
  297MOL0    Cl40004   4.456   6.006  10.015 -0.1186 -0.0720  0.2836
  297MOL0     C40005   3.660   5.879   9.361 -0.6318  0.5246  0.4026
  297MOL0     C40006   3.542   5.805   9.352 -0.5255 -0.6391 -0.8729
  297MOL0     O40007   3.352   5.666   9.531 -0.2186 -0.2204  0.3257
  297MOL0     C40008   3.119   5.501   9.516 -0.8820 -0.5224 -0.1492
  297MOL0     C40009   3.021   5.407   9.502  0.3157 -0.0028 -0.5874
  297MOL0     N40010   2.427   4.823   9.307 -0.6652 -0.2033  0.9141
  297MOL0     N40011   2.351   4.763   9.391  0.2761 -0.0889  0.6566
  297MOL0     C40012   1.168   4.985   9.263 -0.2264  0.1147 -0.3668
  297MOL0     C40013   1.039   5.032   9.232  0.5994 -0.0371 -0.0587
  297MOL0     C40014   0.632   5.056   8.985 -1.3353 -0.7286 -0.2413
  297MOL0     C40015   0.606   5.173   9.061 -0.9324 -0.8475 -0.2561
  297MOL0     C40016   0.488   5.234   9.051  1.2546  0.0824 -0.4495
  297MOL0     C40017   0.380   5.183   8.973  0.2677  0.2265 -0.3766
  297MOL0     O40018   0.265   5.253   8.983 -0.5942  0.2491 -0.1316
  297MOL0     C40019   0.144   5.212   8.920 -0.0994  0.6366  0.7624
  297MOL0     C40020   0.050   5.106   8.992  0.2395 -0.3620 -0.4381
  297MOL0     C40021  -0.049   5.168   9.097 -0.2660 -0.2141  0.7229
  297MOL0     C40022  -0.033   5.093   9.233  0.7230 -0.3090 -0.1573
  297MOL0     C40023  -0.100   4.952   9.235 -0.4081 -0.2885 -0.2562
  297MOL0     C40024  -0.168   4.848   9.243  0.7896  0.5036 -0.6158
  297MOL0     C40025   0.403   5.063   8.910 -0.7617 -0.5634  0.1157
  297MOL0     C40026   0.536   5.003   8.910  0.1529 -0.5790 -0.3530
  297MOL0     C40027   0.552   4.879   8.840 -0.3271 -0.4548 -1.1100
  297MOL0     H40028   0.943   4.776   9.048  2.0359  0.3198 -0.8402
  297MOL0     H40029   1.137   4.689   9.096 -0.3440 -0.5793  0.4847
  297MOL0     H40030   1.396   4.938   9.372 -1.8785 -1.0899  0.9392
  297MOL0     H40031   1.373   4.768   9.427 -0.9550 -0.1710 -0.4315
  297MOL0     H40032   1.602   4.873   9.234  1.4581  0.6696  0.4173
  297MOL0     H40033   1.578   4.706   9.275  1.6211  0.7745 -0.2089
  297MOL0     H40034   1.598   4.773   9.522 -2.7785 -0.7060 -0.7921
  297MOL0     H40035   1.656   4.930   9.468  0.8374 -0.6042  0.5735
  297MOL0     H40036   1.797   4.670   9.429  0.5553  0.2989 -0.5967
  297MOL0     H40037   1.820   4.818   9.329 -2.5671 -1.0170 -1.5465
  297MOL0     H40038   1.885   4.952   9.504 -1.3385  0.2964 -1.3043
  297MOL0     H40039   1.814   4.849   9.623 -0.7686  2.8992  0.3286
  297MOL0     H40040   2.000   4.674   9.571 -1.0555  0.3999  0.5640
  297MOL0     H40041   2.065   4.764   9.437  0.1144 -3.7284  0.9718
  297MOL0     H40042   2.077   4.833   9.727 -0.3585 -1.8572 -0.2469
  297MOL0     H40043   2.107   4.957   9.607 -3.0314  0.0791  2.7490
  297MOL0     H40044   2.322   4.855   9.702  0.2605  1.5758 -1.2050
  297MOL0     H40045   2.268   4.695   9.638 -2.2677  0.0220 -1.8409
  297MOL0     H40046   2.364   5.049   9.535 -0.6590 -0.1368  0.4941
  297MOL0     H40047   2.522   5.038   9.168  2.0673  0.3811 -0.4293
  297MOL0     H40048   2.455   5.155   9.290  0.0479 -0.1799 -0.4188
  297MOL0     H40049   2.645   5.122   9.439 -0.2125 -2.7900  1.6182
  297MOL0     H40050   2.668   4.965   9.385  0.1484 -0.9306 -1.0969
  297MOL0     H40051   2.728   5.212   9.213  1.5726 -0.2285 -2.3762
  297MOL0     H40052   2.769   5.044   9.175  2.5039  1.5175 -0.1847
  297MOL0     H40053   2.962   5.121   9.241  0.2789 -1.7988  0.9233
  297MOL0     H40054   2.904   5.029   9.381 -2.6057 -0.3054 -0.1304
  297MOL0     H40055   3.061   5.306   9.190  0.2859 -0.0621  0.0195
  297MOL0     H40056   3.249   5.442   9.202 -0.7433 -0.3602 -0.9123
  297MOL0     H40057   3.653   5.509   9.241  0.5621  1.6751 -2.8027
  297MOL0     H40058   3.866   5.621   9.274  2.0775  1.5481  1.9861
  297MOL0     H40059   4.007   5.745   9.489 -1.8367  0.5945  0.5516
  297MOL0     H40060   4.029   5.722   9.311 -0.3154  0.0318  0.8954
  297MOL0     H40061   4.139   5.951   9.313 -1.7011 -0.6626 -0.2794
  297MOL0     H40062   4.111   5.954   9.489  1.4383  2.9182 -1.3320
  297MOL0     H40063   4.239   5.736   9.508 -0.8317  0.1708  0.1838
  297MOL0     H40064   4.281   5.762   9.335  1.7526  0.5697 -0.1155
  297MOL0     H40065   4.332   5.984   9.514 -1.3711  0.1031  0.0778
  297MOL0     H40066   4.431   5.931   9.373  1.3671 -2.5876 -0.0885
  297MOL0     H40067   4.553   5.911   9.551  0.4901 -1.0921 -0.1322
  297MOL0     H40068   4.509   5.746   9.524  2.1594 -0.3426  2.3484
  297MOL0     H40069   4.359   5.926   9.733 -3.9968 -0.7474 -1.5418
  297MOL0     H40070   4.344   5.749   9.714  0.6129  0.1262  1.8508
  297MOL0     H40071   4.617   5.791   9.751 -0.4921  1.6284 -1.6179
  297MOL0     H40072   4.495   5.743   9.880 -1.6360  0.8046  0.0449
  297MOL0     H40073   4.669   5.921   9.932  1.5853  1.8843 -1.2814
  297MOL0     H40074   4.597   6.020   9.807  0.3862 -1.5132 -1.1245
  297MOL0     H40075   3.651   5.985   9.383 -0.5705  1.4344 -3.2994
  297MOL0     H40076   3.456   5.868   9.372 -1.2489 -2.4953  2.6195
  297MOL0     H40077   3.141   5.566   9.600  0.3896  1.1443 -1.6683
  297MOL0     H40078   2.955   5.395   9.587 -1.5730  1.5481 -1.7741
  297MOL0     H40079   1.214   5.050   9.337 -0.7459 -0.4447  0.4610
  297MOL0     H40080   1.004   5.124   9.277  2.8051  1.5767 -1.4230
  297MOL0     H40081   0.682   5.220   9.123 -1.9095  0.6997 -0.1692
  297MOL0     H40082   0.482   5.333   9.096  0.5710 -0.4397  0.6579
  297MOL0     H40083   0.161   5.180   8.817  1.2277 -0.5072  1.3033
  297MOL0     H40084   0.085   5.303   8.913 -3.2381 -1.2677  0.4516
  297MOL0     H40085   0.112   5.022   9.025  0.4364  0.3651  1.1325
  297MOL0     H40086  -0.019   5.070   8.915  0.2311  1.5065 -1.3802
  297MOL0     H40087  -0.151   5.159   9.058 -0.3954  0.1283  0.9776
  297MOL0     H40088  -0.018   5.273   9.106  3.4914 -0.9486 -1.4457
  297MOL0     H40089   0.074   5.080   9.252  0.8136 -0.5731 -0.8104
  297MOL0     H40090  -0.083   5.146   9.314  0.5498 -0.3481 -0.2398
  297MOL0     H40091  -0.237   4.773   9.276 -0.7123  3.3135  3.2608
  297MOL0     H40092   0.327   5.000   8.865  0.2384 -1.3479 -0.5347
  297MOL0     H40093   0.455   4.834   8.817 -0.8900  0.1437  0.0371
  297MOL0     H40094   0.608   4.893   8.747  0.3003 -3.6270 -1.3347
  297MOL0     H40095   0.612   4.809   8.900  0.3370 -1.1442 -2.5216
  298MOL0     O40096   3.398   0.926   4.199 -0.6847  0.2396 -0.9728
  298MOL0     C40097   3.403   0.844   4.294 -1.0323 -0.0215 -0.1743
  298MOL0     O40098   3.524   0.786   4.339  0.0438  0.5692  0.0614
  298MOL0     C40099   3.646   0.829   4.292  0.4961  0.4859  0.0253
  298MOL0     C40100   3.748   0.736   4.293 -0.8607  0.7785 -0.3209
  298MOL0     C40101   3.870   0.767   4.231 -0.1590 -0.1448  0.0700
  298MOL0     C40102   3.898   0.894   4.190  0.3117  0.0628  0.1648
  298MOL0     O40103   4.025   0.910   4.139  0.1909 -0.2646 -0.1145
  298MOL0     C40104   4.080   1.041   4.156  0.3365 -0.1096  0.3332
  298MOL0     C40105   4.225   1.050   4.123 -0.3350 -0.6299  0.6489
  298MOL0     C40106   4.282   1.197   4.158 -0.3958  0.5454 -0.5393
  298MOL0     C40107   4.431   1.191   4.160  0.1031 -0.3458  0.5368
  298MOL0     C40108   4.496   1.327   4.191 -0.8167 -0.3608  0.8514
  298MOL0     C40109   4.646   1.319   4.192  0.2335 -0.6301  0.4364
  298MOL0     C40110   4.705   1.464   4.228 -0.8746  0.4982  0.1431
  298MOL0     C40111   4.730   1.544   4.104 -0.3090  0.0245  0.9222
  298MOL0     N40112   4.808   1.668   4.133 -0.1381  0.5619  0.5576
  298MOL0     C40113   4.763   1.770   4.213 -0.6746  0.8850 -0.0747
  298MOL0     C40114   4.865   1.851   4.199 -0.1048 -0.1219  0.0490
  298MOL0     C40115   4.854   1.985   4.265  0.5879 -0.0023  0.2907
  298MOL0     C40116   4.857   1.962   4.413  0.0516  0.3035  0.3460
  298MOL0     C40117   4.980   1.885   4.479 -1.1256 -0.1010  0.4171
  298MOL0     C40118   5.011   1.731   4.448 -0.0292  0.0419  0.8139
  298MOL0     O40119   5.088   1.664   4.544 -0.7560 -0.2040 -0.1605
  298MOL0     C40120   5.223   1.685   4.559  0.0827 -0.2636 -0.3379
  298MOL0     C40121   5.273   1.660   4.681  0.4955 -1.5937  0.0642
  298MOL0     C40122   5.408   1.697   4.718 -0.5144 -0.4865 -0.3560
  298MOL0     C40123   5.496   1.738   4.616  1.3392 -0.1123 -0.1261
  298MOL0     C40124   5.633   1.769   4.657  0.9626  0.3344  0.5220
  298MOL0     O40125   5.669   1.765   4.791 -0.0489 -0.3083  0.4137
  298MOL0     C40126   5.800   1.791   4.825 -0.0917 -0.4531  0.9365
  298MOL0     C40127   5.871   1.908   4.784  0.3967 -0.7046  0.6157
  298MOL0     C40128   6.006   1.923   4.823 -0.0742 -0.3348  0.2823
  298MOL0     C40129   6.064   1.842   4.919 -0.1809  0.1014 -0.4056
  298MOL0     O40130   6.188   1.878   4.978  0.3133  0.8696 -0.0443
  298MOL0     C40131   6.215   2.015   5.003  0.5809  0.1047  0.8585
  298MOL0     C40132   6.240   2.046   5.151  0.2000  0.6375  0.1081
  298MOL0     C40133   6.340   1.950   5.215 -0.0263  0.1299  0.1756
  298MOL0     C40134   6.385   1.974   5.353 -0.5742  0.7113 -0.9639
  298MOL0     C40135   6.528   1.913   5.377  0.3030 -0.0827 -0.4631
  298MOL0     C40136   6.568   1.909   5.528  0.6212 -0.6034 -0.4811
  298MOL0     C40137   6.668   1.809   5.556 -0.6996  0.1714  0.3405
  298MOL0     C40138   6.615   1.669   5.574  0.3192 -0.0683 -1.1413
  298MOL0    Cl40139   6.628   1.617   5.752  0.2142 -0.0966  0.0416
  298MOL0     C40140   5.981   1.742   4.984 -0.5866 -0.3800 -0.5707
  298MOL0     C40141   5.858   1.709   4.930  0.3067 -0.7668 -0.1557
  298MOL0     O40142   5.704   1.792   4.564 -0.1180 -0.3734 -0.0516
  298MOL0     C40143   5.450   1.739   4.481 -0.2972  0.7411  0.9198
  298MOL0     C40144   5.320   1.715   4.455  0.2820  0.0549  0.0891
  298MOL0     N40145   4.963   1.802   4.118 -0.3763  0.0349 -0.7574
  298MOL0     N40146   4.926   1.691   4.074 -1.0655 -0.2892  0.4391
  298MOL0     C40147   3.800   0.992   4.196 -0.0340 -0.1644  0.4086
  298MOL0     C40148   3.674   0.958   4.248 -0.0132  0.3502 -0.0160
  298MOL0     C40149   3.274   0.811   4.355  0.8111 -0.3797  0.5883
  298MOL0     C40150   3.181   0.921   4.365  0.4753  0.4478 -0.2337
  298MOL0     C40151   3.058   0.890   4.434  0.3525  0.0606  0.6143
  298MOL0     C40152   3.032   0.753   4.489  0.0124 -0.6030  0.3762
  298MOL0     O40153   2.923   0.729   4.563 -0.2179 -0.4377 -0.0644
  298MOL0     C40154   2.915   0.812   4.688 -0.1608  0.4279 -0.2613
  298MOL0     C40155   2.782   0.794   4.776  0.5608  0.3940 -0.1432
  298MOL0     C40156   2.664   0.774   4.667 -0.7360 -0.5432 -0.5404
  298MOL0     C40157   2.532   0.746   4.743  0.4521 -0.0711  0.2107
  298MOL0     C40158   2.410   0.764   4.668 -0.0703 -0.2068 -0.2446
  298MOL0     C40159   2.305   0.781   4.613  0.7946 -0.6068 -1.1355
  298MOL0     C40160   3.130   0.657   4.475 -0.8372 -0.2919  0.2140
  298MOL0     C40161   3.245   0.681   4.402 -1.1154  0.1654 -1.2010
  298MOL0     C40162   3.346   0.563   4.404 -0.3277 -0.0599  0.1807
  298MOL0     H40163   3.736   0.643   4.349  2.7933  0.4956  0.2813
  298MOL0     H40164   3.945   0.689   4.224 -0.8998 -0.8916  0.2468
  298MOL0     H40165   4.027   1.122   4.105 -0.6407  0.2566  1.8582
  298MOL0     H40166   4.069   1.061   4.263 -0.9504  0.9983  0.0230
  298MOL0     H40167   4.237   1.034   4.016  5.3391  1.3362  0.6138
  298MOL0     H40168   4.279   0.975   4.183  3.6534  0.5432 -1.1209
  298MOL0     H40169   4.248   1.231   4.256  0.7838  2.6524 -0.7888
  298MOL0     H40170   4.246   1.260   4.076 -0.9786 -0.2441 -0.9086
  298MOL0     H40171   4.461   1.122   4.239  1.8939 -1.0083 -0.6294
  298MOL0     H40172   4.468   1.150   4.065  0.0159  0.8491 -0.0428
  298MOL0     H40173   4.468   1.379   4.099 -1.1606  0.2726  1.3106
  298MOL0     H40174   4.454   1.384   4.274  0.4578  1.6793  0.1747
  298MOL0     H40175   4.676   1.260   4.279  2.7585  1.2984  0.9858
  298MOL0     H40176   4.690   1.273   4.103  0.5690 -0.8191  0.6976
  298MOL0     H40177   4.799   1.451   4.282  0.1359  0.1840 -1.6187
  298MOL0     H40178   4.639   1.521   4.295 -1.4663 -0.6339  0.5495
  298MOL0     H40179   4.785   1.487   4.029 -1.0655 -0.7927  0.9642
  298MOL0     H40180   4.633   1.575   4.062 -0.1238 -1.6408 -0.8662
  298MOL0     H40181   4.665   1.781   4.260 -1.7126  0.5003 -2.0560
  298MOL0     H40182   4.934   2.049   4.229 -0.9683  0.0048 -3.6059
  298MOL0     H40183   4.760   2.035   4.240  0.9946  0.4244 -0.4123
  298MOL0     H40184   4.839   2.055   4.467  1.6974  0.6275  0.3926
  298MOL0     H40185   4.769   1.901   4.435 -0.8068  0.2365 -2.8627
  298MOL0     H40186   4.972   1.885   4.589  0.5774  1.3629  0.5890
  298MOL0     H40187   5.074   1.938   4.458 -2.5321  2.1583 -0.5171
  298MOL0     H40188   5.052   1.717   4.347  0.0531  1.1443  0.6909
  298MOL0     H40189   4.912   1.684   4.453  1.4109 -3.5755 -0.8186
  298MOL0     H40190   5.219   1.633   4.771  2.5593  2.1946  2.7107
  298MOL0     H40191   5.436   1.689   4.823 -0.9487  1.0552 -0.0982
  298MOL0     H40192   5.814   1.978   4.724 -0.9623 -1.6056  0.8349
  298MOL0     H40193   6.074   2.000   4.787  1.0935 -0.4411  2.0896
  298MOL0     H40194   6.307   2.047   4.954 -1.3419  1.9859 -1.7920
  298MOL0     H40195   6.129   2.073   4.970  0.6823  0.0779  0.5403
  298MOL0     H40196   6.281   2.145   5.171  0.9370  0.7620 -1.7924
  298MOL0     H40197   6.139   2.045   5.194 -0.5512  0.3797 -1.5760
  298MOL0     H40198   6.307   1.846   5.214 -1.6428  0.6112 -1.2349
  298MOL0     H40199   6.429   1.956   5.151  1.5183  2.0931  2.3322
  298MOL0     H40200   6.314   1.958   5.435  0.1246  0.7205 -0.3423
  298MOL0     H40201   6.394   2.081   5.373 -3.3505  1.4517 -3.0755
  298MOL0     H40202   6.605   1.970   5.325  0.5456 -0.0844 -0.1068
  298MOL0     H40203   6.523   1.813   5.335 -0.7038  1.3447 -4.1085
  298MOL0     H40204   6.601   2.007   5.564 -2.9276 -0.1206  1.9917
  298MOL0     H40205   6.486   1.894   5.599 -0.8513 -0.1532 -2.0390
  298MOL0     H40206   6.724   1.848   5.642 -1.6164  1.0888  0.5455
  298MOL0     H40207   6.734   1.798   5.469 -1.8274 -0.2331 -0.4935
  298MOL0     H40208   6.508   1.658   5.555  0.4567 -1.1382 -1.3544
  298MOL0     H40209   6.668   1.601   5.506  1.1344  1.0420 -1.6462
  298MOL0     H40210   6.030   1.691   5.065  2.8068  0.8305 -1.6948
  298MOL0     H40211   5.796   1.638   4.984 -2.3847  1.6265  0.1485
  298MOL0     H40212   5.528   1.748   4.406  2.2492 -1.5861  3.0609
  298MOL0     H40213   5.290   1.740   4.354 -0.8178 -1.7773 -0.0670
  298MOL0     H40214   3.812   1.093   4.159 -1.4452 -0.5664 -1.2468
  298MOL0     H40215   3.600   1.037   4.250 -0.0641  0.2795  1.1877
  298MOL0     H40216   3.212   1.019   4.331  2.0844 -0.2406 -0.8816
  298MOL0     H40217   2.976   0.961   4.436  0.7151  0.4820  0.5962
  298MOL0     H40218   2.912   0.921   4.681 -1.6069  1.4127  7.5036
  298MOL0     H40219   2.995   0.793   4.759  2.4023  1.9610 -2.5479
  298MOL0     H40220   2.765   0.884   4.834  4.4291  1.7989 -0.8385
  298MOL0     H40221   2.803   0.703   4.833  1.3848 -1.0499 -2.5729
  298MOL0     H40222   2.688   0.693   4.598 -2.3654  0.1321 -1.9945
  298MOL0     H40223   2.664   0.864   4.605 -1.1561  0.0369  0.2873
  298MOL0     H40224   2.529   0.641   4.772  1.9841 -0.3118 -0.4391
  298MOL0     H40225   2.521   0.809   4.832  1.0021  1.7932 -0.9827
  298MOL0     H40226   2.211   0.794   4.563 -0.3045 -1.8722  0.4574
  298MOL0     H40227   3.110   0.557   4.513 -2.2049 -0.1363 -0.0461
  298MOL0     H40228   3.403   0.570   4.497 -1.4071 -1.3417  0.9795
  298MOL0     H40229   3.290   0.469   4.414  0.8016 -0.5894  2.0580
  298MOL0     H40230   3.411   0.546   4.318  0.5066 -2.7326  1.2217
  299MOL0     O40231   3.613   6.318   2.345 -0.3890 -0.2365 -0.2957
  299MOL0     C40232   3.591   6.208   2.306  0.4074  0.2935  0.6911
  299MOL0     O40233   3.687   6.125   2.255  0.2482  0.2449  0.4563
  299MOL0     C40234   3.824   6.149   2.237  0.4301  0.8753 -0.7817
  299MOL0     C40235   3.899   6.241   2.305 -0.5829  0.6448 -0.2410
  299MOL0     C40236   4.037   6.245   2.280 -0.2292 -0.2346  0.5782
  299MOL0     C40237   4.095   6.160   2.177 -0.3184  0.4894 -0.0425
  299MOL0     O40238   4.233   6.157   2.160 -0.1209 -0.5741 -0.2881
  299MOL0     C40239   4.307   6.113   2.049  0.0959  0.1541  0.8336
  299MOL0     C40240   4.449   6.175   2.050  0.6164 -0.1729  0.0896
  299MOL0     C40241   4.534   6.107   1.943 -0.5062  0.0871 -0.6673
  299MOL0     C40242   4.675   6.169   1.933 -0.0148 -1.0003 -0.8182
  299MOL0     C40243   4.666   6.305   1.862 -1.1628 -0.1300  0.0534
  299MOL0     C40244   4.765   6.401   1.929 -0.4147  0.8634  0.3048
  299MOL0     C40245   4.914   6.371   1.920 -0.3894  0.5793  0.4041
  299MOL0     C40246   4.996   6.464   2.016  0.5183  0.4650  0.1731
  299MOL0     N40247   5.035   6.391   2.136 -0.5807  0.4299  0.9161
  299MOL0     C40248   5.142   6.298   2.148 -0.2771  0.1987 -0.5404
  299MOL0     C40249   5.177   6.297   2.277  0.1260 -0.3453  0.3659
  299MOL0     C40250   5.290   6.226   2.334  0.5758  0.9612 -0.4942
  299MOL0     C40251   5.388   6.320   2.393 -0.1635  1.3669  0.0359
  299MOL0     C40252   5.474   6.366   2.281  0.1828 -0.0794 -0.0622
  299MOL0     C40253   5.602   6.438   2.327 -0.6735  0.0285 -0.0301
  299MOL0     O40254   5.677   6.373   2.433 -0.6190  0.4949  0.4318
  299MOL0     C40255   5.789   6.427   2.481  0.1467 -0.2389  0.3042
  299MOL0     C40256   5.861   6.527   2.414 -0.3513 -0.4337  0.2833
  299MOL0     C40257   5.976   6.579   2.466  0.4900 -0.7208  0.1882
  299MOL0     C40258   6.009   6.556   2.603  0.8846  0.1406 -0.1386
  299MOL0     C40259   6.122   6.626   2.684  0.8830 -0.5066  0.1525
  299MOL0     O40260   6.187   6.730   2.619 -0.1544  0.5637  0.0456
  299MOL0     C40261   6.293   6.772   2.686  0.2627 -0.8307 -0.1120
  299MOL0     C40262   6.285   6.819   2.817 -0.3179 -0.4299 -0.6958
  299MOL0     C40263   6.406   6.849   2.882  0.4030  0.3155  0.3207
  299MOL0     C40264   6.533   6.851   2.814 -0.2561 -0.3635 -0.7415
  299MOL0     O40265   6.644   6.902   2.884  0.9450  0.0932  0.2215
  299MOL0     C40266   6.763   6.915   2.811 -1.2112 -0.6711  0.3207
  299MOL0     C40267   6.868   6.971   2.908  0.3830 -1.0409  0.6543
  299MOL0     C40268   6.987   7.058   2.846  0.3882  0.0705  0.3265
  299MOL0     C40269   7.060   6.984   2.741 -1.3335 -0.0160 -0.0202
  299MOL0     C40270   7.189   7.060   2.709  0.7511  0.7913  0.3783
  299MOL0     C40271   7.164   7.176   2.618 -0.3799 -0.5173  0.6587
  299MOL0     C40272   7.099   7.154   2.482  0.3468  0.2737  0.2253
  299MOL0     C40273   7.136   7.284   2.387  0.0025  0.7886 -0.4079
  299MOL0    Cl40274   7.068   7.275   2.226 -0.6657 -0.1844 -0.3706
  299MOL0     C40275   6.531   6.821   2.679 -0.3614  0.4411  0.9628
  299MOL0     C40276   6.416   6.770   2.618 -0.1723  0.8053  0.5295
  299MOL0     O40277   6.147   6.581   2.801  0.0286 -0.6113 -0.0142
  299MOL0     C40278   5.929   6.471   2.675 -0.1951  0.5678 -0.1050
  299MOL0     C40279   5.828   6.402   2.607  0.4470 -0.0457 -0.3866
  299MOL0     N40280   5.088   6.383   2.345 -0.0358 -0.2674 -0.8382
  299MOL0     N40281   5.010   6.438   2.254 -0.1019  0.4268 -0.6010
  299MOL0     C40282   4.008   6.067   2.113 -0.1072 -0.2662  0.2841
  299MOL0     C40283   3.873   6.064   2.137  0.2064  0.0125 -0.5329
  299MOL0     C40284   3.458   6.153   2.345 -0.2406  0.6704  0.8619
  299MOL0     C40285   3.426   6.025   2.300  0.1729 -0.1863 -0.6530
  299MOL0     C40286   3.304   5.966   2.358 -0.0426 -0.5994  0.1863
  299MOL0     C40287   3.209   6.043   2.415 -0.1634 -0.1565 -0.0150
  299MOL0     O40288   3.079   5.992   2.441 -0.0636  0.4352  0.2647
  299MOL0     C40289   2.967   6.080   2.447  0.4191  0.0179 -0.3402
  299MOL0     C40290   2.860   5.981   2.411 -0.5783  0.0136  0.5215
  299MOL0     C40291   2.863   5.950   2.261  0.2780 -0.8793 -0.0384
  299MOL0     C40292   2.754   5.848   2.233 -0.0476  0.7541  0.2290
  299MOL0     C40293   2.623   5.882   2.293  0.9278 -0.0380  0.5180
  299MOL0     C40294   2.518   5.934   2.330  0.0948 -0.0078  0.0388
  299MOL0     C40295   3.232   6.173   2.439 -0.3060 -0.3282  0.3435
  299MOL0     C40296   3.364   6.231   2.422  0.8935  0.3244  0.9569
  299MOL0     C40297   3.361   6.377   2.465 -0.1741  0.8310  0.6787
  299MOL0     H40298   3.866   6.312   2.380 -0.5465 -2.0599  2.5678
  299MOL0     H40299   4.106   6.317   2.323 -0.2088  0.5543 -0.7215
  299MOL0     H40300   4.318   6.004   2.041 -1.9055 -0.0722  0.7133
  299MOL0     H40301   4.268   6.144   1.952  5.0259 -1.2221 -1.9358
  299MOL0     H40302   4.502   6.162   2.145  0.9527  3.1031  0.4656
  299MOL0     H40303   4.436   6.282   2.034  0.7533  0.7756  4.8500
  299MOL0     H40304   4.491   6.115   1.843 -1.2486  1.0931 -0.2845
  299MOL0     H40305   4.537   5.998   1.957 -1.2404  0.1626  0.1473
  299MOL0     H40306   4.702   6.188   2.037 -2.1984 -0.6221 -0.2769
  299MOL0     H40307   4.751   6.103   1.889  1.2371  1.6686 -3.0025
  299MOL0     H40308   4.691   6.284   1.758 -0.3041 -0.3284  0.2896
  299MOL0     H40309   4.566   6.349   1.861 -0.7872  0.7693 -0.8707
  299MOL0     H40310   4.751   6.500   1.885  2.6617  1.4929  0.5381
  299MOL0     H40311   4.743   6.409   2.036  2.2141  1.6962  0.8688
  299MOL0     H40312   4.948   6.404   1.821 -0.8305 -0.2049 -0.0160
  299MOL0     H40313   4.943   6.268   1.941  0.3091  0.8672  0.9054
  299MOL0     H40314   5.079   6.510   1.962 -0.7450  0.9515 -1.4171
  299MOL0     H40315   4.925   6.545   2.033 -0.4072 -0.4381  0.6830
  299MOL0     H40316   5.183   6.252   2.058 -0.1213 -3.5851  1.2602
  299MOL0     H40317   5.258   6.164   2.419  1.7245  1.2448  0.1714
  299MOL0     H40318   5.328   6.165   2.252 -4.1130 -0.0877 -2.2391
  299MOL0     H40319   5.344   6.410   2.438  1.4317  1.5138  1.4291
  299MOL0     H40320   5.449   6.260   2.461  0.1468 -1.0354 -2.2191
  299MOL0     H40321   5.417   6.429   2.212  0.9027  0.5218 -0.1353
  299MOL0     H40322   5.501   6.279   2.222  0.8902  0.7408 -0.9880
  299MOL0     H40323   5.585   6.542   2.356 -0.2390  0.8419 -2.4636
  299MOL0     H40324   5.657   6.440   2.232 -0.4719  1.4573  0.0898
  299MOL0     H40325   5.828   6.544   2.312 -1.9413 -1.3207  0.6212
  299MOL0     H40326   6.034   6.644   2.401 -0.3924  0.5290  0.6128
  299MOL0     H40327   6.194   6.832   2.875 -0.3776  3.0745 -1.3242
  299MOL0     H40328   6.409   6.876   2.987  0.6765 -2.2572  1.0478
  299MOL0     H40329   6.803   6.817   2.781 -1.5873 -0.6158 -0.3728
  299MOL0     H40330   6.748   6.973   2.719 -0.6902 -1.5821 -0.3677
  299MOL0     H40331   6.812   7.043   2.968 -0.8049 -0.9270 -0.5493
  299MOL0     H40332   6.914   6.892   2.968 -0.7257  0.4943  3.7460
  299MOL0     H40333   6.958   7.151   2.796 -0.3776 -0.1907  0.2662
  299MOL0     H40334   7.055   7.088   2.927  0.5762 -1.1016  0.6340
  299MOL0     H40335   7.000   6.976   2.650 -0.4859  2.0325 -0.8165
  299MOL0     H40336   7.086   6.883   2.775 -0.0131  0.0621 -0.7214
  299MOL0     H40337   7.267   6.992   2.675  0.1998  1.0417 -1.4956
  299MOL0     H40338   7.241   7.089   2.801  2.5043  0.4921 -0.4708
  299MOL0     H40339   7.111   7.259   2.665 -0.6233  0.2674 -0.9507
  299MOL0     H40340   7.261   7.213   2.584 -1.6706 -1.1139 -4.4393
  299MOL0     H40341   6.991   7.139   2.488  0.5117 -0.6738  1.1032
  299MOL0     H40342   7.141   7.065   2.434 -0.6022 -0.3005  0.4270
  299MOL0     H40343   7.089   7.373   2.430  0.9873  0.9315  0.4116
  299MOL0     H40344   7.243   7.306   2.388 -0.6022  4.2986 -0.8646
  299MOL0     H40345   6.620   6.822   2.616  2.1875 -1.5397  4.1820
  299MOL0     H40346   6.419   6.739   2.514 -0.7271 -3.6641  1.6452
  299MOL0     H40347   5.940   6.451   2.781 -0.4151 -0.0414 -0.1922
  299MOL0     H40348   5.769   6.331   2.665  1.5286 -0.3537  0.3693
  299MOL0     H40349   4.056   5.985   2.060  0.2890  0.2468 -0.1717
  299MOL0     H40350   3.814   5.994   2.080  3.2272 -1.3552 -2.2014
  299MOL0     H40351   3.491   5.965   2.237  0.1171 -0.1254 -0.7691
  299MOL0     H40352   3.263   5.866   2.342  3.0680 -2.2292  1.4378
  299MOL0     H40353   2.969   6.165   2.378  1.8911  2.8075  2.8827
  299MOL0     H40354   2.945   6.117   2.547  0.7625 -0.4839 -0.0768
  299MOL0     H40355   2.763   6.008   2.454 -1.2729 -3.2209  1.2420
  299MOL0     H40356   2.883   5.892   2.472 -1.2480 -1.1000 -0.8017
  299MOL0     H40357   2.959   5.910   2.227  0.3141 -0.3217 -0.6232
  299MOL0     H40358   2.837   6.044   2.211 -1.9424 -2.2284 -1.6143
  299MOL0     H40359   2.728   5.828   2.129 -3.5519 -0.7512  1.2422
  299MOL0     H40360   2.786   5.750   2.267  1.0018  1.0366  0.0966
  299MOL0     H40361   2.425   5.978   2.360 -1.2781 -2.0553 -1.0000
  299MOL0     H40362   3.158   6.234   2.488 -2.2919 -0.8860 -1.8096
  299MOL0     H40363   3.317   6.393   2.564 -1.6865  1.6036 -0.0810
  299MOL0     H40364   3.463   6.415   2.471  0.8372 -0.8910 -2.7918
  299MOL0     H40365   3.305   6.441   2.396 -0.5341  2.4844  2.4423
  300MOL0     O40366  10.410  10.557   9.899 -0.5569  0.7735  0.1894
  300MOL0     C40367  10.503  10.528   9.973 -0.0694 -0.1965 -0.4041
  300MOL0     O40368  10.495  10.495  10.103  0.8558 -0.3879  0.4724
  300MOL0     C40369  10.588  10.420  10.164 -0.0865 -0.5802  0.0903
  300MOL0     C40370  10.650  10.472  10.286 -0.2316  0.3439  0.2868
  300MOL0     C40371  10.736  10.383  10.346 -0.0841 -0.9019  0.1320
  300MOL0     C40372  10.765  10.256  10.304  0.6722 -0.1626  0.4097
  300MOL0     O40373  10.860  10.194  10.378  0.4091 -0.0862 -0.3102
  300MOL0     C40374  10.906  10.067  10.327  0.9772  0.7268 -0.1600
  300MOL0     C40375  10.983   9.992  10.439 -1.1955  0.3009  0.7286
  300MOL0     C40376  11.127  10.059  10.457  0.3803 -0.3895  0.1094
  300MOL0     C40377  11.150  10.069  10.602  0.0262 -0.8905 -1.4034
  300MOL0     C40378  11.278  10.164  10.631 -0.5762 -0.0262 -0.0800
  300MOL0     C40379  11.300  10.190  10.771  0.2393  0.5017 -0.5931
  300MOL0     C40380  11.302  10.064  10.863 -0.2511  0.7112  0.5775
  300MOL0     C40381  11.364  10.090  11.004  0.0870  0.2167  0.7204
  300MOL0     N40382  11.516  10.084  11.009 -1.0765  0.4396 -0.5416
  300MOL0     C40383  11.600  10.188  11.030  0.7791 -0.1546  0.1838
  300MOL0     C40384  11.721  10.142  10.988  0.7431 -0.4321 -0.7302
  300MOL0     C40385  11.849  10.211  11.006 -0.5052 -0.6863 -1.2677
  300MOL0     C40386  11.921  10.201  11.145 -0.7240 -0.3413 -0.0856
  300MOL0     C40387  11.942  10.046  11.180  0.5730 -0.1146 -0.3201
  300MOL0     C40388  11.978  10.032  11.327 -0.5596 -0.2742  0.5048
  300MOL0     O40389  12.093  10.110  11.361  0.1146  0.0520 -0.3060
  300MOL0     C40390  12.221  10.061  11.334  0.2919  0.2120  0.5506
  300MOL0     C40391  12.327  10.146  11.365  0.3305 -0.2835  0.6577
  300MOL0     C40392  12.460  10.108  11.350 -0.0331  0.5869 -0.0672
  300MOL0     C40393  12.494   9.981  11.308  0.5140  0.2991  0.3137
  300MOL0     C40394  12.633   9.946  11.298  0.0936  0.1437 -0.0205
  300MOL0     O40395  12.717  10.047  11.303  0.5203  0.3001  0.6272
  300MOL0     C40396  12.848  10.034  11.264  0.0018  0.3318  0.4470
  300MOL0     C40397  12.879   9.964  11.143 -0.5348 -1.2109 -0.5437
  300MOL0     C40398  13.006   9.963  11.090 -0.5826  0.5749  0.1985
  300MOL0     C40399  13.117  10.012  11.164 -0.2982 -0.7462 -0.0579
  300MOL0     O40400  13.251   9.998  11.140 -0.0018 -0.1504 -0.4882
  300MOL0     C40401  13.283   9.949  11.016 -0.1112  0.0353  0.7903
  300MOL0     C40402  13.430   9.949  10.993 -0.1519  0.1953  0.2731
  300MOL0     C40403  13.480   9.934  10.851 -0.7475 -0.0579  0.5661
  300MOL0     C40404  13.635   9.951  10.865  0.5498 -0.8994  0.5607
  300MOL0     C40405  13.708   9.925  10.729  0.6392 -0.9437 -0.0573
  300MOL0     C40406  13.853   9.984  10.740  0.9435 -0.1087  0.8092
  300MOL0     C40407  13.941   9.897  10.831 -0.0861  0.3634 -0.2183
  300MOL0     C40408  14.086   9.954  10.828  0.1899  0.8695 -0.1065
  300MOL0    Cl40409  14.162   9.903  10.676 -0.3660 -0.5243 -0.3688
  300MOL0     C40410  13.081  10.084  11.288  0.0617  0.7901 -0.5789
  300MOL0     C40411  12.945  10.095  11.337  0.9525 -0.7429  0.2909
  300MOL0     O40412  12.668   9.828  11.283 -0.4791  0.0122 -1.0225
  300MOL0     C40413  12.393   9.887  11.286 -0.6017 -0.3609 -0.4379
  300MOL0     C40414  12.259   9.930  11.309  0.0971 -0.1075  0.6135
  300MOL0     N40415  11.709  10.012  10.954  0.2207 -1.0534 -0.1978
  300MOL0     N40416  11.585   9.973  10.968 -0.3444 -0.4028 -0.3473
  300MOL0     C40417  10.677  10.202  10.195 -0.0136 -0.5687 -0.7072
  300MOL0     C40418  10.602  10.288  10.124 -0.5801 -0.1373 -1.2900
  300MOL0     C40419  10.643  10.543   9.910  0.6283  0.9201  0.1320
  300MOL0     C40420  10.738  10.622   9.975 -0.5188 -0.0051 -0.9595
  300MOL0     C40421  10.870  10.648   9.933  0.7322 -0.4214  0.5591
  300MOL0     C40422  10.906  10.583   9.818  0.0891  0.0489  0.0198
  300MOL0     O40423  11.030  10.597   9.762  0.2580  0.6217 -0.4792
  300MOL0     C40424  11.117  10.707   9.792 -0.1135 -1.0808 -0.7861
  300MOL0     C40425  11.216  10.673   9.903 -0.2541  0.7704  0.5409
  300MOL0     C40426  11.314  10.795   9.925 -0.0173 -0.7931  1.2262
  300MOL0     C40427  11.399  10.788  10.050  0.9050 -0.1133  0.7659
  300MOL0     C40428  11.511  10.699  10.023  0.2604  0.5039 -0.6531
  300MOL0     C40429  11.611  10.631  10.004 -0.2640 -0.4686  0.3114
  300MOL0     C40430  10.811  10.510   9.739  0.0622  0.5597 -0.5824
  300MOL0     C40431  10.681  10.484   9.785  0.3754 -0.5941 -0.0167
  300MOL0     C40432  10.591  10.410   9.709  0.2227 -0.0645  0.3254
  300MOL0     H40433  10.630  10.571  10.325 -1.5826  0.7823 -1.3728
  300MOL0     H40434  10.776  10.420  10.439  1.1097 -1.2073 -0.2486
  300MOL0     H40435  10.817  10.015  10.290  1.2371  1.1984 -1.4990
  300MOL0     H40436  10.975  10.079  10.244 -0.0525 -0.1515 -1.1729
  300MOL0     H40437  10.990   9.883  10.432 -1.3112  0.1263  2.7824
  300MOL0     H40438  10.927  10.006  10.531 -0.7270  0.2754  1.0185
  300MOL0     H40439  11.136  10.156  10.407 -1.4145 -0.8292 -1.1779
  300MOL0     H40440  11.200   9.997  10.403 -1.1545 -0.7002 -1.7382
  300MOL0     H40441  11.059  10.114  10.643 -0.2421 -3.2181  0.8118
  300MOL0     H40442  11.169   9.969  10.641 -0.5573 -0.4861 -0.0266
  300MOL0     H40443  11.362  10.101  10.599 -0.1764  1.1146 -1.3930
  300MOL0     H40444  11.284  10.257  10.573  2.2582 -0.7023 -1.0778
  300MOL0     H40445  11.393  10.246  10.783  0.1613  0.2046  1.9082
  300MOL0     H40446  11.214  10.252  10.798  0.3002  1.2736 -2.0521
  300MOL0     H40447  11.357   9.981  10.818 -3.0796  0.0375 -1.9778
  300MOL0     H40448  11.198  10.028  10.867 -0.1555 -0.3650 -3.2190
  300MOL0     H40449  11.333  10.182  11.055  1.8483 -0.2105  2.7448
  300MOL0     H40450  11.329  10.008  11.068  1.8382 -0.7311  0.5419
  300MOL0     H40451  11.581  10.284  11.076  0.1155  0.1661 -0.7302
  300MOL0     H40452  11.919  10.168  10.934  0.6489 -0.4146 -0.3396
  300MOL0     H40453  11.831  10.315  10.980  0.6459 -0.0533  0.3265
  300MOL0     H40454  12.015  10.257  11.140 -1.5861  1.0498 -1.4789
  300MOL0     H40455  11.862  10.240  11.228 -0.6275 -0.8463  0.2283
  300MOL0     H40456  12.019  10.008  11.113 -1.4099 -0.9619 -2.2383
  300MOL0     H40457  11.846   9.997  11.166  0.9819 -0.5802 -1.5580
  300MOL0     H40458  11.992   9.931  11.366  1.9432  0.9870  3.1824
  300MOL0     H40459  11.897  10.082  11.381 -0.3665  1.1138 -0.4379
  300MOL0     H40460  12.308  10.240  11.415  1.2228 -0.6204  1.6679
  300MOL0     H40461  12.539  10.181  11.366  0.5702  1.1116 -4.2683
  300MOL0     H40462  12.793   9.919  11.094 -0.9326 -0.8579 -0.1761
  300MOL0     H40463  13.012   9.900  11.001 -1.5421 -2.0950  1.9001
  300MOL0     H40464  13.257   9.843  11.005  1.4322 -0.0845 -2.9388
  300MOL0     H40465  13.230  10.009  10.942  0.4852 -0.2444  0.1283
  300MOL0     H40466  13.477  10.036  11.041  0.4775  0.0027  0.0181
  300MOL0     H40467  13.467   9.868  11.056 -0.4914  0.7466  1.1955
  300MOL0     H40468  13.454   9.833  10.817  2.2303 -0.2955 -1.3557
  300MOL0     H40469  13.440  10.006  10.780  0.9330  1.3559  0.9842
  300MOL0     H40470  13.678   9.885  10.941  0.6673 -1.2861  0.1657
  300MOL0     H40471  13.656  10.053  10.896 -0.6220 -1.0444  1.8990
  300MOL0     H40472  13.649   9.973  10.651  1.7251  0.6511  0.0730
  300MOL0     H40473  13.724   9.819  10.704  0.7555 -1.1360  0.7638
  300MOL0     H40474  13.888   9.973  10.637 -2.1493 -1.5618 -0.2088
  300MOL0     H40475  13.872  10.089  10.761  0.7840  0.3071 -1.0032
  300MOL0     H40476  13.950   9.792  10.801 -1.7621 -0.0816  0.7159
  300MOL0     H40477  13.903   9.904  10.934 -0.7559 -0.0096 -0.4367
  300MOL0     H40478  14.095  10.059  10.858  2.4316  0.1667  1.9359
  300MOL0     H40479  14.135   9.899  10.909  0.3681  0.6721 -0.3503
  300MOL0     H40480  13.163  10.124  11.346  0.0349  3.9033 -2.4547
  300MOL0     H40481  12.921  10.147  11.429  0.9559  0.6217 -0.4576
  300MOL0     H40482  12.413   9.782  11.273  2.8800 -0.3621  2.9781
  300MOL0     H40483  12.189   9.852  11.279  1.0890 -0.4239 -1.0313
  300MOL0     H40484  10.671  10.098  10.165 -1.2416 -0.8330  0.4031
  300MOL0     H40485  10.547  10.253  10.037 -0.5506  2.5180 -2.4674
  300MOL0     H40486  10.702  10.677  10.062 -0.9030 -1.0555 -0.4360
  300MOL0     H40487  10.942  10.709   9.986  1.1882  1.4895 -2.0750
  300MOL0     H40488  11.061  10.799   9.810  3.2027  0.6641  1.6452
  300MOL0     H40489  11.170  10.725   9.698 -2.2387  0.6138 -1.7704
  300MOL0     H40490  11.271  10.582   9.877 -0.4385  0.8032  0.0402
  300MOL0     H40491  11.153  10.653   9.991 -0.1119 -3.8938 -0.1780
  300MOL0     H40492  11.255  10.886   9.938 -1.5397 -1.6256  0.4351
  300MOL0     H40493  11.376  10.801   9.835  0.9968 -1.0204  1.8933
  300MOL0     H40494  11.444  10.883  10.080 -0.8039 -0.0466  3.4401
  300MOL0     H40495  11.350  10.753  10.142 -0.2162 -1.6341 -0.3578
  300MOL0     H40496  11.694  10.569   9.977 -0.8961 -1.0503 -0.3441
  300MOL0     H40497  10.838  10.462   9.645  1.6851  2.2246 -1.0247
  300MOL0     H40498  10.534  10.332   9.761 -1.0748 -0.5870 -1.7250
  300MOL0     H40499  10.518  10.488   9.684 -1.1236  0.3589  4.8194
  300MOL0     H40500  10.625  10.373   9.612 -1.4628 -1.4099  0.2014
  301MOL0     O40501   5.256   3.664   9.446  0.4566  0.8283  0.1207
  301MOL0     C40502   5.163   3.692   9.372 -0.1128 -0.1554 -0.5686
  301MOL0     O40503   5.172   3.777   9.269 -0.1876 -0.2204 -0.0755
  301MOL0     C40504   5.288   3.849   9.253  0.3391 -0.3412  0.0980
  301MOL0     C40505   5.336   3.921   9.361 -0.4251 -0.8216  0.0122
  301MOL0     C40506   5.455   4.003   9.344 -0.0631 -0.0731 -0.0500
  301MOL0     C40507   5.529   3.997   9.221  0.2372  0.2303  0.0189
  301MOL0     O40508   5.648   4.056   9.201  0.5023  0.0920  0.3505
  301MOL0     C40509   5.725   4.119   9.303  0.1609 -0.1627 -0.3269
  301MOL0     C40510   5.873   4.103   9.286  0.8191 -0.3620 -0.7484
  301MOL0     C40511   5.911   3.959   9.316  0.8996 -1.0894  0.8112
  301MOL0     C40512   6.058   3.934   9.299 -0.6386 -1.7008  0.3262
  301MOL0     C40513   6.096   3.788   9.351 -0.5041 -0.8960  0.4471
  301MOL0     C40514   6.065   3.763   9.500  0.6525 -1.0862 -0.6593
  301MOL0     C40515   6.150   3.659   9.577 -0.8159 -0.1341 -0.2048
  301MOL0     C40516   6.153   3.527   9.503  0.0681 -0.3263  0.2655
  301MOL0     N40517   6.033   3.446   9.498  0.0570 -0.0662  0.6856
  301MOL0     C40518   5.920   3.455   9.413  0.1357 -0.0661  0.0824
  301MOL0     C40519   5.823   3.376   9.464  0.5056  0.1094 -0.0537
  301MOL0     C40520   5.676   3.358   9.418  0.4776  0.1938 -0.6333
  301MOL0     C40521   5.579   3.337   9.536 -0.4004  0.9207 -0.1786
  301MOL0     C40522   5.435   3.328   9.485 -0.1240  0.4571  0.4152
  301MOL0     C40523   5.400   3.239   9.370 -1.0342  0.2721  0.1656
  301MOL0     O40524   5.263   3.198   9.371 -0.8724  0.2125 -0.5875
  301MOL0     C40525   5.213   3.120   9.273  0.9614  0.4151  0.2628
  301MOL0     C40526   5.281   3.069   9.165 -0.2433  0.5253 -0.4252
  301MOL0     C40527   5.222   2.991   9.062 -0.6861 -0.5192  0.1880
  301MOL0     C40528   5.087   2.968   9.075  0.0039 -0.7123 -0.1893
  301MOL0     C40529   4.999   2.920   8.963 -0.4679  0.3800 -0.9387
  301MOL0     O40530   4.868   2.927   8.993  1.0390 -0.3801  0.1206
  301MOL0     C40531   4.775   2.887   8.888 -0.0846  0.2394 -0.4449
  301MOL0     C40532   4.755   2.957   8.769 -0.1920  0.0198  1.1257
  301MOL0     C40533   4.653   2.935   8.678 -0.6993  0.3135 -0.7171
  301MOL0     C40534   4.569   2.828   8.717  0.1592 -0.2889 -0.0605
  301MOL0     O40535   4.473   2.790   8.628  0.2545 -0.0242 -0.0014
  301MOL0     C40536   4.358   2.722   8.671 -0.1660 -0.2956 -0.2237
  301MOL0     C40537   4.256   2.698   8.561 -0.4811 -0.4040 -0.4937
  301MOL0     C40538   4.137   2.614   8.605  1.2680  0.1173  0.2454
  301MOL0     C40539   4.026   2.615   8.499  0.3738  0.2241 -0.3375
  301MOL0     C40540   3.897   2.555   8.560  0.1719 -0.5327 -0.6026
  301MOL0     C40541   3.768   2.611   8.503 -0.3645  0.2128 -0.1860
  301MOL0     C40542   3.634   2.541   8.545 -0.6834 -0.6462  0.6336
  301MOL0     C40543   3.519   2.602   8.472  0.0765  0.7237 -0.9690
  301MOL0    Cl40544   3.483   2.766   8.557  0.3469 -0.1933 -0.2946
  301MOL0     C40545   4.579   2.760   8.836  0.2593 -0.2175 -0.4579
  301MOL0     C40546   4.686   2.786   8.920  0.6903 -0.4742  0.3512
  301MOL0     O40547   5.051   2.873   8.864 -0.1708  0.0704  1.0716
  301MOL0     C40548   5.024   3.014   9.191 -0.6864  0.3191  0.0106
  301MOL0     C40549   5.080   3.083   9.294  1.1073  0.4216 -0.3328
  301MOL0     N40550   5.879   3.311   9.575  0.0762 -0.4364 -0.0852
  301MOL0     N40551   5.994   3.359   9.598 -0.3423  0.3715  0.3103
  301MOL0     C40552   5.473   3.922   9.111 -1.2886  0.3422 -0.5897
  301MOL0     C40553   5.353   3.849   9.129 -0.4027  0.2819 -0.3459
  301MOL0     C40554   5.026   3.646   9.397 -0.8354 -0.8335  0.5913
  301MOL0     C40555   4.921   3.722   9.340  0.0495  0.7578 -0.4832
  301MOL0     C40556   4.787   3.690   9.375  0.4258  0.0142 -1.0288
  301MOL0     C40557   4.749   3.595   9.471  0.4264  0.0035  0.5561
  301MOL0     O40558   4.622   3.574   9.513  0.7798  0.2511  0.3455
  301MOL0     C40559   4.511   3.642   9.461  0.0099 -0.5027  0.4050
  301MOL0     C40560   4.455   3.572   9.335  0.7291  0.0761  0.2037
  301MOL0     C40561   4.339   3.657   9.285  0.6694 -0.7731 -0.2904
  301MOL0     C40562   4.248   3.592   9.180 -0.5128 -0.3624  0.5213
  301MOL0     C40563   4.124   3.682   9.182 -0.1121 -0.2948 -0.9046
  301MOL0     C40564   4.019   3.750   9.168  0.2185  0.5561  0.0649
  301MOL0     C40565   4.852   3.538   9.534  1.0771 -0.0063 -0.4678
  301MOL0     C40566   4.985   3.551   9.497  0.5281  0.5766 -0.3173
  301MOL0     C40567   5.085   3.451   9.564 -0.0006  0.0681  0.7224
  301MOL0     H40568   5.289   3.926   9.459  3.3338  0.1469  1.9858
  301MOL0     H40569   5.496   4.057   9.429 -1.5616  0.3211  0.4439
  301MOL0     H40570   5.712   4.228   9.307 -1.6802 -0.3926  0.8951
  301MOL0     H40571   5.709   4.069   9.398 -0.6716 -1.6991 -1.2387
  301MOL0     H40572   5.924   4.167   9.358  1.8856 -1.6467 -0.3147
  301MOL0     H40573   5.895   4.128   9.182 -1.1159 -0.3659 -1.2024
  301MOL0     H40574   5.860   3.901   9.239  0.6743 -0.3245  0.3794
  301MOL0     H40575   5.877   3.937   9.418  2.0986 -0.4107  1.3754
  301MOL0     H40576   6.083   3.945   9.193  1.0833 -0.0277  0.8603
  301MOL0     H40577   6.114   4.013   9.350 -0.3743 -0.0694 -2.2669
  301MOL0     H40578   6.045   3.716   9.287  1.7796 -0.9749 -1.4074
  301MOL0     H40579   6.200   3.756   9.340  0.8213  3.2244 -1.0634
  301MOL0     H40580   6.081   3.855   9.557 -2.4273 -2.3148  2.6720
  301MOL0     H40581   5.957   3.743   9.510 -1.0576  5.5933 -0.8934
  301MOL0     H40582   6.119   3.643   9.681 -0.0866  3.4385  0.6727
  301MOL0     H40583   6.254   3.693   9.587 -1.0374  0.0565  1.8844
  301MOL0     H40584   6.186   3.547   9.401 -0.2837  1.3963  0.4432
  301MOL0     H40585   6.240   3.471   9.539  2.0511  2.1688 -0.2665
  301MOL0     H40586   5.900   3.522   9.330  1.1601 -0.9693 -0.9306
  301MOL0     H40587   5.643   3.446   9.361 -0.6901 -0.2572 -0.6847
  301MOL0     H40588   5.667   3.273   9.350  2.6220 -0.0540 -0.6644
  301MOL0     H40589   5.604   3.241   9.580  0.3279  1.5949  0.9369
  301MOL0     H40590   5.604   3.414   9.610  1.8856  1.6019 -1.5806
  301MOL0     H40591   5.408   3.431   9.463  0.8220  1.6327  3.9522
  301MOL0     H40592   5.373   3.309   9.573 -0.3964  0.3467  0.2008
  301MOL0     H40593   5.464   3.151   9.367 -1.4384 -0.0625  0.9829
  301MOL0     H40594   5.426   3.290   9.277 -0.3390  0.1888  0.3079
  301MOL0     H40595   5.384   3.096   9.142  0.6990 -2.1153  0.2830
  301MOL0     H40596   5.273   2.944   8.979 -2.1169  0.2859 -1.2008
  301MOL0     H40597   4.820   3.042   8.747  0.8934 -0.7781  1.1504
  301MOL0     H40598   4.656   2.998   8.589  3.3221 -1.4113 -2.0558
  301MOL0     H40599   4.382   2.620   8.702 -1.7483 -0.9615 -1.0998
  301MOL0     H40600   4.310   2.774   8.755  0.3683  1.3405 -0.8804
  301MOL0     H40601   4.222   2.795   8.525  0.4002  1.5682  3.4766
  301MOL0     H40602   4.298   2.641   8.477 -1.0666 -2.0951  0.3133
  301MOL0     H40603   4.173   2.512   8.622  2.9859  0.9739  2.1699
  301MOL0     H40604   4.093   2.645   8.700 -2.3525 -0.8583 -0.9522
  301MOL0     H40605   4.049   2.559   8.407 -4.1237 -0.2192 -1.4467
  301MOL0     H40606   3.994   2.717   8.476 -2.4786 -0.3789  0.5736
  301MOL0     H40607   3.902   2.570   8.668  2.4931 -3.1956 -0.2092
  301MOL0     H40608   3.894   2.446   8.556 -0.2430 -0.6479  1.6957
  301MOL0     H40609   3.781   2.718   8.526 -2.3297 -0.2521  3.9033
  301MOL0     H40610   3.771   2.603   8.394  0.1244 -0.2268 -0.1459
  301MOL0     H40611   3.616   2.553   8.652  1.6480  7.1363  0.8052
  301MOL0     H40612   3.620   2.437   8.513 -1.8341  0.3571 -2.5770
  301MOL0     H40613   3.524   2.597   8.363 -4.9552 -0.0272 -1.4139
  301MOL0     H40614   3.436   2.539   8.504  0.1311  1.6999  1.2511
  301MOL0     H40615   4.505   2.687   8.869 -0.3598  0.5287 -0.1518
  301MOL0     H40616   4.694   2.738   9.017 -2.2564  0.2242  1.0259
  301MOL0     H40617   4.924   2.991   9.224 -0.4822 -0.6713 -0.0201
  301MOL0     H40618   5.033   3.099   9.391  0.1224 -0.2037 -0.6927
  301MOL0     H40619   5.515   3.925   9.011 -1.0212 -2.2686 -0.6171
  301MOL0     H40620   5.322   3.810   9.032  0.7155 -3.1765  0.5473
  301MOL0     H40621   4.938   3.812   9.283 -0.2914 -0.1808 -2.1298
  301MOL0     H40622   4.708   3.744   9.323  1.5917  0.1552 -2.7431
  301MOL0     H40623   4.537   3.746   9.437  2.3073 -1.0164  0.4713
  301MOL0     H40624   4.434   3.651   9.539 -1.3448  1.8645 -1.0657
  301MOL0     H40625   4.423   3.473   9.368 -3.5757  1.5991  1.3305
  301MOL0     H40626   4.530   3.573   9.256 -1.1686 -1.0381 -1.7464
  301MOL0     H40627   4.385   3.747   9.242  0.2683 -0.1418  0.5569
  301MOL0     H40628   4.279   3.690   9.370  0.5784  0.5526 -0.8394
  301MOL0     H40629   4.291   3.593   9.079 -1.7025 -1.1812 -0.0227
  301MOL0     H40630   4.221   3.489   9.205  0.4996 -0.8520 -0.3322
  301MOL0     H40631   3.932   3.809   9.146 -1.1720 -0.9988  1.1119
  301MOL0     H40632   4.815   3.470   9.610  1.7526 -1.6105 -1.5178
  301MOL0     H40633   5.042   3.370   9.624  0.3450 -2.0774 -1.7310
  301MOL0     H40634   5.132   3.397   9.482 -2.0415 -0.6226 -0.0598
  301MOL0     H40635   5.165   3.500   9.621 -0.1748  1.0417  0.1393
  302MOL0     O40636   4.338   3.992   6.856 -0.0345 -0.0821 -0.1265
  302MOL0     C40637   4.264   4.046   6.940  0.0450  0.2239  1.1504
  302MOL0     O40638   4.300   4.070   7.067  0.0307  0.4341  0.3318
  302MOL0     C40639   4.430   4.061   7.101 -0.6567 -0.3759 -0.8782
  302MOL0     C40640   4.478   3.950   7.175  0.2897 -0.2073  0.4487
  302MOL0     C40641   4.609   3.953   7.230 -0.4026 -0.6533  0.4356
  302MOL0     C40642   4.698   4.052   7.216  0.4563  0.7335  0.4503
  302MOL0     O40643   4.825   4.021   7.263  0.0160 -0.4814 -0.1702
  302MOL0     C40644   4.887   4.133   7.322  0.9084 -0.9555 -0.2346
  302MOL0     C40645   5.002   4.114   7.426  0.4662 -0.0460 -1.0553
  302MOL0     C40646   5.122   4.084   7.328  0.2178  0.7334 -1.0440
  302MOL0     C40647   5.256   4.125   7.401 -0.1415  0.4561 -0.3995
  302MOL0     C40648   5.375   4.060   7.335 -0.1230  0.1004 -0.2960
  302MOL0     C40649   5.512   4.093   7.401  0.2302 -0.6280 -0.7207
  302MOL0     C40650   5.574   4.213   7.361  0.1618 -0.1300  1.0614
  302MOL0     C40651   5.518   4.330   7.431 -0.5592 -1.3199 -0.7342
  302MOL0     N40652   5.583   4.466   7.416  0.4951  0.7381  0.1944
  302MOL0     C40653   5.677   4.517   7.498 -0.7176 -0.3256 -0.2249
  302MOL0     C40654   5.719   4.631   7.433  0.2898  0.1042 -0.3223
  302MOL0     C40655   5.805   4.726   7.500  0.1598  0.2289 -0.1291
  302MOL0     C40656   5.952   4.675   7.486 -0.3978 -0.0965 -0.3887
  302MOL0     C40657   6.048   4.755   7.573  0.1954 -0.1902 -0.1092
  302MOL0     C40658   6.189   4.706   7.588 -0.1406 -0.8487  0.3861
  302MOL0     O40659   6.261   4.814   7.658 -0.3746 -0.2447 -0.3129
  302MOL0     C40660   6.396   4.823   7.633  0.7246 -0.0826 -0.3173
  302MOL0     C40661   6.444   4.951   7.660  0.3205  0.2060  0.0849
  302MOL0     C40662   6.584   4.981   7.653  1.1514 -0.6454 -0.1126
  302MOL0     C40663   6.674   4.890   7.609  0.1253  0.2726 -0.1765
  302MOL0     C40664   6.817   4.923   7.599  0.1339  0.4314  0.3093
  302MOL0     O40665   6.853   5.044   7.659 -0.1725  0.3475 -0.4194
  302MOL0     C40666   6.976   5.095   7.647 -0.1162 -0.2421  0.2160
  302MOL0     C40667   7.002   5.175   7.539 -0.2087  0.5708  0.2137
  302MOL0     C40668   7.133   5.232   7.522 -0.8864  0.3732 -0.0044
  302MOL0     C40669   7.234   5.214   7.623 -0.8548 -0.9660 -0.6005
  302MOL0     O40670   7.367   5.250   7.604 -0.4594  0.2102 -0.2641
  302MOL0     C40671   7.474   5.156   7.619  0.0792  0.8534  0.0319
  302MOL0     C40672   7.552   5.208   7.740  0.2703 -0.3326  0.7523
  302MOL0     C40673   7.644   5.327   7.707  0.0558 -0.7623 -0.7604
  302MOL0     C40674   7.780   5.283   7.658  0.4863 -0.2264 -0.3985
  302MOL0     C40675   7.867   5.398   7.620 -0.4950  0.1298  0.3229
  302MOL0     C40676   8.004   5.344   7.571  1.0489 -0.6661  0.2237
  302MOL0     C40677   8.095   5.445   7.507  0.1004  0.5756  0.2160
  302MOL0     C40678   8.133   5.569   7.585  0.2977  0.6781  0.7648
  302MOL0    Cl40679   8.231   5.525   7.727 -0.3001 -0.4064  0.1567
  302MOL0     C40680   7.204   5.146   7.738  0.5395  0.2299  0.1130
  302MOL0     C40681   7.079   5.091   7.744 -0.4953 -0.1324 -1.0187
  302MOL0     O40682   6.897   4.846   7.547 -0.0799 -0.1122  0.3100
  302MOL0     C40683   6.629   4.772   7.559 -0.2839  0.1949  0.5334
  302MOL0     C40684   6.491   4.738   7.578 -0.5823  0.1500 -0.3415
  302MOL0     N40685   5.643   4.648   7.320  0.1350  0.0405  0.9078
  302MOL0     N40686   5.563   4.541   7.309  0.0985 -0.7474  0.9593
  302MOL0     C40687   4.662   4.160   7.130  0.9405  1.2860  0.4557
  302MOL0     C40688   4.532   4.165   7.073 -0.1622  0.8569  0.0455
  302MOL0     C40689   4.146   4.105   6.898 -0.0686  0.4908 -0.3260
  302MOL0     C40690   4.024   4.052   6.936  0.5831  0.2307 -0.5714
  302MOL0     C40691   3.906   4.077   6.865 -0.2971 -0.1257  0.1173
  302MOL0     C40692   3.912   4.167   6.756  0.1276 -0.0150 -0.7208
  302MOL0     O40693   3.802   4.186   6.666 -0.2590  0.2921 -0.0346
  302MOL0     C40694   3.669   4.160   6.696  0.7700  0.4734 -0.2382
  302MOL0     C40695   3.593   4.283   6.695 -0.0552 -0.0247  1.0603
  302MOL0     C40696   3.554   4.331   6.555  0.6309 -0.0941 -0.3133
  302MOL0     C40697   3.440   4.249   6.485  0.2625 -0.1467 -0.5792
  302MOL0     C40698   3.317   4.244   6.562 -0.3697  0.3733  0.2492
  302MOL0     C40699   3.225   4.245   6.647 -0.4103 -0.3819 -0.0671
  302MOL0     C40700   4.035   4.238   6.720 -0.5141 -0.7044 -0.3296
  302MOL0     C40701   4.156   4.200   6.787  0.6598  0.4856 -0.0935
  302MOL0     C40702   4.276   4.271   6.729  0.5627  0.4357  0.4092
  302MOL0     H40703   4.406   3.874   7.205  1.0955 -1.6730 -1.1384
  302MOL0     H40704   4.634   3.862   7.285  0.0800  0.4690  2.1424
  302MOL0     H40705   4.922   4.208   7.251 -1.0441  0.9621  0.7199
  302MOL0     H40706   4.812   4.190   7.378  2.5985  2.2320 -1.0124
  302MOL0     H40707   4.981   4.026   7.487  0.7713  0.1898 -0.6031
  302MOL0     H40708   5.031   4.205   7.480  1.9305 -1.3520  0.4408
  302MOL0     H40709   5.117   4.120   7.226 -2.1218 -2.3649 -2.1858
  302MOL0     H40710   5.127   3.974   7.323 -0.4136  0.5061  1.5717
  302MOL0     H40711   5.261   4.234   7.407  2.1762  0.4760 -1.3690
  302MOL0     H40712   5.265   4.080   7.500  0.0827  1.1187 -0.1128
  302MOL0     H40713   5.361   3.951   7.333  0.4820  0.0267 -1.3612
  302MOL0     H40714   5.378   4.086   7.229 -1.7860  0.6315 -0.2405
  302MOL0     H40715   5.509   4.089   7.510  0.1425 -1.6507 -0.7505
  302MOL0     H40716   5.578   4.008   7.380 -0.8299 -1.5091 -0.5846
  302MOL0     H40717   5.565   4.235   7.254  3.0438 -1.2656  0.4707
  302MOL0     H40718   5.683   4.206   7.373  0.6124  0.7899 -1.6055
  302MOL0     H40719   5.414   4.354   7.406 -1.2565 -1.6805  1.5966
  302MOL0     H40720   5.538   4.310   7.537  1.1904 -1.2436 -1.0155
  302MOL0     H40721   5.716   4.475   7.590 -0.3153  2.0839  0.7764
  302MOL0     H40722   5.791   4.817   7.441 -1.7007 -0.0949 -0.2461
  302MOL0     H40723   5.767   4.743   7.602 -0.7115  0.6313 -0.5057
  302MOL0     H40724   5.965   4.575   7.527  1.8191  0.8764  1.4948
  302MOL0     H40725   5.975   4.685   7.379  0.0197  0.6949 -0.2338
  302MOL0     H40726   6.017   4.753   7.678  1.9921  0.8346  0.4930
  302MOL0     H40727   6.047   4.863   7.554  2.4065 -0.0243  0.3823
  302MOL0     H40728   6.225   4.690   7.485 -0.6781  1.0100 -0.1299
  302MOL0     H40729   6.192   4.610   7.640 -0.9275 -1.5140 -0.7476
  302MOL0     H40730   6.379   5.031   7.695 -0.6853 -0.2936 -0.5955
  302MOL0     H40731   6.602   5.081   7.691 -2.3663  1.2204 -2.7044
  302MOL0     H40732   6.920   5.178   7.468 -1.2470 -1.4012  1.2429
  302MOL0     H40733   7.171   5.276   7.430  0.5552 -0.9897 -0.1059
  302MOL0     H40734   7.436   5.062   7.659 -4.2387  2.6534  0.7200
  302MOL0     H40735   7.538   5.150   7.530 -1.5739 -1.1769 -1.1254
  302MOL0     H40736   7.474   5.247   7.807 -0.5067  2.9852 -1.7912
  302MOL0     H40737   7.614   5.127   7.778  1.9045  0.4493 -0.1626
  302MOL0     H40738   7.603   5.393   7.629  1.2210  0.2843 -0.5098
  302MOL0     H40739   7.657   5.394   7.792 -0.0997  0.7355 -1.8664
  302MOL0     H40740   7.777   5.203   7.583 -0.1134 -1.1217  0.5649
  302MOL0     H40741   7.824   5.246   7.750  1.6032 -0.0114 -0.8309
  302MOL0     H40742   7.880   5.481   7.690 -0.0569  0.4820 -0.1648
  302MOL0     H40743   7.821   5.437   7.529 -1.2691 -1.2907  0.0781
  302MOL0     H40744   8.061   5.293   7.649  4.3918  0.8773 -0.9686
  302MOL0     H40745   7.986   5.269   7.494 -0.8919 -2.1749  2.0470
  302MOL0     H40746   8.057   5.485   7.412  0.4144 -0.1484 -0.2282
  302MOL0     H40747   8.186   5.394   7.475 -0.5537  0.3866 -1.4374
  302MOL0     H40748   8.169   5.641   7.512 -0.4216 -0.1048 -0.3928
  302MOL0     H40749   8.043   5.621   7.617 -0.5035 -0.6377  0.7354
  302MOL0     H40750   7.274   5.120   7.817  1.5558  0.8158 -0.5801
  302MOL0     H40751   7.062   5.034   7.836 -3.2231  0.0886 -1.3086
  302MOL0     H40752   6.689   4.710   7.492  0.1675  0.8053  0.3592
  302MOL0     H40753   6.442   4.648   7.541 -2.3507  0.5685  0.8552
  302MOL0     H40754   4.735   4.236   7.102 -0.5793  2.0123 -1.7953
  302MOL0     H40755   4.522   4.245   7.002  3.0710 -0.5951 -2.2498
  302MOL0     H40756   4.020   3.978   7.015 -4.5879  0.8412  0.0892
  302MOL0     H40757   3.814   4.028   6.895 -1.5733  1.7311 -0.6255
  302MOL0     H40758   3.656   4.109   6.792 -0.2967  1.6207  0.2474
  302MOL0     H40759   3.632   4.088   6.624  0.9890 -0.1504  0.2635
  302MOL0     H40760   3.644   4.362   6.751 -1.7006  3.4677 -2.0060
  302MOL0     H40761   3.502   4.265   6.754  0.4570  1.2552  2.3057
  302MOL0     H40762   3.636   4.335   6.483 -0.6006  0.9838 -1.7256
  302MOL0     H40763   3.524   4.435   6.571  0.1069 -0.2830 -0.0121
  302MOL0     H40764   3.421   4.301   6.391  1.2126  0.0042 -0.7001
  302MOL0     H40765   3.463   4.147   6.454  4.6832 -0.2434  2.1503
  302MOL0     H40766   3.145   4.237   6.719  0.3992  1.1131  1.0666
  302MOL0     H40767   4.023   4.317   6.647 -0.2861 -2.4644 -2.4040
  302MOL0     H40768   4.260   4.343   6.647 -0.7718 -1.0674 -0.7134
  302MOL0     H40769   4.319   4.328   6.812  1.1673 -1.1627  1.2218
  302MOL0     H40770   4.343   4.191   6.695 -1.4264 -1.8508  1.5845
  303MOL0     O40771   3.017   6.426   1.792 -0.6219 -0.5678 -0.3850
  303MOL0     C40772   2.935   6.374   1.860  0.6117  0.6528  0.1061
  303MOL0     O40773   2.950   6.252   1.919 -0.0520 -0.0432  0.8069
  303MOL0     C40774   3.075   6.192   1.894 -0.4202  0.4370  0.3820
  303MOL0     C40775   3.162   6.188   1.998 -0.6368 -0.9331 -0.2271
  303MOL0     C40776   3.293   6.126   1.984  0.3129 -0.0664 -0.3974
  303MOL0     C40777   3.329   6.090   1.856 -0.5254  0.5042 -1.1590
  303MOL0     O40778   3.459   6.049   1.820  0.2936 -0.8583  0.1179
  303MOL0     C40779   3.570   6.099   1.894  0.8776 -0.5332 -0.1713
  303MOL0     C40780   3.614   6.238   1.832  0.8289  0.0389  0.6810
  303MOL0     C40781   3.725   6.296   1.924 -0.0026 -0.7466  0.1038
  303MOL0     C40782   3.761   6.439   1.867  0.3546  0.0324  0.4122
  303MOL0     C40783   3.884   6.488   1.948 -0.2313  0.4435  0.2375
  303MOL0     C40784   3.846   6.562   2.083 -0.5138  0.2361  0.6870
  303MOL0     C40785   3.959   6.645   2.128  0.3241 -0.3422  0.0143
  303MOL0     C40786   3.964   6.663   2.278  0.3298  0.4798  0.3947
  303MOL0     N40787   3.854   6.759   2.320 -0.0367 -0.2551 -0.0774
  303MOL0     C40788   3.733   6.729   2.369 -0.7088  0.0169  0.3963
  303MOL0     C40789   3.674   6.848   2.388  0.0913 -0.7804  0.5005
  303MOL0     C40790   3.529   6.877   2.447  0.2194  0.2879 -0.2279
  303MOL0     C40791   3.424   6.870   2.328  0.9891 -0.1126 -0.4928
  303MOL0     C40792   3.467   6.965   2.207 -0.1421 -0.2784 -0.8218
  303MOL0     C40793   3.363   7.000   2.109  0.3181  0.4097 -0.1578
  303MOL0     O40794   3.237   7.046   2.170 -0.1662  0.6642 -0.4439
  303MOL0     C40795   3.132   7.051   2.081  0.1089 -0.4745  0.6072
  303MOL0     C40796   3.140   7.041   1.946 -0.0800 -0.8729  0.5921
  303MOL0     C40797   3.028   7.028   1.863 -0.5018  1.1582  0.1485
  303MOL0     C40798   2.896   7.021   1.922 -0.9909  0.6189 -0.7768
  303MOL0     C40799   2.767   7.009   1.843 -0.0119  0.0588  0.4952
  303MOL0     O40800   2.663   6.970   1.925 -0.0147  0.6925 -0.5466
  303MOL0     C40801   2.538   6.966   1.880 -0.1009  0.4471 -0.2144
  303MOL0     C40802   2.476   7.034   1.773  0.1680 -0.1993 -0.5853
  303MOL0     C40803   2.333   7.040   1.765  0.5526 -0.0567 -0.6857
  303MOL0     C40804   2.250   6.974   1.853  0.1659  1.1601  1.0342
  303MOL0     O40805   2.119   6.998   1.842  0.2183 -0.1925  0.2451
  303MOL0     C40806   2.023   6.887   1.863 -1.0154  0.1109  0.5803
  303MOL0     C40807   1.916   6.935   1.960  0.2976 -0.1490  0.4003
  303MOL0     C40808   1.816   6.820   1.992 -0.1605 -0.7592 -0.4329
  303MOL0     C40809   1.677   6.873   2.055  0.1597  0.2289 -0.1076
  303MOL0     C40810   1.640   6.785   2.173 -0.4714  0.7256  0.1412
  303MOL0     C40811   1.521   6.850   2.244 -0.3259 -0.3258  0.1352
  303MOL0     C40812   1.514   6.792   2.388 -0.5848 -0.5072  0.4737
  303MOL0     C40813   1.505   6.637   2.385 -0.1494 -0.4757  0.3475
  303MOL0    Cl40814   1.346   6.598   2.296 -0.1004 -0.1239 -0.2256
  303MOL0     C40815   2.308   6.881   1.951 -0.6202 -0.5836 -0.7456
  303MOL0     C40816   2.445   6.892   1.970  0.0142 -0.1253  0.3867
  303MOL0     O40817   2.769   7.020   1.720 -0.4109  0.1415  0.6550
  303MOL0     C40818   2.884   7.040   2.065 -0.2708  0.8424 -0.2067
  303MOL0     C40819   3.006   7.049   2.136 -0.2429 -0.0315  0.6236
  303MOL0     N40820   3.766   6.941   2.359 -0.0616  0.1346  1.2415
  303MOL0     N40821   3.873   6.888   2.315 -0.8533  0.1944 -1.0227
  303MOL0     C40822   3.238   6.076   1.757 -0.0854  0.4081  0.0785
  303MOL0     C40823   3.110   6.133   1.777  0.6743 -0.7598  0.7101
  303MOL0     C40824   2.793   6.409   1.842 -0.1333 -1.0277  0.5280
  303MOL0     C40825   2.690   6.323   1.881 -0.3796 -1.1084  0.2412
  303MOL0     C40826   2.555   6.350   1.872  0.3957 -0.3177  0.4209
  303MOL0     C40827   2.504   6.457   1.796 -0.1825 -0.0351 -0.5631
  303MOL0     O40828   2.367   6.475   1.790  0.1666 -0.4593  0.6045
  303MOL0     C40829   2.329   6.561   1.681  0.0240  0.3877  0.3294
  303MOL0     C40830   2.175   6.542   1.680  0.3627 -0.2889  0.5998
  303MOL0     C40831   2.097   6.642   1.593 -0.9041  0.0062 -0.7854
  303MOL0     C40832   2.065   6.580   1.458 -0.3874  0.6754 -0.4289
  303MOL0     C40833   1.955   6.478   1.468 -0.7247  0.1006  0.4533
  303MOL0     C40834   1.863   6.397   1.457  0.2763  0.1417  0.5592
  303MOL0     C40835   2.607   6.545   1.746 -0.3573  0.2414 -0.2635
  303MOL0     C40836   2.749   6.526   1.774 -0.0935 -0.2308  0.7778
  303MOL0     C40837   2.840   6.630   1.704 -0.3440  0.8133  0.0254
  303MOL0     H40838   3.119   6.234   2.086 -0.4587  2.8128 -1.9126
  303MOL0     H40839   3.365   6.111   2.064  2.9100 -2.7334 -2.9492
  303MOL0     H40840   3.561   6.110   2.003 -0.2692 -1.6029 -0.1472
  303MOL0     H40841   3.648   6.023   1.888  0.3905 -0.9673 -1.1548
  303MOL0     H40842   3.527   6.303   1.824  0.6695 -0.3822 -1.7452
  303MOL0     H40843   3.665   6.221   1.737  1.8147 -1.2958  1.4044
  303MOL0     H40844   3.813   6.231   1.918 -0.6638 -1.5478 -2.4523
  303MOL0     H40845   3.692   6.299   2.028  2.2963 -1.4152  0.9121
  303MOL0     H40846   3.793   6.425   1.764 -0.5136 -2.4560  0.4215
  303MOL0     H40847   3.681   6.511   1.884  1.1829  1.7700 -2.4294
  303MOL0     H40848   3.956   6.407   1.965 -0.7841  0.1416  1.2518
  303MOL0     H40849   3.932   6.556   1.877  1.3103 -1.2763 -0.4477
  303MOL0     H40850   3.769   6.637   2.061  0.5730  0.9052 -1.0063
  303MOL0     H40851   3.824   6.496   2.168 -0.3388  1.7664  1.9662
  303MOL0     H40852   3.952   6.748   2.093  3.4748  0.4734  1.4341
  303MOL0     H40853   4.055   6.601   2.099 -1.1859 -4.6939  0.8878
  303MOL0     H40854   3.978   6.568   2.332  0.3965  0.7894  0.9238
  303MOL0     H40855   4.048   6.732   2.291 -0.5772  1.6201  0.3505
  303MOL0     H40856   3.691   6.629   2.377  1.0231 -0.6430  2.3449
  303MOL0     H40857   3.498   6.796   2.514  0.4204 -0.6080 -1.1939
  303MOL0     H40858   3.528   6.973   2.499  0.7286  0.1197  0.1001
  303MOL0     H40859   3.409   6.766   2.296 -1.5536  0.0828 -0.1342
  303MOL0     H40860   3.333   6.907   2.377 -0.2795 -0.6321 -2.3493
  303MOL0     H40861   3.555   6.913   2.167  0.1365 -4.4830  4.0598
  303MOL0     H40862   3.502   7.057   2.255  0.1693 -1.9920  2.5653
  303MOL0     H40863   3.345   6.912   2.045  1.3085 -0.5641  0.8491
  303MOL0     H40864   3.413   7.079   2.052  0.2211  1.3490  1.0191
  303MOL0     H40865   3.237   7.042   1.898 -0.4627 -2.2523 -0.2446
  303MOL0     H40866   3.052   7.005   1.759  1.5806 -0.9858  1.0313
  303MOL0     H40867   2.535   7.089   1.701 -1.9752  2.1045 -0.7277
  303MOL0     H40868   2.285   7.106   1.694  1.9960  2.5358  0.5956
  303MOL0     H40869   1.976   6.854   1.769  1.8876  2.9217 -2.1211
  303MOL0     H40870   2.077   6.803   1.907 -0.2318  0.8333  1.0316
  303MOL0     H40871   1.967   6.959   2.054  1.4001  1.6904 -0.6020
  303MOL0     H40872   1.869   7.033   1.944  1.7671  0.6026  0.5238
  303MOL0     H40873   1.792   6.766   1.900 -0.4227  4.0449 -3.4988
  303MOL0     H40874   1.856   6.747   2.064 -0.1107  1.2226  1.6838
  303MOL0     H40875   1.598   6.880   1.980  1.6096 -1.5670 -1.8991
  303MOL0     H40876   1.689   6.978   2.082 -2.0138  0.1214  1.5469
  303MOL0     H40877   1.720   6.789   2.247 -1.0075  0.7706  0.7326
  303MOL0     H40878   1.611   6.682   2.148 -0.2401  0.3226  1.4662
  303MOL0     H40879   1.536   6.958   2.250  2.7128 -0.4996 -2.1488
  303MOL0     H40880   1.426   6.827   2.195 -1.2023  3.3489 -0.1951
  303MOL0     H40881   1.425   6.832   2.437 -2.2426 -1.4610 -1.5944
  303MOL0     H40882   1.605   6.825   2.439  0.2909  0.1405 -1.4131
  303MOL0     H40883   1.577   6.584   2.323  0.9364 -0.5717  1.6434
  303MOL0     H40884   1.513   6.589   2.483 -0.4309 -1.6097 -0.1756
  303MOL0     H40885   2.258   6.826   2.029  1.7888 -0.6102  0.9028
  303MOL0     H40886   2.498   6.845   2.053  0.5541  0.5260  0.4202
  303MOL0     H40887   2.787   7.032   2.112  0.3730  0.8305  1.1773
  303MOL0     H40888   2.996   7.045   2.244 -3.3559 -0.9835  0.3994
  303MOL0     H40889   3.251   6.027   1.661 -4.5148 -1.9089  0.4391
  303MOL0     H40890   3.049   6.134   1.688  0.1985 -2.2400  0.9942
  303MOL0     H40891   2.710   6.223   1.920 -1.3635 -0.6330  2.1400
  303MOL0     H40892   2.481   6.278   1.906  1.7912 -2.6065 -1.1826
  303MOL0     H40893   2.365   6.525   1.585 -0.8028  0.1541  0.0935
  303MOL0     H40894   2.363   6.664   1.692  1.5393  0.1060 -1.3443
  303MOL0     H40895   2.142   6.548   1.784 -0.2063 -1.4666  0.5043
  303MOL0     H40896   2.163   6.438   1.648 -1.6449 -0.2915  1.2599
  303MOL0     H40897   2.152   6.736   1.582  2.9823 -2.1136 -1.0012
  303MOL0     H40898   2.008   6.673   1.648  0.8332  3.1967  0.4724
  303MOL0     H40899   2.036   6.658   1.386  1.9875  0.1854 -2.0426
  303MOL0     H40900   2.157   6.529   1.427 -0.6435 -1.9555  2.6124
  303MOL0     H40901   1.775   6.337   1.458 -0.5139  1.1774 -1.1652
  303MOL0     H40902   2.586   6.642   1.704  0.3272  1.3879  1.8921
  303MOL0     H40903   2.905   6.680   1.776 -0.8492  2.2769 -0.4908
  303MOL0     H40904   2.894   6.582   1.622  0.7397 -1.8997  2.1714
  303MOL0     H40905   2.780   6.708   1.656  0.9305  1.0305 -1.2924
  304MOL0     O40906   0.548   2.038   8.048 -0.3897 -0.0769 -0.4695
  304MOL0     C40907   0.455   1.970   8.003 -0.6756  0.0597  0.3876
  304MOL0     O40908   0.440   1.833   8.014  0.7390 -0.2737 -0.2291
  304MOL0     C40909   0.548   1.767   8.062 -1.0003 -0.0565 -0.6976
  304MOL0     C40910   0.634   1.706   7.965  0.0660 -0.0757 -0.5279
  304MOL0     C40911   0.726   1.607   8.008  0.6366 -0.3364  0.3935
  304MOL0     C40912   0.749   1.582   8.141  0.1053 -0.1762  0.5931
  304MOL0     O40913   0.839   1.493   8.186  0.3555 -0.5303 -0.0455
  304MOL0     C40914   0.961   1.477   8.124 -0.1130  0.0946  0.0819
  304MOL0     C40915   1.046   1.379   8.207 -0.0748 -0.0171 -0.4613
  304MOL0     C40916   1.191   1.383   8.161  0.1741 -0.3739 -0.4130
  304MOL0     C40917   1.288   1.291   8.236  0.2648  0.1397  0.0890
  304MOL0     C40918   1.396   1.371   8.310  0.1150 -0.1128  0.0169
  304MOL0     C40919   1.480   1.298   8.415  0.4788 -0.0775 -0.1092
  304MOL0     C40920   1.580   1.410   8.476 -0.2162 -0.5630  0.0711
  304MOL0     C40921   1.652   1.361   8.606  0.5007 -0.4146  0.0301
  304MOL0     N40922   1.746   1.460   8.660 -0.6945 -0.0261  0.3599
  304MOL0     C40923   1.873   1.486   8.613  0.3189 -0.4039 -0.5779
  304MOL0     C40924   1.943   1.557   8.706 -0.0845 -0.4768 -0.0967
  304MOL0     C40925   2.086   1.589   8.702 -0.0172 -0.1761 -0.8581
  304MOL0     C40926   2.102   1.707   8.606  0.5358  0.4375 -0.4914
  304MOL0     C40927   2.211   1.799   8.640 -0.7891 -0.2872  0.2252
  304MOL0     C40928   2.350   1.730   8.649  0.3083  0.4247  0.1149
  304MOL0     O40929   2.451   1.820   8.681  0.3511 -0.0518 -0.1749
  304MOL0     C40930   2.575   1.775   8.728  0.5338  0.6997  0.8594
  304MOL0     C40931   2.646   1.863   8.805  0.3751 -0.0472 -0.6047
  304MOL0     C40932   2.779   1.838   8.837  1.2538  0.7527  0.4337
  304MOL0     C40933   2.838   1.716   8.803 -0.8470  0.1876  0.3381
  304MOL0     C40934   2.973   1.680   8.837 -0.9679 -0.4612 -1.2390
  304MOL0     O40935   3.051   1.765   8.915 -0.4388 -0.2094 -0.0274
  304MOL0     C40936   3.186   1.734   8.919 -1.0719 -0.6574 -0.0358
  304MOL0     C40937   3.235   1.626   8.994  0.5158 -0.6718 -1.0777
  304MOL0     C40938   3.367   1.599   9.010 -0.5861 -0.3388  1.1426
  304MOL0     C40939   3.462   1.687   8.963  0.3305 -0.2047 -0.3255
  304MOL0     O40940   3.596   1.685   8.992  0.2840  0.4333 -0.1894
  304MOL0     C40941   3.652   1.557   9.028  0.6237 -0.1997  0.0731
  304MOL0     C40942   3.800   1.557   9.033 -0.1872 -0.8349 -0.7349
  304MOL0     C40943   3.874   1.537   8.893  0.1455 -0.1701  0.6396
  304MOL0     C40944   4.026   1.556   8.906  0.0497 -0.3162 -0.2042
  304MOL0     C40945   4.097   1.451   8.982  0.5473  0.1713 -0.0957
  304MOL0     C40946   4.245   1.474   8.974 -0.6384 -0.1207 -0.1020
  304MOL0     C40947   4.315   1.343   9.016 -1.0452 -0.0986  0.0726
  304MOL0     C40948   4.460   1.367   9.056 -0.8686  0.6468 -0.0162
  304MOL0    Cl40949   4.559   1.475   8.936  0.3727  0.2267  0.1213
  304MOL0     C40950   3.419   1.796   8.885 -0.1833  0.2052  0.1812
  304MOL0     C40951   3.283   1.818   8.859  0.7477  0.5657  0.2312
  304MOL0     O40952   3.005   1.562   8.811  0.2512 -0.4999  0.7775
  304MOL0     C40953   2.760   1.622   8.729 -0.6911  0.0742  0.5729
  304MOL0     C40954   2.628   1.644   8.694 -0.1910 -0.3941 -0.0739
  304MOL0     N40955   1.856   1.586   8.810 -0.6718 -0.2375 -0.1678
  304MOL0     N40956   1.744   1.523   8.778 -0.1967 -0.0344 -0.5537
  304MOL0     C40957   0.672   1.653   8.237  1.0839  0.3785  0.3323
  304MOL0     C40958   0.567   1.734   8.201  0.3419  0.0472  0.3758
  304MOL0     C40959   0.354   2.042   7.922  0.5759 -0.5295  0.0336
  304MOL0     C40960   0.398   2.098   7.800  0.1459 -0.4492  0.6012
  304MOL0     C40961   0.309   2.148   7.708 -0.2700 -0.5765 -0.4604
  304MOL0     C40962   0.180   2.174   7.744  0.8990 -0.7164  1.0883
  304MOL0     O40963   0.102   2.248   7.659 -0.0473  0.2204  0.9438
  304MOL0     C40964   0.008   2.164   7.593 -1.0621  0.2766  0.4557
  304MOL0     C40965   0.006   2.195   7.443  0.5409  0.5644  1.1167
  304MOL0     C40966  -0.080   2.099   7.357  0.5514  0.2045  0.1124
  304MOL0     C40967  -0.058   2.101   7.208  0.1742  0.2839  0.2400
  304MOL0     C40968  -0.061   2.232   7.150  0.1599  0.4778 -0.4407
  304MOL0     C40969  -0.056   2.341   7.091  0.5724 -0.3903 -1.0302
  304MOL0     C40970   0.136   2.134   7.875 -0.3893  0.4511 -0.4123
  304MOL0     C40971   0.216   2.051   7.951 -0.4199  0.0619 -0.3619
  304MOL0     C40972   0.172   2.006   8.086  0.4446 -0.6025 -0.0455
  304MOL0     H40973   0.632   1.739   7.862 -0.4817  2.7696  0.2956
  304MOL0     H40974   0.791   1.571   7.929 -1.4009  0.7791 -1.9097
  304MOL0     H40975   0.965   1.430   8.025  1.1265 -1.8120  0.9831
  304MOL0     H40976   1.023   1.567   8.117 -0.5433  0.4663  0.9055
  304MOL0     H40977   1.004   1.278   8.197  0.3312 -0.0095 -2.9365
  304MOL0     H40978   1.037   1.409   8.311  0.1178 -3.0596  0.5529
  304MOL0     H40979   1.230   1.484   8.172 -1.5590  0.2854  0.0189
  304MOL0     H40980   1.211   1.363   8.055  1.3014 -0.9418 -0.1076
  304MOL0     H40981   1.227   1.239   8.310 -0.3612 -0.2784 -0.7017
  304MOL0     H40982   1.324   1.214   8.167 -1.1210  0.5899 -1.1837
  304MOL0     H40983   1.470   1.404   8.236 -0.2992 -0.9219 -0.7674
  304MOL0     H40984   1.361   1.466   8.350  3.8235  1.2237  0.4948
  304MOL0     H40985   1.407   1.263   8.489 -0.0781 -1.5923 -1.3202
  304MOL0     H40986   1.531   1.209   8.376 -1.2915 -0.9846 -0.4336
  304MOL0     H40987   1.526   1.503   8.495  2.5127  1.9250 -3.0906
  304MOL0     H40988   1.659   1.423   8.401  0.7607  0.8003  1.2804
  304MOL0     H40989   1.577   1.338   8.682 -1.5900  3.0519 -0.7488
  304MOL0     H40990   1.704   1.270   8.574 -0.0178 -0.4930 -0.6120
  304MOL0     H40991   1.905   1.427   8.528 -2.8304 -3.6621  0.2375
  304MOL0     H40992   2.120   1.612   8.803  2.1135  1.0053 -1.7822
  304MOL0     H40993   2.145   1.502   8.671  3.6172  1.6828  0.2897
  304MOL0     H40994   2.100   1.673   8.502 -1.2495  0.3153 -0.4408
  304MOL0     H40995   2.008   1.762   8.618  1.1130  1.4495 -0.4756
  304MOL0     H40996   2.182   1.853   8.730 -4.1668  1.5466 -1.7641
  304MOL0     H40997   2.225   1.878   8.566  1.1029  0.5521  1.4007
  304MOL0     H40998   2.367   1.688   8.549  1.8850 -0.2391  0.6134
  304MOL0     H40999   2.337   1.643   8.715  1.0884 -1.6596 -2.3113
  304MOL0     H41000   2.602   1.955   8.842  1.5400  0.6130 -0.8181
  304MOL0     H41001   2.833   1.907   8.901  0.7820  1.6195 -0.0831
  304MOL0     H41002   3.163   1.549   9.020 -0.8357  1.3883  1.8235
  304MOL0     H41003   3.404   1.507   9.055 -1.9593 -1.1156  0.7284
  304MOL0     H41004   3.616   1.516   9.122  1.7737 -3.4403 -0.7762
  304MOL0     H41005   3.611   1.482   8.960  0.2956 -1.4399  1.5962
  304MOL0     H41006   3.823   1.650   9.086 -1.6966  0.1636 -1.7658
  304MOL0     H41007   3.828   1.483   9.108  1.1454  0.7879  0.4384
  304MOL0     H41008   3.864   1.443   8.837 -0.1464  1.2182 -1.7970
  304MOL0     H41009   3.832   1.607   8.820 -0.5949 -1.2224  0.0138
  304MOL0     H41010   4.043   1.651   8.957  1.4875 -1.2467  1.1685
  304MOL0     H41011   4.071   1.567   8.807  4.4100  1.0148  1.6833
  304MOL0     H41012   4.068   1.359   8.930  1.3462 -1.1460  1.6568
  304MOL0     H41013   4.059   1.444   9.085  0.5472  0.3669 -0.0839
  304MOL0     H41014   4.278   1.490   8.871 -2.6028 -1.2002 -0.9655
  304MOL0     H41015   4.270   1.551   9.048  1.4788 -1.3715  0.5738
  304MOL0     H41016   4.303   1.263   8.942 -1.0014 -1.8770  1.8880
  304MOL0     H41017   4.271   1.308   9.110 -1.4402  0.1593 -0.0154
  304MOL0     H41018   4.466   1.410   9.156  3.7887  2.3124 -0.7619
  304MOL0     H41019   4.510   1.270   9.064  2.0299  2.1700  1.7933
  304MOL0     H41020   3.496   1.867   8.855 -0.3559  1.0761  1.6584
  304MOL0     H41021   3.258   1.904   8.799 -2.9585 -1.1148 -0.9652
  304MOL0     H41022   2.805   1.531   8.691 -0.2510  0.0899  1.0378
  304MOL0     H41023   2.570   1.568   8.642  1.0666 -1.2484 -0.2727
  304MOL0     H41024   0.690   1.627   8.341 -0.8649  1.5101  1.0036
  304MOL0     H41025   0.503   1.783   8.274  1.5155  0.3255  1.2413
  304MOL0     H41026   0.500   2.084   7.764  0.2190  0.8829  0.2714
  304MOL0     H41027   0.361   2.190   7.622 -0.3123  0.9068  0.1985
  304MOL0     H41028  -0.098   2.169   7.621 -1.4003  1.4869 -0.9411
  304MOL0     H41029   0.036   2.061   7.618  1.1255  0.8795  0.7505
  304MOL0     H41030   0.108   2.186   7.405  0.1614 -0.9357  0.3603
  304MOL0     H41031  -0.014   2.298   7.414 -0.3587 -0.5328 -2.7678
  304MOL0     H41032  -0.186   2.117   7.380 -0.6702 -3.1585 -2.0057
  304MOL0     H41033  -0.058   1.997   7.389  1.7303  0.3993 -0.0587
  304MOL0     H41034   0.041   2.057   7.189  0.5334  0.2977  1.9699
  304MOL0     H41035  -0.140   2.047   7.160 -1.0682  2.4744 -0.2524
  304MOL0     H41036  -0.043   2.434   7.039  0.8026  1.3253  1.8599
  304MOL0     H41037   0.035   2.149   7.913 -0.1694  3.5161 -0.7512
  304MOL0     H41038   0.202   1.901   8.091 -2.2987 -1.6060 -1.9313
  304MOL0     H41039   0.223   2.063   8.164  1.3463  0.1269 -1.1459
  304MOL0     H41040   0.063   2.016   8.088  0.1840 -2.5444 -1.8010
  305MOL0     O41041   7.897   4.770   9.274  1.3332  0.2362  0.2831
  305MOL0     C41042   7.851   4.772   9.159 -0.2635 -0.2863 -0.2752
  305MOL0     O41043   7.925   4.785   9.043 -0.7182  0.1903 -1.1268
  305MOL0     C41044   8.054   4.825   9.042  1.3416 -0.3622 -0.4396
  305MOL0     C41045   8.079   4.962   9.070  0.4262  0.5469  0.2234
  305MOL0     C41046   8.211   5.012   9.055  0.5872 -0.4682 -0.1637
  305MOL0     C41047   8.313   4.929   9.011  0.7633 -1.3413 -0.5447
  305MOL0     O41048   8.439   4.971   8.986 -0.1084 -0.3433 -0.4571
  305MOL0     C41049   8.456   5.109   8.956  0.6231  0.2881  0.6987
  305MOL0     C41050   8.500   5.191   9.084 -0.1079 -0.4067  0.2061
  305MOL0     C41051   8.616   5.136   9.162  0.5040  0.4952  1.4859
  305MOL0     C41052   8.563   5.049   9.287  0.3639 -0.1774  0.1182
  305MOL0     C41053   8.630   5.110   9.411 -0.4446  0.7352 -0.5311
  305MOL0     C41054   8.588   5.044   9.546  0.3370 -0.7351  0.0765
  305MOL0     C41055   8.670   5.091   9.667  0.9345 -0.6322  0.9826
  305MOL0     C41056   8.580   5.098   9.788  0.1751 -0.2914  0.5893
  305MOL0     N41057   8.556   4.968   9.852  0.0266  0.7278 -0.1909
  305MOL0     C41058   8.497   4.861   9.796 -0.1892 -0.4311  0.3984
  305MOL0     C41059   8.523   4.757   9.884  1.0114 -0.3720  0.0596
  305MOL0     C41060   8.492   4.611   9.850  0.3816 -0.6040  0.0985
  305MOL0     C41061   8.624   4.548   9.799  1.2785 -0.5011  0.2940
  305MOL0     C41062   8.717   4.484   9.901  0.1205 -0.8023  0.6940
  305MOL0     C41063   8.817   4.383   9.843 -0.2955  0.2809  0.2269
  305MOL0     O41064   8.918   4.338   9.941 -0.4360 -0.8844 -0.4752
  305MOL0     C41065   9.041   4.400   9.945 -0.5768 -0.8851  0.2739
  305MOL0     C41066   9.158   4.322   9.926 -0.5745  0.5063 -0.5183
  305MOL0     C41067   9.274   4.388   9.914  0.6316 -0.1422 -0.7690
  305MOL0     C41068   9.288   4.528   9.937  1.4136  0.0436  0.0143
  305MOL0     C41069   9.420   4.586   9.950  1.0024  0.1458  0.6995
  305MOL0     O41070   9.434   4.722   9.941  0.3540  0.5336  0.1530
  305MOL0     C41071   9.552   4.787   9.953 -0.0614  0.2675 -0.3110
  305MOL0     C41072   9.555   4.904   9.872  0.8890 -0.2808 -0.3623
  305MOL0     C41073   9.671   4.979   9.865 -1.4765  1.0630 -0.5290
  305MOL0     C41074   9.771   4.954   9.957  0.2649  0.9036  0.3631
  305MOL0     O41075   9.897   5.018   9.967  0.5552  0.8609 -0.3129
  305MOL0     C41076   9.988   4.984   9.859  0.5562  0.8186 -0.8508
  305MOL0     C41077  10.106   5.085   9.847  1.1823  0.2656  0.0879
  305MOL0     C41078  10.182   5.110   9.982 -0.2456  0.4152 -0.2060
  305MOL0     C41079  10.305   5.190   9.953  0.1066  0.1735  0.1434
  305MOL0     C41080  10.394   5.222  10.071 -0.0777 -0.3156  0.6437
  305MOL0     C41081  10.451   5.093  10.127 -0.2672  0.0002 -0.0629
  305MOL0     C41082  10.494   5.111  10.276 -0.6432 -0.1973  0.7293
  305MOL0     C41083  10.596   5.223  10.302  0.1704 -0.4683  0.1416
  305MOL0    Cl41084  10.680   5.220  10.464 -0.2051 -0.5494 -0.0173
  305MOL0     C41085   9.769   4.832  10.037 -0.0988  0.3973 -0.1689
  305MOL0     C41086   9.659   4.753  10.035  0.1739  0.1250 -0.1331
  305MOL0     O41087   9.513   4.503   9.971 -0.2553  0.0253  0.0331
  305MOL0     C41088   9.173   4.605   9.976 -0.5276  0.4020 -0.1970
  305MOL0     C41089   9.052   4.542   9.971  0.4292 -1.0063  0.5255
  305MOL0     N41090   8.583   4.809  10.003 -0.3296  0.0198 -0.2245
  305MOL0     N41091   8.598   4.937   9.980 -0.2191  0.7098  0.2745
  305MOL0     C41092   8.279   4.791   8.984  0.2699  0.9082 -0.6383
  305MOL0     C41093   8.155   4.740   9.010 -0.0488 -0.5663 -0.3608
  305MOL0     C41094   7.705   4.771   9.142  0.7669  0.1093  0.4249
  305MOL0     C41095   7.643   4.858   9.047  0.0971  0.8364 -0.2315
  305MOL0     C41096   7.509   4.851   9.012  0.2471 -0.0132 -0.3207
  305MOL0     C41097   7.427   4.758   9.076  0.1527  0.5069  0.5674
  305MOL0     O41098   7.293   4.723   9.053 -0.7017 -1.0540  0.3358
  305MOL0     C41099   7.205   4.827   8.998  0.6603  0.6241 -0.0804
  305MOL0     C41100   7.179   4.810   8.848 -0.7672 -0.2513  0.2774
  305MOL0     C41101   7.143   4.678   8.804 -0.0838 -0.0282 -0.4563
  305MOL0     C41102   7.071   4.677   8.670 -0.5298  0.6148  0.4635
  305MOL0     C41103   7.053   4.542   8.616 -0.3435 -0.3998  0.3133
  305MOL0     C41104   7.020   4.435   8.557 -0.1980  0.3020 -0.1330
  305MOL0     C41105   7.481   4.673   9.173 -0.8007  0.3576 -1.1651
  305MOL0     C41106   7.620   4.683   9.217 -0.3136 -0.7478  0.9115
  305MOL0     C41107   7.674   4.606   9.335 -0.0981  0.2742  0.2993
  305MOL0     H41108   8.002   5.033   9.098  2.0728  1.7382  2.0225
  305MOL0     H41109   8.226   5.117   9.082 -0.0393 -0.3639 -0.2105
  305MOL0     H41110   8.526   5.130   8.875 -0.9763  3.7745  0.0141
  305MOL0     H41111   8.362   5.157   8.927  0.6641 -0.3580 -0.5625
  305MOL0     H41112   8.412   5.187   9.149  0.2981 -1.7753  0.6966
  305MOL0     H41113   8.519   5.295   9.054 -1.9177 -0.3439 -0.8333
  305MOL0     H41114   8.696   5.207   9.184  0.4222  1.3965 -0.8095
  305MOL0     H41115   8.666   5.069   9.092 -0.1936 -1.7587  3.0307
  305MOL0     H41116   8.454   5.051   9.286  0.2774 -2.4391 -0.8789
  305MOL0     H41117   8.598   4.946   9.281  2.5531  0.4645  0.7928
  305MOL0     H41118   8.737   5.089   9.402 -0.5020  0.4459 -0.5692
  305MOL0     H41119   8.615   5.218   9.399  0.5586  0.7251 -2.1879
  305MOL0     H41120   8.483   5.057   9.573  0.6166 -2.5202  2.3297
  305MOL0     H41121   8.591   4.936   9.533 -1.7238 -0.9094  0.6622
  305MOL0     H41122   8.686   5.196   9.642 -2.5391 -0.3280 -0.5258
  305MOL0     H41123   8.767   5.041   9.673  0.5992 -1.4883 -0.3594
  305MOL0     H41124   8.611   5.175   9.860 -2.2770  0.6752  0.6910
  305MOL0     H41125   8.482   5.138   9.760 -0.2620 -0.2278  2.1101
  305MOL0     H41126   8.471   4.863   9.691  0.5869 -0.5144  0.2015
  305MOL0     H41127   8.451   4.556   9.935 -0.3176  0.0152  0.1800
  305MOL0     H41128   8.416   4.597   9.772  0.1957 -4.0176  0.7420
  305MOL0     H41129   8.588   4.462   9.741 -0.1717 -0.7701  1.5207
  305MOL0     H41130   8.680   4.613   9.730 -1.9205  3.7616  1.3455
  305MOL0     H41131   8.661   4.452   9.990 -2.4402  2.8611  0.6381
  305MOL0     H41132   8.778   4.566   9.940  0.1749 -1.2449  1.5819
  305MOL0     H41133   8.859   4.405   9.744 -0.8391 -1.3733 -0.4179
  305MOL0     H41134   8.758   4.293   9.819 -1.9738  1.2241  0.6527
  305MOL0     H41135   9.160   4.213   9.916  0.3451  0.6254 -1.9173
  305MOL0     H41136   9.365   4.341   9.878  2.2730  0.4655  2.2104
  305MOL0     H41137   9.475   4.915   9.799  0.3248 -0.9781  0.1332
  305MOL0     H41138   9.678   5.076   9.817  0.5340  0.4490 -1.6117
  305MOL0     H41139  10.049   4.899   9.890 -0.4731 -0.0489 -1.1610
  305MOL0     H41140   9.947   4.975   9.758  0.7592 -0.3005 -0.8436
  305MOL0     H41141  10.186   5.055   9.779  2.6072  2.4144  0.7091
  305MOL0     H41142  10.066   5.178   9.806 -2.2987 -1.1438 -0.0878
  305MOL0     H41143  10.127   5.155  10.064  2.4253  3.4033  0.1636
  305MOL0     H41144  10.211   5.015  10.029 -0.3912  1.7109  2.6978
  305MOL0     H41145  10.286   5.285   9.902  1.6937  2.0845  2.9209
  305MOL0     H41146  10.378   5.151   9.881  1.8534  1.1860  1.2998
  305MOL0     H41147  10.347   5.288  10.144  0.2800  3.1916 -2.0278
  305MOL0     H41148  10.473   5.284  10.026 -0.6808 -0.4393 -0.6396
  305MOL0     H41149  10.377   5.012  10.130  0.2323 -0.4364  3.1724
  305MOL0     H41150  10.545   5.055  10.086  0.8811 -0.0397  2.4838
  305MOL0     H41151  10.538   5.016  10.307 -0.1778  0.0296  0.7759
  305MOL0     H41152  10.405   5.123  10.339 -0.8647 -0.5976  0.4996
  305MOL0     H41153  10.679   5.209  10.232 -1.1268 -4.5427 -0.8609
  305MOL0     H41154  10.556   5.322  10.280  0.0089 -0.2901  1.1902
  305MOL0     H41155   9.856   4.801  10.094 -1.5133  0.7402  2.3058
  305MOL0     H41156   9.657   4.658  10.087 -1.6548  0.4311  0.4028
  305MOL0     H41157   9.187   4.708  10.006 -1.2012  0.5680 -0.4461
  305MOL0     H41158   8.969   4.609   9.993  1.8657  0.9521  0.3003
  305MOL0     H41159   8.357   4.723   8.952 -0.3610 -0.1990  0.1179
  305MOL0     H41160   8.127   4.636   8.994 -2.0940 -0.3829  1.5993
  305MOL0     H41161   7.706   4.929   8.995  0.9992 -1.7540 -2.9421
  305MOL0     H41162   7.471   4.914   8.933 -3.8020  0.5568  1.7899
  305MOL0     H41163   7.240   4.929   9.018  1.1434  0.3861  0.3196
  305MOL0     H41164   7.109   4.820   9.050  2.0335 -1.5757  2.4489
  305MOL0     H41165   7.262   4.844   8.785 -0.7680  1.2226  1.0470
  305MOL0     H41166   7.090   4.871   8.830 -1.7975 -2.3193 -2.4615
  305MOL0     H41167   7.089   4.626   8.883  1.9926  0.6149  1.5039
  305MOL0     H41168   7.239   4.625   8.805 -0.0027 -0.0578  3.2263
  305MOL0     H41169   6.970   4.718   8.678 -1.8816 -1.9385 -1.7170
  305MOL0     H41170   7.126   4.745   8.604  1.2695  1.6119  2.8356
  305MOL0     H41171   6.987   4.339   8.522 -3.4588  1.2435  0.0445
  305MOL0     H41172   7.416   4.602   9.222 -0.9473  1.1007 -0.2645
  305MOL0     H41173   7.726   4.675   9.403 -0.0164  2.3349 -1.6915
  305MOL0     H41174   7.601   4.537   9.378  0.8015 -1.6837 -1.1660
  305MOL0     H41175   7.749   4.536   9.297 -0.9402  0.5419 -2.0494
  306MOL0     O41176   9.001   3.654   0.822 -0.6061 -0.4911  0.0428
  306MOL0     C41177   8.990   3.773   0.809  0.5962 -0.4272  0.4195
  306MOL0     O41178   9.081   3.857   0.757 -0.1949  0.6600 -0.3957
  306MOL0     C41179   9.193   3.806   0.700 -0.6848 -0.2434  0.1948
  306MOL0     C41180   9.306   3.866   0.747 -0.3428 -0.3105  0.3768
  306MOL0     C41181   9.431   3.831   0.698 -0.5604  0.1018 -0.9379
  306MOL0     C41182   9.440   3.738   0.597  0.1154  0.6935  0.9900
  306MOL0     O41183   9.556   3.692   0.544  0.7352  0.1805 -0.4916
  306MOL0     C41184   9.657   3.780   0.522  0.2441  0.5228  0.5657
  306MOL0     C41185   9.783   3.705   0.466 -0.0619 -0.0112 -0.8104
  306MOL0     C41186   9.905   3.798   0.451 -0.1033  0.7935 -0.0965
  306MOL0     C41187   9.877   3.890   0.336  0.2423 -0.0804  0.7840
  306MOL0     C41188   9.986   4.001   0.302  0.6836  0.1599  1.0118
  306MOL0     C41189   9.981   4.066   0.162  0.8020  0.8628  0.4540
  306MOL0     C41190  10.093   4.182   0.164 -0.4200  0.9545 -0.2033
  306MOL0     C41191  10.173   4.173   0.036  0.0947 -0.3754 -0.0365
  306MOL0     N41192  10.204   4.040  -0.012  0.4861  0.4274  0.7550
  306MOL0     C41193  10.327   3.984   0.018 -0.7844 -0.3322  0.3054
  306MOL0     C41194  10.326   3.869  -0.049 -0.5460  0.8583 -0.5950
  306MOL0     C41195  10.435   3.766  -0.039  0.3572  0.6709 -0.6512
  306MOL0     C41196  10.418   3.645  -0.125 -0.3547  0.4243  0.0537
  306MOL0     C41197  10.548   3.556  -0.117 -0.9111 -0.6768  0.3324
  306MOL0     C41198  10.519   3.410  -0.162 -0.2038  0.3384  0.5094
  306MOL0     O41199  10.480   3.406  -0.300  0.1721  0.8390 -0.0372
  306MOL0     C41200  10.357   3.338  -0.313 -0.9691  0.2602  0.5439
  306MOL0     C41201  10.248   3.407  -0.365 -0.7921  0.0629  1.0831
  306MOL0     C41202  10.120   3.337  -0.372  0.5366  0.5060 -0.4106
  306MOL0     C41203  10.103   3.204  -0.337 -0.0962 -0.2462  0.0057
  306MOL0     C41204   9.974   3.134  -0.317 -0.6750 -0.5988  0.2296
  306MOL0     O41205   9.879   3.215  -0.265 -0.7048 -0.1405 -0.1230
  306MOL0     C41206   9.764   3.153  -0.229 -0.6142  0.4326  1.0878
  306MOL0     C41207   9.649   3.172  -0.303 -0.4390 -0.3891 -0.3991
  306MOL0     C41208   9.533   3.121  -0.256 -0.6516  0.7260  0.2089
  306MOL0     C41209   9.529   3.031  -0.146 -0.8100  0.3419  0.5544
  306MOL0     O41210   9.407   2.978  -0.127  0.7257 -0.0892  0.5521
  306MOL0     C41211   9.383   2.898  -0.013  0.3183 -0.5610 -0.6903
  306MOL0     C41212   9.233   2.854  -0.016 -1.5007  0.1094 -0.9230
  306MOL0     C41213   9.200   2.721  -0.085  0.1770  1.5166  0.8604
  306MOL0     C41214   9.074   2.652  -0.022  0.1638  0.0812  0.2493
  306MOL0     C41215   8.938   2.736  -0.027 -1.6567  0.3803  0.3411
  306MOL0     C41216   8.820   2.642   0.017  1.0826 -0.0521  0.2758
  306MOL0     C41217   8.820   2.604   0.166  0.0601 -0.5460  0.2193
  306MOL0     C41218   8.676   2.592   0.223 -0.0132 -0.2036 -0.5875
  306MOL0    Cl41219   8.681   2.510   0.383 -0.1748 -0.1679  0.1271
  306MOL0     C41220   9.652   3.002  -0.076  0.1574  0.6012 -0.5035
  306MOL0     C41221   9.764   3.072  -0.112 -0.2570  1.1930  0.0673
  306MOL0     O41222   9.971   3.012  -0.338  0.5572 -0.2243 -0.1917
  306MOL0     C41223  10.216   3.129  -0.303 -0.5357  0.4366 -0.1615
  306MOL0     C41224  10.341   3.201  -0.290  0.1092  0.2810 -0.5539
  306MOL0     N41225  10.215   3.867  -0.121  0.1195 -0.0588  0.1197
  306MOL0     N41226  10.137   3.966  -0.102  0.0437 -0.2001 -0.1339
  306MOL0     C41227   9.323   3.673   0.549 -0.2329 -0.1151  0.0721
  306MOL0     C41228   9.200   3.704   0.602  0.3435  0.3064 -0.4480
  306MOL0     C41229   8.859   3.822   0.858  0.4448 -0.4602  0.8857
  306MOL0     C41230   8.867   3.898   0.976  0.0167  0.7926 -0.2915
  306MOL0     C41231   8.753   3.933   1.044  0.5095 -0.5128 -0.3993
  306MOL0     C41232   8.623   3.907   1.007 -0.1513  1.3883  0.9928
  306MOL0     O41233   8.507   3.938   1.071  0.2371  0.4401  0.3201
  306MOL0     C41234   8.515   4.057   1.151  0.8444 -0.3165 -0.1260
  306MOL0     C41235   8.521   4.031   1.297  0.1646  0.4031  0.1654
  306MOL0     C41236   8.387   4.009   1.365 -0.5156 -0.3910  0.6217
  306MOL0     C41237   8.327   3.868   1.334  0.7841  0.7206  0.2007
  306MOL0     C41238   8.238   3.829   1.449  0.0500 -0.1352  0.7203
  306MOL0     C41239   8.163   3.788   1.536  0.7992 -0.0247  0.5538
  306MOL0     C41240   8.608   3.829   0.890  0.5310 -0.2537 -0.5034
  306MOL0     C41241   8.724   3.785   0.817 -0.2074  0.1108 -0.0860
  306MOL0     C41242   8.711   3.691   0.699  0.4317  0.4448  0.1817
  306MOL0     H41243   9.305   3.945   0.821  0.2791 -0.2581  0.3362
  306MOL0     H41244   9.515   3.877   0.749 -2.4991 -0.4584  3.2747
  306MOL0     H41245   9.608   3.844   0.448 -2.1334 -1.1681  0.5476
  306MOL0     H41246   9.685   3.840   0.609  0.3493  1.1391  0.1102
  306MOL0     H41247   9.756   3.675   0.365  2.9306  1.6577 -2.2567
  306MOL0     H41248   9.808   3.626   0.537  0.1126 -0.9202 -1.8607
  306MOL0     H41249   9.986   3.732   0.419 -0.6338 -0.0086  0.2021
  306MOL0     H41250   9.940   3.846   0.544 -2.6692  0.8075  0.9341
  306MOL0     H41251   9.859   3.823   0.252 -1.8883  0.2044  0.9429
  306MOL0     H41252   9.774   3.927   0.338 -1.4854 -4.3184  1.3106
  306MOL0     H41253   9.969   4.081   0.375  0.0075  4.0461 -2.9902
  306MOL0     H41254  10.084   3.955   0.316  0.3212 -0.2279  2.5244
  306MOL0     H41255   9.987   3.987   0.086  1.2723  1.4125 -0.0909
  306MOL0     H41256   9.884   4.112   0.143  0.1342 -1.4882 -2.5541
  306MOL0     H41257  10.156   4.146   0.246 -2.3920 -3.3034 -0.3024
  306MOL0     H41258  10.052   4.278   0.197 -0.3942 -0.1710  3.6357
  306MOL0     H41259  10.133   4.250  -0.031  2.6936  2.9595  1.9030
  306MOL0     H41260  10.272   4.217   0.053 -0.4503  0.6658  0.5680
  306MOL0     H41261  10.406   4.015   0.086  1.0634  0.2275 -1.9541
  306MOL0     H41262  10.524   3.821  -0.071 -0.3984  2.0591 -0.4568
  306MOL0     H41263  10.446   3.735   0.065  1.9747  1.1572 -0.6611
  306MOL0     H41264  10.330   3.591  -0.088 -0.5851  1.7694  1.5562
  306MOL0     H41265  10.414   3.679  -0.229  0.6146 -1.4251 -0.6461
  306MOL0     H41266  10.585   3.553  -0.014  1.6842  3.0889 -0.3303
  306MOL0     H41267  10.623   3.612  -0.172 -0.5561 -0.8999  0.5864
  306MOL0     H41268  10.447   3.370  -0.090 -0.5039  0.1706  0.1193
  306MOL0     H41269  10.613   3.356  -0.152  0.1081  0.6692 -0.5049
  306MOL0     H41270  10.244   3.510  -0.398  0.6687 -0.1993 -0.0035
  306MOL0     H41271  10.021   3.377  -0.392 -0.3995 -1.7988 -0.6227
  306MOL0     H41272   9.652   3.234  -0.392 -1.3602  1.0031  0.5093
  306MOL0     H41273   9.442   3.132  -0.315 -0.1072 -0.7878 -0.9481
  306MOL0     H41274   9.447   2.810  -0.014 -0.9764 -1.5576 -3.3372
  306MOL0     H41275   9.403   2.971   0.067  1.8958 -1.8981  0.2005
  306MOL0     H41276   9.198   2.845   0.088  2.1697 -3.9390  0.2857
  306MOL0     H41277   9.176   2.939  -0.053 -1.6490  0.3371 -0.1863
  306MOL0     H41278   9.200   2.735  -0.193 -0.1219  0.3814  0.7000
  306MOL0     H41279   9.278   2.644  -0.086 -0.2540  1.0803  0.2352
  306MOL0     H41280   9.111   2.636   0.079  1.0079 -0.2599 -0.0997
  306MOL0     H41281   9.056   2.553  -0.065 -0.1518  0.4430 -0.4761
  306MOL0     H41282   8.919   2.763  -0.131 -0.6367 -3.3651 -1.0050
  306MOL0     H41283   8.954   2.829   0.029  6.3258 -0.1548  0.1466
  306MOL0     H41284   8.725   2.690  -0.007  2.1191  1.4518 -1.0277
  306MOL0     H41285   8.830   2.558  -0.053 -1.1532  0.7688 -1.1280
  306MOL0     H41286   8.881   2.678   0.218  0.5060 -0.1739 -0.7970
  306MOL0     H41287   8.885   2.517   0.174 -1.6407 -2.3062 -3.0211
  306MOL0     H41288   8.639   2.695   0.227  1.4277  0.3705 -1.2324
  306MOL0     H41289   8.610   2.533   0.158 -0.3393 -1.2875  0.6746
  306MOL0     H41290   9.662   2.938   0.012 -0.5404  1.5339  0.2650
  306MOL0     H41291   9.856   3.058  -0.058  0.5332 -2.3886 -1.8280
  306MOL0     H41292  10.219   3.022  -0.290  2.6740  0.5150  0.3849
  306MOL0     H41293  10.435   3.154  -0.261 -1.0053  0.5123  4.2595
  306MOL0     H41294   9.320   3.593   0.476  4.6590 -0.1516 -0.4432
  306MOL0     H41295   9.099   3.669   0.583 -0.0446  1.3761 -0.4423
  306MOL0     H41296   8.964   3.910   1.022  0.4810 -1.0186 -0.6936
  306MOL0     H41297   8.774   3.993   1.131 -0.6867  3.3380 -2.5391
  306MOL0     H41298   8.427   4.116   1.122  2.4420  1.0035 -2.6504
  306MOL0     H41299   8.599   4.118   1.118  2.1083 -2.9160 -2.0608
  306MOL0     H41300   8.564   4.124   1.336 -0.7320  0.5844  0.7690
  306MOL0     H41301   8.590   3.950   1.321  1.6438 -0.3485 -5.3679
  306MOL0     H41302   8.306   4.074   1.332 -2.6772 -2.1325  2.1478
  306MOL0     H41303   8.402   4.018   1.473  0.7940 -0.6343  0.4826
  306MOL0     H41304   8.272   3.864   1.240  0.9486 -1.6565  0.1453
  306MOL0     H41305   8.407   3.793   1.332  1.4406  1.4180 -0.4100
  306MOL0     H41306   8.094   3.779   1.618 -0.3338  2.6523 -0.0046
  306MOL0     H41307   8.504   3.796   0.882  1.2996 -4.2357  2.5137
  306MOL0     H41308   8.606   3.695   0.668  0.6145  3.4130 -0.2845
  306MOL0     H41309   8.772   3.726   0.615 -0.1073 -0.9229 -0.8222
  306MOL0     H41310   8.757   3.595   0.723  0.7617  0.7336  0.7118
  307MOL0     O41311  10.244   5.055  10.647  0.5512  0.4577 -0.8906
  307MOL0     C41312  10.163   4.967  10.692 -0.8679 -0.8475 -0.6147
  307MOL0     O41313  10.203   4.859  10.765 -0.4885 -0.0213 -0.5575
  307MOL0     C41314  10.334   4.838  10.796 -1.0511  0.6472  0.2202
  307MOL0     C41315  10.370   4.819  10.935  0.2487 -0.5094  0.3193
  307MOL0     C41316  10.491   4.772  10.969 -0.3895 -0.6895 -0.3486
  307MOL0     C41317  10.594   4.747  10.870  0.3712 -1.3762 -0.8326
  307MOL0     O41318  10.729   4.713  10.891  0.2155 -1.0637  0.1470
  307MOL0     C41319  10.758   4.685  11.027 -0.2477 -1.5805  0.2728
  307MOL0     C41320  10.911   4.649  11.052 -0.1632 -0.3754 -0.8027
  307MOL0     C41321  11.014   4.758  11.023  0.1764 -0.5903 -0.2596
  307MOL0     C41322  11.155   4.724  11.077 -0.9755  0.6694 -0.0126
  307MOL0     C41323  11.229   4.853  11.118 -0.3425  0.0483 -0.3587
  307MOL0     C41324  11.374   4.814  11.160  1.0087  0.5801  0.9324
  307MOL0     C41325  11.469   4.803  11.045 -0.0275  0.0101  0.0120
  307MOL0     C41326  11.616   4.778  11.098  0.1612  0.2737  0.1992
  307MOL0     N41327  11.634   4.647  11.152 -0.7596  0.7680  0.3631
  307MOL0     C41328  11.596   4.528  11.096 -0.6929 -0.3156  0.0814
  307MOL0     C41329  11.583   4.444  11.203  0.0828  0.8308  0.1594
  307MOL0     C41330  11.515   4.309  11.193  0.8775  0.4250  0.3455
  307MOL0     C41331  11.372   4.306  11.121  0.6370 -0.4447 -0.1151
  307MOL0     C41332  11.252   4.368  11.196 -0.6031  0.0495 -0.2561
  307MOL0     C41333  11.194   4.259  11.291  0.3478 -0.4545  0.3872
  307MOL0     O41334  11.079   4.300  11.365 -0.1115 -0.0354  0.0189
  307MOL0     C41335  10.952   4.293  11.325 -0.5803 -0.2189 -0.0535
  307MOL0     C41336  10.851   4.322  11.416 -0.3952 -0.3385 -0.5746
  307MOL0     C41337  10.713   4.311  11.389  0.5427 -0.8554 -0.1944
  307MOL0     C41338  10.674   4.273  11.257  0.3225  0.0896 -0.9057
  307MOL0     C41339  10.537   4.279  11.212  0.6554  0.2359  0.1430
  307MOL0     O41340  10.507   4.221  11.088 -0.0980 -0.0528 -0.3905
  307MOL0     C41341  10.389   4.243  11.033 -0.4881 -0.3223  0.2227
  307MOL0     C41342  10.298   4.136  11.036 -0.1763 -0.0124  1.2762
  307MOL0     C41343  10.168   4.166  10.989  0.0961  0.0544  0.7037
  307MOL0     C41344  10.134   4.293  10.936  0.0650  0.5615 -0.0744
  307MOL0     O41345  10.012   4.304  10.872 -0.3210  0.0315  0.1860
  307MOL0     C41346   9.902   4.228  10.932 -0.5277 -0.0364 -0.5142
  307MOL0     C41347   9.758   4.260  10.868  0.3930 -0.0595  1.0769
  307MOL0     C41348   9.717   4.403  10.900 -1.0728 -1.0704  1.0819
  307MOL0     C41349   9.600   4.462  10.817  0.7450 -0.1696  1.0468
  307MOL0     C41350   9.465   4.380  10.807 -0.9760  0.1329  0.2626
  307MOL0     C41351   9.343   4.466  10.767  0.4062 -0.3651  0.3354
  307MOL0     C41352   9.227   4.389  10.709 -0.4264  0.6152  0.1623
  307MOL0     C41353   9.085   4.445  10.731 -0.3280  0.4606  0.5573
  307MOL0    Cl41354   9.054   4.450  10.900 -0.0176 -0.1340  0.1514
  307MOL0     C41355  10.233   4.385  10.918  0.3829 -0.0364 -1.0875
  307MOL0     C41356  10.363   4.360  10.971  0.3730 -0.3991  0.4373
  307MOL0     O41357  10.452   4.328  11.282 -0.2100 -0.0356 -0.1892
  307MOL0     C41358  10.776   4.230  11.167  1.3251  0.3292 -0.9633
  307MOL0     C41359  10.914   4.249  11.198 -0.2719  0.3938  0.1039
  307MOL0     N41360  11.613   4.513  11.317  0.3198 -0.2603  0.1103
  307MOL0     N41361  11.650   4.624  11.288 -0.1608 -0.1776  0.4286
  307MOL0     C41362  10.557   4.786  10.739  0.5231  0.4483  0.0378
  307MOL0     C41363  10.428   4.811  10.698 -0.4144  0.1937  0.1980
  307MOL0     C41364  10.012   4.992  10.667  1.1128  0.0799 -0.9765
  307MOL0     C41365   9.979   5.112  10.603  0.0898  0.8213  0.5213
  307MOL0     C41366   9.846   5.150  10.587 -0.0880 -0.7459 -0.0269
  307MOL0     C41367   9.742   5.069  10.639  0.0268  0.7764  0.7368
  307MOL0     O41368   9.608   5.098  10.630  0.1005 -0.0037 -0.2898
  307MOL0     C41369   9.559   5.163  10.510  0.1138  0.2022  0.2406
  307MOL0     C41370   9.418   5.210  10.524 -0.0583  0.6008 -0.0414
  307MOL0     C41371   9.320   5.095  10.517 -0.1099 -0.8726  0.6061
  307MOL0     C41372   9.180   5.137  10.484  0.3205  0.2583  0.0877
  307MOL0     C41373   9.111   5.247  10.554 -0.3741  0.2090 -0.7842
  307MOL0     C41374   9.052   5.305  10.636  0.3698 -0.4863  0.1689
  307MOL0     C41375   9.777   4.963  10.722  0.6310 -0.3318 -0.5937
  307MOL0     C41376   9.910   4.921  10.744 -1.1076  0.2628 -0.5248
  307MOL0     C41377   9.934   4.807  10.833  0.7255  0.4520 -1.0062
  307MOL0     H41378  10.296   4.847  11.009 -0.4857 -0.7622 -0.3065
  307MOL0     H41379  10.508   4.761  11.076 -1.6876  0.6549  0.0270
  307MOL0     H41380  10.738   4.773  11.090 -0.9107 -0.8845 -0.8803
  307MOL0     H41381  10.698   4.602  11.065 -0.2129 -0.2540  3.5459
  307MOL0     H41382  10.934   4.557  10.997  2.8459 -1.2822  1.6744
  307MOL0     H41383  10.912   4.629  11.159 -1.8735  0.4470 -0.6106
  307MOL0     H41384  10.982   4.847  11.078 -0.7592  0.8993 -2.9983
  307MOL0     H41385  11.023   4.777  10.916  0.0290  0.0198 -0.1696
  307MOL0     H41386  11.138   4.661  11.164  1.4664 -0.7955 -0.5008
  307MOL0     H41387  11.205   4.658  11.005 -1.8417 -1.5407  1.3018
  307MOL0     H41388  11.233   4.933  11.043 -2.6860  0.1822 -0.3848
  307MOL0     H41389  11.176   4.907  11.197 -2.2572  1.9457 -2.7968
  307MOL0     H41390  11.410   4.899  11.218  0.7683  1.3816 -0.0556
  307MOL0     H41391  11.361   4.724  11.221 -2.1737 -0.5798 -1.1671
  307MOL0     H41392  11.467   4.901  10.996  2.9540  1.5206  2.5200
  307MOL0     H41393  11.435   4.726  10.976  1.6181 -0.7666  0.0128
  307MOL0     H41394  11.682   4.796  11.012 -1.3624 -0.6384 -1.2318
  307MOL0     H41395  11.659   4.845  11.173  2.6871 -2.7720  1.7016
  307MOL0     H41396  11.568   4.510  10.993 -0.0055  1.5032 -0.4597
  307MOL0     H41397  11.584   4.239  11.146  0.2427 -2.8678  3.7524
  307MOL0     H41398  11.509   4.278  11.298 -1.0801 -1.0865 -0.1522
  307MOL0     H41399  11.385   4.359  11.026  0.5555  0.8436  0.5701
  307MOL0     H41400  11.349   4.203  11.090 -0.9150 -0.0697 -0.2867
  307MOL0     H41401  11.182   4.411  11.123 -0.2815  0.2697 -0.4367
  307MOL0     H41402  11.292   4.451  11.255 -2.8436  1.0591 -0.0635
  307MOL0     H41403  11.269   4.220  11.362  0.6394  1.8019  1.3904
  307MOL0     H41404  11.171   4.179  11.220 -1.3408  2.1336 -2.1713
  307MOL0     H41405  10.887   4.350  11.514  3.6341  0.6734 -2.1359
  307MOL0     H41406  10.640   4.336  11.466  4.0232 -1.5784  3.6855
  307MOL0     H41407  10.317   4.035  11.072 -2.8592 -1.9368 -2.0892
  307MOL0     H41408  10.099   4.083  10.994 -1.5646  1.0789 -2.6365
  307MOL0     H41409   9.918   4.120  10.921 -0.5745  0.1241 -2.6615
  307MOL0     H41410   9.888   4.259  11.036 -2.1727  0.8823 -0.9668
  307MOL0     H41411   9.756   4.249  10.759 -1.6963 -0.3420  1.1034
  307MOL0     H41412   9.694   4.187  10.918  2.8684 -1.4982  2.3629
  307MOL0     H41413   9.706   4.409  11.009  0.9380 -2.9937  1.4579
  307MOL0     H41414   9.797   4.474  10.877 -4.3384  3.5821  2.5356
  307MOL0     H41415   9.633   4.472  10.713  4.4011 -2.0787  1.8155
  307MOL0     H41416   9.577   4.561  10.856 -0.0689 -0.0699  0.3240
  307MOL0     H41417   9.442   4.333  10.903 -2.4050  1.7824  0.7580
  307MOL0     H41418   9.490   4.305  10.731 -1.7344 -1.6852  1.7179
  307MOL0     H41419   9.301   4.519  10.853 -1.8871 -0.8473 -0.4226
  307MOL0     H41420   9.385   4.537  10.696 -0.3222 -1.3917 -1.1917
  307MOL0     H41421   9.249   4.286  10.739  1.7359  1.3780  1.3758
  307MOL0     H41422   9.235   4.372  10.601  0.9782 -0.3928  0.3983
  307MOL0     H41423   9.076   4.536  10.672 -1.3369 -1.0261 -1.7117
  307MOL0     H41424   9.012   4.378  10.684 -0.8793  2.2418 -1.2626
  307MOL0     H41425  10.207   4.473  10.860 -0.1009 -0.8445 -2.1204
  307MOL0     H41426  10.441   4.432  10.949 -0.8775  0.7345 -0.4699
  307MOL0     H41427  10.768   4.203  11.062  1.9471 -3.1154 -0.2358
  307MOL0     H41428  10.981   4.218  11.119 -0.4605  1.1785 -0.3739
  307MOL0     H41429  10.635   4.782  10.665  2.0134 -0.8321  1.5929
  307MOL0     H41430  10.400   4.815  10.593 -0.9371 -0.8413  0.2865
  307MOL0     H41431  10.059   5.173  10.562 -0.4562  0.0788 -1.8105
  307MOL0     H41432   9.824   5.238  10.527  0.0166 -1.3416 -0.9542
  307MOL0     H41433   9.579   5.103  10.421  2.0031  0.3734  0.5113
  307MOL0     H41434   9.617   5.252  10.485 -0.6496  0.6531  0.0500
  307MOL0     H41435   9.401   5.286  10.446 -1.7596  1.8112  1.4201
  307MOL0     H41436   9.427   5.253  10.625  0.6427  1.0322 -0.2732
  307MOL0     H41437   9.324   5.053  10.618  1.5815  0.8699  1.3239
  307MOL0     H41438   9.353   5.022  10.442 -1.0951 -0.3984 -0.3063
  307MOL0     H41439   9.176   5.145  10.375  0.3967 -0.9538 -0.0133
  307MOL0     H41440   9.126   5.045  10.507 -1.4224  1.2329  0.0955
  307MOL0     H41441   9.012   5.353  10.724  1.4057  0.0448  0.3655
  307MOL0     H41442   9.705   4.913  10.786  0.6730  2.1891  1.5872
  307MOL0     H41443   9.833   4.780  10.862  0.4628  0.5162 -1.8265
  307MOL0     H41444   9.984   4.722  10.784  0.6753 -0.5253  0.5722
  307MOL0     H41445   9.976   4.848  10.925 -3.5713  2.3947  0.3544
  308MOL0     O41446   3.763   7.762   6.689 -0.5547  0.5301  0.3593
  308MOL0     C41447   3.731   7.880   6.672  0.0953 -0.2973 -0.0163
  308MOL0     O41448   3.820   7.990   6.658  0.4937  0.2552  0.2560
  308MOL0     C41449   3.953   7.965   6.689 -1.2263 -0.4871  0.2166
  308MOL0     C41450   4.009   8.022   6.807  0.3236 -0.3789  0.2090
  308MOL0     C41451   4.145   7.991   6.830 -0.0686 -0.0217 -0.0372
  308MOL0     C41452   4.230   7.939   6.732  0.5771 -0.5093  0.2657
  308MOL0     O41453   4.368   7.932   6.744  0.2025 -0.4226 -0.4890
  308MOL0     C41454   4.419   7.907   6.875  1.4190  0.1479 -1.6260
  308MOL0     C41455   4.563   7.857   6.862  0.3758 -0.1370  0.0224
  308MOL0     C41456   4.615   7.781   6.991  0.0743  0.9141  0.1531
  308MOL0     C41457   4.761   7.809   7.011 -1.1909 -0.0923  0.0611
  308MOL0     C41458   4.847   7.773   6.880  0.9415  0.3964 -0.7462
  308MOL0     C41459   4.995   7.798   6.915  0.4268  0.5708  0.7590
  308MOL0     C41460   5.097   7.745   6.803  0.6164 -0.5556 -0.3018
  308MOL0     C41461   5.237   7.723   6.873  0.4379  0.1616 -0.5596
  308MOL0     N41462   5.313   7.846   6.898  0.3586 -0.8629  0.1687
  308MOL0     C41463   5.316   7.913   7.020 -1.0040  0.9989  0.6387
  308MOL0     C41464   5.366   8.034   6.979  0.6247 -0.1586 -0.6886
  308MOL0     C41465   5.388   8.156   7.069 -0.2485 -0.2528  0.4392
  308MOL0     C41466   5.530   8.149   7.133 -0.1707 -0.2933  0.3229
  308MOL0     C41467   5.649   8.172   7.039  0.4166 -0.7265  0.1710
  308MOL0     C41468   5.774   8.224   7.101 -0.0363 -0.5199  0.6614
  308MOL0     O41469   5.811   8.143   7.217  1.0180 -0.0402  0.0008
  308MOL0     C41470   5.934   8.166   7.273  0.7562  0.7831  1.3401
  308MOL0     C41471   5.967   8.073   7.370 -0.2414  0.3330  0.7751
  308MOL0     C41472   6.073   8.104   7.456 -0.0732 -0.3706  0.7350
  308MOL0     C41473   6.163   8.211   7.427  0.9001 -0.1816 -0.1071
  308MOL0     C41474   6.290   8.238   7.499 -0.7512 -0.4575  1.0472
  308MOL0     O41475   6.375   8.329   7.438 -0.5683  0.1833  0.1950
  308MOL0     C41476   6.496   8.359   7.495  0.4871 -0.4112 -0.0051
  308MOL0     C41477   6.521   8.497   7.499  0.0140  0.9776 -0.5447
  308MOL0     C41478   6.643   8.543   7.555  0.0896  0.0564 -0.1741
  308MOL0     C41479   6.735   8.445   7.607 -0.0976 -0.4704  0.8109
  308MOL0     O41480   6.863   8.480   7.652  0.1106  0.2975  0.0349
  308MOL0     C41481   6.886   8.614   7.711 -0.0057  0.5478 -0.3609
  308MOL0     C41482   7.032   8.607   7.743  0.3674  0.0692 -0.4380
  308MOL0     C41483   7.054   8.495   7.853  0.5091 -0.1178  0.4217
  308MOL0     C41484   7.197   8.523   7.896  0.4169 -0.0442 -0.7517
  308MOL0     C41485   7.245   8.417   8.007 -0.4958 -0.3979 -0.2736
  308MOL0     C41486   7.277   8.287   7.926  0.1916 -0.2418 -0.8091
  308MOL0     C41487   7.351   8.185   8.017 -0.3447  0.6195 -0.0535
  308MOL0     C41488   7.383   8.065   7.929 -0.4128 -0.3307 -0.7830
  308MOL0    Cl41489   7.224   7.986   7.908 -0.0454 -0.1688  0.4594
  308MOL0     C41490   6.691   8.310   7.615 -0.4176 -0.2862  0.1169
  308MOL0     C41491   6.573   8.258   7.549 -0.9750 -0.1824  0.0502
  308MOL0     O41492   6.303   8.187   7.602  0.2977  0.1684 -0.6246
  308MOL0     C41493   6.122   8.295   7.327  0.3080  0.4745 -0.0898
  308MOL0     C41494   6.004   8.277   7.259  0.5056 -1.3784  0.0405
  308MOL0     N41495   5.397   8.036   6.846 -0.5085  0.1534 -0.4655
  308MOL0     N41496   5.371   7.922   6.797  0.0077 -0.2155 -0.1949
  308MOL0     C41497   4.167   7.883   6.617 -0.9000  0.4370 -0.4097
  308MOL0     C41498   4.029   7.891   6.599 -0.6837 -0.0984  0.1145
  308MOL0     C41499   3.587   7.917   6.684 -1.1374 -0.1402  0.6578
  308MOL0     C41500   3.547   8.049   6.712  0.2644  0.2171  1.4471
  308MOL0     C41501   3.419   8.077   6.756 -0.1265 -0.0170  0.0974
  308MOL0     C41502   3.329   7.976   6.766 -0.4723  1.0854  0.2437
  308MOL0     O41503   3.208   8.023   6.810  0.0936 -0.4657 -0.4679
  308MOL0     C41504   3.120   7.930   6.872  0.0955 -0.2193 -0.1350
  308MOL0     C41505   3.035   7.998   6.988 -0.2608  0.6166 -0.5627
  308MOL0     C41506   2.941   7.907   7.063 -0.5672  0.7688 -0.4028
  308MOL0     C41507   2.813   7.987   7.094 -0.5043  0.4875 -0.0225
  308MOL0     C41508   2.705   7.889   7.132  0.8697  0.7214 -0.5552
  308MOL0     C41509   2.622   7.798   7.166 -0.5203  0.2300 -0.4917
  308MOL0     C41510   3.357   7.852   6.725 -0.2419  0.6025 -0.2304
  308MOL0     C41511   3.487   7.817   6.683  0.2197  0.1461 -0.1355
  308MOL0     C41512   3.493   7.674   6.637 -0.6628 -0.2941 -0.3026
  308MOL0     H41513   3.952   8.092   6.867  1.2228 -1.6031  2.6162
  308MOL0     H41514   4.194   8.038   6.915 -1.1760  0.6394  0.2667
  308MOL0     H41515   4.424   8.005   6.922 -0.2475  0.0251 -1.1114
  308MOL0     H41516   4.363   7.832   6.932  2.2041  0.8250  0.1011
  308MOL0     H41517   4.623   7.944   6.835 -1.6788  2.1741  2.3626
  308MOL0     H41518   4.569   7.780   6.784  0.3359 -0.4436  0.3199
  308MOL0     H41519   4.594   7.675   6.973  0.8805  1.1944 -3.2007
  308MOL0     H41520   4.567   7.813   7.084  0.6121  2.4442 -0.0655
  308MOL0     H41521   4.787   7.915   7.018  1.3406 -0.5645 -0.9676
  308MOL0     H41522   4.803   7.764   7.101  0.4052 -0.4326 -0.8015
  308MOL0     H41523   4.829   7.668   6.854  3.2522 -0.5075  0.8808
  308MOL0     H41524   4.823   7.844   6.801  2.0328  1.1441 -0.4282
  308MOL0     H41525   5.016   7.906   6.920  0.1476  0.7257 -0.9532
  308MOL0     H41526   5.011   7.760   7.016  0.6263  1.3927  1.0453
  308MOL0     H41527   5.100   7.816   6.720  1.9061  0.7654  0.8088
  308MOL0     H41528   5.053   7.655   6.759 -0.5755  0.3503 -1.0089
  308MOL0     H41529   5.229   7.673   6.970  4.2466  0.6015  0.1777
  308MOL0     H41530   5.291   7.657   6.804  1.0599  0.3263 -0.2413
  308MOL0     H41531   5.287   7.879   7.119  0.9407 -1.8437  0.3842
  308MOL0     H41532   5.372   8.243   7.006 -2.9025  2.3065  4.1983
  308MOL0     H41533   5.310   8.173   7.144  0.1358 -1.0693  1.0374
  308MOL0     H41534   5.530   8.224   7.213 -3.8446 -1.6627  1.8662
  308MOL0     H41535   5.557   8.048   7.167  1.1866 -0.8763 -2.2192
  308MOL0     H41536   5.611   8.256   6.979 -2.0667  0.1039  2.7000
  308MOL0     H41537   5.685   8.088   6.978  3.4021  0.3010  0.3158
  308MOL0     H41538   5.765   8.331   7.124 -1.3288 -0.1085 -1.4705
  308MOL0     H41539   5.847   8.219   7.020  1.3452 -2.0896  1.9555
  308MOL0     H41540   5.897   7.994   7.396 -0.8557  1.1799  1.7555
  308MOL0     H41541   6.107   8.036   7.534 -1.9908 -2.5054 -0.1634
  308MOL0     H41542   6.444   8.556   7.451 -3.2094 -4.2607 -2.7140
  308MOL0     H41543   6.663   8.649   7.544 -1.4570  0.4631  0.6497
  308MOL0     H41544   6.863   8.704   7.654  2.4364  0.6580 -1.2868
  308MOL0     H41545   6.823   8.618   7.800  0.8309  2.7365  0.1919
  308MOL0     H41546   7.099   8.593   7.658 -0.2781  2.3120 -1.3661
  308MOL0     H41547   7.060   8.702   7.788 -1.1023  0.0239  0.6707
  308MOL0     H41548   6.978   8.512   7.929  1.5881 -0.7288  1.6724
  308MOL0     H41549   7.040   8.393   7.818 -3.2105 -0.2820  1.9878
  308MOL0     H41550   7.196   8.622   7.941 -0.9707 -1.0649  1.6449
  308MOL0     H41551   7.263   8.524   7.809 -0.9277 -1.2240 -1.8431
  308MOL0     H41552   7.174   8.409   8.090  1.1984 -0.9408  1.1785
  308MOL0     H41553   7.338   8.454   8.051 -0.5614  0.4698 -0.8431
  308MOL0     H41554   7.179   8.254   7.891  0.9004 -1.3720 -1.8047
  308MOL0     H41555   7.344   8.309   7.842  0.7406 -0.3454 -0.4065
  308MOL0     H41556   7.285   8.143   8.094  0.9468 -1.0848  0.1847
  308MOL0     H41557   7.438   8.218   8.074  1.0384 -3.8072  0.8064
  308MOL0     H41558   7.425   8.083   7.829  2.2401 -0.3143  0.2600
  308MOL0     H41559   7.449   7.995   7.980  2.2951  1.8457 -1.0712
  308MOL0     H41560   6.756   8.234   7.656 -0.1960 -0.3468 -0.3469
  308MOL0     H41561   6.538   8.156   7.556 -0.5635 -0.1846  3.3752
  308MOL0     H41562   6.181   8.382   7.301  0.3734 -0.1059 -2.1336
  308MOL0     H41563   5.966   8.361   7.203 -0.9370 -1.3572  0.9925
  308MOL0     H41564   4.237   7.839   6.546  1.1479  2.7109  0.0680
  308MOL0     H41565   3.988   7.839   6.513  0.3666 -2.4217  0.9413
  308MOL0     H41566   3.620   8.130   6.711  0.0215  0.4916 -0.8588
  308MOL0     H41567   3.393   8.179   6.782 -6.4655 -1.7099  2.1909
  308MOL0     H41568   3.179   7.854   6.925  2.3463  1.7466  0.3313
  308MOL0     H41569   3.050   7.885   6.801 -1.6172 -0.2073  1.4596
  308MOL0     H41570   2.980   8.075   6.933  0.1185 -0.1842 -2.1148
  308MOL0     H41571   3.109   8.051   7.049 -1.1497  0.9281  0.2633
  308MOL0     H41572   2.992   7.881   7.156 -1.7376  1.2264  0.3843
  308MOL0     H41573   2.920   7.813   7.012  0.6211  0.1075  0.2800
  308MOL0     H41574   2.842   8.059   7.171  1.7474 -2.2271  1.8806
  308MOL0     H41575   2.779   8.045   7.008 -0.4948 -0.9986 -1.0654
  308MOL0     H41576   2.541   7.737   7.201  1.4278 -2.9837 -1.1162
  308MOL0     H41577   3.286   7.771   6.725 -0.0623  0.4118 -1.5116
  308MOL0     H41578   3.404   7.639   6.585 -1.8688  2.7491 -0.5085
  308MOL0     H41579   3.575   7.665   6.565 -2.1387 -2.5561 -1.8062
  308MOL0     H41580   3.521   7.609   6.720 -1.4016 -1.3110 -0.8329
  309MOL0     O41581   6.270  10.998  10.124  0.6317 -0.7428  0.2243
  309MOL0     C41582   6.351  10.923  10.170 -0.5289  0.1327  0.0988
  309MOL0     O41583   6.329  10.795  10.180  0.2764 -0.4983  0.1668
  309MOL0     C41584   6.198  10.738  10.185 -0.4000  0.9291  0.8388
  309MOL0     C41585   6.193  10.601  10.167  0.1010 -0.1112  0.3847
  309MOL0     C41586   6.069  10.527  10.161 -0.3490  0.4366 -0.4253
  309MOL0     C41587   5.949  10.597  10.169  0.2284 -0.4647 -0.1733
  309MOL0     O41588   5.821  10.534  10.157 -0.4581  0.4387 -0.0195
  309MOL0     C41589   5.720  10.601  10.084 -0.9450 -0.3956 -0.7221
  309MOL0     C41590   5.593  10.601  10.166  0.5328  0.7423 -0.3729
  309MOL0     C41591   5.465  10.599  10.092 -0.7193 -0.0565  0.3710
  309MOL0     C41592   5.349  10.609  10.199  0.3635 -0.1500  0.7869
  309MOL0     C41593   5.208  10.589  10.132  0.2067 -0.2762  0.4172
  309MOL0     C41594   5.087  10.638  10.216 -0.9440 -0.0775 -0.1288
  309MOL0     C41595   4.954  10.616  10.142 -0.0085  0.8296  0.1208
  309MOL0     C41596   4.842  10.659  10.235 -0.3168 -0.4376 -0.2152
  309MOL0     N41597   4.826  10.565  10.351 -0.2628  0.3585 -0.5803
  309MOL0     C41598   4.867  10.579  10.482 -0.6959  0.5374  0.0474
  309MOL0     C41599   4.804  10.476  10.551 -0.1260 -0.6617  0.3066
  309MOL0     C41600   4.793  10.446  10.699  0.9807 -0.7195 -0.1161
  309MOL0     C41601   4.927  10.423  10.771  0.1717 -0.2678 -0.5106
  309MOL0     C41602   4.894  10.414  10.919 -0.4090 -0.1781 -0.6026
  309MOL0     C41603   4.847  10.274  10.959 -0.8351 -0.7473 -0.7943
  309MOL0     O41604   4.820  10.274  11.097  0.1733  0.8632 -0.1539
  309MOL0     C41605   4.925  10.278  11.190  0.2569 -0.6528 -0.6697
  309MOL0     C41606   4.895  10.314  11.322 -0.8379 -0.2180 -0.0219
  309MOL0     C41607   4.993  10.346  11.424 -0.1149  0.5054 -0.5341
  309MOL0     C41608   5.125  10.319  11.386  0.3253  0.3754 -0.0832
  309MOL0     C41609   5.237  10.338  11.488 -0.1841 -0.2986  0.2909
  309MOL0     O41610   5.368  10.346  11.443  0.1011 -0.4833  1.0823
  309MOL0     C41611   5.477  10.351  11.526  0.3687 -0.0930 -0.3397
  309MOL0     C41612   5.487  10.458  11.617  0.2244  0.2608  0.2171
  309MOL0     C41613   5.594  10.474  11.699 -0.4591 -0.0856  0.0204
  309MOL0     C41614   5.704  10.385  11.690 -0.0421 -0.2915  0.5062
  309MOL0     O41615   5.804  10.402  11.776 -0.3131  0.0724  0.5181
  309MOL0     C41616   5.911  10.309  11.794  0.5644 -0.3403  0.9574
  309MOL0     C41617   6.011  10.358  11.896  0.8466  0.2001 -0.9868
  309MOL0     C41618   6.154  10.304  11.873  0.9154  0.6320 -0.5413
  309MOL0     C41619   6.252  10.345  11.985 -0.3825 -0.1171  0.3362
  309MOL0     C41620   6.386  10.261  12.009  0.1541 -0.0390  0.4134
  309MOL0     C41621   6.478  10.291  11.886  0.3340  0.0481 -0.2124
  309MOL0     C41622   6.615  10.222  11.894 -0.0044 -0.6994 -0.4493
  309MOL0     C41623   6.701  10.259  12.016  0.1343 -0.3686  1.0501
  309MOL0    Cl41624   6.851  10.166  12.020 -0.3312 -0.1298 -0.1730
  309MOL0     C41625   5.709  10.280  11.594  0.3108 -1.1131 -0.2828
  309MOL0     C41626   5.587  10.266  11.523 -0.1418  0.0761 -0.4889
  309MOL0     O41627   5.203  10.340  11.610 -0.3991 -0.0306  0.0419
  309MOL0     C41628   5.157  10.271  11.259 -0.3946  0.2311  1.0305
  309MOL0     C41629   5.063  10.262  11.160 -0.2912  0.4168  0.2889
  309MOL0     N41630   4.725  10.415  10.461 -0.3201 -0.3036 -0.4362
  309MOL0     N41631   4.737  10.467  10.347 -0.1897 -0.0576  0.0024
  309MOL0     C41632   5.955  10.733  10.193 -0.1009  0.0872  0.4317
  309MOL0     C41633   6.080  10.798  10.196 -0.2711 -0.6165  1.1746
  309MOL0     C41634   6.491  10.960  10.199  0.5077 -0.1370 -0.3812
  309MOL0     C41635   6.586  10.861  10.207 -0.2923 -0.0642  0.6793
  309MOL0     C41636   6.718  10.887  10.238 -0.2038  0.7133  0.2177
  309MOL0     C41637   6.762  11.007  10.281 -0.1919 -0.5890 -0.2893
  309MOL0     O41638   6.889  11.034  10.331  0.0108  0.3838  0.3264
  309MOL0     C41639   6.978  10.922  10.357  0.0778  0.3737  0.0643
  309MOL0     C41640   7.113  10.969  10.398  0.2389 -0.3806  0.1228
  309MOL0     C41641   7.184  11.030  10.283  0.4642 -0.7329 -0.0151
  309MOL0     C41642   7.330  11.053  10.298 -0.4423  0.0192  0.3145
  309MOL0     C41643   7.349  11.180  10.364  0.8670 -0.0676  0.0631
  309MOL0     C41644   7.376  11.282  10.428  0.2586  0.1214  0.3861
  309MOL0     C41645   6.670  11.107  10.283 -0.1547 -0.2962  0.6364
  309MOL0     C41646   6.530  11.090  10.253  0.9237 -0.5414  0.7376
  309MOL0     C41647   6.424  11.201  10.276  0.2139  0.1213  0.4235
  309MOL0     H41648   6.285  10.546  10.148  0.6691  0.5332  1.2136
  309MOL0     H41649   6.061  10.419  10.152 -1.9593  0.5288 -0.4153
  309MOL0     H41650   5.745  10.704  10.056 -1.7281 -0.4560 -1.6980
  309MOL0     H41651   5.714  10.542   9.992  1.8887  0.6725 -1.7037
  309MOL0     H41652   5.605  10.684  10.237  1.7642 -0.1627  0.5249
  309MOL0     H41653   5.592  10.511  10.229 -0.2808  1.6905  1.0154
  309MOL0     H41654   5.485  10.511  10.030  2.1522  0.6128  0.1955
  309MOL0     H41655   5.460  10.686  10.026  3.0824 -0.6041 -0.8571
  309MOL0     H41656   5.363  10.529  10.272  0.8945 -1.4428 -0.6722
  309MOL0     H41657   5.364  10.705  10.249 -1.5440  1.8974 -2.2232
  309MOL0     H41658   5.215  10.630  10.031  0.9471 -2.7387 -0.6228
  309MOL0     H41659   5.196  10.481  10.117 -0.5988 -0.1282 -0.1270
  309MOL0     H41660   5.091  10.578  10.307 -1.7503 -0.4861 -0.3508
  309MOL0     H41661   5.100  10.744  10.235  1.7571 -0.6706  1.9193
  309MOL0     H41662   4.935  10.513  10.111 -0.8561  0.8773  0.4575
  309MOL0     H41663   4.958  10.678  10.052 -0.8260  1.4258  0.4809
  309MOL0     H41664   4.863  10.757  10.280 -0.8246 -0.0777 -0.7459
  309MOL0     H41665   4.748  10.666  10.179 -1.0599 -3.4754  0.4856
  309MOL0     H41666   4.928  10.650  10.537 -0.6551  1.2421 -0.8930
  309MOL0     H41667   4.737  10.532  10.736 -0.9368 -1.8663 -0.2607
  309MOL0     H41668   4.731  10.357  10.709  2.3920 -1.5803  1.5555
  309MOL0     H41669   4.984  10.346  10.719  0.4342  1.2263 -2.5612
  309MOL0     H41670   4.983  10.518  10.768 -0.3278  0.3772  3.6827
  309MOL0     H41671   4.835  10.499  10.955  1.0062  1.3300 -1.6597
  309MOL0     H41672   4.994  10.429  10.960 -0.9126 -1.1633  1.0557
  309MOL0     H41673   4.924  10.198  10.938  1.0837  1.4525 -2.2827
  309MOL0     H41674   4.749  10.257  10.914 -1.9139  1.0861  0.7574
  309MOL0     H41675   4.790  10.328  11.344 -1.3231 -3.3848  0.0736
  309MOL0     H41676   4.981  10.379  11.526 -0.2380  4.0660 -1.5402
  309MOL0     H41677   5.406  10.530  11.622  0.0245 -0.0385  1.6469
  309MOL0     H41678   5.609  10.541  11.783 -0.7367 -1.2945  1.0679
  309MOL0     H41679   5.863  10.217  11.831 -0.9139  1.0495  2.6928
  309MOL0     H41680   5.967  10.285  11.703 -0.3076 -0.3564  0.4191
  309MOL0     H41681   6.013  10.467  11.888  2.7790  0.0644 -3.4191
  309MOL0     H41682   5.963  10.337  11.992  0.2374  3.3455 -0.5088
  309MOL0     H41683   6.159  10.196  11.891  0.0410  0.7816  0.6816
  309MOL0     H41684   6.193  10.313  11.771  1.7150 -1.4293 -0.4733
  309MOL0     H41685   6.195  10.342  12.078 -1.2102  0.1651 -0.1529
  309MOL0     H41686   6.274  10.450  11.960  0.5578 -0.2512  0.5485
  309MOL0     H41687   6.359  10.155  12.013 -0.3936  0.1261  1.8087
  309MOL0     H41688   6.433  10.290  12.103 -1.9027  0.0359  1.4755
  309MOL0     H41689   6.425  10.253  11.798 -1.0662 -0.8652  0.9716
  309MOL0     H41690   6.493  10.398  11.870  1.2397 -0.1204 -0.5172
  309MOL0     H41691   6.673  10.255  11.808 -0.5005 -0.3904 -0.6681
  309MOL0     H41692   6.605  10.113  11.889 -0.8336 -0.5985 -1.2751
  309MOL0     H41693   6.722  10.365  12.034  2.0076 -0.7093  1.0603
  309MOL0     H41694   6.647  10.204  12.094  1.2836 -3.8704 -0.4182
  309MOL0     H41695   5.788  10.208  11.579 -0.5087 -1.9384 -0.7168
  309MOL0     H41696   5.587  10.173  11.467  2.6491 -1.4386  1.7240
  309MOL0     H41697   5.259  10.255  11.223 -0.9147  2.0596 -1.4963
  309MOL0     H41698   5.097  10.225  11.064 -2.7434  2.4043 -1.5115
  309MOL0     H41699   5.866  10.794  10.201  0.3465  1.0608 -1.4551
  309MOL0     H41700   6.073  10.905  10.215 -1.1211 -0.0308 -1.7820
  309MOL0     H41701   6.557  10.760  10.180 -3.1060  0.8704 -0.1390
  309MOL0     H41702   6.783  10.801  10.225 -1.6890 -0.0910 -2.6272
  309MOL0     H41703   6.990  10.852  10.274  3.9366 -1.9029  2.2502
  309MOL0     H41704   6.946  10.853  10.435 -0.0312 -1.2223 -1.3358
  309MOL0     H41705   7.166  10.882  10.438  0.5447  0.6510  2.0997
  309MOL0     H41706   7.116  11.040  10.481  1.7063 -0.3161  0.0510
  309MOL0     H41707   7.142  11.126  10.252 -1.3280 -2.3810 -3.2666
  309MOL0     H41708   7.168  10.972  10.192 -0.4910 -1.8156  0.8111
  309MOL0     H41709   7.374  10.973  10.357 -2.0149  0.3309  2.0274
  309MOL0     H41710   7.389  11.054  10.206 -2.7579  1.7289 -1.3103
  309MOL0     H41711   7.413  11.355  10.498  0.2488 -0.4306  0.9727
  309MOL0     H41712   6.703  11.208  10.306 -0.3647 -0.2592  0.7730
  309MOL0     H41713   6.345  11.159  10.339 -0.0579  0.7101  0.4897
  309MOL0     H41714   6.472  11.292  10.314  2.4572  0.3929 -2.7023
  309MOL0     H41715   6.365  11.230  10.188 -1.0979  2.2476  1.8929
  310MOL0     O41716   3.546   0.812   3.543  1.0099 -0.5544  0.0752
  310MOL0     C41717   3.437   0.773   3.494  0.3617  0.1139 -0.2842
  310MOL0     O41718   3.410   0.706   3.388  0.5838  0.8339  1.2590
  310MOL0     C41719   3.505   0.672   3.296  0.3987  0.7500 -0.4050
  310MOL0     C41720   3.563   0.770   3.216  0.5599  0.5631 -0.3592
  310MOL0     C41721   3.663   0.730   3.126 -0.1158 -0.3457  0.5867
  310MOL0     C41722   3.702   0.600   3.097 -0.4199  0.5498 -0.3376
  310MOL0     O41723   3.804   0.554   3.011 -0.7032 -0.0105  0.5134
  310MOL0     C41724   3.913   0.647   2.982 -0.0345 -0.3246 -0.1390
  310MOL0     C41725   4.015   0.586   2.893 -0.0547 -0.1848 -0.2781
  310MOL0     C41726   4.064   0.454   2.957 -0.9941 -0.5932  0.7767
  310MOL0     C41727   4.194   0.397   2.896  0.2307  0.0037  0.1255
  310MOL0     C41728   4.274   0.304   2.990  0.3890  1.0346 -0.0334
  310MOL0     C41729   4.372   0.211   2.925 -0.7049 -0.7956 -0.1710
  310MOL0     C41730   4.478   0.298   2.848 -0.9363 -0.2764 -0.3203
  310MOL0     C41731   4.590   0.194   2.820 -0.1274  0.2844  0.6221
  310MOL0     N41732   4.651   0.119   2.934  0.8639  0.4196  0.2598
  310MOL0     C41733   4.725   0.170   3.045  0.0336 -0.6322 -0.3425
  310MOL0     C41734   4.737   0.064   3.124  0.7693  0.4194 -0.3126
  310MOL0     C41735   4.783   0.059   3.265 -0.0010  0.6150  0.4586
  310MOL0     C41736   4.891   0.163   3.306 -0.4746 -0.7151  0.0877
  310MOL0     C41737   4.924   0.164   3.456  0.4620 -1.1310 -0.0479
  310MOL0     C41738   4.804   0.143   3.554  0.9754 -0.4285  0.7079
  310MOL0     O41739   4.856   0.176   3.683 -0.4780  0.3398  0.6607
  310MOL0     C41740   4.828   0.074   3.781 -0.2824 -0.9660  0.5547
  310MOL0     C41741   4.931  -0.006   3.837  0.6009 -0.2059  0.3636
  310MOL0     C41742   4.908  -0.077   3.957  0.2458 -1.1444 -0.3763
  310MOL0     C41743   4.782  -0.065   4.027 -0.2151  0.4530 -0.5587
  310MOL0     C41744   4.750  -0.143   4.143  0.5303  0.1751 -0.1766
  310MOL0     O41745   4.621  -0.170   4.170  0.8095  0.2491  0.4088
  310MOL0     C41746   4.580  -0.219   4.290 -0.1368  0.8027  0.1416
  310MOL0     C41747   4.485  -0.143   4.350 -0.4493  0.4545  0.1354
  310MOL0     C41748   4.432  -0.187   4.470 -0.2631  0.2943  0.1137
  310MOL0     C41749   4.476  -0.307   4.532  0.7234  0.8458  0.1025
  310MOL0     O41750   4.426  -0.328   4.658 -0.0140  0.2760  0.6682
  310MOL0     C41751   4.404  -0.462   4.712 -0.1530 -0.6470  0.7453
  310MOL0     C41752   4.260  -0.472   4.759  0.6691  0.5628 -0.2556
  310MOL0     C41753   4.158  -0.474   4.641  0.1782 -0.1259  0.3398
  310MOL0     C41754   4.154  -0.610   4.568 -0.1676 -0.2296  0.7175
  310MOL0     C41755   4.062  -0.596   4.445 -0.3390 -0.8810  0.4383
  310MOL0     C41756   4.029  -0.738   4.398  0.7118  0.1374 -0.1197
  310MOL0     C41757   3.967  -0.749   4.249 -0.0836  0.7893 -0.2943
  310MOL0     C41758   3.876  -0.872   4.247 -0.1343 -0.5850 -1.3332
  310MOL0    Cl41759   3.981  -1.021   4.243  0.1306  0.0365  0.0196
  310MOL0     C41760   4.565  -0.393   4.466 -0.2683 -1.1495  1.4916
  310MOL0     C41761   4.615  -0.345   4.344 -0.7619 -0.2939  0.1732
  310MOL0     O41762   4.837  -0.168   4.222  0.1810  0.5509  0.2021
  310MOL0     C41763   4.677   0.007   3.963 -0.1228 -0.8791 -0.3447
  310MOL0     C41764   4.702   0.078   3.846  0.7223 -0.4518 -0.4585
  310MOL0     N41765   4.677  -0.050   3.060 -0.2263  0.2945 -0.6737
  310MOL0     N41766   4.644  -0.023   2.941  0.2487 -0.4350 -0.5366
  310MOL0     C41767   3.641   0.499   3.175 -0.0483  0.4889 -0.0082
  310MOL0     C41768   3.529   0.539   3.262  0.0168 -0.6992 -0.5885
  310MOL0     C41769   3.314   0.782   3.588  0.4167 -0.1896  0.1767
  310MOL0     C41770   3.327   0.883   3.687 -0.5017 -0.0562 -0.8165
  310MOL0     C41771   3.224   0.898   3.783 -0.3667 -0.7828  0.1348
  310MOL0     C41772   3.105   0.831   3.770 -0.2918  0.9077 -0.6314
  310MOL0     O41773   2.996   0.864   3.848 -0.3852 -0.0623  0.6094
  310MOL0     C41774   3.029   0.885   3.986  0.0226  0.3840 -0.1133
  310MOL0     C41775   2.910   0.905   4.074  0.4279  0.6297  0.2146
  310MOL0     C41776   2.834   0.783   4.126  0.5717 -0.1185 -0.0521
  310MOL0     C41777   2.698   0.828   4.174 -0.2853 -0.1450 -0.2038
  310MOL0     C41778   2.631   0.718   4.250  0.8337  0.1687 -0.5122
  310MOL0     C41779   2.555   0.636   4.305 -0.1118  0.1792  0.6221
  310MOL0     C41780   3.089   0.722   3.675  0.0738  0.4423 -0.7731
  310MOL0     C41781   3.192   0.701   3.585  0.2171  0.9850  0.0947
  310MOL0     C41782   3.163   0.593   3.482 -0.2147  0.3316  0.7562
  310MOL0     H41783   3.533   0.874   3.224  0.6965  0.5544  0.3854
  310MOL0     H41784   3.712   0.799   3.059 -0.5118 -0.1358  0.5086
  310MOL0     H41785   3.870   0.729   2.924  0.4472 -1.6176 -2.4868
  310MOL0     H41786   3.951   0.689   3.075  1.2504 -0.8885 -0.3893
  310MOL0     H41787   4.101   0.653   2.880  0.3170 -0.9103 -1.7658
  310MOL0     H41788   3.965   0.562   2.799  0.9322 -1.5820 -0.4929
  310MOL0     H41789   3.983   0.381   2.960 -1.2886 -0.2701  0.7498
  310MOL0     H41790   4.091   0.477   3.061 -0.9694 -1.7094  1.0257
  310MOL0     H41791   4.166   0.352   2.800 -1.1975  3.0631 -1.0266
  310MOL0     H41792   4.256   0.483   2.873 -1.3527  0.5423 -2.6673
  310MOL0     H41793   4.320   0.362   3.070  0.5991 -1.5524  1.8794
  310MOL0     H41794   4.206   0.236   3.042  1.2084 -1.9542 -2.5372
  310MOL0     H41795   4.419   0.156   3.007  0.0171  0.8174  0.5329
  310MOL0     H41796   4.319   0.141   2.860  0.0544 -0.9369 -0.6474
  310MOL0     H41797   4.512   0.375   2.917  3.7582 -0.2488 -2.2499
  310MOL0     H41798   4.440   0.347   2.758  0.8473  3.4665  0.7578
  310MOL0     H41799   4.555   0.126   2.742  1.8638  0.3287 -0.3776
  310MOL0     H41800   4.675   0.239   2.768 -1.6618  1.3830 -1.0981
  310MOL0     H41801   4.741   0.275   3.068  1.7687 -1.4635  2.7844
  310MOL0     H41802   4.693   0.055   3.327  0.5436 -4.2324  1.3423
  310MOL0     H41803   4.826  -0.040   3.277 -0.7274  0.2182 -0.0693
  310MOL0     H41804   4.977   0.142   3.242  1.1842  2.1741  1.2140
  310MOL0     H41805   4.853   0.262   3.281 -1.1836 -0.7452  0.9998
  310MOL0     H41806   4.971   0.262   3.470 -1.7570  0.4456 -2.7392
  310MOL0     H41807   4.989   0.079   3.482  2.0360  0.3346  1.0043
  310MOL0     H41808   4.766   0.044   3.529  1.4608  0.3156 -3.9143
  310MOL0     H41809   4.723   0.211   3.526  1.8265  0.5096  0.4424
  310MOL0     H41810   5.028   0.002   3.789  0.7669 -1.8348  0.3661
  310MOL0     H41811   4.990  -0.137   3.994  0.4676 -0.7231 -0.1815
  310MOL0     H41812   4.461  -0.044   4.314  1.2306  1.3031  1.2118
  310MOL0     H41813   4.361  -0.129   4.528  1.3352  1.7042  0.7114
  310MOL0     H41814   4.421  -0.544   4.642 -0.4997 -0.6168  0.6229
  310MOL0     H41815   4.468  -0.479   4.799 -1.3227 -3.8262  1.1119
  310MOL0     H41816   4.245  -0.564   4.816 -0.2478  0.5706 -0.4759
  310MOL0     H41817   4.238  -0.384   4.820 -0.2858 -1.4991  2.5777
  310MOL0     H41818   4.061  -0.443   4.681  0.5560 -1.4892  2.5400
  310MOL0     H41819   4.190  -0.391   4.578  0.6503  1.7588  2.8766
  310MOL0     H41820   4.111  -0.688   4.632  0.2420 -3.0546 -2.2078
  310MOL0     H41821   4.257  -0.636   4.541  0.6889  2.4193  1.1881
  310MOL0     H41822   4.113  -0.542   4.365 -1.6767 -0.6724 -0.2915
  310MOL0     H41823   3.967  -0.548   4.466 -1.6462 -2.2148 -2.0398
  310MOL0     H41824   4.124  -0.793   4.402  0.3788 -0.4007  3.6494
  310MOL0     H41825   3.964  -0.779   4.475 -0.2562 -0.6817 -1.3408
  310MOL0     H41826   4.042  -0.765   4.171 -2.0726  0.8218 -2.3321
  310MOL0     H41827   3.902  -0.666   4.221  0.8153  1.5099 -0.3004
  310MOL0     H41828   3.816  -0.880   4.337 -2.0026  2.4450 -2.1550
  310MOL0     H41829   3.803  -0.858   4.167  0.0574 -0.5019 -1.4962
  310MOL0     H41830   4.610  -0.478   4.516  1.5828 -0.4875  1.0236
  310MOL0     H41831   4.682  -0.405   4.282 -1.1264 -0.9544  0.4169
  310MOL0     H41832   4.585   0.017   4.019 -1.3496  3.1468 -2.6455
  310MOL0     H41833   4.639   0.161   3.814  0.7478 -0.3683 -0.2932
  310MOL0     H41834   3.657   0.394   3.153 -4.0730 -0.6892  1.7440
  310MOL0     H41835   3.472   0.458   3.306 -0.2956  1.2441  2.9434
  310MOL0     H41836   3.415   0.945   3.701  0.5512 -1.3570 -1.4408
  310MOL0     H41837   3.235   0.980   3.853 -0.1003 -0.1204 -0.6563
  310MOL0     H41838   3.076   0.984   3.985 -1.5569  1.2024 -2.3836
  310MOL0     H41839   3.099   0.811   4.024 -0.2404 -0.4358 -1.1724
  310MOL0     H41840   2.831   0.963   4.026 -2.3986 -1.7905  1.5911
  310MOL0     H41841   2.939   0.955   4.167  1.7824 -1.5167  1.0390
  310MOL0     H41842   2.885   0.757   4.219  0.1938  1.1364  0.5235
  310MOL0     H41843   2.833   0.701   4.053 -0.2173  0.6912 -0.9820
  310MOL0     H41844   2.700   0.918   4.235 -1.5498 -0.8098  0.8502
  310MOL0     H41845   2.650   0.856   4.080  0.8585  4.3860  0.3264
  310MOL0     H41846   2.489   0.566   4.352  0.8329  0.6485  2.7509
  310MOL0     H41847   3.002   0.659   3.657  0.1340  0.2377 -0.3693
  310MOL0     H41848   3.104   0.638   3.401 -0.9109  0.3390  1.2562
  310MOL0     H41849   3.251   0.543   3.440 -0.2628  0.0020  1.0411
  310MOL0     H41850   3.099   0.515   3.525 -2.2485 -0.3450 -3.0559
  311MOL0     O41851   7.922   5.207   5.389  0.2939  0.1523  0.0976
  311MOL0     C41852   7.824   5.145   5.424 -0.1488  0.1176 -0.3705
  311MOL0     O41853   7.788   5.128   5.562  0.0496 -0.0858  0.1147
  311MOL0     C41854   7.870   5.173   5.654  0.1490 -0.1087  0.2438
  311MOL0     C41855   7.822   5.233   5.768  1.1130 -1.1210  0.2424
  311MOL0     C41856   7.907   5.270   5.876  0.5506  0.7309 -0.2963
  311MOL0     C41857   8.037   5.222   5.881 -0.3013  0.2854  0.1902
  311MOL0     O41858   8.128   5.265   5.969  0.3349  0.4020  0.0455
  311MOL0     C41859   8.090   5.318   6.100 -0.3542  0.1241  0.3858
  311MOL0     C41860   8.217   5.355   6.181  0.0918 -0.2934 -0.0433
  311MOL0     C41861   8.197   5.435   6.311  0.9559  0.1149  0.3887
  311MOL0     C41862   8.294   5.544   6.344  0.1516 -0.2211  0.6182
  311MOL0     C41863   8.437   5.485   6.370 -0.3259  0.0371  0.0374
  311MOL0     C41864   8.447   5.368   6.470 -0.1573 -0.3686  0.0385
  311MOL0     C41865   8.585   5.344   6.524 -0.9832  1.8655  0.2845
  311MOL0     C41866   8.693   5.321   6.417 -0.3662 -0.6692  0.3956
  311MOL0     N41867   8.830   5.270   6.463  0.4468 -0.5413 -0.1996
  311MOL0     C41868   8.935   5.355   6.500 -0.4049  0.2723 -0.1044
  311MOL0     C41869   9.042   5.267   6.516 -0.5537  0.6676  0.3707
  311MOL0     C41870   9.176   5.308   6.557  0.5014  0.3364 -0.3529
  311MOL0     C41871   9.285   5.287   6.456  0.2030 -0.6866 -0.6523
  311MOL0     C41872   9.330   5.145   6.446 -0.6202  0.3148  0.0416
  311MOL0     C41873   9.436   5.090   6.546 -0.7407 -0.3964  0.5108
  311MOL0     O41874   9.464   4.948   6.527  0.4216  0.1358  0.2901
  311MOL0     C41875   9.551   4.900   6.610  0.4344  0.0454 -0.1102
  311MOL0     C41876   9.556   4.764   6.592  0.1175  0.4353  0.1882
  311MOL0     C41877   9.619   4.679   6.681 -0.6293 -0.2786  0.2765
  311MOL0     C41878   9.677   4.725   6.795  0.3526 -0.1862 -0.8238
  311MOL0     C41879   9.750   4.652   6.891  1.0536 -0.6062  0.2366
  311MOL0     O41880   9.859   4.708   6.956 -0.6803  1.0838  0.4417
  311MOL0     C41881   9.925   4.612   7.044  0.4660 -0.4317  0.3957
  311MOL0     C41882  10.003   4.517   6.989  0.2838 -0.4177 -0.0232
  311MOL0     C41883  10.082   4.437   7.072 -0.8784  0.1762  0.5528
  311MOL0     C41884  10.077   4.451   7.209  0.4071 -0.6903 -0.8494
  311MOL0     O41885  10.142   4.375   7.302 -0.4122 -0.5805  0.1423
  311MOL0     C41886  10.208   4.247   7.268 -0.2552 -0.4991  1.9763
  311MOL0     C41887  10.215   4.156   7.385 -0.5715 -0.8943 -0.0205
  311MOL0     C41888  10.334   4.187   7.478 -0.7144 -0.1462 -1.0831
  311MOL0     C41889  10.400   4.051   7.503 -0.6129 -0.3884  0.8051
  311MOL0     C41890  10.489   4.005   7.388 -0.3756 -0.2358  0.6956
  311MOL0     C41891  10.515   3.854   7.410 -0.1400  0.4502 -0.4915
  311MOL0     C41892  10.405   3.764   7.361  0.3188  0.8795  0.2170
  311MOL0     C41893  10.405   3.623   7.414  0.1001  1.2682  0.3738
  311MOL0    Cl41894  10.376   3.603   7.592 -0.2907 -0.6080  0.1197
  311MOL0     C41895   9.997   4.553   7.259  0.2941  0.5689 -1.1411
  311MOL0     C41896   9.926   4.641   7.178  0.0340 -0.4557  0.2297
  311MOL0     O41897   9.708   4.537   6.905 -0.2001 -0.2791  0.1445
  311MOL0     C41898   9.656   4.858   6.822 -0.1166 -1.1262 -0.7136
  311MOL0     C41899   9.597   4.946   6.735 -0.0160 -1.0595  0.3760
  311MOL0     N41900   8.999   5.140   6.478  0.1823  0.7380  0.2396
  311MOL0     N41901   8.876   5.149   6.429  0.1763  0.7015 -1.1243
  311MOL0     C41902   8.081   5.167   5.759 -0.7259  0.4016  0.0224
  311MOL0     C41903   8.002   5.147   5.650 -0.6832 -0.7724  1.2197
  311MOL0     C41904   7.730   5.075   5.327 -0.0497 -0.5782 -0.2700
  311MOL0     C41905   7.619   5.008   5.386 -0.5341  0.7521 -0.1553
  311MOL0     C41906   7.544   4.918   5.306  0.1202  0.1380 -0.4232
  311MOL0     C41907   7.565   4.903   5.167  0.7575 -0.1143  0.0665
  311MOL0     O41908   7.499   4.830   5.070 -0.3581 -0.0105 -0.2809
  311MOL0     C41909   7.392   4.743   5.125  0.4034 -0.3176  0.9180
  311MOL0     C41910   7.350   4.657   5.005  0.3592  0.7718  1.3030
  311MOL0     C41911   7.197   4.612   5.033  0.2439 -0.8851  0.1347
  311MOL0     C41912   7.182   4.544   5.169 -1.4903  0.2059  0.2014
  311MOL0     C41913   7.049   4.515   5.190 -0.0743  0.2625  0.3634
  311MOL0     C41914   6.934   4.481   5.215  0.3792  0.5497 -1.1595
  311MOL0     C41915   7.656   4.988   5.113  0.3322 -0.2572 -0.2915
  311MOL0     C41916   7.744   5.077   5.189 -1.0687 -1.1268  0.3531
  311MOL0     C41917   7.860   5.144   5.114  1.0129 -0.2644  0.7019
  311MOL0     H41918   7.715   5.254   5.765  1.6838  2.4733 -3.5162
  311MOL0     H41919   7.879   5.334   5.959  3.4346  0.5655  0.9489
  311MOL0     H41920   8.030   5.409   6.094 -2.3340 -1.0346  1.6714
  311MOL0     H41921   8.043   5.247   6.169 -0.7453  1.8441  1.9624
  311MOL0     H41922   8.286   5.403   6.111 -1.0138 -0.7754 -1.5271
  311MOL0     H41923   8.269   5.263   6.208  1.5088  1.7724  5.5167
  311MOL0     H41924   8.189   5.363   6.393  1.7938 -0.3155  0.1154
  311MOL0     H41925   8.100   5.481   6.291  0.3294 -1.1149  0.4778
  311MOL0     H41926   8.305   5.605   6.254  2.1785  0.2646  1.1502
  311MOL0     H41927   8.256   5.610   6.422 -4.7802  2.0409 -3.0987
  311MOL0     H41928   8.467   5.445   6.272  0.0297  3.0481 -1.1912
  311MOL0     H41929   8.496   5.566   6.413 -0.9789 -0.2260  1.4894
  311MOL0     H41930   8.379   5.379   6.555  0.0893 -1.1463  0.3546
  311MOL0     H41931   8.422   5.281   6.408  1.3250  0.7584 -2.2302
  311MOL0     H41932   8.592   5.258   6.591  0.8541  2.5842  1.0908
  311MOL0     H41933   8.619   5.435   6.575 -0.4387  0.8125  1.8712
  311MOL0     H41934   8.667   5.239   6.348 -1.0122 -0.3669  0.2745
  311MOL0     H41935   8.716   5.408   6.355 -2.1212  0.2706  0.9770
  311MOL0     H41936   8.925   5.460   6.525 -2.1578  0.1835 -0.2752
  311MOL0     H41937   9.163   5.415   6.577 -0.5115  0.8879 -3.4634
  311MOL0     H41938   9.200   5.254   6.649 -0.2653  1.8504  0.7765
  311MOL0     H41939   9.243   5.321   6.361  1.1589  0.9645 -0.5141
  311MOL0     H41940   9.370   5.354   6.469  0.2185 -0.9368  0.6887
  311MOL0     H41941   9.376   5.123   6.350  0.7473 -2.2685  1.1871
  311MOL0     H41942   9.247   5.073   6.451 -2.2886  2.1712  0.2243
  311MOL0     H41943   9.399   5.118   6.645  1.4047 -1.4730  1.6829
  311MOL0     H41944   9.531   5.140   6.526  0.8605 -3.9651 -1.8870
  311MOL0     H41945   9.517   4.727   6.498  1.5944 -1.8406  0.4071
  311MOL0     H41946   9.634   4.576   6.650  0.2837  0.0460 -0.4057
  311MOL0     H41947  10.007   4.502   6.881  1.3418 -2.5814  0.2553
  311MOL0     H41948  10.145   4.356   7.039 -1.0860 -0.6237  2.0492
  311MOL0     H41949  10.142   4.208   7.190  1.2895  1.9090 -0.7516
  311MOL0     H41950  10.303   4.259   7.215 -0.9716  3.3911  1.2194
  311MOL0     H41951  10.120   4.157   7.439 -2.5116 -2.1551 -3.1245
  311MOL0     H41952  10.226   4.059   7.334  4.8401  0.3593 -1.9326
  311MOL0     H41953  10.401   4.262   7.435 -3.2816  0.4961 -4.3672
  311MOL0     H41954  10.291   4.233   7.567 -0.4385 -0.3155 -0.8607
  311MOL0     H41955  10.322   3.977   7.522 -0.0073 -1.0736  0.6686
  311MOL0     H41956  10.468   4.064   7.587  2.0493  3.0014 -1.5567
  311MOL0     H41957  10.579   4.067   7.381  0.9896 -1.9850  1.9239
  311MOL0     H41958  10.426   4.023   7.301  0.9438 -0.3426 -0.3106
  311MOL0     H41959  10.611   3.824   7.367  0.2002  1.5663 -0.5506
  311MOL0     H41960  10.526   3.823   7.514 -1.9995 -4.8961 -1.5978
  311MOL0     H41961  10.408   3.759   7.252  1.6874 -1.3164  0.2967
  311MOL0     H41962  10.308   3.807   7.388 -0.2695  3.5648 -4.8857
  311MOL0     H41963  10.335   3.560   7.357  1.0768 -2.2648  2.7552
  311MOL0     H41964  10.503   3.575   7.405 -0.7349 -0.2463 -1.4420
  311MOL0     H41965  10.002   4.565   7.367 -1.1173 -2.2518 -0.6600
  311MOL0     H41966   9.870   4.718   7.229 -2.2684 -2.2478  0.5859
  311MOL0     H41967   9.680   4.912   6.913 -0.0453 -3.5783  0.8129
  311MOL0     H41968   9.580   5.045   6.774 -0.2622 -0.9410 -0.0251
  311MOL0     H41969   8.182   5.134   5.738 -0.6675  1.5406 -1.6451
  311MOL0     H41970   8.053   5.089   5.574 -0.4036 -2.3149  2.5350
  311MOL0     H41971   7.586   5.036   5.485 -3.3274 -4.3493  0.6675
  311MOL0     H41972   7.473   4.851   5.354  0.1267  1.2676  1.2238
  311MOL0     H41973   7.310   4.801   5.168 -0.1879  0.4264 -1.0636
  311MOL0     H41974   7.430   4.674   5.200  0.9189 -0.5959  0.4033
  311MOL0     H41975   7.417   4.572   4.989 -1.9749 -0.9386 -0.2679
  311MOL0     H41976   7.346   4.714   4.912  0.0477  0.9624  1.4321
  311MOL0     H41977   7.171   4.545   4.951 -1.7953  1.4032 -1.2222
  311MOL0     H41978   7.144   4.708   5.042  0.2149 -0.8724 -0.1618
  311MOL0     H41979   7.230   4.448   5.148 -2.3289  0.2620 -2.4074
  311MOL0     H41980   7.232   4.593   5.253 -3.3885  1.0822  0.8617
  311MOL0     H41981   6.832   4.457   5.238  0.7223 -0.8752 -1.0740
  311MOL0     H41982   7.657   4.979   5.005  1.3541 -0.6095 -0.2702
  311MOL0     H41983   7.875   5.246   5.152  0.7729 -0.4845  1.4070
  311MOL0     H41984   7.957   5.098   5.134  0.9386 -0.5000  0.5226
  311MOL0     H41985   7.845   5.149   5.006  0.1377 -0.0907  0.8253
  312MOL0     O41986   0.630   4.797   1.909  0.2729 -0.2523 -0.1556
  312MOL0     C41987   0.569   4.738   2.000  0.6844  0.0064 -0.3581
  312MOL0     O41988   0.613   4.630   2.061 -0.1393  0.1128 -0.3414
  312MOL0     C41989   0.736   4.586   2.038 -1.0452  0.5112  0.3301
  312MOL0     C41990   0.749   4.452   2.049  0.4044 -0.6368 -0.3924
  312MOL0     C41991   0.873   4.390   2.043  1.4259 -0.0416 -0.4347
  312MOL0     C41992   0.994   4.461   2.043  0.3292  0.0017  0.5229
  312MOL0     O41993   1.112   4.398   2.049  0.5398  0.5393  0.4159
  312MOL0     C41994   1.222   4.483   2.083 -0.1282 -0.7541  0.4933
  312MOL0     C41995   1.345   4.408   2.119  0.7736 -0.3593 -0.1425
  312MOL0     C41996   1.326   4.305   2.225  0.1968 -0.6101 -0.1779
  312MOL0     C41997   1.460   4.226   2.246 -0.0189  0.2127  0.2748
  312MOL0     C41998   1.447   4.087   2.315  0.0733 -0.6551 -0.4589
  312MOL0     C41999   1.406   4.119   2.460  0.0562 -0.9617  0.1682
  312MOL0     C42000   1.371   3.994   2.533 -0.0678  0.8659 -0.1974
  312MOL0     C42001   1.243   3.992   2.613  0.8585  1.1267 -0.7009
  312MOL0     N42002   1.262   4.067   2.737 -0.3829  0.1891 -0.2611
  312MOL0     C42003   1.369   4.054   2.819 -0.0660 -0.1446  0.1198
  312MOL0     C42004   1.351   4.143   2.912 -0.5933 -0.5060  0.3702
  312MOL0     C42005   1.428   4.153   3.036  0.5148 -0.2256 -0.1061
  312MOL0     C42006   1.577   4.202   3.018 -0.5530  0.4197 -0.2839
  312MOL0     C42007   1.658   4.175   3.145 -0.1145  0.7503  0.4835
  312MOL0     C42008   1.774   4.255   3.170 -0.3886  0.3196  0.2819
  312MOL0     O42009   1.841   4.269   3.051  0.3124 -0.3122  0.5814
  312MOL0     C42010   1.970   4.296   3.058 -0.4858 -0.0631  0.0590
  312MOL0     C42011   2.042   4.242   2.953  0.1601 -1.1973 -0.2780
  312MOL0     C42012   2.180   4.261   2.952  0.1414  0.6822  0.8852
  312MOL0     C42013   2.246   4.350   3.034  0.9232 -0.0923 -0.1602
  312MOL0     C42014   2.389   4.380   3.012  0.0980 -0.0023 -0.1615
  312MOL0     O42015   2.465   4.405   3.124  0.1946 -0.0518  0.2621
  312MOL0     C42016   2.583   4.470   3.102 -0.4126  0.0404  0.4469
  312MOL0     C42017   2.696   4.420   3.172  0.0181  0.0742 -0.1259
  312MOL0     C42018   2.813   4.482   3.176 -0.4861 -0.4813  0.1461
  312MOL0     C42019   2.840   4.603   3.111  0.5433  0.3987 -0.3808
  312MOL0     O42020   2.960   4.662   3.106  0.6871  0.1273  0.5915
  312MOL0     C42021   2.982   4.784   3.038  0.2559  0.0499  0.0798
  312MOL0     C42022   3.130   4.813   3.087  0.1886  0.6855 -0.1739
  312MOL0     C42023   3.173   4.936   3.007 -0.8219 -0.1862  0.8624
  312MOL0     C42024   3.302   5.014   3.049  0.2333 -0.3000  0.4416
  312MOL0     C42025   3.425   4.916   3.057 -0.1810  0.1374 -0.4380
  312MOL0     C42026   3.499   4.921   2.920 -0.1672  0.0979 -0.5096
  312MOL0     C42027   3.624   4.824   2.917 -0.4152  0.6160  0.0351
  312MOL0     C42028   3.754   4.900   2.898 -0.8070  0.0669 -0.0664
  312MOL0    Cl42029   3.811   4.988   3.048 -0.4743 -0.0904 -0.1169
  312MOL0     C42030   2.728   4.659   3.033  1.0966 -0.4234  0.3392
  312MOL0     C42031   2.602   4.596   3.038 -0.6209  0.0632 -0.3211
  312MOL0     O42032   2.429   4.378   2.898 -0.0029  0.3028 -0.2057
  312MOL0     C42033   2.171   4.413   3.138 -0.0119  0.5319  0.6977
  312MOL0     C42034   2.032   4.379   3.151  0.2462 -0.1846 -0.2424
  312MOL0     N42035   1.235   4.221   2.889 -0.1839  0.3608  0.3693
  312MOL0     N42036   1.191   4.178   2.775  0.3591 -0.3710  0.6090
  312MOL0     C42037   0.973   4.610   2.026  0.3311 -0.1406  0.7250
  312MOL0     C42038   0.847   4.668   2.025  0.0834 -0.0639  0.3541
  312MOL0     C42039   0.432   4.779   2.046  0.7632 -0.7682 -0.6509
  312MOL0     C42040   0.365   4.883   1.968  0.1335  0.1446 -0.4073
  312MOL0     C42041   0.244   4.930   2.006  1.2980 -0.1386  0.3240
  312MOL0     C42042   0.175   4.877   2.112 -0.2041 -0.1602 -0.2323
  312MOL0     O42043   0.057   4.929   2.161  0.7909  0.5229  0.2278
  312MOL0     C42044  -0.002   5.048   2.103 -1.0162 -0.2792 -0.2919
  312MOL0     C42045  -0.145   5.066   2.142 -0.2892 -0.4893 -0.4970
  312MOL0     C42046  -0.233   5.175   2.066  0.2095 -0.1162 -0.6236
  312MOL0     C42047  -0.188   5.316   2.094 -0.4488 -0.3588  0.5965
  312MOL0     C42048  -0.190   5.349   2.235 -0.0193 -0.3492 -0.5171
  312MOL0     C42049  -0.187   5.397   2.349  0.3470 -0.7145  0.1428
  312MOL0     C42050   0.238   4.784   2.195  0.6485 -0.0208 -0.5785
  312MOL0     C42051   0.363   4.725   2.161  0.3230  0.4857 -0.1597
  312MOL0     C42052   0.411   4.613   2.252  0.7716 -0.5198  0.1680
  312MOL0     H42053   0.653   4.404   2.068  1.2506 -2.2794 -0.0821
  312MOL0     H42054   0.885   4.282   2.049 -0.1602 -0.2033  0.5810
  312MOL0     H42055   1.245   4.537   1.991 -1.2355 -1.8401 -0.4537
  312MOL0     H42056   1.197   4.557   2.161 -0.0361  1.1853 -1.2313
  312MOL0     H42057   1.423   4.477   2.151  0.3744 -0.0235  0.1172
  312MOL0     H42058   1.379   4.356   2.029 -0.6754  0.0149 -0.9347
  312MOL0     H42059   1.247   4.235   2.199  0.5981 -1.8696  1.7892
  312MOL0     H42060   1.297   4.351   2.321 -1.1705 -0.5016 -0.6284
  312MOL0     H42061   1.488   4.209   2.142 -1.2967 -0.3012 -0.0086
  312MOL0     H42062   1.534   4.293   2.291 -0.7251  3.7554 -3.2490
  312MOL0     H42063   1.372   4.019   2.275  0.8420 -1.8059 -0.0299
  312MOL0     H42064   1.543   4.033   2.319  1.0014  0.9470  0.0823
  312MOL0     H42065   1.490   4.175   2.502  1.3808 -1.2006 -2.0152
  312MOL0     H42066   1.321   4.188   2.467  2.5743  2.4052 -0.4126
  312MOL0     H42067   1.452   3.957   2.597  0.8270 -0.9842 -2.2540
  312MOL0     H42068   1.373   3.915   2.457  2.6097  2.0101 -1.4756
  312MOL0     H42069   1.153   4.029   2.563 -1.0444 -1.9295  0.2221
  312MOL0     H42070   1.220   3.890   2.643  1.4941 -0.1143 -3.9914
  312MOL0     H42071   1.447   3.979   2.811  1.0896  1.1222 -1.0334
  312MOL0     H42072   1.372   4.214   3.108  0.8451 -0.8287  0.6684
  312MOL0     H42073   1.440   4.056   3.084 -0.5681  0.1281  0.9122
  312MOL0     H42074   1.627   4.143   2.942  0.3832 -0.4468  0.9762
  312MOL0     H42075   1.571   4.310   2.999  2.1409  0.7441  0.3833
  312MOL0     H42076   1.677   4.067   3.151 -1.0814  0.4369 -1.5664
  312MOL0     H42077   1.586   4.191   3.227 -1.4184 -2.7800  0.2310
  312MOL0     H42078   1.828   4.213   3.256 -1.1745 -1.9755 -0.2939
  312MOL0     H42079   1.749   4.357   3.203  0.1809  0.4506  0.3336
  312MOL0     H42080   2.004   4.162   2.890  2.2548 -1.8551 -0.7744
  312MOL0     H42081   2.240   4.207   2.879 -0.6160  0.2770  0.5456
  312MOL0     H42082   2.687   4.330   3.232  0.9844 -0.0369 -0.1307
  312MOL0     H42083   2.903   4.442   3.220  2.2824  1.8820 -2.8538
  312MOL0     H42084   2.979   4.774   2.929 -0.4224  1.7079 -0.0825
  312MOL0     H42085   2.924   4.872   3.068 -0.3941  0.7297 -2.8920
  312MOL0     H42086   3.154   4.829   3.192  0.8482 -1.3556  0.0425
  312MOL0     H42087   3.191   4.726   3.060  0.9723  1.8913 -2.5787
  312MOL0     H42088   3.181   4.910   2.901  0.3695 -1.5269  1.2576
  312MOL0     H42089   3.099   5.016   3.020  0.0532  0.4475  2.2763
  312MOL0     H42090   3.287   5.060   3.147 -0.0690 -1.4218  0.9451
  312MOL0     H42091   3.320   5.089   2.972 -1.3037 -1.5176 -1.1829
  312MOL0     H42092   3.401   4.812   3.083  0.4318  0.2237  0.5043
  312MOL0     H42093   3.488   4.950   3.139  2.3913 -1.6697 -1.5159
  312MOL0     H42094   3.432   4.892   2.838 -1.0857 -2.2649  0.9413
  312MOL0     H42095   3.534   5.022   2.898 -0.1529 -0.1494 -1.6960
  312MOL0     H42096   3.617   4.751   2.835 -2.3904 -0.2155  0.8958
  312MOL0     H42097   3.632   4.763   3.007 -0.0180  0.9536  0.2304
  312MOL0     H42098   3.829   4.832   2.857 -1.3630 -1.8951  1.9650
  312MOL0     H42099   3.742   4.984   2.828  0.1392  0.1974 -0.0803
  312MOL0     H42100   2.742   4.756   2.987  0.1401  0.1105  1.1262
  312MOL0     H42101   2.529   4.655   2.983  0.0032  1.6229  0.4648
  312MOL0     H42102   2.218   4.488   3.202  0.8261  1.7396 -1.2347
  312MOL0     H42103   1.974   4.425   3.231 -0.1362  0.5207 -0.9188
  312MOL0     H42104   1.060   4.674   2.014 -0.9456  1.5742  0.2336
  312MOL0     H42105   0.845   4.777   2.018 -3.7494 -0.0166  0.3810
  312MOL0     H42106   0.423   4.914   1.881 -0.2741 -3.9682 -2.3520
  312MOL0     H42107   0.201   5.015   1.954 -3.8351 -2.2818  0.4437
  312MOL0     H42108  -0.005   5.032   1.995  1.7286 -2.4253 -0.1365
  312MOL0     H42109   0.062   5.133   2.130  1.0941 -2.6663  2.9163
  312MOL0     H42110  -0.147   5.095   2.247  2.3691  2.1088 -1.0031
  312MOL0     H42111  -0.189   4.967   2.129 -0.3417 -0.4604 -0.5389
  312MOL0     H42112  -0.332   5.171   2.111  1.6778  0.7101  3.0398
  312MOL0     H42113  -0.249   5.153   1.960  2.3106  0.3244 -1.0836
  312MOL0     H42114  -0.087   5.335   2.054 -0.1297 -1.0726  1.0440
  312MOL0     H42115  -0.260   5.381   2.042 -0.9931 -2.2134 -1.0969
  312MOL0     H42116  -0.196   5.439   2.447  1.9764  0.1845 -0.0606
  312MOL0     H42117   0.192   4.756   2.289 -0.2300  0.3463 -0.8873
  312MOL0     H42118   0.401   4.517   2.202 -2.0924 -1.5342  2.4358
  312MOL0     H42119   0.516   4.631   2.277  0.9555 -0.2382 -0.7510
  312MOL0     H42120   0.359   4.617   2.348  2.5710  0.7958  1.1552
  313MOL0     O42121   0.395   5.094  11.169  0.1684  1.3090  0.6364
  313MOL0     C42122   0.408   5.179  11.252  0.4265 -0.3292 -0.8596
  313MOL0     O42123   0.334   5.290  11.262  0.3132 -0.5106 -1.2471
  313MOL0     C42124   0.225   5.318  11.181  1.3152 -0.0170 -0.0196
  313MOL0     C42125   0.176   5.449  11.173  0.3191 -0.7238  0.0936
  313MOL0     C42126   0.077   5.489  11.086  0.3755 -0.5851 -0.4975
  313MOL0     C42127  -0.001   5.397  11.023  0.9106 -0.0342 -0.7666
  313MOL0     O42128  -0.092   5.452  10.940 -0.0563 -0.2258 -0.3924
  313MOL0     C42129  -0.125   5.387  10.815  1.1136 -0.2458  0.3075
  313MOL0     C42130  -0.010   5.402  10.716 -0.4068  1.0579 -0.4323
  313MOL0     C42131  -0.009   5.535  10.628 -0.1442 -0.5676  0.0191
  313MOL0     C42132   0.000   5.655  10.710  1.5727 -0.6007  0.1554
  313MOL0     C42133   0.080   5.774  10.652 -0.0872  0.4416 -0.3713
  313MOL0     C42134   0.084   5.892  10.749 -0.6108  0.3193 -0.1605
  313MOL0     C42135   0.153   6.002  10.670  1.0230  0.0877 -0.3393
  313MOL0     C42136   0.197   6.109  10.770 -0.0876 -0.0912 -0.3376
  313MOL0     N42137   0.089   6.189  10.826 -0.2348 -0.0115 -0.0053
  313MOL0     C42138   0.057   6.211  10.956  0.2327 -0.1517  0.5165
  313MOL0     C42139  -0.037   6.304  10.955  0.3343  0.6894 -0.5707
  313MOL0     C42140  -0.111   6.367  11.074  0.1377  0.2883  0.3573
  313MOL0     C42141  -0.233   6.281  11.114  0.4661  1.1284 -0.3137
  313MOL0     C42142  -0.293   6.323  11.250  0.3816  0.2340 -0.8279
  313MOL0     C42143  -0.215   6.272  11.374  1.1030 -0.3814 -0.5881
  313MOL0     O42144  -0.290   6.337  11.485 -0.3629 -0.1448 -0.3005
  313MOL0     C42145  -0.224   6.328  11.607  0.5424 -0.0641  0.2761
  313MOL0     C42146  -0.105   6.253  11.632 -0.7470 -1.1863 -0.6029
  313MOL0     C42147  -0.043   6.250  11.757  0.0678 -0.7373 -0.7173
  313MOL0     C42148  -0.100   6.314  11.866  0.4358 -0.3021 -0.1527
  313MOL0     C42149  -0.025   6.335  11.996 -0.0292  0.0970  0.6431
  313MOL0     O42150   0.080   6.256  12.011  0.1604 -0.0102  0.1262
  313MOL0     C42151   0.169   6.268  12.114  0.0620  0.8663 -0.1663
  313MOL0     C42152   0.299   6.301  12.084 -0.4555  0.0638 -0.7300
  313MOL0     C42153   0.403   6.303  12.187 -0.1438 -0.5745 -0.3556
  313MOL0     C42154   0.378   6.278  12.316  0.0012 -0.0218 -0.1510
  313MOL0     O42155   0.485   6.268  12.401  0.5783 -0.1892 -0.1966
  313MOL0     C42156   0.469   6.329  12.529  0.0614 -0.1726 -0.5443
  313MOL0     C42157   0.481   6.479  12.534 -0.7045 -0.0679 -0.3012
  313MOL0     C42158   0.355   6.548  12.509 -0.3275 -0.2016  0.2405
  313MOL0     C42159   0.369   6.703  12.527  0.2350  0.1872 -0.1917
  313MOL0     C42160   0.450   6.761  12.420 -0.3418  0.2291  0.8489
  313MOL0     C42161   0.401   6.726  12.279  0.7472  0.0247 -1.0093
  313MOL0     C42162   0.248   6.720  12.260  0.3436  0.4675  1.4432
  313MOL0     C42163   0.222   6.734  12.105  0.4859 -0.3458  0.0266
  313MOL0    Cl42164   0.318   6.612  12.011  0.1175 -0.3574  0.3160
  313MOL0     C42165   0.241   6.256  12.348  1.6395 -0.1953 -0.1995
  313MOL0     C42166   0.135   6.252  12.251 -0.6616  0.0188 -0.2764
  313MOL0     O42167  -0.054   6.423  12.073 -0.4594 -0.3824 -0.2660
  313MOL0     C42168  -0.221   6.383  11.846 -0.1491 -0.1003  0.3579
  313MOL0     C42169  -0.281   6.397  11.719  0.3108  0.5444  0.6924
  313MOL0     N42170  -0.066   6.343  10.826  0.1501 -0.0747  0.2550
  313MOL0     N42171   0.018   6.271  10.752  0.5524 -0.0686  0.0035
  313MOL0     C42172   0.031   5.262  11.041 -0.1585 -0.2189 -0.0690
  313MOL0     C42173   0.137   5.229  11.119  0.0056  0.1839 -0.1432
  313MOL0     C42174   0.516   5.169  11.352  0.5061 -1.2462  0.0278
  313MOL0     C42175   0.592   5.287  11.379 -0.1103  0.3822 -0.0216
  313MOL0     C42176   0.696   5.276  11.473  0.5563  0.5613  0.4929
  313MOL0     C42177   0.718   5.163  11.544  0.1117  0.1903 -0.5942
  313MOL0     O42178   0.826   5.163  11.631  0.1564 -0.4993  0.2564
  313MOL0     C42179   0.835   5.065  11.739 -0.0060  0.1746  0.8514
  313MOL0     C42180   0.961   4.970  11.707 -0.1468 -0.2994  0.1151
  313MOL0     C42181   1.097   5.050  11.703 -0.0868  0.3079 -0.0518
  313MOL0     C42182   1.213   4.954  11.685 -0.3692 -0.2604  0.4657
  313MOL0     C42183   1.213   4.849  11.789 -1.1827  0.4382 -0.0569
  313MOL0     C42184   1.220   4.769  11.871 -0.1538  0.6745 -0.0292
  313MOL0     C42185   0.639   5.055  11.524  1.0218  0.7117 -0.5494
  313MOL0     C42186   0.533   5.054  11.425  0.2849  0.8972 -0.1568
  313MOL0     C42187   0.435   4.936  11.408  0.5266  0.5084  0.2314
  313MOL0     H42188   0.224   5.530  11.225  0.9881 -0.9099 -0.2268
  313MOL0     H42189   0.066   5.597  11.086  0.4101 -0.5075  1.9695
  313MOL0     H42190  -0.148   5.282  10.833  1.3626 -0.2904  0.3585
  313MOL0     H42191  -0.214   5.434  10.771  1.1182 -0.0614  0.4921
  313MOL0     H42192  -0.025   5.311  10.656  2.0783  0.4331 -0.2173
  313MOL0     H42193   0.089   5.391  10.762 -1.0230  2.0076  1.2052
  313MOL0     H42194  -0.093   5.546  10.559 -0.5621  1.2084  0.7622
  313MOL0     H42195   0.076   5.530  10.559  0.5638  0.1613  0.8216
  313MOL0     H42196  -0.102   5.686  10.735  1.6282 -0.1402 -0.1816
  313MOL0     H42197   0.054   5.625  10.801  1.6875 -0.5405  0.1083
  313MOL0     H42198   0.183   5.740  10.634 -0.4483 -1.2339  0.5404
  313MOL0     H42199   0.036   5.800  10.555 -2.4304  0.7875  0.7306
  313MOL0     H42200  -0.022   5.916  10.759 -1.4102 -1.6129 -2.7175
  313MOL0     H42201   0.141   5.863  10.837  0.1863  3.3445  0.4425
  313MOL0     H42202   0.097   6.051  10.590  2.0350 -0.9926 -1.7719
  313MOL0     H42203   0.243   5.957  10.627  1.9255  0.1866  1.3699
  313MOL0     H42204   0.253   6.070  10.856  1.4750  3.0779  0.2268
  313MOL0     H42205   0.259   6.188  10.727  0.1426  1.8336  3.1752
  313MOL0     H42206   0.089   6.154  11.043 -0.6936 -2.4151 -0.5584
  313MOL0     H42207  -0.046   6.383  11.160  0.4203 -1.9634  0.6120
  313MOL0     H42208  -0.147   6.467  11.045  2.1458  1.2402  0.9570
  313MOL0     H42209  -0.305   6.304  11.035 -1.6510  2.0144  1.7427
  313MOL0     H42210  -0.198   6.178  11.124 -1.1334  0.8069  3.5314
  313MOL0     H42211  -0.396   6.286  11.250  1.2936 -2.4865 -0.6721
  313MOL0     H42212  -0.307   6.431  11.264  1.8152  0.2792  0.4854
  313MOL0     H42213  -0.113   6.309  11.366  0.7354  1.1199  1.1368
  313MOL0     H42214  -0.220   6.165  11.397  0.9826 -0.3968 -0.6820
  313MOL0     H42215  -0.059   6.194  11.554  1.2556 -2.2831  1.2920
  313MOL0     H42216   0.042   6.185  11.772 -1.2565 -2.8883 -2.0185
  313MOL0     H42217   0.328   6.324  11.982  1.8176  0.4026 -0.0637
  313MOL0     H42218   0.509   6.322  12.176 -0.0778  1.4374  2.4829
  313MOL0     H42219   0.371   6.305  12.570  0.1395  1.4362  0.6944
  313MOL0     H42220   0.555   6.296  12.588 -1.0769  1.3992  2.1950
  313MOL0     H42221   0.514   6.511  12.634  0.0720 -1.4539 -0.0922
  313MOL0     H42222   0.555   6.522  12.465 -0.9873  2.7167  0.9738
  313MOL0     H42223   0.315   6.525  12.410  3.4299 -0.4382 -1.3513
  313MOL0     H42224   0.273   6.525  12.579  0.6892 -0.6363  1.3213
  313MOL0     H42225   0.417   6.721  12.623 -0.2532 -0.9753  0.2971
  313MOL0     H42226   0.272   6.754  12.524  0.4980  0.7000 -0.0889
  313MOL0     H42227   0.556   6.732  12.424 -0.4546 -0.1349  1.2508
  313MOL0     H42228   0.433   6.868  12.431 -0.1579  0.2869  0.5843
  313MOL0     H42229   0.429   6.810  12.215  1.3234 -0.0784 -0.8949
  313MOL0     H42230   0.446   6.628  12.258  1.3180 -0.2328  1.2129
  313MOL0     H42231   0.200   6.791  12.327  2.2216  0.7924  2.5137
  313MOL0     H42232   0.199   6.624  12.281 -0.2897  0.3956 -0.1728
  313MOL0     H42233   0.115   6.720  12.088  1.3363 -2.7775 -5.6762
  313MOL0     H42234   0.242   6.839  12.079 -1.3814 -0.4865 -2.3000
  313MOL0     H42235   0.205   6.231  12.447 -2.2502  1.2244 -1.0641
  313MOL0     H42236   0.032   6.237  12.280 -0.3174  1.1189  1.6702
  313MOL0     H42237  -0.270   6.433  11.928 -0.9437  2.0870 -1.3444
  313MOL0     H42238  -0.371   6.458  11.710 -1.5679 -2.2436 -0.7303
  313MOL0     H42239  -0.025   5.175  11.009  1.8839 -1.2905 -0.9539
  313MOL0     H42240   0.156   5.124  11.139  1.7022  0.7109  1.2433
  313MOL0     H42241   0.581   5.380  11.323 -3.8074 -1.5630 -2.9491
  313MOL0     H42242   0.765   5.359  11.487  2.2366 -0.2392 -2.1819
  313MOL0     H42243   0.745   5.019  11.779  2.1145 -3.9005  1.4519
  313MOL0     H42244   0.869   5.127  11.823  0.4604 -0.9513  1.5146
  313MOL0     H42245   0.927   4.922  11.615 -2.5289  0.5981  0.4625
  313MOL0     H42246   0.967   4.900  11.791  0.7512 -0.0804  0.2384
  313MOL0     H42247   1.113   5.103  11.798  0.1298  1.6699 -0.8134
  313MOL0     H42248   1.097   5.126  11.624 -3.4096  1.8810  1.2246
  313MOL0     H42249   1.199   4.909  11.586  1.0631 -1.5506  0.7977
  313MOL0     H42250   1.309   5.007  11.686 -1.3175  1.5170  1.8929
  313MOL0     H42251   1.216   4.705  11.957 -1.2906  0.0788 -0.5011
  313MOL0     H42252   0.641   4.969  11.589 -0.1459 -0.2663 -1.7578
  313MOL0     H42253   0.329   4.958  11.417  0.7602  1.3118  1.1700
  313MOL0     H42254   0.453   4.879  11.317  0.2014 -2.4605  1.8897
  313MOL0     H42255   0.467   4.855  11.475  0.8016  1.0847  0.8054
  314MOL0     O42256   7.917  10.756   8.466  0.4682  0.1031 -0.1714
  314MOL0     C42257   8.020  10.823   8.454  0.3759 -0.9956  0.1756
  314MOL0     O42258   8.149  10.788   8.462 -0.9716  0.0291  0.3346
  314MOL0     C42259   8.192  10.666   8.512 -0.1744 -0.1115  0.1043
  314MOL0     C42260   8.318  10.677   8.579 -0.2027  0.4938 -0.2918
  314MOL0     C42261   8.367  10.559   8.634 -1.3554  0.1602  0.3126
  314MOL0     C42262   8.299  10.438   8.634 -1.2143 -0.3574 -0.6605
  314MOL0     O42263   8.335  10.313   8.701  0.0930 -0.1210 -0.3018
  314MOL0     C42264   8.464  10.317   8.769 -0.0675  0.3726 -0.5078
  314MOL0     C42265   8.585  10.294   8.676  0.4483 -0.7193  0.3121
  314MOL0     C42266   8.718  10.250   8.755  0.2805  0.7747  0.3212
  314MOL0     C42267   8.837  10.248   8.664 -0.1781 -0.9430  0.6235
  314MOL0     C42268   8.962  10.190   8.722 -0.6130 -0.6077 -0.6890
  314MOL0     C42269   9.037  10.284   8.821  0.0971 -0.2976  0.1115
  314MOL0     C42270   9.161  10.340   8.759 -0.3232 -0.5209 -0.9645
  314MOL0     C42271   9.268  10.242   8.731  0.1056 -0.3019 -0.2727
  314MOL0     N42272   9.401  10.302   8.758 -0.0978 -0.0875  0.0815
  314MOL0     C42273   9.505  10.247   8.847 -0.0156  0.1129 -0.7076
  314MOL0     C42274   9.612  10.319   8.840 -0.5211  0.6994 -0.1682
  314MOL0     C42275   9.734  10.283   8.921  0.4264 -0.0702  0.4140
  314MOL0     C42276   9.858  10.301   8.835  0.3948 -0.3033  0.1219
  314MOL0     C42277   9.980  10.311   8.926  0.0165 -0.0466  0.7488
  314MOL0     C42278  10.109  10.304   8.846  0.8173 -0.2777 -0.2891
  314MOL0     O42279  10.208  10.362   8.935  0.4511 -0.6298  0.0705
  314MOL0     C42280  10.342  10.356   8.891  0.0862 -0.2034 -0.7042
  314MOL0     C42281  10.440  10.422   8.973  1.0236  0.8492 -1.2548
  314MOL0     C42282  10.570  10.422   8.929  0.4217  0.3524  0.1113
  314MOL0     C42283  10.611  10.354   8.813 -1.0640 -0.2672 -0.0052
  314MOL0     C42284  10.752  10.351   8.781 -0.8414 -0.5941  0.6223
  314MOL0     O42285  10.834  10.450   8.826  0.4108  0.5615  0.2821
  314MOL0     C42286  10.966  10.455   8.794 -0.4259  0.3364  0.5029
  314MOL0     C42287  11.064  10.404   8.878 -0.4919  0.2005  0.5741
  314MOL0     C42288  11.199  10.406   8.853 -0.6427 -0.0534  0.1830
  314MOL0     C42289  11.248  10.454   8.732 -0.1387  0.1462  0.6482
  314MOL0     O42290  11.385  10.469   8.711  0.5772 -0.4390  0.0932
  314MOL0     C42291  11.440  10.557   8.614 -0.5751  0.2187 -0.0610
  314MOL0     C42292  11.574  10.624   8.661 -0.6153 -0.4876 -0.1059
  314MOL0     C42293  11.681  10.504   8.636  0.4912 -0.0057 -0.9547
  314MOL0     C42294  11.817  10.564   8.646  0.0737  0.4525 -0.0474
  314MOL0     C42295  11.918  10.454   8.631 -0.0452  1.0938 -0.0297
  314MOL0     C42296  12.058  10.501   8.595 -0.0884 -0.2290 -0.3613
  314MOL0     C42297  12.083  10.532   8.447 -0.5183 -0.0522 -0.1058
  314MOL0     C42298  12.231  10.563   8.436  0.5322  0.0585 -0.1333
  314MOL0    Cl42299  12.264  10.540   8.266  0.0938  0.0747 -0.0520
  314MOL0     C42300  11.149  10.501   8.637  0.2258 -0.7718 -0.8079
  314MOL0     C42301  11.011  10.506   8.677 -0.1087 -0.0914  0.0144
  314MOL0     O42302  10.795  10.259   8.714  0.1991 -0.5363  0.8409
  314MOL0     C42303  10.514  10.301   8.729 -0.1041  1.0528 -0.4784
  314MOL0     C42304  10.382  10.295   8.769  0.1305 -0.2111 -0.3500
  314MOL0     N42305   9.587  10.412   8.739  0.2909  0.2144  0.2113
  314MOL0     N42306   9.463  10.403   8.692  0.1537 -0.5713 -0.5510
  314MOL0     C42307   8.174  10.441   8.568  0.1453  0.0578  0.6082
  314MOL0     C42308   8.124  10.546   8.504 -0.1022  0.5104 -0.5560
  314MOL0     C42309   8.004  10.974   8.424 -0.3655 -0.5088  0.2513
  314MOL0     C42310   8.122  11.057   8.439 -0.0839  0.3836  0.1965
  314MOL0     C42311   8.111  11.189   8.416 -0.2957 -0.3997 -0.5469
  314MOL0     C42312   7.994  11.248   8.368 -0.3331 -0.2742  0.0690
  314MOL0     O42313   7.996  11.382   8.346  0.4729 -0.9804 -0.5417
  314MOL0     C42314   7.872  11.460   8.332  0.1510 -0.2250 -0.1241
  314MOL0     C42315   7.893  11.609   8.330  0.0360  0.0528  0.1017
  314MOL0     C42316   7.984  11.643   8.212  0.7244  0.4601 -0.5819
  314MOL0     C42317   7.990  11.799   8.199 -0.4573  0.7807  0.2339
  314MOL0     C42318   7.873  11.845   8.132  0.1769 -0.0558  0.1064
  314MOL0     C42319   7.776  11.890   8.069  0.6478  0.6779  0.4232
  314MOL0     C42320   7.880  11.174   8.355  0.8367  1.1644 -0.3078
  314MOL0     C42321   7.884  11.038   8.379  0.1931 -0.2632  0.3205
  314MOL0     C42322   7.750  10.970   8.365 -0.3297 -0.2793 -0.1701
  314MOL0     H42323   8.361  10.777   8.586 -0.2126  0.3997  1.7824
  314MOL0     H42324   8.457  10.570   8.693 -2.6995 -0.8794  2.6900
  314MOL0     H42325   8.465  10.410   8.826  2.4631  1.2193 -1.8049
  314MOL0     H42326   8.462  10.230   8.835  0.5279  0.2062 -0.7055
  314MOL0     H42327   8.595  10.387   8.621 -2.8605  0.1515  0.9671
  314MOL0     H42328   8.550  10.219   8.603 -4.1818 -1.1848  2.5854
  314MOL0     H42329   8.708  10.149   8.795  1.9633  0.6770  0.5675
  314MOL0     H42330   8.741  10.317   8.839 -1.6249  0.7249  0.9351
  314MOL0     H42331   8.817  10.211   8.563  1.0440  1.9950 -0.7871
  314MOL0     H42332   8.856  10.354   8.649 -2.0496 -0.3991  1.8293
  314MOL0     H42333   8.923  10.102   8.775  0.9635 -1.9496 -1.6519
  314MOL0     H42334   9.023  10.157   8.637  0.5871  1.5545 -0.7184
  314MOL0     H42335   8.978  10.368   8.859  1.6983  0.9622 -0.0544
  314MOL0     H42336   9.072  10.235   8.913  4.8668  4.5450  1.4446
  314MOL0     H42337   9.189  10.421   8.826 -2.6422 -0.2665 -0.2046
  314MOL0     H42338   9.120  10.381   8.666 -4.2688 -0.3008  0.6967
  314MOL0     H42339   9.252  10.148   8.785 -1.5181  0.0250 -0.1224
  314MOL0     H42340   9.257  10.216   8.625  3.4739  0.4141 -0.9047
  314MOL0     H42341   9.493  10.159   8.909 -1.2092  0.7613  0.0367
  314MOL0     H42342   9.730  10.351   9.007 -0.8485 -0.6758  0.8566
  314MOL0     H42343   9.724  10.183   8.965  1.6000 -0.6069 -0.4844
  314MOL0     H42344   9.866  10.217   8.765 -2.0794 -0.2209 -0.3684
  314MOL0     H42345   9.858  10.390   8.770  1.3227 -0.7933 -0.5627
  314MOL0     H42346   9.991  10.241   9.008 -0.0207 -0.0859  0.7207
  314MOL0     H42347   9.976  10.410   8.973 -0.1913  1.0466 -1.4332
  314MOL0     H42348  10.094  10.369   8.759 -1.5087  2.3430  1.8724
  314MOL0     H42349  10.140  10.203   8.815  2.8346  0.4268 -0.7617
  314MOL0     H42350  10.419  10.461   9.072 -0.0938 -3.0706  0.2593
  314MOL0     H42351  10.647  10.479   8.980  0.9882  1.0910 -1.4979
  314MOL0     H42352  11.026  10.371   8.974 -1.5161 -2.9855 -0.8066
  314MOL0     H42353  11.272  10.369   8.924 -1.1512 -0.7561  0.3463
  314MOL0     H42354  11.450  10.507   8.517 -0.4625 -0.5850  0.3613
  314MOL0     H42355  11.387  10.652   8.598  1.8239  1.7851  0.7583
  314MOL0     H42356  11.597  10.716   8.605 -0.7677  1.1151  2.3044
  314MOL0     H42357  11.561  10.668   8.761 -1.0110  1.1938 -0.8536
  314MOL0     H42358  11.659  10.430   8.713 -0.9686 -0.9465 -2.2102
  314MOL0     H42359  11.663  10.468   8.535 -1.5985 -0.5980 -0.4187
  314MOL0     H42360  11.829  10.619   8.740  0.5285  2.2729 -1.1275
  314MOL0     H42361  11.832  10.635   8.564 -0.1080 -0.9129 -1.3192
  314MOL0     H42362  11.876  10.387   8.554 -1.2476  1.5271  0.2328
  314MOL0     H42363  11.915  10.402   8.727 -2.1087 -1.7294 -1.4429
  314MOL0     H42364  12.097  10.575   8.665  1.1401 -1.3854  0.2419
  314MOL0     H42365  12.117  10.413   8.623 -0.6462 -0.7095 -0.6784
  314MOL0     H42366  12.031  10.625   8.421  0.0390 -0.1923 -1.8544
  314MOL0     H42367  12.043  10.450   8.386 -0.5233  0.5788 -0.9624
  314MOL0     H42368  12.262  10.659   8.479 -2.1493  0.7670  0.4119
  314MOL0     H42369  12.275  10.485   8.500  0.4374  1.1155  1.2604
  314MOL0     H42370  11.174  10.545   8.541 -1.0806  0.1034 -0.7730
  314MOL0     H42371  10.938  10.548   8.608  0.3863  0.0777 -0.4113
  314MOL0     H42372  10.540  10.252   8.636 -0.7030  0.5397 -0.3838
  314MOL0     H42373  10.311  10.262   8.694 -2.2348  1.1172  1.1715
  314MOL0     H42374   8.128  10.342   8.567  1.0312 -0.3679  0.4663
  314MOL0     H42375   8.020  10.539   8.473 -0.0255 -0.0966 -0.6826
  314MOL0     H42376   8.221  11.024   8.470 -0.1487  0.1934  0.2041
  314MOL0     H42377   8.196  11.255   8.431  0.3836 -1.7537  2.3791
  314MOL0     H42378   7.811  11.442   8.421  2.1141 -1.9282  0.9743
  314MOL0     H42379   7.808  11.428   8.250  2.0441 -4.4447 -0.2185
  314MOL0     H42380   7.929  11.640   8.428  1.0141 -2.1830  0.5081
  314MOL0     H42381   7.798  11.663   8.326  0.3913  0.7653  1.0048
  314MOL0     H42382   7.966  11.592   8.117  0.1716 -0.8986  0.2313
  314MOL0     H42383   8.074  11.592   8.247  0.8626  0.4064 -1.0019
  314MOL0     H42384   8.010  11.840   8.298  1.6298 -0.2090  0.2810
  314MOL0     H42385   8.076  11.822   8.135  1.0888  0.7306  2.1669
  314MOL0     H42386   7.701  11.937   8.009  0.4555  0.3316  0.3895
  314MOL0     H42387   7.783  11.218   8.334 -0.2135 -0.6803  0.4042
  314MOL0     H42388   7.758  10.875   8.312 -0.0058  0.4383 -1.4526
  314MOL0     H42389   7.700  10.946   8.460  2.7140  1.3269  2.0273
  314MOL0     H42390   7.688  11.029   8.297 -2.7556 -0.7813  1.4484
  315MOL0     O42391   5.490   5.306   5.813  0.1536  0.2693 -0.5044
  315MOL0     C42392   5.419   5.315   5.913 -0.6987  0.6221 -1.1059
  315MOL0     O42393   5.440   5.404   6.014 -0.9552 -0.8836  0.6239
  315MOL0     C42394   5.560   5.472   6.014 -0.6350  0.0778  0.5295
  315MOL0     C42395   5.682   5.402   5.988 -0.8737 -0.2487 -0.3642
  315MOL0     C42396   5.806   5.471   6.013  0.5262  0.0540 -0.5035
  315MOL0     C42397   5.802   5.612   6.029  1.1882 -0.1522  0.4766
  315MOL0     O42398   5.920   5.678   6.055  0.6061 -0.6039  0.2085
  315MOL0     C42399   6.016   5.614   6.145  0.9050 -0.5035  0.6898
  315MOL0     C42400   6.106   5.726   6.197  0.2408  0.5558 -0.8497
  315MOL0     C42401   6.202   5.681   6.301  0.4489  0.6595 -0.1240
  315MOL0     C42402   6.308   5.800   6.321 -0.6276  0.5081 -0.3244
  315MOL0     C42403   6.418   5.765   6.422  0.5477 -0.6143 -1.3781
  315MOL0     C42404   6.506   5.885   6.450  0.0825 -0.0501  0.6140
  315MOL0     C42405   6.617   5.830   6.542 -0.3176 -0.1400 -0.3841
  315MOL0     C42406   6.701   5.718   6.478 -0.2193 -0.1788  0.1440
  315MOL0     N42407   6.832   5.690   6.532 -0.2874 -0.3974 -0.2104
  315MOL0     C42408   6.896   5.573   6.545  0.0255 -0.4680 -0.0089
  315MOL0     C42409   7.013   5.608   6.606 -0.2367  0.0328  0.4980
  315MOL0     C42410   7.143   5.524   6.633  0.5367 -1.2041 -0.1952
  315MOL0     C42411   7.141   5.436   6.767 -0.5376 -0.3447 -0.5662
  315MOL0     C42412   7.108   5.525   6.890 -0.3786  0.0598 -0.3845
  315MOL0     C42413   7.195   5.646   6.908 -0.1985  1.3811  0.7920
  315MOL0     O42414   7.329   5.582   6.886 -0.5096 -0.2171 -0.1655
  315MOL0     C42415   7.443   5.637   6.952 -0.3361  0.9678 -0.2364
  315MOL0     C42416   7.444   5.760   7.012  0.7931 -0.0981  0.2216
  315MOL0     C42417   7.570   5.805   7.060  0.6519  0.3123 -0.2236
  315MOL0     C42418   7.692   5.740   7.037  0.0060 -0.3712 -1.4510
  315MOL0     C42419   7.825   5.809   7.071  0.7765  0.8621  0.7838
  315MOL0     O42420   7.923   5.722   7.102 -0.0369 -0.1296 -0.0298
  315MOL0     C42421   8.057   5.768   7.132  0.2900  0.0050  0.4307
  315MOL0     C42422   8.140   5.682   7.204 -0.4631 -0.8949 -1.0191
  315MOL0     C42423   8.270   5.707   7.241 -1.0541 -0.4464 -0.3005
  315MOL0     C42424   8.335   5.832   7.198  0.1681  0.0870 -0.3009
  315MOL0     O42425   8.466   5.851   7.236  0.0316 -0.3671  0.4363
  315MOL0     C42426   8.545   5.964   7.182  0.1293  0.1491 -1.1142
  315MOL0     C42427   8.691   5.929   7.186 -0.2134 -0.9627 -0.1141
  315MOL0     C42428   8.746   5.983   7.321  0.3969  1.0159  0.4424
  315MOL0     C42429   8.869   5.897   7.364  0.4028 -0.7655  0.8084
  315MOL0     C42430   8.951   5.957   7.474 -0.1008  0.7658  0.4682
  315MOL0     C42431   9.033   6.080   7.430 -0.4835  0.1768 -0.2434
  315MOL0     C42432   9.086   6.159   7.556  0.0741 -0.7895 -0.5734
  315MOL0     C42433   9.210   6.097   7.629 -0.3832 -0.4006  0.8874
  315MOL0    Cl42434   9.299   6.231   7.710  0.2784  0.3812 -0.3127
  315MOL0     C42435   8.247   5.928   7.132  0.3264  0.2693  0.7251
  315MOL0     C42436   8.114   5.893   7.102  0.5178 -0.8813  0.1786
  315MOL0     O42437   7.822   5.929   7.095  0.5207  0.1416 -0.1478
  315MOL0     C42438   7.688   5.618   6.988 -0.1401  0.8975 -0.3735
  315MOL0     C42439   7.563   5.566   6.942  0.0549  0.4164  0.1299
  315MOL0     N42440   7.012   5.738   6.647  0.7150 -0.1026  2.0420
  315MOL0     N42441   6.910   5.791   6.579 -0.0946  0.6539  0.3432
  315MOL0     C42442   5.678   5.684   6.041  0.6220 -0.6198  1.1281
  315MOL0     C42443   5.559   5.613   6.034  0.3693 -0.4328  0.2915
  315MOL0     C42444   5.291   5.236   5.922  0.6822  0.3007  0.5359
  315MOL0     C42445   5.221   5.235   6.041 -0.0706  0.1684  0.2733
  315MOL0     C42446   5.102   5.166   6.059 -0.1979 -0.0173 -1.0523
  315MOL0     C42447   5.051   5.094   5.952  0.6455  0.1329  0.0563
  315MOL0     O42448   4.922   5.042   5.946 -0.2982  0.2675 -0.3252
  315MOL0     C42449   4.827   5.046   6.057 -0.3082  0.4412  0.0262
  315MOL0     C42450   4.723   4.943   6.047 -0.2746 -0.3638 -0.8843
  315MOL0     C42451   4.770   4.798   6.023 -0.5782 -0.8597 -1.4743
  315MOL0     C42452   4.655   4.697   6.027 -0.1981 -0.0367 -0.1797
  315MOL0     C42453   4.550   4.721   5.923 -1.0512 -0.3292 -0.1692
  315MOL0     C42454   4.479   4.742   5.832 -0.0921 -0.2631 -0.6474
  315MOL0     C42455   5.110   5.107   5.825  1.4247 -0.4051 -0.5828
  315MOL0     C42456   5.225   5.176   5.808 -0.2810 -0.1673 -0.9473
  315MOL0     C42457   5.300   5.156   5.679 -0.2385  0.1552  0.0988
  315MOL0     H42458   5.677   5.296   5.962 -2.9016 -0.3533  0.2126
  315MOL0     H42459   5.901   5.424   5.987  1.4123  1.3272  0.2800
  315MOL0     H42460   5.966   5.561   6.226 -1.3696  1.8320  0.9386
  315MOL0     H42461   6.079   5.542   6.091 -0.9131 -2.1058  0.6181
  315MOL0     H42462   6.057   5.817   6.234  1.2022  0.7901 -0.1291
  315MOL0     H42463   6.179   5.743   6.117  0.4586 -1.0727 -1.0357
  315MOL0     H42464   6.256   5.588   6.282  1.4184  0.2619  3.7563
  315MOL0     H42465   6.158   5.665   6.400  0.0348 -0.0072 -0.4042
  315MOL0     H42466   6.361   5.816   6.226 -0.5812 -0.7389 -0.5300
  315MOL0     H42467   6.255   5.893   6.345 -1.5868  0.6195 -2.6071
  315MOL0     H42468   6.377   5.728   6.516 -0.3620 -1.3735 -2.0446
  315MOL0     H42469   6.465   5.673   6.387  2.4827  0.0514 -0.6264
  315MOL0     H42470   6.541   5.933   6.357  0.9414 -0.3824  0.7602
  315MOL0     H42471   6.450   5.958   6.510  2.1116 -0.4419  3.1542
  315MOL0     H42472   6.565   5.800   6.634 -1.7657  2.7030 -0.1740
  315MOL0     H42473   6.685   5.911   6.570 -0.4600  1.4710 -4.2101
  315MOL0     H42474   6.643   5.626   6.489 -0.9816 -0.1669 -2.8571
  315MOL0     H42475   6.704   5.751   6.373  0.7041  0.8004  0.4576
  315MOL0     H42476   6.868   5.477   6.503  1.8306 -0.5042 -1.2406
  315MOL0     H42477   7.162   5.447   6.557  0.9622 -3.3246  1.9530
  315MOL0     H42478   7.224   5.596   6.620  0.6377 -1.3215 -0.2173
  315MOL0     H42479   7.062   5.364   6.750  0.6951 -1.6827 -0.8322
  315MOL0     H42480   7.235   5.385   6.790  0.6989  2.1251  0.3349
  315MOL0     H42481   7.125   5.464   6.979  2.9493  1.6816  0.2572
  315MOL0     H42482   7.005   5.562   6.892  0.1599  1.6950  1.9579
  315MOL0     H42483   7.172   5.697   7.002  1.9755  2.3900  0.8360
  315MOL0     H42484   7.161   5.715   6.830 -1.6566 -1.1963 -0.9824
  315MOL0     H42485   7.353   5.819   7.010 -0.4292 -1.9111 -0.0826
  315MOL0     H42486   7.571   5.904   7.105  0.2016  1.4693 -2.6297
  315MOL0     H42487   8.100   5.585   7.230 -1.5401 -0.2957 -0.4108
  315MOL0     H42488   8.331   5.635   7.295 -0.5350  0.7781  0.7866
  315MOL0     H42489   8.518   5.989   7.079  2.3466 -1.2971 -2.1160
  315MOL0     H42490   8.518   6.051   7.243 -3.2669 -1.4383 -0.1035
  315MOL0     H42491   8.705   5.822   7.171 -2.2788 -1.0915 -1.5290
  315MOL0     H42492   8.749   5.987   7.113 -2.3291 -0.8164 -1.7531
  315MOL0     H42493   8.773   6.089   7.307 -0.9062  1.2420 -0.6288
  315MOL0     H42494   8.657   5.973   7.383 -0.7994  0.5008 -1.2988
  315MOL0     H42495   8.938   5.879   7.281  0.3157 -1.1253  0.8143
  315MOL0     H42496   8.821   5.802   7.390 -4.0690  0.0863 -2.8712
  315MOL0     H42497   9.022   5.879   7.503 -1.0753 -0.7651 -1.0463
  315MOL0     H42498   8.884   5.971   7.559  0.2272 -3.1636  1.5896
  315MOL0     H42499   9.120   6.054   7.368 -1.5180 -0.8838 -1.3171
  315MOL0     H42500   8.971   6.146   7.369  2.6797  1.3377 -2.5073
  315MOL0     H42501   9.009   6.150   7.633 -0.6620 -0.7443 -1.2953
  315MOL0     H42502   9.107   6.262   7.526 -1.9578  0.0661  0.6697
  315MOL0     H42503   9.173   6.019   7.696  0.6047 -0.7602  1.0236
  315MOL0     H42504   9.285   6.050   7.564  1.1799  0.9686  1.6459
  315MOL0     H42505   8.290   6.023   7.100  0.1310  0.4763  1.0733
  315MOL0     H42506   8.048   5.968   7.060  0.4392  1.0566  3.3682
  315MOL0     H42507   7.783   5.565   6.984  0.7584  2.3798  0.2814
  315MOL0     H42508   7.575   5.466   6.902  0.5308  1.6691 -3.2021
  315MOL0     H42509   5.678   5.793   6.044 -2.5276 -0.3949 -1.4531
  315MOL0     H42510   5.466   5.667   6.042  1.1585  1.3172 -1.2528
  315MOL0     H42511   5.266   5.280   6.129  1.8141  0.3169 -0.7171
  315MOL0     H42512   5.063   5.167   6.160  0.6946  0.5823 -0.7019
  315MOL0     H42513   4.788   5.148   6.056 -0.1598  0.6170  2.8448
  315MOL0     H42514   4.883   5.030   6.150 -1.0548 -0.0632  0.4010
  315MOL0     H42515   4.660   4.977   5.965  2.6124  3.7413 -1.7411
  315MOL0     H42516   4.677   4.953   6.146 -2.6072  3.0504 -2.1312
  315MOL0     H42517   4.834   4.763   6.104 -1.5605 -2.6740 -1.4526
  315MOL0     H42518   4.815   4.784   5.924  1.8161  1.2327 -0.8282
  315MOL0     H42519   4.708   4.604   6.006  2.3808  1.6716 -1.9205
  315MOL0     H42520   4.617   4.686   6.129 -0.1648 -0.9723 -0.2621
  315MOL0     H42521   4.414   4.763   5.750 -2.7479  0.8559  1.6116
  315MOL0     H42522   5.077   5.056   5.734  0.0878  0.0099 -0.3577
  315MOL0     H42523   5.403   5.131   5.709 -0.3256 -0.3904 -0.0436
  315MOL0     H42524   5.255   5.079   5.615 -0.3161  1.2185 -1.1629
  315MOL0     H42525   5.296   5.253   5.629  0.5079  0.3868  0.4717
  316MOL0     O42526  10.752   3.357   7.915 -0.1699 -0.0618  0.0156
  316MOL0     C42527  10.719   3.430   8.008 -0.4047  0.5729 -0.2529
  316MOL0     O42528  10.799   3.454   8.121 -0.0159  0.2068  0.1738
  316MOL0     C42529  10.922   3.404   8.125 -0.6211  0.7160 -0.4779
  316MOL0     C42530  11.012   3.474   8.045 -1.4487 -0.1028 -0.3968
  316MOL0     C42531  11.144   3.433   8.052  0.8082 -0.0946  1.0274
  316MOL0     C42532  11.185   3.332   8.143 -0.8464  0.0445 -0.2112
  316MOL0     O42533  11.312   3.274   8.159  0.2861 -0.6759 -0.1983
  316MOL0     C42534  11.415   3.348   8.098 -0.4054  1.1203  0.1665
  316MOL0     C42535  11.551   3.300   8.148 -0.1301  0.2633 -0.9430
  316MOL0     C42536  11.565   3.351   8.297  0.2185  0.5221 -0.2257
  316MOL0     C42537  11.704   3.305   8.342 -0.6745  0.1781 -0.3989
  316MOL0     C42538  11.720   3.353   8.485 -0.8450 -0.2744  0.0779
  316MOL0     C42539  11.858   3.310   8.527  0.4869 -0.3787 -1.0585
  316MOL0     C42540  11.892   3.326   8.674 -0.0734 -0.1933 -0.8088
  316MOL0     C42541  12.043   3.288   8.692  0.2653  0.2541 -0.3168
  316MOL0     N42542  12.098   3.319   8.824  0.2972  0.0229 -1.2739
  316MOL0     C42543  12.213   3.259   8.880  0.8627  0.4535  0.7234
  316MOL0     C42544  12.224   3.300   9.006 -0.0284 -0.4146 -0.6614
  316MOL0     C42545  12.338   3.265   9.093 -0.4610 -0.4418  0.0759
  316MOL0     C42546  12.472   3.336   9.053 -0.0042  0.0137 -0.3373
  316MOL0     C42547  12.589   3.323   9.153 -0.5756  0.2164  0.4503
  316MOL0     C42548  12.711   3.427   9.133  0.0182  0.3891 -0.1310
  316MOL0     O42549  12.791   3.437   9.256 -0.2842 -0.5480  0.1664
  316MOL0     C42550  12.912   3.366   9.260  0.1926 -0.3304 -0.0488
  316MOL0     C42551  12.923   3.253   9.339  0.6801 -0.9165 -0.2691
  316MOL0     C42552  13.041   3.180   9.356 -0.1539  0.1915 -0.5884
  316MOL0     C42553  13.160   3.235   9.295  0.6737 -0.3266  0.9022
  316MOL0     C42554  13.288   3.165   9.312  0.0812  0.4813  0.4408
  316MOL0     O42555  13.403   3.242   9.299 -0.9599  0.6312  0.3674
  316MOL0     C42556  13.528   3.181   9.278  0.3566  0.1238  0.6364
  316MOL0     C42557  13.608   3.241   9.182  0.0392  0.0840  0.1858
  316MOL0     C42558  13.737   3.194   9.157 -0.6295  0.4339  0.0242
  316MOL0     C42559  13.784   3.085   9.222  0.1090 -0.0870 -0.3644
  316MOL0     O42560  13.908   3.029   9.226 -0.3138 -0.3491  0.3692
  316MOL0     C42561  13.965   3.029   9.093  0.4710 -0.2998 -0.5509
  316MOL0     C42562  14.112   2.988   9.104 -0.1487 -1.0989  0.4800
  316MOL0     C42563  14.188   3.087   9.190 -0.3425  0.5682 -0.5019
  316MOL0     C42564  14.334   3.037   9.194 -0.1168  0.2664 -0.3874
  316MOL0     C42565  14.412   3.113   9.293  0.5308  0.3416 -0.8930
  316MOL0     C42566  14.548   3.055   9.334 -0.0824 -0.1300  0.5385
  316MOL0     C42567  14.642   3.151   9.410 -0.3183  0.0564 -0.2673
  316MOL0     C42568  14.770   3.087   9.458  0.0930 -0.0314 -0.1264
  316MOL0    Cl42569  14.882   3.034   9.325  0.5566 -0.0778 -0.1421
  316MOL0     C42570  13.692   3.013   9.302  0.1736 -0.0451  0.2868
  316MOL0     C42571  13.570   3.071   9.346 -0.2074 -0.0626 -0.8114
  316MOL0     O42572  13.289   3.048   9.351  0.3092  0.7706 -0.0677
  316MOL0     C42573  13.149   3.355   9.214 -0.1131  0.5233 -0.2394
  316MOL0     C42574  13.024   3.422   9.194 -0.0633  0.0008  0.1719
  316MOL0     N42575  12.107   3.384   9.025 -0.0683 -0.3298 -0.4345
  316MOL0     N42576  12.032   3.389   8.921  0.0428 -0.6684  0.8046
  316MOL0     C42577  11.096   3.264   8.213  0.2222  1.1505 -0.6584
  316MOL0     C42578  10.961   3.302   8.212 -0.4973 -0.9390 -0.0114
  316MOL0     C42579  10.572   3.454   8.016 -0.7251  0.2177 -0.0724
  316MOL0     C42580  10.517   3.507   8.139 -0.0438 -0.4826  0.5466
  316MOL0     C42581  10.390   3.563   8.163  0.2861 -0.8790  0.1997
  316MOL0     C42582  10.300   3.548   8.057 -0.2125 -0.3693  0.2991
  316MOL0     O42583  10.175   3.599   8.045  0.2384 -0.6894 -0.0024
  316MOL0     C42584  10.126   3.670   8.163  0.6854 -0.2029 -0.5194
  316MOL0     C42585   9.979   3.736   8.133  0.3857 -0.1808  0.6877
  316MOL0     C42586   9.881   3.617   8.109  0.7289  0.3183  0.1818
  316MOL0     C42587   9.753   3.662   8.039  0.0715  0.1137  0.7407
  316MOL0     C42588   9.684   3.778   8.094 -0.2739  0.1056 -1.0411
  316MOL0     C42589   9.596   3.861   8.119 -0.3582 -0.5557 -0.6070
  316MOL0     C42590  10.341   3.484   7.939  0.4489  1.0267  0.1757
  316MOL0     C42591  10.474   3.435   7.920  0.0816  0.6732  0.4096
  316MOL0     C42592  10.483   3.338   7.795 -0.4311 -0.7730  0.4122
  316MOL0     H42593  10.982   3.553   7.977  2.0635  3.0244  1.2510
  316MOL0     H42594  11.212   3.489   7.988  0.9840 -2.2749 -0.8135
  316MOL0     H42595  11.409   3.337   7.990 -0.1981 -2.9145  0.4304
  316MOL0     H42596  11.404   3.452   8.132 -0.2601  1.1285  0.1885
  316MOL0     H42597  11.631   3.349   8.092  0.2923 -1.1410 -1.5986
  316MOL0     H42598  11.551   3.191   8.145 -0.7905  0.2766 -2.4340
  316MOL0     H42599  11.489   3.314   8.366 -1.9675 -0.5487 -3.0147
  316MOL0     H42600  11.569   3.461   8.297  1.1464  0.5535  2.5178
  316MOL0     H42601  11.702   3.197   8.327 -0.3986  0.4843 -3.1645
  316MOL0     H42602  11.782   3.354   8.283 -0.7966  0.6986 -0.1283
  316MOL0     H42603  11.707   3.461   8.487 -0.3757 -0.2037  2.8490
  316MOL0     H42604  11.645   3.309   8.552  2.5341  0.3928  4.7966
  316MOL0     H42605  11.867   3.202   8.507 -2.2624 -1.1058  1.0037
  316MOL0     H42606  11.925   3.366   8.462 -0.6537 -2.1352 -3.9500
  316MOL0     H42607  11.829   3.266   8.741 -1.0180  2.1252  0.4740
  316MOL0     H42608  11.877   3.430   8.702 -1.2401 -0.7080  0.6037
  316MOL0     H42609  12.063   3.182   8.673 -1.2228 -0.0254 -0.4360
  316MOL0     H42610  12.118   3.338   8.629  0.3574  0.7000  0.1422
  316MOL0     H42611  12.275   3.192   8.821  0.1124  1.6912 -1.6092
  316MOL0     H42612  12.303   3.295   9.192 -3.2174 -0.4009 -0.8076
  316MOL0     H42613  12.364   3.159   9.100 -0.1422 -0.3249  0.7364
  316MOL0     H42614  12.500   3.313   8.949 -1.1268  1.2931 -0.9524
  316MOL0     H42615  12.454   3.444   9.044  3.8284  0.6657 -2.7516
  316MOL0     H42616  12.618   3.220   9.178 -0.6123  0.6508  2.4168
  316MOL0     H42617  12.549   3.347   9.252 -0.1838 -1.2494  0.9921
  316MOL0     H42618  12.665   3.525   9.115 -0.9732 -0.3132 -1.5875
  316MOL0     H42619  12.776   3.394   9.052 -0.7905 -1.5780 -0.0245
  316MOL0     H42620  12.836   3.234   9.402 -0.5540 -0.6217 -1.8063
  316MOL0     H42621  13.055   3.088   9.411  0.1634 -0.1415 -1.2101
  316MOL0     H42622  13.568   3.320   9.119 -0.4277 -0.3327 -0.0527
  316MOL0     H42623  13.809   3.245   9.094 -0.2356 -0.3550 -0.1818
  316MOL0     H42624  13.908   2.957   9.033 -0.4311  0.3449 -0.4971
  316MOL0     H42625  13.959   3.127   9.044 -0.8742 -0.1405 -0.1150
  316MOL0     H42626  14.113   2.884   9.140 -0.5443 -1.1371  0.3966
  316MOL0     H42627  14.154   2.995   9.003  0.0728 -3.0932  0.3819
  316MOL0     H42628  14.183   3.188   9.149  1.3991  0.2532 -1.5852
  316MOL0     H42629  14.148   3.095   9.291  1.4842  4.4114  0.0993
  316MOL0     H42630  14.378   3.030   9.094 -1.7760 -0.7315 -1.1004
  316MOL0     H42631  14.330   2.931   9.221 -4.1378 -0.0754 -1.6524
  316MOL0     H42632  14.355   3.133   9.384  1.0102 -1.2593 -0.2188
  316MOL0     H42633  14.430   3.208   9.241  2.1982 -1.2503 -3.4479
  316MOL0     H42634  14.531   2.970   9.401  1.9939 -3.4986 -2.7766
  316MOL0     H42635  14.597   3.012   9.246 -0.0467 -0.9538  0.9414
  316MOL0     H42636  14.596   3.188   9.502  1.5728 -2.8614  2.0061
  316MOL0     H42637  14.664   3.238   9.346  0.0764  0.4959  0.4567
  316MOL0     H42638  14.829   3.159   9.516  0.6640 -1.0630  0.6068
  316MOL0     H42639  14.735   3.002   9.518 -3.6037  1.4130  0.0055
  316MOL0     H42640  13.721   2.920   9.350  2.5295  1.0364  1.1164
  316MOL0     H42641  13.508   3.022   9.420  0.9919  1.5762  1.3978
  316MOL0     H42642  13.240   3.399   9.174 -0.1893 -0.9995 -2.2352
  316MOL0     H42643  13.015   3.520   9.147  0.0895  0.3301  0.8130
  316MOL0     H42644  11.119   3.170   8.262  0.3779  1.6316  0.1951
  316MOL0     H42645  10.896   3.242   8.274  1.1181 -0.7222  1.9918
  316MOL0     H42646  10.591   3.516   8.218 -0.5318  2.1528  0.8188
  316MOL0     H42647  10.360   3.623   8.249 -0.6526  1.1243 -1.4214
  316MOL0     H42648  10.197   3.751   8.182 -0.0335  0.3334 -0.0838
  316MOL0     H42649  10.108   3.618   8.258 -1.3057  3.1082  1.0755
  316MOL0     H42650   9.988   3.793   8.040  4.5379  1.3710  1.8419
  316MOL0     H42651   9.954   3.809   8.211  2.6534  0.2285  1.1023
  316MOL0     H42652   9.868   3.583   8.212  4.0336 -0.9973  0.2762
  316MOL0     H42653   9.930   3.546   8.042  0.0870 -0.4865  0.5578
  316MOL0     H42654   9.776   3.697   7.938 -0.0602  0.8025  0.9422
  316MOL0     H42655   9.682   3.580   8.027  1.5158 -0.9348 -1.2495
  316MOL0     H42656   9.515   3.926   8.142 -0.3586  0.1135 -2.3354
  316MOL0     H42657  10.263   3.465   7.866  0.4359  1.1237  0.1629
  316MOL0     H42658  10.387   3.293   7.770 -0.7083  0.7358 -1.4367
  316MOL0     H42659  10.521   3.389   7.706 -0.5323 -3.0689 -1.0274
  316MOL0     H42660  10.564   3.267   7.814  0.8996  0.5263 -0.1917
  317MOL0     O42661   1.234   3.336   5.524 -0.3228  1.2543  0.0241
  317MOL0     C42662   1.194   3.291   5.416  0.5897 -0.3913  0.6040
  317MOL0     O42663   1.270   3.252   5.315 -1.1834  0.0014  0.6320
  317MOL0     C42664   1.402   3.298   5.312  0.3952  0.9385  0.1127
  317MOL0     C42665   1.499   3.204   5.307  0.1155  0.2341 -0.6479
  317MOL0     C42666   1.638   3.241   5.310 -0.1041 -0.5229  0.2296
  317MOL0     C42667   1.676   3.375   5.289  0.2711 -0.0938  0.5250
  317MOL0     O42668   1.810   3.394   5.259  0.0818  0.0344  0.0710
  317MOL0     C42669   1.870   3.522   5.263  0.8451 -0.3053 -0.2136
  317MOL0     C42670   1.881   3.576   5.115  0.7501 -0.0577  0.8608
  317MOL0     C42671   1.954   3.710   5.121 -0.7343 -0.6739 -0.1183
  317MOL0     C42672   1.884   3.822   5.207  0.5975  0.0595 -0.8606
  317MOL0     C42673   1.903   3.966   5.151  0.9178  0.4527 -0.5016
  317MOL0     C42674   2.041   4.011   5.176 -0.0722  0.5001 -0.1882
  317MOL0     C42675   2.058   4.151   5.125  0.9286 -0.6141  0.3842
  317MOL0     C42676   2.208   4.205   5.138  0.2229  0.9246  0.8248
  317MOL0     N42677   2.317   4.109   5.103  0.2255 -0.4094  0.6080
  317MOL0     C42678   2.388   4.114   4.987 -0.5244  0.1014 -0.3350
  317MOL0     C42679   2.508   4.047   5.011 -0.8757 -0.2027 -0.5936
  317MOL0     C42680   2.622   4.048   4.919 -0.8439  0.7347 -0.3594
  317MOL0     C42681   2.732   4.134   4.978 -0.2014  0.3959 -0.7184
  317MOL0     C42682   2.851   4.143   4.881 -0.1842  0.9746  0.0682
  317MOL0     C42683   2.975   4.233   4.921 -0.4620 -0.3773 -0.1783
  317MOL0     O42684   3.053   4.224   4.802  0.0319  0.1696  0.0429
  317MOL0     C42685   3.175   4.272   4.781  1.0807  0.6051  0.7669
  317MOL0     C42686   3.244   4.332   4.883 -0.1454  0.0849  1.1008
  317MOL0     C42687   3.372   4.385   4.855  0.6993  0.3765 -0.1392
  317MOL0     C42688   3.427   4.378   4.721 -1.0247 -0.6102 -0.6603
  317MOL0     C42689   3.556   4.448   4.706 -0.0719  0.5047 -0.3951
  317MOL0     O42690   3.571   4.507   4.581  0.0843  0.4583 -0.0260
  317MOL0     C42691   3.669   4.600   4.565  0.4842 -0.2046  0.3701
  317MOL0     C42692   3.803   4.591   4.608  0.2242  0.2752 -0.5499
  317MOL0     C42693   3.884   4.705   4.611 -0.0124  0.4094  0.3404
  317MOL0     C42694   3.830   4.828   4.555 -0.0872  0.7768  0.5043
  317MOL0     O42695   3.912   4.932   4.530 -0.2442 -0.4384 -0.1263
  317MOL0     C42696   3.855   5.052   4.580 -0.2100  0.6114  0.9674
  317MOL0     C42697   3.964   5.148   4.582 -0.4646  0.3199 -0.1484
  317MOL0     C42698   4.069   5.103   4.691  0.7594 -1.0865  0.5934
  317MOL0     C42699   4.173   5.216   4.721  1.2258  0.4701  0.1739
  317MOL0     C42700   4.301   5.173   4.800 -0.0005 -0.5081  0.1453
  317MOL0     C42701   4.279   5.105   4.942  0.5860 -0.7065  0.1580
  317MOL0     C42702   4.211   5.193   5.047  0.3121 -0.7384 -0.8848
  317MOL0     C42703   4.164   5.121   5.176  0.2317 -0.1714  0.5971
  317MOL0    Cl42704   4.022   5.005   5.153  0.3258  0.6735  0.1650
  317MOL0     C42705   3.711   4.822   4.497 -0.5150  0.0490 -0.7972
  317MOL0     C42706   3.635   4.711   4.497  0.5622 -0.0604 -0.0101
  317MOL0     O42707   3.639   4.431   4.799 -0.0730 -0.0481 -0.0978
  317MOL0     C42708   3.360   4.305   4.623  0.9013  0.3243 -0.8627
  317MOL0     C42709   3.225   4.261   4.650 -1.1285 -0.2369 -0.7932
  317MOL0     N42710   2.506   3.993   5.133  0.0998  0.3055 -0.2122
  317MOL0     N42711   2.388   4.023   5.181 -0.2038  0.4997  0.3596
  317MOL0     C42712   1.577   3.474   5.298 -0.8632 -0.2060  0.1266
  317MOL0     C42713   1.440   3.439   5.324  0.3736  0.8983  0.4112
  317MOL0     C42714   1.049   3.300   5.384  0.2954 -0.2110  0.2705
  317MOL0     C42715   1.007   3.328   5.255 -0.4136 -0.2601 -0.4634
  317MOL0     C42716   0.879   3.352   5.217  0.5973 -0.3965  0.4599
  317MOL0     C42717   0.776   3.346   5.314 -0.8213 -0.2130 -0.2574
  317MOL0     O42718   0.645   3.363   5.294  0.4192 -0.2794  0.0261
  317MOL0     C42719   0.600   3.391   5.160 -0.0238 -0.2192  0.3093
  317MOL0     C42720   0.449   3.400   5.154 -0.8123 -0.7091 -0.7464
  317MOL0     C42721   0.385   3.483   5.266  0.4492  0.0166 -0.6492
  317MOL0     C42722   0.232   3.502   5.234  0.7330  0.3538  0.2681
  317MOL0     C42723   0.169   3.573   5.350 -0.4124  0.5893  0.7721
  317MOL0     C42724   0.130   3.632   5.448  0.0120 -0.0344 -0.5969
  317MOL0     C42725   0.806   3.320   5.449  0.1992  1.0950 -0.0900
  317MOL0     C42726   0.933   3.295   5.479 -0.8069  0.2206 -0.2976
  317MOL0     C42727   0.968   3.240   5.616 -0.5079 -0.0210  0.1038
  317MOL0     H42728   1.472   3.098   5.303  0.5645  0.0621  0.6334
  317MOL0     H42729   1.713   3.164   5.295  0.4347  0.4509 -2.8455
  317MOL0     H42730   1.819   3.591   5.331  2.6689  0.0608  0.8530
  317MOL0     H42731   1.969   3.524   5.308  0.1288  1.6905  1.4453
  317MOL0     H42732   1.778   3.589   5.079 -0.2133 -2.1022  2.6956
  317MOL0     H42733   1.940   3.509   5.052  0.6452 -0.5701  1.3033
  317MOL0     H42734   1.975   3.747   5.020  1.0166  0.9784  0.7681
  317MOL0     H42735   2.053   3.707   5.169 -0.1447  1.2455 -1.0976
  317MOL0     H42736   1.778   3.805   5.226  0.2151  2.2982 -0.7568
  317MOL0     H42737   1.924   3.812   5.308 -2.9885  2.4954  1.0047
  317MOL0     H42738   1.881   3.972   5.044  2.0793 -0.2214 -0.7960
  317MOL0     H42739   1.835   4.029   5.208  0.0925 -1.6917  1.0038
  317MOL0     H42740   2.062   3.999   5.282  0.4575 -1.7531 -0.4998
  317MOL0     H42741   2.116   3.949   5.126  3.0723  1.5853  2.8100
  317MOL0     H42742   2.002   4.218   5.192  0.3177 -0.9054  0.1695
  317MOL0     H42743   2.031   4.166   5.020  1.5421  0.7676  0.3985
  317MOL0     H42744   2.214   4.292   5.072  1.2021 -0.0346 -0.3933
  317MOL0     H42745   2.229   4.229   5.243 -0.7814  0.6446  1.1066
  317MOL0     H42746   2.361   4.162   4.893 -1.5403 -0.4212 -0.3241
  317MOL0     H42747   2.664   3.947   4.919 -2.3099 -0.0088  3.0178
  317MOL0     H42748   2.597   4.082   4.818 -1.9492 -2.0142 -1.1021
  317MOL0     H42749   2.696   4.234   5.004  1.3065  2.0109 -4.1962
  317MOL0     H42750   2.777   4.084   5.064 -0.9474  0.0424 -0.5248
  317MOL0     H42751   2.818   4.176   4.781  1.9238 -0.0310 -1.0078
  317MOL0     H42752   2.893   4.042   4.877 -0.4563  0.8508  0.2917
  317MOL0     H42753   3.029   4.186   5.005  0.3637 -0.7890 -0.9221
  317MOL0     H42754   2.955   4.338   4.946 -0.0180 -0.4568  0.5656
  317MOL0     H42755   3.206   4.339   4.984  1.0947  2.6041  1.4749
  317MOL0     H42756   3.420   4.427   4.943 -1.4498  1.0589  0.7761
  317MOL0     H42757   3.834   4.499   4.656  0.1823 -0.7184 -2.3339
  317MOL0     H42758   3.984   4.704   4.653  0.3122 -1.5656 -0.4009
  317MOL0     H42759   3.773   5.082   4.513 -0.3949 -0.8344  0.5072
  317MOL0     H42760   3.810   5.036   4.678 -2.0058 -0.5950  0.0062
  317MOL0     H42761   4.005   5.144   4.481  2.7992 -1.5091  1.0903
  317MOL0     H42762   3.927   5.247   4.610 -2.0375 -0.0102 -0.9646
  317MOL0     H42763   4.026   5.054   4.779 -0.2082 -2.3231 -0.5261
  317MOL0     H42764   4.124   5.020   4.646 -0.8729 -0.4827 -2.9170
  317MOL0     H42765   4.116   5.287   4.781  0.5055 -0.2062  0.2901
  317MOL0     H42766   4.194   5.264   4.624  3.4312  0.7609  0.7359
  317MOL0     H42767   4.361   5.263   4.814 -1.9300  0.6156  1.6900
  317MOL0     H42768   4.352   5.099   4.738 -1.0193  0.5426 -2.0300
  317MOL0     H42769   4.215   5.018   4.926 -0.9962  0.2855  0.8052
  317MOL0     H42770   4.373   5.065   4.981  0.1914 -0.3427  1.5594
  317MOL0     H42771   4.115   5.232   5.013 -1.2555 -3.0046  0.6740
  317MOL0     H42772   4.288   5.267   5.073  0.7057 -1.3083 -0.3933
  317MOL0     H42773   4.250   5.067   5.216  2.0699 -0.5439 -3.3816
  317MOL0     H42774   4.141   5.207   5.240 -0.0838 -0.2752  0.6255
  317MOL0     H42775   3.686   4.908   4.435  2.5479 -0.5725 -3.0695
  317MOL0     H42776   3.536   4.721   4.453  1.1522  3.4954 -0.8072
  317MOL0     H42777   3.406   4.288   4.526  1.1404 -0.1831 -0.6656
  317MOL0     H42778   3.155   4.228   4.573  0.2789 -0.4084 -2.0518
  317MOL0     H42779   1.618   3.573   5.278  0.5475 -0.5012  1.3801
  317MOL0     H42780   1.367   3.517   5.305 -0.4858  0.2469  0.9909
  317MOL0     H42781   1.090   3.340   5.186  1.5715 -2.8013  1.3056
  317MOL0     H42782   0.857   3.383   5.116  3.7799 -0.5193 -0.3481
  317MOL0     H42783   0.630   3.324   5.079  0.6330  1.1662 -0.6379
  317MOL0     H42784   0.641   3.490   5.138  0.1307  0.1572  2.0932
  317MOL0     H42785   0.410   3.298   5.156  1.5486 -1.6416  0.1521
  317MOL0     H42786   0.411   3.437   5.058 -3.8157 -2.0823 -0.2229
  317MOL0     H42787   0.441   3.577   5.277  0.1370  0.1997 -0.6252
  317MOL0     H42788   0.392   3.426   5.359  0.7684 -1.5215 -1.5767
  317MOL0     H42789   0.215   3.557   5.141 -1.6417 -2.0172 -0.8415
  317MOL0     H42790   0.175   3.409   5.227 -0.9434  1.4453 -1.7621
  317MOL0     H42791   0.087   3.690   5.526 -1.8822 -1.2308 -0.7017
  317MOL0     H42792   0.730   3.300   5.524 -0.3988  1.7821 -0.4981
  317MOL0     H42793   1.029   3.310   5.674  2.2610 -1.0306 -1.3588
  317MOL0     H42794   0.879   3.205   5.669  0.1070  1.1777  1.9748
  317MOL0     H42795   1.038   3.158   5.595 -1.6851 -0.3694 -2.9993
  318MOL0     O42796   2.874  10.633   8.432 -0.3124  0.3621  0.1212
  318MOL0     C42797   2.798  10.690   8.353  0.1391 -0.2434  0.6334
  318MOL0     O42798   2.827  10.712   8.224 -0.3913 -0.0666  0.6838
  318MOL0     C42799   2.939  10.642   8.169  0.1919  0.5945 -0.1535
  318MOL0     C42800   2.965  10.506   8.187 -0.0694  0.1331 -0.1532
  318MOL0     C42801   3.072  10.438   8.136  0.2553  0.9449  1.0403
  318MOL0     C42802   3.157  10.508   8.047  0.6443  0.0073  0.3428
  318MOL0     O42803   3.253  10.437   7.988 -0.1454 -0.5545 -0.0578
  318MOL0     C42804   3.324  10.491   7.872  0.3437  1.0701  0.3090
  318MOL0     C42805   3.385  10.366   7.789  0.7447  0.1841 -0.2204
  318MOL0     C42806   3.486  10.398   7.690  0.2428  0.0466  0.6723
  318MOL0     C42807   3.584  10.281   7.655 -0.2476 -1.2701 -0.1211
  318MOL0     C42808   3.710  10.268   7.751  0.8071 -0.3356 -0.2187
  318MOL0     C42809   3.769  10.129   7.721  0.0317  0.4488  0.3023
  318MOL0     C42810   3.928  10.125   7.704  0.1731 -0.3301  0.2153
  318MOL0     C42811   3.974  10.205   7.579  0.6822  0.4813  0.3808
  318MOL0     N42812   4.117  10.197   7.567 -0.4391 -0.7565  0.1680
  318MOL0     C42813   4.208  10.094   7.600 -0.1014  0.0243  0.1106
  318MOL0     C42814   4.331  10.140   7.562  0.5177  0.3801 -0.0301
  318MOL0     C42815   4.463  10.074   7.582  0.4164  0.9054 -0.5741
  318MOL0     C42816   4.479  10.001   7.724  0.1879 -0.6606 -0.1703
  318MOL0     C42817   4.463  10.093   7.847 -0.3494  0.0903 -0.6046
  318MOL0     C42818   4.550  10.209   7.860  0.8905 -0.2950  0.3142
  318MOL0     O42819   4.684  10.176   7.852 -0.6958 -0.8493  0.1530
  318MOL0     C42820   4.786  10.267   7.831 -0.1895  0.4692 -0.1872
  318MOL0     C42821   4.920  10.222   7.845 -0.5555  0.2753 -0.2655
  318MOL0     C42822   5.039  10.300   7.845  0.1715 -0.1151 -0.4618
  318MOL0     C42823   5.014  10.438   7.813 -0.7114 -0.0707 -0.0786
  318MOL0     C42824   5.130  10.521   7.791 -0.1498 -0.2778 -0.2394
  318MOL0     O42825   5.243  10.462   7.745 -0.3683  0.9609  0.3963
  318MOL0     C42826   5.337  10.559   7.718  0.0569 -0.0420  0.1320
  318MOL0     C42827   5.458  10.541   7.772 -0.1237 -0.8034  0.3682
  318MOL0     C42828   5.577  10.626   7.732 -0.7659  0.7302 -0.3909
  318MOL0     C42829   5.548  10.736   7.643 -0.5618 -0.3464  0.0121
  318MOL0     O42830   5.638  10.834   7.601  0.2234 -0.1229 -0.4910
  318MOL0     C42831   5.731  10.884   7.699  0.2617  0.5651  0.0906
  318MOL0     C42832   5.774  11.027   7.664 -0.0561 -0.1426  0.2439
  318MOL0     C42833   5.892  11.068   7.763  0.1932  0.3465  0.1339
  318MOL0     C42834   6.020  10.998   7.744  0.4726  1.1415  0.0718
  318MOL0     C42835   6.138  11.069   7.801 -0.4379  0.0552  0.0131
  318MOL0     C42836   6.273  10.992   7.793 -0.3117  0.2462 -0.3478
  318MOL0     C42837   6.281  10.863   7.880 -0.3505  0.0244  1.0525
  318MOL0     C42838   6.412  10.847   7.961 -0.9888  0.3595 -0.5088
  318MOL0    Cl42839   6.509  10.733   7.855 -0.4445 -0.5784  0.1328
  318MOL0     C42840   5.425  10.737   7.579  0.4612 -0.6208 -0.2008
  318MOL0     C42841   5.320  10.656   7.618 -0.4529 -0.1601 -0.0287
  318MOL0     O42842   5.125  10.640   7.822  0.0719  0.0608  0.2638
  318MOL0     C42843   4.885  10.489   7.788  0.1283  0.0848 -0.7446
  318MOL0     C42844   4.769  10.404   7.788  0.1738  1.1832  0.5752
  318MOL0     N42845   4.310  10.263   7.492 -0.0079 -0.1593  0.0831
  318MOL0     N42846   4.188  10.301   7.510 -1.0561 -0.5301 -0.8922
  318MOL0     C42847   3.135  10.643   8.033  1.1281  0.2189 -0.2564
  318MOL0     C42848   3.035  10.710   8.097  0.3893  0.2211  0.6833
  318MOL0     C42849   2.683  10.777   8.398 -0.2035  0.2735 -0.2750
  318MOL0     C42850   2.617  10.857   8.306  0.2526 -0.5226  0.7860
  318MOL0     C42851   2.497  10.929   8.341 -0.7567 -0.9107 -0.4649
  318MOL0     C42852   2.449  10.929   8.478  0.4430  0.2936  1.0054
  318MOL0     O42853   2.343  11.003   8.522  0.0791 -0.3816 -0.0619
  318MOL0     C42854   2.265  11.067   8.411  0.5201 -0.5011 -0.4769
  318MOL0     C42855   2.122  11.091   8.465 -0.0720 -0.3574  0.9984
  318MOL0     C42856   2.043  10.969   8.506 -0.5204  0.8059  0.0850
  318MOL0     C42857   1.908  11.005   8.567 -0.1246  0.3993 -0.0215
  318MOL0     C42858   1.813  11.055   8.465  0.0247  0.5162 -0.0894
  318MOL0     C42859   1.741  11.096   8.376  0.0248 -0.5669  0.0956
  318MOL0     C42860   2.525  10.856   8.570 -0.2767  0.1888  0.1203
  318MOL0     C42861   2.633  10.775   8.534 -0.1879  0.1527  0.2572
  318MOL0     C42862   2.687  10.693   8.647  0.1306  0.0080 -0.1360
  318MOL0     H42863   2.901  10.443   8.248  1.8248 -1.6914  0.0511
  318MOL0     H42864   3.088  10.330   8.139  0.6597  0.9661 -0.1370
  318MOL0     H42865   3.265  10.553   7.804  0.8750  1.1412 -0.0942
  318MOL0     H42866   3.408  10.551   7.908  1.8724 -1.9879  2.3454
  318MOL0     H42867   3.309  10.306   7.737  1.3775 -1.2080  0.4296
  318MOL0     H42868   3.421  10.298   7.866 -1.9848 -0.5826  0.4859
  318MOL0     H42869   3.552  10.480   7.722 -0.9837  0.7217  1.5283
  318MOL0     H42870   3.444  10.439   7.598 -1.1124  2.2824  2.1906
  318MOL0     H42871   3.534  10.184   7.645  3.3237 -3.3306  0.2063
  318MOL0     H42872   3.627  10.304   7.557  1.4465  1.4201  1.1481
  318MOL0     H42873   3.775  10.354   7.734 -0.4428  0.4393 -1.3337
  318MOL0     H42874   3.683  10.258   7.856 -1.6609 -2.1824 -0.9155
  318MOL0     H42875   3.742  10.060   7.801  1.3161 -1.0499 -0.5052
  318MOL0     H42876   3.728  10.091   7.627  2.0041 -2.4530  0.4938
  318MOL0     H42877   3.963  10.022   7.695  0.5385 -0.0260 -2.6250
  318MOL0     H42878   3.982  10.163   7.791  0.4934  3.8672 -1.6366
  318MOL0     H42879   3.932  10.166   7.486 -0.2232 -1.1765  1.4403
  318MOL0     H42880   3.953  10.312   7.592  1.0576  0.1568  6.3399
  318MOL0     H42881   4.192   9.997   7.645  0.8147 -1.1375 -1.9476
  318MOL0     H42882   4.480  10.004   7.499 -0.4563 -1.5457  1.1956
  318MOL0     H42883   4.540  10.152   7.577  2.0327 -0.3647  2.0663
  318MOL0     H42884   4.401   9.924   7.733 -1.1652  0.8288  2.1222
  318MOL0     H42885   4.577   9.953   7.731 -0.3223 -1.9498 -1.3436
  318MOL0     H42886   4.467  10.021   7.929 -1.0040 -1.3774 -1.8061
  318MOL0     H42887   4.359  10.126   7.846  0.3670  2.6125 -3.0064
  318MOL0     H42888   4.524  10.256   7.956 -1.4612 -1.3137  0.2387
  318MOL0     H42889   4.526  10.284   7.785  1.8386 -0.3508 -0.0657
  318MOL0     H42890   4.924  10.119   7.881  0.3106  0.9203  1.6140
  318MOL0     H42891   5.136  10.258   7.869 -0.1952  0.0921  1.5844
  318MOL0     H42892   5.475  10.458   7.840  1.4454  0.2418  1.3107
  318MOL0     H42893   5.681  10.610   7.761 -0.6490 -3.5901 -2.4233
  318MOL0     H42894   5.686  10.895   7.798  1.1341  0.9179  0.4556
  318MOL0     H42895   5.818  10.818   7.696  1.9965  2.7671 -0.8406
  318MOL0     H42896   5.806  11.034   7.560  0.6872  3.1482  0.5938
  318MOL0     H42897   5.691  11.093   7.687 -1.3250 -2.1458  1.8069
  318MOL0     H42898   5.907  11.173   7.735 -0.4143  0.2033 -0.8042
  318MOL0     H42899   5.860  11.060   7.867 -0.6611  2.2130  0.0545
  318MOL0     H42900   6.031  11.002   7.635  0.1396 -3.3316 -0.2892
  318MOL0     H42901   6.024  10.890   7.757  1.7711  0.9904 -1.2329
  318MOL0     H42902   6.125  11.071   7.910 -0.9228 -4.1023  0.2061
  318MOL0     H42903   6.160  11.164   7.751  0.8535 -0.7314 -0.9650
  318MOL0     H42904   6.275  10.972   7.685 -2.1422  1.0898 -0.5749
  318MOL0     H42905   6.363  11.051   7.809  0.4571 -0.7006 -0.9973
  318MOL0     H42906   6.267  10.774   7.817  1.4730 -0.4986  1.3193
  318MOL0     H42907   6.207  10.868   7.960 -1.7183 -0.9513 -0.1016
  318MOL0     H42908   6.468  10.937   7.985  3.1801 -2.3752  1.2486
  318MOL0     H42909   6.397  10.796   8.057 -2.3509  2.0475  0.2134
  318MOL0     H42910   5.414  10.809   7.499 -2.4646 -0.7304 -0.0197
  318MOL0     H42911   5.232  10.673   7.557 -0.7667  1.0869  0.7337
  318MOL0     H42912   4.873  10.596   7.776 -1.0851 -0.1121 -1.5261
  318MOL0     H42913   4.672  10.448   7.769 -0.4914 -0.4740  0.0198
  318MOL0     H42914   3.205  10.696   7.969  1.8545  0.3889  0.6644
  318MOL0     H42915   3.012  10.817   8.096 -1.0704 -0.0722  0.1699
  318MOL0     H42916   2.653  10.861   8.204  0.0103 -1.1170  0.6724
  318MOL0     H42917   2.438  10.974   8.263 -2.1307 -1.0620  0.4404
  318MOL0     H42918   2.246  10.995   8.331 -1.7874  0.5304 -0.9449
  318MOL0     H42919   2.320  11.150   8.367  1.4632 -0.6769  0.3520
  318MOL0     H42920   2.060  11.137   8.388  2.2384  0.4043 -0.5005
  318MOL0     H42921   2.142  11.158   8.548  3.4048 -1.7100  1.4440
  318MOL0     H42922   2.099  10.907   8.576  0.8650  0.3488 -1.3738
  318MOL0     H42923   2.023  10.909   8.416  0.0259  1.6269 -0.6105
  318MOL0     H42924   1.858  10.919   8.612 -0.7694 -1.2112 -3.4425
  318MOL0     H42925   1.926  11.079   8.645  2.6852 -1.8519  1.6782
  318MOL0     H42926   1.675  11.140   8.304  0.2362  0.8457  0.7325
  318MOL0     H42927   2.500  10.853   8.675 -0.0583  1.3543  0.2255
  318MOL0     H42928   2.664  10.587   8.632 -0.1784  0.3845 -2.8596
  318MOL0     H42929   2.796  10.694   8.661  0.3555 -3.0613 -1.0491
  318MOL0     H42930   2.645  10.721   8.744  1.9664  0.7756  0.4937
  319MOL0     O42931   2.758   6.206   5.985  0.5943 -0.1748 -0.0231
  319MOL0     C42932   2.715   6.179   6.101 -0.8123  0.3361 -0.6043
  319MOL0     O42933   2.794   6.183   6.213  0.3597  0.9004  0.5071
  319MOL0     C42934   2.928   6.190   6.188 -0.3361 -0.1469  0.0839
  319MOL0     C42935   2.991   6.304   6.157  0.0539  0.2665  0.5061
  319MOL0     C42936   3.131   6.305   6.141 -0.4799 -0.6960 -0.1974
  319MOL0     C42937   3.205   6.195   6.158  0.4868 -0.5608  0.3705
  319MOL0     O42938   3.333   6.188   6.125 -0.0510  0.5036 -0.4417
  319MOL0     C42939   3.431   6.228   6.219  0.2838 -0.3594 -0.2005
  319MOL0     C42940   3.471   6.374   6.209 -0.2312 -0.2212  0.7671
  319MOL0     C42941   3.558   6.413   6.320 -0.6337  0.3093  0.3253
  319MOL0     C42942   3.585   6.565   6.316 -0.4101  0.2436 -0.9821
  319MOL0     C42943   3.713   6.606   6.407  0.1377 -0.2609 -0.2749
  319MOL0     C42944   3.686   6.572   6.560  0.0934 -0.1950  0.1974
  319MOL0     C42945   3.816   6.591   6.649  0.8873 -0.1482  0.2395
  319MOL0     C42946   3.773   6.553   6.785  0.7225 -0.5856 -0.6886
  319MOL0     N42947   3.883   6.561   6.890 -0.2500 -0.1455  0.5130
  319MOL0     C42948   3.960   6.673   6.918  0.3998  0.1471 -0.0679
  319MOL0     C42949   4.045   6.639   7.018 -0.3346 -0.0340  0.9255
  319MOL0     C42950   4.142   6.723   7.092  0.7347 -0.0565 -0.6656
  319MOL0     C42951   4.277   6.711   7.041 -0.0038 -0.5950  0.1131
  319MOL0     C42952   4.384   6.764   7.141  0.6468  0.8966 -0.6044
  319MOL0     C42953   4.512   6.775   7.091  0.0594 -0.5264 -0.3005
  319MOL0     O42954   4.599   6.831   7.196 -0.1715 -0.5201  0.2497
  319MOL0     C42955   4.726   6.866   7.157 -0.8552  0.4359 -0.3408
  319MOL0     C42956   4.779   6.884   7.023 -0.6491  0.4604  0.5294
  319MOL0     C42957   4.907   6.936   7.000  0.2518 -0.3495 -0.3544
  319MOL0     C42958   4.983   6.960   7.116  0.1737  0.2847 -0.5075
  319MOL0     C42959   5.124   7.011   7.105 -0.7860  0.1544 -0.6435
  319MOL0     O42960   5.198   6.985   7.221  0.9120  0.3651 -0.5522
  319MOL0     C42961   5.332   7.001   7.219 -0.1261 -0.3784 -0.4018
  319MOL0     C42962   5.388   7.104   7.282 -0.1765  0.3040 -0.5262
  319MOL0     C42963   5.525   7.138   7.259 -0.6832  0.4685  0.1400
  319MOL0     C42964   5.610   7.062   7.167  0.0881  0.2419 -0.7849
  319MOL0     O42965   5.741   7.097   7.145  0.5562  0.1563  1.0722
  319MOL0     C42966   5.824   7.167   7.236 -0.1873 -0.6501  0.2776
  319MOL0     C42967   5.838   7.325   7.203  0.3406  0.1145  0.2284
  319MOL0     C42968   5.954   7.335   7.110 -0.0754  0.3602  0.5025
  319MOL0     C42969   5.924   7.298   6.968 -0.3450  0.0064 -1.1484
  319MOL0     C42970   6.025   7.208   6.903  0.5274 -0.8933  0.0547
  319MOL0     C42971   6.164   7.273   6.896 -0.3833 -0.1742  0.5253
  319MOL0     C42972   6.242   7.207   6.796 -0.9654  0.1502 -0.0332
  319MOL0     C42973   6.384   7.251   6.801 -0.0648  0.2031 -0.3990
  319MOL0    Cl42974   6.417   7.429   6.803 -0.1367 -0.1021 -0.0003
  319MOL0     C42975   5.549   6.952   7.107  0.5175 -0.7367  0.0668
  319MOL0     C42976   5.413   6.918   7.131  0.6768  0.1562 -0.0440
  319MOL0     O42977   5.169   7.053   6.995  0.2923 -0.2666 -0.2881
  319MOL0     C42978   4.928   6.941   7.243 -0.4139  0.1653  0.7447
  319MOL0     C42979   4.802   6.908   7.265  0.3830  0.1820 -0.4020
  319MOL0     N42980   4.034   6.501   7.029  0.4744 -0.7207 -0.3351
  319MOL0     N42981   3.927   6.460   6.962  0.1811  0.4935  0.7814
  319MOL0     C42982   3.138   6.077   6.181  0.1866  1.0950 -0.1003
  319MOL0     C42983   3.006   6.075   6.201  0.1502  0.5357  0.9545
  319MOL0     C42984   2.571   6.168   6.122  0.7135  0.4459 -0.6468
  319MOL0     C42985   2.515   6.236   6.234  0.3862 -0.6686 -0.2737
  319MOL0     C42986   2.378   6.213   6.262  0.4003  0.2247 -0.5068
  319MOL0     C42987   2.295   6.128   6.189  0.0494  0.3240  0.4556
  319MOL0     O42988   2.161   6.108   6.212 -0.9131 -0.0820  0.4877
  319MOL0     C42989   2.090   6.184   6.305 -0.1670 -0.3836 -0.3806
  319MOL0     C42990   1.952   6.121   6.310 -0.7090 -0.2783 -0.2816
  319MOL0     C42991   1.856   6.221   6.371  0.3282 -0.5771 -0.8106
  319MOL0     C42992   1.725   6.157   6.427  0.7684 -0.2248  1.3333
  319MOL0     C42993   1.634   6.246   6.506  0.6954 -0.7345  0.5244
  319MOL0     C42994   1.572   6.314   6.579 -0.0297  0.2468  0.0971
  319MOL0     C42995   2.354   6.065   6.077  0.8521  0.0961 -0.9092
  319MOL0     C42996   2.486   6.085   6.040 -0.3654  0.4129 -0.2363
  319MOL0     C42997   2.525   5.992   5.930 -0.9635  0.3868 -0.9193
  319MOL0     H42998   2.938   6.399   6.150  2.5840  1.6849 -1.0697
  319MOL0     H42999   3.178   6.400   6.115  0.2215 -1.3364 -1.3762
  319MOL0     H43000   3.396   6.189   6.315 -0.8821 -2.4947 -1.4097
  319MOL0     H43001   3.529   6.181   6.204  0.6260 -0.3158  1.7130
  319MOL0     H43002   3.376   6.428   6.216 -0.0251  0.1988  0.3568
  319MOL0     H43003   3.524   6.391   6.115 -1.6031  0.4445  0.0821
  319MOL0     H43004   3.655   6.362   6.310 -0.7865  0.1320 -0.3312
  319MOL0     H43005   3.512   6.384   6.415  0.1812  1.7782  1.2098
  319MOL0     H43006   3.630   6.598   6.222  2.6120  0.9532  0.5713
  319MOL0     H43007   3.489   6.614   6.331 -2.1632 -2.5570 -2.2124
  319MOL0     H43008   3.806   6.560   6.371 -0.6917 -2.0437 -0.2442
  319MOL0     H43009   3.727   6.714   6.392  0.7750  0.0622  2.1738
  319MOL0     H43010   3.612   6.645   6.594  1.4097  1.3524 -0.1235
  319MOL0     H43011   3.637   6.474   6.563 -1.0541  0.3562 -0.0556
  319MOL0     H43012   3.843   6.695   6.634 -0.9285  0.5736  1.5898
  319MOL0     H43013   3.889   6.517   6.615  0.8942 -0.5358  1.0776
  319MOL0     H43014   3.708   6.631   6.825  2.9228  0.0264  2.0742
  319MOL0     H43015   3.722   6.456   6.786  1.2229 -0.9437 -3.2934
  319MOL0     H43016   3.945   6.769   6.869  1.5354 -0.8117 -2.4932
  319MOL0     H43017   4.109   6.827   7.088  0.1522 -0.2372 -0.6932
  319MOL0     H43018   4.152   6.684   7.194 -0.7676 -2.6704 -1.4078
  319MOL0     H43019   4.292   6.604   7.030  4.0466 -0.3369  1.3912
  319MOL0     H43020   4.287   6.766   6.947 -1.6273  0.5361  0.5533
  319MOL0     H43021   4.390   6.701   7.230 -2.1154 -0.1831 -1.1010
  319MOL0     H43022   4.359   6.865   7.177 -2.0734  0.3252 -0.6923
  319MOL0     H43023   4.509   6.837   7.001  0.3167 -0.6884 -0.4225
  319MOL0     H43024   4.551   6.679   7.054 -2.0044 -0.8963 -1.7294
  319MOL0     H43025   4.718   6.856   6.938 -2.0242  2.9314  0.6025
  319MOL0     H43026   4.950   6.954   6.902 -0.7437  1.5070 -0.4926
  319MOL0     H43027   5.326   7.172   7.339 -1.1100 -0.6470 -0.3763
  319MOL0     H43028   5.563   7.225   7.312  0.7327 -1.5272  2.6425
  319MOL0     H43029   5.794   7.155   7.340 -1.9169  0.5825 -0.0355
  319MOL0     H43030   5.925   7.126   7.244 -0.0146 -0.0741  1.2236
  319MOL0     H43031   5.750   7.379   7.165  1.5107  1.5912 -0.4835
  319MOL0     H43032   5.860   7.371   7.299 -2.7431 -0.0439  1.1317
  319MOL0     H43033   6.004   7.432   7.109 -0.4127  0.5317 -0.1246
  319MOL0     H43034   6.028   7.261   7.141 -0.4262 -1.2925 -2.2596
  319MOL0     H43035   5.925   7.389   6.906 -0.6502  0.1888 -0.8883
  319MOL0     H43036   5.825   7.252   6.962 -1.5176  2.2974 -0.4422
  319MOL0     H43037   5.996   7.178   6.802  0.2355 -0.8121  0.1129
  319MOL0     H43038   6.040   7.116   6.960 -1.5114 -0.0660  2.0783
  319MOL0     H43039   6.155   7.380   6.873  0.9781 -0.2964 -0.7309
  319MOL0     H43040   6.217   7.278   6.992  2.0862 -0.4917 -0.7422
  319MOL0     H43041   6.198   7.224   6.698 -0.1937  1.2390 -0.2065
  319MOL0     H43042   6.233   7.101   6.823 -1.9775 -0.5915 -2.8983
  319MOL0     H43043   6.434   7.206   6.888 -0.9249  2.8618  1.5823
  319MOL0     H43044   6.439   7.203   6.719  0.9450 -0.7687  0.7933
  319MOL0     H43045   5.613   6.893   7.042 -1.6734 -0.7143 -2.2942
  319MOL0     H43046   5.362   6.845   7.069  0.4504  1.5327 -1.5251
  319MOL0     H43047   4.985   6.983   7.325  2.5174 -1.8205 -0.1135
  319MOL0     H43048   4.749   6.910   7.360  0.8253  0.0792 -0.1450
  319MOL0     H43049   3.196   5.985   6.184  0.7761  1.4670  0.0952
  319MOL0     H43050   2.959   5.978   6.216 -1.0801  0.6993 -1.4109
  319MOL0     H43051   2.572   6.300   6.301 -1.0910  0.3739  0.0227
  319MOL0     H43052   2.342   6.278   6.342 -2.7540 -0.9003 -0.8410
  319MOL0     H43053   2.080   6.282   6.258  2.7569 -0.9903 -2.5353
  319MOL0     H43054   2.147   6.190   6.398  0.9072  2.2756 -1.1209
  319MOL0     H43055   1.944   6.035   6.377  0.3475  2.2896  3.4783
  319MOL0     H43056   1.917   6.107   6.207 -2.6758 -0.9491  0.4340
  319MOL0     H43057   1.834   6.297   6.295  0.6381  0.0367 -0.2912
  319MOL0     H43058   1.904   6.260   6.461  1.7850 -2.8665 -0.5239
  319MOL0     H43059   1.667   6.123   6.341  1.4138  1.4654  0.1874
  319MOL0     H43060   1.749   6.065   6.482  0.5205 -1.4015 -0.4434
  319MOL0     H43061   1.518   6.374   6.648  0.9278  2.1364 -0.7296
  319MOL0     H43062   2.297   6.007   6.005  1.9779  1.4529 -3.0194
  319MOL0     H43063   2.455   6.013   5.848 -0.4374  0.7377 -1.2823
  319MOL0     H43064   2.628   6.011   5.900 -0.6806 -1.2028 -1.0411
  319MOL0     H43065   2.522   5.888   5.964 -0.4685  1.6070  3.5352
  320MOL0     O43066   1.537   5.280   5.034 -0.1045 -0.4558  0.0180
  320MOL0     C43067   1.431   5.311   5.091  0.6288  0.1000  0.1974
  320MOL0     O43068   1.417   5.341   5.219 -0.0875  0.2532 -0.0015
  320MOL0     C43069   1.531   5.328   5.293 -0.6109  0.0391  0.7565
  320MOL0     C43070   1.531   5.233   5.394  0.2603 -0.1601  0.0752
  320MOL0     C43071   1.648   5.209   5.468 -0.8804 -0.1964 -0.3095
  320MOL0     C43072   1.764   5.283   5.438 -0.4065 -0.2789  0.6304
  320MOL0     O43073   1.885   5.267   5.495 -0.2706  0.0094 -0.7688
  320MOL0     C43074   1.889   5.188   5.615  0.3381 -0.4080 -0.6574
  320MOL0     C43075   1.898   5.041   5.591 -0.4410 -0.1886  0.2403
  320MOL0     C43076   2.030   4.977   5.644  0.4376 -0.3103 -0.5217
  320MOL0     C43077   2.046   4.832   5.592  0.3053 -1.1903 -0.0866
  320MOL0     C43078   2.151   4.742   5.650  0.3119 -0.4758 -0.0649
  320MOL0     C43079   2.103   4.677   5.772  0.8081 -0.3890  0.5809
  320MOL0     C43080   2.218   4.597   5.843 -0.0575 -0.0985 -0.5274
  320MOL0     C43081   2.247   4.637   5.990  0.7120 -0.4380  0.2494
  320MOL0     N43082   2.363   4.565   6.026  0.6707  0.0757 -0.4904
  320MOL0     C43083   2.489   4.604   6.001 -0.6836  0.5204 -0.3664
  320MOL0     C43084   2.568   4.512   6.068  0.0366  0.0334  0.1914
  320MOL0     C43085   2.722   4.514   6.084  0.0645 -0.2307 -0.2881
  320MOL0     C43086   2.795   4.391   6.008  0.9332 -0.3471 -0.3886
  320MOL0     C43087   2.768   4.396   5.862  0.1244 -0.6224  0.4397
  320MOL0     C43088   2.772   4.254   5.803 -0.2413  0.0164  0.2038
  320MOL0     O43089   2.915   4.211   5.801 -0.3357  0.2028  0.5877
  320MOL0     C43090   2.949   4.082   5.837 -0.0756 -0.0420 -0.8702
  320MOL0     C43091   3.046   4.031   5.746  0.0242  0.1310 -0.1519
  320MOL0     C43092   3.084   3.894   5.760  0.6656 -0.4508 -0.4600
  320MOL0     C43093   3.041   3.812   5.861 -0.1209  0.6609  0.3529
  320MOL0     C43094   3.095   3.679   5.886 -0.5176  0.3770  0.3023
  320MOL0     O43095   3.053   3.614   5.994  0.0156 -0.1559 -0.4080
  320MOL0     C43096   3.079   3.476   6.013 -0.2247 -0.9589 -0.3764
  320MOL0     C43097   3.076   3.425   6.141 -0.1769 -0.9993  1.2185
  320MOL0     C43098   3.072   3.292   6.171 -0.5946 -0.2719  0.1765
  320MOL0     C43099   3.078   3.201   6.062  0.2622  0.6671 -0.9240
  320MOL0     O43100   3.085   3.063   6.066  0.2821  0.5210 -1.1112
  320MOL0     C43101   3.087   2.981   6.193  0.4082  0.2636  0.3537
  320MOL0     C43102   3.234   2.997   6.250 -0.8341  0.1348 -1.0732
  320MOL0     C43103   3.241   2.931   6.387 -0.5041  0.8695 -0.4189
  320MOL0     C43104   3.382   2.935   6.453  0.4749 -0.1256 -0.1387
  320MOL0     C43105   3.375   2.911   6.608  0.0247  0.2470 -0.6158
  320MOL0     C43106   3.509   2.885   6.688 -0.5626  0.3165 -1.0273
  320MOL0     C43107   3.572   2.760   6.624  0.5088  0.8048 -0.1991
  320MOL0     C43108   3.718   2.734   6.667 -0.0845 -0.4590 -0.5778
  320MOL0    Cl43109   3.826   2.867   6.614  0.4850 -0.3847 -0.2515
  320MOL0     C43110   3.077   3.246   5.927 -0.3710  0.4724 -0.0817
  320MOL0     C43111   3.081   3.385   5.903 -1.0284 -0.1730  0.4382
  320MOL0     O43112   3.189   3.640   5.812  0.3524  0.3564 -0.7568
  320MOL0     C43113   2.946   3.867   5.953 -0.0738 -1.2922  0.6295
  320MOL0     C43114   2.896   3.997   5.934  0.0372 -0.7150  0.0964
  320MOL0     N43115   2.487   4.409   6.111 -0.0166  0.8011 -0.3669
  320MOL0     N43116   2.365   4.441   6.084 -0.0253 -0.2825  0.3302
  320MOL0     C43117   1.762   5.380   5.341  0.2217  0.4167  0.4167
  320MOL0     C43118   1.641   5.408   5.269 -0.0041  0.2885 -0.5616
  320MOL0     C43119   1.313   5.321   5.005 -0.7799  0.7896  0.7882
  320MOL0     C43120   1.192   5.347   5.074  0.4442  0.2179 -1.2491
  320MOL0     C43121   1.068   5.349   5.018  0.8680  0.3258  0.5107
  320MOL0     C43122   1.059   5.331   4.875 -0.3468  0.0870  0.0322
  320MOL0     O43123   0.945   5.326   4.810 -0.0385 -0.1835  0.5695
  320MOL0     C43124   0.816   5.367   4.859 -0.0649  0.3448  0.5045
  320MOL0     C43125   0.800   5.514   4.858  0.5673 -0.0180 -0.5271
  320MOL0     C43126   0.772   5.570   4.720  0.9660 -0.0630 -0.2336
  320MOL0     C43127   0.631   5.534   4.672 -1.1739  0.5566  0.6747
  320MOL0     C43128   0.510   5.591   4.742 -0.1605  0.7649  0.6023
  320MOL0     C43129   0.410   5.640   4.789  0.1898 -0.1979 -0.8681
  320MOL0     C43130   1.181   5.310   4.797  0.6723 -0.1816  0.7376
  320MOL0     C43131   1.305   5.306   4.863  0.3167 -0.0272 -0.2211
  320MOL0     C43132   1.417   5.274   4.773 -0.2020  0.6490 -0.2710
  320MOL0     H43133   1.442   5.184   5.432  0.7051  2.6377  5.5724
  320MOL0     H43134   1.647   5.149   5.559  2.5663 -2.1076 -1.3460
  320MOL0     H43135   1.981   5.222   5.664  0.6099 -2.0090 -0.0120
  320MOL0     H43136   1.806   5.206   5.685 -0.4739  1.2515 -1.9642
  320MOL0     H43137   1.911   5.020   5.484  5.3317  0.7310  0.4293
  320MOL0     H43138   1.808   4.997   5.635 -0.1956 -2.7013 -1.5138
  320MOL0     H43139   2.023   4.983   5.753  1.0613  2.4307 -0.5614
  320MOL0     H43140   2.119   5.031   5.612 -0.6053  2.6189  1.1227
  320MOL0     H43141   1.947   4.793   5.617 -1.1263  3.2771  2.3501
  320MOL0     H43142   2.063   4.843   5.485 -0.1082 -0.7651 -0.1093
  320MOL0     H43143   2.163   4.652   5.590  0.6924 -0.9882  0.7615
  320MOL0     H43144   2.252   4.783   5.663  0.5531 -0.9381 -0.4816
  320MOL0     H43145   2.051   4.744   5.840  0.0576 -0.5536  0.1812
  320MOL0     H43146   2.033   4.597   5.745 -0.4793  0.9421 -0.1274
  320MOL0     H43147   2.313   4.609   5.790 -0.1904  0.1485 -0.7110
  320MOL0     H43148   2.190   4.492   5.853  0.2818 -0.2357 -0.9738
  320MOL0     H43149   2.262   4.745   5.998 -1.3628 -0.1453  0.6125
  320MOL0     H43150   2.162   4.620   6.056  0.5298  1.3183  0.4962
  320MOL0     H43151   2.543   4.692   5.968 -1.7778  1.2335 -0.3003
  320MOL0     H43152   2.771   4.605   6.048  3.7790 -2.0203 -0.1895
  320MOL0     H43153   2.759   4.514   6.186  0.4368 -2.9934 -0.3384
  320MOL0     H43154   2.903   4.401   6.021  0.8841  2.1027 -1.3435
  320MOL0     H43155   2.752   4.302   6.055 -1.5550 -0.1859 -2.1065
  320MOL0     H43156   2.837   4.459   5.806  0.8123 -0.2427  1.6786
  320MOL0     H43157   2.671   4.440   5.838  1.6308  4.2046  2.0365
  320MOL0     H43158   2.734   4.248   5.701  0.6217 -0.2364 -0.1136
  320MOL0     H43159   2.699   4.184   5.845 -0.6583 -0.0528 -0.6089
  320MOL0     H43160   3.075   4.087   5.658  1.2069  1.3831  0.9972
  320MOL0     H43161   3.162   3.862   5.691  1.4339 -0.3449  0.3333
  320MOL0     H43162   3.066   3.506   6.213  0.3745  2.7998 -2.5883
  320MOL0     H43163   3.067   3.266   6.276  3.5830 -0.0942  0.5765
  320MOL0     H43164   3.001   3.005   6.256 -0.1837  0.0869 -0.3762
  320MOL0     H43165   3.073   2.876   6.169 -0.0785  0.6950 -1.4068
  320MOL0     H43166   3.301   2.944   6.181 -0.7554  1.1690 -1.8214
  320MOL0     H43167   3.263   3.101   6.260 -3.4337  1.0162 -1.9119
  320MOL0     H43168   3.176   2.986   6.457  3.1721  4.6263  0.4288
  320MOL0     H43169   3.214   2.828   6.362 -0.7845  0.1546  2.4210
  320MOL0     H43170   3.429   3.031   6.434 -0.2769  0.0363 -1.3070
  320MOL0     H43171   3.438   2.857   6.400 -2.5585 -1.0104 -2.3040
  320MOL0     H43172   3.312   2.822   6.621 -2.3258  2.1394  2.0592
  320MOL0     H43173   3.311   2.987   6.653 -0.1936  1.8166 -3.3735
  320MOL0     H43174   3.574   2.972   6.678  0.0333  0.3740  2.1500
  320MOL0     H43175   3.482   2.877   6.794 -1.2456  4.2679 -0.7579
  320MOL0     H43176   3.571   2.754   6.515  2.7895  2.6456 -0.4042
  320MOL0     H43177   3.513   2.674   6.658  2.7283 -1.1582 -0.9994
  320MOL0     H43178   3.725   2.721   6.775 -1.0950  0.9051 -0.3101
  320MOL0     H43179   3.742   2.640   6.617  2.0085 -0.3359  0.0776
  320MOL0     H43180   3.053   3.166   5.858  2.1105 -1.8833  1.5621
  320MOL0     H43181   3.080   3.432   5.805  0.7776 -0.4843  0.2419
  320MOL0     H43182   2.909   3.799   6.029  1.7327 -2.2033  0.7382
  320MOL0     H43183   2.812   4.032   5.994  1.0465  0.3296  0.9557
  320MOL0     H43184   1.849   5.438   5.312  0.0519 -0.3471 -1.8785
  320MOL0     H43185   1.650   5.481   5.189  0.6915 -0.1899 -0.9227
  320MOL0     H43186   1.184   5.351   5.182 -2.1571 -1.4471 -1.3091
  320MOL0     H43187   0.979   5.353   5.079  0.0838 -1.9052 -0.4036
  320MOL0     H43188   0.811   5.334   4.963 -1.0478  2.1221  1.0513
  320MOL0     H43189   0.735   5.315   4.806 -0.7844  2.0916 -0.2034
  320MOL0     H43190   0.891   5.559   4.898 -0.7300  2.4084 -0.1318
  320MOL0     H43191   0.714   5.540   4.921 -1.7828 -1.5467 -2.9121
  320MOL0     H43192   0.851   5.547   4.648  0.6041 -2.7315  0.1294
  320MOL0     H43193   0.791   5.677   4.725  0.1172  0.0539  0.8116
  320MOL0     H43194   0.619   5.564   4.568 -2.2765 -0.9764  0.3169
  320MOL0     H43195   0.615   5.426   4.677  1.5354  0.0775  0.5889
  320MOL0     H43196   0.328   5.687   4.840  0.2252  2.8052 -3.3287
  320MOL0     H43197   1.176   5.298   4.689 -2.7455 -2.1278  0.9484
  320MOL0     H43198   1.440   5.167   4.770  1.3234  0.9198  0.6546
  320MOL0     H43199   1.394   5.305   4.671  1.6079  0.3401 -0.8071
  320MOL0     H43200   1.500   5.340   4.799 -0.0853  1.2740 -2.1012
  321MOL0     O43201  11.118   5.836   1.116 -0.2512  0.4622  1.1567
  321MOL0     C43202  11.032   5.902   1.163  0.1434 -0.3533  0.3330
  321MOL0     O43203  11.050   6.018   1.225 -0.3534  1.1388 -0.2039
  321MOL0     C43204  11.182   6.056   1.254  0.9935  0.0227  1.0259
  321MOL0     C43205  11.250   6.156   1.183  0.4363  0.3480  0.2880
  321MOL0     C43206  11.374   6.202   1.229  0.3338 -0.8279  0.0128
  321MOL0     C43207  11.439   6.130   1.322  0.7262  0.2747 -0.5141
  321MOL0     O43208  11.569   6.159   1.347  0.1296  0.6640 -0.2623
  321MOL0     C43209  11.615   6.166   1.485 -0.0157 -0.2323  0.4176
  321MOL0     C43210  11.760   6.138   1.491 -0.0910  0.0547 -0.0760
  321MOL0     C43211  11.827   6.129   1.626 -1.3344  0.6247  0.5692
  321MOL0     C43212  11.854   6.266   1.687  0.2310 -0.0473 -0.2549
  321MOL0     C43213  11.982   6.341   1.637  0.3606  0.0309 -0.8162
  321MOL0     C43214  12.009   6.474   1.709  0.2504  0.1248  0.4781
  321MOL0     C43215  12.147   6.527   1.642  0.2360 -0.4405 -0.6344
  321MOL0     C43216  12.254   6.559   1.745  0.8269  0.2866 -0.2628
  321MOL0     N43217  12.296   6.429   1.810  0.1301 -0.2988 -0.3586
  321MOL0     C43218  12.270   6.397   1.947  0.1144 -0.5035 -0.2988
  321MOL0     C43219  12.306   6.265   1.951 -0.0401 -0.6504  0.1848
  321MOL0     C43220  12.281   6.168   2.060  0.9030  0.2931  0.1820
  321MOL0     C43221  12.130   6.123   2.066 -0.6933 -0.8424  0.2237
  321MOL0     C43222  12.043   6.220   2.148 -0.2790 -1.3436 -0.1655
  321MOL0     C43223  11.949   6.161   2.261  0.8543 -0.2568  0.9313
  321MOL0     O43224  11.984   6.226   2.388  0.9289  0.6800  0.4154
  321MOL0     C43225  11.916   6.174   2.497  0.1055  0.4842  0.3514
  321MOL0     C43226  11.811   6.086   2.495  0.1377  0.4772  1.0411
  321MOL0     C43227  11.741   6.060   2.612  0.4204 -0.2362  0.9037
  321MOL0     C43228  11.786   6.106   2.738 -0.2856  0.3461  1.1446
  321MOL0     C43229  11.725   6.056   2.867  0.2169  0.4949  0.6474
  321MOL0     O43230  11.775   6.106   2.992 -0.1933 -0.3246 -0.1490
  321MOL0     C43231  11.712   6.088   3.108 -0.8574  0.1099  0.1680
  321MOL0     C43232  11.579   6.123   3.137 -0.0841  0.1335 -1.1306
  321MOL0     C43233  11.520   6.095   3.256 -0.1140  0.0289 -0.4421
  321MOL0     C43234  11.594   6.043   3.360 -0.1710  0.5170  0.1459
  321MOL0     O43235  11.560   6.011   3.489  0.7347  0.2820 -0.2599
  321MOL0     C43236  11.430   6.044   3.534 -0.4121  0.0148 -0.1394
  321MOL0     C43237  11.427   6.192   3.570  0.9508  0.2038 -0.1028
  321MOL0     C43238  11.537   6.213   3.684  0.9605  0.5065 -0.6243
  321MOL0     C43239  11.522   6.365   3.718 -0.6914 -0.0895  0.4040
  321MOL0     C43240  11.588   6.425   3.854  0.4307 -0.3981 -0.4204
  321MOL0     C43241  11.527   6.566   3.894  0.2061 -0.8132 -0.2127
  321MOL0     C43242  11.520   6.675   3.782 -0.4223 -0.3214  0.3327
  321MOL0     C43243  11.665   6.712   3.741 -0.1076  0.5822 -0.5212
  321MOL0    Cl43244  11.770   6.779   3.881  0.1594 -0.4632 -0.0454
  321MOL0     C43245  11.727   6.013   3.336 -0.9228  0.8681  0.0631
  321MOL0     C43246  11.786   6.046   3.217 -0.7281  0.0067  0.3261
  321MOL0     O43247  11.634   5.976   2.860  0.8122 -0.3427  0.3380
  321MOL0     C43248  11.888   6.196   2.733 -0.3169 -0.5532  0.1348
  321MOL0     C43249  11.952   6.230   2.620 -0.0088 -0.3908  0.5466
  321MOL0     N43250  12.369   6.232   1.827 -0.2358  0.3646  0.2226
  321MOL0     N43251  12.362   6.331   1.745  0.7862  0.0690 -0.8681
  321MOL0     C43252  11.377   6.019   1.383  0.3392  0.3856 -0.1607
  321MOL0     C43253  11.243   5.990   1.357  1.4840  0.1486 -0.2988
  321MOL0     C43254  10.888   5.858   1.148 -0.0666 -0.4333  0.0017
  321MOL0     C43255  10.790   5.886   1.248 -0.8187 -0.3799 -0.1936
  321MOL0     C43256  10.651   5.862   1.231 -0.1609 -0.5422  0.1174
  321MOL0     C43257  10.607   5.798   1.115  0.0468 -0.0321  0.0328
  321MOL0     O43258  10.474   5.781   1.088  0.1715  0.0572  0.1918
  321MOL0     C43259  10.383   5.731   1.186  0.0740 -0.0126 -0.6508
  321MOL0     C43260  10.377   5.583   1.210  0.2847  0.2876  0.5260
  321MOL0     C43261  10.252   5.506   1.258  0.4320  0.1351 -0.0130
  321MOL0     C43262  10.116   5.545   1.189  0.1824  0.2027 -0.1204
  321MOL0     C43263  10.111   5.493   1.052 -0.0169 -1.3645 -0.5060
  321MOL0     C43264  10.125   5.429   0.953  0.0131  0.2619  0.8219
  321MOL0     C43265  10.701   5.758   1.023 -0.6425  0.7821  0.1531
  321MOL0     C43266  10.837   5.789   1.038 -1.3573  0.7666 -0.3186
  321MOL0     C43267  10.924   5.737   0.922  0.4729 -0.5424  0.4773
  321MOL0     H43268  11.215   6.208   1.094  0.6933  1.3996  0.7824
  321MOL0     H43269  11.415   6.294   1.189 -0.5787 -0.6673 -0.5872
  321MOL0     H43270  11.602   6.267   1.525  1.2068  1.5886 -3.3301
  321MOL0     H43271  11.561   6.095   1.549  0.9464  0.2711  1.8188
  321MOL0     H43272  11.811   6.210   1.426 -0.5227  0.6939  0.2796
  321MOL0     H43273  11.780   6.041   1.444  0.8873  1.4344 -2.6998
  321MOL0     H43274  11.921   6.073   1.624 -1.3405  0.6148 -0.7333
  321MOL0     H43275  11.762   6.063   1.684  0.0081 -0.9908  0.3215
  321MOL0     H43276  11.771   6.333   1.664  1.2180  0.9421 -1.0738
  321MOL0     H43277  11.858   6.253   1.796  0.6566  0.0529 -0.2553
  321MOL0     H43278  12.070   6.277   1.649  1.6148  1.5816 -1.4149
  321MOL0     H43279  11.972   6.367   1.531  2.5468  1.3628 -0.7631
  321MOL0     H43280  11.924   6.543   1.699 -0.7371 -1.3152 -2.0953
  321MOL0     H43281  12.017   6.463   1.817 -0.2445  1.1281  0.6323
  321MOL0     H43282  12.128   6.620   1.588 -0.4225  0.2185  0.6669
  321MOL0     H43283  12.201   6.454   1.582  0.3264 -0.7891 -0.1338
  321MOL0     H43284  12.341   6.598   1.692  0.4510  0.3090 -0.8701
  321MOL0     H43285  12.237   6.644   1.812 -0.1667 -0.3688  0.3458
  321MOL0     H43286  12.219   6.455   2.024  2.2562 -0.4439  1.1438
  321MOL0     H43287  12.343   6.079   2.046  1.4394  0.6399  0.3313
  321MOL0     H43288  12.316   6.216   2.152  0.5010  1.1112 -0.0801
  321MOL0     H43289  12.088   6.097   1.968  1.1493  0.0124 -0.8356
  321MOL0     H43290  12.140   6.031   2.124  0.9966 -1.0431 -0.3364
  321MOL0     H43291  11.996   6.287   2.075  1.7912  0.8186  0.3441
  321MOL0     H43292  12.111   6.291   2.196  1.0946 -1.4138 -1.9355
  321MOL0     H43293  11.952   6.052   2.271 -0.6165 -0.3495  0.5677
  321MOL0     H43294  11.848   6.181   2.224  1.0945  0.9212  0.8744
  321MOL0     H43295  11.786   6.034   2.404  3.5251 -0.7603  0.6461
  321MOL0     H43296  11.651   6.000   2.603  0.6972 -0.4514 -0.8561
  321MOL0     H43297  11.517   6.166   3.059 -2.7800  1.5111  1.5708
  321MOL0     H43298  11.416   6.123   3.272  0.9771  2.3701  4.2815
  321MOL0     H43299  11.356   6.025   3.455  1.7981 -0.5988 -2.1815
  321MOL0     H43300  11.403   5.978   3.617 -0.4521 -0.7036 -0.7082
  321MOL0     H43301  11.451   6.259   3.487 -1.0435  0.9615 -0.1093
  321MOL0     H43302  11.330   6.231   3.602  1.1205  0.2008  0.4388
  321MOL0     H43303  11.530   6.157   3.777  2.5855  0.2211 -0.6377
  321MOL0     H43304  11.634   6.186   3.641  1.1782  2.5722 -1.5863
  321MOL0     H43305  11.415   6.385   3.723 -1.0399 -1.9187  1.1358
  321MOL0     H43306  11.554   6.425   3.633  0.0925  1.3326  1.6540
  321MOL0     H43307  11.696   6.437   3.839  0.5415 -0.4504  0.2929
  321MOL0     H43308  11.582   6.357   3.940  1.6205  2.5257  2.1842
  321MOL0     H43309  11.424   6.556   3.929 -0.3115 -0.5787 -1.6116
  321MOL0     H43310  11.587   6.602   3.978  2.0720 -1.8603 -1.0283
  321MOL0     H43311  11.467   6.766   3.808  0.1650  0.8204 -2.2347
  321MOL0     H43312  11.463   6.633   3.698 -2.0777  1.3380  0.5811
  321MOL0     H43313  11.707   6.624   3.691  0.0834  2.5799 -4.2760
  321MOL0     H43314  11.663   6.790   3.664 -0.6530  4.0963  2.7518
  321MOL0     H43315  11.801   5.972   3.404 -2.3010  0.5248  1.4163
  321MOL0     H43316  11.892   6.038   3.197 -0.1811  3.8496  0.8784
  321MOL0     H43317  11.918   6.255   2.819  0.6298  0.5036 -0.8834
  321MOL0     H43318  12.030   6.305   2.627  1.3052 -1.8812  3.0790
  321MOL0     H43319  11.435   5.967   1.458 -0.4887  1.0752  0.9976
  321MOL0     H43320  11.178   5.922   1.412 -1.3564  1.9264 -1.2473
  321MOL0     H43321  10.809   5.921   1.349 -3.6054 -1.2406  0.7159
  321MOL0     H43322  10.573   5.890   1.301  1.4495 -0.6154  2.0366
  321MOL0     H43323  10.288   5.764   1.143  0.5341 -0.8890 -2.4515
  321MOL0     H43324  10.397   5.778   1.284  2.8901 -2.2771  0.1572
  321MOL0     H43325  10.451   5.565   1.289  0.0139 -0.2146  0.6693
  321MOL0     H43326  10.416   5.528   1.124  0.9724  1.4419  0.0820
  321MOL0     H43327  10.238   5.537   1.362 -1.4396  3.3716 -1.0758
  321MOL0     H43328  10.273   5.399   1.261  0.7143  0.2023  0.4809
  321MOL0     H43329  10.039   5.489   1.243  2.6412 -1.0567  2.3330
  321MOL0     H43330  10.103   5.654   1.197 -0.8469  0.0952 -0.2286
  321MOL0     H43331  10.139   5.370   0.865  1.4768  1.3404  0.3003
  321MOL0     H43332  10.667   5.696   0.940 -2.1104  0.9957  0.5527
  321MOL0     H43333  11.000   5.668   0.961  0.7056 -0.4473  0.1972
  321MOL0     H43334  10.861   5.689   0.847 -0.0572 -0.2637  0.7400
  321MOL0     H43335  10.971   5.822   0.870 -1.9694  0.1811 -0.6626
  322MOL0     O43336   0.667   0.615   5.785 -0.4246 -0.0596  0.3820
  322MOL0     C43337   0.550   0.628   5.824 -0.4187  0.1945  0.0061
  322MOL0     O43338   0.522   0.692   5.940 -0.0997 -0.2658  0.2590
  322MOL0     C43339   0.613   0.786   5.991 -0.1312  0.2895 -0.0848
  322MOL0     C43340   0.614   0.804   6.129  0.5626  0.4416  0.2748
  322MOL0     C43341   0.704   0.880   6.202 -0.8431 -0.0898  0.6047
  322MOL0     C43342   0.800   0.951   6.140  0.4054  0.6419  0.7530
  322MOL0     O43343   0.912   1.021   6.191  0.4362  0.0659 -0.1813
  322MOL0     C43344   0.889   1.071   6.324  0.3157 -0.1545  0.5192
  322MOL0     C43345   1.014   1.157   6.370  0.6429 -0.4111  0.4953
  322MOL0     C43346   1.140   1.080   6.360  0.7717  0.1229  0.0437
  322MOL0     C43347   1.272   1.152   6.403  0.1047  0.2282  0.2604
  322MOL0     C43348   1.399   1.084   6.340 -0.0422 -0.1461 -0.9666
  322MOL0     C43349   1.530   1.150   6.398 -1.0433  0.6562  0.1719
  322MOL0     C43350   1.656   1.141   6.301  0.1574  0.2650 -0.2411
  322MOL0     C43351   1.780   1.210   6.366  0.3704  1.2102  0.1510
  322MOL0     N43352   1.900   1.163   6.305 -0.3517  0.2118 -0.5756
  322MOL0     C43353   1.972   1.051   6.345 -0.4836  0.1079 -0.3110
  322MOL0     C43354   2.071   1.035   6.253 -0.2697 -0.3810 -0.3038
  322MOL0     C43355   2.160   0.914   6.242 -0.4301 -0.5099  0.9546
  322MOL0     C43356   2.077   0.786   6.258 -1.1983 -0.2346 -0.8381
  322MOL0     C43357   1.971   0.762   6.158 -0.0975  0.0540 -0.4718
  322MOL0     C43358   2.047   0.727   6.030 -0.9328 -0.0742  0.1723
  322MOL0     O43359   2.111   0.599   6.024  0.9377  0.2168 -0.8684
  322MOL0     C43360   2.044   0.492   5.968  0.7468 -0.0150 -1.1738
  322MOL0     C43361   2.115   0.378   5.955 -0.0783 -0.0055 -0.2220
  322MOL0     C43362   2.063   0.268   5.890  0.2531  0.4101  0.7951
  322MOL0     C43363   1.928   0.275   5.846  0.1010  1.1840  0.2575
  322MOL0     C43364   1.871   0.162   5.770  0.3354  0.0534  0.3270
  322MOL0     O43365   1.941   0.048   5.763 -0.4701  0.2951 -0.1078
  322MOL0     C43366   1.897  -0.075   5.726 -0.3933 -0.5831  0.6920
  322MOL0     C43367   1.772  -0.127   5.748  0.6960  0.6265  0.2357
  322MOL0     C43368   1.744  -0.262   5.718 -0.6596 -0.2007  0.3878
  322MOL0     C43369   1.848  -0.345   5.669  0.1225  0.1423 -0.6018
  322MOL0     O43370   1.815  -0.473   5.647 -0.0958 -0.8422  0.7276
  322MOL0     C43371   1.911  -0.580   5.685 -0.1447 -0.3401  1.4519
  322MOL0     C43372   1.822  -0.694   5.733  0.5370 -0.0793 -0.1580
  322MOL0     C43373   1.891  -0.824   5.721 -0.5079  0.3135  0.7843
  322MOL0     C43374   1.797  -0.935   5.779 -0.2969  0.1893 -0.7756
  322MOL0     C43375   1.849  -1.017   5.900  0.3224 -0.4029 -0.9415
  322MOL0     C43376   1.745  -1.125   5.947  0.3897  0.0769  0.7613
  322MOL0     C43377   1.820  -1.224   6.046 -0.8971 -0.6679  0.6706
  322MOL0     C43378   1.727  -1.336   6.096 -0.7839  0.4849  0.8372
  322MOL0    Cl43379   1.815  -1.477   6.177 -0.0057  0.4183  0.2969
  322MOL0     C43380   1.974  -0.295   5.652  0.2669  0.4029  0.5363
  322MOL0     C43381   1.999  -0.167   5.691 -0.1431 -0.6200 -0.4937
  322MOL0     O43382   1.767   0.179   5.704  0.2888  0.0016 -0.0597
  322MOL0     C43383   1.848   0.385   5.889  0.1769 -0.0005  0.8018
  322MOL0     C43384   1.905   0.494   5.942 -0.0990  0.3079 -0.0368
  322MOL0     N43385   2.064   1.141   6.163  0.3920 -0.8767  0.7634
  322MOL0     N43386   1.955   1.209   6.190  0.2419  0.4129  0.7085
  322MOL0     C43387   0.807   0.927   5.998 -0.2644  0.1259 -0.3376
  322MOL0     C43388   0.717   0.859   5.925  0.4114 -0.0162  0.3926
  322MOL0     C43389   0.436   0.577   5.750  0.0391 -0.3033 -0.0947
  322MOL0     C43390   0.471   0.512   5.626  0.1060  0.0968 -0.5060
  322MOL0     C43391   0.372   0.457   5.542 -0.3987  0.5033  0.2746
  322MOL0     C43392   0.231   0.480   5.573 -0.8175  0.6118 -0.1550
  322MOL0     O43393   0.118   0.442   5.502 -0.2239 -0.2214  0.6548
  322MOL0     C43394   0.128   0.386   5.369  1.0175  0.7864 -0.1710
  322MOL0     C43395   0.176   0.476   5.250 -0.2701  0.6497  0.0963
  322MOL0     C43396   0.099   0.604   5.227 -0.5656 -0.3493 -0.7618
  322MOL0     C43397   0.178   0.702   5.143 -0.3011  0.6222  0.1702
  322MOL0     C43398   0.155   0.674   4.999  0.5211  0.3081  0.3450
  322MOL0     C43399   0.133   0.651   4.881 -0.3030 -1.0232  0.2228
  322MOL0     C43400   0.198   0.547   5.691 -0.1988  0.4120 -0.1677
  322MOL0     C43401   0.299   0.587   5.780  0.7217  0.3965  0.7344
  322MOL0     C43402   0.253   0.660   5.911  0.8400  0.0835  0.2099
  322MOL0     H43403   0.546   0.751   6.195  1.0102  1.3069  1.4630
  322MOL0     H43404   0.697   0.897   6.309 -1.8232  2.7440  0.1560
  322MOL0     H43405   0.800   1.133   6.340  0.3910 -0.2150  1.2423
  322MOL0     H43406   0.888   0.986   6.393 -0.0280 -0.2723  0.3682
  322MOL0     H43407   1.001   1.182   6.476 -0.3147  0.7605  0.1402
  322MOL0     H43408   1.001   1.241   6.300 -1.5670  0.2859  1.6179
  322MOL0     H43409   1.147   1.050   6.255 -1.1956  0.5402 -0.2493
  322MOL0     H43410   1.136   0.995   6.427  0.8217  1.4458  1.7908
  322MOL0     H43411   1.269   1.257   6.376 -1.1822 -0.4791 -2.8073
  322MOL0     H43412   1.279   1.149   6.512 -0.3401 -1.3245  0.2713
  322MOL0     H43413   1.394   0.984   6.383 -2.2956  1.6315  3.5912
  322MOL0     H43414   1.391   1.081   6.231  1.8688  0.1320 -1.1520
  322MOL0     H43415   1.516   1.253   6.433  0.9977  0.6753  1.0715
  322MOL0     H43416   1.560   1.086   6.481  1.2920 -0.3881 -1.3615
  322MOL0     H43417   1.627   1.168   6.199  2.8579  1.4199 -0.7929
  322MOL0     H43418   1.672   1.033   6.293  1.0216  0.0699  2.6609
  322MOL0     H43419   1.766   1.318   6.361 -0.4211  1.2168  1.7302
  322MOL0     H43420   1.784   1.183   6.472 -0.0800 -2.4778 -0.6311
  322MOL0     H43421   1.936   0.975   6.414 -2.0835  0.6461 -0.5100
  322MOL0     H43422   2.236   0.914   6.163 -2.0266  0.0014 -0.6612
  322MOL0     H43423   2.226   0.937   6.327  0.4089  0.2147  0.1384
  322MOL0     H43424   2.139   0.696   6.263 -0.9029 -0.0931 -1.8107
  322MOL0     H43425   2.035   0.805   6.357 -0.1537  0.5420 -0.5253
  322MOL0     H43426   1.935   0.865   6.145  5.2408  2.3007  0.0298
  322MOL0     H43427   1.888   0.700   6.193  1.0422  0.8487  4.5504
  322MOL0     H43428   2.113   0.811   6.004 -2.4864  1.8464  2.1064
  322MOL0     H43429   1.976   0.734   5.947 -1.4147  1.3177  0.6656
  322MOL0     H43430   2.216   0.385   5.992 -0.2663 -3.0791  1.1958
  322MOL0     H43431   2.131   0.190   5.856 -1.0496 -0.8296  0.9297
  322MOL0     H43432   1.696  -0.064   5.792 -1.4925 -0.8349 -1.2277
  322MOL0     H43433   1.648  -0.309   5.740 -1.8299  1.7643 -0.2895
  322MOL0     H43434   1.983  -0.595   5.604  0.1229 -1.1626  1.8330
  322MOL0     H43435   1.973  -0.556   5.772  0.6850 -2.5953  1.5475
  322MOL0     H43436   1.795  -0.687   5.839  0.0055  0.1211 -0.3012
  322MOL0     H43437   1.727  -0.695   5.678 -0.1828 -2.6690  0.9681
  322MOL0     H43438   1.904  -0.857   5.617 -3.1259  0.1661  0.4478
  322MOL0     H43439   1.985  -0.804   5.774  0.4055 -1.5461 -0.0292
  322MOL0     H43440   1.780  -1.008   5.699  1.5271  0.7295 -1.7132
  322MOL0     H43441   1.705  -0.886   5.811 -0.0142 -1.0532  2.3304
  322MOL0     H43442   1.863  -0.964   5.995 -0.5491 -2.3118  0.3149
  322MOL0     H43443   1.947  -1.060   5.877  1.3244  2.0014 -1.4375
  322MOL0     H43444   1.653  -1.089   5.995 -1.9869 -0.1096 -3.2221
  322MOL0     H43445   1.710  -1.181   5.860 -0.2724 -0.4880  1.3745
  322MOL0     H43446   1.861  -1.172   6.133 -0.1080  0.8015 -0.5202
  322MOL0     H43447   1.914  -1.261   6.005  1.7432  4.8506  0.8331
  322MOL0     H43448   1.649  -1.299   6.163  1.3226  4.9159  1.2544
  322MOL0     H43449   1.676  -1.383   6.011  0.3548  0.1145  0.3443
  322MOL0     H43450   2.048  -0.361   5.607 -0.8516  0.8359 -2.1350
  322MOL0     H43451   2.102  -0.133   5.686  0.2277 -1.1002  2.1782
  322MOL0     H43452   1.742   0.402   5.868  0.3018  2.9746  2.1257
  322MOL0     H43453   1.842   0.579   5.965  0.9796  1.3181 -0.7142
  322MOL0     H43454   0.891   0.978   5.951  1.0626 -0.6631  1.0748
  322MOL0     H43455   0.746   0.845   5.822  2.1610 -1.8359  1.0606
  322MOL0     H43456   0.574   0.488   5.600  0.8513  3.2661 -0.8236
  322MOL0     H43457   0.397   0.402   5.452 -1.4209 -0.1870  0.3985
  322MOL0     H43458   0.026   0.349   5.352  1.4957 -1.5736  1.6128
  322MOL0     H43459   0.197   0.302   5.371  1.2867  1.0130  0.4893
  322MOL0     H43460   0.169   0.406   5.166  0.6148 -1.5285  1.7243
  322MOL0     H43461   0.278   0.505   5.275 -0.3104  0.3580  0.6226
  322MOL0     H43462   0.085   0.652   5.324 -0.7522 -0.7620 -0.5785
  322MOL0     H43463  -0.007   0.583   5.210 -1.2313 -1.4059  3.4555
  322MOL0     H43464   0.148   0.807   5.156 -1.2351  0.4820 -0.8127
  322MOL0     H43465   0.284   0.690   5.169  0.0625 -0.1727 -1.5518
  322MOL0     H43466   0.101   0.648   4.779 -4.8879  0.3750  1.3882
  322MOL0     H43467   0.096   0.566   5.721 -0.2622  1.1068 -0.7902
  322MOL0     H43468   0.263   0.769   5.902  1.8266 -0.0401 -0.2680
  322MOL0     H43469   0.149   0.638   5.938  1.1964 -3.0993 -0.6624
  322MOL0     H43470   0.311   0.636   6.000  1.5192 -0.5742 -0.3960
  323MOL0     O43471  10.983   0.583   9.148 -0.5429 -0.3799 -0.3080
  323MOL0     C43472  10.987   0.680   9.230 -0.2011  0.2330  0.3880
  323MOL0     O43473  11.102   0.727   9.305 -0.8094  0.6183  0.3668
  323MOL0     C43474  11.207   0.638   9.324 -0.4508 -0.4295  0.7753
  323MOL0     C43475  11.331   0.689   9.361  0.1604 -0.8497  0.0446
  323MOL0     C43476  11.444   0.616   9.383  0.4317 -0.2321  0.6141
  323MOL0     C43477  11.443   0.477   9.373  0.2764 -0.0837 -0.5000
  323MOL0     O43478  11.556   0.398   9.384  0.0187 -0.3517  0.1480
  323MOL0     C43479  11.681   0.472   9.426  0.3300  0.3325 -0.3857
  323MOL0     C43480  11.781   0.361   9.438  0.0493 -0.0245 -0.2945
  323MOL0     C43481  11.920   0.424   9.422  0.4126  0.0508 -0.3959
  323MOL0     C43482  12.028   0.323   9.472  0.6943 -0.1527  0.8601
  323MOL0     C43483  12.166   0.357   9.421  0.1629 -0.5804  0.0680
  323MOL0     C43484  12.274   0.282   9.500 -0.6189  0.1860  0.4253
  323MOL0     C43485  12.415   0.274   9.433 -0.1713 -0.0414  0.3574
  323MOL0     C43486  12.431   0.161   9.330  0.0583 -0.8315  0.0309
  323MOL0     N43487  12.555   0.179   9.248 -0.5369  0.7287 -0.1152
  323MOL0     C43488  12.565   0.280   9.162 -0.5537 -0.7541 -0.0673
  323MOL0     C43489  12.694   0.278   9.115  0.4348 -0.1525  1.1201
  323MOL0     C43490  12.749   0.370   9.018  0.2476 -0.2675  0.4964
  323MOL0     C43491  12.912   0.368   9.015 -0.6803 -0.5192 -0.3189
  323MOL0     C43492  12.973   0.466   8.906  0.2943  0.8915 -1.2927
  323MOL0     C43493  12.976   0.611   8.964 -0.3883  0.4611 -0.0051
  323MOL0     O43494  13.001   0.701   8.855 -0.0572  0.0593 -0.2311
  323MOL0     C43495  12.900   0.767   8.786 -0.3995 -0.6307 -0.4678
  323MOL0     C43496  12.939   0.875   8.707 -0.0906  0.5752 -0.7260
  323MOL0     C43497  12.846   0.950   8.632  0.8024  0.1280  0.7941
  323MOL0     C43498  12.712   0.914   8.636  0.5029 -0.4433  0.8698
  323MOL0     C43499  12.614   0.967   8.538 -0.0065 -0.1613  0.3552
  323MOL0     O43500  12.501   0.888   8.523 -0.0586  0.1970  0.0710
  323MOL0     C43501  12.407   0.924   8.430 -1.4170  0.5014 -0.2962
  323MOL0     C43502  12.329   1.037   8.434  0.5429 -0.2677  0.0519
  323MOL0     C43503  12.228   1.073   8.335  0.0935  0.8186 -1.0488
  323MOL0     C43504  12.215   0.991   8.227 -0.4894  0.4843  0.2060
  323MOL0     O43505  12.137   1.015   8.123 -0.3810  0.4738 -0.0617
  323MOL0     C43506  12.017   1.098   8.131 -1.2300 -0.5889  0.2623
  323MOL0     C43507  11.910   1.029   8.041  0.1335 -0.1492  1.0601
  323MOL0     C43508  11.762   1.070   8.086  0.5417  0.3627 -0.8343
  323MOL0     C43509  11.725   1.213   8.065  0.4238 -0.2338 -0.3728
  323MOL0     C43510  11.586   1.254   8.091 -0.3043  0.2982  0.4233
  323MOL0     C43511  11.564   1.404   8.099  0.3627  0.3406 -0.2056
  323MOL0     C43512  11.423   1.457   8.076  0.1101 -0.0717 -0.4401
  323MOL0     C43513  11.337   1.435   8.199  0.2501 -0.8674 -1.3291
  323MOL0    Cl43514  11.288   1.267   8.231 -0.2290 -0.3859  0.3156
  323MOL0     C43515  12.296   0.876   8.223 -0.1586  0.2196  0.2111
  323MOL0     C43516  12.392   0.840   8.317 -0.0125 -0.3597 -0.7195
  323MOL0     O43517  12.630   1.074   8.478 -0.5451 -0.0881 -0.0512
  323MOL0     C43518  12.671   0.815   8.731  0.0204  0.1623  0.0381
  323MOL0     C43519  12.765   0.738   8.796 -0.2250 -0.4317  0.6138
  323MOL0     N43520  12.755   0.177   9.177  0.0529  0.2616 -0.6353
  323MOL0     N43521  12.678   0.123   9.262  0.0495  0.1941  0.4140
  323MOL0     C43522  11.312   0.420   9.352  0.1102 -1.1116 -0.9281
  323MOL0     C43523  11.193   0.495   9.324 -0.1351 -0.2839 -0.3921
  323MOL0     C43524  10.857   0.749   9.253  0.0404 -0.3133 -0.6352
  323MOL0     C43525  10.862   0.889   9.278 -0.4423 -0.1843  0.1278
  323MOL0     C43526  10.746   0.961   9.299 -0.0240 -0.5742 -1.2128
  323MOL0     C43527  10.616   0.909   9.275  0.7345  0.2735  0.3768
  323MOL0     O43528  10.509   0.996   9.285  0.1550 -0.2308 -0.1611
  323MOL0     C43529  10.375   0.942   9.296  0.5233  0.1274  0.6477
  323MOL0     C43530  10.260   1.044   9.285  0.5517 -0.8077 -0.4607
  323MOL0     C43531  10.262   1.142   9.162 -0.0132 -0.3453 -0.3764
  323MOL0     C43532  10.175   1.085   9.044  0.7757 -0.2123 -0.7671
  323MOL0     C43533  10.039   1.054   9.097 -0.2450 -0.4384  0.6093
  323MOL0     C43534   9.924   1.058   9.132 -0.1327  0.1319 -0.8315
  323MOL0     C43535  10.609   0.773   9.240  0.0388 -0.1299  0.9467
  323MOL0     C43536  10.730   0.697   9.237  0.8469 -0.3654  1.2529
  323MOL0     C43537  10.701   0.555   9.196 -0.1746  0.9007 -0.2858
  323MOL0     H43538  11.342   0.795   9.341  2.8249 -0.5405  2.5686
  323MOL0     H43539  11.538   0.670   9.382  0.7286 -0.7449  0.6011
  323MOL0     H43540  11.711   0.537   9.344  2.3939 -1.7903 -1.4411
  323MOL0     H43541  11.672   0.510   9.528 -0.2912 -0.3736 -0.1743
  323MOL0     H43542  11.749   0.282   9.369 -2.4727 -0.5515  1.3077
  323MOL0     H43543  11.761   0.321   9.538  1.2832 -0.8922 -0.3711
  323MOL0     H43544  11.929   0.509   9.489 -0.4498 -2.5849  3.3752
  323MOL0     H43545  11.937   0.450   9.317 -1.0685 -1.6453 -1.1043
  323MOL0     H43546  12.035   0.329   9.581 -0.6159  0.4972  0.9255
  323MOL0     H43547  12.005   0.219   9.445  3.3582 -1.1574  2.0964
  323MOL0     H43548  12.177   0.342   9.314 -0.4276  1.6551 -0.3531
  323MOL0     H43549  12.190   0.463   9.433 -0.7273 -0.2286 -1.0476
  323MOL0     H43550  12.291   0.325   9.598  1.4755 -1.8283  1.0315
  323MOL0     H43551  12.246   0.179   9.525  0.9358 -0.1249  0.9445
  323MOL0     H43552  12.491   0.269   9.511  0.7844 -0.0684 -0.5580
  323MOL0     H43553  12.423   0.366   9.375 -0.7335 -0.9413 -1.2073
  323MOL0     H43554  12.438   0.066   9.384  0.1847 -1.4740 -1.0837
  323MOL0     H43555  12.348   0.169   9.258 -0.1320  0.6506  0.3959
  323MOL0     H43556  12.485   0.353   9.149 -3.0979 -3.6986 -2.3672
  323MOL0     H43557  12.715   0.356   8.915 -0.1460 -0.3402  0.6356
  323MOL0     H43558  12.722   0.469   9.054  0.3549 -0.2139  0.4293
  323MOL0     H43559  12.944   0.391   9.117 -0.6032 -0.5217 -0.3430
  323MOL0     H43560  12.937   0.270   8.974 -1.9577 -1.7183  1.6036
  323MOL0     H43561  12.905   0.456   8.820  1.8756  2.3185 -2.7937
  323MOL0     H43562  13.070   0.431   8.872 -0.5311  0.2739 -3.1443
  323MOL0     H43563  13.063   0.602   9.030 -2.1967 -2.9678  2.2344
  323MOL0     H43564  12.883   0.645   9.010 -1.3182  0.2133 -1.6521
  323MOL0     H43565  13.043   0.906   8.702  0.4527 -0.6722  1.4764
  323MOL0     H43566  12.872   1.026   8.558 -1.2103 -1.5739 -1.8726
  323MOL0     H43567  12.340   1.104   8.519 -0.0644 -0.4567  0.2878
  323MOL0     H43568  12.169   1.161   8.359  0.0138  0.6704 -0.6969
  323MOL0     H43569  11.992   1.123   8.235  2.6893  2.1390  0.7597
  323MOL0     H43570  12.049   1.189   8.080  1.7220 -2.1854 -0.9810
  323MOL0     H43571  11.923   1.037   7.933  1.5651  1.4541  1.3161
  323MOL0     H43572  11.923   0.922   8.061 -0.1825 -0.1966  1.0299
  323MOL0     H43573  11.690   1.008   8.032 -2.6576  1.4874  1.8266
  323MOL0     H43574  11.750   1.046   8.192  3.0546  3.7541  0.3859
  323MOL0     H43575  11.756   1.251   7.968  0.4359 -2.9209 -1.5075
  323MOL0     H43576  11.785   1.268   8.138 -1.5513  1.7683 -0.1198
  323MOL0     H43577  11.567   1.209   8.189 -0.4628 -0.1544  0.1858
  323MOL0     H43578  11.525   1.206   8.014  1.1271 -1.4894  0.3358
  323MOL0     H43579  11.607   1.437   8.194  2.0425  1.3751 -1.2648
  323MOL0     H43580  11.632   1.449   8.026 -0.6017  0.6647 -0.9273
  323MOL0     H43581  11.371   1.412   7.991 -0.3038  0.3479 -0.4113
  323MOL0     H43582  11.421   1.565   8.062  0.1019  0.0908  0.7308
  323MOL0     H43583  11.397   1.478   8.280  1.6191 -1.1586 -2.1406
  323MOL0     H43584  11.246   1.495   8.203  0.4512 -0.5110  3.1316
  323MOL0     H43585  12.280   0.811   8.138  0.3219 -1.7347  1.5418
  323MOL0     H43586  12.459   0.754   8.314 -1.2632 -1.3975 -0.0586
  323MOL0     H43587  12.566   0.796   8.748  0.2895 -1.5647 -0.1227
  323MOL0     H43588  12.721   0.661   8.859  1.4086 -1.5143  0.5160
  323MOL0     H43589  11.307   0.312   9.355  0.3766 -1.1605 -1.9172
  323MOL0     H43590  11.102   0.437   9.314  0.6235 -1.5653 -0.0260
  323MOL0     H43591  10.957   0.940   9.291 -0.1301 -0.9502  1.0110
  323MOL0     H43592  10.757   1.063   9.334  1.5107 -1.7535  2.0900
  323MOL0     H43593  10.367   0.883   9.387  0.3325 -0.0279  0.5310
  323MOL0     H43594  10.359   0.878   9.209 -2.2420  1.8313 -0.2097
  323MOL0     H43595  10.276   1.100   9.377  1.5981  0.2163 -1.2352
  323MOL0     H43596  10.164   0.992   9.298  0.0298 -0.0595 -1.2040
  323MOL0     H43597  10.360   1.157   9.116  0.1813 -0.1209  0.0981
  323MOL0     H43598  10.229   1.245   9.181  2.0452  1.2202 -4.1247
  323MOL0     H43599  10.157   1.148   8.956 -0.2602  1.3938  0.5362
  323MOL0     H43600  10.226   0.992   9.018  0.4272 -1.3169  2.1503
  323MOL0     H43601   9.822   1.059   9.164 -0.6833 -4.3326 -1.8246
  323MOL0     H43602  10.511   0.729   9.220  0.9762 -2.2842  0.7602
  323MOL0     H43603  10.747   0.536   9.098  3.2277  1.0102  1.1554
  323MOL0     H43604  10.743   0.479   9.263 -0.6439 -0.8120 -1.8278
  323MOL0     H43605  10.592   0.547   9.187 -0.1127  1.0038 -1.2517
  324MOL0     O43606   5.466   5.620   3.262  0.7199 -0.5881  0.2664
  324MOL0     C43607   5.408   5.526   3.316 -0.7211  0.7098  0.3363
  324MOL0     O43608   5.471   5.442   3.397 -0.3064  0.7792  0.0325
  324MOL0     C43609   5.604   5.447   3.429  0.2798  0.8645 -0.0469
  324MOL0     C43610   5.708   5.484   3.346  0.0357  0.0488 -0.7636
  324MOL0     C43611   5.832   5.500   3.396 -0.5453  0.0568  0.3303
  324MOL0     C43612   5.869   5.474   3.525 -0.0362  0.0825  1.0693
  324MOL0     O43613   5.998   5.485   3.578  0.4711 -0.4257 -0.5597
  324MOL0     C43614   6.081   5.604   3.535  0.4076 -0.1342 -0.3661
  324MOL0     C43615   6.210   5.596   3.616 -0.7749  0.7017 -0.8745
  324MOL0     C43616   6.181   5.580   3.766 -0.0690 -0.4374  0.7393
  324MOL0     C43617   6.306   5.625   3.843  0.4644 -0.5802 -0.3925
  324MOL0     C43618   6.427   5.528   3.833  0.6564 -0.2651  0.6621
  324MOL0     C43619   6.405   5.387   3.909 -0.0492 -0.4783 -0.3026
  324MOL0     C43620   6.524   5.302   3.927 -0.5268 -0.3568 -0.3170
  324MOL0     C43621   6.538   5.203   3.819  0.1152  0.9509  0.2661
  324MOL0     N43622   6.664   5.129   3.827  0.2612  0.2972 -0.3155
  324MOL0     C43623   6.774   5.130   3.747  0.0170  0.8185  0.3212
  324MOL0     C43624   6.874   5.063   3.813  0.0798 -0.0969 -0.8610
  324MOL0     C43625   7.010   5.051   3.759 -0.1362 -0.9608 -0.6488
  324MOL0     C43626   7.111   5.133   3.842  0.7473 -0.7062 -0.0693
  324MOL0     C43627   7.245   5.091   3.788  0.6177 -0.8627 -0.1385
  324MOL0     C43628   7.354   5.155   3.868  0.6946 -0.1533  0.5311
  324MOL0     O43629   7.484   5.152   3.796  0.3256  0.1189 -0.0839
  324MOL0     C43630   7.595   5.195   3.860  0.0087 -0.3450 -0.1624
  324MOL0     C43631   7.711   5.174   3.788 -0.6900 -0.3132 -0.3393
  324MOL0     C43632   7.836   5.204   3.847  0.5310 -0.1662  1.0925
  324MOL0     C43633   7.842   5.249   3.978 -0.3434 -0.2305 -0.0113
  324MOL0     C43634   7.982   5.260   4.034  0.4930 -0.6544 -0.3536
  324MOL0     O43635   7.982   5.307   4.162  0.0860 -0.5947  0.1878
  324MOL0     C43636   8.067   5.400   4.210 -0.4770 -0.4665  0.6125
  324MOL0     C43637   8.098   5.509   4.140 -0.7872 -0.0745  0.0285
  324MOL0     C43638   8.199   5.590   4.196 -0.2559 -0.1652  0.6673
  324MOL0     C43639   8.254   5.577   4.324 -0.6056  0.1307 -0.8034
  324MOL0     O43640   8.335   5.673   4.374 -0.6022 -0.1398 -0.4626
  324MOL0     C43641   8.377   5.663   4.512 -0.3571 -0.0673 -0.3800
  324MOL0     C43642   8.526   5.614   4.543  0.1829  0.2823 -0.1751
  324MOL0     C43643   8.537   5.468   4.514 -0.0340 -0.1068  0.4204
  324MOL0     C43644   8.671   5.414   4.571  1.1221 -0.4412  0.2620
  324MOL0     C43645   8.798   5.462   4.498  0.0961  0.4729  0.0359
  324MOL0     C43646   8.911   5.444   4.594  0.7792 -0.5825 -1.0694
  324MOL0     C43647   9.051   5.448   4.534 -0.8119 -0.7101  0.7013
  324MOL0     C43648   9.157   5.472   4.637  0.0098  0.0775 -0.1122
  324MOL0    Cl43649   9.141   5.315   4.736  0.6560 -0.5864  0.1308
  324MOL0     C43650   8.209   5.463   4.395 -0.6316 -0.6804 -1.6355
  324MOL0     C43651   8.122   5.379   4.337  0.1135  0.7811 -1.8819
  324MOL0     O43652   8.079   5.254   3.960 -0.8497 -0.6640  0.4463
  324MOL0     C43653   7.724   5.284   4.042 -0.8548 -0.2240 -0.4063
  324MOL0     C43654   7.597   5.259   3.984 -0.5110 -0.0773  0.0957
  324MOL0     N43655   6.820   5.019   3.936 -0.4401 -0.1893  0.5094
  324MOL0     N43656   6.698   5.059   3.944  0.3548 -0.0354  0.3337
  324MOL0     C43657   5.767   5.424   3.607  1.3890 -0.3490  0.3210
  324MOL0     C43658   5.639   5.413   3.561 -0.3586 -0.2936 -0.4631
  324MOL0     C43659   5.261   5.507   3.294  0.5674 -0.4785 -0.1092
  324MOL0     C43660   5.196   5.409   3.367 -0.4859  0.0639  0.5501
  324MOL0     C43661   5.069   5.364   3.335  0.0248  0.4645  0.3291
  324MOL0     C43662   5.004   5.431   3.233  0.1717  0.5615 -0.2509
  324MOL0     O43663   4.875   5.398   3.203  0.2696 -0.0619 -0.0455
  324MOL0     C43664   4.857   5.275   3.135  1.3944  0.4554  0.9095
  324MOL0     C43665   4.868   5.292   2.981  0.1612 -0.3949  0.8463
  324MOL0     C43666   4.757   5.383   2.924 -0.8418  0.2131  0.2837
  324MOL0     C43667   4.776   5.382   2.771  0.4119  0.2795  0.4908
  324MOL0     C43668   4.725   5.501   2.703 -0.2178  0.4341  0.1840
  324MOL0     C43669   4.681   5.599   2.637  0.3601  0.7058  0.8486
  324MOL0     C43670   5.058   5.548   3.173 -1.4282 -0.7795 -0.2764
  324MOL0     C43671   5.190   5.583   3.204  0.6334 -1.0270 -0.0485
  324MOL0     C43672   5.232   5.706   3.124  0.3838  0.4985 -0.1220
  324MOL0     H43673   5.687   5.501   3.241 -3.5048 -0.7618 -0.3232
  324MOL0     H43674   5.910   5.548   3.338 -1.6774  5.0406  2.4088
  324MOL0     H43675   6.101   5.599   3.427 -2.0033 -0.8666 -0.8418
  324MOL0     H43676   6.024   5.694   3.557  1.6478  0.5577  0.0822
  324MOL0     H43677   6.276   5.682   3.595  1.3884 -0.9847 -1.3250
  324MOL0     H43678   6.267   5.509   3.583 -2.7895 -0.7326 -0.6956
  324MOL0     H43679   6.153   5.477   3.787 -1.5320  0.5265  4.1122
  324MOL0     H43680   6.088   5.635   3.781 -3.1958 -4.6087 -1.2017
  324MOL0     H43681   6.331   5.727   3.811  1.0360 -0.6607 -0.2219
  324MOL0     H43682   6.271   5.634   3.946  1.9261  2.0715 -0.0549
  324MOL0     H43683   6.440   5.524   3.725 -2.6895 -0.4420  0.1536
  324MOL0     H43684   6.514   5.583   3.869  1.3538 -0.2356 -1.0183
  324MOL0     H43685   6.378   5.417   4.010  2.9662  0.4552  0.3340
  324MOL0     H43686   6.326   5.331   3.859 -0.9581  0.5367 -0.0375
  324MOL0     H43687   6.513   5.245   4.020 -0.6717 -1.7951 -1.1844
  324MOL0     H43688   6.614   5.363   3.919  0.2339 -1.6621 -3.4266
  324MOL0     H43689   6.463   5.123   3.817  2.2220 -1.1203 -0.0913
  324MOL0     H43690   6.537   5.256   3.723  0.3428  1.8124  0.7291
  324MOL0     H43691   6.774   5.164   3.644  3.2159 -2.0923 -0.8356
  324MOL0     H43692   7.036   4.946   3.743 -2.5744 -1.4608 -1.7347
  324MOL0     H43693   7.003   5.100   3.662  1.3595  2.0415  0.6113
  324MOL0     H43694   7.094   5.240   3.830  1.1495 -0.6535 -0.2026
  324MOL0     H43695   7.103   5.106   3.947 -0.6278 -1.2903 -0.3029
  324MOL0     H43696   7.253   5.117   3.682 -0.2563  0.0641  0.0117
  324MOL0     H43697   7.259   4.982   3.791 -0.1211 -0.9471  0.4709
  324MOL0     H43698   7.361   5.110   3.968  2.3671 -3.9765 -1.0905
  324MOL0     H43699   7.324   5.259   3.883  1.3214 -0.0026  0.7804
  324MOL0     H43700   7.694   5.145   3.685  0.4520 -0.7004 -0.4392
  324MOL0     H43701   7.930   5.174   3.802  1.4561  1.2173  2.0378
  324MOL0     H43702   8.053   5.521   4.041 -0.2261 -3.5570 -0.8017
  324MOL0     H43703   8.224   5.686   4.151 -5.0678 -0.0307 -2.4372
  324MOL0     H43704   8.382   5.768   4.541 -0.8464  0.0819 -0.8341
  324MOL0     H43705   8.304   5.617   4.579 -0.2030  0.8309  0.4320
  324MOL0     H43706   8.597   5.673   4.484  0.6806  2.5616  2.4976
  324MOL0     H43707   8.542   5.635   4.650  0.8628  0.2754 -0.2707
  324MOL0     H43708   8.453   5.413   4.556 -3.8865  4.9944  0.3311
  324MOL0     H43709   8.551   5.456   4.406  4.0023  0.5703  0.7132
  324MOL0     H43710   8.670   5.305   4.559  2.1684 -0.2977 -1.4536
  324MOL0     H43711   8.675   5.433   4.679  1.8570 -1.5510  0.4427
  324MOL0     H43712   8.799   5.565   4.463 -0.9594 -0.8727 -4.7633
  324MOL0     H43713   8.803   5.389   4.416  1.8316 -0.1058  0.5965
  324MOL0     H43714   8.897   5.517   4.674 -0.6652 -1.2085 -0.7198
  324MOL0     H43715   8.907   5.352   4.652  2.3347  1.1417  2.0567
  324MOL0     H43716   9.070   5.529   4.464 -1.3455  1.3751  2.8614
  324MOL0     H43717   9.066   5.356   4.476  1.8173  1.2115 -1.9581
  324MOL0     H43718   9.258   5.474   4.596 -0.6680 -2.0301 -2.1654
  324MOL0     H43719   9.122   5.556   4.698  4.4578  1.6707  0.5639
  324MOL0     H43720   8.258   5.430   4.486 -0.4807 -1.9284 -2.1530
  324MOL0     H43721   8.088   5.294   4.396  0.7433  1.9202  0.2260
  324MOL0     H43722   7.736   5.334   4.137  2.4657 -0.4660 -0.5747
  324MOL0     H43723   7.505   5.280   4.038 -3.3002 -1.3381 -3.6956
  324MOL0     H43724   5.783   5.401   3.711  0.4438  0.6751  0.7254
  324MOL0     H43725   5.572   5.389   3.643  1.9703 -1.2316  1.2602
  324MOL0     H43726   5.242   5.366   3.455 -4.1932 -0.9657  2.2086
  324MOL0     H43727   5.012   5.283   3.379  1.5233 -0.2907  0.9560
  324MOL0     H43728   4.760   5.227   3.152  1.5509 -0.9328 -1.6231
  324MOL0     H43729   4.930   5.210   3.183  1.4674  1.4989  2.2813
  324MOL0     H43730   4.860   5.195   2.931  1.1018 -0.0603  0.0227
  324MOL0     H43731   4.964   5.334   2.954 -0.0742  0.9942  2.0278
  324MOL0     H43732   4.775   5.486   2.957  1.2181  0.0374 -0.1487
  324MOL0     H43733   4.658   5.348   2.956 -1.9552  1.1500 -1.9243
  324MOL0     H43734   4.884   5.383   2.753  0.4935 -1.3693  0.6510
  324MOL0     H43735   4.735   5.285   2.741 -0.2344  0.1950  1.5789
  324MOL0     H43736   4.642   5.671   2.568  0.1779 -2.3212 -2.4742
  324MOL0     H43737   4.991   5.612   3.116  1.8773  2.2925 -1.0895
  324MOL0     H43738   5.272   5.777   3.197 -1.0590  2.6609 -1.2871
  324MOL0     H43739   5.304   5.687   3.043  1.2348  0.1108  0.7169
  324MOL0     H43740   5.146   5.751   3.073 -0.0736 -1.5177 -1.2076
  325MOL0     O43741   7.702   3.805  10.963 -0.1301  0.0210 -0.4579
  325MOL0     C43742   7.629   3.703  10.991 -0.7139 -1.1686  1.7400
  325MOL0     O43743   7.652   3.584  10.943 -0.2325 -0.3066 -0.4641
  325MOL0     C43744   7.769   3.553  10.900 -1.0524  0.3049  0.5697
  325MOL0     C43745   7.891   3.587  10.959  1.0846 -0.1430 -0.0656
  325MOL0     C43746   8.009   3.567  10.891 -0.8126 -0.3146 -0.5918
  325MOL0     C43747   8.019   3.514  10.759  0.7042  0.6754  0.2262
  325MOL0     O43748   8.131   3.498  10.678 -0.1499  0.1757 -0.3668
  325MOL0     C43749   8.257   3.521  10.742  0.7094  0.8476 -0.1620
  325MOL0     C43750   8.300   3.666  10.735  0.3602 -0.7819 -0.7065
  325MOL0     C43751   8.437   3.716  10.783  0.5365  0.1394 -0.0206
  325MOL0     C43752   8.561   3.671  10.693 -0.4123 -0.9576 -0.0026
  325MOL0     C43753   8.693   3.749  10.713  0.3045 -0.3658  0.5386
  325MOL0     C43754   8.794   3.720  10.606  0.7922  0.2153 -0.1970
  325MOL0     C43755   8.927   3.783  10.650 -0.2975 -0.3058  0.0832
  325MOL0     C43756   9.055   3.747  10.562 -0.5395  0.2336 -0.7224
  325MOL0     N43757   9.174   3.828  10.608 -0.3455  0.2384 -0.0145
  325MOL0     C43758   9.263   3.786  10.711  0.1098  0.4949  0.0394
  325MOL0     C43759   9.357   3.885  10.707 -0.0313 -1.1111  0.1973
  325MOL0     C43760   9.446   3.900  10.821 -0.3157 -0.1385  0.0363
  325MOL0     C43761   9.587   3.841  10.798  0.2481 -0.2649  0.0791
  325MOL0     C43762   9.684   3.943  10.734 -0.4129 -0.7782 -0.2587
  325MOL0     C43763   9.818   3.873  10.694 -0.0811 -0.2779 -0.2723
  325MOL0     O43764   9.903   3.862  10.810  0.3192 -0.1167  0.3709
  325MOL0     C43765  10.036   3.863  10.813  0.3676  0.8781  0.4181
  325MOL0     C43766  10.097   3.837  10.939  0.5567 -0.6159  1.1134
  325MOL0     C43767  10.232   3.833  10.934 -0.0091 -0.3465  0.1151
  325MOL0     C43768  10.311   3.841  10.822 -0.2292  0.3058 -0.9379
  325MOL0     C43769  10.458   3.830  10.824 -1.0143  0.0260 -0.5577
  325MOL0     O43770  10.512   3.776  10.941  0.3040  0.2270  1.3301
  325MOL0     C43771  10.648   3.780  10.957  0.5382 -0.5271  0.0086
  325MOL0     C43772  10.720   3.654  10.953  0.1298  0.2343 -0.1841
  325MOL0     C43773  10.860   3.662  10.971 -0.1553 -0.2876  0.1503
  325MOL0     C43774  10.925   3.783  10.987 -0.0674 -0.4792  1.0316
  325MOL0     O43775  11.062   3.778  10.999 -0.7620 -0.4842  0.1022
  325MOL0     C43776  11.149   3.772  10.880  0.5870  0.6465 -0.1461
  325MOL0     C43777  11.198   3.906  10.850  1.4179 -0.1629 -0.7992
  325MOL0     C43778  11.339   3.921  10.918 -0.9079 -0.2647 -0.5453
  325MOL0     C43779  11.347   3.881  11.062  0.2040  0.2944  0.3625
  325MOL0     C43780  11.484   3.890  11.106  0.3795 -0.6983 -0.5356
  325MOL0     C43781  11.497   3.863  11.260 -0.1997  0.1360 -0.5099
  325MOL0     C43782  11.446   3.970  11.358 -0.5728  0.1588 -0.3145
  325MOL0     C43783  11.476   3.921  11.498  0.2076  0.6062  0.0538
  325MOL0    Cl43784  11.377   3.774  11.546 -0.5278 -0.2080 -0.0258
  325MOL0     C43785  10.857   3.903  10.985  0.5041  0.2594 -0.8267
  325MOL0     C43786  10.717   3.902  10.965 -0.0013 -0.2755 -0.2387
  325MOL0     O43787  10.525   3.870  10.729 -0.2312  0.0584 -0.4100
  325MOL0     C43788  10.242   3.871  10.701  0.5015  0.5078  0.4949
  325MOL0     C43789  10.108   3.881  10.696 -0.5514 -0.4572 -0.7534
  325MOL0     N43790   9.332   3.981  10.606 -0.0527  0.9615 -0.5955
  325MOL0     N43791   9.222   3.940  10.548  1.0689  0.1785 -0.8654
  325MOL0     C43792   7.888   3.482  10.701 -0.7953 -1.0012 -0.0665
  325MOL0     C43793   7.769   3.506  10.770 -0.8136  0.2529 -0.3490
  325MOL0     C43794   7.503   3.730  11.068  0.5480 -0.5384 -1.4825
  325MOL0     C43795   7.472   3.649  11.171  0.5574 -0.2260 -0.0131
  325MOL0     C43796   7.367   3.668  11.262  0.5002  0.6343  0.7401
  325MOL0     C43797   7.285   3.779  11.248 -0.2133  0.7387  0.9881
  325MOL0     O43798   7.187   3.822  11.324 -0.0156  0.2382 -0.3870
  325MOL0     C43799   7.146   3.744  11.440  0.0927 -0.3956 -0.9579
  325MOL0     C43800   6.996   3.762  11.454  0.2958  0.1194 -0.0807
  325MOL0     C43801   6.956   3.733  11.601  0.4103 -0.5145 -0.0478
  325MOL0     C43802   6.801   3.745  11.619 -0.0749 -0.6966  0.1004
  325MOL0     C43803   6.740   3.861  11.566  0.5876 -0.2616  0.1156
  325MOL0     C43804   6.683   3.957  11.524  0.2794  0.4207 -0.5328
  325MOL0     C43805   7.317   3.865  11.139  0.3987  0.4868 -0.9951
  325MOL0     C43806   7.421   3.845  11.055  0.0301  0.0801  0.3469
  325MOL0     C43807   7.429   3.953  10.938 -0.0641 -0.0385  0.2705
  325MOL0     H43808   7.894   3.634  11.056  0.0082 -0.7613  0.2783
  325MOL0     H43809   8.100   3.591  10.946 -1.9814  1.5224  0.6397
  325MOL0     H43810   8.270   3.488  10.846  3.0558  0.5777 -0.4733
  325MOL0     H43811   8.341   3.465  10.700  2.0477  1.4021  1.6395
  325MOL0     H43812   8.223   3.723  10.788 -0.5236 -2.7303  0.1958
  325MOL0     H43813   8.295   3.694  10.629  0.7082 -0.5615 -0.6669
  325MOL0     H43814   8.447   3.692  10.890  0.6293 -1.0152 -0.2772
  325MOL0     H43815   8.426   3.823  10.764 -0.2674 -0.1806 -1.4598
  325MOL0     H43816   8.573   3.563  10.706 -1.5291 -1.2230 -0.9456
  325MOL0     H43817   8.536   3.694  10.589 -1.3626 -0.4585  0.3269
  325MOL0     H43818   8.690   3.858  10.727  3.2663 -0.1101 -0.0428
  325MOL0     H43819   8.713   3.710  10.813 -1.9006 -1.2479  0.6774
  325MOL0     H43820   8.800   3.611  10.609 -2.5231 -0.0368  1.1088
  325MOL0     H43821   8.763   3.762  10.510  1.0451  0.8548 -0.0011
  325MOL0     H43822   8.948   3.736  10.747 -0.8922 -0.0367  0.3472
  325MOL0     H43823   8.913   3.891  10.662  0.1572 -0.2063 -0.2564
  325MOL0     H43824   9.080   3.641  10.573 -2.7649 -0.6848 -3.3466
  325MOL0     H43825   9.035   3.773  10.457 -0.3835  0.0044 -0.8105
  325MOL0     H43826   9.250   3.695  10.770 -0.7131  1.1304  0.8718
  325MOL0     H43827   9.460   4.006  10.845 -1.5834 -0.1390  0.8225
  325MOL0     H43828   9.406   3.848  10.908  0.5943  0.5628  0.9013
  325MOL0     H43829   9.627   3.806  10.894  3.5737  0.1327 -1.0421
  325MOL0     H43830   9.584   3.757  10.729  0.3788 -1.0550  1.0123
  325MOL0     H43831   9.719   4.025  10.798 -1.7847  0.2754 -0.8147
  325MOL0     H43832   9.642   3.992  10.646  1.6576 -1.9756 -2.0029
  325MOL0     H43833   9.875   3.931  10.621  0.6573 -1.6406 -0.8095
  325MOL0     H43834   9.801   3.779  10.641  0.0962  0.0666 -0.9491
  325MOL0     H43835  10.052   3.822  11.037  0.4395  0.5817  1.2537
  325MOL0     H43836  10.276   3.805  11.029 -1.1786  1.5090  1.2487
  325MOL0     H43837  10.673   3.558  10.935 -1.9044  0.9029  1.1565
  325MOL0     H43838  10.919   3.572  10.963  0.2674  0.0853 -1.3450
  325MOL0     H43839  11.230   3.701  10.903 -0.6413 -0.7455  0.0179
  325MOL0     H43840  11.104   3.743  10.785  3.7651  0.4397 -1.7489
  325MOL0     H43841  11.201   3.929  10.743  3.0795  1.7146 -0.4054
  325MOL0     H43842  11.134   3.982  10.895  0.7281 -0.3986 -1.3578
  325MOL0     H43843  11.415   3.868  10.860 -0.3315 -0.4218  0.3445
  325MOL0     H43844  11.368   4.026  10.911  4.6881 -1.2781  2.0277
  325MOL0     H43845  11.318   3.777  11.079 -0.4326  0.1436 -1.4138
  325MOL0     H43846  11.275   3.943  11.118 -0.5440  3.2516 -3.4295
  325MOL0     H43847  11.522   3.990  11.084 -2.5125  0.9036  1.1776
  325MOL0     H43848  11.542   3.810  11.058 -1.9103 -1.9501 -1.3627
  325MOL0     H43849  11.426   3.782  11.282  0.7400 -0.4848  0.3754
  325MOL0     H43850  11.592   3.817  11.290 -0.3738 -0.2434 -0.5372
  325MOL0     H43851  11.341   3.991  11.336 -0.8537  2.1968  2.4723
  325MOL0     H43852  11.504   4.062  11.343  3.4137 -2.2928 -1.5401
  325MOL0     H43853  11.582   3.904  11.516  0.1149  0.4540  0.4742
  325MOL0     H43854  11.444   4.002  11.564 -1.3745  1.6205 -1.8647
  325MOL0     H43855  10.900   4.002  10.994  0.4559  0.1556  1.0981
  325MOL0     H43856  10.662   3.996  10.962 -1.0779 -0.8445  0.8060
  325MOL0     H43857  10.302   3.903  10.617  0.5353 -0.3986  0.1629
  325MOL0     H43858  10.078   3.903  10.594  1.4545 -1.9145 -1.7435
  325MOL0     H43859   7.879   3.452  10.597  0.1650 -0.6044 -0.2760
  325MOL0     H43860   7.676   3.481  10.721 -0.9693 -2.3761  1.1199
  325MOL0     H43861   7.545   3.570  11.184 -0.1448 -0.8019  0.4467
  325MOL0     H43862   7.352   3.597  11.342 -0.6743 -0.3044 -0.2700
  325MOL0     H43863   7.203   3.769  11.530  0.9430  0.7050 -1.7884
  325MOL0     H43864   7.162   3.636  11.434 -0.7529 -0.6401  0.5573
  325MOL0     H43865   6.945   3.713  11.371  0.3507  1.4814 -0.9486
  325MOL0     H43866   6.979   3.870  11.442 -0.3567  0.0622  0.2711
  325MOL0     H43867   6.998   3.802  11.674  1.6556 -1.3075  0.0020
  325MOL0     H43868   7.000   3.635  11.621  0.4870 -0.6172 -0.6823
  325MOL0     H43869   6.748   3.655  11.586 -1.6657 -1.1062  3.4488
  325MOL0     H43870   6.776   3.745  11.725  0.7140  0.8817  0.3089
  325MOL0     H43871   6.630   4.041  11.484  1.8966  1.6055 -0.2626
  325MOL0     H43872   7.251   3.951  11.134 -2.3023 -1.4700 -1.3898
  325MOL0     H43873   7.477   3.910  10.850  3.1721  2.5249  0.5983
  325MOL0     H43874   7.331   3.991  10.907 -0.0464 -0.3426 -0.1665
  325MOL0     H43875   7.481   4.042  10.975 -3.0106  1.8192  0.3247
  326MOL0     O43876   2.559  10.246  10.984  0.2253  1.0360  0.1811
  326MOL0     C43877   2.543  10.219  11.105  0.9058 -0.5182  0.1303
  326MOL0     O43878   2.629  10.157  11.181  0.1850  0.9841 -1.4865
  326MOL0     C43879   2.754  10.124  11.145  0.9860 -0.3536 -0.6284
  326MOL0     C43880   2.835  10.238  11.109  0.3381  0.5306 -1.1277
  326MOL0     C43881   2.973  10.209  11.092  0.6205  0.2696  0.3152
  326MOL0     C43882   3.020  10.080  11.103  0.1872  0.4594 -0.8181
  326MOL0     O43883   3.159  10.056  11.115  0.1843  0.4209  0.0869
  326MOL0     C43884   3.250  10.136  11.046  1.0453 -0.3872 -0.9529
  326MOL0     C43885   3.390  10.082  11.039  0.6814  0.4535  0.4196
  326MOL0     C43886   3.485  10.188  11.060 -0.2585 -0.5312  0.4989
  326MOL0     C43887   3.638  10.144  11.079 -0.1750  0.9567 -0.9204
  326MOL0     C43888   3.737  10.260  11.066 -0.3044  0.4978  0.1396
  326MOL0     C43889   3.890  10.226  11.058 -0.4394  0.5917 -0.5490
  326MOL0     C43890   3.944  10.161  11.184  1.1607  0.1491 -0.2210
  326MOL0     C43891   4.026  10.253  11.277  0.1994 -0.3884 -0.0240
  326MOL0     N43892   3.959  10.378  11.334  0.8702  0.1409 -0.1739
  326MOL0     C43893   3.841  10.387  11.406  0.4605 -0.5130 -0.1941
  326MOL0     C43894   3.854  10.521  11.447 -0.7633  1.5302  0.6131
  326MOL0     C43895   3.762  10.601  11.539 -0.1429  0.4368 -0.5082
  326MOL0     C43896   3.664  10.684  11.459  0.2502 -0.6210  0.2823
  326MOL0     C43897   3.583  10.760  11.565 -0.3300  0.5314 -0.1164
  326MOL0     C43898   3.460  10.836  11.502  1.2911 -0.6017  0.6577
  326MOL0     O43899   3.386  10.908  11.600  0.2724  0.4980  0.8057
  326MOL0     C43900   3.283  10.989  11.576  0.2375 -0.1473  0.1673
  326MOL0     C43901   3.215  11.040  11.685  0.7698  0.0640  0.6098
  326MOL0     C43902   3.098  11.106  11.673 -0.2080 -0.5079  0.1299
  326MOL0     C43903   3.045  11.133  11.542 -0.2861 -0.2250 -0.2207
  326MOL0     C43904   2.917  11.191  11.539 -0.5453 -0.2126  0.3056
  326MOL0     O43905   2.842  11.177  11.430  0.0946  0.7414  0.7560
  326MOL0     C43906   2.705  11.202  11.450  0.0296 -0.2430  0.9541
  326MOL0     C43907   2.628  11.147  11.546  0.2524  0.2754 -1.1415
  326MOL0     C43908   2.494  11.174  11.561 -0.0912  0.3983  0.0327
  326MOL0     C43909   2.427  11.266  11.474 -0.3668 -0.8138 -0.3367
  326MOL0     O43910   2.289  11.270  11.479 -0.4068  0.5253 -0.3570
  326MOL0     C43911   2.217  11.378  11.436 -0.8484  0.9839  0.7798
  326MOL0     C43912   2.086  11.387  11.512  0.0879  0.4517  0.2021
  326MOL0     C43913   2.038  11.535  11.522 -0.3853  0.0489 -0.0672
  326MOL0     C43914   1.897  11.538  11.568 -0.5234  0.3569 -1.2056
  326MOL0     C43915   1.844  11.688  11.571  0.6373  0.6055  0.5614
  326MOL0     C43916   1.799  11.733  11.430 -0.8380 -0.9487 -0.7397
  326MOL0     C43917   1.787  11.883  11.434  0.1545 -0.7368  0.3586
  326MOL0     C43918   1.753  11.944  11.299  0.1900 -0.2251 -0.3029
  326MOL0    Cl43919   1.580  11.920  11.253  0.1435 -0.4468  0.1029
  326MOL0     C43920   2.506  11.338  11.384 -0.3893  0.2789  0.0493
  326MOL0     C43921   2.641  11.305  11.372 -0.2520  0.2696  1.0686
  326MOL0     O43922   2.889  11.261  11.630  0.4751 -0.2489 -0.7175
  326MOL0     C43923   3.107  11.074  11.435  0.3719 -0.0465 -0.5682
  326MOL0     C43924   3.227  11.007  11.446  0.6515 -0.4482  0.4001
  326MOL0     N43925   3.954  10.588  11.386 -0.1592 -0.1238  0.6211
  326MOL0     N43926   4.017  10.499  11.318  0.1024  0.6876 -0.0318
  326MOL0     C43927   2.937   9.974  11.121  1.4400  0.2915  1.2024
  326MOL0     C43928   2.799   9.994  11.144  0.0573  0.3259  0.5145
  326MOL0     C43929   2.416  10.284  11.165 -0.3023  0.0752 -0.8925
  326MOL0     C43930   2.404  10.279  11.305  0.0652  0.1444 -0.1518
  326MOL0     C43931   2.285  10.318  11.364 -0.5879  0.3235 -0.3003
  326MOL0     C43932   2.180  10.376  11.296 -0.7783  0.4338 -0.1377
  326MOL0     O43933   2.067  10.422  11.359  0.4161 -0.4727 -0.0902
  326MOL0     C43934   2.079  10.486  11.493  0.1205  0.0567  0.8333
  326MOL0     C43935   1.955  10.576  11.501  0.4838 -0.2910  0.1375
  326MOL0     C43936   1.827  10.496  11.502 -0.4195  0.3936  0.8238
  326MOL0     C43937   1.739  10.545  11.612  1.3276  0.6269  0.3263
  326MOL0     C43938   1.611  10.474  11.599  0.5014 -0.3508  0.0105
  326MOL0     C43939   1.502  10.420  11.578 -0.4058  0.1962  0.6117
  326MOL0     C43940   2.195  10.387  11.156  0.8412  0.6299 -0.8729
  326MOL0     C43941   2.312  10.352  11.085  0.0192  0.0819  0.1808
  326MOL0     C43942   2.333  10.397  10.943  0.1798 -0.0088 -0.6081
  326MOL0     H43943   2.795  10.339  11.117  2.1621  1.1889  0.8172
  326MOL0     H43944   3.032  10.299  11.079 -2.3693  2.6545  2.0525
  326MOL0     H43945   3.199  10.148  10.950 -1.1215 -2.2211 -0.1211
  326MOL0     H43946   3.247  10.231  11.102  2.7027 -0.1136 -1.2808
  326MOL0     H43947   3.404  10.019  10.951 -2.4189  1.4113 -0.8742
  326MOL0     H43948   3.387  10.011  11.122 -2.5672 -1.5272 -1.1907
  326MOL0     H43949   3.450  10.247  11.146 -0.6903 -2.0073  1.3801
  326MOL0     H43950   3.480  10.262  10.979 -1.3259 -0.2412  0.8124
  326MOL0     H43951   3.645  10.099  11.179  2.3167  1.2952 -0.8819
  326MOL0     H43952   3.655  10.068  11.002 -1.6111  2.2392 -2.5705
  326MOL0     H43953   3.713  10.301  10.968 -0.3196  2.9194  1.0969
  326MOL0     H43954   3.714  10.334  11.143 -1.8716 -0.7909  0.9883
  326MOL0     H43955   3.911  10.156  10.977 -2.5380 -1.1137  0.2796
  326MOL0     H43956   3.947  10.318  11.044 -0.0422  0.4294 -0.0055
  326MOL0     H43957   4.012  10.081  11.151  0.2249 -0.4586 -0.7211
  326MOL0     H43958   3.866  10.125  11.251 -0.3935  4.5657  0.7021
  326MOL0     H43959   4.058  10.186  11.358 -1.6949 -1.7815 -0.3618
  326MOL0     H43960   4.115  10.285  11.222 -1.3783 -1.2520 -3.3513
  326MOL0     H43961   3.769  10.313  11.439 -0.6552  2.0188  3.7252
  326MOL0     H43962   3.708  10.530  11.602 -1.9684  1.7469 -0.5373
  326MOL0     H43963   3.820  10.671  11.600 -0.6127 -0.4303  0.9895
  326MOL0     H43964   3.717  10.747  11.388 -3.6678  0.3418 -2.0904
  326MOL0     H43965   3.602  10.611  11.405  2.4120 -2.9704  0.7523
  326MOL0     H43966   3.647  10.830  11.620 -0.6777  0.3016  0.6013
  326MOL0     H43967   3.538  10.691  11.637 -1.2698  0.2088 -0.9813
  326MOL0     H43968   3.390  10.764  11.458  0.3788 -0.0508  1.1807
  326MOL0     H43969   3.489  10.908  11.425 -1.0168 -0.9423 -0.6028
  326MOL0     H43970   3.250  11.031  11.788 -1.0373 -2.1788  1.1182
  326MOL0     H43971   3.059  11.148  11.765  2.4171  0.6924  0.8023
  326MOL0     H43972   2.666  11.070  11.613  2.2082  0.8680 -1.5080
  326MOL0     H43973   2.442  11.103  11.625  1.8969 -0.4905  0.7338
  326MOL0     H43974   2.274  11.471  11.443  0.2512  0.4044 -0.2629
  326MOL0     H43975   2.198  11.356  11.331  2.6013  2.2335 -0.2497
  326MOL0     H43976   2.018  11.330  11.447  1.1953  0.6697 -1.2015
  326MOL0     H43977   2.090  11.345  11.613 -2.9179  0.2257  0.3183
  326MOL0     H43978   2.109  11.593  11.581 -0.3687  2.0882 -1.9367
  326MOL0     H43979   2.046  11.591  11.428 -0.0176  1.2722  0.6602
  326MOL0     H43980   1.896  11.491  11.666  1.5538  1.9200 -0.3708
  326MOL0     H43981   1.826  11.487  11.502 -0.8861 -1.0398  0.2237
  326MOL0     H43982   1.916  11.759  11.612  3.0485 -0.1687 -2.0229
  326MOL0     H43983   1.752  11.682  11.630 -0.7145 -1.7844 -1.5946
  326MOL0     H43984   1.868  11.705  11.350  0.3060  1.9851 -0.9310
  326MOL0     H43985   1.702  11.692  11.399 -1.6013 -0.0908  0.4001
  326MOL0     H43986   1.881  11.936  11.453 -1.8665  3.4588 -0.4095
  326MOL0     H43987   1.712  11.906  11.510 -0.5473  1.5375 -0.9226
  326MOL0     H43988   1.766  12.052  11.309  1.1057 -0.4388  1.1752
  326MOL0     H43989   1.820  11.895  11.228  0.6317  1.2329 -0.9220
  326MOL0     H43990   2.467  11.413  11.316 -2.7411  0.4013  1.4278
  326MOL0     H43991   2.707  11.353  11.300  0.3366 -0.9476  0.7849
  326MOL0     H43992   3.052  11.085  11.342  0.2195  1.2725 -0.3324
  326MOL0     H43993   3.271  10.955  11.362  0.7276  1.3496 -0.7289
  326MOL0     H43994   2.975   9.876  11.148  0.2742 -0.3055  0.7566
  326MOL0     H43995   2.731   9.910  11.150 -1.6713  1.4656 -1.6921
  326MOL0     H43996   2.479  10.222  11.358  1.4352  0.0254 -2.0743
  326MOL0     H43997   2.272  10.298  11.470  0.8597  1.9442  0.2385
  326MOL0     H43998   2.164  10.555  11.492  0.8553 -0.7175 -2.5291
  326MOL0     H43999   2.088  10.415  11.575  1.5023  0.8615  1.4119
  326MOL0     H44000   1.947  10.647  11.419 -1.6270 -0.7144 -0.0761
  326MOL0     H44001   1.966  10.624  11.599 -0.1296 -1.0489  0.5966
  326MOL0     H44002   1.854  10.391  11.513  0.5923 -0.0147 -3.6026
  326MOL0     H44003   1.788  10.499  11.400  1.7146  2.3040 -0.0424
  326MOL0     H44004   1.773  10.520  11.712  0.1224 -4.3134 -0.2362
  326MOL0     H44005   1.712  10.651  11.606 -5.2607 -0.6267 -0.9792
  326MOL0     H44006   1.408  10.383  11.543  0.5542  0.8003 -2.9111
  326MOL0     H44007   2.118  10.446  11.108  0.0622  2.5892  2.4726
  326MOL0     H44008   2.343  10.312  10.874 -3.7251 -0.6306 -0.6244
  326MOL0     H44009   2.245  10.446  10.900 -0.7777 -0.7705  0.4544
  326MOL0     H44010   2.427  10.454  10.946  1.1253 -1.4802 -1.0418
  327MOL0     O44011  11.320   6.946   3.370 -0.4462 -0.3465  0.0581
  327MOL0     C44012  11.383   7.043   3.326  0.0754 -0.1468 -0.2068
  327MOL0     O44013  11.340   7.138   3.240  0.5321 -0.1697  0.3302
  327MOL0     C44014  11.199   7.173   3.240 -0.4438  0.7772 -0.4542
  327MOL0     C44015  11.125   7.186   3.354 -0.0237  0.5356  0.8864
  327MOL0     C44016  10.999   7.220   3.358  0.2612 -0.1172 -0.2124
  327MOL0     C44017  10.935   7.266   3.237  0.4612  1.0951  0.0569
  327MOL0     O44018  10.828   7.340   3.226 -0.5702 -0.2938  0.1140
  327MOL0     C44019  10.770   7.389   3.346  0.1481 -0.1442  0.8360
  327MOL0     C44020  10.646   7.483   3.320 -0.5603 -0.2373 -0.3821
  327MOL0     C44021  10.690   7.627   3.283  0.9752  0.6783 -0.1813
  327MOL0     C44022  10.567   7.716   3.245 -0.2047  0.1691 -1.3524
  327MOL0     C44023  10.609   7.834   3.161 -0.4126  0.4075  0.4766
  327MOL0     C44024  10.536   7.841   3.024 -0.4874 -0.1002 -0.8515
  327MOL0     C44025  10.560   7.974   2.951 -0.0664  0.0507 -0.5979
  327MOL0     C44026  10.508   7.972   2.810 -0.6686  0.1143  1.4602
  327MOL0     N44027  10.383   7.908   2.781  0.5358 -0.5277  0.0007
  327MOL0     C44028  10.258   7.962   2.807 -0.0520 -0.6517 -0.2173
  327MOL0     C44029  10.166   7.877   2.763 -0.5130  0.1476 -0.1109
  327MOL0     C44030  10.016   7.895   2.789 -0.4678 -0.0490 -0.6484
  327MOL0     C44031   9.950   7.920   2.661  0.5420  0.2400 -1.2826
  327MOL0     C44032   9.809   7.957   2.691  0.3714 -0.2718  0.3318
  327MOL0     C44033   9.730   7.954   2.563  0.0464  0.3994  0.0376
  327MOL0     O44034   9.583   7.939   2.575 -0.1549 -0.9664 -0.1105
  327MOL0     C44035   9.503   8.028   2.505  0.0765 -0.3453 -0.2674
  327MOL0     C44036   9.444   8.127   2.587  1.0022  0.7455  0.5270
  327MOL0     C44037   9.347   8.213   2.541  0.7383 -0.2378  0.6259
  327MOL0     C44038   9.331   8.218   2.398  0.7587  0.2756 -0.6296
  327MOL0     C44039   9.230   8.310   2.332 -0.0460 -0.3505  0.1776
  327MOL0     O44040   9.161   8.390   2.413  0.3188 -0.1847 -0.5049
  327MOL0     C44041   9.071   8.479   2.361  0.7741 -0.1964 -0.9046
  327MOL0     C44042   8.945   8.444   2.342 -0.4659  0.1449  0.4839
  327MOL0     C44043   8.859   8.523   2.262  0.6835 -0.1824 -0.2168
  327MOL0     C44044   8.892   8.645   2.214 -0.4410 -0.5138 -0.0621
  327MOL0     O44045   8.798   8.721   2.158  0.9072 -0.3802 -0.8380
  327MOL0     C44046   8.811   8.868   2.159  0.0801  0.5131 -0.7789
  327MOL0     C44047   8.678   8.934   2.107 -0.2862  0.0038 -0.0362
  327MOL0     C44048   8.642   9.064   2.180  0.3892  0.0287 -0.3003
  327MOL0     C44049   8.732   9.184   2.158 -0.2813 -0.1825  0.5255
  327MOL0     C44050   8.669   9.319   2.191  0.9220 -0.3591 -0.0936
  327MOL0     C44051   8.776   9.437   2.182  0.2480 -0.7214 -0.1183
  327MOL0     C44052   8.728   9.584   2.191 -0.5979 -0.7504 -0.3351
  327MOL0     C44053   8.843   9.686   2.192  0.5568 -1.2787 -0.0972
  327MOL0    Cl44054   8.927   9.681   2.036  0.3388 -0.4946 -0.0945
  327MOL0     C44055   9.024   8.684   2.243  0.3852  0.7333  0.3848
  327MOL0     C44056   9.110   8.604   2.322 -0.3359 -1.2082 -0.6127
  327MOL0     O44057   9.219   8.308   2.208 -0.1208  0.4501  0.2266
  327MOL0     C44058   9.395   8.120   2.313 -0.0674 -0.9327 -0.4215
  327MOL0     C44059   9.489   8.030   2.367  0.7304 -0.6355  0.3162
  327MOL0     N44060  10.235   7.766   2.709 -0.3431 -0.0243  0.4030
  327MOL0     N44061  10.366   7.790   2.714  0.4014 -0.8232 -0.1942
  327MOL0     C44062  11.005   7.243   3.121 -0.3823 -0.4954  1.1869
  327MOL0     C44063  11.139   7.191   3.113  0.5065 -0.5973 -0.3996
  327MOL0     C44064  11.527   7.046   3.347  0.1000  0.7235  0.3153
  327MOL0     C44065  11.600   6.932   3.302 -0.1305  0.4021 -0.4481
  327MOL0     C44066  11.738   6.917   3.316 -0.0558  0.3120  1.5155
  327MOL0     C44067  11.808   7.025   3.385  0.6900 -0.2367 -0.2425
  327MOL0     O44068  11.944   7.027   3.407 -0.5816 -0.1114 -0.3891
  327MOL0     C44069  12.012   6.904   3.417  1.1718  0.8757 -0.5686
  327MOL0     C44070  11.988   6.853   3.566 -0.7562 -0.1036  0.1506
  327MOL0     C44071  12.059   6.714   3.582  1.1218  0.0075  0.5564
  327MOL0     C44072  12.105   6.677   3.715 -0.5360  0.1961 -0.2921
  327MOL0     C44073  12.220   6.743   3.783  0.1492 -0.7288 -0.8782
  327MOL0     C44074  12.322   6.798   3.831 -0.3271 -0.9899  0.8726
  327MOL0     C44075  11.745   7.135   3.427 -0.5510  0.1735 -0.2956
  327MOL0     C44076  11.601   7.148   3.409  0.3628 -0.4126 -0.9803
  327MOL0     C44077  11.537   7.281   3.463  0.2086 -0.2033 -0.1445
  327MOL0     H44078  11.156   7.156   3.454  0.3137 -0.3708  0.5174
  327MOL0     H44079  10.955   7.216   3.456  0.5737 -0.1778 -0.0740
  327MOL0     H44080  10.741   7.298   3.400  2.7167 -1.8039 -0.3782
  327MOL0     H44081  10.839   7.450   3.405 -1.3558  2.1360  0.3534
  327MOL0     H44082  10.584   7.486   3.410 -2.1160 -1.7497 -1.3525
  327MOL0     H44083  10.572   7.443   3.251  1.7738 -0.6592 -2.8159
  327MOL0     H44084  10.764   7.618   3.203  1.9338 -2.2377  0.8908
  327MOL0     H44085  10.755   7.658   3.365  1.0452 -2.4283  1.0744
  327MOL0     H44086  10.493   7.659   3.187 -0.5885  0.9917 -1.6762
  327MOL0     H44087  10.519   7.743   3.340  0.4057 -2.6593 -0.1343
  327MOL0     H44088  10.583   7.925   3.217  1.4347 -0.1863  2.4039
  327MOL0     H44089  10.717   7.835   3.145 -0.3447 -1.0337  0.6793
  327MOL0     H44090  10.583   7.759   2.969  1.8252 -0.3072  1.2091
  327MOL0     H44091  10.430   7.819   3.034 -0.5849  0.3602 -0.8447
  327MOL0     H44092  10.665   8.003   2.957 -1.0081  3.6022  1.9812
  327MOL0     H44093  10.509   8.053   3.006  0.7490  0.9936 -1.1675
  327MOL0     H44094  10.511   8.073   2.769  1.0261  0.5680  2.5864
  327MOL0     H44095  10.587   7.927   2.749  1.6644  2.3382  2.6781
  327MOL0     H44096  10.247   8.061   2.850  2.2353 -0.5656  0.2749
  327MOL0     H44097   9.984   7.801   2.835  1.6482 -0.8772 -0.7868
  327MOL0     H44098   9.997   7.980   2.856 -1.1968 -0.3120 -0.5070
  327MOL0     H44099  10.003   8.010   2.628  0.4550  0.3575 -1.0989
  327MOL0     H44100   9.958   7.825   2.607  0.4207  0.4576 -1.6859
  327MOL0     H44101   9.798   8.052   2.743  0.9294  0.0834 -0.1912
  327MOL0     H44102   9.778   7.871   2.752 -0.4432  0.4290  0.9240
  327MOL0     H44103   9.757   7.875   2.492 -0.7920  0.5346 -0.4500
  327MOL0     H44104   9.749   8.049   2.511 -2.5433 -0.4490 -2.7828
  327MOL0     H44105   9.459   8.112   2.694 -0.1933 -0.2256  0.5858
  327MOL0     H44106   9.294   8.276   2.613 -0.6127 -1.1079  0.4144
  327MOL0     H44107   8.906   8.350   2.380  0.1415  0.1942  1.2437
  327MOL0     H44108   8.763   8.484   2.229  0.4990  1.2606 -1.5102
  327MOL0     H44109   8.825   8.889   2.265  1.0998  1.4174 -1.0800
  327MOL0     H44110   8.892   8.903   2.094  1.5839 -2.5627 -0.7368
  327MOL0     H44111   8.673   8.936   1.997 -1.9772 -3.5255 -0.1504
  327MOL0     H44112   8.598   8.864   2.132  1.8423 -2.3724  0.4994
  327MOL0     H44113   8.536   9.092   2.171  0.5481  1.4295  1.4687
  327MOL0     H44114   8.645   9.052   2.289  0.4492  0.8511 -0.2030
  327MOL0     H44115   8.771   9.192   2.057  1.1337 -0.6544  1.0012
  327MOL0     H44116   8.819   9.169   2.223  0.6498 -1.7954 -1.0134
  327MOL0     H44117   8.637   9.315   2.296 -0.8716 -0.6312 -0.6144
  327MOL0     H44118   8.579   9.339   2.132 -0.0538 -0.5960  1.2636
  327MOL0     H44119   8.854   9.417   2.255 -0.0556 -1.0360  0.1177
  327MOL0     H44120   8.816   9.434   2.080  0.9657  2.2595 -0.0167
  327MOL0     H44121   8.670   9.610   2.279  1.7404  6.5364 -0.2934
  327MOL0     H44122   8.670   9.624   2.107 -0.5397  0.2743  0.1025
  327MOL0     H44123   8.794   9.783   2.204  1.1953 -1.2662  3.6667
  327MOL0     H44124   8.905   9.674   2.281 -0.7991 -2.2326  0.7588
  327MOL0     H44125   9.064   8.782   2.217  0.2766  1.4677  2.7097
  327MOL0     H44126   9.209   8.641   2.346 -0.8748 -0.6738  0.8608
  327MOL0     H44127   9.386   8.113   2.205  6.0725 -1.1048 -1.2997
  327MOL0     H44128   9.553   7.962   2.310  1.2550  1.0909 -1.2623
  327MOL0     H44129  10.942   7.267   3.035 -1.7189 -0.8987  2.0179
  327MOL0     H44130  11.192   7.182   3.018 -0.2894 -2.1427 -0.7440
  327MOL0     H44131  11.543   6.850   3.259 -0.6541 -0.4803  1.7966
  327MOL0     H44132  11.786   6.831   3.271  0.7590  1.4600  0.0877
  327MOL0     H44133  12.119   6.910   3.394  0.9580  0.7011 -1.6393
  327MOL0     H44134  11.974   6.835   3.342 -1.1638  2.5794 -1.0547
  327MOL0     H44135  11.880   6.840   3.581 -0.4528 -1.4462  1.3184
  327MOL0     H44136  12.021   6.929   3.637 -2.0670  0.9578 -0.3271
  327MOL0     H44137  12.137   6.695   3.508  1.2830  1.3293  0.3660
  327MOL0     H44138  11.983   6.640   3.553  0.0090  1.5226 -0.5532
  327MOL0     H44139  12.020   6.676   3.784  1.7445 -3.2902  2.8329
  327MOL0     H44140  12.130   6.570   3.717  1.0992  0.5246 -1.3829
  327MOL0     H44141  12.409   6.831   3.883  0.5735 -0.1275 -1.0778
  327MOL0     H44142  11.815   7.210   3.464 -1.8969  2.3041 -1.8616
  327MOL0     H44143  11.432   7.260   3.486 -0.6374  1.9319 -1.7525
  327MOL0     H44144  11.584   7.297   3.561  0.2970  0.6097 -0.3205
  327MOL0     H44145  11.552   7.369   3.401  2.0558 -0.2012  0.2489
  328MOL0     O44146   5.766   1.065   3.254 -0.4605 -0.1825  0.2018
  328MOL0     C44147   5.804   1.180   3.225 -0.6467  0.2907  0.5487
  328MOL0     O44148   5.934   1.226   3.242  0.3196 -0.3545 -0.4242
  328MOL0     C44149   6.035   1.152   3.298 -0.1579  0.4361  0.4070
  328MOL0     C44150   6.019   1.063   3.402 -0.9894  1.4945  0.0269
  328MOL0     C44151   6.129   0.987   3.464  0.3640  0.4046 -0.5671
  328MOL0     C44152   6.265   1.007   3.425  0.1850 -0.8811  0.5320
  328MOL0     O44153   6.366   0.947   3.492  0.3609 -0.2483  0.3938
  328MOL0     C44154   6.501   0.932   3.433  0.2462  0.2176  0.3097
  328MOL0     C44155   6.570   0.838   3.524  0.4052 -0.2362  0.1076
  328MOL0     C44156   6.722   0.819   3.490 -0.0063  0.4030 -0.5049
  328MOL0     C44157   6.805   0.766   3.609 -0.3756  0.2370  0.3861
  328MOL0     C44158   6.956   0.779   3.567  0.7528 -0.5440 -0.0395
  328MOL0     C44159   7.062   0.746   3.676 -0.1752 -0.2223  1.0722
  328MOL0     C44160   7.201   0.736   3.620 -0.2412  0.1555 -1.0829
  328MOL0     C44161   7.297   0.701   3.728 -0.6016 -0.7697  0.0522
  328MOL0     N44162   7.419   0.635   3.670 -0.0925  1.0147 -0.0316
  328MOL0     C44163   7.544   0.696   3.646  0.2668 -0.3737  0.0279
  328MOL0     C44164   7.615   0.588   3.613  0.6006 -0.3104 -0.3841
  328MOL0     C44165   7.753   0.587   3.567 -0.1479 -0.3577  0.1564
  328MOL0     C44166   7.851   0.509   3.658 -0.8438  0.0571  0.5562
  328MOL0     C44167   7.864   0.356   3.620  0.2801 -1.0413 -0.4088
  328MOL0     C44168   7.982   0.287   3.680  0.2396  0.2082  0.4186
  328MOL0     O44169   8.087   0.317   3.593  0.1235  0.2904  0.4955
  328MOL0     C44170   8.216   0.267   3.610  0.5797  0.4459 -0.6089
  328MOL0     C44171   8.309   0.260   3.502 -0.0004 -0.1059  0.6003
  328MOL0     C44172   8.451   0.233   3.518 -0.1792 -0.6867  0.4612
  328MOL0     C44173   8.491   0.193   3.646 -1.1551 -0.6019 -0.7121
  328MOL0     C44174   8.640   0.169   3.668 -0.1164 -0.5490  0.5598
  328MOL0     O44175   8.723   0.178   3.560  0.2563  0.0205 -0.1567
  328MOL0     C44176   8.856   0.181   3.565  0.1174 -0.1852  0.5395
  328MOL0     C44177   8.916   0.149   3.441  0.6084  0.6879  0.5722
  328MOL0     C44178   9.054   0.139   3.433 -0.0476  0.2036 -0.5637
  328MOL0     C44179   9.139   0.178   3.531  0.1257 -0.4464  0.4261
  328MOL0     O44180   9.267   0.164   3.494  0.1344  0.5699  0.1629
  328MOL0     C44181   9.369   0.211   3.588  1.3212  1.2770 -1.0707
  328MOL0     C44182   9.496   0.172   3.509 -0.5107  0.2849  0.4354
  328MOL0     C44183   9.628   0.210   3.590  0.1686  0.0126  0.0705
  328MOL0     C44184   9.740   0.247   3.495  0.6314  0.1187 -0.8900
  328MOL0     C44185   9.863   0.293   3.578  0.3319 -0.6443 -0.6672
  328MOL0     C44186   9.939   0.180   3.655 -0.2115  0.6923  0.6155
  328MOL0     C44187  10.043   0.236   3.744 -0.3879  0.3662 -0.5287
  328MOL0     C44188  10.122   0.122   3.820 -0.2784  0.6929  0.6880
  328MOL0    Cl44189  10.259   0.216   3.898  0.4499  0.0839  0.6507
  328MOL0     C44190   9.079   0.223   3.657  0.1712 -0.1759 -0.2101
  328MOL0     C44191   8.941   0.215   3.672 -0.1827 -0.4269  0.2656
  328MOL0     O44192   8.669   0.159   3.785 -0.4038  0.0736  0.4937
  328MOL0     C44193   8.400   0.200   3.753  0.7349  0.6922  0.2472
  328MOL0     C44194   8.263   0.242   3.739 -0.2063  0.3899 -0.2650
  328MOL0     N44195   7.539   0.470   3.626 -0.6842 -0.1677 -0.1250
  328MOL0     N44196   7.430   0.497   3.669  0.0093 -0.0747 -0.0954
  328MOL0     C44197   6.281   1.103   3.311 -0.1219 -0.3354  0.0969
  328MOL0     C44198   6.169   1.169   3.254 -0.7872  0.1962 -0.7763
  328MOL0     C44199   5.702   1.288   3.197  1.3615 -0.7442  0.2452
  328MOL0     C44200   5.736   1.425   3.221  0.3986 -0.5706 -0.5088
  328MOL0     C44201   5.645   1.533   3.185 -0.3208  0.9125 -0.4802
  328MOL0     C44202   5.529   1.504   3.118  0.0528  0.5036  0.0706
  328MOL0     O44203   5.444   1.600   3.068 -0.4565  0.1400  0.0972
  328MOL0     C44204   5.441   1.724   3.126 -0.0623 -0.1846 -0.3488
  328MOL0     C44205   5.304   1.787   3.090  0.0536 -0.6191 -0.3308
  328MOL0     C44206   5.198   1.692   3.115  0.5824 -0.5270 -1.1216
  328MOL0     C44207   5.069   1.739   3.065  0.2000 -0.1041  0.2348
  328MOL0     C44208   4.962   1.630   3.047  0.0513 -0.0555  0.0461
  328MOL0     C44209   4.874   1.547   3.033 -0.1458  0.0609  0.1617
  328MOL0     C44210   5.491   1.371   3.102  0.2400  0.4552 -0.9169
  328MOL0     C44211   5.577   1.262   3.134 -0.5598  0.2448 -0.5107
  328MOL0     C44212   5.537   1.129   3.089  0.5609  0.6615 -0.3741
  328MOL0     H44213   5.922   1.040   3.447 -0.3096 -1.0882  0.3329
  328MOL0     H44214   6.112   0.923   3.550 -0.9586  4.3522  2.3842
  328MOL0     H44215   6.494   0.892   3.331 -0.3619 -1.5681  1.0185
  328MOL0     H44216   6.562   1.022   3.427  1.1322  0.0932  4.3970
  328MOL0     H44217   6.513   0.745   3.525  0.5312 -0.3093  0.5674
  328MOL0     H44218   6.565   0.885   3.623 -1.1858 -0.2591  0.0645
  328MOL0     H44219   6.761   0.909   3.442 -3.0569  2.6817  0.9754
  328MOL0     H44220   6.733   0.745   3.410 -0.6928  0.3140 -0.5204
  328MOL0     H44221   6.781   0.831   3.693  2.2414  2.0868 -0.1964
  328MOL0     H44222   6.769   0.669   3.645  2.3596  0.1083  3.2442
  328MOL0     H44223   6.975   0.717   3.479  2.4670  0.3989 -0.3680
  328MOL0     H44224   6.975   0.884   3.547  2.1511 -0.8201 -0.2126
  328MOL0     H44225   7.065   0.828   3.749  0.7962  1.3000 -0.5874
  328MOL0     H44226   7.044   0.647   3.718  0.1304 -1.6755 -1.9545
  328MOL0     H44227   7.227   0.833   3.575 -0.8138  1.7812  1.8870
  328MOL0     H44228   7.198   0.657   3.544 -0.1159 -0.5442 -0.3758
  328MOL0     H44229   7.322   0.787   3.792  0.1387 -2.2174  1.7969
  328MOL0     H44230   7.256   0.623   3.794 -1.1745  0.3700  1.0861
  328MOL0     H44231   7.573   0.800   3.646  1.8366 -0.7724  1.3872
  328MOL0     H44232   7.758   0.540   3.469  1.7998  1.2172 -0.5664
  328MOL0     H44233   7.779   0.692   3.554 -2.1398  0.1791  0.1270
  328MOL0     H44234   7.951   0.554   3.659 -0.2842 -0.5025  6.3577
  328MOL0     H44235   7.822   0.515   3.763  2.5544 -5.0870  2.2104
  328MOL0     H44236   7.860   0.345   3.511 -0.7824  0.9148 -0.6053
  328MOL0     H44237   7.776   0.303   3.659 -0.0249  0.1591  0.6107
  328MOL0     H44238   7.972   0.178   3.677  2.4685 -0.0907  1.9727
  328MOL0     H44239   7.992   0.311   3.786 -1.4174  0.7969  0.4694
  328MOL0     H44240   8.267   0.277   3.403  0.2188 -1.2380  0.3015
  328MOL0     H44241   8.504   0.220   3.424 -1.1412  0.5954 -0.2949
  328MOL0     H44242   8.856   0.134   3.352 -0.3427  0.6327  1.2047
  328MOL0     H44243   9.085   0.106   3.335  1.7543 -0.6681  0.2490
  328MOL0     H44244   9.369   0.320   3.596  3.7005  1.4975 -2.8913
  328MOL0     H44245   9.366   0.170   3.689 -1.3891  1.8711 -0.8156
  328MOL0     H44246   9.494   0.063   3.516 -1.3975  0.2663  0.0366
  328MOL0     H44247   9.480   0.215   3.410 -0.0373 -2.8140 -1.1098
  328MOL0     H44248   9.603   0.297   3.650  0.3765 -0.0267  0.2127
  328MOL0     H44249   9.653   0.138   3.668 -1.0397 -0.7752 -0.2283
  328MOL0     H44250   9.709   0.338   3.442  0.4491  5.7281  7.0262
  328MOL0     H44251   9.764   0.165   3.427  0.2918 -2.3110  1.7310
  328MOL0     H44252   9.837   0.373   3.649  4.9089  0.2923  0.3372
  328MOL0     H44253   9.935   0.336   3.508  2.0828  2.1245  2.4966
  328MOL0     H44254   9.878   0.119   3.723  1.6018 -1.9070  0.0708
  328MOL0     H44255   9.978   0.119   3.573 -3.1525 -1.8864  0.9182
  328MOL0     H44256  10.002   0.299   3.823 -1.3464  0.3825 -1.0255
  328MOL0     H44257  10.114   0.293   3.684  0.2860  1.5070  1.2691
  328MOL0     H44258  10.050   0.084   3.893 -2.0522  1.6014 -0.5078
  328MOL0     H44259  10.158   0.045   3.751 -1.7953  0.7710 -0.2448
  328MOL0     H44260   9.134   0.262   3.742 -3.2482  2.5308  0.9794
  328MOL0     H44261   8.907   0.251   3.768  0.6389  1.5100 -0.1082
  328MOL0     H44262   8.433   0.177   3.854 -0.9806  0.9113  0.8825
  328MOL0     H44263   8.194   0.249   3.822 -2.1227 -1.7498 -1.5490
  328MOL0     H44264   6.379   1.128   3.272  1.1510 -2.3734  1.7471
  328MOL0     H44265   6.194   1.243   3.178 -2.9687 -0.0161 -1.7756
  328MOL0     H44266   5.830   1.460   3.262 -1.2891  2.0968  1.4018
  328MOL0     H44267   5.675   1.635   3.205  1.8529  0.4718 -1.2163
  328MOL0     H44268   5.523   1.783   3.084  1.3782 -1.3705  0.7031
  328MOL0     H44269   5.457   1.722   3.234 -3.2655  1.8906  0.2955
  328MOL0     H44270   5.296   1.807   2.982 -1.0216 -1.3100 -0.3935
  328MOL0     H44271   5.278   1.870   3.156 -1.6877 -1.6669  0.3370
  328MOL0     H44272   5.194   1.669   3.222 -2.4888  0.1472 -0.9872
  328MOL0     H44273   5.228   1.607   3.053  2.9556 -1.4895  1.1649
  328MOL0     H44274   5.015   1.812   3.126 -3.4205 -2.3722  0.0986
  328MOL0     H44275   5.084   1.792   2.971 -0.5823 -0.3104 -0.0132
  328MOL0     H44276   4.798   1.481   2.997  2.0773 -3.5327  1.5020
  328MOL0     H44277   5.388   1.350   3.077  0.4777 -3.0212  0.5431
  328MOL0     H44278   5.454   1.142   3.019  0.1498  1.9355  0.3161
  328MOL0     H44279   5.624   1.079   3.045  0.6660  1.1035 -0.6894
  328MOL0     H44280   5.492   1.082   3.177 -2.5919 -0.5699 -2.4671
  329MOL0     O44281   6.748   8.227   0.094  0.6884 -0.8342 -0.4692
  329MOL0     C44282   6.769   8.130   0.167 -0.4009 -0.3543  0.1681
  329MOL0     O44283   6.688   8.023   0.176 -0.4474  0.2117  0.7318
  329MOL0     C44284   6.581   8.021   0.092 -0.6750 -0.3210  0.3570
  329MOL0     C44285   6.576   7.929  -0.017 -1.0638  0.3995  1.0049
  329MOL0     C44286   6.469   7.922  -0.099 -0.0329  0.4328 -0.1879
  329MOL0     C44287   6.362   7.999  -0.082  0.2438  0.2915  0.0609
  329MOL0     O44288   6.266   7.991  -0.181 -1.0334 -0.1980  1.0442
  329MOL0     C44289   6.190   8.109  -0.201 -0.9692  0.7404 -0.0510
  329MOL0     C44290   6.089   8.086  -0.303 -0.2536  0.0211 -0.4998
  329MOL0     C44291   6.004   7.969  -0.273  0.2245  0.5917  0.0526
  329MOL0     C44292   5.855   8.002  -0.263 -0.1665  0.4257 -0.1467
  329MOL0     C44293   5.759   7.880  -0.293 -0.0571 -0.6384  0.0490
  329MOL0     C44294   5.769   7.772  -0.184 -0.2596 -0.3790 -0.5788
  329MOL0     C44295   5.657   7.680  -0.183 -0.3709  0.0351  0.4811
  329MOL0     C44296   5.696   7.530  -0.151 -0.2129  0.3025  0.3901
  329MOL0     N44297   5.756   7.522  -0.018 -0.1520 -0.2959  0.0827
  329MOL0     C44298   5.713   7.432   0.081  0.1531 -0.4207 -0.6235
  329MOL0     C44299   5.802   7.444   0.183  0.5564  0.3047  0.4626
  329MOL0     C44300   5.827   7.376   0.315 -0.3203 -0.4029 -0.1093
  329MOL0     C44301   5.826   7.222   0.318 -0.5805 -0.8083  0.0902
  329MOL0     C44302   5.922   7.151   0.219  0.2359  0.4346  0.7711
  329MOL0     C44303   6.072   7.165   0.250 -0.1682 -0.4414 -1.3927
  329MOL0     O44304   6.089   7.097   0.383  0.0733 -0.5138  0.3231
  329MOL0     C44305   6.208   7.106   0.446  0.1055 -0.2924  0.3193
  329MOL0     C44306   6.327   7.157   0.390 -0.1794  0.0566 -0.9209
  329MOL0     C44307   6.448   7.159   0.457 -0.4571 -0.0700  0.0115
  329MOL0     C44308   6.452   7.116   0.590 -0.2506 -0.0824 -0.4558
  329MOL0     C44309   6.578   7.101   0.665  0.1806 -0.3918 -0.0233
  329MOL0     O44310   6.678   7.170   0.608 -0.2399 -0.0160 -0.5711
  329MOL0     C44311   6.780   7.209   0.690  0.0361 -0.3202  0.0118
  329MOL0     C44312   6.775   7.243   0.831 -0.4746  1.2238  0.6991
  329MOL0     C44313   6.892   7.284   0.899  0.0799 -0.1594  0.0769
  329MOL0     C44314   7.021   7.295   0.827 -0.0527  0.4106  0.7655
  329MOL0     O44315   7.135   7.340   0.888 -0.3397 -0.3321  0.1072
  329MOL0     C44316   7.150   7.320   1.032  0.8923  0.8487 -0.1577
  329MOL0     C44317   7.289   7.280   1.073 -0.3275  0.8334 -0.0964
  329MOL0     C44318   7.383   7.396   1.030  0.8645  0.8285  0.2115
  329MOL0     C44319   7.524   7.363   1.075 -0.4669 -0.2144 -0.2663
  329MOL0     C44320   7.632   7.460   1.028  0.8555 -0.2276 -0.5157
  329MOL0     C44321   7.773   7.412   1.023 -0.5224  0.4465 -0.3881
  329MOL0     C44322   7.817   7.387   1.165  0.4949 -0.2296 -0.4064
  329MOL0     C44323   7.958   7.343   1.167  0.1666 -0.3783 -0.6374
  329MOL0    Cl44324   7.982   7.257   1.328 -0.4526  0.0255  0.0961
  329MOL0     C44325   7.027   7.247   0.701 -0.0003 -0.0867  0.4924
  329MOL0     C44326   6.906   7.210   0.634  0.6918 -0.1199 -0.1798
  329MOL0     O44327   6.590   7.021   0.760  0.1532 -0.4566  0.5042
  329MOL0     C44328   6.326   7.084   0.652 -0.6991  0.2152 -0.3322
  329MOL0     C44329   6.212   7.074   0.576 -0.0011  0.1418 -0.4166
  329MOL0     N44330   5.911   7.519   0.137 -0.2835 -0.2750 -0.1637
  329MOL0     N44331   5.880   7.557   0.018 -0.6553 -0.5829 -0.7588
  329MOL0     C44332   6.371   8.104   0.020  0.0409  0.2629  0.2829
  329MOL0     C44333   6.479   8.119   0.110  0.6456 -0.4561  0.3185
  329MOL0     C44334   6.892   8.126   0.239 -0.6725  0.0442  0.2967
  329MOL0     C44335   6.929   8.000   0.286 -0.2065  0.4327 -0.3694
  329MOL0     C44336   7.049   7.986   0.358  0.4370 -0.4045 -0.2556
  329MOL0     C44337   7.129   8.103   0.387  0.1995  0.3843  0.4085
  329MOL0     O44338   7.243   8.096   0.466 -0.0498 -0.3885  0.0861
  329MOL0     C44339   7.307   7.971   0.511  0.1053 -0.2216 -0.0084
  329MOL0     C44340   7.424   8.031   0.584 -0.3612 -0.3607 -0.3760
  329MOL0     C44341   7.472   7.937   0.693 -0.3362  0.1988  0.5357
  329MOL0     C44342   7.373   7.948   0.814 -0.7159 -0.7244 -1.2799
  329MOL0     C44343   7.415   7.864   0.929 -0.5070 -1.2290 -0.4165
  329MOL0     C44344   7.442   7.810   1.037  0.4608 -0.5497  0.2017
  329MOL0     C44345   7.095   8.230   0.333 -0.0341 -0.1062  1.0800
  329MOL0     C44346   6.972   8.239   0.269 -0.3050 -0.4775 -0.4365
  329MOL0     C44347   6.923   8.382   0.248  0.0715 -0.4199  0.7744
  329MOL0     H44348   6.654   7.855  -0.033 -2.9467 -1.2666 -1.2277
  329MOL0     H44349   6.468   7.848  -0.179 -0.6348  0.4155 -0.1704
  329MOL0     H44350   6.138   8.135  -0.108  1.5095  0.5174  1.4758
  329MOL0     H44351   6.247   8.199  -0.226  0.0183  0.4066  0.9117
  329MOL0     H44352   6.147   8.075  -0.395 -0.0255 -0.5073 -0.2957
  329MOL0     H44353   6.017   8.168  -0.310 -2.0685 -1.2071  2.3018
  329MOL0     H44354   6.043   7.922  -0.182  1.3069  0.3474 -0.5210
  329MOL0     H44355   6.007   7.893  -0.351 -2.9107  1.0159 -0.6386
  329MOL0     H44356   5.836   8.032  -0.159 -2.9011 -2.2355  0.2376
  329MOL0     H44357   5.831   8.085  -0.330  0.2183  2.5615  2.1907
  329MOL0     H44358   5.658   7.921  -0.306  1.3514  2.9525 -1.0447
  329MOL0     H44359   5.789   7.830  -0.386  3.4419  0.3974  0.4430
  329MOL0     H44360   5.856   7.707  -0.193  0.0740  0.2284 -2.0886
  329MOL0     H44361   5.766   7.821  -0.086 -1.0600 -3.5672  1.1183
  329MOL0     H44362   5.616   7.674  -0.284  0.2229  0.7757  0.1863
  329MOL0     H44363   5.579   7.724  -0.119  0.7803  2.5455  0.2691
  329MOL0     H44364   5.606   7.472  -0.128  0.3319  0.2844  2.7470
  329MOL0     H44365   5.757   7.486  -0.230  0.8346  0.6118  1.0056
  329MOL0     H44366   5.619   7.379   0.095  0.7345 -1.1182  0.8697
  329MOL0     H44367   5.917   7.415   0.362 -0.9597  3.5846 -1.8328
  329MOL0     H44368   5.741   7.414   0.371 -0.6666  1.8787 -2.0316
  329MOL0     H44369   5.837   7.185   0.420 -2.9277  0.6121  0.9547
  329MOL0     H44370   5.734   7.172   0.286  1.1369 -1.5231 -4.5176
  329MOL0     H44371   5.904   7.183   0.116  1.0431 -2.9006 -0.5570
  329MOL0     H44372   5.904   7.044   0.232 -1.6893  0.9271  2.7184
  329MOL0     H44373   6.091   7.272   0.260 -0.5362 -0.6016  3.1339
  329MOL0     H44374   6.134   7.111   0.177 -0.0844 -0.2122 -1.4921
  329MOL0     H44375   6.334   7.196   0.289 -0.1675  1.3149 -0.4533
  329MOL0     H44376   6.535   7.182   0.397 -0.5003 -2.3183 -1.0058
  329MOL0     H44377   6.680   7.241   0.884 -1.1155 -2.7182 -0.2628
  329MOL0     H44378   6.871   7.306   1.003 -0.3047  0.8473 -0.2023
  329MOL0     H44379   7.133   7.414   1.086  0.0278  1.9688 -2.2349
  329MOL0     H44380   7.092   7.233   1.063  3.5858 -0.3924  1.7569
  329MOL0     H44381   7.313   7.249   1.175 -0.2707 -1.6401 -0.7939
  329MOL0     H44382   7.315   7.189   1.018 -1.7936  0.9479 -1.0442
  329MOL0     H44383   7.376   7.397   0.921 -2.1918 -1.7324  0.2519
  329MOL0     H44384   7.348   7.485   1.084  1.9824 -0.2285  2.8445
  329MOL0     H44385   7.549   7.260   1.045  0.4834 -1.0909  3.0791
  329MOL0     H44386   7.530   7.374   1.183 -0.5818  1.0254 -0.3753
  329MOL0     H44387   7.632   7.556   1.081 -0.0952  0.1489 -1.1737
  329MOL0     H44388   7.599   7.490   0.929 -2.1182  0.5161  0.6153
  329MOL0     H44389   7.785   7.313   0.977  2.0336 -0.9910  2.9281
  329MOL0     H44390   7.840   7.487   0.981  0.9771 -0.1325  0.8714
  329MOL0     H44391   7.750   7.314   1.211  2.4708 -2.0842 -0.2690
  329MOL0     H44392   7.807   7.472   1.233 -1.6866  1.7593 -2.9705
  329MOL0     H44393   7.982   7.276   1.083 -1.4202 -1.8367  0.0037
  329MOL0     H44394   8.023   7.431   1.160 -1.5325  1.3163  2.6013
  329MOL0     H44395   7.118   7.242   0.641 -0.4005 -2.1970 -0.0271
  329MOL0     H44396   6.903   7.187   0.528 -1.6679  0.7672 -0.3457
  329MOL0     H44397   6.318   7.069   0.759  1.3667  0.5441 -0.0995
  329MOL0     H44398   6.125   7.029   0.620 -1.4800  0.8680 -2.4521
  329MOL0     H44399   6.277   8.155   0.036 -0.0794 -0.2539  1.2921
  329MOL0     H44400   6.472   8.183   0.197  2.3244 -0.2518  0.3465
  329MOL0     H44401   6.861   7.916   0.276 -0.4424  0.8437 -2.7598
  329MOL0     H44402   7.079   7.896   0.409  1.2260  1.5756  3.1104
  329MOL0     H44403   7.344   7.908   0.429  0.3728 -0.7966  0.5461
  329MOL0     H44404   7.242   7.906   0.570 -0.3027  0.6153  0.4853
  329MOL0     H44405   7.394   8.130   0.618 -0.0274 -0.1166 -0.7753
  329MOL0     H44406   7.508   8.034   0.513  0.5349 -1.5794  0.5927
  329MOL0     H44407   7.576   7.951   0.726 -0.5018 -0.5515  1.4202
  329MOL0     H44408   7.468   7.832   0.663 -0.8009  0.5826 -0.7929
  329MOL0     H44409   7.363   8.045   0.865  2.0541 -1.6672  1.3025
  329MOL0     H44410   7.274   7.916   0.780 -0.5886 -0.4514 -1.9250
  329MOL0     H44411   7.467   7.746   1.119 -1.4683 -3.0911 -1.0603
  329MOL0     H44412   7.162   8.315   0.346 -0.0377 -0.0539  0.7757
  329MOL0     H44413   6.924   8.409   0.142 -3.3829  2.2975  1.2857
  329MOL0     H44414   6.818   8.392   0.275  0.4408  0.0737  2.0919
  329MOL0     H44415   6.989   8.447   0.306  2.4357 -2.1192  0.1668
  330MOL0     O44416   6.374  10.075   5.366  0.0008  0.0379  0.1143
  330MOL0     C44417   6.297  10.171   5.360 -0.0472  0.3375  1.0270
  330MOL0     O44418   6.334  10.295   5.403  0.3033 -0.6100  0.3996
  330MOL0     C44419   6.457  10.328   5.446 -1.1204 -0.3448 -0.2530
  330MOL0     C44420   6.555  10.252   5.513  0.3863 -0.3890  0.5753
  330MOL0     C44421   6.683  10.306   5.549 -0.8764  0.7855  0.1189
  330MOL0     C44422   6.720  10.436   5.512  0.2490 -0.0790 -0.4196
  330MOL0     O44423   6.850  10.462   5.551 -0.1406  0.3098 -0.0904
  330MOL0     C44424   6.907  10.594   5.533  0.5497 -0.5923  0.3811
  330MOL0     C44425   6.887  10.700   5.644 -0.8866  0.1003  0.5612
  330MOL0     C44426   7.023  10.754   5.685  0.1618  0.9528  0.4219
  330MOL0     C44427   7.004  10.846   5.807  0.1128  0.0496  0.1869
  330MOL0     C44428   7.143  10.903   5.846 -0.1716 -0.3306 -0.0547
  330MOL0     C44429   7.246  10.793   5.872 -0.5195 -0.7722  0.6231
  330MOL0     C44430   7.382  10.832   5.940  0.0929 -0.2009  0.0487
  330MOL0     C44431   7.469  10.937   5.860 -0.8061 -0.2344 -0.2468
  330MOL0     N44432   7.609  10.928   5.875  0.0254  0.4068 -0.9367
  330MOL0     C44433   7.694  10.943   5.980  0.0381 -0.1507 -0.6259
  330MOL0     C44434   7.817  10.900   5.949  0.2057 -0.2394 -0.3619
  330MOL0     C44435   7.935  10.879   6.044 -0.1126  0.1445 -0.0226
  330MOL0     C44436   8.078  10.876   5.976  0.8714  0.2721 -0.0863
  330MOL0     C44437   8.111  11.012   5.899  0.4767  0.8007 -1.0716
  330MOL0     C44438   8.258  10.996   5.859 -0.2985 -0.6847  0.5351
  330MOL0     O44439   8.289  11.128   5.809  0.5321  0.3488  0.2319
  330MOL0     C44440   8.417  11.163   5.777  0.0621  0.4259  0.4766
  330MOL0     C44441   8.443  11.267   5.676  0.1196  0.2731 -0.6838
  330MOL0     C44442   8.576  11.297   5.639 -0.1618  0.0016  0.2494
  330MOL0     C44443   8.687  11.225   5.689 -0.0264  0.6375 -0.4905
  330MOL0     C44444   8.821  11.242   5.640  0.8972 -0.0773 -0.3840
  330MOL0     O44445   8.925  11.229   5.728  0.4776 -0.4449 -0.6333
  330MOL0     C44446   9.048  11.249   5.681  0.6857  0.4861 -0.1403
  330MOL0     C44447   9.112  11.366   5.716 -1.3321 -0.1111 -1.0960
  330MOL0     C44448   9.252  11.379   5.685 -0.2171  0.6581  1.1937
  330MOL0     C44449   9.316  11.272   5.609 -0.4713 -0.5031 -0.2475
  330MOL0     O44450   9.452  11.290   5.570 -0.0878 -0.7469 -0.0044
  330MOL0     C44451   9.551  11.260   5.664 -0.0088 -0.6290 -0.1644
  330MOL0     C44452   9.681  11.273   5.584 -0.8277 -0.8106 -0.6614
  330MOL0     C44453   9.705  11.140   5.513  0.2494  0.6313  0.7944
  330MOL0     C44454   9.791  11.149   5.388 -0.4056 -0.8676  0.0822
  330MOL0     C44455   9.936  11.196   5.435 -0.4231  0.5256 -0.0825
  330MOL0     C44456  10.041  11.176   5.325  0.5632  0.2919 -0.0493
  330MOL0     C44457  10.068  11.029   5.283 -0.3907 -0.4607  0.3914
  330MOL0     C44458  10.134  11.026   5.143 -0.1025 -0.7176 -0.8235
  330MOL0    Cl44459  10.278  11.127   5.133 -0.2609  0.1668 -0.0337
  330MOL0     C44460   9.235  11.165   5.566  0.3365  0.2282  0.0005
  330MOL0     C44461   9.104  11.153   5.603  0.0231 -0.1707 -0.6322
  330MOL0     O44462   8.833  11.292   5.522  0.5691 -0.7694 -0.9718
  330MOL0     C44463   8.665  11.134   5.792  1.0935 -0.0782  0.7577
  330MOL0     C44464   8.532  11.096   5.829 -0.7232  0.9512  0.2556
  330MOL0     N44465   7.812  10.871   5.819  0.1128  1.0915 -0.0527
  330MOL0     N44466   7.686  10.887   5.779 -0.4455  0.1890 -0.2249
  330MOL0     C44467   6.631  10.513   5.437 -0.0333  0.0888 -0.3768
  330MOL0     C44468   6.509  10.456   5.408 -0.5180  0.0749  0.6256
  330MOL0     C44469   6.158  10.149   5.295  0.9220 -0.0763 -0.0826
  330MOL0     C44470   6.089  10.257   5.245 -0.0603  0.4178  0.5289
  330MOL0     C44471   5.960  10.241   5.203  0.2736 -0.4260  0.1979
  330MOL0     C44472   5.892  10.124   5.204  0.0035 -0.1433 -0.1392
  330MOL0     O44473   5.757  10.137   5.164 -0.7554  0.0213 -0.6198
  330MOL0     C44474   5.667  10.024   5.191  0.0686  0.3532 -0.1147
  330MOL0     C44475   5.545  10.044   5.110  0.7447 -0.4546  0.1606
  330MOL0     C44476   5.569  10.018   4.964  0.4650  0.1355  0.1728
  330MOL0     C44477   5.438  10.045   4.881  0.8820  0.6166 -0.2960
  330MOL0     C44478   5.374   9.915   4.855 -0.9469  0.6893 -0.4066
  330MOL0     C44479   5.332   9.805   4.829 -0.0918  0.3975  0.1491
  330MOL0     C44480   5.954  10.007   5.244 -0.3756 -0.7420 -0.3383
  330MOL0     C44481   6.090  10.022   5.290  1.0683 -0.0813  0.9066
  330MOL0     C44482   6.158   9.887   5.328 -0.2969 -0.7749 -0.2117
  330MOL0     H44483   6.537  10.146   5.529 -1.3886 -0.4038 -1.0145
  330MOL0     H44484   6.753  10.243   5.604 -3.8248 -2.3016  0.6545
  330MOL0     H44485   7.015  10.576   5.532  1.2209  2.7601 -0.1340
  330MOL0     H44486   6.885  10.636   5.434 -2.0367  0.6798  1.3947
  330MOL0     H44487   6.852  10.645   5.732 -0.6510 -0.3119  0.3962
  330MOL0     H44488   6.822  10.785   5.621  0.0539  1.1517  1.6336
  330MOL0     H44489   7.063  10.801   5.595 -2.5803 -0.4733 -1.7135
  330MOL0     H44490   7.090  10.673   5.715  0.4628  1.1426  0.2687
  330MOL0     H44491   6.939  10.929   5.775  2.4929  0.9512 -2.7595
  330MOL0     H44492   6.959  10.792   5.890 -0.3504  1.0138  0.5828
  330MOL0     H44493   7.178  10.978   5.774  0.6777  0.5176  1.1952
  330MOL0     H44494   7.124  10.955   5.941 -1.2782 -0.4810 -0.1844
  330MOL0     H44495   7.196  10.713   5.928 -0.3976  1.0735  3.6006
  330MOL0     H44496   7.280  10.746   5.779  3.1813  2.7175 -0.0906
  330MOL0     H44497   7.434  10.737   5.954 -0.2318 -0.0916  2.3425
  330MOL0     H44498   7.352  10.872   6.037  2.1281  0.0222  0.6155
  330MOL0     H44499   7.459  10.945   5.751  0.2229  3.3927 -0.2175
  330MOL0     H44500   7.438  11.040   5.881 -2.7616 -1.0702  1.2528
  330MOL0     H44501   7.655  10.983   6.073 -1.1859  0.0553 -1.2037
  330MOL0     H44502   7.930  10.944   6.132 -1.5023 -0.3628  0.2990
  330MOL0     H44503   7.916  10.780   6.085 -0.4379 -0.7718 -2.2055
  330MOL0     H44504   8.147  10.842   6.054  0.2731 -1.0049 -0.0885
  330MOL0     H44505   8.070  10.798   5.900 -2.8946  2.0871 -1.8549
  330MOL0     H44506   8.104  11.100   5.964 -0.8765  1.3977 -1.9824
  330MOL0     H44507   8.050  11.036   5.812  0.2591  0.8471 -0.9082
  330MOL0     H44508   8.280  10.923   5.781  1.3813  0.4340 -0.0772
  330MOL0     H44509   8.316  10.968   5.948  1.2743  0.3738 -0.1344
  330MOL0     H44510   8.360  11.322   5.632 -0.5969 -0.8627 -0.8012
  330MOL0     H44511   8.592  11.375   5.564  0.0611  2.1505  2.4026
  330MOL0     H44512   9.069  11.447   5.774  3.1274  0.4560  1.9116
  330MOL0     H44513   9.307  11.469   5.707 -0.6973  1.5477 -0.9599
  330MOL0     H44514   9.532  11.332   5.744 -1.2900 -1.1220  0.0013
  330MOL0     H44515   9.560  11.160   5.707  3.8520  0.6673  2.6074
  330MOL0     H44516   9.672  11.354   5.512  0.1515 -0.5804 -0.5426
  330MOL0     H44517   9.766  11.307   5.643 -0.9866  1.3101 -1.5721
  330MOL0     H44518   9.756  11.074   5.585  1.8855  1.3923  0.3759
  330MOL0     H44519   9.616  11.094   5.470  3.8142 -3.5773 -3.2002
  330MOL0     H44520   9.739  11.224   5.329 -0.8654 -1.7862 -0.7118
  330MOL0     H44521   9.798  11.055   5.333  3.2621 -0.2146 -0.8196
  330MOL0     H44522   9.959  11.146   5.530 -0.7317  3.0467  1.3920
  330MOL0     H44523   9.927  11.303   5.454  0.2971  1.1936 -2.9377
  330MOL0     H44524  10.000  11.244   5.249 -1.6759  0.1942  0.9856
  330MOL0     H44525  10.138  11.208   5.363  0.7087  1.5117 -1.3407
  330MOL0     H44526   9.984  10.959   5.274 -1.0151  0.4113 -1.0463
  330MOL0     H44527  10.116  10.972   5.363 -3.0459 -2.4382  0.7538
  330MOL0     H44528  10.159  10.924   5.116 -1.0970 -1.2472  0.1405
  330MOL0     H44529  10.047  11.062   5.087 -2.4786 -0.5168  2.6715
  330MOL0     H44530   9.285  11.083   5.516 -0.3657 -0.9496  1.1669
  330MOL0     H44531   9.044  11.064   5.587 -0.6826 -0.1277  1.4168
  330MOL0     H44532   8.747  11.074   5.832 -1.2741 -3.3339  1.1260
  330MOL0     H44533   8.533  11.022   5.908  4.7823 -0.3609 -0.6293
  330MOL0     H44534   6.661  10.611   5.399  0.6468  2.3066  4.9941
  330MOL0     H44535   6.439  10.506   5.342 -1.7708 -0.4549  1.4895
  330MOL0     H44536   6.128  10.358   5.235 -0.5684  0.5795  0.1731
  330MOL0     H44537   5.901  10.324   5.164 -0.0963 -0.3756  0.8571
  330MOL0     H44538   5.636  10.033   5.295 -1.4701  1.3388 -0.6215
  330MOL0     H44539   5.716   9.928   5.171  0.7830  0.9100 -1.1528
  330MOL0     H44540   5.497  10.142   5.116 -0.8242 -0.8854 -3.2166
  330MOL0     H44541   5.472   9.967   5.136 -1.2681  1.0601 -0.8130
  330MOL0     H44542   5.592   9.911   4.953  1.8402  0.2407  1.6616
  330MOL0     H44543   5.653  10.073   4.921  1.1966 -2.1503 -1.4889
  330MOL0     H44544   5.361  10.102   4.933 -0.0844  0.5651 -1.6489
  330MOL0     H44545   5.458  10.091   4.784 -0.1614  0.5364 -0.5517
  330MOL0     H44546   5.286   9.721   4.782  0.6319  0.7102 -1.1391
  330MOL0     H44547   5.898   9.914   5.252 -2.6873  0.6258  0.6235
  330MOL0     H44548   6.209   9.898   5.424 -0.5338 -1.0531 -0.0512
  330MOL0     H44549   6.090   9.804   5.352 -1.4379 -0.0837 -0.9444
  330MOL0     H44550   6.233   9.850   5.258  2.9457 -2.2120  3.6488
  331MOL0     O44551   0.380   4.729   9.577 -0.3859  1.2503  0.5004
  331MOL0     C44552   0.427   4.614   9.568 -0.3901  0.1931  0.0783
  331MOL0     O44553   0.433   4.540   9.450  0.8485 -0.2573 -0.5258
  331MOL0     C44554   0.384   4.602   9.335 -0.3369  0.8647 -0.5734
  331MOL0     C44555   0.436   4.544   9.219 -0.0830 -0.6262  0.1152
  331MOL0     C44556   0.389   4.578   9.093  0.1834 -0.4976  1.0970
  331MOL0     C44557   0.288   4.678   9.080  0.0103 -0.4198 -0.8187
  331MOL0     O44558   0.235   4.742   8.964  0.0561 -0.6967 -0.6697
  331MOL0     C44559   0.231   4.663   8.849  0.1840 -0.3634 -0.8075
  331MOL0     C44560   0.152   4.738   8.734  0.0519 -0.1699  0.3277
  331MOL0     C44561   0.111   4.653   8.611 -0.4994  0.1983 -0.4976
  331MOL0     C44562   0.105   4.738   8.487 -0.0170  0.2538 -0.4416
  331MOL0     C44563   0.071   4.649   8.365  0.5562 -1.0161  0.3422
  331MOL0     C44564   0.059   4.728   8.230  0.5713 -0.0452 -0.9741
  331MOL0     C44565   0.043   4.635   8.115 -0.1537  0.4163 -0.2281
  331MOL0     C44566   0.006   4.702   7.985 -0.5985  0.1793 -0.1172
  331MOL0     N44567   0.088   4.816   7.956 -0.1052  0.0153  0.2976
  331MOL0     C44568   0.224   4.823   7.912  0.3073  0.9269  0.4020
  331MOL0     C44569   0.252   4.953   7.914 -1.0819 -0.2390 -0.3024
  331MOL0     C44570   0.395   5.000   7.881  0.1832  0.0067 -0.5002
  331MOL0     C44571   0.405   5.151   7.862  0.0739  0.1158  0.3016
  331MOL0     C44572   0.532   5.213   7.793 -0.5613  0.1386  0.4542
  331MOL0     C44573   0.544   5.367   7.813  0.2261 -1.2406  0.8338
  331MOL0     O44574   0.677   5.413   7.861 -0.3134 -0.4033 -0.3155
  331MOL0     C44575   0.784   5.363   7.794 -0.2988  0.6676  0.3771
  331MOL0     C44576   0.901   5.367   7.870 -0.3746  0.6313 -0.2617
  331MOL0     C44577   1.023   5.321   7.808 -1.1502  0.1348  0.6321
  331MOL0     C44578   1.033   5.282   7.673 -0.0533  0.4125 -0.2580
  331MOL0     C44579   1.164   5.261   7.618  0.1714  0.0347 -0.4350
  331MOL0     O44580   1.169   5.248   7.487 -0.2401 -0.3280 -0.3663
  331MOL0     C44581   1.291   5.212   7.427 -0.2244 -0.5890  0.0430
  331MOL0     C44582   1.396   5.128   7.475 -0.5347  0.0898 -0.4609
  331MOL0     C44583   1.506   5.106   7.390  0.5233 -0.6762 -0.3136
  331MOL0     C44584   1.525   5.173   7.271  0.2295 -0.6033 -0.0130
  331MOL0     O44585   1.632   5.138   7.189  0.4333 -0.2912 -0.4901
  331MOL0     C44586   1.757   5.084   7.232 -0.6589  0.4341  0.3463
  331MOL0     C44587   1.838   5.056   7.099  0.1554  0.0395  0.1336
  331MOL0     C44588   1.977   4.995   7.135 -0.2093  0.6511  0.5805
  331MOL0     C44589   2.065   4.998   7.002 -0.7221  1.0578  0.4247
  331MOL0     C44590   2.193   4.912   7.027  0.7828 -0.2880 -0.4059
  331MOL0     C44591   2.179   4.761   7.025  0.4954  0.7556  0.2884
  331MOL0     C44592   2.099   4.710   6.902 -0.4742  0.1542 -0.0111
  331MOL0     C44593   2.125   4.558   6.898 -0.4502 -0.8026  1.0436
  331MOL0    Cl44594   1.996   4.489   6.799 -0.0354 -0.0533  0.3899
  331MOL0     C44595   1.412   5.238   7.211 -0.2167 -0.5514 -0.7274
  331MOL0     C44596   1.296   5.250   7.294 -0.1473 -0.0683 -0.4931
  331MOL0     O44597   1.264   5.264   7.694  0.5988 -0.4083 -0.9806
  331MOL0     C44598   0.918   5.265   7.603  0.2886 -0.2815  0.3977
  331MOL0     C44599   0.794   5.320   7.658  0.2667 -0.0855  0.5762
  331MOL0     N44600   0.142   5.031   7.948  0.2569  0.2591  0.4523
  331MOL0     N44601   0.041   4.943   7.981 -0.6314 -0.0945  0.0166
  331MOL0     C44602   0.235   4.734   9.200 -0.4400 -0.7239  0.7426
  331MOL0     C44603   0.269   4.680   9.323  0.3450 -0.3795 -0.5414
  331MOL0     C44604   0.521   4.557   9.672 -0.2187  0.2196  0.2398
  331MOL0     C44605   0.623   4.462   9.631 -0.7295 -0.7439 -0.1829
  331MOL0     C44606   0.718   4.421   9.722  0.0861 -0.7144  0.4079
  331MOL0     C44607   0.715   4.471   9.852  0.9312 -0.6014 -0.0010
  331MOL0     O44608   0.813   4.427   9.938 -0.0740 -0.0433  0.0411
  331MOL0     C44609   0.901   4.540   9.977 -0.7837 -0.4103  0.0873
  331MOL0     C44610   1.026   4.561   9.892 -0.2478  0.0709 -0.0384
  331MOL0     C44611   1.116   4.438   9.899 -0.5932  0.2605  0.3067
  331MOL0     C44612   1.186   4.414  10.037  0.3110  0.4496  0.7667
  331MOL0     C44613   1.291   4.502  10.074 -0.1716  0.2366 -0.0541
  331MOL0     C44614   1.369   4.594  10.108 -0.0822  0.7039 -0.0566
  331MOL0     C44615   0.612   4.548   9.897 -1.4132 -0.2702  0.3703
  331MOL0     C44616   0.514   4.587   9.806 -1.2065 -0.3370 -0.7786
  331MOL0     C44617   0.401   4.668   9.882  0.5569  0.8578  0.3272
  331MOL0     H44618   0.521   4.478   9.233 -1.1216 -1.7289  1.5742
  331MOL0     H44619   0.424   4.545   8.996  1.2034 -0.1749  1.3425
  331MOL0     H44620   0.334   4.646   8.815 -0.5183  0.9289 -3.9215
  331MOL0     H44621   0.181   4.569   8.875  1.6287 -0.2016  3.2951
  331MOL0     H44622   0.210   4.825   8.700 -3.5438  2.2791 -0.1613
  331MOL0     H44623   0.063   4.775   8.786  0.6119 -1.5878  2.4354
  331MOL0     H44624   0.011   4.611   8.617 -1.0972  1.6177  0.0374
  331MOL0     H44625   0.191   4.578   8.610  0.4369  1.1231  1.0467
  331MOL0     H44626   0.022   4.809   8.498 -0.2672 -0.4010  3.5880
  331MOL0     H44627   0.195   4.798   8.471 -1.4276  2.1785 -1.5886
  331MOL0     H44628   0.146   4.570   8.355  1.6834 -0.2429  2.1477
  331MOL0     H44629  -0.024   4.596   8.376  1.7997 -3.2382  0.9465
  331MOL0     H44630  -0.034   4.783   8.242  0.9128  0.5232 -0.8579
  331MOL0     H44631   0.138   4.802   8.211 -0.9482  2.2190  1.0090
  331MOL0     H44632  -0.043   4.569   8.133  0.0074  0.5354  1.0171
  331MOL0     H44633   0.133   4.573   8.115 -1.3717 -1.4519 -0.0820
  331MOL0     H44634   0.015   4.629   7.904  1.1590 -0.6153  0.7482
  331MOL0     H44635  -0.101   4.723   7.989 -0.6959 -0.4639  1.2616
  331MOL0     H44636   0.290   4.740   7.893  0.4084  1.0155  0.3649
  331MOL0     H44637   0.473   4.974   7.954 -0.1226 -1.6845 -0.7398
  331MOL0     H44638   0.434   4.953   7.791 -0.1079 -0.7573 -0.2363
  331MOL0     H44639   0.311   5.186   7.819  0.6586  4.0524  1.7259
  331MOL0     H44640   0.411   5.194   7.962  0.7865  1.4638 -0.2747
  331MOL0     H44641   0.526   5.187   7.687  0.5567 -1.2152  0.6912
  331MOL0     H44642   0.614   5.158   7.840 -2.2695 -0.8650  2.4125
  331MOL0     H44643   0.468   5.407   7.880 -0.4176 -2.1066  0.6257
  331MOL0     H44644   0.515   5.410   7.717 -0.4457 -0.3567  1.4140
  331MOL0     H44645   0.915   5.401   7.972  1.5033  3.4386 -1.3259
  331MOL0     H44646   1.113   5.346   7.864  0.0954 -1.3427 -0.6166
  331MOL0     H44647   1.388   5.069   7.566 -0.2564 -3.3524 -2.4980
  331MOL0     H44648   1.580   5.031   7.416  0.5396 -0.8224 -0.7693
  331MOL0     H44649   1.812   5.159   7.289  2.3640  0.4810 -2.3671
  331MOL0     H44650   1.760   4.990   7.288  0.1487 -0.6279 -1.4175
  331MOL0     H44651   1.784   4.979   7.045 -1.0118  2.1967 -1.9487
  331MOL0     H44652   1.855   5.147   7.040 -0.0658  0.5288  0.8033
  331MOL0     H44653   2.032   5.049   7.213 -0.1773 -1.7743  2.3702
  331MOL0     H44654   1.947   4.895   7.169 -2.7231  0.3891 -2.0494
  331MOL0     H44655   2.081   5.104   6.983 -2.3678  1.0113 -1.4809
  331MOL0     H44656   2.014   4.957   6.914  0.4986 -0.2031  0.2611
  331MOL0     H44657   2.242   4.956   7.115  2.7433  0.9014 -2.0189
  331MOL0     H44658   2.263   4.945   6.950 -0.0800  1.5481 -0.4621
  331MOL0     H44659   2.278   4.719   7.005 -0.1491 -0.3267 -0.7475
  331MOL0     H44660   2.119   4.734   7.113 -1.7637 -0.3988 -1.4936
  331MOL0     H44661   2.129   4.759   6.809  0.9323 -2.7380 -1.2130
  331MOL0     H44662   1.991   4.722   6.915 -0.6052 -2.2281  1.9183
  331MOL0     H44663   2.221   4.533   6.851 -1.0777 -3.1433  0.8560
  331MOL0     H44664   2.130   4.502   6.992  1.1332  0.0213  1.4853
  331MOL0     H44665   1.416   5.267   7.107 -0.8800  1.6498 -0.1800
  331MOL0     H44666   1.218   5.303   7.242 -0.3834 -0.4698 -0.5518
  331MOL0     H44667   0.916   5.226   7.502 -1.0919 -3.4259  1.5129
  331MOL0     H44668   0.707   5.322   7.593  0.5198 -2.0185  0.1384
  331MOL0     H44669   0.161   4.813   9.193 -0.4793 -0.8124  0.0915
  331MOL0     H44670   0.212   4.688   9.414  1.1327 -1.4283  0.0775
  331MOL0     H44671   0.636   4.416   9.533 -1.5005 -1.7552  0.1731
  331MOL0     H44672   0.802   4.354   9.706  2.0438  1.9148 -0.9913
  331MOL0     H44673   0.940   4.529  10.078 -0.0437  2.0103  0.1367
  331MOL0     H44674   0.842   4.632   9.966 -0.8076 -0.2543  1.4370
  331MOL0     H44675   1.078   4.654   9.916  0.2219  0.0198 -0.8082
  331MOL0     H44676   0.981   4.567   9.792 -0.4214 -2.2074 -0.1389
  331MOL0     H44677   1.201   4.447   9.831 -0.3137  0.5010  0.6870
  331MOL0     H44678   1.075   4.344   9.861  3.5484 -0.8102 -2.1727
  331MOL0     H44679   1.107   4.400  10.111  0.7030 -1.8163  0.8261
  331MOL0     H44680   1.236   4.318  10.020  2.8110  2.0818 -2.0271
  331MOL0     H44681   1.444   4.670  10.119 -0.1304  0.8547 -0.7305
  331MOL0     H44682   0.625   4.581  10.000  0.1659  0.8949 -0.1640
  331MOL0     H44683   0.399   4.658   9.990  1.8496 -1.2295  0.2241
  331MOL0     H44684   0.393   4.774   9.855  2.0637  1.5609  2.4079
  331MOL0     H44685   0.307   4.627   9.845  1.7555  0.3371 -2.4265
  332MOL0     O44686  10.453   6.676   5.814  0.5160 -0.2974 -1.0003
  332MOL0     C44687  10.450   6.577   5.886  0.3537  0.0627 -0.3477
  332MOL0     O44688  10.546   6.541   5.980 -1.3079  0.3060  0.5636
  332MOL0     C44689  10.661   6.620   5.977 -0.3716 -0.2800 -1.2555
  332MOL0     C44690  10.761   6.610   5.881 -0.4508  0.1722  0.8340
  332MOL0     C44691  10.863   6.704   5.883 -0.5348  0.0735  0.1356
  332MOL0     C44692  10.863   6.807   5.975 -0.2815  1.3029 -0.3928
  332MOL0     O44693  10.965   6.895   5.950  0.9310  0.5920 -0.3617
  332MOL0     C44694  10.965   7.018   6.022  0.5772  0.2046  0.3075
  332MOL0     C44695  11.086   7.098   5.980  0.0085  0.0409 -0.4673
  332MOL0     C44696  11.217   7.009   5.987 -0.8348  0.2165  0.2583
  332MOL0     C44697  11.347   7.098   5.968  0.7149 -0.4963 -0.4555
  332MOL0     C44698  11.482   7.032   5.994  0.3282  0.2082 -0.5541
  332MOL0     C44699  11.505   6.914   5.903 -0.2223  1.1812  0.0992
  332MOL0     C44700  11.537   6.941   5.756  0.1918  0.5335 -0.7670
  332MOL0     C44701  11.621   6.829   5.693 -0.4219  0.9739 -0.3245
  332MOL0     N44702  11.751   6.813   5.752  0.4299 -0.5038 -0.4324
  332MOL0     C44703  11.863   6.887   5.727  0.2927  0.0938 -0.4061
  332MOL0     C44704  11.963   6.813   5.774 -0.2415 -0.7735  1.0432
  332MOL0     C44705  12.108   6.861   5.760 -1.0891 -0.1932  0.1196
  332MOL0     C44706  12.142   6.932   5.894 -0.1978  1.0757  0.1036
  332MOL0     C44707  12.291   6.984   5.905 -0.0036 -0.9430  0.6450
  332MOL0     C44708  12.375   6.878   5.975 -0.4972 -0.3894  0.2069
  332MOL0     O44709  12.374   6.899   6.117 -0.0365  0.0025  0.2852
  332MOL0     C44710  12.463   6.828   6.195 -0.4888 -0.1184  0.4278
  332MOL0     C44711  12.459   6.849   6.337  0.4147 -0.5520  1.1836
  332MOL0     C44712  12.562   6.804   6.420  0.4467  0.2674 -1.0183
  332MOL0     C44713  12.660   6.710   6.366 -0.2231  0.1203  0.1358
  332MOL0     C44714  12.770   6.661   6.452 -0.6888  0.1897  0.1588
  332MOL0     O44715  12.767   6.698   6.585  0.1703 -0.2110 -0.1372
  332MOL0     C44716  12.873   6.672   6.677  0.0295 -0.3209 -0.1019
  332MOL0     C44717  13.005   6.655   6.640  0.7042  0.0806 -0.1691
  332MOL0     C44718  13.117   6.666   6.734 -0.3752 -0.3394  1.1138
  332MOL0     C44719  13.088   6.721   6.856 -0.0032 -0.5332  0.4688
  332MOL0     O44720  13.192   6.750   6.934  0.3875 -1.2647  0.0125
  332MOL0     C44721  13.315   6.800   6.886  0.4010  0.2047  0.6478
  332MOL0     C44722  13.396   6.734   7.005 -0.5269  0.0155  0.5178
  332MOL0     C44723  13.545   6.775   6.983  0.2251 -0.6495  0.3741
  332MOL0     C44724  13.632   6.706   7.088  0.5141 -0.1678 -0.0453
  332MOL0     C44725  13.775   6.730   7.081  0.0817  0.4150  0.0554
  332MOL0     C44726  13.818   6.876   7.103 -0.5448  0.1719 -0.1449
  332MOL0     C44727  13.959   6.896   7.172  0.5979 -0.3383 -0.0256
  332MOL0     C44728  14.056   6.941   7.062  0.2190  0.1967 -0.4877
  332MOL0    Cl44729  14.228   6.981   7.138  0.0776  0.1755  0.1167
  332MOL0     C44730  12.958   6.745   6.898  0.8053  0.1682  0.4527
  332MOL0     C44731  12.851   6.714   6.813  0.0902  0.0025 -0.0210
  332MOL0     O44732  12.855   6.593   6.404  0.3755  0.1501  0.3197
  332MOL0     C44733  12.657   6.678   6.231 -0.3593  1.0756 -0.3176
  332MOL0     C44734  12.560   6.741   6.153  0.7656 -0.3446 -0.0231
  332MOL0     N44735  11.916   6.707   5.830  0.8387  0.5642 -0.1459
  332MOL0     N44736  11.789   6.700   5.825  0.1149 -1.2327  0.1869
  332MOL0     C44737  10.764   6.817   6.070 -0.0494 -0.3854  0.1227
  332MOL0     C44738  10.660   6.728   6.076 -0.3906  0.6447  0.1062
  332MOL0     C44739  10.341   6.486   5.896 -0.1429 -0.5002 -0.1379
  332MOL0     C44740  10.213   6.535   5.914  0.3681  0.8751  0.9837
  332MOL0     C44741  10.105   6.448   5.946  0.3470 -0.5120 -0.5746
  332MOL0     C44742  10.126   6.304   5.950 -0.9089 -0.5591  0.5647
  332MOL0     O44743  10.026   6.215   5.983  0.8903  0.0663 -0.0195
  332MOL0     C44744   9.893   6.258   6.023 -0.6761 -0.5256 -0.1520
  332MOL0     C44745   9.798   6.148   6.068 -0.1840  0.5746 -0.2777
  332MOL0     C44746   9.771   6.033   5.970 -0.1705 -0.2561  1.0719
  332MOL0     C44747   9.647   5.939   6.005 -0.2766  0.0848 -0.1417
  332MOL0     C44748   9.678   5.873   6.129 -0.6014  0.0073 -0.0967
  332MOL0     C44749   9.725   5.814   6.229 -0.4886 -1.0461  0.5315
  332MOL0     C44750  10.256   6.255   5.924 -0.0052  0.3776 -0.9539
  332MOL0     C44751  10.361   6.340   5.897  0.0065 -0.2552  0.4801
  332MOL0     C44752  10.501   6.282   5.878  0.2612 -0.1861  0.4001
  332MOL0     H44753  10.738   6.526   5.816 -1.6853  0.9929  0.1928
  332MOL0     H44754  10.948   6.697   5.816  0.5732  0.3544  1.4614
  332MOL0     H44755  10.875   7.074   5.996 -0.5697 -2.0726 -0.8777
  332MOL0     H44756  10.969   7.009   6.131 -2.0738  0.0681  0.4651
  332MOL0     H44757  11.091   7.182   6.050  0.1873 -1.3310  1.2632
  332MOL0     H44758  11.078   7.132   5.877  0.5595 -1.8792 -1.1815
  332MOL0     H44759  11.219   6.938   5.904  2.1482 -0.8966  1.1566
  332MOL0     H44760  11.217   6.944   6.074 -0.4290 -1.1035 -0.6896
  332MOL0     H44761  11.339   7.158   5.877 -3.0626 -2.1721 -1.4292
  332MOL0     H44762  11.338   7.175   6.045  0.5279 -0.9173 -0.0456
  332MOL0     H44763  11.557   7.111   5.981  0.6036 -0.0591 -0.5955
  332MOL0     H44764  11.479   6.989   6.094  1.3547 -0.4706 -0.7986
  332MOL0     H44765  11.590   6.847   5.923 -1.8527 -2.4534 -3.6426
  332MOL0     H44766  11.416   6.851   5.915  1.1286 -0.5146  1.9154
  332MOL0     H44767  11.586   7.036   5.732  0.1576  0.7306 -0.0873
  332MOL0     H44768  11.438   6.943   5.710 -0.5570 -0.4118  0.7102
  332MOL0     H44769  11.569   6.734   5.707  3.2723 -1.6194 -2.1683
  332MOL0     H44770  11.630   6.841   5.584 -0.7494 -1.5483 -0.7128
  332MOL0     H44771  11.865   6.975   5.664 -1.4264 -0.5888 -1.4902
  332MOL0     H44772  12.186   6.786   5.749  1.4056  2.2832 -0.3010
  332MOL0     H44773  12.103   6.932   5.676  0.2267 -0.9864 -0.6570
  332MOL0     H44774  12.070   7.012   5.911  0.1706  1.0810  1.7240
  332MOL0     H44775  12.121   6.855   5.968  2.0458  1.0414  0.7813
  332MOL0     H44776  12.292   7.079   5.960 -0.1456  2.9263 -5.2016
  332MOL0     H44777  12.317   7.020   5.805 -2.3798 -2.1301 -0.4694
  332MOL0     H44778  12.479   6.887   5.944 -0.5126  1.1823  0.5353
  332MOL0     H44779  12.332   6.780   5.951 -0.6615 -0.6054  1.2928
  332MOL0     H44780  12.390   6.920   6.381  4.3965  4.6689  0.0779
  332MOL0     H44781  12.557   6.835   6.524 -0.2256 -0.4062 -0.8365
  332MOL0     H44782  13.038   6.624   6.542 -0.6892  1.3749 -1.0898
  332MOL0     H44783  13.212   6.628   6.699  0.0111 -1.6476  3.3983
  332MOL0     H44784  13.340   6.769   6.784 -1.1933  0.3651  0.1702
  332MOL0     H44785  13.312   6.909   6.889 -1.5363  0.2014  4.0854
  332MOL0     H44786  13.361   6.764   7.104 -0.0110  1.7098  0.2207
  332MOL0     H44787  13.394   6.625   6.997 -0.4274  0.1037 -1.0902
  332MOL0     H44788  13.567   6.731   6.885  0.2447  0.5746 -0.1860
  332MOL0     H44789  13.556   6.883   6.991  1.3327 -0.8660  2.6663
  332MOL0     H44790  13.608   6.599   7.088 -3.3328  0.5320  0.5060
  332MOL0     H44791  13.598   6.751   7.181  3.2375  1.1212  0.4141
  332MOL0     H44792  13.819   6.710   6.983 -2.7289  0.4729 -1.3102
  332MOL0     H44793  13.821   6.667   7.158 -1.0415 -1.7625 -0.9389
  332MOL0     H44794  13.824   6.915   7.001  1.0234 -0.3731 -0.2982
  332MOL0     H44795  13.743   6.931   7.159 -0.6767  0.9780 -1.0768
  332MOL0     H44796  13.985   6.806   7.228 -0.5335  0.2511  1.5064
  332MOL0     H44797  13.946   6.973   7.248  0.4216 -0.2659 -0.1274
  332MOL0     H44798  14.063   6.861   6.989 -3.1172  0.8767 -1.7391
  332MOL0     H44799  14.017   7.026   7.006 -0.4596  1.3624  1.6153
  332MOL0     H44800  12.928   6.788   6.993 -1.2614  0.8417 -0.4288
  332MOL0     H44801  12.746   6.728   6.838  0.3297  0.8313  0.5702
  332MOL0     H44802  12.718   6.597   6.194 -1.1164 -0.2586  1.2142
  332MOL0     H44803  12.564   6.710   6.049  0.1817 -0.0963 -0.1252
  332MOL0     H44804  10.766   6.901   6.138  1.5140 -0.0885 -0.2678
  332MOL0     H44805  10.578   6.740   6.146  0.3866 -0.0127  1.1816
  332MOL0     H44806  10.180   6.638   5.906 -2.5171 -0.0227 -0.2632
  332MOL0     H44807  10.007   6.495   5.950  1.6200  2.2264  1.3773
  332MOL0     H44808   9.846   6.321   5.947 -2.4957 -1.1295  0.4320
  332MOL0     H44809   9.906   6.324   6.110 -0.4115  0.4911 -0.9434
  332MOL0     H44810   9.708   6.204   6.096 -1.0304  0.6441 -2.8510
  332MOL0     H44811   9.838   6.095   6.155 -3.9304 -3.2819 -0.5240
  332MOL0     H44812   9.865   5.978   5.963 -0.3689 -0.3829 -1.5263
  332MOL0     H44813   9.738   6.068   5.872 -1.7980 -1.2624  1.2221
  332MOL0     H44814   9.550   5.988   6.014 -0.9743 -1.2235 -0.3608
  332MOL0     H44815   9.635   5.874   5.918  0.4099 -0.6378  0.2851
  332MOL0     H44816   9.755   5.758   6.315 -0.6446  0.0181  1.2912
  332MOL0     H44817  10.284   6.150   5.930  0.0516  0.3228 -2.0208
  332MOL0     H44818  10.495   6.184   5.830 -0.1476 -0.5252  1.1269
  332MOL0     H44819  10.555   6.341   5.804 -1.0816  0.1319 -0.3562
  332MOL0     H44820  10.559   6.275   5.970  1.4694  2.0562 -0.1226
  333MOL0     O44821   6.531   3.503   0.919 -0.0486  0.6814  0.1298
  333MOL0     C44822   6.473   3.405   0.960  0.2130 -0.6396  0.7314
  333MOL0     O44823   6.520   3.275   0.961  0.2704  0.1209  0.0082
  333MOL0     C44824   6.653   3.245   0.929  0.4597  0.3040 -0.5081
  333MOL0     C44825   6.696   3.210   0.795 -1.2411  0.1554  0.4151
  333MOL0     C44826   6.826   3.170   0.768 -0.0842  1.1265 -0.7163
  333MOL0     C44827   6.916   3.129   0.879 -0.2622 -0.1459 -0.0596
  333MOL0     O44828   7.041   3.083   0.839  0.4703 -0.0876 -0.1266
  333MOL0     C44829   7.107   3.002   0.936 -0.6724 -0.0359  0.2972
  333MOL0     C44830   7.237   2.931   0.871  0.0800 -0.6472  0.6114
  333MOL0     C44831   7.370   3.008   0.889 -0.3019  0.4862  0.1741
  333MOL0     C44832   7.509   2.940   0.868 -0.2638 -0.2470 -0.2166
  333MOL0     C44833   7.564   2.898   1.005 -0.7675 -0.2106  0.1991
  333MOL0     C44834   7.665   2.782   0.987  0.3718 -0.6010 -0.4241
  333MOL0     C44835   7.808   2.820   0.956 -0.3291  0.2077  0.1594
  333MOL0     C44836   7.897   2.704   0.920  0.2824 -0.2927 -0.8155
  333MOL0     N44837   8.030   2.745   0.913 -0.2221  0.0002 -0.0510
  333MOL0     C44838   8.092   2.810   0.811 -0.3222  0.0885  0.0708
  333MOL0     C44839   8.208   2.849   0.858  0.6414 -0.2438  0.1813
  333MOL0     C44840   8.312   2.932   0.785  0.4605  0.3484  0.2887
  333MOL0     C44841   8.379   2.852   0.671  0.9308  0.0273 -0.5747
  333MOL0     C44842   8.480   2.934   0.591  0.2614 -1.2494  0.6071
  333MOL0     C44843   8.507   2.863   0.447  0.4980 -0.2877  0.3798
  333MOL0     O44844   8.618   2.937   0.395  0.1077 -0.1030  0.1307
  333MOL0     C44845   8.748   2.915   0.426  0.1817  0.7350  0.5794
  333MOL0     C44846   8.839   2.998   0.351  0.4042  0.1599  0.2658
  333MOL0     C44847   8.977   2.964   0.346 -0.1103  0.3790 -0.3818
  333MOL0     C44848   9.021   2.852   0.428  0.1997  0.4757  0.6154
  333MOL0     C44849   9.168   2.814   0.428  0.2660  0.6280  0.4359
  333MOL0     O44850   9.249   2.895   0.358  0.1349  0.5277  0.3524
  333MOL0     C44851   9.376   2.861   0.328 -0.1576 -0.1533 -0.0388
  333MOL0     C44852   9.423   2.725   0.292 -0.0554 -0.9260 -1.7816
  333MOL0     C44853   9.560   2.702   0.255  0.4644 -0.2426 -0.9314
  333MOL0     C44854   9.651   2.809   0.251 -0.8568  0.2163 -0.3982
  333MOL0     O44855   9.775   2.777   0.207  0.3257 -0.4779  0.0492
  333MOL0     C44856   9.877   2.845   0.281  0.0409 -0.4581 -0.5680
  333MOL0     C44857  10.008   2.770   0.266  0.7084  0.2291  0.9549
  333MOL0     C44858   9.989   2.616   0.272 -0.4030  0.1285 -0.0293
  333MOL0     C44859  10.120   2.550   0.235  0.3505  0.1148 -0.4333
  333MOL0     C44860  10.114   2.399   0.199  0.8650 -0.7969 -0.1731
  333MOL0     C44861  10.247   2.326   0.184 -0.9928 -0.2642  0.7290
  333MOL0     C44862  10.220   2.210   0.082 -0.2748 -0.1750 -0.6244
  333MOL0     C44863  10.345   2.127   0.039  0.1239  0.6155  0.2757
  333MOL0    Cl44864  10.288   2.014  -0.091  0.0771  0.4082  0.2488
  333MOL0     C44865   9.602   2.941   0.287 -0.1550 -0.2993  0.1027
  333MOL0     C44866   9.466   2.963   0.317 -0.2497 -0.4929 -0.0465
  333MOL0     O44867   9.194   2.699   0.465  0.1413 -0.4437  0.0456
  333MOL0     C44868   8.931   2.785   0.511 -0.5634  0.4062  1.0143
  333MOL0     C44869   8.795   2.808   0.501  0.4765 -0.2399  0.2068
  333MOL0     N44870   8.219   2.798   0.985  0.1105  0.4121 -0.8604
  333MOL0     N44871   8.108   2.746   1.024  0.4281  0.2663  0.0171
  333MOL0     C44872   6.863   3.149   1.008  0.5545 -0.6727 -0.7829
  333MOL0     C44873   6.747   3.226   1.030  1.4762  0.4422 -0.0289
  333MOL0     C44874   6.342   3.426   1.024 -0.5781  0.2118 -0.0548
  333MOL0     C44875   6.332   3.382   1.159  0.3376 -0.6151 -0.3487
  333MOL0     C44876   6.210   3.417   1.225 -0.4551  0.4250  0.0379
  333MOL0     C44877   6.106   3.476   1.158  0.0344  0.4018  0.3794
  333MOL0     O44878   5.995   3.521   1.226 -0.0609  0.3956 -0.8956
  333MOL0     C44879   5.927   3.425   1.311 -0.9345  0.2557  0.1125
  333MOL0     C44880   5.783   3.437   1.283  1.0175  0.1903  0.8167
  333MOL0     C44881   5.736   3.398   1.147  0.6347 -0.7432  0.2995
  333MOL0     C44882   5.583   3.386   1.144 -0.1102  0.4679 -0.2847
  333MOL0     C44883   5.542   3.337   1.017 -0.1819 -0.5746 -1.2104
  333MOL0     C44884   5.516   3.280   0.910 -0.2148  0.6500  0.7544
  333MOL0     C44885   6.110   3.520   1.023 -0.4188  0.5365 -0.9248
  333MOL0     C44886   6.234   3.500   0.960  0.0229 -0.1369  0.7052
  333MOL0     C44887   6.250   3.564   0.826  0.3382  0.2756  0.7944
  333MOL0     H44888   6.641   3.220   0.702  0.2938 -2.6570 -0.9211
  333MOL0     H44889   6.861   3.161   0.666 -2.9089  0.2476 -1.7105
  333MOL0     H44890   7.144   3.056   1.024 -0.4213  0.7802 -0.2951
  333MOL0     H44891   7.034   2.923   0.958 -0.2664 -0.7180 -0.7224
  333MOL0     H44892   7.222   2.908   0.766  3.6017 -0.0796 -0.1287
  333MOL0     H44893   7.255   2.831   0.912 -0.6785 -0.4570  1.4680
  333MOL0     H44894   7.362   3.056   0.987  1.3767  3.0075 -0.7977
  333MOL0     H44895   7.367   3.080   0.806 -0.7089 -0.1858 -0.4009
  333MOL0     H44896   7.490   2.848   0.811 -1.5869 -2.3234  3.2614
  333MOL0     H44897   7.585   3.008   0.828 -0.1964  2.2392  3.6230
  333MOL0     H44898   7.607   2.973   1.073 -2.7247  1.5639 -0.4074
  333MOL0     H44899   7.474   2.859   1.052 -0.5926 -2.9419 -1.5005
  333MOL0     H44900   7.658   2.718   1.076 -2.4964  1.3112  0.8927
  333MOL0     H44901   7.632   2.721   0.903 -1.3428  1.6921 -1.5327
  333MOL0     H44902   7.859   2.865   1.042  1.5950 -1.0416 -0.2484
  333MOL0     H44903   7.810   2.897   0.878 -2.2812  0.0328 -0.0964
  333MOL0     H44904   7.886   2.624   0.994  1.4427  0.0968 -0.2066
  333MOL0     H44905   7.873   2.670   0.819  3.8128 -0.8966 -1.5893
  333MOL0     H44906   8.057   2.854   0.718  2.3075  0.6511 -0.7627
  333MOL0     H44907   8.272   3.029   0.754 -0.5667  0.0919  0.7752
  333MOL0     H44908   8.390   2.960   0.857  0.7884 -0.2186  0.1577
  333MOL0     H44909   8.438   2.765   0.702  1.3086  1.2703  2.6174
  333MOL0     H44910   8.300   2.816   0.604 -0.8396  1.1209  0.8263
  333MOL0     H44911   8.579   2.942   0.637  1.0514  2.2575 -1.2910
  333MOL0     H44912   8.423   3.027   0.578 -0.9355 -2.1273 -0.7352
  333MOL0     H44913   8.416   2.872   0.388  2.0919 -0.4301 -2.2586
  333MOL0     H44914   8.539   2.761   0.470  0.7879  0.2377  2.5180
  333MOL0     H44915   8.797   3.072   0.284 -1.5712 -2.9387 -2.1716
  333MOL0     H44916   9.040   3.022   0.280  0.4745 -0.6828 -0.7680
  333MOL0     H44917   9.352   2.643   0.291 -0.6497 -0.4751 -0.0809
  333MOL0     H44918   9.587   2.612   0.200 -1.4380  0.1592 -2.6118
  333MOL0     H44919   9.892   2.950   0.251  0.3296 -0.2533  0.2720
  333MOL0     H44920   9.862   2.846   0.389  1.4846  1.1449 -0.3326
  333MOL0     H44921  10.055   2.809   0.175  2.5191 -2.1918  0.7309
  333MOL0     H44922  10.081   2.788   0.345  1.8440 -1.3519  0.3336
  333MOL0     H44923   9.951   2.594   0.373  0.7507 -0.2262  0.3401
  333MOL0     H44924   9.918   2.587   0.194 -1.3789  2.4521 -0.0976
  333MOL0     H44925  10.189   2.560   0.319  1.1844 -3.3141 -0.5731
  333MOL0     H44926  10.159   2.601   0.146 -0.1960  2.5723  0.6717
  333MOL0     H44927  10.059   2.393   0.104  1.7446  1.0486 -0.8499
  333MOL0     H44928  10.055   2.345   0.273  1.0173  0.2972  0.7722
  333MOL0     H44929  10.324   2.396   0.149  0.3702 -0.6112  2.8925
  333MOL0     H44930  10.292   2.296   0.279  1.6873  0.8054 -0.0990
  333MOL0     H44931  10.184   2.252  -0.012 -0.4404  1.9264  0.3153
  333MOL0     H44932  10.144   2.141   0.121 -0.9025  0.4571 -0.7052
  333MOL0     H44933  10.427   2.186  -0.002  0.5766 -1.1675 -1.5904
  333MOL0     H44934  10.392   2.077   0.124  2.5862  1.3325 -0.5801
  333MOL0     H44935   9.672   3.021   0.311 -0.6767  0.1088  0.2646
  333MOL0     H44936   9.431   3.063   0.344 -0.0797 -0.1793 -0.9494
  333MOL0     H44937   8.980   2.710   0.572  1.8629  1.7250  0.8204
  333MOL0     H44938   8.724   2.747   0.556 -1.0090 -0.4982 -1.8712
  333MOL0     H44939   6.929   3.115   1.088 -1.2708 -2.3331  0.0846
  333MOL0     H44940   6.724   3.245   1.135 -1.4708 -1.3821 -0.2672
  333MOL0     H44941   6.416   3.347   1.219 -0.3536 -1.1477  0.3152
  333MOL0     H44942   6.207   3.375   1.325  3.7976 -2.0436 -0.6522
  333MOL0     H44943   5.939   3.461   1.414  1.9958 -0.9695  0.2814
  333MOL0     H44944   5.964   3.323   1.300  0.9456  0.7897  1.1259
  333MOL0     H44945   5.747   3.539   1.299 -0.2573 -0.4435  2.3342
  333MOL0     H44946   5.737   3.383   1.367  2.2890  0.8223  1.9478
  333MOL0     H44947   5.784   3.301   1.134  0.2375 -1.3228  2.6416
  333MOL0     H44948   5.756   3.483   1.080 -2.6929 -1.0253 -1.2645
  333MOL0     H44949   5.557   3.302   1.209 -0.7556  0.3964 -0.6193
  333MOL0     H44950   5.530   3.478   1.173 -0.8142 -0.3378  1.0940
  333MOL0     H44951   5.507   3.248   0.808  0.1107  1.7956  0.3475
  333MOL0     H44952   6.019   3.569   0.989 -1.2837 -2.0636 -2.6254
  333MOL0     H44953   6.156   3.575   0.771  0.8524  1.8910  0.1640
  333MOL0     H44954   6.302   3.657   0.850 -0.7254  0.8016  1.1134
  333MOL0     H44955   6.317   3.512   0.757  0.0225  0.6637  0.1817
  334MOL0     O44956   8.644   3.412  10.482 -0.0574 -0.7567  0.3490
  334MOL0     C44957   8.624   3.496  10.396  0.0247  0.7975 -0.3085
  334MOL0     O44958   8.709   3.554  10.303 -0.4792  0.4823 -0.4141
  334MOL0     C44959   8.852   3.546  10.306  0.1375  0.2767 -1.0515
  334MOL0     C44960   8.926   3.459  10.378  0.8829 -0.4106  0.6061
  334MOL0     C44961   9.071   3.451  10.358  0.3699  0.7337 -0.2883
  334MOL0     C44962   9.135   3.554  10.280 -0.0385  0.2951 -0.4150
  334MOL0     O44963   9.274   3.541  10.277 -0.2274 -0.2183 -0.4015
  334MOL0     C44964   9.355   3.622  10.360 -1.3420 -0.5128 -0.0851
  334MOL0     C44965   9.417   3.727  10.288 -0.3013 -1.0467  0.3605
  334MOL0     C44966   9.540   3.699  10.195  0.4280 -0.2245  0.8765
  334MOL0     C44967   9.667   3.725  10.282 -1.1404  0.0561  0.7981
  334MOL0     C44968   9.801   3.702  10.192  0.4793  0.1536 -0.0283
  334MOL0     C44969   9.911   3.786  10.241 -0.9308 -0.3579 -0.0631
  334MOL0     C44970  10.047   3.744  10.183 -0.1578 -0.3531  0.5694
  334MOL0     C44971  10.144   3.867  10.184 -0.0722 -0.7054  0.2949
  334MOL0     N44972  10.285   3.833  10.192 -0.3221  0.2656 -0.1174
  334MOL0     C44973  10.353   3.764  10.095 -0.8085  0.1681  0.0157
  334MOL0     C44974  10.491   3.778  10.119  0.7939 -0.2204 -0.7118
  334MOL0     C44975  10.610   3.727  10.046 -0.5079  0.3373 -0.0129
  334MOL0     C44976  10.667   3.603  10.126  0.6726 -0.7032  0.4068
  334MOL0     C44977  10.781   3.537  10.063  0.5574  0.5016  0.1309
  334MOL0     C44978  10.828   3.439  10.175 -0.6938  0.7237  0.2133
  334MOL0     O44979  10.752   3.309  10.189  0.3971 -0.3937  0.5507
  334MOL0     C44980  10.742   3.217  10.083  0.0599  0.4737 -0.0409
  334MOL0     C44981  10.646   3.115  10.066 -1.7987 -0.6158  0.3404
  334MOL0     C44982  10.639   3.043   9.951 -1.0193  0.2206  0.4047
  334MOL0     C44983  10.731   3.047   9.852 -0.4809 -0.6299 -0.0588
  334MOL0     C44984  10.719   2.960   9.728 -0.0653  0.5726 -0.2110
  334MOL0     O44985  10.813   2.970   9.629  0.2220 -0.0275  0.2788
  334MOL0     C44986  10.788   2.897   9.519 -0.1522 -0.2941  0.9021
  334MOL0     C44987  10.836   2.767   9.509  1.1848  0.2374 -0.1739
  334MOL0     C44988  10.798   2.694   9.395  0.4782 -0.6493 -0.1651
  334MOL0     C44989  10.712   2.740   9.295 -0.0678 -0.4564  0.0887
  334MOL0     O44990  10.675   2.669   9.182  0.4037 -0.7213  0.7206
  334MOL0     C44991  10.679   2.531   9.192 -0.9215 -0.0292 -0.8005
  334MOL0     C44992  10.617   2.444   9.077  0.2134  0.5531  0.0749
  334MOL0     C44993  10.695   2.428   8.947 -0.3650  0.2532 -0.4461
  334MOL0     C44994  10.680   2.563   8.866 -0.4693  0.0999 -0.0982
  334MOL0     C44995  10.747   2.565   8.727  0.1590  0.9979  0.5541
  334MOL0     C44996  10.674   2.461   8.626  1.2324  1.0223  0.3823
  334MOL0     C44997  10.742   2.446   8.487  0.6868 -0.2115  0.2067
  334MOL0     C44998  10.839   2.564   8.453 -0.1020  0.7328  0.2016
  334MOL0    Cl44999  10.914   2.512   8.293 -0.2764  0.0929  0.3612
  334MOL0     C45000  10.674   2.871   9.309  0.3611  0.5257  0.4094
  334MOL0     C45001  10.701   2.945   9.425  0.4638 -0.4940  0.3597
  334MOL0     O45002  10.630   2.874   9.732 -0.0676  0.5937 -0.2971
  334MOL0     C45003  10.835   3.136   9.868 -0.3472 -0.0089  0.3278
  334MOL0     C45004  10.838   3.212   9.987 -0.1053 -1.1735  0.0901
  334MOL0     N45005  10.501   3.851  10.239  0.2020 -0.3424 -0.5504
  334MOL0     N45006  10.379   3.876  10.283  1.2287 -0.3130  0.3762
  334MOL0     C45007   9.059   3.655  10.225  0.4325  0.4984 -0.3779
  334MOL0     C45008   8.914   3.649  10.232  0.4122  0.3890 -1.1805
  334MOL0     C45009   8.481   3.527  10.378 -0.5124  0.4669 -0.1528
  334MOL0     C45010   8.457   3.653  10.330 -0.7750 -0.6266  0.0626
  334MOL0     C45011   8.337   3.704  10.294 -0.0462  0.5730 -0.0186
  334MOL0     C45012   8.225   3.617  10.313 -0.1472  0.0996  0.4750
  334MOL0     O45013   8.094   3.658  10.290  0.2051 -0.1646  0.1458
  334MOL0     C45014   8.051   3.794  10.279  0.1924 -0.0068 -0.5152
  334MOL0     C45015   7.993   3.844  10.405 -0.6542  0.6074 -0.0662
  334MOL0     C45016   7.846   3.801  10.428 -0.2613  0.4366 -1.1135
  334MOL0     C45017   7.800   3.835  10.570 -0.0095  0.1567 -0.1902
  334MOL0     C45018   7.654   3.816  10.580 -0.4798  1.1323  1.1402
  334MOL0     C45019   7.538   3.784  10.558 -0.5311  0.4947 -0.7685
  334MOL0     C45020   8.251   3.485  10.347 -0.3740 -0.0436 -0.2031
  334MOL0     C45021   8.372   3.437  10.387  0.1209 -0.5700  0.4230
  334MOL0     C45022   8.373   3.294  10.434  0.1208  0.0807 -0.2470
  334MOL0     H45023   8.872   3.394  10.446 -0.7670  1.5734  1.3030
  334MOL0     H45024   9.131   3.370  10.397  0.0100 -0.3213 -1.8343
  334MOL0     H45025   9.298   3.679  10.434 -1.1055  1.8337 -1.5748
  334MOL0     H45026   9.414   3.549  10.415  1.4887  1.0731 -0.8593
  334MOL0     H45027   9.449   3.806  10.356  2.8735 -2.0146  0.1694
  334MOL0     H45028   9.337   3.762  10.223 -2.0757 -2.4545  1.6931
  334MOL0     H45029   9.543   3.762  10.106 -2.4148 -0.1841  0.7346
  334MOL0     H45030   9.533   3.597  10.156  0.2297  0.3154 -0.5391
  334MOL0     H45031   9.659   3.831  10.307  0.8441  0.3370  0.4598
  334MOL0     H45032   9.666   3.670  10.376 -3.2375 -0.0159  0.7696
  334MOL0     H45033   9.828   3.597  10.184  0.9004  0.2305  0.3637
  334MOL0     H45034   9.781   3.741  10.092  2.7663 -0.9725 -0.9912
  334MOL0     H45035   9.885   3.891  10.226  0.2960 -0.1095 -0.5845
  334MOL0     H45036   9.913   3.759  10.347  3.3389  0.8510  0.3631
  334MOL0     H45037  10.038   3.698  10.084  1.2120 -2.3583  1.3005
  334MOL0     H45038  10.074   3.661  10.250  1.6639 -0.5102 -0.2734
  334MOL0     H45039  10.120   3.940  10.106 -0.8033  0.1017  1.2505
  334MOL0     H45040  10.128   3.914  10.281  2.4943 -0.5634  0.7297
  334MOL0     H45041  10.302   3.704  10.020 -1.0520  0.2827  0.0892
  334MOL0     H45042  10.579   3.699   9.945 -2.3181 -1.2398  0.9090
  334MOL0     H45043  10.691   3.800  10.036  1.6985 -2.0201 -0.2324
  334MOL0     H45044  10.705   3.649  10.217  1.7158  1.2551 -0.9404
  334MOL0     H45045  10.585   3.534  10.148 -0.4982  0.9301  1.4375
  334MOL0     H45046  10.872   3.595  10.043  0.6001  0.5937  0.5813
  334MOL0     H45047  10.754   3.484   9.971  2.8281  0.2964 -0.4810
  334MOL0     H45048  10.828   3.483  10.276  0.5977 -3.1803  2.1078
  334MOL0     H45049  10.929   3.413  10.141 -1.1985 -0.0354 -0.7230
  334MOL0     H45050  10.563   3.112  10.135 -0.9871 -0.5511  1.3352
  334MOL0     H45051  10.550   2.981   9.951  1.1733 -3.3183  3.1893
  334MOL0     H45052  10.898   2.732   9.591  0.1525  1.9080  1.4171
  334MOL0     H45053  10.828   2.590   9.382  1.2609 -0.2902 -1.3308
  334MOL0     H45054  10.783   2.498   9.205  0.0981  2.3658 -2.2664
  334MOL0     H45055  10.637   2.502   9.289  1.0901 -1.0674 -0.1686
  334MOL0     H45056  10.604   2.343   9.117 -0.6018  0.8619  0.6323
  334MOL0     H45057  10.518   2.488   9.057  1.2412  3.4016  0.7059
  334MOL0     H45058  10.797   2.395   8.972 -1.3762 -2.5597  0.3177
  334MOL0     H45059  10.654   2.343   8.892  0.3655 -1.5788  1.6876
  334MOL0     H45060  10.728   2.643   8.924  0.8699 -0.2652 -0.6494
  334MOL0     H45061  10.575   2.589   8.850 -1.0627  0.0768  3.1658
  334MOL0     H45062  10.851   2.532   8.733 -0.1262 -0.5840 -1.7469
  334MOL0     H45063  10.738   2.667   8.688 -2.9953  0.3759 -0.6462
  334MOL0     H45064  10.666   2.357   8.659  0.6872 -0.2886 -3.3427
  334MOL0     H45065  10.568   2.488   8.623  1.5764  2.4175 -2.3326
  334MOL0     H45066  10.664   2.449   8.410  0.3760 -0.1386  0.5192
  334MOL0     H45067  10.804   2.356   8.485  0.7919 -0.1940 -2.9482
  334MOL0     H45068  10.786   2.658   8.437  1.6968  1.6558 -0.6139
  334MOL0     H45069  10.920   2.582   8.524  0.7050  2.4739 -1.0946
  334MOL0     H45070  10.596   2.910   9.244 -1.4691 -0.6587  1.7884
  334MOL0     H45071  10.654   3.040   9.446  4.6222  1.0997  3.8816
  334MOL0     H45072  10.918   3.130   9.799  0.8334 -2.2273  1.7937
  334MOL0     H45073  10.928   3.264  10.020 -1.0217 -0.1284  1.0094
  334MOL0     H45074   9.111   3.729  10.166 -2.5388  1.0246 -2.5671
  334MOL0     H45075   8.856   3.718  10.172  0.9978 -0.5727 -2.9579
  334MOL0     H45076   8.538   3.722  10.307  0.4353 -2.2560 -0.8155
  334MOL0     H45077   8.324   3.806  10.257  1.3033  0.6706 -0.2492
  334MOL0     H45078   7.971   3.811  10.206 -1.2864  1.8117  1.4179
  334MOL0     H45079   8.134   3.860  10.255 -0.7659  2.4366  2.3478
  334MOL0     H45080   8.000   3.954  10.404 -1.0309  0.6442 -1.2972
  334MOL0     H45081   8.053   3.798  10.484  0.7564  0.0651 -1.3844
  334MOL0     H45082   7.833   3.696  10.401  1.5926 -0.6170  1.5972
  334MOL0     H45083   7.786   3.847  10.350  0.0847 -1.7368 -2.7533
  334MOL0     H45084   7.849   3.767  10.641 -1.5772  0.3257  1.1034
  334MOL0     H45085   7.829   3.937  10.598  0.5023  1.0242 -3.5122
  334MOL0     H45086   7.437   3.754  10.536  0.4009 -3.2503 -0.5924
  334MOL0     H45087   8.168   3.415  10.352 -1.0748  0.8394  0.9862
  334MOL0     H45088   8.293   3.237  10.386  0.1291  0.7758 -1.1072
  334MOL0     H45089   8.473   3.251  10.418 -0.2591 -1.7889  1.8950
  334MOL0     H45090   8.359   3.290  10.542 -0.9265  0.6864 -0.3453
  335MOL0     O45091   2.947   5.616   4.327 -1.0005  0.1915  0.1070
  335MOL0     C45092   2.894   5.725   4.302  0.6760 -0.2754  0.8371
  335MOL0     O45093   2.959   5.836   4.248 -0.1004  0.7763  0.0815
  335MOL0     C45094   3.095   5.818   4.222  1.1594 -0.1294 -0.6577
  335MOL0     C45095   3.184   5.891   4.295 -0.5933 -1.1456  0.7633
  335MOL0     C45096   3.320   5.872   4.287 -0.4152  0.1557 -0.7892
  335MOL0     C45097   3.373   5.780   4.194 -0.1719  0.0802  1.3677
  335MOL0     O45098   3.508   5.768   4.215 -0.5743  0.3027  0.1305
  335MOL0     C45099   3.563   5.662   4.136 -1.0046 -0.1628  0.1346
  335MOL0     C45100   3.703   5.642   4.170 -0.1362 -0.1479 -0.5210
  335MOL0     C45101   3.783   5.746   4.101 -0.3894 -0.4654  0.1005
  335MOL0     C45102   3.931   5.702   4.099  0.3957 -0.5061 -0.0176
  335MOL0     C45103   4.004   5.823   4.055 -0.0465 -1.1903  0.5440
  335MOL0     C45104   4.148   5.771   4.001 -0.5267 -0.3047 -0.5232
  335MOL0     C45105   4.226   5.881   3.930 -0.0997  0.1557  0.6674
  335MOL0     C45106   4.370   5.859   3.960  0.0137 -0.0880  0.5465
  335MOL0     N45107   4.445   5.973   3.917 -0.5300  0.4949 -0.2366
  335MOL0     C45108   4.525   5.970   3.807  0.5580  0.5018  0.2026
  335MOL0     C45109   4.579   6.094   3.798 -0.2651  0.7759 -0.4559
  335MOL0     C45110   4.668   6.141   3.679 -0.5998  0.6174 -0.3593
  335MOL0     C45111   4.741   6.277   3.701  0.1889  0.8156 -1.0162
  335MOL0     C45112   4.834   6.283   3.830  0.0173  0.5086  0.2524
  335MOL0     C45113   4.966   6.201   3.811 -0.4945  0.5505  0.0146
  335MOL0     O45114   4.998   6.170   3.950 -0.5208 -0.6052 -0.1635
  335MOL0     C45115   5.133   6.164   3.983 -0.3998 -0.1769 -0.1873
  335MOL0     C45116   5.171   6.181   4.118 -0.2756  0.1195 -0.2173
  335MOL0     C45117   5.299   6.145   4.162  0.2316 -0.3691  0.9576
  335MOL0     C45118   5.400   6.121   4.063  0.3514  0.4749 -0.8183
  335MOL0     C45119   5.536   6.108   4.115  0.0537 -0.1551  0.4060
  335MOL0     O45120   5.636   6.171   4.050 -0.0435 -0.2050 -0.1820
  335MOL0     C45121   5.763   6.166   4.101  0.6072  0.4577 -0.0434
  335MOL0     C45122   5.837   6.279   4.144  0.1467  0.4209  0.5710
  335MOL0     C45123   5.965   6.268   4.187 -0.1495 -0.4359  0.2614
  335MOL0     C45124   6.032   6.149   4.172 -0.5129  0.1473 -0.1464
  335MOL0     O45125   6.171   6.145   4.179  0.0950 -0.0341 -0.5187
  335MOL0     C45126   6.248   6.247   4.118 -1.3923  0.0961  0.8243
  335MOL0     C45127   6.403   6.213   4.110 -0.5645 -0.4019  0.5786
  335MOL0     C45128   6.417   6.085   4.025  0.3379  0.8585 -0.0197
  335MOL0     C45129   6.553   6.070   3.950  0.6325 -1.1886 -0.6862
  335MOL0     C45130   6.579   5.928   3.895 -1.0459  0.2252 -0.3973
  335MOL0     C45131   6.723   5.930   3.827  0.6924  0.1271  0.5233
  335MOL0     C45132   6.746   5.788   3.764 -0.3514  0.8505  0.5295
  335MOL0     C45133   6.652   5.764   3.639 -0.0811 -0.8166  0.3766
  335MOL0    Cl45134   6.674   5.596   3.609 -0.2967  0.7375  0.1183
  335MOL0     C45135   5.966   6.028   4.133 -0.9547 -0.0318 -1.1312
  335MOL0     C45136   5.828   6.047   4.093  0.5751 -0.0992  0.1427
  335MOL0     O45137   5.550   6.048   4.216  0.0072 -0.1558  0.6140
  335MOL0     C45138   5.371   6.113   3.928  0.8234 -0.1842 -0.0751
  335MOL0     C45139   5.238   6.131   3.896  0.5945  0.5394  1.0446
  335MOL0     N45140   4.519   6.167   3.899 -0.2172  0.4391 -1.0585
  335MOL0     N45141   4.439   6.094   3.977  0.1819 -0.2296  0.2321
  335MOL0     C45142   3.289   5.700   4.113 -0.0080 -0.4940 -1.1915
  335MOL0     C45143   3.148   5.715   4.134  0.8409 -0.4128  0.3670
  335MOL0     C45144   2.747   5.739   4.341 -0.2064  0.0223 -0.0486
  335MOL0     C45145   2.708   5.866   4.349 -0.0918 -0.7663 -0.5841
  335MOL0     C45146   2.576   5.895   4.386 -0.3527 -0.6330  0.0084
  335MOL0     C45147   2.481   5.794   4.405 -0.9758 -0.4655  0.2566
  335MOL0     O45148   2.360   5.840   4.456  1.5343  0.2036 -0.1612
  335MOL0     C45149   2.290   5.769   4.556  0.0445  1.0579 -0.0053
  335MOL0     C45150   2.166   5.844   4.590  0.2350 -1.0417 -0.0518
  335MOL0     C45151   2.088   5.786   4.706  0.6965  0.1439  0.8217
  335MOL0     C45152   1.934   5.812   4.687 -0.1373  0.1079  0.5934
  335MOL0     C45153   1.906   5.954   4.720 -0.0114 -1.0473 -0.3331
  335MOL0     C45154   1.860   6.059   4.778  0.2264  0.4202 -0.5058
  335MOL0     C45155   2.528   5.666   4.407 -1.2093 -0.2780  0.2567
  335MOL0     C45156   2.657   5.640   4.363 -1.0776  0.7794 -0.3733
  335MOL0     C45157   2.693   5.493   4.365  0.3554 -0.1110 -0.4821
  335MOL0     H45158   3.161   5.965   4.371  3.2528  1.0624  0.0647
  335MOL0     H45159   3.389   5.930   4.348 -0.4674 -0.2441 -0.3381
  335MOL0     H45160   3.506   5.569   4.147 -1.0006 -0.4660 -1.9769
  335MOL0     H45161   3.551   5.685   4.030  2.1315 -3.2693 -1.0805
  335MOL0     H45162   3.733   5.539   4.149  4.9172  0.9092  0.1926
  335MOL0     H45163   3.710   5.654   4.278 -1.2358  0.8584 -0.5302
  335MOL0     H45164   3.769   5.841   4.154  0.4086 -1.3325  1.9423
  335MOL0     H45165   3.753   5.755   3.996  1.1811 -1.9526 -0.5356
  335MOL0     H45166   3.969   5.665   4.195 -0.6372 -0.1843  0.5357
  335MOL0     H45167   3.946   5.625   4.023  3.0218 -1.1303  1.0108
  335MOL0     H45168   3.959   5.873   3.969 -0.1975 -1.3944  0.5033
  335MOL0     H45169   4.010   5.900   4.132  0.7263  1.6195 -2.1085
  335MOL0     H45170   4.206   5.730   4.085  2.4438  1.1145 -1.7453
  335MOL0     H45171   4.138   5.695   3.923  0.9371 -0.2235 -0.8069
  335MOL0     H45172   4.185   5.969   3.980  0.4890  2.7056 -2.9864
  335MOL0     H45173   4.226   5.885   3.821  3.8319  1.4551  0.5664
  335MOL0     H45174   4.396   5.839   4.064  3.7104 -3.0581 -0.7165
  335MOL0     H45175   4.404   5.771   3.905 -1.1379 -1.0465  1.3175
  335MOL0     H45176   4.544   5.881   3.748 -2.4061 -0.5910  0.6809
  335MOL0     H45177   4.740   6.067   3.645  0.8514  1.3674  0.9529
  335MOL0     H45178   4.599   6.150   3.594 -1.5975 -0.9513  0.2331
  335MOL0     H45179   4.815   6.301   3.624  0.2449  1.3215 -0.8112
  335MOL0     H45180   4.668   6.359   3.699 -1.5948 -0.7020 -2.0676
  335MOL0     H45181   4.787   6.239   3.919  0.2281  2.0554  1.1593
  335MOL0     H45182   4.861   6.386   3.852 -1.3551  0.6427  1.5137
  335MOL0     H45183   5.041   6.257   3.757 -1.2731  0.7958 -0.8359
  335MOL0     H45184   4.933   6.118   3.748  2.0059  0.1297 -0.8487
  335MOL0     H45185   5.089   6.199   4.187 -1.6758 -2.0634 -1.1793
  335MOL0     H45186   5.328   6.150   4.267  0.0828  0.9888  0.9537
  335MOL0     H45187   5.788   6.375   4.155 -4.7668 -1.9308  1.9627
  335MOL0     H45188   6.016   6.354   4.229  0.9892 -1.2328  0.5549
  335MOL0     H45189   6.209   6.276   4.020  1.8716  0.7234 -0.4277
  335MOL0     H45190   6.248   6.336   4.182  0.1429 -0.0045  1.0048
  335MOL0     H45191   6.459   6.295   4.063 -0.5327  0.0389  1.3738
  335MOL0     H45192   6.448   6.200   4.208  0.7565  4.0034  0.7861
  335MOL0     H45193   6.416   5.999   4.094 -0.8026  2.2844  1.8334
  335MOL0     H45194   6.338   6.080   3.950 -0.0138  0.1164  0.3898
  335MOL0     H45195   6.627   6.105   4.023  0.6004  1.6274 -1.8719
  335MOL0     H45196   6.545   6.142   3.869 -1.4920  1.3181  1.5821
  335MOL0     H45197   6.501   5.894   3.827  0.0961  1.5935 -2.5073
  335MOL0     H45198   6.588   5.863   3.983 -0.6491 -0.3062 -0.8208
  335MOL0     H45199   6.736   6.005   3.748 -0.8173  0.7160  0.8006
  335MOL0     H45200   6.793   5.949   3.908  0.1624  0.8556  0.8242
  335MOL0     H45201   6.728   5.721   3.848  0.2118 -1.8145 -1.3558
  335MOL0     H45202   6.851   5.778   3.738 -0.2360  0.0637  1.2620
  335MOL0     H45203   6.546   5.783   3.654  0.0669 -0.0819  0.5500
  335MOL0     H45204   6.679   5.830   3.555  0.8558 -0.9704  0.5401
  335MOL0     H45205   6.025   5.940   4.107  1.7955  2.3129 -3.4834
  335MOL0     H45206   5.774   5.963   4.052 -2.3259  1.3467  0.7290
  335MOL0     H45207   5.447   6.092   3.854  0.8509  0.3045 -0.1870
  335MOL0     H45208   5.204   6.131   3.793  1.3670  0.7250  0.7874
  335MOL0     H45209   3.327   5.622   4.048  0.1204 -2.3047  0.9209
  335MOL0     H45210   3.076   5.659   4.076  1.3890 -0.5393 -0.2021
  335MOL0     H45211   2.776   5.951   4.338  1.1833 -1.2348  2.6151
  335MOL0     H45212   2.546   5.999   4.399 -0.1700 -0.6850  0.9004
  335MOL0     H45213   2.356   5.746   4.640 -1.8779  0.7166  1.4946
  335MOL0     H45214   2.256   5.671   4.521 -1.8301  2.2384 -1.6144
  335MOL0     H45215   2.112   5.835   4.495  0.4543 -1.0424 -0.1792
  335MOL0     H45216   2.198   5.947   4.610 -2.1834 -0.5621  1.7519
  335MOL0     H45217   2.129   5.845   4.789  1.5823 -0.6000  0.9283
  335MOL0     H45218   2.105   5.681   4.731  1.8312 -0.2487 -1.3815
  335MOL0     H45219   1.900   5.797   4.584  0.6427 -0.0086  0.3401
  335MOL0     H45220   1.880   5.751   4.760  0.1108  2.4501  2.8827
  335MOL0     H45221   1.837   6.143   4.840  2.4826 -0.1705  1.3079
  335MOL0     H45222   2.470   5.583   4.446  1.5306 -2.1449  0.6958
  335MOL0     H45223   2.773   5.490   4.440  0.7794  0.1655 -0.9195
  335MOL0     H45224   2.608   5.432   4.400  0.4194 -0.6077 -1.1646
  335MOL0     H45225   2.738   5.466   4.269 -0.5016  2.7127 -1.7822
  336MOL0     O45226   5.501   0.844   2.362 -0.4274 -0.3720 -0.3389
  336MOL0     C45227   5.446   0.769   2.284  0.2652 -0.6945 -0.0988
  336MOL0     O45228   5.491   0.735   2.163  0.5805 -0.0252 -0.3114
  336MOL0     C45229   5.614   0.783   2.131 -0.0525  0.4764 -0.0899
  336MOL0     C45230   5.725   0.704   2.120  0.3447 -0.1933  0.2939
  336MOL0     C45231   5.850   0.755   2.080 -0.5032  0.0970 -0.0145
  336MOL0     C45232   5.862   0.885   2.040  0.3411  0.5589  0.3706
  336MOL0     O45233   5.978   0.927   1.990 -0.7178  0.0915 -0.2859
  336MOL0     C45234   5.984   0.936   1.845  0.2486  0.1579 -0.2789
  336MOL0     C45235   6.098   1.042   1.813  0.6805 -0.5445 -0.4009
  336MOL0     C45236   6.220   1.010   1.894  0.3691  0.5442  0.0745
  336MOL0     C45237   6.343   1.074   1.841  0.0858  0.0151  0.6811
  336MOL0     C45238   6.472   1.053   1.934  0.3807  1.0757  0.3840
  336MOL0     C45239   6.473   1.147   2.056 -0.4340  0.4639 -0.3887
  336MOL0     C45240   6.586   1.105   2.141 -0.1952 -0.6789 -0.0691
  336MOL0     C45241   6.636   1.221   2.235 -0.5267  1.2202  0.1857
  336MOL0     N45242   6.727   1.176   2.352  0.0265  0.1300  0.0473
  336MOL0     C45243   6.856   1.127   2.353  0.0882 -0.0825 -0.4574
  336MOL0     C45244   6.880   1.085   2.472  0.3663  0.3511  0.7634
  336MOL0     C45245   7.001   1.011   2.520  0.4328 -0.7960  0.3182
  336MOL0     C45246   7.030   1.000   2.668  0.3435 -0.2081 -0.4514
  336MOL0     C45247   7.148   0.909   2.694  0.6693  0.4213 -0.0487
  336MOL0     C45248   7.282   0.960   2.637  0.7209  0.1459  0.8832
  336MOL0     O45249   7.324   1.078   2.703  0.0597 -0.2926  0.4607
  336MOL0     C45250   7.453   1.114   2.669 -0.2845  0.6843  0.2104
  336MOL0     C45251   7.548   1.045   2.591  0.8327 -1.2972  0.9167
  336MOL0     C45252   7.670   1.092   2.565 -0.7961  0.3036  0.3888
  336MOL0     C45253   7.716   1.218   2.609  0.3186 -0.1748 -0.2506
  336MOL0     C45254   7.851   1.271   2.576  0.3562  0.5183  0.1027
  336MOL0     O45255   7.899   1.366   2.655 -0.6000 -0.9553 -0.4475
  336MOL0     C45256   8.018   1.423   2.607 -0.5690 -0.5866  0.5717
  336MOL0     C45257   8.132   1.419   2.684 -0.5596 -0.3220  0.0425
  336MOL0     C45258   8.257   1.472   2.634  0.0777  0.7849 -0.0427
  336MOL0     C45259   8.254   1.527   2.504 -0.2139 -0.9132  0.2968
  336MOL0     O45260   8.362   1.593   2.443  0.1085  0.3962  0.6481
  336MOL0     C45261   8.479   1.627   2.531  0.4550  0.7592 -0.3639
  336MOL0     C45262   8.557   1.750   2.483  0.9324  0.0948  0.2701
  336MOL0     C45263   8.623   1.722   2.340 -1.3944  0.1781  0.5186
  336MOL0     C45264   8.736   1.825   2.306  0.1654 -0.2722 -0.2868
  336MOL0     C45265   8.848   1.767   2.209  0.3172 -0.1713  0.5401
  336MOL0     C45266   8.951   1.871   2.169 -0.0728  0.7092  0.2863
  336MOL0     C45267   9.053   1.899   2.287  0.2904  0.6301  0.0186
  336MOL0     C45268   9.164   2.001   2.244 -0.5136 -0.9083  0.0119
  336MOL0    Cl45269   9.114   2.167   2.294 -0.3737 -0.2300  0.0799
  336MOL0     C45270   8.138   1.548   2.437  0.9997  0.6789  0.3272
  336MOL0     C45271   8.025   1.490   2.484 -0.7628 -0.3173  1.2248
  336MOL0     O45272   7.899   1.231   2.469  0.3720 -0.2873  0.1021
  336MOL0     C45273   7.623   1.290   2.696 -0.4102 -0.2323  0.2029
  336MOL0     C45274   7.494   1.237   2.721 -0.3558 -0.0345  0.4069
  336MOL0     N45275   6.773   1.110   2.557 -0.1875 -0.1995 -0.2546
  336MOL0     N45276   6.683   1.167   2.479 -0.4809 -0.4665 -0.1407
  336MOL0     C45277   5.739   0.960   2.041  0.4217 -0.3959 -0.4970
  336MOL0     C45278   5.628   0.915   2.096 -0.3314  0.1023  0.5157
  336MOL0     C45279   5.322   0.711   2.336  0.6140 -0.0804 -0.1867
  336MOL0     C45280   5.206   0.710   2.254  0.7916  0.5785  0.3729
  336MOL0     C45281   5.084   0.646   2.287 -0.6452  0.5495  0.2985
  336MOL0     C45282   5.073   0.582   2.410 -0.3192  0.6123  0.0579
  336MOL0     O45283   4.962   0.509   2.451  0.3461  0.3885  0.3597
  336MOL0     C45284   4.852   0.494   2.362 -0.2339  0.6117  0.1019
  336MOL0     C45285   4.739   0.397   2.405  0.3768  0.3509  1.5342
  336MOL0     C45286   4.793   0.292   2.505  0.2813  0.1141 -0.0860
  336MOL0     C45287   4.882   0.176   2.446 -0.3921 -0.0777 -0.6462
  336MOL0     C45288   4.806   0.066   2.381 -0.7423 -0.8386 -0.2986
  336MOL0     C45289   4.721  -0.004   2.337  0.2851  0.2551 -0.1755
  336MOL0     C45290   5.185   0.591   2.498 -0.6019 -0.5792  0.3130
  336MOL0     C45291   5.308   0.650   2.463 -0.2375  0.2354  0.6631
  336MOL0     C45292   5.421   0.631   2.555 -0.0960  0.6231 -0.7022
  336MOL0     H45293   5.714   0.599   2.146 -0.3278  0.1927  1.6756
  336MOL0     H45294   5.946   0.705   2.074  0.1410  0.7400  2.9639
  336MOL0     H45295   6.004   0.847   1.786  2.1693  0.9999 -0.9835
  336MOL0     H45296   5.892   0.985   1.809  0.5900  1.1201  0.1129
  336MOL0     H45297   6.060   1.142   1.835  3.6738  1.3649 -3.0084
  336MOL0     H45298   6.128   1.042   1.708  2.4356  0.5588  0.0696
  336MOL0     H45299   6.245   0.906   1.915 -0.4742  0.6596  1.8651
  336MOL0     H45300   6.202   1.049   1.995  2.4393 -0.3497  0.8387
  336MOL0     H45301   6.357   1.011   1.753 -1.5355 -2.5539  2.1347
  336MOL0     H45302   6.321   1.179   1.819  1.5357  0.7907  2.5500
  336MOL0     H45303   6.477   0.948   1.964 -0.9267  0.8557 -0.1008
  336MOL0     H45304   6.567   1.074   1.884  0.2983  1.2065  0.2801
  336MOL0     H45305   6.491   1.248   2.019  3.1056  0.7515  1.7114
  336MOL0     H45306   6.375   1.145   2.105 -0.7997  0.9697 -1.0876
  336MOL0     H45307   6.673   1.073   2.084 -0.5524 -1.9304  0.0528
  336MOL0     H45308   6.570   1.017   2.205 -1.9378  0.7286  1.5710
  336MOL0     H45309   6.695   1.297   2.183  1.3908  1.5893  2.7512
  336MOL0     H45310   6.550   1.270   2.283 -0.5580  0.9210  0.4385
  336MOL0     H45311   6.925   1.115   2.270  2.8411  1.6041  1.4444
  336MOL0     H45312   6.987   0.916   2.468 -1.7723 -1.4701  1.9855
  336MOL0     H45313   7.085   1.059   2.469 -0.4819 -0.5269 -0.9773
  336MOL0     H45314   7.049   1.094   2.721  0.1659 -1.9531  2.9528
  336MOL0     H45315   6.947   0.964   2.729  0.5159 -0.1195 -0.1592
  336MOL0     H45316   7.126   0.821   2.634 -3.7727  0.6816  0.8878
  336MOL0     H45317   7.160   0.883   2.800 -0.4158 -0.0807 -0.0377
  336MOL0     H45318   7.273   0.974   2.529 -0.0211 -1.8985  0.6232
  336MOL0     H45319   7.356   0.881   2.657  1.7557  1.2320  1.5534
  336MOL0     H45320   7.540   0.951   2.538 -2.3577  1.0080 -3.4036
  336MOL0     H45321   7.735   1.020   2.518 -1.0755 -1.5564  2.6650
  336MOL0     H45322   8.135   1.382   2.786  0.2443 -0.7315 -0.1257
  336MOL0     H45323   8.345   1.458   2.696 -0.0788 -3.7062 -0.4789
  336MOL0     H45324   8.448   1.638   2.635  0.3339 -2.9223  0.1367
  336MOL0     H45325   8.544   1.539   2.530  1.1506  1.1734  2.1357
  336MOL0     H45326   8.493   1.839   2.476 -0.8978 -1.0434  1.3500
  336MOL0     H45327   8.636   1.774   2.555 -0.0674  2.5557  0.6514
  336MOL0     H45328   8.663   1.621   2.333  0.1245  0.8373 -0.9998
  336MOL0     H45329   8.550   1.731   2.259 -0.3469 -0.1529 -0.4894
  336MOL0     H45330   8.780   1.870   2.395  0.9548  0.9471 -1.2635
  336MOL0     H45331   8.696   1.914   2.255  2.6685  1.6520  0.9216
  336MOL0     H45332   8.803   1.733   2.115 -0.5211  2.2922 -0.0292
  336MOL0     H45333   8.899   1.686   2.262 -1.5873 -1.8723 -0.0889
  336MOL0     H45334   9.006   1.846   2.077 -2.2741 -0.3302 -0.8269
  336MOL0     H45335   8.900   1.967   2.155  2.8694  2.4889  0.8075
  336MOL0     H45336   9.100   1.805   2.317  0.2914  0.4582 -0.5053
  336MOL0     H45337   9.002   1.939   2.375 -0.1885  3.9821 -1.6226
  336MOL0     H45338   9.254   1.981   2.302 -0.9489 -1.5127  0.5068
  336MOL0     H45339   9.179   2.002   2.136 -1.3177  1.0937 -0.1184
  336MOL0     H45340   8.146   1.587   2.336  3.3399  1.0534  0.5945
  336MOL0     H45341   7.946   1.500   2.410 -0.7269  1.1298  1.3564
  336MOL0     H45342   7.658   1.383   2.739 -2.6430 -0.1048  1.8573
  336MOL0     H45343   7.436   1.294   2.794  2.6746  0.8300  2.3233
  336MOL0     H45344   5.736   1.062   2.002  0.7558 -0.7832 -1.5738
  336MOL0     H45345   5.539   0.977   2.098 -0.7832 -0.4928  3.8819
  336MOL0     H45346   5.216   0.748   2.152 -3.1018  2.3044  0.4200
  336MOL0     H45347   5.003   0.655   2.216 -0.8671  2.4703  0.7509
  336MOL0     H45348   4.896   0.443   2.275 -1.2532 -0.9787  0.4887
  336MOL0     H45349   4.819   0.593   2.329 -0.6244  0.3451 -0.3167
  336MOL0     H45350   4.687   0.347   2.322  0.2938 -0.0910  1.8457
  336MOL0     H45351   4.659   0.455   2.452 -0.7902  0.6798 -0.7529
  336MOL0     H45352   4.704   0.252   2.555  1.2748  2.0973  3.5375
  336MOL0     H45353   4.857   0.345   2.575  0.4645  0.5420 -0.5718
  336MOL0     H45354   4.951   0.216   2.372  0.2652 -1.6144 -0.9020
  336MOL0     H45355   4.941   0.135   2.529  1.1247 -3.5886 -3.2359
  336MOL0     H45356   4.636  -0.062   2.304  1.6340 -3.1011  1.7172
  336MOL0     H45357   5.174   0.537   2.591 -1.2501  1.3561  1.4149
  336MOL0     H45358   5.387   0.571   2.639 -0.0265  0.4320 -0.8091
  336MOL0     H45359   5.505   0.567   2.526  1.4994  0.4604  3.6095
  336MOL0     H45360   5.452   0.731   2.586  1.6299 -0.5778  1.7564
  337MOL0     O45361   4.418   8.310   4.631 -0.3256 -0.3668 -0.3718
  337MOL0     C45362   4.379   8.257   4.526  0.3455 -0.3041 -0.1376
  337MOL0     O45363   4.427   8.135   4.485  0.6645  0.8069  0.0496
  337MOL0     C45364   4.558   8.085   4.493 -0.0329 -0.2366 -1.2360
  337MOL0     C45365   4.572   7.946   4.457 -0.6424 -0.4166  0.1138
  337MOL0     C45366   4.696   7.884   4.464  0.7237  0.3059 -0.2492
  337MOL0     C45367   4.813   7.955   4.503  0.2167 -0.1166 -0.3145
  337MOL0     O45368   4.919   7.871   4.495 -0.0147  0.0723 -0.5917
  337MOL0     C45369   5.049   7.937   4.478 -0.2845 -0.6691 -0.5176
  337MOL0     C45370   5.126   7.978   4.603  0.1614  0.2179  0.1869
  337MOL0     C45371   5.160   7.861   4.690  0.1671  0.5579 -0.3710
  337MOL0     C45372   5.294   7.880   4.770 -0.3547 -0.6782 -0.3732
  337MOL0     C45373   5.424   7.842   4.702 -0.1810  0.2252  0.8783
  337MOL0     C45374   5.543   7.898   4.780 -0.1504 -0.0483 -0.2140
  337MOL0     C45375   5.586   8.037   4.739 -0.1754 -1.0638  0.0136
  337MOL0     C45376   5.686   8.089   4.843 -0.1868 -0.0382 -0.3750
  337MOL0     N45377   5.813   8.127   4.779 -0.7627  0.4980  0.0631
  337MOL0     C45378   5.908   8.037   4.732 -0.5327 -0.0415 -0.7756
  337MOL0     C45379   6.007   8.114   4.680 -0.3626 -0.2093  0.9441
  337MOL0     C45380   6.136   8.070   4.630 -0.1049  0.4442 -0.4759
  337MOL0     C45381   6.239   8.107   4.734 -0.2898  0.1657  0.5433
  337MOL0     C45382   6.370   8.033   4.704  0.6448 -0.3627 -0.3243
  337MOL0     C45383   6.496   8.115   4.749  0.1178 -0.1340  0.0232
  337MOL0     O45384   6.608   8.047   4.703 -0.4369 -0.3131 -0.1044
  337MOL0     C45385   6.725   8.115   4.704  0.0540  0.1237 -0.2920
  337MOL0     C45386   6.748   8.259   4.714  0.0443 -0.0599  0.7510
  337MOL0     C45387   6.874   8.308   4.726  0.5806  0.2056  0.2196
  337MOL0     C45388   6.984   8.230   4.721 -1.1901  0.2246 -0.1613
  337MOL0     C45389   7.117   8.291   4.734 -0.4421  0.0925  0.1408
  337MOL0     O45390   7.217   8.198   4.790  0.5048 -0.4840  0.3246
  337MOL0     C45391   7.349   8.237   4.801 -0.4510 -0.4646 -0.0760
  337MOL0     C45392   7.426   8.318   4.706 -0.1188  0.1185 -0.1599
  337MOL0     C45393   7.565   8.329   4.706 -0.1171 -0.4048  0.2695
  337MOL0     C45394   7.640   8.250   4.800 -0.5273  0.2961  0.2766
  337MOL0     O45395   7.780   8.262   4.798  0.1582 -0.7560 -0.2165
  337MOL0     C45396   7.857   8.178   4.888 -0.2026  0.2182  0.6160
  337MOL0     C45397   8.003   8.227   4.885 -0.7158 -0.1779 -0.1859
  337MOL0     C45398   8.091   8.162   5.010 -0.2328 -0.6313 -0.7810
  337MOL0     C45399   8.239   8.200   5.019  0.0617  0.5270 -0.2577
  337MOL0     C45400   8.264   8.349   5.035  0.5640  0.2862 -1.2511
  337MOL0     C45401   8.404   8.386   5.041 -0.4840  0.2068 -0.3931
  337MOL0     C45402   8.421   8.541   5.030 -0.6651 -0.3089  0.1801
  337MOL0     C45403   8.533   8.599   5.118  0.2480  0.2488  0.5012
  337MOL0    Cl45404   8.544   8.776   5.092  0.4773  0.0179 -0.1850
  337MOL0     C45405   7.572   8.169   4.886 -0.3004  0.4137  0.5528
  337MOL0     C45406   7.427   8.163   4.886 -0.4915 -0.0613  0.8390
  337MOL0     O45407   7.138   8.405   4.703 -0.2855  0.4636  0.1302
  337MOL0     C45408   6.969   8.091   4.726  0.1082  0.4694 -0.0524
  337MOL0     C45409   6.834   8.033   4.705 -0.8244  0.5256  0.8058
  337MOL0     N45410   5.967   8.247   4.694  0.2930  0.1954  0.9629
  337MOL0     N45411   5.855   8.250   4.749  0.7588 -0.1384 -0.2086
  337MOL0     C45412   4.805   8.095   4.527  0.1523 -0.3654  0.0549
  337MOL0     C45413   4.677   8.159   4.525 -0.2691  0.6790  0.1222
  337MOL0     C45414   4.284   8.328   4.431 -0.4294 -0.7165 -0.1363
  337MOL0     C45415   4.186   8.265   4.358 -0.5632 -1.2292 -1.0952
  337MOL0     C45416   4.106   8.340   4.272  0.2302 -0.3831  0.2260
  337MOL0     C45417   4.123   8.477   4.243 -0.3942 -0.3150  0.0131
  337MOL0     O45418   4.057   8.549   4.149  0.0331  0.0669 -0.1640
  337MOL0     C45419   3.916   8.513   4.138 -0.7570  0.5302 -0.6432
  337MOL0     C45420   3.847   8.645   4.081 -0.6500 -0.3502 -1.0639
  337MOL0     C45421   3.711   8.606   4.046 -0.7561  0.8036  0.5739
  337MOL0     C45422   3.602   8.676   4.127  0.4577 -0.0210  0.5955
  337MOL0     C45423   3.463   8.638   4.090 -0.3492  0.1869 -0.3459
  337MOL0     C45424   3.354   8.588   4.063 -0.9240  0.2215  0.0227
  337MOL0     C45425   4.219   8.543   4.321 -0.4888  0.5221  0.4380
  337MOL0     C45426   4.293   8.475   4.414 -0.4671  0.9597 -0.2361
  337MOL0     C45427   4.386   8.563   4.496  0.6019  0.6917 -0.4527
  337MOL0     H45428   4.488   7.882   4.433  0.4658 -1.2521 -1.7446
  337MOL0     H45429   4.711   7.781   4.433 -0.7119  0.3762 -1.2612
  337MOL0     H45430   5.117   7.870   4.425 -0.0553  2.1684 -4.1849
  337MOL0     H45431   5.039   8.019   4.407  1.1171 -0.5005 -0.5528
  337MOL0     H45432   5.066   8.049   4.660  1.3452  0.6794  0.8868
  337MOL0     H45433   5.217   8.023   4.562 -0.9385  1.2060 -1.2287
  337MOL0     H45434   5.180   7.778   4.622 -0.9512 -0.8399  0.9407
  337MOL0     H45435   5.077   7.833   4.756  0.0369  0.3015 -0.6401
  337MOL0     H45436   5.300   7.985   4.797 -1.0277 -0.6798 -0.2012
  337MOL0     H45437   5.283   7.825   4.864 -0.3952 -0.2154 -0.1079
  337MOL0     H45438   5.431   7.734   4.684 -0.3767  0.5668 -1.7598
  337MOL0     H45439   5.421   7.875   4.597 -2.0420 -0.7263  0.5914
  337MOL0     H45440   5.527   7.876   4.886  1.2185  0.1505  0.0505
  337MOL0     H45441   5.628   7.841   4.740  0.5645  0.3276  0.7454
  337MOL0     H45442   5.500   8.103   4.735  0.2132 -0.4658  1.2284
  337MOL0     H45443   5.621   8.031   4.635 -0.7182  0.2504 -0.2631
  337MOL0     H45444   5.628   8.175   4.879  0.8075  0.3035  0.4519
  337MOL0     H45445   5.700   8.014   4.921 -1.1844  2.0858  1.9950
  337MOL0     H45446   5.895   7.930   4.721  2.1852 -0.3962 -1.2384
  337MOL0     H45447   6.120   7.962   4.620 -3.5057  0.7291  0.7144
  337MOL0     H45448   6.165   8.115   4.535  2.5176  2.8769  1.2968
  337MOL0     H45449   6.246   8.216   4.740  1.4881  0.2982 -2.2282
  337MOL0     H45450   6.194   8.078   4.829 -1.4215  1.1188  0.3212
  337MOL0     H45451   6.370   8.004   4.599  2.0296  1.3635 -0.8330
  337MOL0     H45452   6.370   7.934   4.751 -2.5442 -1.3055 -1.9932
  337MOL0     H45453   6.513   8.129   4.856  0.2374 -0.4296  0.0459
  337MOL0     H45454   6.480   8.215   4.709 -0.5029 -1.1180 -2.3484
  337MOL0     H45455   6.668   8.332   4.725  0.2472  0.5814 -1.5114
  337MOL0     H45456   6.892   8.415   4.734  0.8443  0.3245 -1.5990
  337MOL0     H45457   7.387   8.379   4.625 -0.9613  2.7237  2.0368
  337MOL0     H45458   7.618   8.398   4.641  0.5646 -0.7807  0.4155
  337MOL0     H45459   7.820   8.197   4.989 -0.0599  1.0311  0.5193
  337MOL0     H45460   7.860   8.075   4.849  1.1603  0.5674 -0.2919
  337MOL0     H45461   8.047   8.199   4.789 -1.2485  0.1236 -0.5272
  337MOL0     H45462   7.996   8.337   4.886  1.3117  0.0916  3.5440
  337MOL0     H45463   8.053   8.180   5.111  1.0317 -1.9972 -0.0287
  337MOL0     H45464   8.094   8.055   4.991 -3.1309 -0.5170 -2.3692
  337MOL0     H45465   8.295   8.171   4.929  2.8981  1.1727  1.1555
  337MOL0     H45466   8.296   8.141   5.092 -0.2928 -0.4943 -0.7887
  337MOL0     H45467   8.222   8.385   5.129  0.3220 -1.4773 -0.6392
  337MOL0     H45468   8.225   8.398   4.945  0.7404  3.5225  0.3073
  337MOL0     H45469   8.450   8.341   5.129 -2.5616 -1.4358 -0.0574
  337MOL0     H45470   8.464   8.345   4.959 -0.2853  0.5059 -0.3984
  337MOL0     H45471   8.325   8.582   5.062 -0.7553  0.8396 -1.4561
  337MOL0     H45472   8.445   8.572   4.929 -0.2375  4.1851  1.4755
  337MOL0     H45473   8.497   8.583   5.220  1.5481  1.2412  1.1454
  337MOL0     H45474   8.633   8.554   5.108  0.0653  0.2082 -1.8817
  337MOL0     H45475   7.636   8.106   4.948  0.6421  0.3046 -0.4968
  337MOL0     H45476   7.377   8.107   4.965  1.2596 -0.5890  1.6263
  337MOL0     H45477   7.051   8.021   4.716  1.5916  1.6696  2.7639
  337MOL0     H45478   6.820   7.926   4.712  1.7174  0.1458  1.2681
  337MOL0     H45479   4.896   8.152   4.544 -1.4906  2.4201  0.2816
  337MOL0     H45480   4.683   8.263   4.554 -1.5324  0.7273  0.2751
  337MOL0     H45481   4.162   8.159   4.357 -0.5206 -1.2440 -0.7296
  337MOL0     H45482   4.034   8.281   4.216 -1.1296  0.3432  1.1350
  337MOL0     H45483   3.871   8.486   4.234 -2.5802  2.5829 -0.8326
  337MOL0     H45484   3.898   8.423   4.078  1.6149 -0.2620 -0.2545
  337MOL0     H45485   3.900   8.675   3.991  0.4807 -0.5376 -0.4843
  337MOL0     H45486   3.851   8.728   4.152  1.5813 -1.1797 -0.0986
  337MOL0     H45487   3.700   8.498   4.044  2.2135  0.4063 -1.9379
  337MOL0     H45488   3.708   8.634   3.940  1.9977  2.2125  0.7723
  337MOL0     H45489   3.629   8.661   4.231  3.4574 -0.4411 -0.1472
  337MOL0     H45490   3.600   8.784   4.110 -1.6886 -0.1395 -0.3241
  337MOL0     H45491   3.251   8.565   4.045 -0.5874 -0.0513 -1.7990
  337MOL0     H45492   4.230   8.650   4.308  0.2170  0.6177  1.6930
  337MOL0     H45493   4.466   8.513   4.552 -0.8854  0.1192  1.2677
  337MOL0     H45494   4.436   8.637   4.434 -0.0404  2.5017  1.0675
  337MOL0     H45495   4.330   8.621   4.570  0.8568  1.2169 -0.6720
  338MOL0     O45496   4.722   3.807   2.408  0.3832  0.2301  0.7424
  338MOL0     C45497   4.672   3.843   2.305 -0.1694  0.3316 -0.0002
  338MOL0     O45498   4.739   3.903   2.196  0.0957 -0.4442  0.2173
  338MOL0     C45499   4.862   3.961   2.204 -0.1697 -0.4455 -0.4824
  338MOL0     C45500   4.959   3.966   2.306  0.5712  0.4427 -0.4947
  338MOL0     C45501   5.084   4.028   2.289  0.1345  0.5989 -0.1379
  338MOL0     C45502   5.110   4.100   2.169 -0.7024 -0.1808  0.0516
  338MOL0     O45503   5.234   4.153   2.166  0.5135 -0.5429  0.1473
  338MOL0     C45504   5.266   4.258   2.067 -0.5113  0.3955  0.0635
  338MOL0     C45505   5.350   4.198   1.957 -0.5935  0.3469  0.0090
  338MOL0     C45506   5.471   4.127   2.022 -0.8631  0.0652  0.0679
  338MOL0     C45507   5.566   4.099   1.899 -0.7732  0.0341  0.8844
  338MOL0     C45508   5.682   4.009   1.930 -0.9823 -0.4663 -0.3168
  338MOL0     C45509   5.805   4.088   1.979  0.0529  0.2541 -0.1157
  338MOL0     C45510   5.929   3.996   1.975 -0.0284  0.1688  0.4941
  338MOL0     C45511   6.051   4.083   1.990 -0.4332 -0.2798 -0.2056
  338MOL0     N45512   6.168   4.002   2.030 -0.4665  0.0406  0.4256
  338MOL0     C45513   6.287   4.044   2.097 -0.5022 -0.1415  0.2303
  338MOL0     C45514   6.365   3.927   2.099 -0.4139  0.5092 -0.4859
  338MOL0     C45515   6.503   3.917   2.147 -0.6701  0.0190  0.7276
  338MOL0     C45516   6.598   3.942   2.033 -0.2111  0.1839  0.0341
  338MOL0     C45517   6.652   3.817   1.970 -0.0227 -0.3333 -0.7153
  338MOL0     C45518   6.741   3.828   1.852  0.0981  0.1745 -0.3669
  338MOL0     O45519   6.852   3.918   1.887  0.7422 -0.1433  0.1488
  338MOL0     C45520   6.974   3.880   1.941  1.0829 -0.4220  0.6813
  338MOL0     C45521   7.074   3.976   1.949 -0.3575 -0.7474  1.0085
  338MOL0     C45522   7.198   3.944   1.997  0.2246 -0.0200 -0.2032
  338MOL0     C45523   7.211   3.826   2.078 -1.3163  0.3834 -0.0162
  338MOL0     C45524   7.341   3.804   2.152  0.1576  0.0505 -0.1425
  338MOL0     O45525   7.345   3.706   2.244  0.1617  0.5670  0.3912
  338MOL0     C45526   7.425   3.719   2.349 -0.0749 -0.3641 -0.7202
  338MOL0     C45527   7.564   3.695   2.352  1.0056 -0.6473  0.6985
  338MOL0     C45528   7.634   3.715   2.469  0.5023  1.3321 -0.2123
  338MOL0     C45529   7.579   3.737   2.597 -0.4215 -0.5516  0.7506
  338MOL0     O45530   7.656   3.758   2.713 -0.0623 -0.5899 -0.1693
  338MOL0     C45531   7.763   3.670   2.734  0.3161  0.4588 -0.3241
  338MOL0     C45532   7.779   3.623   2.884  0.4773  0.1643 -0.4358
  338MOL0     C45533   7.652   3.575   2.947  0.2671 -0.1840  0.1247
  338MOL0     C45534   7.691   3.533   3.092 -0.2420 -0.1558 -0.6032
  338MOL0     C45535   7.572   3.485   3.174 -0.8922  1.1005  0.2843
  338MOL0     C45536   7.459   3.586   3.203 -0.7001  0.1677 -0.4527
  338MOL0     C45537   7.380   3.571   3.328 -1.1883  0.0581  0.4092
  338MOL0     C45538   7.308   3.442   3.360  0.4745 -0.1507 -0.0245
  338MOL0    Cl45539   7.192   3.402   3.223  0.0195 -0.0392 -0.2412
  338MOL0     C45540   7.437   3.748   2.601 -0.2071  0.3917  0.5508
  338MOL0     C45541   7.366   3.747   2.475  0.4246  0.3256  0.4428
  338MOL0     O45542   7.426   3.889   2.134 -0.6809 -0.1372  0.4177
  338MOL0     C45543   7.108   3.737   2.085  0.5699  0.9878 -0.0037
  338MOL0     C45544   6.990   3.759   2.012  0.2911 -0.0225 -0.1229
  338MOL0     N45545   6.295   3.824   2.033 -0.5768 -0.3993  0.2908
  338MOL0     N45546   6.180   3.868   1.990 -0.3921 -0.4496  0.3414
  338MOL0     C45547   5.009   4.103   2.071 -0.7532  0.0960 -0.6454
  338MOL0     C45548   4.893   4.043   2.096  0.2807  0.6585  0.4313
  338MOL0     C45549   4.530   3.809   2.277 -0.3589  0.3843 -0.0004
  338MOL0     C45550   4.481   3.854   2.153 -0.6209 -1.4884 -0.5378
  338MOL0     C45551   4.353   3.815   2.123  0.6623  0.2141 -0.0267
  338MOL0     C45552   4.273   3.732   2.207  0.3399 -0.9782 -0.1832
  338MOL0     O45553   4.143   3.694   2.182  0.1722 -0.2491 -0.0972
  338MOL0     C45554   4.046   3.794   2.147 -0.1872  0.3963  1.0392
  338MOL0     C45555   3.901   3.735   2.171 -0.1129 -0.2281  0.6782
  338MOL0     C45556   3.783   3.817   2.111  0.2868 -0.1156  0.2955
  338MOL0     C45557   3.661   3.762   2.184  0.3400  0.5159 -0.8093
  338MOL0     C45558   3.649   3.624   2.144 -0.6277 -0.6540 -0.0721
  338MOL0     C45559   3.646   3.503   2.143 -0.9136  0.5599  0.3051
  338MOL0     C45560   4.328   3.686   2.327 -0.1448  0.2789  0.7300
  338MOL0     C45561   4.457   3.718   2.361 -1.1070 -0.3028 -0.4458
  338MOL0     C45562   4.502   3.646   2.489 -0.7251  0.3695 -0.3314
  338MOL0     H45563   4.929   3.909   2.394  2.1197  0.1203 -0.1395
  338MOL0     H45564   5.156   4.013   2.369  2.8661  0.7775 -2.4150
  338MOL0     H45565   5.180   4.300   2.014  0.3877  0.5013 -1.3843
  338MOL0     H45566   5.319   4.335   2.124 -0.4908 -1.1552  2.2530
  338MOL0     H45567   5.396   4.280   1.901 -0.1488  1.9365  2.5781
  338MOL0     H45568   5.290   4.128   1.898 -2.9515 -0.7844  3.4533
  338MOL0     H45569   5.444   4.027   2.058  1.5015 -1.2690 -1.5281
  338MOL0     H45570   5.528   4.172   2.103 -1.9039  2.3084 -0.3793
  338MOL0     H45571   5.507   4.044   1.825  1.1988  0.1144 -0.8526
  338MOL0     H45572   5.595   4.196   1.856 -2.5484  1.0275  1.8390
  338MOL0     H45573   5.654   3.937   2.007 -1.3854 -1.8611 -1.7074
  338MOL0     H45574   5.710   3.948   1.843  0.2710 -2.3796  1.3359
  338MOL0     H45575   5.806   4.167   1.903 -3.1605 -2.9843 -3.9920
  338MOL0     H45576   5.785   4.123   2.080 -1.1071 -0.8099  0.0498
  338MOL0     H45577   5.928   3.929   1.888 -0.6727 -0.7511  1.1862
  338MOL0     H45578   5.915   3.926   2.058 -1.1009  0.5315  0.6306
  338MOL0     H45579   6.067   4.130   1.892 -1.1928 -1.4322 -0.9154
  338MOL0     H45580   6.039   4.160   2.066  0.2433  0.7531 -1.1114
  338MOL0     H45581   6.312   4.147   2.120 -4.1898  1.1876 -1.0793
  338MOL0     H45582   6.513   3.999   2.220 -3.6758 -0.8956  2.3097
  338MOL0     H45583   6.513   3.820   2.197 -0.1253  0.6153  1.8214
  338MOL0     H45584   6.552   4.005   1.956 -1.1741  1.2176  1.4132
  338MOL0     H45585   6.679   4.009   2.066 -1.5027  3.2982 -2.5040
  338MOL0     H45586   6.566   3.754   1.949  0.9450 -1.2274 -2.1862
  338MOL0     H45587   6.716   3.769   2.045  1.3502  1.2582 -0.8041
  338MOL0     H45588   6.681   3.876   1.774  2.2411  2.1934 -0.9027
  338MOL0     H45589   6.777   3.733   1.812 -0.7438 -0.7691  1.0413
  338MOL0     H45590   7.060   4.080   1.922  2.8803  0.3585  3.0016
  338MOL0     H45591   7.267   4.028   1.988  2.3088 -1.5811  0.3831
  338MOL0     H45592   7.609   3.690   2.253  0.5970  1.6551  0.3303
  338MOL0     H45593   7.742   3.707   2.464  0.4354 -1.9479  1.2001
  338MOL0     H45594   7.748   3.580   2.673 -1.6419  0.2413  0.3992
  338MOL0     H45595   7.859   3.718   2.716 -1.1532  4.9844  2.2921
  338MOL0     H45596   7.852   3.541   2.883  1.3791  0.8902  1.2833
  338MOL0     H45597   7.823   3.706   2.941  0.2726 -0.4775  0.6910
  338MOL0     H45598   7.582   3.659   2.948  0.6414  0.1476  1.4901
  338MOL0     H45599   7.614   3.493   2.887  0.5292  2.1169 -3.4784
  338MOL0     H45600   7.735   3.620   3.142 -1.8750  0.0638  0.5064
  338MOL0     H45601   7.772   3.459   3.087 -2.1778 -2.4389 -0.1994
  338MOL0     H45602   7.622   3.453   3.265 -1.4538  1.7134  0.8161
  338MOL0     H45603   7.517   3.402   3.128 -0.0495  0.7562 -0.1269
  338MOL0     H45604   7.503   3.686   3.195  2.6474 -1.3004 -2.8371
  338MOL0     H45605   7.386   3.591   3.122  1.0180  2.1787 -2.0031
  338MOL0     H45606   7.307   3.652   3.335 -1.9248 -0.5699  0.0805
  338MOL0     H45607   7.458   3.582   3.404 -1.4632 -0.5583  0.7950
  338MOL0     H45608   7.376   3.356   3.364  0.7488  0.0221 -0.8305
  338MOL0     H45609   7.261   3.440   3.459  1.8936 -3.8352  0.7288
  338MOL0     H45610   7.382   3.772   2.691  1.8054  1.9647  1.4224
  338MOL0     H45611   7.261   3.771   2.465  0.6325  0.5136 -2.1146
  338MOL0     H45612   7.112   3.651   2.152 -1.0181  1.3603  0.6206
  338MOL0     H45613   6.914   3.684   2.028  1.6013 -1.4408 -0.2167
  338MOL0     H45614   5.035   4.154   1.979  1.1849 -1.4162 -1.0053
  338MOL0     H45615   4.810   4.052   2.027  0.5778  0.1313 -0.0015
  338MOL0     H45616   4.533   3.924   2.089 -0.5512 -1.1178 -0.0756
  338MOL0     H45617   4.324   3.833   2.020  3.1760 -3.2146 -1.5047
  338MOL0     H45618   4.052   3.815   2.040  0.6824 -0.6611  0.8671
  338MOL0     H45619   4.052   3.891   2.197 -0.6567  1.2972 -0.5882
  338MOL0     H45620   3.876   3.712   2.276 -2.8027  3.1144  0.9581
  338MOL0     H45621   3.900   3.643   2.112  0.2425  0.8074 -0.9988
  338MOL0     H45622   3.774   3.801   2.003  0.3447 -1.9229  0.5239
  338MOL0     H45623   3.804   3.923   2.131 -1.8062  0.8539 -2.0336
  338MOL0     H45624   3.685   3.782   2.289  1.5140 -0.1880 -0.9238
  338MOL0     H45625   3.567   3.816   2.167 -0.5674 -0.0909  1.7429
  338MOL0     H45626   3.649   3.396   2.138  3.2238  0.5330 -2.3335
  338MOL0     H45627   4.275   3.605   2.377  0.7729  0.0923  1.4183
  338MOL0     H45628   4.540   3.708   2.570  0.2408 -0.0021 -0.4829
  338MOL0     H45629   4.420   3.583   2.525  1.8792 -2.9207  0.3684
  338MOL0     H45630   4.576   3.572   2.456 -1.7000 -1.0276  0.5079
  339MOL0     O45631   8.691   4.485   2.318 -0.9625  0.7460 -0.0020
  339MOL0     C45632   8.776   4.574   2.333 -0.5002 -0.8724  0.8373
  339MOL0     O45633   8.761   4.706   2.287  0.3141  0.4488 -0.1332
  339MOL0     C45634   8.673   4.745   2.189 -0.3239  0.2133  0.6265
  339MOL0     C45635   8.540   4.694   2.197 -0.1602 -0.4973 -0.4123
  339MOL0     C45636   8.449   4.747   2.103  0.0312 -0.2314  0.2614
  339MOL0     C45637   8.481   4.847   2.009 -0.4949 -0.5612 -0.0440
  339MOL0     O45638   8.387   4.921   1.935  0.6647  0.1783  0.3242
  339MOL0     C45639   8.249   4.906   1.970  0.0095 -0.5231  0.7659
  339MOL0     C45640   8.226   4.992   2.100 -0.2728 -0.3812  0.7093
  339MOL0     C45641   8.091   5.064   2.111 -0.1617  0.3517  0.3801
  339MOL0     C45642   8.061   5.177   2.015  0.0984  0.2272 -0.6568
  339MOL0     C45643   7.908   5.176   1.983  0.3860  0.2979  0.5697
  339MOL0     C45644   7.822   5.194   2.111  0.1407 -0.0907 -0.1893
  339MOL0     C45645   7.677   5.221   2.058 -0.3372  0.1258  0.5201
  339MOL0     C45646   7.586   5.188   2.180 -0.5615 -0.0140 -0.5285
  339MOL0     N45647   7.449   5.211   2.139  0.3931  0.5457 -0.7024
  339MOL0     C45648   7.385   5.335   2.148  0.4608  0.3040  0.1641
  339MOL0     C45649   7.265   5.313   2.091 -0.1320 -0.2672 -0.6116
  339MOL0     C45650   7.158   5.410   2.048  0.3747  0.2094 -0.3215
  339MOL0     C45651   7.027   5.403   2.121 -0.7649 -0.5881  0.0178
  339MOL0     C45652   6.941   5.288   2.084 -0.8354 -0.5313  0.0926
  339MOL0     C45653   6.802   5.313   2.120 -0.9936  0.1404  0.6772
  339MOL0     O45654   6.747   5.192   2.163  0.3400 -0.1197 -0.0494
  339MOL0     C45655   6.616   5.165   2.163  0.1298 -0.4185 -0.1838
  339MOL0     C45656   6.586   5.062   2.245 -0.6552  0.4497  0.3368
  339MOL0     C45657   6.462   5.016   2.263  0.1061  0.0949  0.2587
  339MOL0     C45658   6.365   5.091   2.206  0.4846 -1.2341  0.9635
  339MOL0     C45659   6.221   5.047   2.229 -0.3101  0.3156 -1.4957
  339MOL0     O45660   6.128   5.139   2.198 -0.4368 -0.3216 -0.7787
  339MOL0     C45661   6.006   5.085   2.170 -0.1939  0.7504  0.9521
  339MOL0     C45662   5.913   5.054   2.280  0.6604 -0.6097 -0.3448
  339MOL0     C45663   5.786   5.017   2.238 -0.1580 -0.0471 -0.4073
  339MOL0     C45664   5.742   5.005   2.104  0.0516  0.1043 -0.8613
  339MOL0     O45665   5.604   4.991   2.085  0.6865  0.4873  0.5956
  339MOL0     C45666   5.564   4.966   1.953 -1.6926 -0.0845  0.5565
  339MOL0     C45667   5.422   4.902   1.946 -0.2734 -0.0288 -0.0726
  339MOL0     C45668   5.421   4.832   1.812 -0.3045 -0.2732 -0.3277
  339MOL0     C45669   5.285   4.775   1.784  0.3181 -0.4648  0.1457
  339MOL0     C45670   5.268   4.627   1.777  1.0166  0.5998  0.2238
  339MOL0     C45671   5.120   4.577   1.769 -0.6628  0.8110 -0.4473
  339MOL0     C45672   5.051   4.645   1.650  0.3818 -0.5581  0.2833
  339MOL0     C45673   4.922   4.571   1.609 -0.5172  0.3682  0.9287
  339MOL0    Cl45674   4.780   4.617   1.712  0.2772  0.3191  0.6868
  339MOL0     C45675   5.842   5.029   2.004 -0.8402 -0.3913  0.8104
  339MOL0     C45676   5.968   5.078   2.034 -0.1452  0.2579  0.5848
  339MOL0     O45677   6.195   4.942   2.299 -0.1372 -0.0185 -0.5034
  339MOL0     C45678   6.387   5.203   2.120  0.1871  0.3562  0.8858
  339MOL0     C45679   6.520   5.232   2.095 -0.6201 -0.0518 -0.2166
  339MOL0     N45680   7.250   5.174   2.078  1.1024  0.4770  0.2798
  339MOL0     N45681   7.361   5.114   2.106  0.3994  0.0023  0.4072
  339MOL0     C45682   8.616   4.884   2.000 -0.1690  0.3197 -1.1043
  339MOL0     C45683   8.713   4.825   2.084 -0.6137  0.2643 -0.5769
  339MOL0     C45684   8.907   4.530   2.385 -0.8431 -0.1107 -0.7797
  339MOL0     C45685   9.011   4.627   2.386  1.0345  0.3462  0.3729
  339MOL0     C45686   9.138   4.595   2.422 -1.0367  0.4100  0.1339
  339MOL0     C45687   9.176   4.468   2.467  0.4006 -1.6325  1.4703
  339MOL0     O45688   9.310   4.448   2.494  0.1995 -0.3196 -1.0372
  339MOL0     C45689   9.362   4.319   2.534  0.0713 -0.7094  0.7192
  339MOL0     C45690   9.329   4.278   2.674  0.1628  0.3746  0.6178
  339MOL0     C45691   9.447   4.225   2.757 -0.8992 -0.2622 -0.2757
  339MOL0     C45692   9.425   4.221   2.908  0.4436  0.1703 -0.2453
  339MOL0     C45693   9.415   4.362   2.955 -0.4319  0.0364  0.2260
  339MOL0     C45694   9.412   4.475   2.996 -0.7224 -0.5820  0.0335
  339MOL0     C45695   9.078   4.373   2.463 -0.3935  0.4863 -0.3232
  339MOL0     C45696   8.946   4.405   2.439 -0.4248  0.8824  0.0739
  339MOL0     C45697   8.840   4.302   2.453  0.1583 -0.2178 -0.5912
  339MOL0     H45698   8.513   4.616   2.267  2.2624 -0.8824  0.1934
  339MOL0     H45699   8.346   4.716   2.111  0.3137 -1.2041  0.1856
  339MOL0     H45700   8.195   4.958   1.890 -2.2983  0.1217  2.6071
  339MOL0     H45701   8.215   4.802   1.972 -1.0829 -0.3155 -2.0745
  339MOL0     H45702   8.306   5.065   2.117  2.5112 -2.6669 -1.5899
  339MOL0     H45703   8.230   4.919   2.182  2.5225 -1.7484 -0.5333
  339MOL0     H45704   8.080   5.096   2.215  3.5494  2.4926  0.3004
  339MOL0     H45705   8.024   4.981   2.085  2.0594 -0.7227 -2.4277
  339MOL0     H45706   8.083   5.269   2.071 -2.8831  1.2003 -0.9267
  339MOL0     H45707   8.130   5.172   1.931 -0.1611  0.3439 -0.8775
  339MOL0     H45708   7.878   5.255   1.914  0.5882 -0.6078 -0.5914
  339MOL0     H45709   7.880   5.087   1.925 -0.1023  0.8835 -0.1110
  339MOL0     H45710   7.831   5.101   2.168 -0.1601 -0.0535 -0.0808
  339MOL0     H45711   7.860   5.279   2.168 -1.9691  1.1287 -0.5072
  339MOL0     H45712   7.650   5.155   1.975 -2.3462  0.5218  0.8077
  339MOL0     H45713   7.660   5.320   2.015  0.8801  0.1709  0.1194
  339MOL0     H45714   7.600   5.086   2.217  1.6949 -0.0272 -1.2448
  339MOL0     H45715   7.594   5.254   2.267  1.5604 -1.3103  0.3431
  339MOL0     H45716   7.416   5.428   2.195 -1.4047  1.4377 -0.7535
  339MOL0     H45717   7.206   5.507   2.063  2.7401 -1.1151  1.4083
  339MOL0     H45718   7.143   5.381   1.943 -0.4096 -1.1070  0.1301
  339MOL0     H45719   7.035   5.382   2.228 -1.8601 -2.5150 -0.2330
  339MOL0     H45720   6.985   5.503   2.106 -0.7188 -0.3787  1.1669
  339MOL0     H45721   6.974   5.197   2.135 -1.3569 -0.5702  0.3572
  339MOL0     H45722   6.959   5.271   1.977  1.6910  0.7226  0.2284
  339MOL0     H45723   6.758   5.355   2.029  1.1901  0.9663 -0.0737
  339MOL0     H45724   6.787   5.393   2.192 -2.4516 -0.8690  1.5402
  339MOL0     H45725   6.662   5.010   2.303  2.1494  1.8533 -1.8120
  339MOL0     H45726   6.427   4.934   2.325 -2.7291  0.4963 -0.6528
  339MOL0     H45727   5.949   5.056   2.383  1.2201  2.8779 -0.4760
  339MOL0     H45728   5.715   4.985   2.314  1.1777  0.7556  1.2510
  339MOL0     H45729   5.569   5.049   1.882 -0.9062 -0.3444  0.2941
  339MOL0     H45730   5.639   4.900   1.909 -1.3671  0.9247 -0.4438
  339MOL0     H45731   5.416   4.832   2.030  1.6886 -1.6973 -1.2094
  339MOL0     H45732   5.332   4.961   1.962 -1.3961 -1.5141 -0.6782
  339MOL0     H45733   5.466   4.891   1.731  2.3977  1.8460  2.4602
  339MOL0     H45734   5.480   4.742   1.829  1.5156  1.1920  1.6040
  339MOL0     H45735   5.255   4.822   1.690 -1.2135 -0.3575  0.6649
  339MOL0     H45736   5.220   4.821   1.859  0.1674 -0.2213 -0.1353
  339MOL0     H45737   5.310   4.591   1.872  0.8378  0.5243  0.2737
  339MOL0     H45738   5.327   4.598   1.689  2.0629  4.3285 -0.4629
  339MOL0     H45739   5.128   4.468   1.766 -0.1117  0.7397  1.7289
  339MOL0     H45740   5.065   4.613   1.857 -0.5062  1.8576 -0.7650
  339MOL0     H45741   5.114   4.645   1.561  1.1169 -0.9099  0.7972
  339MOL0     H45742   5.013   4.743   1.680 -0.0419 -1.5925  3.4924
  339MOL0     H45743   4.906   4.592   1.503 -1.7169 -0.5621  0.8967
  339MOL0     H45744   4.945   4.464   1.614  0.5886  0.6451  2.8781
  339MOL0     H45745   5.816   5.018   1.899 -1.8173 -4.4860  1.3077
  339MOL0     H45746   6.035   5.104   1.953  0.2365  2.2131  1.4654
  339MOL0     H45747   6.299   5.250   2.076 -0.3971 -0.0494  1.5881
  339MOL0     H45748   6.541   5.300   2.012  0.6870  0.7100  0.6950
  339MOL0     H45749   8.649   4.969   1.942  2.2322  0.3940  0.2459
  339MOL0     H45750   8.819   4.848   2.079  0.1269 -2.3669  1.2184
  339MOL0     H45751   8.983   4.729   2.362  2.2393  0.5368 -0.2601
  339MOL0     H45752   9.217   4.669   2.424 -1.5630  0.9782  1.2175
  339MOL0     H45753   9.471   4.329   2.535 -0.0373  1.0281 -0.4629
  339MOL0     H45754   9.338   4.242   2.459 -0.5410  1.8796 -1.9397
  339MOL0     H45755   9.262   4.192   2.666  0.5173  0.2610 -1.9723
  339MOL0     H45756   9.282   4.368   2.717  0.8322  1.5123 -0.9458
  339MOL0     H45757   9.529   4.296   2.743 -1.8335  1.6014  2.7553
  339MOL0     H45758   9.478   4.124   2.727  1.9777  0.3575  0.4242
  339MOL0     H45759   9.347   4.152   2.942  2.1415 -1.7768 -0.0731
  339MOL0     H45760   9.511   4.180   2.962 -0.6100 -3.5302 -1.0598
  339MOL0     H45761   9.415   4.579   3.024  0.2055  0.2155 -2.7244
  339MOL0     H45762   9.109   4.272   2.488  2.4545  1.0971 -1.0202
  339MOL0     H45763   8.881   4.215   2.505  1.4954 -0.0024 -1.2537
  339MOL0     H45764   8.762   4.338   2.520  2.5181  1.8202  1.2010
  339MOL0     H45765   8.800   4.277   2.354  2.8049  2.9064 -2.6334
  340MOL0     O45766   6.877   2.063   3.287  0.1723  0.3717 -1.1702
  340MOL0     C45767   6.838   2.111   3.181 -0.3574  0.1775  0.7524
  340MOL0     O45768   6.894   2.205   3.106 -0.3061 -0.1654  0.6230
  340MOL0     C45769   7.013   2.262   3.149  0.2153 -0.3606  0.3507
  340MOL0     C45770   7.130   2.187   3.181 -0.3326  0.1904 -0.1660
  340MOL0     C45771   7.244   2.253   3.229 -0.8551 -0.3999  0.6520
  340MOL0     C45772   7.248   2.394   3.253 -0.0051 -0.2540 -0.0026
  340MOL0     O45773   7.358   2.464   3.290  0.4352 -0.2657 -0.8753
  340MOL0     C45774   7.335   2.512   3.424 -0.6703 -0.4614  0.5206
  340MOL0     C45775   7.430   2.443   3.523  0.2819 -0.2789 -0.4651
  340MOL0     C45776   7.574   2.507   3.508  0.6028 -0.5206  0.1647
  340MOL0     C45777   7.676   2.399   3.552 -0.0265  0.2610  0.3597
  340MOL0     C45778   7.828   2.453   3.533  0.2428  0.2652 -0.1112
  340MOL0     C45779   7.914   2.325   3.535  0.2162 -0.2636 -0.4180
  340MOL0     C45780   7.900   2.222   3.431  0.0114  0.4389  0.5377
  340MOL0     C45781   8.012   2.120   3.444 -0.2388  0.5842 -0.1096
  340MOL0     N45782   8.002   2.002   3.348  0.3313 -0.1253 -0.5636
  340MOL0     C45783   7.895   1.979   3.264  0.3669 -1.0915  0.1606
  340MOL0     C45784   7.924   1.856   3.207  0.0416  0.0764 -1.1754
  340MOL0     C45785   7.844   1.775   3.107  0.5612 -0.2105 -0.4028
  340MOL0     C45786   7.842   1.831   2.961  0.2415 -0.8396 -0.1379
  340MOL0     C45787   7.952   1.781   2.881 -0.1299  0.9034  0.3111
  340MOL0     C45788   8.084   1.843   2.922 -1.5935  0.3423 -0.0464
  340MOL0     O45789   8.182   1.839   2.818  0.3132  0.4535 -0.8976
  340MOL0     C45790   8.291   1.922   2.834  0.0175 -0.3012 -0.7796
  340MOL0     C45791   8.339   1.981   2.957 -0.0447 -0.3637  0.1056
  340MOL0     C45792   8.452   2.051   2.945 -0.6657 -0.3996  0.1557
  340MOL0     C45793   8.526   2.076   2.829  1.2031 -0.5365 -0.7176
  340MOL0     C45794   8.653   2.156   2.833  0.4731 -1.0136  0.8982
  340MOL0     O45795   8.705   2.195   2.713  0.2089  0.6238 -0.2136
  340MOL0     C45796   8.836   2.226   2.700  0.2310  0.1740  0.0527
  340MOL0     C45797   8.913   2.135   2.632  0.2415  0.0744  0.3778
  340MOL0     C45798   9.049   2.160   2.615  0.6627  0.3221 -0.7481
  340MOL0     C45799   9.105   2.277   2.657 -0.6481 -0.1883 -1.0743
  340MOL0     O45800   9.240   2.297   2.651 -0.4156 -0.0124 -0.6817
  340MOL0     C45801   9.285   2.393   2.561 -0.3929  0.2368  0.4783
  340MOL0     C45802   9.437   2.372   2.549  0.0723  0.2666 -0.1927
  340MOL0     C45803   9.494   2.438   2.426  0.0277  0.3140 -0.1456
  340MOL0     C45804   9.528   2.350   2.311 -0.1773  0.7464 -0.0705
  340MOL0     C45805   9.678   2.295   2.330  0.3986 -1.0467 -0.0139
  340MOL0     C45806   9.695   2.153   2.287  0.5968 -0.3902 -0.0086
  340MOL0     C45807   9.655   2.044   2.383  0.6651 -0.0052 -0.4465
  340MOL0     C45808   9.643   1.904   2.323 -0.6080  0.4520  0.0631
  340MOL0    Cl45809   9.499   1.894   2.233 -0.1339 -0.1781 -0.2996
  340MOL0     C45810   9.028   2.379   2.714 -0.2056  0.1846  0.2468
  340MOL0     C45811   8.893   2.349   2.737 -0.1635  0.2659  0.3290
  340MOL0     O45812   8.698   2.188   2.939 -0.3756 -0.0815 -0.3245
  340MOL0     C45813   8.481   2.019   2.708  0.3638  1.3174 -0.0733
  340MOL0     C45814   8.370   1.937   2.714  0.1757  0.4523  0.4926
  340MOL0     N45815   8.047   1.814   3.255  0.3037  0.9522  0.3394
  340MOL0     N45816   8.092   1.892   3.349  0.7745  0.7690 -0.0300
  340MOL0     C45817   7.140   2.464   3.208  0.0943  0.4695 -0.0455
  340MOL0     C45818   7.014   2.402   3.160 -0.6479 -0.1176 -0.4949
  340MOL0     C45819   6.707   2.059   3.126  0.3070  0.0036  0.5805
  340MOL0     C45820   6.635   2.137   3.036 -0.4578  1.2388 -0.9979
  340MOL0     C45821   6.513   2.100   2.983  0.4036 -0.0420  0.2190
  340MOL0     C45822   6.461   1.969   3.009  0.6021  0.6415 -0.3366
  340MOL0     O45823   6.345   1.914   2.948  0.2807  0.1082 -0.1135
  340MOL0     C45824   6.297   1.971   2.825  0.1778  0.6109  0.6480
  340MOL0     C45825   6.205   1.875   2.752 -0.2559 -0.2712 -0.5449
  340MOL0     C45826   6.287   1.793   2.655  0.0403  0.0509  0.1733
  340MOL0     C45827   6.310   1.864   2.521 -0.5724 -0.4021 -0.0738
  340MOL0     C45828   6.193   1.916   2.454 -0.0879  1.5130  0.4665
  340MOL0     C45829   6.099   1.958   2.390 -0.5492 -0.5876 -0.8786
  340MOL0     C45830   6.534   1.880   3.086  0.3137 -0.3557 -0.5062
  340MOL0     C45831   6.653   1.932   3.144  0.1446  0.6142 -0.2532
  340MOL0     C45832   6.728   1.832   3.227  0.3604 -0.9709  0.0622
  340MOL0     H45833   7.121   2.079   3.170  2.3907 -0.5035  2.8797
  340MOL0     H45834   7.343   2.207   3.236 -0.9732 -1.1267 -1.6660
  340MOL0     H45835   7.333   2.621   3.433 -0.8015 -0.5180  1.2267
  340MOL0     H45836   7.242   2.482   3.472 -0.0218  0.8651  2.7478
  340MOL0     H45837   7.438   2.336   3.501  3.1999 -0.8569  2.6116
  340MOL0     H45838   7.393   2.464   3.624  0.8564  0.2101 -0.3482
  340MOL0     H45839   7.580   2.602   3.562  4.2116 -0.6433  0.2242
  340MOL0     H45840   7.580   2.535   3.402  0.0276  1.2307  0.5567
  340MOL0     H45841   7.663   2.369   3.656  0.4509  1.2804  0.7222
  340MOL0     H45842   7.663   2.308   3.493  2.1625  0.5131 -0.6124
  340MOL0     H45843   7.833   2.499   3.434 -0.3453  0.8044  0.1024
  340MOL0     H45844   7.853   2.520   3.615  2.1143 -2.0063  1.2822
  340MOL0     H45845   8.017   2.363   3.541 -0.7420  2.4792  0.9204
  340MOL0     H45846   7.885   2.287   3.634 -2.8026  4.0939  0.6675
  340MOL0     H45847   7.906   2.277   3.337  0.6238 -0.4336  0.0513
  340MOL0     H45848   7.802   2.172   3.436  0.5402 -0.5359  1.6596
  340MOL0     H45849   8.106   2.174   3.430 -0.4421  1.2483  0.9620
  340MOL0     H45850   8.008   2.085   3.547 -1.6137  2.4849  0.5532
  340MOL0     H45851   7.808   2.041   3.247  0.9618 -0.0210  0.8791
  340MOL0     H45852   7.876   1.671   3.113  0.4052 -0.2382  4.5292
  340MOL0     H45853   7.740   1.785   3.141 -0.7328 -0.6388 -3.8215
  340MOL0     H45854   7.741   1.816   2.920 -1.9380  1.6040  3.7349
  340MOL0     H45855   7.853   1.940   2.961  2.0507 -1.0033  0.0690
  340MOL0     H45856   7.923   1.815   2.781 -1.1937  6.1859  2.0632
  340MOL0     H45857   7.944   1.673   2.868  0.1955  0.9308 -0.1323
  340MOL0     H45858   8.127   1.793   3.010 -0.1382  0.1687 -0.8259
  340MOL0     H45859   8.073   1.943   2.964  1.5918  0.7248  0.0978
  340MOL0     H45860   8.284   1.992   3.050 -1.6611  1.9466 -0.9957
  340MOL0     H45861   8.493   2.098   3.034  1.1073  2.4650 -1.9867
  340MOL0     H45862   8.854   2.051   2.597  0.3421  0.1127  0.1136
  340MOL0     H45863   9.116   2.082   2.578  2.9620  3.3456 -3.5594
  340MOL0     H45864   9.240   2.367   2.465 -1.3918 -0.8538  1.2124
  340MOL0     H45865   9.268   2.496   2.594  0.9845  0.0583  1.8826
  340MOL0     H45866   9.476   2.424   2.637  2.6583 -0.6479 -0.7046
  340MOL0     H45867   9.464   2.266   2.561 -3.9889 -1.5962 -4.1708
  340MOL0     H45868   9.420   2.512   2.395 -0.9834 -1.0533 -1.1351
  340MOL0     H45869   9.576   2.501   2.460 -0.8286  1.4347 -0.1150
  340MOL0     H45870   9.515   2.403   2.216 -1.4624  2.5896  1.0818
  340MOL0     H45871   9.457   2.266   2.307  1.1680 -0.5521  1.7263
  340MOL0     H45872   9.721   2.308   2.430 -0.5324 -2.6626  0.6263
  340MOL0     H45873   9.745   2.348   2.262 -1.5668  0.5722 -0.7765
  340MOL0     H45874   9.629   2.136   2.201 -2.0265  2.5350  1.2343
  340MOL0     H45875   9.799   2.142   2.257  0.0116  1.8648 -3.5106
  340MOL0     H45876   9.557   2.062   2.428 -0.9107 -1.0316 -3.2221
  340MOL0     H45877   9.738   2.043   2.455 -0.5870  0.3926  1.0476
  340MOL0     H45878   9.730   1.879   2.261 -2.4355  0.7706 -2.8067
  340MOL0     H45879   9.636   1.831   2.404 -0.4465 -0.0562 -0.3678
  340MOL0     H45880   9.078   2.470   2.744 -0.7768  0.0413  1.7233
  340MOL0     H45881   8.849   2.435   2.786  0.1284  1.7082 -1.8397
  340MOL0     H45882   8.538   2.022   2.616 -1.9145  1.3921 -1.5633
  340MOL0     H45883   8.331   1.896   2.621 -2.2628  1.3511  1.0331
  340MOL0     H45884   7.154   2.570   3.223 -0.0663  1.1207 -3.6545
  340MOL0     H45885   6.934   2.462   3.119  0.3221  0.1484 -2.1182
  340MOL0     H45886   6.675   2.238   3.025  0.3404  0.9758 -0.5939
  340MOL0     H45887   6.455   2.167   2.921 -0.1832 -0.8943 -0.1732
  340MOL0     H45888   6.365   2.019   2.754 -1.2123  1.0981 -0.3980
  340MOL0     H45889   6.249   2.062   2.862  0.1747 -0.2106  2.8556
  340MOL0     H45890   6.124   1.936   2.713  2.1651  4.5271  1.1481
  340MOL0     H45891   6.168   1.800   2.823  3.9581 -2.6360 -0.4866
  340MOL0     H45892   6.221   1.707   2.638 -1.4672  1.5944 -2.4365
  340MOL0     H45893   6.384   1.769   2.699  0.6927 -1.1878 -1.8155
  340MOL0     H45894   6.374   1.950   2.540  0.5543 -0.7015 -2.2484
  340MOL0     H45895   6.347   1.795   2.445 -3.2280  0.9408 -2.8273
  340MOL0     H45896   6.023   2.004   2.330 -1.2896 -1.0306 -0.3030
  340MOL0     H45897   6.496   1.780   3.102  0.8075 -0.3669  0.7242
  340MOL0     H45898   6.684   1.732   3.239  2.7903 -2.0704  0.5646
  340MOL0     H45899   6.829   1.810   3.190  0.6215 -1.0189  0.7798
  340MOL0     H45900   6.733   1.875   3.327 -0.2714 -2.9643  1.0121
  341MOL0     O45901   4.904   5.856   8.348  0.0987  0.3354  0.3311
  341MOL0     C45902   4.916   5.783   8.244 -0.4437 -0.4007 -0.2670
  341MOL0     O45903   5.025   5.728   8.190 -0.2076 -0.4701 -0.3966
  341MOL0     C45904   5.156   5.755   8.229  0.7911  0.6264  0.7069
  341MOL0     C45905   5.255   5.689   8.144  0.0376 -1.0838 -0.7434
  341MOL0     C45906   5.395   5.714   8.162  0.2382  0.4888  0.4425
  341MOL0     C45907   5.435   5.793   8.268  0.2028 -0.4557  0.2220
  341MOL0     O45908   5.567   5.833   8.293  0.5493 -0.2752  0.3922
  341MOL0     C45909   5.672   5.756   8.231  0.2937 -0.5267 -0.1262
  341MOL0     C45910   5.815   5.779   8.274  1.1236 -0.4093 -0.0152
  341MOL0     C45911   5.879   5.916   8.229  1.4885  0.7069  0.9131
  341MOL0     C45912   6.006   5.934   8.299 -0.2837 -0.5349  0.3934
  341MOL0     C45913   6.062   6.073   8.276 -0.5744  0.2934 -0.9770
  341MOL0     C45914   6.203   6.098   8.352  0.0658  0.7134 -0.1849
  341MOL0     C45915   6.324   5.995   8.317  0.3395 -0.2642 -0.1603
  341MOL0     C45916   6.451   5.997   8.394 -0.5122  0.0245  0.2643
  341MOL0     N45917   6.563   5.936   8.306 -0.0085 -0.1856  0.5159
  341MOL0     C45918   6.577   5.914   8.163  0.8115  0.0790 -0.1741
  341MOL0     C45919   6.700   5.857   8.145 -0.4244 -0.0525  0.8819
  341MOL0     C45920   6.769   5.817   8.018 -0.0051 -0.1768 -1.3495
  341MOL0     C45921   6.868   5.925   7.976  0.3444 -0.7747  0.7911
  341MOL0     C45922   6.810   6.033   7.882  1.0662  0.0608  0.2352
  341MOL0     C45923   6.898   6.170   7.877 -0.2830 -0.3076  0.4532
  341MOL0     O45924   6.909   6.248   7.997 -0.1375  1.1445 -0.5952
  341MOL0     C45925   6.789   6.285   8.053  0.3106  0.1753 -0.2884
  341MOL0     C45926   6.673   6.320   7.978 -0.8818  0.3012 -0.6849
  341MOL0     C45927   6.564   6.381   8.050 -0.9068  0.8253  0.5337
  341MOL0     C45928   6.573   6.405   8.189 -0.2322  0.0949  0.3831
  341MOL0     C45929   6.449   6.451   8.259 -0.0535  0.1394  0.8370
  341MOL0     O45930   6.339   6.485   8.171 -0.0263 -0.1449 -0.6628
  341MOL0     C45931   6.219   6.544   8.215 -1.1856  0.0270 -0.3551
  341MOL0     C45932   6.129   6.564   8.111  0.6796  0.4622 -0.4751
  341MOL0     C45933   6.003   6.623   8.137 -0.5938 -0.5442 -0.1560
  341MOL0     C45934   5.976   6.673   8.262 -0.2611 -0.2298  0.3310
  341MOL0     O45935   5.860   6.747   8.289 -0.7446  0.3358  0.1572
  341MOL0     C45936   5.759   6.782   8.196 -0.4613  0.1154 -0.3326
  341MOL0     C45937   5.662   6.669   8.197  0.7078  1.2500 -0.4804
  341MOL0     C45938   5.540   6.692   8.111 -0.2081  0.2406  0.5755
  341MOL0     C45939   5.584   6.727   7.965 -0.0570  0.3892  0.3425
  341MOL0     C45940   5.459   6.744   7.864 -0.9489  0.9440 -0.7399
  341MOL0     C45941   5.414   6.609   7.805 -0.6423 -0.3825  0.6990
  341MOL0     C45942   5.270   6.618   7.757 -0.0541  0.1637  0.2946
  341MOL0     C45943   5.236   6.711   7.649 -0.0750 -0.3797 -0.6194
  341MOL0    Cl45944   5.211   6.879   7.716  0.0608  0.1868 -0.4297
  341MOL0     C45945   6.073   6.658   8.358  0.1445  1.0465  0.0950
  341MOL0     C45946   6.192   6.587   8.345 -0.5949 -0.2222  0.0764
  341MOL0     O45947   6.461   6.468   8.375  0.1783 -0.3232  0.2296
  341MOL0     C45948   6.684   6.367   8.253  0.6695 -0.1711  0.2712
  341MOL0     C45949   6.796   6.314   8.185 -1.0960 -1.1062 -0.0993
  341MOL0     N45950   6.758   5.854   8.271  1.3997  0.2123 -0.1759
  341MOL0     N45951   6.679   5.897   8.366  0.2166  0.1425  0.1176
  341MOL0     C45952   5.332   5.861   8.343 -0.7774 -1.6682  0.4614
  341MOL0     C45953   5.199   5.836   8.331  0.3530  1.1321 -0.2095
  341MOL0     C45954   4.787   5.769   8.174 -0.0339 -0.3677 -0.1971
  341MOL0     C45955   4.668   5.779   8.250  0.7188  0.6362 -0.6372
  341MOL0     C45956   4.536   5.778   8.193 -0.0517 -0.0570 -0.5855
  341MOL0     C45957   4.527   5.758   8.056 -0.1619  0.6379 -0.3872
  341MOL0     O45958   4.419   5.759   7.983  0.2285 -0.8870  0.6213
  341MOL0     C45959   4.296   5.814   8.024  0.9774 -1.0020  0.2838
  341MOL0     C45960   4.180   5.756   7.947  0.1470  0.1872  0.1182
  341MOL0     C45961   4.048   5.790   8.007 -0.2113 -1.1537  0.0231
  341MOL0     C45962   3.932   5.760   7.907  0.2590  0.0953  0.2368
  341MOL0     C45963   3.810   5.830   7.962  0.0805  0.0784 -0.1034
  341MOL0     C45964   3.722   5.891   8.017 -0.2559 -0.2294  1.0538
  341MOL0     C45965   4.646   5.757   7.976  0.0489 -0.6974 -1.0091
  341MOL0     C45966   4.777   5.759   8.029 -0.1800  0.0500  0.1204
  341MOL0     C45967   4.892   5.768   7.943  0.9115  0.9980 -0.2521
  341MOL0     H45968   5.237   5.631   8.054 -1.3638  2.6020 -3.0295
  341MOL0     H45969   5.465   5.654   8.105 -2.6563 -2.6670 -0.1038
  341MOL0     H45970   5.650   5.655   8.267 -1.8968 -0.2621 -0.5958
  341MOL0     H45971   5.662   5.755   8.122 -2.3135 -0.6719  0.0505
  341MOL0     H45972   5.864   5.687   8.240  1.7300 -1.2724  2.9246
  341MOL0     H45973   5.829   5.782   8.382  0.5638  2.2975  0.0536
  341MOL0     H45974   5.807   5.995   8.253 -1.1206 -0.7134 -1.5505
  341MOL0     H45975   5.884   5.921   8.120 -0.1033 -2.1500  0.6252
  341MOL0     H45976   5.992   5.921   8.407 -1.4231 -3.6964 -0.0392
  341MOL0     H45977   6.082   5.864   8.263  0.2556  1.1699 -2.0979
  341MOL0     H45978   6.090   6.085   8.171  0.7284  0.2294 -0.6525
  341MOL0     H45979   5.993   6.151   8.308  0.0312  0.4615 -0.0406
  341MOL0     H45980   6.230   6.201   8.330  0.6908  0.0940 -2.5693
  341MOL0     H45981   6.182   6.101   8.459  1.0215  3.1710 -0.0042
  341MOL0     H45982   6.349   5.998   8.210 -0.5662 -1.5322 -0.4335
  341MOL0     H45983   6.285   5.895   8.337 -0.2530  0.0117  0.1018
  341MOL0     H45984   6.472   6.101   8.423 -0.4372 -0.1047  0.6805
  341MOL0     H45985   6.445   5.948   8.492  0.1674  2.0985  1.4245
  341MOL0     H45986   6.497   5.929   8.091  0.1706 -0.6067  0.3824
  341MOL0     H45987   6.815   5.720   8.040 -0.2615 -0.0341 -0.1139
  341MOL0     H45988   6.692   5.802   7.942 -1.5572  2.6963 -0.4779
  341MOL0     H45989   6.897   5.979   8.066 -1.4335 -0.6809  1.3397
  341MOL0     H45990   6.963   5.882   7.942  2.0651  2.0996  1.6313
  341MOL0     H45991   6.712   6.062   7.922 -0.4352  0.0834 -3.1185
  341MOL0     H45992   6.802   5.997   7.779 -2.6915  0.0578  0.3865
  341MOL0     H45993   6.874   6.238   7.795  3.0918  2.2148  1.3191
  341MOL0     H45994   6.996   6.130   7.846  0.2464  1.4714 -0.3089
  341MOL0     H45995   6.684   6.307   7.870  0.9082 -0.2925 -0.4531
  341MOL0     H45996   6.471   6.404   7.997  0.1761 -0.1462 -1.9607
  341MOL0     H45997   6.150   6.526   8.012 -1.2053 -0.4398 -0.5658
  341MOL0     H45998   5.943   6.653   8.052  0.0013 -1.2709 -0.8569
  341MOL0     H45999   5.717   6.877   8.230  0.9710  0.3003  1.0288
  341MOL0     H46000   5.798   6.800   8.095 -1.4317 -2.4936 -1.2574
  341MOL0     H46001   5.720   6.584   8.160 -0.1127 -0.0027  0.9836
  341MOL0     H46002   5.636   6.643   8.300  0.4821  1.3791 -0.5038
  341MOL0     H46003   5.495   6.592   8.101  3.2688 -1.3970 -0.3482
  341MOL0     H46004   5.466   6.757   8.157 -3.9863 -3.6066  0.6182
  341MOL0     H46005   5.656   6.653   7.929 -1.9338 -1.6843  0.6757
  341MOL0     H46006   5.649   6.815   7.974  4.2905 -2.5904  1.1435
  341MOL0     H46007   5.494   6.814   7.788  2.2688 -0.1026 -0.3696
  341MOL0     H46008   5.380   6.781   7.930  0.6215 -1.7729  3.0282
  341MOL0     H46009   5.486   6.582   7.727  0.8778  1.2748  1.4604
  341MOL0     H46010   5.415   6.528   7.878  3.8174 -0.3905  0.8494
  341MOL0     H46011   5.209   6.643   7.844 -0.3892  0.6924 -0.0888
  341MOL0     H46012   5.239   6.516   7.731 -4.1331  1.2167  0.4505
  341MOL0     H46013   5.327   6.701   7.589  0.3251 -2.4451  0.2567
  341MOL0     H46014   5.146   6.686   7.592  0.9288  2.0607 -3.5041
  341MOL0     H46015   6.058   6.698   8.458 -0.0211  0.3446  0.3522
  341MOL0     H46016   6.255   6.574   8.432 -1.5638  1.8008  1.1432
  341MOL0     H46017   6.689   6.380   8.361 -2.1309 -0.6508  0.5574
  341MOL0     H46018   6.886   6.281   8.237 -0.2660  0.3330 -0.5861
  341MOL0     H46019   5.369   5.927   8.421  0.9356 -2.3915  0.3271
  341MOL0     H46020   5.133   5.885   8.401 -0.4682 -0.4402  0.1731
  341MOL0     H46021   4.678   5.799   8.356  3.4344 -0.8235 -0.5134
  341MOL0     H46022   4.457   5.795   8.265 -0.2177  1.7872 -1.1635
  341MOL0     H46023   4.311   5.920   8.000  1.3786 -1.0165  0.4795
  341MOL0     H46024   4.274   5.802   8.130  0.8327  3.0976  0.8976
  341MOL0     H46025   4.180   5.647   7.954 -2.0340  0.2202  1.7704
  341MOL0     H46026   4.204   5.787   7.845  1.5606  2.6747  1.1012
  341MOL0     H46027   4.046   5.897   8.025 -1.6971 -1.4969  2.3045
  341MOL0     H46028   4.043   5.731   8.099  3.0047 -1.0831  0.3362
  341MOL0     H46029   3.961   5.804   7.810 -0.1772 -2.2960 -1.0495
  341MOL0     H46030   3.922   5.652   7.894  0.4571  0.2037 -0.9448
  341MOL0     H46031   3.634   5.937   8.058 -2.0267 -1.1443 -1.4906
  341MOL0     H46032   4.633   5.750   7.869 -1.0082 -1.2254 -0.8597
  341MOL0     H46033   4.875   5.786   7.836 -0.9499 -0.9060 -0.3214
  341MOL0     H46034   4.971   5.841   7.966  3.3059 -1.9069  1.4090
  341MOL0     H46035   4.938   5.669   7.937  1.0951  1.0671  0.0019
  342MOL0     O46036   8.877   7.144   3.352 -0.5931  0.0842 -0.1395
  342MOL0     C46037   8.830   7.041   3.396  0.5541  0.9759 -0.0509
  342MOL0     O46038   8.891   6.923   3.415  0.3943 -0.2763  0.2196
  342MOL0     C46039   9.013   6.914   3.356 -0.5552  0.3002  0.0991
  342MOL0     C46040   9.135   6.906   3.426 -0.0927  0.0823  0.6390
  342MOL0     C46041   9.257   6.884   3.352 -0.8990  0.3500  0.5082
  342MOL0     C46042   9.261   6.897   3.211 -1.0557  0.2989 -0.4056
  342MOL0     O46043   9.369   6.878   3.128 -0.1079  0.4964  0.4418
  342MOL0     C46044   9.478   6.967   3.153 -0.3410  0.4025 -0.1671
  342MOL0     C46045   9.598   6.889   3.090  0.0644  0.6197  0.4887
  342MOL0     C46046   9.678   6.807   3.202  0.3130 -0.3506  0.4128
  342MOL0     C46047   9.795   6.734   3.141  0.0980 -0.5420 -1.0411
  342MOL0     C46048   9.753   6.604   3.069 -1.1732 -0.7369  0.2173
  342MOL0     C46049   9.674   6.494   3.156 -0.0642 -0.0716 -0.0397
  342MOL0     C46050   9.691   6.349   3.104  0.1290  0.0006 -0.8294
  342MOL0     C46051   9.671   6.238   3.213  0.2371 -0.1362 -0.8046
  342MOL0     N46052   9.522   6.229   3.237 -0.1892  0.7901  0.4570
  342MOL0     C46053   9.466   6.239   3.359  0.3513  0.1097 -0.6997
  342MOL0     C46054   9.342   6.190   3.352 -0.1671  0.1067 -0.1322
  342MOL0     C46055   9.223   6.188   3.447  0.2064  1.0867  0.3367
  342MOL0     C46056   9.128   6.313   3.439  0.4726  0.4189 -0.3119
  342MOL0     C46057   9.119   6.388   3.310  0.8955  0.2990 -0.4957
  342MOL0     C46058   9.059   6.529   3.323 -0.0122 -0.3354  1.1102
  342MOL0     O46059   8.918   6.510   3.364  0.5929  0.6109  0.3997
  342MOL0     C46060   8.884   6.517   3.500  0.1872  0.2684  0.0347
  342MOL0     C46061   8.922   6.621   3.585  0.0758 -1.2268 -0.4686
  342MOL0     C46062   8.887   6.607   3.722  0.1641  0.8971 -0.4746
  342MOL0     C46063   8.809   6.499   3.779 -0.3713 -0.6766 -0.9501
  342MOL0     C46064   8.771   6.489   3.922 -0.3069 -0.0260  0.2179
  342MOL0     O46065   8.831   6.567   4.018 -0.6378 -0.4756  0.5292
  342MOL0     C46066   8.800   6.535   4.144  0.4729 -0.1241 -0.2036
  342MOL0     C46067   8.891   6.453   4.212 -0.4925 -1.1338  0.9369
  342MOL0     C46068   8.864   6.398   4.337  0.1349  0.0773 -0.5145
  342MOL0     C46069   8.741   6.425   4.401 -0.2555 -0.1885  0.0670
  342MOL0     O46070   8.704   6.366   4.524 -0.2139  1.1598 -1.0822
  342MOL0     C46071   8.802   6.284   4.595  0.5152  0.3013  0.6146
  342MOL0     C46072   8.904   6.371   4.682 -1.1485 -0.5580 -0.0998
  342MOL0     C46073   9.019   6.286   4.728 -0.0703  0.2118  0.4409
  342MOL0     C46074   9.106   6.357   4.828  0.7268 -0.2192  0.4894
  342MOL0     C46075   9.222   6.270   4.861  0.1232 -0.0457 -0.3414
  342MOL0     C46076   9.309   6.321   4.974 -0.3191  0.1329  0.2635
  342MOL0     C46077   9.266   6.279   5.115  1.0090  0.3023  1.3384
  342MOL0     C46078   9.338   6.345   5.227 -0.4913 -0.5236 -0.3626
  342MOL0    Cl46079   9.507   6.321   5.216  0.1977 -0.2863  0.0846
  342MOL0     C46080   8.658   6.522   4.338  0.0835 -0.3067 -0.8411
  342MOL0     C46081   8.687   6.569   4.209 -0.7205  0.0663 -0.3519
  342MOL0     O46082   8.697   6.401   3.946  0.6843 -0.1620  0.0533
  342MOL0     C46083   8.764   6.401   3.682 -0.5045  0.5135 -0.5496
  342MOL0     C46084   8.806   6.412   3.548  0.0327 -0.3226  0.6716
  342MOL0     N46085   9.329   6.139   3.222  0.4104  0.6440  0.6045
  342MOL0     N46086   9.432   6.168   3.151  0.3534  0.2346 -0.8806
  342MOL0     C46087   9.136   6.899   3.150  0.2224  0.0671 -0.2752
  342MOL0     C46088   9.013   6.899   3.216  0.2537 -0.0690  0.3336
  342MOL0     C46089   8.685   7.046   3.427  0.3817 -1.2976  0.2560
  342MOL0     C46090   8.624   7.165   3.374  1.2586 -0.6100 -0.8774
  342MOL0     C46091   8.495   7.192   3.419 -0.5526 -0.4747  0.0609
  342MOL0     C46092   8.421   7.107   3.501  0.0225  0.3591  0.1067
  342MOL0     O46093   8.296   7.138   3.527 -0.0398 -0.3126  0.1000
  342MOL0     C46094   8.206   7.041   3.564 -0.3825 -0.1546  0.4088
  342MOL0     C46095   8.057   7.073   3.540  0.5728 -0.4819  0.7727
  342MOL0     C46096   8.006   7.189   3.625  0.5153  0.4072  0.0450
  342MOL0     C46097   7.855   7.208   3.592 -0.1857 -0.7850  0.7359
  342MOL0     C46098   7.801   7.341   3.638  0.1798  0.4412 -1.1742
  342MOL0     C46099   7.772   7.438   3.699  0.4008  0.3374 -0.2808
  342MOL0     C46100   8.483   6.984   3.544  0.6753 -0.3556  0.0245
  342MOL0     C46101   8.617   6.957   3.508  0.3031 -0.3232  0.4543
  342MOL0     C46102   8.676   6.842   3.581 -1.0781 -0.2259 -0.0067
  342MOL0     H46103   9.142   6.898   3.534  1.9730  1.0972  0.6341
  342MOL0     H46104   9.354   6.884   3.401  0.4595  1.6764 -1.9791
  342MOL0     H46105   9.473   7.051   3.083  2.3269  1.0835  0.3796
  342MOL0     H46106   9.494   7.004   3.255 -0.5954 -0.0558  0.0435
  342MOL0     H46107   9.651   6.970   3.038 -0.0442 -0.4543 -1.4047
  342MOL0     H46108   9.569   6.814   3.015  3.2256 -0.1955 -0.0635
  342MOL0     H46109   9.614   6.732   3.250  1.9975 -1.6087  0.7608
  342MOL0     H46110   9.705   6.867   3.289 -1.9550 -2.4552  2.7411
  342MOL0     H46111   9.840   6.809   3.075  0.5562  0.8377  0.7403
  342MOL0     H46112   9.864   6.721   3.225  0.7857  3.0215 -0.8763
  342MOL0     H46113   9.695   6.630   2.980 -0.2920 -1.0199 -0.4628
  342MOL0     H46114   9.846   6.558   3.033  0.2239 -1.6545  4.4499
  342MOL0     H46115   9.716   6.506   3.257 -0.5141 -2.6566  0.5382
  342MOL0     H46116   9.567   6.517   3.152 -1.0890 -4.1835 -1.2834
  342MOL0     H46117   9.796   6.336   3.077  1.3867  0.6987  3.0247
  342MOL0     H46118   9.627   6.332   3.016 -2.0366  1.7130  0.2928
  342MOL0     H46119   9.704   6.136   3.193 -1.2651 -0.0227 -4.8904
  342MOL0     H46120   9.714   6.285   3.302 -0.1620  5.1674 -3.0169
  342MOL0     H46121   9.509   6.290   3.445 -0.2696 -0.5794  0.0258
  342MOL0     H46122   9.168   6.095   3.428  0.3393  1.4450 -2.1606
  342MOL0     H46123   9.261   6.175   3.549 -0.5554  0.4109  0.5498
  342MOL0     H46124   9.027   6.284   3.469  0.8092 -0.7819 -0.3028
  342MOL0     H46125   9.156   6.383   3.519  1.6520 -0.5592  0.1591
  342MOL0     H46126   9.057   6.336   3.237 -0.6016  0.3472  0.7010
  342MOL0     H46127   9.217   6.407   3.265  0.2509  1.4075 -1.4943
  342MOL0     H46128   9.057   6.574   3.224 -1.1657 -1.8551  0.4065
  342MOL0     H46129   9.118   6.603   3.378 -0.4945  3.0358 -2.5183
  342MOL0     H46130   8.979   6.706   3.547 -0.0914 -0.1976  1.4208
  342MOL0     H46131   8.933   6.677   3.792  0.0987 -1.0415  1.6271
  342MOL0     H46132   8.986   6.443   4.161 -1.0417  1.0940 -0.6890
  342MOL0     H46133   8.944   6.333   4.369 -0.5286  0.7749  3.0067
  342MOL0     H46134   8.747   6.218   4.663 -0.6879 -0.1241 -0.7154
  342MOL0     H46135   8.852   6.211   4.531  2.9550  1.2483  1.3304
  342MOL0     H46136   8.941   6.445   4.611 -2.7229  1.0623  0.6932
  342MOL0     H46137   8.855   6.401   4.775  0.8977 -1.3273  1.3117
  342MOL0     H46138   8.970   6.202   4.778 -0.2362  0.8659  1.4077
  342MOL0     H46139   9.082   6.257   4.644  1.2688  0.4280  1.3497
  342MOL0     H46140   9.051   6.376   4.921  0.0628 -1.3298  0.3464
  342MOL0     H46141   9.137   6.449   4.778  1.2685 -2.1798 -3.1231
  342MOL0     H46142   9.279   6.254   4.769 -1.0393  1.5186 -1.3806
  342MOL0     H46143   9.190   6.168   4.884  1.4180 -0.7874 -1.6888
  342MOL0     H46144   9.407   6.272   4.964  0.4447  0.9326  2.8549
  342MOL0     H46145   9.318   6.428   4.952  2.1804 -0.1857 -0.5995
  342MOL0     H46146   9.261   6.170   5.118 -1.8487 -0.0087 -3.7144
  342MOL0     H46147   9.165   6.319   5.133  0.0773 -1.1263 -0.3632
  342MOL0     H46148   9.319   6.452   5.226 -2.6363 -0.7599  2.4296
  342MOL0     H46149   9.307   6.301   5.323  1.8168 -2.7353 -0.5064
  342MOL0     H46150   8.557   6.551   4.366 -1.3192 -0.2652 -5.2045
  342MOL0     H46151   8.623   6.629   4.146 -0.7065  1.1658  0.6534
  342MOL0     H46152   8.713   6.309   3.707 -0.7799  1.1865  1.6404
  342MOL0     H46153   8.777   6.337   3.475 -2.2379  1.5248 -0.4592
  342MOL0     H46154   9.139   6.892   3.042  0.1295 -0.8437 -0.2271
  342MOL0     H46155   8.920   6.897   3.161  1.3314 -1.7493 -1.5529
  342MOL0     H46156   8.684   7.236   3.317  0.9540 -0.8683 -1.5227
  342MOL0     H46157   8.452   7.288   3.394 -2.9318 -1.7677 -1.1364
  342MOL0     H46158   8.225   7.005   3.666  2.2139  1.4015  0.5790
  342MOL0     H46159   8.236   6.957   3.501 -0.9018  1.3731 -2.0153
  342MOL0     H46160   7.991   6.988   3.559 -2.9259  2.3929  2.7524
  342MOL0     H46161   8.057   7.094   3.433 -0.7019  3.1272  1.3558
  342MOL0     H46162   8.052   7.284   3.594 -4.6270  3.3724  0.3513
  342MOL0     H46163   8.027   7.183   3.732 -0.5830 -1.1390  0.2082
  342MOL0     H46164   7.849   7.210   3.483 -2.4694  3.9800  0.6533
  342MOL0     H46165   7.791   7.127   3.628  1.3514 -2.9331 -1.1131
  342MOL0     H46166   7.750   7.525   3.758  3.2411 -0.3036  1.9151
  342MOL0     H46167   8.418   6.916   3.598 -2.6390  1.6527 -1.1608
  342MOL0     H46168   8.720   6.789   3.496  0.4474  0.4635  0.3221
  342MOL0     H46169   8.762   6.881   3.637 -0.3938 -0.1913 -1.0566
  342MOL0     H46170   8.608   6.785   3.645 -3.0417  2.1571  0.1820
  343MOL0     O46171   4.165   1.950   0.719  0.7243  0.7020  0.4671
  343MOL0     C46172   4.161   2.067   0.687 -0.4722 -0.2063  0.3965
  343MOL0     O46173   4.261   2.131   0.613  0.4054  0.3693 -0.0734
  343MOL0     C46174   4.368   2.061   0.574  0.1303 -0.3500  0.2562
  343MOL0     C46175   4.392   2.047   0.441  0.0676  0.2921 -0.4918
  343MOL0     C46176   4.506   1.978   0.400  0.3756  0.0288 -0.2340
  343MOL0     C46177   4.600   1.923   0.485 -0.3712  0.0575  0.0072
  343MOL0     O46178   4.721   1.881   0.427  0.3221  0.2728 -0.3520
  343MOL0     C46179   4.817   1.822   0.512  0.5376 -0.0579  0.7977
  343MOL0     C46180   4.923   1.756   0.419 -0.2868  0.9936 -0.1832
  343MOL0     C46181   4.992   1.861   0.326  0.8064  0.2522  0.0859
  343MOL0     C46182   5.136   1.817   0.277 -0.4616 -0.0966  0.3244
  343MOL0     C46183   5.202   1.923   0.193 -0.8975 -0.9210  0.1169
  343MOL0     C46184   5.322   1.876   0.101 -0.4945 -0.1947 -0.3690
  343MOL0     C46185   5.452   1.846   0.185 -0.9666  0.9748 -0.1200
  343MOL0     C46186   5.575   1.827   0.106 -0.4609 -0.7957  0.6001
  343MOL0     N46187   5.621   1.953   0.048 -0.0963 -0.2267 -0.1820
  343MOL0     C46188   5.691   2.047   0.119 -1.3620  0.0449  0.3335
  343MOL0     C46189   5.721   2.149   0.040  0.6430  0.3917 -0.7174
  343MOL0     C46190   5.790   2.266   0.091 -0.2705  0.8559  0.7530
  343MOL0     C46191   5.719   2.339   0.214 -0.8277 -0.4154  0.6838
  343MOL0     C46192   5.591   2.406   0.157 -0.0504 -0.0081 -0.1613
  343MOL0     C46193   5.502   2.468   0.269  0.3592 -0.6020  0.0691
  343MOL0     O46194   5.426   2.588   0.226  0.6299 -0.8610 -0.0442
  343MOL0     C46195   5.322   2.627   0.305  0.1760 -0.7856 -0.8027
  343MOL0     C46196   5.206   2.674   0.249 -0.4710  1.1514 -0.2643
  343MOL0     C46197   5.103   2.714   0.333  0.0964 -1.0072 -0.2431
  343MOL0     C46198   5.112   2.707   0.479 -0.1667  0.2870 -0.9769
  343MOL0     C46199   4.987   2.749   0.556  0.2640 -0.5564 -0.2240
  343MOL0     O46200   4.926   2.863   0.512 -0.0038  0.5120 -0.7141
  343MOL0     C46201   4.821   2.908   0.580 -0.1940 -0.1252 -0.4735
  343MOL0     C46202   4.822   3.041   0.624 -0.6389  0.5029 -0.5045
  343MOL0     C46203   4.715   3.088   0.707  0.2149  0.5308 -0.8602
  343MOL0     C46204   4.605   3.004   0.738  0.1687  0.5652 -0.5209
  343MOL0     O46205   4.513   3.051   0.829 -0.0623 -0.1491 -0.1719
  343MOL0     C46206   4.378   3.066   0.773  0.5895  0.0935 -0.3220
  343MOL0     C46207   4.296   3.091   0.889  0.1212 -0.2407  0.2054
  343MOL0     C46208   4.153   3.131   0.858  0.9402  0.2206 -0.6011
  343MOL0     C46209   4.078   3.172   0.982 -0.1100 -0.0529 -0.1652
  343MOL0     C46210   3.937   3.224   0.943 -0.4422 -0.0401  0.3956
  343MOL0     C46211   3.859   3.282   1.062  0.0509 -0.6555 -0.3618
  343MOL0     C46212   3.730   3.346   1.008  0.4395 -0.2719  0.5141
  343MOL0     C46213   3.725   3.501   1.014  0.2668 -0.4486 -1.0346
  343MOL0    Cl46214   3.722   3.561   1.191  0.1112  0.3829  0.2382
  343MOL0     C46215   4.600   2.875   0.682  0.5979 -0.2224  0.3166
  343MOL0     C46216   4.704   2.825   0.608  0.1955 -0.6124  0.0363
  343MOL0     O46217   4.963   2.696   0.665  0.9420 -0.5629 -0.3769
  343MOL0     C46218   5.233   2.664   0.537  0.3762  0.4729 -0.4135
  343MOL0     C46219   5.334   2.615   0.450  0.0176  1.0036 -0.5150
  343MOL0     N46220   5.672   2.114  -0.087  0.5853  0.1286  0.0957
  343MOL0     N46221   5.610   1.999  -0.083  0.1482 -0.1224 -0.2887
  343MOL0     C46222   4.581   1.940   0.625 -0.3607  1.0380  0.6564
  343MOL0     C46223   4.469   2.014   0.665  0.6453 -0.1595  0.2754
  343MOL0     C46224   4.028   2.136   0.711 -0.0335 -0.0507  0.2032
  343MOL0     C46225   3.999   2.259   0.645 -0.4301  0.5128  0.3128
  343MOL0     C46226   3.879   2.319   0.667  0.1706 -0.8896 -0.0662
  343MOL0     C46227   3.787   2.278   0.756  0.9228  0.6377  0.6960
  343MOL0     O46228   3.665   2.333   0.740  0.5549  0.1164 -0.1555
  343MOL0     C46229   3.623   2.433   0.848 -0.0892  0.9955 -0.0776
  343MOL0     C46230   3.517   2.386   0.947 -1.0177  0.2457  0.9829
  343MOL0     C46231   3.375   2.356   0.879  0.4158  0.5110 -0.0246
  343MOL0     C46232   3.319   2.237   0.953 -0.0631 -0.0259  0.1838
  343MOL0     C46233   3.383   2.115   0.915  0.2748  0.1978  0.2589
  343MOL0     C46234   3.453   2.024   0.887 -0.8053 -0.0953  0.7340
  343MOL0     C46235   3.798   2.152   0.813  0.4720  0.3209 -0.4385
  343MOL0     C46236   3.920   2.085   0.797 -0.6291 -0.4933  0.0719
  343MOL0     C46237   3.936   1.957   0.879  0.0315 -0.5322  0.0049
  343MOL0     H46238   4.322   2.103   0.381 -0.2230  2.8023  1.9639
  343MOL0     H46239   4.538   1.971   0.297  2.0800  2.4384  0.0500
  343MOL0     H46240   4.866   1.887   0.585 -0.8376  5.0148 -2.2845
  343MOL0     H46241   4.766   1.735   0.556 -0.0166 -0.1796 -0.0617
  343MOL0     H46242   4.867   1.682   0.362  1.1277 -2.6474  2.6999
  343MOL0     H46243   4.999   1.707   0.481  0.0525 -0.5994 -1.7956
  343MOL0     H46244   4.999   1.961   0.371 -0.6475  0.5849 -0.3870
  343MOL0     H46245   4.920   1.856   0.244  0.2074 -0.3542  0.6376
  343MOL0     H46246   5.207   1.789   0.355  3.2136  1.4295 -2.1970
  343MOL0     H46247   5.120   1.736   0.205  1.6167  0.8456 -1.3008
  343MOL0     H46248   5.134   1.964   0.119 -1.2113  0.6750  1.2305
  343MOL0     H46249   5.234   2.008   0.254  2.5340  0.2553 -2.9769
  343MOL0     H46250   5.295   1.795   0.032  3.0330 -3.0434  1.2792
  343MOL0     H46251   5.349   1.965   0.044  3.6365 -0.8739  0.2321
  343MOL0     H46252   5.430   1.748   0.227 -2.2114  0.3128 -2.1664
  343MOL0     H46253   5.461   1.922   0.263 -2.0467  0.0685  0.9149
  343MOL0     H46254   5.662   1.788   0.160  0.8133 -1.3503 -1.6674
  343MOL0     H46255   5.547   1.754   0.028 -0.3155 -0.0928 -0.1216
  343MOL0     H46256   5.721   2.031   0.222  0.0305  3.8120  0.6756
  343MOL0     H46257   5.889   2.229   0.119 -0.6043 -0.5168  0.2289
  343MOL0     H46258   5.802   2.331   0.004 -1.3117  0.4052  0.2500
  343MOL0     H46259   5.699   2.276   0.301 -2.1862  0.8043  1.3089
  343MOL0     H46260   5.785   2.419   0.247  1.5775 -3.0496  2.7137
  343MOL0     H46261   5.533   2.327   0.108  1.8561 -0.5914 -1.6332
  343MOL0     H46262   5.609   2.484   0.083 -2.3693  0.1078 -0.6583
  343MOL0     H46263   5.569   2.511   0.344 -0.6853  1.7971 -0.2683
  343MOL0     H46264   5.436   2.393   0.313  0.7651 -0.0323  1.7250
  343MOL0     H46265   5.205   2.686   0.141  0.8790 -0.5520 -0.5083
  343MOL0     H46266   5.016   2.750   0.278 -1.0600 -1.4884  1.2088
  343MOL0     H46267   4.911   3.103   0.622  1.6519 -2.5032  0.4607
  343MOL0     H46268   4.701   3.186   0.751 -0.4138  0.6932 -1.4046
  343MOL0     H46269   4.371   3.160   0.717 -0.3476  0.5847  0.5737
  343MOL0     H46270   4.355   2.977   0.715  1.6762 -0.8103  0.5898
  343MOL0     H46271   4.297   2.998   0.946 -1.5915 -0.7581 -0.5299
  343MOL0     H46272   4.335   3.175   0.948 -2.3995  1.2752 -0.1255
  343MOL0     H46273   4.146   3.206   0.778 -1.6383 -1.0055 -1.6689
  343MOL0     H46274   4.109   3.040   0.818  1.8723  0.2727 -1.8026
  343MOL0     H46275   4.134   3.246   1.040  2.0356 -0.1694 -1.9391
  343MOL0     H46276   4.057   3.081   1.039 -0.6763 -0.3979 -0.8975
  343MOL0     H46277   3.888   3.137   0.898  0.8994 -0.3027 -0.6360
  343MOL0     H46278   3.956   3.299   0.865 -1.1749 -0.7873 -0.5207
  343MOL0     H46279   3.829   3.202   1.129 -2.9711 -0.5951 -1.4795
  343MOL0     H46280   3.920   3.362   1.105 -1.0805  1.1750 -1.9382
  343MOL0     H46281   3.646   3.307   1.066 -0.3361  1.4327  0.5981
  343MOL0     H46282   3.714   3.300   0.910  1.6073 -2.1559  1.1429
  343MOL0     H46283   3.803   3.545   0.952  0.2875  0.2603 -0.5156
  343MOL0     H46284   3.630   3.530   0.968 -1.9410 -0.8821  2.8188
  343MOL0     H46285   4.515   2.811   0.700  1.1868 -0.2089  3.6712
  343MOL0     H46286   4.697   2.719   0.584 -2.4262 -0.1309 -1.7631
  343MOL0     H46287   5.232   2.665   0.646  1.0918  0.8277 -0.4042
  343MOL0     H46288   5.431   2.581   0.485  0.3734 -1.6879 -3.6640
  343MOL0     H46289   4.661   1.913   0.694  0.4562  1.5312 -0.0761
  343MOL0     H46290   4.459   2.031   0.772  2.1246  2.8611  0.0258
  343MOL0     H46291   4.079   2.300   0.585 -0.0928 -3.1970 -2.1496
  343MOL0     H46292   3.853   2.404   0.605  0.7866  0.8562  1.9430
  343MOL0     H46293   3.584   2.512   0.784 -2.3954  1.1695  1.4168
  343MOL0     H46294   3.714   2.465   0.901  0.2867  2.3447 -1.4621
  343MOL0     H46295   3.502   2.478   1.005 -0.6061  1.3087 -0.5312
  343MOL0     H46296   3.555   2.298   1.000 -0.4903 -0.3324 -0.3103
  343MOL0     H46297   3.393   2.324   0.776  3.8292  0.8887  0.3651
  343MOL0     H46298   3.315   2.447   0.877 -0.0724  0.2196  0.7083
  343MOL0     H46299   3.332   2.240   1.061 -1.5725 -1.5230  0.4478
  343MOL0     H46300   3.211   2.225   0.946  0.1753 -1.9394 -1.2977
  343MOL0     H46301   3.519   1.945   0.860  0.7802  1.6518 -0.7891
  343MOL0     H46302   3.708   2.106   0.853  1.3602 -0.2635  0.9532
  343MOL0     H46303   3.853   1.945   0.949  2.0838  0.3092  2.7534
  343MOL0     H46304   3.952   1.872   0.812  0.9135 -0.4569  0.1031
  343MOL0     H46305   4.023   1.958   0.946  1.1285 -0.8908 -1.3491
  344MOL0     O46306   8.279   3.647   5.675 -0.0263 -0.6987  0.3690
  344MOL0     C46307   8.392   3.597   5.683  0.8198  0.3056  0.1336
  344MOL0     O46308   8.500   3.639   5.618  0.0948  0.2471  0.2920
  344MOL0     C46309   8.487   3.726   5.515  0.1849 -0.3742 -0.3901
  344MOL0     C46310   8.549   3.854   5.527  0.5483  0.0231 -0.2726
  344MOL0     C46311   8.542   3.936   5.412 -0.4212 -0.2515 -0.1235
  344MOL0     C46312   8.456   3.902   5.307 -0.1495  1.5398  0.2203
  344MOL0     O46313   8.419   3.974   5.203  0.2411  0.4509 -0.2482
  344MOL0     C46314   8.447   4.115   5.193 -0.0119  0.8855 -0.0099
  344MOL0     C46315   8.365   4.189   5.295 -0.0894 -0.6140  0.2303
  344MOL0     C46316   8.370   4.345   5.306 -0.9351  0.4409  0.3065
  344MOL0     C46317   8.511   4.397   5.315 -0.0077 -0.4551 -0.2999
  344MOL0     C46318   8.516   4.546   5.279  0.6664 -0.6585  0.8111
  344MOL0     C46319   8.656   4.607   5.291 -0.3219  0.0358 -0.3424
  344MOL0     C46320   8.649   4.764   5.286  1.0479  1.0399 -0.0898
  344MOL0     C46321   8.794   4.824   5.284 -0.6368 -0.2843 -0.2246
  344MOL0     N46322   8.809   4.965   5.225 -0.7642  0.0626 -0.4643
  344MOL0     C46323   8.770   5.082   5.282 -0.3028  1.7928  0.3939
  344MOL0     C46324   8.798   5.171   5.185  0.3493  0.3496  0.1058
  344MOL0     C46325   8.792   5.322   5.184  0.1088  0.7942 -0.0618
  344MOL0     C46326   8.801   5.382   5.331 -0.3346  0.3797 -0.2354
  344MOL0     C46327   8.945   5.424   5.354 -0.1308 -0.1069 -0.6723
  344MOL0     C46328   8.967   5.471   5.499 -0.0036 -0.3342 -0.2941
  344MOL0     O46329   8.956   5.350   5.573 -0.1844 -0.1972 -0.4186
  344MOL0     C46330   8.858   5.335   5.666 -0.6008  0.2744 -0.6664
  344MOL0     C46331   8.805   5.428   5.763 -0.1673 -0.0205  0.2034
  344MOL0     C46332   8.728   5.390   5.870  0.3598  0.2761  0.1215
  344MOL0     C46333   8.668   5.262   5.874  0.2393 -0.9474 -0.8076
  344MOL0     C46334   8.585   5.220   5.990  1.4252  0.3474  0.6702
  344MOL0     O46335   8.587   5.093   6.016  0.6524  0.2110  0.0107
  344MOL0     C46336   8.519   5.052   6.130  0.1960 -0.0922  0.2470
  344MOL0     C46337   8.379   5.024   6.120  0.4644  0.0237  0.6790
  344MOL0     C46338   8.309   4.984   6.239 -0.1361 -0.7342  0.2158
  344MOL0     C46339   8.384   4.959   6.354 -0.4630 -0.1670  1.3713
  344MOL0     O46340   8.340   4.928   6.477 -0.3913 -0.1743 -0.5667
  344MOL0     C46341   8.201   4.898   6.493  0.2639 -0.6045  0.2867
  344MOL0     C46342   8.132   5.036   6.520  0.0156 -0.3517 -1.0114
  344MOL0     C46343   7.978   5.028   6.538 -0.3322 -0.6600  0.4628
  344MOL0     C46344   7.901   5.021   6.407  0.1213 -0.2995  0.2257
  344MOL0     C46345   7.754   4.980   6.423  1.0075 -0.8873  0.3602
  344MOL0     C46346   7.664   5.025   6.299  0.3020  0.2517  0.2863
  344MOL0     C46347   7.675   4.917   6.185 -1.2837  0.8810 -0.1458
  344MOL0     C46348   7.590   4.945   6.064  0.9786 -0.8025  0.0106
  344MOL0    Cl46349   7.427   4.992   6.107  0.2631 -0.1030 -0.3102
  344MOL0     C46350   8.520   4.979   6.353  0.4834 -0.8011 -0.0734
  344MOL0     C46351   8.588   5.022   6.241 -0.1050  0.4639  0.0579
  344MOL0     O46352   8.539   5.305   6.062 -0.2854 -0.1935 -0.4088
  344MOL0     C46353   8.709   5.173   5.768  0.2531 -0.2753 -0.3837
  344MOL0     C46354   8.805   5.206   5.676  0.5038 -0.0195 -1.0317
  344MOL0     N46355   8.850   5.106   5.072 -0.4975  0.3725 -1.2494
  344MOL0     N46356   8.851   4.985   5.097  0.2747  0.0785  0.0534
  344MOL0     C46357   8.387   3.781   5.303 -0.3833  0.5427 -0.1524
  344MOL0     C46358   8.407   3.692   5.409  0.1708 -0.4328  0.8221
  344MOL0     C46359   8.400   3.493   5.789  0.0123  0.5670  0.2998
  344MOL0     C46360   8.525   3.465   5.847 -0.3091  0.8715 -1.4026
  344MOL0     C46361   8.543   3.357   5.937 -0.0060  0.7599  0.3027
  344MOL0     C46362   8.440   3.270   5.965  0.7477 -0.2716 -0.2543
  344MOL0     O46363   8.479   3.162   6.047 -0.3418  0.1499 -0.7493
  344MOL0     C46364   8.372   3.076   6.101  0.0852 -0.1483  0.5767
  344MOL0     C46365   8.275   3.140   6.205  0.1194  0.2592  0.0333
  344MOL0     C46366   8.208   3.041   6.304  0.8821 -0.0151  1.2661
  344MOL0     C46367   8.087   2.975   6.237  0.0193 -0.0619  0.2293
  344MOL0     C46368   8.018   2.888   6.328 -0.1426  0.8446 -0.8188
  344MOL0     C46369   7.944   2.816   6.394  0.4130  0.5970 -0.5776
  344MOL0     C46370   8.316   3.290   5.895 -0.1139  0.0694 -0.1496
  344MOL0     C46371   8.299   3.394   5.805 -0.2686 -0.1156 -0.4100
  344MOL0     C46372   8.171   3.395   5.732  0.4858 -0.8033 -0.7020
  344MOL0     H46373   8.605   3.877   5.618  1.3827  0.0116 -0.7739
  344MOL0     H46374   8.589   4.033   5.412 -0.2802 -0.2739  2.2035
  344MOL0     H46375   8.554   4.135   5.206 -0.0102 -0.0428  1.5998
  344MOL0     H46376   8.421   4.158   5.096 -0.4339 -0.5637 -0.5746
  344MOL0     H46377   8.385   4.149   5.395 -1.4535  0.3595  0.9285
  344MOL0     H46378   8.262   4.159   5.277 -0.5373  2.1622 -2.6085
  344MOL0     H46379   8.314   4.375   5.395  0.2955 -1.3894  1.7708
  344MOL0     H46380   8.327   4.386   5.214  2.8696 -0.7137 -2.2022
  344MOL0     H46381   8.550   4.380   5.416 -0.1120 -0.5230 -0.2714
  344MOL0     H46382   8.585   4.363   5.242 -0.5549  0.4007 -1.2802
  344MOL0     H46383   8.466   4.567   5.184 -0.8947  0.2350  1.7883
  344MOL0     H46384   8.458   4.587   5.362  1.0095 -0.7485  1.0964
  344MOL0     H46385   8.701   4.584   5.388  1.6315  3.4003 -0.2862
  344MOL0     H46386   8.722   4.566   5.214 -0.7472  0.4940 -0.9570
  344MOL0     H46387   8.590   4.792   5.374  1.1430 -2.4354  1.2232
  344MOL0     H46388   8.604   4.787   5.189  0.0679 -4.0096 -1.1258
  344MOL0     H46389   8.829   4.825   5.388 -2.2948  0.4310  0.3549
  344MOL0     H46390   8.858   4.759   5.224  0.9592  0.6651  0.3713
  344MOL0     H46391   8.726   5.105   5.379  0.6940  1.1007  1.0223
  344MOL0     H46392   8.885   5.347   5.132 -0.9085  0.4774 -2.1539
  344MOL0     H46393   8.708   5.361   5.126  0.0437  0.5333 -0.1463
  344MOL0     H46394   8.737   5.470   5.343 -0.8466  0.3984 -2.5806
  344MOL0     H46395   8.779   5.300   5.400  1.7202  1.2614  1.5646
  344MOL0     H46396   8.958   5.509   5.288 -2.7062  1.8617  1.1314
  344MOL0     H46397   9.001   5.333   5.330 -0.3846 -0.6364  0.6374
  344MOL0     H46398   8.893   5.550   5.513 -2.2882 -2.2944 -0.5757
  344MOL0     H46399   9.067   5.514   5.509  0.3423  0.4105 -4.7342
  344MOL0     H46400   8.833   5.533   5.758 -0.5837  0.2568  2.6592
  344MOL0     H46401   8.700   5.465   5.943 -4.1079 -1.3472  0.4261
  344MOL0     H46402   8.328   5.049   6.028  0.3434 -1.1797  0.4090
  344MOL0     H46403   8.201   4.977   6.243 -0.1603  0.0011  2.0360
  344MOL0     H46404   8.148   4.839   6.417 -0.0898  2.6022 -2.1941
  344MOL0     H46405   8.197   4.846   6.589  1.6875 -0.7041  0.3051
  344MOL0     H46406   8.173   5.080   6.612 -1.9692  1.3169 -0.8631
  344MOL0     H46407   8.156   5.111   6.444 -0.2829  0.8892  0.0777
  344MOL0     H46408   7.961   4.935   6.592  1.6126 -3.0031 -2.5996
  344MOL0     H46409   7.947   5.111   6.601 -0.5767  0.8332 -1.5262
  344MOL0     H46410   7.952   4.953   6.339 -0.4647 -1.0684  0.5371
  344MOL0     H46411   7.906   5.116   6.353 -1.0808 -2.4182 -4.0408
  344MOL0     H46412   7.710   5.034   6.507  0.1620 -0.0208 -0.5984
  344MOL0     H46413   7.741   4.876   6.455 -2.5275 -1.2953 -1.8093
  344MOL0     H46414   7.562   5.040   6.334 -0.9825  3.2200 -3.9172
  344MOL0     H46415   7.684   5.125   6.261 -2.6706  0.6884 -0.3531
  344MOL0     H46416   7.660   4.818   6.229  2.0956 -0.0949 -0.8388
  344MOL0     H46417   7.778   4.927   6.149 -0.4372  0.8071  2.0823
  344MOL0     H46418   7.642   5.025   6.011  1.0191  2.8808  4.9152
  344MOL0     H46419   7.570   4.852   6.009 -0.8696 -0.5762  0.2448
  344MOL0     H46420   8.558   4.957   6.452  0.5503 -0.4692 -0.0229
  344MOL0     H46421   8.696   5.022   6.231  0.0209 -3.3828  0.2487
  344MOL0     H46422   8.676   5.071   5.788 -0.5380  0.5503  3.2394
  344MOL0     H46423   8.848   5.121   5.624 -0.4310 -0.8559 -0.4597
  344MOL0     H46424   8.327   3.754   5.216  0.8559 -0.9740 -0.5682
  344MOL0     H46425   8.354   3.597   5.411  2.0100 -1.4898  1.5506
  344MOL0     H46426   8.615   3.524   5.827  0.8700 -0.6731 -0.8177
  344MOL0     H46427   8.641   3.344   5.981  2.1052  2.5146 -3.3909
  344MOL0     H46428   8.416   2.983   6.141  1.3747 -0.6712 -1.8475
  344MOL0     H46429   8.314   3.028   6.022  0.5542  0.2284 -0.0029
  344MOL0     H46430   8.194   3.202   6.166 -0.8643 -0.4217  0.9193
  344MOL0     H46431   8.340   3.204   6.265  0.1265  0.9617 -0.7126
  344MOL0     H46432   8.190   3.084   6.403  1.3855  0.5493  1.1140
  344MOL0     H46433   8.288   2.969   6.320  1.6131 -0.4280 -3.0386
  344MOL0     H46434   8.021   3.053   6.198  0.6775 -1.0913 -3.3035
  344MOL0     H46435   8.128   2.924   6.148 -0.9071  0.7111 -0.6620
  344MOL0     H46436   7.874   2.754   6.446  0.4067 -0.7774 -2.1653
  344MOL0     H46437   8.240   3.214   5.905  0.5248 -0.6566 -0.6463
  344MOL0     H46438   8.185   3.380   5.625 -0.1732 -3.3654 -0.4991
  344MOL0     H46439   8.106   3.322   5.781  2.8373 -1.1647  2.1568
  344MOL0     H46440   8.123   3.491   5.756 -2.2529 -2.4579  0.9249
  345MOL0     O46441   5.125   1.537   8.144  0.3163  0.1221 -0.6047
  345MOL0     C46442   5.241   1.489   8.159 -0.3144  0.2711  0.3734
  345MOL0     O46443   5.362   1.555   8.158 -0.4605 -1.0139  0.6244
  345MOL0     C46444   5.357   1.689   8.140  0.0709 -0.3359  0.2510
  345MOL0     C46445   5.438   1.765   8.219  0.4135 -0.5524 -0.4009
  345MOL0     C46446   5.459   1.899   8.184 -0.3700  0.7887 -0.0355
  345MOL0     C46447   5.390   1.960   8.076  0.3402 -0.2064 -0.9515
  345MOL0     O46448   5.400   2.086   8.046  0.2706 -0.3225 -0.4130
  345MOL0     C46449   5.539   2.126   8.026  0.0419 -0.5895  0.3659
  345MOL0     C46450   5.555   2.266   8.079  0.5117  1.0125  0.3805
  345MOL0     C46451   5.674   2.342   8.021 -0.1844  0.0351 -0.9759
  345MOL0     C46452   5.665   2.487   8.058  1.2673 -0.1513  0.5656
  345MOL0     C46453   5.795   2.561   8.021  0.2182  0.4592  0.0739
  345MOL0     C46454   5.800   2.704   8.063 -0.3846 -0.7354 -0.1292
  345MOL0     C46455   5.938   2.774   8.033 -0.1960  0.1219 -0.5579
  345MOL0     C46456   5.927   2.908   8.104 -0.4793  0.0658 -0.0833
  345MOL0     N46457   6.021   3.014   8.054  0.0648 -0.4527  0.8131
  345MOL0     C46458   6.138   2.990   7.989  0.2671 -0.2502 -0.7916
  345MOL0     C46459   6.174   3.111   7.941 -0.3098 -0.1321  0.2374
  345MOL0     C46460   6.289   3.131   7.845 -0.8102  0.1740 -0.5290
  345MOL0     C46461   6.412   3.186   7.915  0.0211 -0.2754  0.3275
  345MOL0     C46462   6.514   3.087   7.958 -0.1051  0.4196 -0.4603
  345MOL0     C46463   6.643   3.153   7.948 -0.4995 -0.4981 -0.6576
  345MOL0     O46464   6.744   3.066   8.007  0.3423  0.3127  0.4336
  345MOL0     C46465   6.868   3.119   8.008 -0.1612  0.2196  0.5070
  345MOL0     C46466   6.962   3.049   8.077  0.0243  0.9163 -0.9390
  345MOL0     C46467   7.089   3.106   8.123 -0.2188 -0.2486 -0.4058
  345MOL0     C46468   7.122   3.231   8.083 -0.3740  0.1927  0.8282
  345MOL0     C46469   7.245   3.300   8.128  0.3869 -0.2365 -0.7755
  345MOL0     O46470   7.298   3.249   8.235  0.2195 -0.2281 -0.8293
  345MOL0     C46471   7.411   3.303   8.288 -0.5833 -0.0960  0.1388
  345MOL0     C46472   7.529   3.241   8.274 -0.2873  0.9743  0.2441
  345MOL0     C46473   7.650   3.285   8.332  0.1859 -0.4967  0.4701
  345MOL0     C46474   7.639   3.408   8.405 -0.5395 -0.3306  0.6317
  345MOL0     O46475   7.758   3.453   8.457 -0.1564 -0.7748 -0.6467
  345MOL0     C46476   7.752   3.553   8.569 -0.1315  0.1060 -0.4049
  345MOL0     C46477   7.759   3.479   8.709  0.4300  0.2315  0.4655
  345MOL0     C46478   7.636   3.396   8.755  1.1180  0.1089  0.6935
  345MOL0     C46479   7.641   3.362   8.913 -1.1359 -1.4609  0.5446
  345MOL0     C46480   7.554   3.239   8.945 -0.6310  1.3238  0.6416
  345MOL0     C46481   7.560   3.211   9.097  0.0510 -0.3390  0.3404
  345MOL0     C46482   7.480   3.088   9.136 -0.2633 -0.0485  0.7533
  345MOL0     C46483   7.445   3.100   9.286  0.3205 -0.1845 -0.4837
  345MOL0    Cl46484   7.339   3.237   9.320 -0.0401  0.0296 -0.1142
  345MOL0     C46485   7.513   3.471   8.420 -0.4248  0.2354 -0.0072
  345MOL0     C46486   7.404   3.419   8.363 -0.3780  0.4680 -0.6508
  345MOL0     O46487   7.298   3.378   8.050  0.3338  0.4520 -0.1695
  345MOL0     C46488   7.035   3.304   8.001  0.3280  0.2930 -0.2717
  345MOL0     C46489   6.913   3.250   7.971 -0.0690  0.3434  0.2584
  345MOL0     N46490   6.079   3.204   7.971  0.0468  0.2570 -0.5141
  345MOL0     N46491   5.984   3.146   8.035 -0.6354  0.5149 -0.5352
  345MOL0     C46492   5.300   1.889   8.001 -0.1769  0.4419 -0.3593
  345MOL0     C46493   5.285   1.747   8.032 -0.4813 -0.2612 -0.1743
  345MOL0     C46494   5.248   1.339   8.196 -0.2930 -0.2388  1.2133
  345MOL0     C46495   5.382   1.278   8.178 -0.4190 -0.8954  0.4423
  345MOL0     C46496   5.401   1.151   8.222 -0.7919 -0.0615 -0.4982
  345MOL0     C46497   5.306   1.076   8.296 -0.1700  0.0206 -0.7125
  345MOL0     O46498   5.323   0.958   8.357 -0.2752  0.7868 -0.7803
  345MOL0     C46499   5.455   0.901   8.346  0.0575  0.3457 -0.4226
  345MOL0     C46500   5.484   0.813   8.473  0.3003  0.0391  0.3122
  345MOL0     C46501   5.626   0.745   8.454  0.6382 -0.1857  0.6032
  345MOL0     C46502   5.714   0.769   8.581  0.1349 -0.0108  0.4825
  345MOL0     C46503   5.854   0.734   8.557 -0.4025 -0.2078  0.4641
  345MOL0     C46504   5.967   0.703   8.538 -0.2006  1.2768  0.0427
  345MOL0     C46505   5.183   1.135   8.317  0.2161 -0.1565 -0.7134
  345MOL0     C46506   5.152   1.265   8.276  0.5321  1.3562  1.0374
  345MOL0     C46507   5.019   1.315   8.313  0.7713  0.5274 -0.5825
  345MOL0     H46508   5.488   1.716   8.302 -1.3121  0.7212  1.5025
  345MOL0     H46509   5.532   1.944   8.251  1.0300 -1.5527  0.1344
  345MOL0     H46510   5.617   2.056   8.060 -0.6374 -0.5275  2.1774
  345MOL0     H46511   5.540   2.140   7.918 -1.7828  1.3746  0.5584
  345MOL0     H46512   5.558   2.254   8.188 -1.5024 -4.9357  0.1660
  345MOL0     H46513   5.466   2.322   8.048  1.1079  1.4251 -0.6142
  345MOL0     H46514   5.668   2.334   7.912 -2.4311 -2.5819 -0.7981
  345MOL0     H46515   5.768   2.300   8.058 -0.5805  0.0953  0.1137
  345MOL0     H46516   5.584   2.544   8.010 -0.3644 -1.4008  1.7304
  345MOL0     H46517   5.657   2.495   8.166 -0.0856  1.0624  0.3993
  345MOL0     H46518   5.883   2.520   8.072 -0.4560 -0.6694  0.3815
  345MOL0     H46519   5.813   2.542   7.915  1.6779 -3.3478  0.8406
  345MOL0     H46520   5.720   2.770   8.027  0.8004  0.5122 -0.5549
  345MOL0     H46521   5.787   2.706   8.172  1.1024  1.0469  0.0576
  345MOL0     H46522   5.961   2.788   7.927 -0.0158 -2.4157 -0.9043
  345MOL0     H46523   6.029   2.731   8.078  0.1826  2.1956  0.8179
  345MOL0     H46524   5.822   2.939   8.114 -0.3820  0.3391  0.0959
  345MOL0     H46525   5.966   2.887   8.204 -0.0427 -2.5308 -0.7293
  345MOL0     H46526   6.182   2.894   7.963  2.3920  0.2191  0.7657
  345MOL0     H46527   6.297   3.031   7.802 -1.7654 -0.0343 -0.2667
  345MOL0     H46528   6.273   3.195   7.759  0.7358  0.3119 -0.7372
  345MOL0     H46529   6.456   3.255   7.843  0.5992 -2.2285 -1.2705
  345MOL0     H46530   6.382   3.252   7.997  0.0465  1.3827 -0.9616
  345MOL0     H46531   6.510   2.998   7.896  0.4969  0.5444 -0.6802
  345MOL0     H46532   6.501   3.078   8.066  1.2691  1.6188 -0.1530
  345MOL0     H46533   6.639   3.251   7.997 -3.4457 -1.3673  1.1468
  345MOL0     H46534   6.672   3.177   7.845  3.3579  4.8595  1.2406
  345MOL0     H46535   6.928   2.950   8.106 -2.4132 -0.1461 -6.2049
  345MOL0     H46536   7.150   3.055   8.196  0.3086  1.6507  0.5551
  345MOL0     H46537   7.519   3.147   8.221 -1.7474  0.6141  1.1083
  345MOL0     H46538   7.746   3.234   8.332  0.7527  0.2540 -3.1308
  345MOL0     H46539   7.836   3.622   8.575  2.3272 -2.7745  0.8346
  345MOL0     H46540   7.664   3.618   8.567  2.6973  4.3506 -0.1429
  345MOL0     H46541   7.847   3.415   8.717  0.2799  0.1849  6.5058
  345MOL0     H46542   7.772   3.554   8.788 -1.8697  2.6390 -1.2745
  345MOL0     H46543   7.544   3.449   8.730  2.0397  2.5351  2.0808
  345MOL0     H46544   7.637   3.299   8.704  2.8564  0.3885  0.1059
  345MOL0     H46545   7.611   3.444   8.979  2.8030 -0.3284  1.1641
  345MOL0     H46546   7.744   3.336   8.939 -0.1714  0.4651 -1.1071
  345MOL0     H46547   7.584   3.151   8.889 -0.5492  1.3021  0.7193
  345MOL0     H46548   7.450   3.266   8.920 -0.5389  0.9328 -0.1825
  345MOL0     H46549   7.666   3.183   9.102 -0.7627 -3.7681  0.9666
  345MOL0     H46550   7.530   3.302   9.149  2.4024 -0.4548  2.0782
  345MOL0     H46551   7.547   3.007   9.107  0.1025  1.0538 -1.7814
  345MOL0     H46552   7.394   3.075   9.069 -1.0178 -0.0485  1.6953
  345MOL0     H46553   7.383   3.012   9.306  0.7562 -0.6728 -1.2371
  345MOL0     H46554   7.537   3.098   9.346  1.0976 -2.1451 -1.6483
  345MOL0     H46555   7.505   3.565   8.473 -1.7484  0.1480 -0.0236
  345MOL0     H46556   7.314   3.479   8.378 -0.7314 -0.3943  0.9656
  345MOL0     H46557   7.054   3.409   7.980  0.4692  0.4438  0.5738
  345MOL0     H46558   6.848   3.322   7.923  0.4515  1.3294  1.0053
  345MOL0     H46559   5.228   1.944   7.941 -1.0602  0.7754  0.9585
  345MOL0     H46560   5.213   1.694   7.971  0.8054 -1.6562 -0.5524
  345MOL0     H46561   5.464   1.325   8.124  0.3358  0.8167  2.8966
  345MOL0     H46562   5.506   1.126   8.220 -0.6170  0.2072  2.0739
  345MOL0     H46563   5.543   0.966   8.344  0.1278  0.3195  0.9268
  345MOL0     H46564   5.462   0.837   8.257  1.0126  0.6958 -0.6129
  345MOL0     H46565   5.414   0.729   8.475  1.6124 -1.0872  1.5779
  345MOL0     H46566   5.467   0.875   8.562 -0.3423  0.8642 -0.3763
  345MOL0     H46567   5.671   0.786   8.364 -0.0152  1.4185  0.9716
  345MOL0     H46568   5.608   0.637   8.453  1.0961 -0.2562 -0.3782
  345MOL0     H46569   5.712   0.877   8.599 -1.4364  0.0849 -0.1477
  345MOL0     H46570   5.675   0.711   8.665 -0.2262  3.5170  2.9828
  345MOL0     H46571   6.068   0.675   8.512  0.1174  1.3732  1.1354
  345MOL0     H46572   5.109   1.085   8.380 -0.3565 -0.0591 -1.2928
  345MOL0     H46573   4.971   1.401   8.266 -1.4225  0.3229  1.0995
  345MOL0     H46574   4.944   1.238   8.290  0.0523  1.5765 -1.8797
  345MOL0     H46575   5.016   1.336   8.421  2.0675 -2.4875  0.1639
  346MOL0     O46576   1.658  10.918   0.695 -0.6495 -0.5988  0.0474
  346MOL0     C46577   1.728  10.972   0.606 -0.4173 -0.0377  0.4922
  346MOL0     O46578   1.864  10.975   0.607  0.5822  0.0706  0.3669
  346MOL0     C46579   1.935  10.905   0.692  0.0828  0.0058  0.1907
  346MOL0     C46580   2.053  10.961   0.729 -0.2931  0.1136  0.1470
  346MOL0     C46581   2.144  10.903   0.818 -0.4344 -0.5055 -0.8550
  346MOL0     C46582   2.112  10.774   0.863 -0.0018 -1.0966 -0.4060
  346MOL0     O46583   2.186  10.722   0.964  1.1701  0.1456  0.9716
  346MOL0     C46584   2.319  10.686   0.941 -0.7753  0.3015  0.1943
  346MOL0     C46585   2.339  10.624   0.798  0.4587 -0.1876 -0.3237
  346MOL0     C46586   2.486  10.604   0.755  0.4081 -0.2342 -0.1347
  346MOL0     C46587   2.556  10.508   0.846  0.1420  0.5616 -0.5959
  346MOL0     C46588   2.706  10.487   0.807 -0.8275 -0.8102  0.1145
  346MOL0     C46589   2.771  10.382   0.896  0.2407  0.6875  0.0651
  346MOL0     C46590   2.902  10.331   0.838  0.1159  0.0373 -0.4760
  346MOL0     C46591   3.006  10.437   0.805 -0.2834 -0.0508  0.3181
  346MOL0     N46592   3.137  10.366   0.789  0.5058 -0.9398 -0.7680
  346MOL0     C46593   3.223  10.320   0.885 -1.2853 -0.5136  0.2516
  346MOL0     C46594   3.311  10.238   0.825 -0.1956 -0.6385  0.7043
  346MOL0     C46595   3.430  10.162   0.885  0.6923 -0.6043 -0.4050
  346MOL0     C46596   3.552  10.158   0.788  0.1587  0.4887  0.1451
  346MOL0     C46597   3.608  10.296   0.745  0.2609 -0.6616 -0.6479
  346MOL0     C46598   3.747  10.282   0.685  0.4856 -0.4058  0.0473
  346MOL0     O46599   3.830  10.196   0.772 -0.2792 -0.7588 -0.0238
  346MOL0     C46600   3.912  10.264   0.856 -1.0837 -0.0780 -0.8537
  346MOL0     C46601   4.044  10.255   0.826 -0.2211 -1.0828  0.0430
  346MOL0     C46602   4.132  10.340   0.896 -0.5480  0.0321  0.1231
  346MOL0     C46603   4.094  10.423   1.012 -0.3444  0.2520  0.1127
  346MOL0     C46604   4.190  10.503   1.086 -0.1721 -0.6706  0.4222
  346MOL0     O46605   4.308  10.528   1.025  0.4106 -0.0619  0.6502
  346MOL0     C46606   4.416  10.559   1.106 -0.4563  0.3229 -0.2809
  346MOL0     C46607   4.509  10.643   1.049 -0.6079  0.1010 -0.3490
  346MOL0     C46608   4.630  10.679   1.118 -0.1947 -0.1404 -0.2148
  346MOL0     C46609   4.656  10.624   1.244 -0.2590 -0.9500  0.0912
  346MOL0     O46610   4.769  10.656   1.307 -0.6453  0.6253 -1.0942
  346MOL0     C46611   4.765  10.661   1.450 -0.2485 -0.2776 -1.2866
  346MOL0     C46612   4.883  10.756   1.481 -0.7302 -0.0739 -0.1078
  346MOL0     C46613   4.916  10.754   1.635 -0.3287  0.1533  1.0206
  346MOL0     C46614   5.047  10.822   1.682  0.3426 -0.1261 -0.3001
  346MOL0     C46615   5.072  10.813   1.837  0.1007  0.3456  0.5545
  346MOL0     C46616   5.180  10.914   1.861 -0.0896  0.2693 -0.3679
  346MOL0     C46617   5.203  10.924   2.008 -1.3320 -0.0833  0.0603
  346MOL0     C46618   5.322  11.013   2.039  0.6320  0.1726  0.2668
  346MOL0    Cl46619   5.290  11.186   1.962  0.0500 -0.1542 -0.0297
  346MOL0     C46620   4.561  10.532   1.301  0.1661 -0.5267 -0.0111
  346MOL0     C46621   4.444  10.496   1.230  0.4961 -0.3806 -0.5144
  346MOL0     O46622   4.146  10.550   1.193 -0.1846  0.3128  0.0679
  346MOL0     C46623   3.960  10.418   1.043 -1.0444 -0.2782 -0.3458
  346MOL0     C46624   3.870  10.339   0.972 -0.3652 -0.5299  0.1976
  346MOL0     N46625   3.287  10.240   0.691 -0.1341 -1.0217 -0.1537
  346MOL0     N46626   3.187  10.319   0.665  0.7358  0.3476 -0.6415
  346MOL0     C46627   1.994  10.712   0.822  0.3714  0.6985  0.5533
  346MOL0     C46628   1.903  10.776   0.732  0.9676 -0.3344 -0.7578
  346MOL0     C46629   1.646  11.007   0.496  0.0386 -0.1467 -0.2631
  346MOL0     C46630   1.501  10.998   0.506 -0.4956 -0.5819  0.0965
  346MOL0     C46631   1.422  10.989   0.391  0.7379  0.0342 -0.7127
  346MOL0     C46632   1.480  11.026   0.271  0.4030  0.6464  0.2858
  346MOL0     O46633   1.393  11.007   0.172 -0.2581 -0.0983  0.6833
  346MOL0     C46634   1.445  11.009   0.041  0.8817 -0.7331 -0.5384
  346MOL0     C46635   1.331  11.015  -0.070 -1.3015 -0.2144 -0.0333
  346MOL0     C46636   1.386  10.963  -0.204  0.4906 -0.1709  0.2315
  346MOL0     C46637   1.282  10.967  -0.310 -0.4407  0.6377  0.5358
  346MOL0     C46638   1.334  10.885  -0.431  1.5780 -0.2595 -0.4699
  346MOL0     C46639   1.349  10.799  -0.517  0.6877 -0.0851  0.1915
  346MOL0     C46640   1.617  11.051   0.255 -0.3804 -0.0517 -0.5965
  346MOL0     C46641   1.695  11.052   0.377 -0.0787 -0.3006  0.2513
  346MOL0     C46642   1.838  11.084   0.344  0.3431  0.0655  0.5150
  346MOL0     H46643   2.091  11.050   0.680  1.5325 -0.7448 -0.0824
  346MOL0     H46644   2.239  10.951   0.840 -1.1219  0.7464 -0.5478
  346MOL0     H46645   2.390  10.768   0.949 -1.9376  1.4242 -0.7059
  346MOL0     H46646   2.351  10.614   1.018 -2.3463 -0.3186  0.3110
  346MOL0     H46647   2.285  10.684   0.725  1.3824  0.8361 -0.1872
  346MOL0     H46648   2.298  10.523   0.805  2.3795 -0.8885  2.7291
  346MOL0     H46649   2.540  10.699   0.763  0.6388 -0.0345 -3.0195
  346MOL0     H46650   2.495  10.566   0.653  3.7089 -2.8160  0.9276
  346MOL0     H46651   2.557  10.554   0.945 -2.3350  1.3085 -0.8446
  346MOL0     H46652   2.514  10.407   0.846  2.1843 -0.3986  1.7941
  346MOL0     H46653   2.713  10.450   0.705 -2.0056 -0.1990 -0.1983
  346MOL0     H46654   2.760  10.580   0.831 -0.6348 -1.1948  1.2529
  346MOL0     H46655   2.801  10.433   0.988  0.0418  0.3881  0.2967
  346MOL0     H46656   2.701  10.303   0.923  0.5825  0.2806 -0.2287
  346MOL0     H46657   2.879  10.286   0.741 -1.4500  1.1422 -0.6540
  346MOL0     H46658   2.945  10.259   0.909  2.3630  1.9772  0.2368
  346MOL0     H46659   2.979  10.485   0.711  0.4725 -0.2846 -0.0235
  346MOL0     H46660   3.017  10.513   0.883 -0.3253  2.0166 -1.5753
  346MOL0     H46661   3.230  10.356   0.987  0.4710  1.4235 -0.4764
  346MOL0     H46662   3.454  10.194   0.987  0.1375  0.2487 -0.5349
  346MOL0     H46663   3.391  10.060   0.895  1.7307 -1.0018 -0.2993
  346MOL0     H46664   3.628  10.105   0.847 -1.5705 -1.0521  1.1095
  346MOL0     H46665   3.531  10.095   0.701 -0.4401  0.7459  0.0976
  346MOL0     H46666   3.610  10.352   0.840  0.5439 -0.6678 -0.6499
  346MOL0     H46667   3.532  10.346   0.684  1.3975  1.9074 -0.0906
  346MOL0     H46668   3.784  10.384   0.672 -0.1968 -0.0376  0.8703
  346MOL0     H46669   3.741  10.228   0.590 -0.2176  2.4419 -1.6484
  346MOL0     H46670   4.087  10.187   0.752  2.8960 -0.6917  1.3184
  346MOL0     H46671   4.235  10.330   0.865 -0.5235 -2.5577  0.8470
  346MOL0     H46672   4.497  10.697   0.956  0.2648  1.1424  0.1124
  346MOL0     H46673   4.704  10.748   1.079 -1.0526  0.3036 -1.0858
  346MOL0     H46674   4.674  10.713   1.480  1.1565  2.2111 -1.0685
  346MOL0     H46675   4.768  10.568   1.508 -0.9063  0.1068 -0.6293
  346MOL0     H46676   4.975  10.717   1.437  0.0732 -0.3405  1.7385
  346MOL0     H46677   4.863  10.858   1.446  2.7238  1.7251  2.5901
  346MOL0     H46678   4.830  10.790   1.693 -0.3341 -0.4776  1.4299
  346MOL0     H46679   4.918  10.646   1.653 -2.8741 -0.2970 -0.8920
  346MOL0     H46680   5.042  10.926   1.648  2.5454  0.6232  1.3851
  346MOL0     H46681   5.133  10.780   1.630  1.8476  1.8699  0.4017
  346MOL0     H46682   5.088  10.708   1.866 -2.5562 -1.0979 -2.4806
  346MOL0     H46683   4.988  10.843   1.900  0.5121 -2.3508  2.5734
  346MOL0     H46684   5.270  10.881   1.808 -0.2850  0.3634 -0.7627
  346MOL0     H46685   5.148  11.009   1.817 -3.1305 -0.5495 -0.1527
  346MOL0     H46686   5.220  10.820   2.039  3.8269  0.4609 -0.0807
  346MOL0     H46687   5.112  10.967   2.051 -2.8584 -0.5236 -2.5394
  346MOL0     H46688   5.339  11.029   2.146  0.8449  5.0994 -0.2676
  346MOL0     H46689   5.417  10.972   2.004  0.4708 -2.1586  2.3054
  346MOL0     H46690   4.560  10.482   1.398 -3.2515  0.8685  0.8516
  346MOL0     H46691   4.372  10.425   1.271 -0.1056 -0.1831 -1.2151
  346MOL0     H46692   3.923  10.481   1.124  2.0453  3.0282 -1.2473
  346MOL0     H46693   3.763  10.345   0.987 -1.1466  0.2227 -4.2258
  346MOL0     H46694   1.976  10.614   0.864  2.1804  0.3002  0.4641
  346MOL0     H46695   1.814  10.723   0.700  2.5042 -2.3638 -1.8733
  346MOL0     H46696   1.450  10.978   0.600 -1.3993 -0.2721 -0.3198
  346MOL0     H46697   1.316  10.967   0.391  0.6872  0.2664 -0.4230
  346MOL0     H46698   1.504  10.922   0.012 -2.5532 -2.6053 -2.5338
  346MOL0     H46699   1.503  11.101   0.027 -1.2656  0.6081 -1.0912
  346MOL0     H46700   1.289  11.115  -0.084 -1.0421 -0.0115  0.5825
  346MOL0     H46701   1.249  10.945  -0.046 -1.6163 -0.4591 -1.7243
  346MOL0     H46702   1.415  10.860  -0.183 -2.7736 -1.9573 -2.8563
  346MOL0     H46703   1.476  11.016  -0.236 -0.5909  0.2318 -2.4492
  346MOL0     H46704   1.190  10.924  -0.269 -0.3361 -1.1889 -0.9665
  346MOL0     H46705   1.272  11.073  -0.332  0.7695  0.3616 -1.7553
  346MOL0     H46706   1.375  10.712  -0.574  0.8763 -0.8694  1.4310
  346MOL0     H46707   1.667  11.061   0.159 -0.3973  2.3788 -0.4174
  346MOL0     H46708   1.854  11.154   0.261  1.2971  2.0724  2.2932
  346MOL0     H46709   1.874  11.139   0.432  0.2259  0.8147  0.1058
  346MOL0     H46710   1.897  10.994   0.327  4.0326  2.4889 -0.9649
  347MOL0     O46711   0.641   5.741   6.810 -0.8449 -1.1504  0.1882
  347MOL0     C46712   0.666   5.626   6.779  0.4452 -0.1864  1.3537
  347MOL0     O46713   0.712   5.526   6.870  0.7742 -0.3611  1.9657
  347MOL0     C46714   0.754   5.548   6.998  0.0339  0.7475 -0.3405
  347MOL0     C46715   0.766   5.436   7.074  0.0776 -0.1824 -0.1116
  347MOL0     C46716   0.809   5.443   7.206 -0.6593  0.1678  0.5424
  347MOL0     C46717   0.845   5.566   7.269  0.2010  1.3214  0.5359
  347MOL0     O46718   0.888   5.556   7.402  0.6803  0.6836 -0.6160
  347MOL0     C46719   0.988   5.648   7.441  0.0740 -0.4229 -0.0713
  347MOL0     C46720   1.127   5.619   7.376  0.4902 -0.2149  0.6782
  347MOL0     C46721   1.246   5.651   7.470 -0.2866 -0.5482  0.4356
  347MOL0     C46722   1.285   5.805   7.481  0.4184  0.3599 -0.5879
  347MOL0     C46723   1.391   5.821   7.598 -0.0549 -0.3735  0.4246
  347MOL0     C46724   1.443   5.964   7.625  0.2949  0.1284  0.7129
  347MOL0     C46725   1.478   6.028   7.494  0.0316  0.3079 -0.4501
  347MOL0     C46726   1.572   6.142   7.520 -0.4922 -0.1735 -0.2464
  347MOL0     N46727   1.667   6.160   7.410  0.1764 -0.2473  0.4673
  347MOL0     C46728   1.644   6.247   7.302  0.4564 -0.4218  0.0151
  347MOL0     C46729   1.758   6.250   7.234 -0.6951 -0.7326  0.0388
  347MOL0     C46730   1.774   6.344   7.113  0.2434 -0.2198  0.5273
  347MOL0     C46731   1.847   6.268   6.999  0.4831 -0.1608 -0.6481
  347MOL0     C46732   1.747   6.184   6.921  0.1778 -0.0434  0.3134
  347MOL0     C46733   1.813   6.112   6.800 -0.5133 -0.1447  0.0939
  347MOL0     O46734   1.878   6.001   6.844  0.3401  0.4120 -0.0906
  347MOL0     C46735   1.960   5.928   6.763 -0.3305 -0.1123  0.5607
  347MOL0     C46736   1.989   5.803   6.810 -0.3743  0.6184 -0.2552
  347MOL0     C46737   2.077   5.718   6.734 -0.1906 -1.0351 -0.8272
  347MOL0     C46738   2.149   5.769   6.627 -0.5734 -0.0615  0.9070
  347MOL0     C46739   2.259   5.683   6.569  0.6251 -0.4713  0.0978
  347MOL0     O46740   2.305   5.581   6.651 -0.2368 -0.2449  0.1558
  347MOL0     C46741   2.424   5.517   6.609  0.2940 -0.8236  0.1553
  347MOL0     C46742   2.547   5.537   6.680 -0.4094  0.0704  0.6905
  347MOL0     C46743   2.656   5.458   6.648 -0.9022  0.1889  0.9014
  347MOL0     C46744   2.647   5.362   6.549 -0.6831  1.5251  0.0872
  347MOL0     O46745   2.759   5.284   6.523 -0.9833 -0.2039 -0.0774
  347MOL0     C46746   2.801   5.291   6.391  0.3017 -0.3030 -0.1775
  347MOL0     C46747   2.939   5.229   6.387  0.9196 -0.3996 -0.5702
  347MOL0     C46748   2.931   5.078   6.387  0.6943 -0.0928 -0.7722
  347MOL0     C46749   3.076   5.027   6.393 -0.0616 -0.4945 -0.6566
  347MOL0     C46750   3.080   4.878   6.359  0.2471 -0.6029  0.0654
  347MOL0     C46751   3.219   4.846   6.326 -0.2943  1.0039  0.0211
  347MOL0     C46752   3.226   4.690   6.300 -0.1835  0.1307  0.5479
  347MOL0     C46753   3.351   4.649   6.224 -0.2031 -0.0421 -0.1915
  347MOL0    Cl46754   3.489   4.651   6.329 -0.2705  0.0132 -0.1181
  347MOL0     C46755   2.524   5.341   6.485  0.0717 -0.1445 -0.3729
  347MOL0     C46756   2.409   5.419   6.518  0.9847 -0.0755  0.0893
  347MOL0     O46757   2.307   5.721   6.462 -0.0237 -0.0481  0.0144
  347MOL0     C46758   2.123   5.899   6.580  0.0188  0.6877 -0.4898
  347MOL0     C46759   2.026   5.978   6.650 -0.1736 -0.4888 -0.1342
  347MOL0     N46760   1.852   6.173   7.303 -0.0247  0.0581 -0.1970
  347MOL0     N46761   1.791   6.109   7.404 -0.4084  0.3980 -0.2111
  347MOL0     C46762   0.835   5.680   7.192 -0.3971  0.0102 -0.0350
  347MOL0     C46763   0.787   5.679   7.061  0.1073 -0.4521  0.9738
  347MOL0     C46764   0.635   5.564   6.645  0.7272 -0.7409 -0.0817
  347MOL0     C46765   0.595   5.671   6.555  0.0358 -0.5884  0.0055
  347MOL0     C46766   0.562   5.631   6.424 -0.6918 -0.0095 -0.0196
  347MOL0     C46767   0.561   5.498   6.382 -0.1474  0.5162  0.8395
  347MOL0     O46768   0.518   5.462   6.254 -0.0645 -0.4473  0.0341
  347MOL0     C46769   0.493   5.552   6.142  0.2577  0.5454 -0.1370
  347MOL0     C46770   0.463   5.464   6.016  0.1926  0.0290 -0.6065
  347MOL0     C46771   0.596   5.400   5.967 -0.3877 -0.5032 -0.4549
  347MOL0     C46772   0.556   5.280   5.869 -0.5205 -0.3840 -0.0968
  347MOL0     C46773   0.674   5.233   5.796 -0.3367  1.7607  0.3450
  347MOL0     C46774   0.784   5.185   5.751  0.4578 -0.0227 -0.0264
  347MOL0     C46775   0.591   5.400   6.470 -0.3138  0.3663  0.0683
  347MOL0     C46776   0.630   5.436   6.600 -0.7450  0.4566  0.1883
  347MOL0     C46777   0.639   5.319   6.696  0.3426 -0.7056 -0.4571
  347MOL0     H46778   0.732   5.339   7.039 -0.8346  0.1202 -0.0880
  347MOL0     H46779   0.840   5.354   7.260  0.7394  0.5971  0.5008
  347MOL0     H46780   0.962   5.752   7.418 -0.6661 -0.7311 -0.6587
  347MOL0     H46781   0.992   5.633   7.550 -2.4653 -2.8435 -0.1935
  347MOL0     H46782   1.137   5.681   7.286  0.7481 -0.8860  0.2401
  347MOL0     H46783   1.127   5.515   7.342 -0.9517 -0.8128  2.3225
  347MOL0     H46784   1.338   5.616   7.423 -0.0027 -0.0997  0.6462
  347MOL0     H46785   1.240   5.600   7.566 -0.6963  1.0706  1.3071
  347MOL0     H46786   1.317   5.842   7.383  0.8349 -1.1315 -1.0342
  347MOL0     H46787   1.194   5.861   7.508  1.4146  0.1602  4.1186
  347MOL0     H46788   1.343   5.775   7.685 -0.5634  0.0009  0.3409
  347MOL0     H46789   1.481   5.758   7.594 -0.2294 -0.6002  0.0683
  347MOL0     H46790   1.369   6.032   7.668  1.1911  1.4793  0.1953
  347MOL0     H46791   1.526   5.964   7.696 -1.0871 -2.9201  2.4856
  347MOL0     H46792   1.387   6.056   7.441  2.3748  2.6827 -3.6248
  347MOL0     H46793   1.529   5.946   7.442  0.8820  1.1222 -0.9409
  347MOL0     H46794   1.523   6.238   7.539 -0.1856 -0.0073 -0.2809
  347MOL0     H46795   1.631   6.132   7.612  0.6729 -0.3234 -0.9785
  347MOL0     H46796   1.551   6.299   7.281  2.4092  3.3189 -0.4133
  347MOL0     H46797   1.679   6.378   7.073  0.1813 -0.8816  0.0783
  347MOL0     H46798   1.831   6.431   7.146  1.7820 -0.9512 -0.0599
  347MOL0     H46799   1.907   6.333   6.934  2.4651 -0.8871  0.3524
  347MOL0     H46800   1.928   6.202   7.033  1.5883  0.4947 -1.9085
  347MOL0     H46801   1.667   6.249   6.883 -1.0635  0.3799  3.4084
  347MOL0     H46802   1.695   6.117   6.989 -1.2621  0.1756 -0.5229
  347MOL0     H46803   1.880   6.185   6.754 -2.0907  1.7267  0.6135
  347MOL0     H46804   1.727   6.079   6.740  0.0344 -0.3550 -0.5892
  347MOL0     H46805   1.946   5.763   6.901 -1.0183  0.4113 -0.6409
  347MOL0     H46806   2.088   5.612   6.753  2.0194 -0.9200 -1.1914
  347MOL0     H46807   2.560   5.619   6.750  1.5436  1.7948 -1.5231
  347MOL0     H46808   2.744   5.472   6.710 -0.9760  0.3200  0.9776
  347MOL0     H46809   2.734   5.242   6.320 -2.1787  0.9948  1.1471
  347MOL0     H46810   2.801   5.398   6.367 -0.9047 -0.5078 -1.1976
  347MOL0     H46811   2.994   5.262   6.298  1.5605 -0.2246 -0.1176
  347MOL0     H46812   2.986   5.254   6.483 -3.2410  2.4561  0.9846
  347MOL0     H46813   2.868   5.043   6.469 -0.2061  0.7299 -1.0852
  347MOL0     H46814   2.884   5.056   6.291 -0.9950  1.4693 -0.3672
  347MOL0     H46815   3.127   5.045   6.489 -0.9657 -2.7556  0.3131
  347MOL0     H46816   3.134   5.074   6.313  2.0663 -3.1792 -0.8327
  347MOL0     H46817   3.011   4.868   6.275  0.4312  2.1651 -0.4942
  347MOL0     H46818   3.048   4.814   6.442  1.8615  0.5317  1.6527
  347MOL0     H46819   3.251   4.901   6.237 -1.6141  3.0524  0.7444
  347MOL0     H46820   3.293   4.880   6.399  0.4268 -0.1815 -0.1370
  347MOL0     H46821   3.147   4.661   6.230  1.9978  1.4355 -2.7203
  347MOL0     H46822   3.212   4.641   6.396 -1.9480 -0.9554 -0.2139
  347MOL0     H46823   3.332   4.551   6.181 -0.2152 -0.0791 -0.1023
  347MOL0     H46824   3.363   4.719   6.141  4.2910 -0.8596 -0.4557
  347MOL0     H46825   2.527   5.252   6.423 -0.8996  0.4801 -1.3688
  347MOL0     H46826   2.306   5.402   6.488 -0.6260  2.7689  3.4160
  347MOL0     H46827   2.182   5.925   6.492  1.9317 -0.4104  0.4189
  347MOL0     H46828   2.010   6.079   6.613 -0.1367 -0.9815 -1.5562
  347MOL0     H46829   0.857   5.776   7.239 -1.5800  0.3812 -0.2149
  347MOL0     H46830   0.780   5.771   7.004 -0.6693  0.0019  1.7732
  347MOL0     H46831   0.611   5.777   6.569 -0.3304 -0.0243 -3.1117
  347MOL0     H46832   0.539   5.714   6.358  0.5124  1.3054  1.1735
  347MOL0     H46833   0.580   5.617   6.127 -0.1827  1.4453  1.0556
  347MOL0     H46834   0.403   5.611   6.163 -0.3186 -0.8620  1.5743
  347MOL0     H46835   0.415   5.526   5.941 -0.1005 -0.6610 -0.9940
  347MOL0     H46836   0.388   5.389   6.042 -0.9599  1.1927 -0.4823
  347MOL0     H46837   0.667   5.370   6.044  0.4114  1.7395 -0.2182
  347MOL0     H46838   0.645   5.475   5.903  0.0188  1.0613  1.5726
  347MOL0     H46839   0.517   5.194   5.923 -3.3665  0.1795 -1.1181
  347MOL0     H46840   0.478   5.322   5.806 -0.7391 -0.9309 -0.1968
  347MOL0     H46841   0.873   5.140   5.714  1.4479 -0.5227  2.7410
  347MOL0     H46842   0.582   5.296   6.442 -2.2870  0.8470 -1.3685
  347MOL0     H46843   0.608   5.224   6.650  0.9216 -1.7311  1.1769
  347MOL0     H46844   0.742   5.313   6.732  0.7086  3.6392 -0.3513
  347MOL0     H46845   0.566   5.339   6.775  0.0726 -0.3674 -0.7888
  348MOL0     O46846   1.384   4.114   1.456  0.8547  0.3766 -0.9166
  348MOL0     C46847   1.346   4.224   1.501  0.0538  0.0496  0.0678
  348MOL0     O46848   1.423   4.329   1.525 -0.2511 -0.8214  0.0221
  348MOL0     C46849   1.558   4.328   1.492 -0.1718  0.0997 -0.1105
  348MOL0     C46850   1.645   4.223   1.521  0.1490 -1.2537 -0.3666
  348MOL0     C46851   1.782   4.235   1.505 -0.5666  0.1400 -0.3218
  348MOL0     C46852   1.840   4.352   1.467 -0.6658  0.2777  0.3119
  348MOL0     O46853   1.980   4.348   1.472  0.0944  0.8935  0.5039
  348MOL0     C46854   2.060   4.447   1.414  0.2366 -0.5365 -0.2739
  348MOL0     C46855   2.206   4.435   1.452  0.3876 -0.9415 -0.1510
  348MOL0     C46856   2.290   4.555   1.412  0.4236  0.1119  0.3015
  348MOL0     C46857   2.438   4.539   1.454 -0.9817 -0.3767 -0.4111
  348MOL0     C46858   2.447   4.554   1.612 -0.8355  0.6994 -0.1125
  348MOL0     C46859   2.601   4.523   1.650 -0.0485  0.8047 -0.1367
  348MOL0     C46860   2.627   4.502   1.801 -0.7182 -0.8240  0.6001
  348MOL0     C46861   2.642   4.637   1.871 -1.8372 -0.5511  0.1472
  348MOL0     N46862   2.689   4.624   2.010 -0.6609  0.2548  0.7002
  348MOL0     C46863   2.624   4.547   2.101 -0.4366  0.0825 -1.3017
  348MOL0     C46864   2.711   4.541   2.207  0.1401 -0.3603 -0.2465
  348MOL0     C46865   2.687   4.446   2.326 -0.3182 -0.0815 -0.6163
  348MOL0     C46866   2.597   4.502   2.432 -0.1982 -0.7341 -0.3905
  348MOL0     C46867   2.631   4.649   2.473 -1.0612 -0.7097  0.6133
  348MOL0     C46868   2.785   4.669   2.522  0.6226  0.6307 -0.0424
  348MOL0     O46869   2.785   4.609   2.653  0.4488 -0.5238 -0.5951
  348MOL0     C46870   2.905   4.589   2.706 -0.0936  0.0189 -0.1295
  348MOL0     C46871   3.027   4.647   2.660 -0.4910  0.7619 -0.4563
  348MOL0     C46872   3.152   4.617   2.717 -0.8003  0.0117  0.9389
  348MOL0     C46873   3.157   4.533   2.832 -0.5312 -0.3233  0.1387
  348MOL0     C46874   3.292   4.501   2.894  0.6121  0.6498  0.0402
  348MOL0     O46875   3.296   4.432   3.014 -0.1396  0.6806  0.4352
  348MOL0     C46876   3.414   4.398   3.074 -0.4765 -0.2261 -1.2776
  348MOL0     C46877   3.511   4.507   3.107  0.0807  1.0975 -0.1360
  348MOL0     C46878   3.632   4.469   3.164  0.3585 -0.1965  0.5953
  348MOL0     C46879   3.662   4.344   3.215 -0.8428 -0.4291  1.0379
  348MOL0     O46880   3.784   4.317   3.273 -0.0099 -0.0720 -0.2900
  348MOL0     C46881   3.847   4.195   3.228 -0.4897  0.9649  0.0320
  348MOL0     C46882   3.995   4.193   3.269  0.2209  0.3259  0.5304
  348MOL0     C46883   4.015   4.232   3.411  0.0773 -0.5142 -1.0129
  348MOL0     C46884   4.149   4.193   3.457  0.7154  0.1876 -0.9146
  348MOL0     C46885   4.183   4.237   3.599  0.4969 -0.3650 -1.3106
  348MOL0     C46886   4.333   4.218   3.626 -0.0026  0.3497 -0.0208
  348MOL0     C46887   4.363   4.241   3.776  0.5842  0.5363 -0.0193
  348MOL0     C46888   4.512   4.208   3.816  0.1635 -0.4087 -0.1813
  348MOL0    Cl46889   4.556   4.039   3.782 -0.3077  0.4735  0.3523
  348MOL0     C46890   3.560   4.244   3.204 -0.3427  0.7477  0.3573
  348MOL0     C46891   3.440   4.275   3.133 -0.4458  0.0529 -1.1816
  348MOL0     O46892   3.396   4.536   2.829  0.2495  0.7865 -0.3296
  348MOL0     C46893   3.036   4.477   2.885 -0.0039 -1.3235 -1.5631
  348MOL0     C46894   2.917   4.499   2.818  0.8088 -0.8722  0.5528
  348MOL0     N46895   2.818   4.622   2.181  0.4321 -0.5098 -0.2828
  348MOL0     N46896   2.805   4.676   2.064  0.1070  0.1940  0.4560
  348MOL0     C46897   1.752   4.457   1.434 -1.1289  0.2268 -0.2547
  348MOL0     C46898   1.618   4.448   1.448  0.6200 -0.0628  0.3745
  348MOL0     C46899   1.198   4.223   1.536  0.1065 -0.5493 -0.5789
  348MOL0     C46900   1.115   4.117   1.489  0.1110 -0.0492 -0.8048
  348MOL0     C46901   0.985   4.096   1.531 -0.3551 -0.9206  0.6370
  348MOL0     C46902   0.930   4.163   1.639  0.5769  0.2961  0.4880
  348MOL0     O46903   0.800   4.125   1.680 -0.8005  0.6479  0.1635
  348MOL0     C46904   0.732   4.210   1.775 -1.0979  0.1712 -0.9961
  348MOL0     C46905   0.619   4.135   1.845  0.2125 -0.2384 -0.3101
  348MOL0     C46906   0.656   4.040   1.961 -0.7512 -0.4976 -0.9248
  348MOL0     C46907   0.772   3.938   1.942  0.5058  0.1599  0.1140
  348MOL0     C46908   0.721   3.813   2.002 -0.3557 -0.1405 -0.8790
  348MOL0     C46909   0.677   3.719   2.048  1.0119 -0.1978 -0.0104
  348MOL0     C46910   1.005   4.279   1.682  0.8305 -0.3142  0.3611
  348MOL0     C46911   1.135   4.306   1.630  0.2945  0.1313 -0.2935
  348MOL0     C46912   1.215   4.409   1.701 -0.7169  0.5477  0.0778
  348MOL0     H46913   1.618   4.128   1.564  2.1087 -1.7764 -0.2296
  348MOL0     H46914   1.824   4.150   1.559  0.8196  1.2327  0.3878
  348MOL0     H46915   2.048   4.439   1.306  3.3762  1.4523 -0.9154
  348MOL0     H46916   2.027   4.544   1.451  5.3614  0.6368  2.0718
  348MOL0     H46917   2.240   4.355   1.387  1.9607 -0.6895  0.3026
  348MOL0     H46918   2.229   4.415   1.558  2.5037  3.1699  0.3938
  348MOL0     H46919   2.248   4.642   1.462 -0.7311 -0.1164 -0.2343
  348MOL0     H46920   2.280   4.570   1.304 -0.6110  1.8476  0.6022
  348MOL0     H46921   2.483   4.441   1.433  0.0853 -0.4143  1.8288
  348MOL0     H46922   2.498   4.611   1.397 -0.0970  0.1482  1.1421
  348MOL0     H46923   2.416   4.653   1.648 -0.5825  0.9753 -0.6375
  348MOL0     H46924   2.390   4.482   1.672 -0.5479  2.9562  3.1256
  348MOL0     H46925   2.609   4.421   1.610  0.1935  0.2689  1.2159
  348MOL0     H46926   2.682   4.590   1.619 -0.6465  2.0164  0.8233
  348MOL0     H46927   2.720   4.446   1.815 -0.8619 -1.3828 -0.5139
  348MOL0     H46928   2.543   4.450   1.847 -2.4068  1.1627 -0.0908
  348MOL0     H46929   2.719   4.686   1.811  0.6408 -0.7943  2.8917
  348MOL0     H46930   2.551   4.698   1.861  0.1010  2.6780  0.7630
  348MOL0     H46931   2.533   4.489   2.094 -1.6539  2.0361 -3.0965
  348MOL0     H46932   2.647   4.345   2.310  1.8466 -1.8510  3.4656
  348MOL0     H46933   2.784   4.434   2.375 -0.6956 -0.1896  0.1182
  348MOL0     H46934   2.494   4.499   2.396 -0.7537 -1.1625  1.1364
  348MOL0     H46935   2.602   4.461   2.533  1.0472  0.3731  0.0359
  348MOL0     H46936   2.563   4.675   2.554  1.7131  1.5761  2.4281
  348MOL0     H46937   2.616   4.714   2.386  2.4250  1.2725  1.2882
  348MOL0     H46938   2.803   4.776   2.536 -0.2693  0.7754  0.1021
  348MOL0     H46939   2.864   4.631   2.457  2.4115  2.8173  0.7115
  348MOL0     H46940   3.029   4.711   2.572  1.9147  0.6496 -0.5546
  348MOL0     H46941   3.243   4.654   2.672 -2.7001  1.5981 -1.8847
  348MOL0     H46942   3.505   4.609   3.069 -0.3374  2.9343  4.3126
  348MOL0     H46943   3.707   4.547   3.174 -0.8258  1.0616  0.0751
  348MOL0     H46944   3.816   4.113   3.293  1.9359  0.3668  0.5014
  348MOL0     H46945   3.819   4.180   3.124 -2.7099 -1.5596  0.8860
  348MOL0     H46946   4.026   4.090   3.251  0.9762  0.3872  1.4161
  348MOL0     H46947   4.058   4.259   3.209  0.6967 -1.1994 -0.7082
  348MOL0     H46948   4.016   4.341   3.417  3.1901 -0.5013 -0.0254
  348MOL0     H46949   3.935   4.186   3.469  0.2311  2.5298  1.8839
  348MOL0     H46950   4.226   4.232   3.391  2.3536 -2.8521 -0.9512
  348MOL0     H46951   4.160   4.085   3.459 -1.2606 -0.4169 -6.1492
  348MOL0     H46952   4.131   4.172   3.670 -0.5429  3.0384  1.3041
  348MOL0     H46953   4.154   4.340   3.621  0.6654 -0.8641  1.6442
  348MOL0     H46954   4.356   4.112   3.613 -1.6046 -0.2966  1.8988
  348MOL0     H46955   4.387   4.285   3.559 -2.0826  2.7027  0.5066
  348MOL0     H46956   4.298   4.167   3.824  1.5617 -0.3374  0.0085
  348MOL0     H46957   4.329   4.342   3.798 -2.0721 -0.8496  3.0637
  348MOL0     H46958   4.569   4.284   3.762  0.0197  1.2730  1.8969
  348MOL0     H46959   4.531   4.229   3.921 -0.6833 -0.1245 -0.0798
  348MOL0     H46960   3.570   4.141   3.235 -5.0201  0.5280  1.9235
  348MOL0     H46961   3.359   4.204   3.122 -0.7093  0.2376 -0.4173
  348MOL0     H46962   3.028   4.418   2.976  0.3492  0.1446 -0.5541
  348MOL0     H46963   2.827   4.453   2.856  0.3117 -0.4612 -0.1216
  348MOL0     H46964   1.802   4.548   1.405 -2.0839  0.2085 -2.0849
  348MOL0     H46965   1.553   4.534   1.442  2.0277  1.4957  4.1344
  348MOL0     H46966   1.154   4.050   1.413  3.1442  2.0274 -1.2235
  348MOL0     H46967   0.923   4.018   1.487  0.0621  0.6509 -3.1914
  348MOL0     H46968   0.704   4.302   1.722 -2.5044  1.5949  1.9440
  348MOL0     H46969   0.791   4.234   1.864 -2.8179 -0.1246  0.2753
  348MOL0     H46970   0.586   4.079   1.757 -1.8092  1.2303 -0.5406
  348MOL0     H46971   0.541   4.202   1.880 -1.2413 -0.4951 -2.8210
  348MOL0     H46972   0.563   3.991   1.991 -0.4927 -0.5703 -0.2319
  348MOL0     H46973   0.684   4.090   2.054 -2.3161 -2.2860  0.5828
  348MOL0     H46974   0.781   3.932   1.833 -3.3931 -0.2740 -0.3263
  348MOL0     H46975   0.870   3.970   1.980  1.0227 -2.0195  0.7843
  348MOL0     H46976   0.645   3.623   2.083 -1.5775  0.7377  0.4172
  348MOL0     H46977   0.975   4.335   1.770  2.6963  0.9697  0.2525
  348MOL0     H46978   1.312   4.378   1.742 -1.6611 -4.1945 -0.7335
  348MOL0     H46979   1.231   4.494   1.633  2.7425 -0.8917 -1.1597
  348MOL0     H46980   1.160   4.453   1.784 -1.9539  0.7186 -0.8044
  349MOL0     O46981   0.937   4.049   8.715 -0.2525  0.2225 -0.0495
  349MOL0     C46982   0.926   4.152   8.777 -0.1870  0.2665  0.0655
  349MOL0     O46983   1.018   4.207   8.867 -0.5861  0.2963 -0.6300
  349MOL0     C46984   1.123   4.130   8.906  0.2384 -0.3843  1.1852
  349MOL0     C46985   1.095   4.004   8.957 -0.2065  0.0034  0.9613
  349MOL0     C46986   1.196   3.924   9.014  0.1328 -0.4714  0.5908
  349MOL0     C46987   1.330   3.970   9.030 -0.8795  0.4172  0.2528
  349MOL0     O46988   1.430   3.918   9.105  0.3181  0.2153 -0.3290
  349MOL0     C46989   1.402   3.826   9.206  0.5003  0.3543 -0.1343
  349MOL0     C46990   1.526   3.798   9.285 -0.2983  0.2831  0.8964
  349MOL0     C46991   1.557   3.932   9.361 -0.9111 -0.3245  0.7107
  349MOL0     C46992   1.707   3.966   9.375 -0.8527 -0.7857  0.0251
  349MOL0     C46993   1.798   3.869   9.447  0.4553  0.0489  0.4471
  349MOL0     C46994   1.811   3.731   9.372  0.3972 -0.5946 -0.3780
  349MOL0     C46995   1.931   3.649   9.415 -1.1924 -0.0638 -0.5293
  349MOL0     C46996   2.045   3.661   9.316  0.6912 -1.1349  0.4037
  349MOL0     N46997   2.175   3.620   9.382 -0.5116 -0.1696  0.3804
  349MOL0     C46998   2.225   3.498   9.417  0.5515  0.3063 -0.2558
  349MOL0     C46999   2.347   3.521   9.468  0.6897  0.0089  0.4402
  349MOL0     C47000   2.444   3.416   9.521 -0.6150 -0.6898  0.9079
  349MOL0     C47001   2.513   3.357   9.403  0.1878  0.0592 -0.2717
  349MOL0     C47002   2.658   3.391   9.397  0.3451  0.5059  0.6660
  349MOL0     C47003   2.672   3.541   9.364  0.1776  0.5420  0.0071
  349MOL0     O47004   2.805   3.564   9.309  0.3446  0.0995 -0.1556
  349MOL0     C47005   2.922   3.537   9.381  0.2397  0.4026  0.0216
  349MOL0     C47006   3.035   3.511   9.303 -0.1204  0.7478  1.0742
  349MOL0     C47007   3.162   3.494   9.364  0.0559  0.9420 -0.5553
  349MOL0     C47008   3.167   3.487   9.511  0.2568 -0.2603  0.2491
  349MOL0     C47009   3.298   3.472   9.590  0.0959 -0.4252  0.1535
  349MOL0     O47010   3.284   3.441   9.726 -0.7582 -0.0041  0.4593
  349MOL0     C47011   3.400   3.387   9.777 -0.5985 -0.1412  0.4515
  349MOL0     C47012   3.514   3.462   9.804  0.4878 -0.1712  0.0317
  349MOL0     C47013   3.628   3.391   9.836  0.4040  0.2191 -0.3377
  349MOL0     C47014   3.622   3.251   9.861  0.7929 -0.8883  0.0749
  349MOL0     O47015   3.737   3.179   9.890 -0.4287  0.2653  0.0409
  349MOL0     C47016   3.860   3.249   9.913  0.8590 -0.1017  0.2081
  349MOL0     C47017   3.864   3.298  10.062 -0.2637 -0.1555 -0.9739
  349MOL0     C47018   3.975   3.397  10.091 -0.2540 -0.1388  0.1632
  349MOL0     C47019   4.109   3.346  10.063 -0.0655  0.4587  0.5760
  349MOL0     C47020   4.203   3.454  10.102 -1.3217  0.1530  0.0961
  349MOL0     C47021   4.350   3.411  10.088 -0.3723  0.4700  0.3952
  349MOL0     C47022   4.444   3.529  10.111 -0.1925  0.5116 -0.8731
  349MOL0     C47023   4.600   3.502  10.108  0.3681 -0.9433 -0.3999
  349MOL0    Cl47024   4.685   3.650  10.129 -0.6133 -0.0529 -0.0313
  349MOL0     C47025   3.506   3.181   9.856  0.0116  0.0929 -0.3040
  349MOL0     C47026   3.394   3.254   9.804  0.3146  0.7076 -0.2634
  349MOL0     O47027   3.401   3.496   9.530  0.8668  0.2033  0.7915
  349MOL0     C47028   3.052   3.511   9.584 -0.2454  0.7934 -0.0105
  349MOL0     C47029   2.929   3.534   9.523  0.0207 -0.1493 -0.0078
  349MOL0     N47030   2.382   3.659   9.458  0.5825  0.1094  0.4107
  349MOL0     N47031   2.275   3.711   9.414  0.3809  0.5704  0.0204
  349MOL0     C47032   1.360   4.096   8.972  0.2327 -0.3181  0.0231
  349MOL0     C47033   1.253   4.174   8.914  0.8370 -0.1114  0.0000
  349MOL0     C47034   0.800   4.228   8.752  0.7632 -0.1296 -0.0692
  349MOL0     C47035   0.740   4.271   8.874  0.3931  0.0438  0.0288
  349MOL0     C47036   0.610   4.323   8.867 -0.7754 -0.2890 -0.5873
  349MOL0     C47037   0.534   4.328   8.746 -0.0065 -0.3813 -0.1432
  349MOL0     O47038   0.399   4.375   8.748 -0.0362 -0.6947 -0.3656
  349MOL0     C47039   0.303   4.289   8.814 -0.7755 -0.1702 -1.0362
  349MOL0     C47040   0.189   4.240   8.719 -0.2777 -0.1169 -0.2808
  349MOL0     C47041   0.231   4.231   8.569  0.5220  0.5462 -0.0234
  349MOL0     C47042   0.136   4.154   8.480  0.0424 -0.4991  0.0584
  349MOL0     C47043  -0.004   4.210   8.474  0.1750 -0.1142  0.5350
  349MOL0     C47044  -0.109   4.255   8.460 -0.9776  0.2435  0.6154
  349MOL0     C47045   0.598   4.293   8.631 -0.4960 -0.2413  0.9789
  349MOL0     C47046   0.729   4.235   8.627 -0.3969  0.2491  0.5072
  349MOL0     C47047   0.796   4.188   8.500 -0.3197 -0.6880  0.2249
  349MOL0     H47048   0.990   3.976   8.960 -0.6936  1.8181  1.9049
  349MOL0     H47049   1.162   3.828   9.053  1.9853 -1.6150 -0.4715
  349MOL0     H47050   1.320   3.861   9.270  1.8887 -0.4984  2.2378
  349MOL0     H47051   1.364   3.733   9.163  2.8135 -0.8859  0.3746
  349MOL0     H47052   1.609   3.778   9.216  0.8289  3.7104  1.0682
  349MOL0     H47053   1.504   3.714   9.351 -0.8530 -2.3590 -2.3828
  349MOL0     H47054   1.516   3.922   9.462  1.2504 -1.9088  1.5256
  349MOL0     H47055   1.509   4.019   9.315 -1.4229  0.2751  2.3086
  349MOL0     H47056   1.746   3.976   9.274 -0.1421  0.8061  0.4302
  349MOL0     H47057   1.719   4.064   9.424  0.5416 -1.7321  1.6944
  349MOL0     H47058   1.894   3.918   9.464 -0.1293  2.0715 -1.5214
  349MOL0     H47059   1.744   3.851   9.541 -2.2549 -0.8228 -1.1397
  349MOL0     H47060   1.717   3.676   9.380 -0.7150  0.4252 -4.1618
  349MOL0     H47061   1.824   3.752   9.265  3.0305  0.9195  0.1573
  349MOL0     H47062   1.906   3.542   9.422 -0.7807 -0.0608  3.3133
  349MOL0     H47063   1.970   3.673   9.514 -0.7184 -3.7204  0.3074
  349MOL0     H47064   2.027   3.589   9.236 -0.8873 -1.7020  1.2264
  349MOL0     H47065   2.044   3.764   9.279 -2.4077 -2.4652 -4.0710
  349MOL0     H47066   2.175   3.403   9.409  0.9093  0.0713  0.1862
  349MOL0     H47067   2.515   3.470   9.585 -1.6917  1.0639  0.6776
  349MOL0     H47068   2.386   3.341   9.575 -2.4579  0.2803  0.3589
  349MOL0     H47069   2.516   3.248   9.415  1.4483 -0.0730 -1.5044
  349MOL0     H47070   2.461   3.385   9.311  2.3983 -0.8951 -1.9204
  349MOL0     H47071   2.703   3.322   9.325 -0.9954  0.4319 -0.1261
  349MOL0     H47072   2.709   3.375   9.493  0.4158  0.7420  0.6679
  349MOL0     H47073   2.662   3.596   9.458  2.3891 -1.1368  1.3440
  349MOL0     H47074   2.594   3.572   9.294 -2.4346  0.2898  2.6048
  349MOL0     H47075   3.025   3.507   9.195 -1.0717  0.6268  1.1590
  349MOL0     H47076   3.252   3.473   9.306 -0.8427  1.6110 -2.2870
  349MOL0     H47077   3.507   3.567   9.779  0.7393 -0.4724 -1.3600
  349MOL0     H47078   3.704   3.466   9.857 -2.0303  2.0811  2.5155
  349MOL0     H47079   3.933   3.169   9.896  0.6413 -0.8731  2.5001
  349MOL0     H47080   3.881   3.330   9.844  3.0629 -1.5061 -0.8908
  349MOL0     H47081   3.766   3.344  10.079  0.0324 -0.0164  0.4005
  349MOL0     H47082   3.868   3.213  10.130 -2.6273 -0.1322 -0.6996
  349MOL0     H47083   3.943   3.495  10.054 -7.2299 -1.4243  1.3025
  349MOL0     H47084   3.966   3.411  10.199  0.9952  1.9090  0.0623
  349MOL0     H47085   4.125   3.322   9.957  1.1016  3.7180 -0.0957
  349MOL0     H47086   4.127   3.258  10.125  1.0562  0.7998  0.7398
  349MOL0     H47087   4.180   3.493  10.202  0.9003  3.3622 -0.4844
  349MOL0     H47088   4.198   3.539  10.033 -2.6490 -1.7456 -2.3192
  349MOL0     H47089   4.379   3.333  10.158  2.5879  0.2764 -0.9023
  349MOL0     H47090   4.371   3.377   9.986 -1.6726  0.6793  0.0435
  349MOL0     H47091   4.421   3.557  10.214 -1.9289  0.1964 -1.1448
  349MOL0     H47092   4.416   3.611  10.045  1.3393  1.0511 -0.8962
  349MOL0     H47093   4.627   3.437  10.192  0.5572 -1.0377 -0.5329
  349MOL0     H47094   4.617   3.448  10.015 -0.6337 -3.0750  0.5887
  349MOL0     H47095   3.516   3.075   9.873 -1.4034  0.0550  0.4590
  349MOL0     H47096   3.298   3.205   9.788  0.5124  0.4365 -0.6268
  349MOL0     H47097   3.059   3.512   9.693  2.0896 -2.0599 -0.0077
  349MOL0     H47098   2.841   3.570   9.576 -1.1020 -0.8834 -1.2910
  349MOL0     H47099   1.467   4.111   8.965  0.2030 -0.0072  0.2164
  349MOL0     H47100   1.272   4.271   8.870 -2.5660  0.4678 -0.4042
  349MOL0     H47101   0.795   4.267   8.967 -0.4056 -0.8658  0.4817
  349MOL0     H47102   0.557   4.360   8.954 -1.3000  4.5129 -2.6062
  349MOL0     H47103   0.267   4.340   8.904  1.5803  1.6146 -1.0147
  349MOL0     H47104   0.349   4.194   8.844 -1.5274  0.2873  1.9034
  349MOL0     H47105   0.105   4.310   8.730  0.4168  0.4618  1.9028
  349MOL0     H47106   0.170   4.138   8.752 -0.8278  0.2726  0.6571
  349MOL0     H47107   0.326   4.176   8.567  0.3956  0.2578  1.1309
  349MOL0     H47108   0.251   4.327   8.520 -0.1893 -0.6345 -2.8302
  349MOL0     H47109   0.179   4.146   8.380  0.5307  2.9034 -0.1160
  349MOL0     H47110   0.127   4.054   8.525 -4.0133  0.0382  0.8252
  349MOL0     H47111  -0.212   4.285   8.450 -1.0865 -0.2452  0.2906
  349MOL0     H47112   0.550   4.291   8.534 -3.4405 -0.2428  2.3409
  349MOL0     H47113   0.776   4.081   8.489 -1.5265 -0.2892 -2.1160
  349MOL0     H47114   0.750   4.246   8.420 -2.9105  0.3693  2.3490
  349MOL0     H47115   0.905   4.195   8.500 -0.2649 -0.0018 -3.1313
  350MOL0     O47116   6.513   5.502  10.755 -0.5668 -0.3225 -0.1210
  350MOL0     C47117   6.514   5.449  10.867  0.8612 -0.0145  1.2313
  350MOL0     O47118   6.615   5.468  10.956  0.4986  0.1381  0.4391
  350MOL0     C47119   6.730   5.534  10.930  1.0728  0.1437 -0.3481
  350MOL0     C47120   6.729   5.675  10.901  0.1773 -0.3897 -0.7032
  350MOL0     C47121   6.853   5.736  10.891  1.0534 -0.4957  0.7861
  350MOL0     C47122   6.975   5.673  10.910 -0.0884 -0.8388 -0.3475
  350MOL0     O47123   7.085   5.757  10.888  0.6804  1.0517 -0.7781
  350MOL0     C47124   7.211   5.702  10.942  0.4586 -1.0000 -0.4230
  350MOL0     C47125   7.318   5.810  10.947 -0.5437  0.2652 -0.4144
  350MOL0     C47126   7.280   5.925  11.053  0.1064  0.2629 -0.0367
  350MOL0     C47127   7.391   6.034  11.082 -0.4612  0.2784  0.1653
  350MOL0     C47128   7.321   6.160  11.130  0.7542  0.2753  1.0270
  350MOL0     C47129   7.384   6.294  11.112  0.3839  1.0085  1.0134
  350MOL0     C47130   7.321   6.384  11.221 -0.7150 -0.6106  0.3926
  350MOL0     C47131   7.384   6.517  11.230  0.1508 -0.6702 -1.0010
  350MOL0     N47132   7.310   6.605  11.322  0.3271  0.5734  0.0622
  350MOL0     C47133   7.172   6.625  11.306 -0.5290  0.3312  0.6564
  350MOL0     C47134   7.137   6.717  11.398  0.6453 -0.4572 -0.3139
  350MOL0     C47135   7.004   6.795  11.389 -0.0493  0.1180  0.6532
  350MOL0     C47136   7.011   6.949  11.407 -0.2161 -0.3120 -0.1224
  350MOL0     C47137   7.083   7.041  11.301 -0.2392 -0.0475  0.0739
  350MOL0     C47138   7.231   7.002  11.291  1.0624 -0.2563 -0.1518
  350MOL0     O47139   7.280   7.097  11.207 -0.2127 -0.6198 -0.3887
  350MOL0     C47140   7.415   7.113  11.185  0.1929 -0.3314 -0.5197
  350MOL0     C47141   7.465   7.227  11.119  0.6280 -0.2889  0.7152
  350MOL0     C47142   7.601   7.232  11.104  0.4503 -0.2675  0.0830
  350MOL0     C47143   7.692   7.133  11.136 -0.3938  1.0210  0.7810
  350MOL0     C47144   7.836   7.139  11.090  0.4974  0.8128 -0.9204
  350MOL0     O47145   7.929   7.062  11.160 -0.1511 -0.6183 -0.4839
  350MOL0     C47146   8.067   7.062  11.136  0.1292 -0.1508  0.2181
  350MOL0     C47147   8.148   7.026  11.237  1.1158  1.4972 -0.6490
  350MOL0     C47148   8.285   7.022  11.236  0.6131 -0.2970  0.3492
  350MOL0     C47149   8.340   7.076  11.125 -0.9479 -0.1916 -0.5346
  350MOL0     O47150   8.477   7.078  11.137 -0.6986 -0.3081  0.3719
  350MOL0     C47151   8.554   7.173  11.047  0.1523  0.8770 -0.9151
  350MOL0     C47152   8.683   7.181  11.114 -0.4031 -0.0949 -0.0928
  350MOL0     C47153   8.667   7.281  11.235  0.2798 -0.3162  0.2612
  350MOL0     C47154   8.786   7.248  11.335  0.3931 -1.1088 -0.1706
  350MOL0     C47155   8.761   7.314  11.471 -0.2563  0.0236 -0.4633
  350MOL0     C47156   8.891   7.353  11.539 -0.1315 -0.1843  0.7391
  350MOL0     C47157   8.946   7.232  11.618 -0.2339 -0.3315 -0.4162
  350MOL0     C47158   9.050   7.282  11.722 -1.0265  0.8016 -0.0938
  350MOL0    Cl47159   8.987   7.320  11.882 -0.3994  0.0200 -0.1627
  350MOL0     C47160   8.269   7.105  11.010 -0.7114 -1.4377  0.0661
  350MOL0     C47161   8.131   7.098  11.015  0.3563 -0.9493  0.4305
  350MOL0     O47162   7.859   7.234  11.013  0.0397  0.1637  0.0393
  350MOL0     C47163   7.635   7.019  11.203 -0.4103  0.1366  0.3580
  350MOL0     C47164   7.504   7.011  11.234  0.4575  0.0059  0.4837
  350MOL0     N47165   7.245   6.752  11.475  0.1758 -0.1091  0.8056
  350MOL0     N47166   7.354   6.699  11.416 -0.3883  0.4183  0.2221
  350MOL0     C47167   6.981   5.534  10.934  0.1589  0.3604 -0.3896
  350MOL0     C47168   6.855   5.469  10.955 -0.4610 -0.0592 -0.0695
  350MOL0     C47169   6.403   5.359  10.909  0.2341 -0.4869  0.1706
  350MOL0     C47170   6.448   5.243  10.978 -0.3023  0.6104  0.6659
  350MOL0     C47171   6.370   5.139  11.039 -0.0312 -0.4774 -0.7802
  350MOL0     C47172   6.229   5.148  11.007 -0.4599 -0.0298  0.3352
  350MOL0     O47173   6.133   5.061  11.036  0.1887  0.7854 -0.0927
  350MOL0     C47174   6.169   4.925  11.072  0.6796 -0.2463  0.6669
  350MOL0     C47175   6.199   4.930  11.218 -0.4943  0.7038 -0.5781
  350MOL0     C47176   6.264   4.800  11.272 -0.6239 -0.1144 -0.7126
  350MOL0     C47177   6.417   4.808  11.318 -0.3384  0.0917  0.3639
  350MOL0     C47178   6.453   4.877  11.434  0.6902  0.7345 -0.3087
  350MOL0     C47179   6.472   4.952  11.528  0.5062 -0.4140 -0.5883
  350MOL0     C47180   6.180   5.260  10.929  0.4249  0.9493  0.4686
  350MOL0     C47181   6.263   5.358  10.878  1.0871  0.0140  0.5390
  350MOL0     C47182   6.198   5.431  10.755  0.7615 -0.5236 -0.0653
  350MOL0     H47183   6.644   5.741  10.889 -1.0858 -2.1333 -1.8108
  350MOL0     H47184   6.852   5.845  10.893  0.2287 -0.4957  2.6627
  350MOL0     H47185   7.200   5.648  11.037  0.4575 -0.6691 -0.2354
  350MOL0     H47186   7.239   5.627  10.867 -2.8932  0.5931 -3.5841
  350MOL0     H47187   7.336   5.844  10.844  4.3574  0.4847  0.2732
  350MOL0     H47188   7.416   5.764  10.964 -0.1993  2.4161  5.6552
  350MOL0     H47189   7.254   5.891  11.154 -0.9680  2.1148  0.3584
  350MOL0     H47190   7.194   5.972  11.006  1.2454 -0.4521 -3.0361
  350MOL0     H47191   7.466   6.004  11.155  0.8364 -0.1806 -1.2936
  350MOL0     H47192   7.439   6.066  10.988  1.1536  0.4311  1.0079
  350MOL0     H47193   7.225   6.169  11.079  1.2229  1.0251  0.2559
  350MOL0     H47194   7.291   6.142  11.234 -0.7065  0.5113  0.6700
  350MOL0     H47195   7.493   6.290  11.102  0.3312  1.5538  0.0061
  350MOL0     H47196   7.360   6.327  11.010 -2.4794 -2.2828  0.4280
  350MOL0     H47197   7.322   6.342  11.322  2.5447  0.0915  0.7446
  350MOL0     H47198   7.216   6.395  11.191 -0.4515  1.2448  0.0101
  350MOL0     H47199   7.490   6.508  11.257 -0.1423  2.3965  1.7068
  350MOL0     H47200   7.387   6.567  11.133  0.7265 -2.1726 -1.8076
  350MOL0     H47201   7.114   6.583  11.224  0.2840 -0.3794  0.4235
  350MOL0     H47202   6.957   6.773  11.292  0.7630 -2.3813  0.7565
  350MOL0     H47203   6.939   6.751  11.465 -0.1891  1.1185  1.1219
  350MOL0     H47204   6.906   6.978  11.410 -0.0580  0.2372  0.2776
  350MOL0     H47205   7.059   6.972  11.502  0.3959  0.5663 -0.6261
  350MOL0     H47206   7.074   7.142  11.342  0.3035  0.7291 -1.6401
  350MOL0     H47207   7.040   7.043  11.200  0.6178 -1.9584 -0.3836
  350MOL0     H47208   7.241   6.905  11.241  0.6593 -0.2492 -0.2518
  350MOL0     H47209   7.268   6.992  11.393 -0.5737 -1.1499  0.3900
  350MOL0     H47210   7.406   7.305  11.071  0.3810 -1.3787 -0.8165
  350MOL0     H47211   7.636   7.330  11.073  2.2800  0.0545  2.7519
  350MOL0     H47212   8.095   6.998  11.328  0.8141  0.0707 -1.2423
  350MOL0     H47213   8.328   6.993  11.332 -2.3477  0.4854  2.0552
  350MOL0     H47214   8.560   7.124  10.950 -1.8718 -1.3278 -0.0216
  350MOL0     H47215   8.500   7.268  11.041 -0.8257  0.4330  0.4430
  350MOL0     H47216   8.728   7.084  11.139  0.2787  0.2386 -0.0139
  350MOL0     H47217   8.748   7.225  11.038 -1.3017 -0.7898 -1.2992
  350MOL0     H47218   8.669   7.383  11.196 -0.6367 -1.2475 -2.4281
  350MOL0     H47219   8.572   7.255  11.283 -0.6173  0.2592 -1.1604
  350MOL0     H47220   8.878   7.277  11.283  0.1084 -2.6695 -1.6022
  350MOL0     H47221   8.801   7.141  11.350  2.5674 -0.5400  2.6256
  350MOL0     H47222   8.685   7.253  11.520  2.7357 -3.8830 -0.1996
  350MOL0     H47223   8.715   7.410  11.446 -0.8868 -0.5606 -1.6751
  350MOL0     H47224   8.960   7.386  11.460 -0.8328  3.5243  1.4762
  350MOL0     H47225   8.892   7.436  11.611  0.1356  0.2285  0.2671
  350MOL0     H47226   9.002   7.173  11.545  2.7598  1.5168  0.2397
  350MOL0     H47227   8.861   7.175  11.659  0.3682 -0.6891  0.3536
  350MOL0     H47228   9.127   7.204  11.730 -4.4178 -2.6237  2.9000
  350MOL0     H47229   9.105   7.368  11.684  1.2703  0.1412  1.4387
  350MOL0     H47230   8.321   7.156  10.930 -0.4499 -0.7190  0.6873
  350MOL0     H47231   8.075   7.130  10.928  2.5209  1.9023 -0.0473
  350MOL0     H47232   7.709   6.944  11.232  0.8598  0.1168 -2.5498
  350MOL0     H47233   7.476   6.932  11.303 -1.1992  0.3952  0.2881
  350MOL0     H47234   7.067   5.467  10.942  0.5368  0.5214 -2.4395
  350MOL0     H47235   6.849   5.361  10.968  1.8268 -0.4004 -1.3181
  350MOL0     H47236   6.556   5.234  10.978 -0.2855  0.8151  1.0332
  350MOL0     H47237   6.425   5.069  11.102  2.2630 -0.4660 -2.6412
  350MOL0     H47238   6.251   4.895  11.005  0.4972  1.3222 -0.3125
  350MOL0     H47239   6.077   4.868  11.060 -1.4692  2.9877  0.4530
  350MOL0     H47240   6.103   4.947  11.269  0.6004 -1.0803  2.3563
  350MOL0     H47241   6.254   5.016  11.255  1.2778 -0.7064  0.2224
  350MOL0     H47242   6.265   4.721  11.197 -1.0986  0.4373 -1.3081
  350MOL0     H47243   6.199   4.772  11.355 -1.4769 -0.5648 -1.5159
  350MOL0     H47244   6.460   4.708  11.312  0.9669  0.5457  1.5062
  350MOL0     H47245   6.457   4.863  11.232 -3.3917 -0.0887 -1.2767
  350MOL0     H47246   6.477   5.023  11.607  0.1162  0.6392 -1.4839
  350MOL0     H47247   6.076   5.264  10.900  0.7241 -1.6813 -1.3422
  350MOL0     H47248   6.102   5.470  10.789  2.2295  2.9143  0.6421
  350MOL0     H47249   6.255   5.507  10.701 -2.3786 -0.3419 -3.4889
  350MOL0     H47250   6.191   5.355  10.678 -0.5964  1.8411 -2.4458
  351MOL0     O47251  10.041   0.675   3.485  0.0410  0.4951  0.0898
  351MOL0     C47252   9.980   0.680   3.590  0.6707 -0.7827 -1.0219
  351MOL0     O47253  10.038   0.677   3.719 -0.1626  0.2577 -0.3744
  351MOL0     C47254  10.178   0.673   3.731  0.1560  0.2759  1.0747
  351MOL0     C47255  10.273   0.610   3.651 -1.1899  0.0258 -0.2570
  351MOL0     C47256  10.412   0.610   3.688 -0.5088 -0.7561 -0.8925
  351MOL0     C47257  10.453   0.671   3.806  0.0606  0.0697  0.7156
  351MOL0     O47258  10.574   0.648   3.869  0.2291  0.1229 -0.4016
  351MOL0     C47259  10.691   0.625   3.800 -0.6424  0.1334 -0.6261
  351MOL0     C47260  10.809   0.623   3.895  0.8243  1.2465 -0.0642
  351MOL0     C47261  10.931   0.568   3.822  0.4831  0.4113  0.1151
  351MOL0     C47262  11.049   0.550   3.915 -0.2262  0.1478 -0.2178
  351MOL0     C47263  11.148   0.447   3.858 -0.3537 -1.0667 -0.2969
  351MOL0     C47264  11.128   0.292   3.897  0.2749 -0.0659 -0.3522
  351MOL0     C47265  11.245   0.203   3.842  0.6857 -1.1678 -0.3334
  351MOL0     C47266  11.227   0.055   3.863  0.8720 -0.6092  0.4368
  351MOL0     N47267  11.329  -0.020   3.802 -0.0621  0.2525  0.3721
  351MOL0     C47268  11.313  -0.110   3.701  0.4829  0.6524 -0.3306
  351MOL0     C47269  11.431  -0.167   3.688 -0.1380  0.8967  0.3939
  351MOL0     C47270  11.451  -0.284   3.597  0.2224 -0.3118 -1.0311
  351MOL0     C47271  11.585  -0.269   3.532  0.0695 -0.2699 -0.1517
  351MOL0     C47272  11.609  -0.398   3.445  0.7931 -0.4252 -0.8155
  351MOL0     C47273  11.733  -0.412   3.361  0.6433 -0.4978  0.8977
  351MOL0     O47274  11.846  -0.390   3.448  0.5887 -0.0839  0.3007
  351MOL0     C47275  11.971  -0.413   3.401  0.1753 -0.2932 -0.3416
  351MOL0     C47276  12.064  -0.455   3.496 -0.0568 -0.3591  0.0707
  351MOL0     C47277  12.195  -0.462   3.466  0.0969  0.1525 -0.5438
  351MOL0     C47278  12.244  -0.418   3.339 -0.5685 -0.8553  0.8808
  351MOL0     C47279  12.390  -0.421   3.302 -0.0359  1.8451  0.5034
  351MOL0     O47280  12.427  -0.393   3.173 -1.0260 -0.1713 -0.2980
  351MOL0     C47281  12.563  -0.405   3.136  0.3200  0.4314  0.4800
  351MOL0     C47282  12.622  -0.318   3.041 -0.0456  0.8630 -0.3506
  351MOL0     C47283  12.756  -0.320   3.010 -0.2509  0.3958  0.0427
  351MOL0     C47284  12.846  -0.410   3.069 -0.4484 -0.0525 -0.0623
  351MOL0     O47285  12.980  -0.414   3.040  0.7096  0.6207  0.4161
  351MOL0     C47286  13.056  -0.312   2.973  0.9100 -0.4458 -0.3929
  351MOL0     C47287  13.208  -0.351   2.943 -0.4058 -0.8007 -0.3420
  351MOL0     C47288  13.263  -0.401   3.082  0.1797  0.4200  0.6040
  351MOL0     C47289  13.414  -0.376   3.073 -0.3074  0.2467  0.3389
  351MOL0     C47290  13.478  -0.446   3.198  0.1937 -0.3518  0.4638
  351MOL0     C47291  13.619  -0.422   3.203 -0.6468 -0.1718 -0.4660
  351MOL0     C47292  13.693  -0.470   3.071 -0.1992  0.4568 -0.5108
  351MOL0     C47293  13.850  -0.517   3.096  0.3172 -0.1438 -0.3173
  351MOL0    Cl47294  13.950  -0.389   3.168  0.2573  0.5053 -0.1429
  351MOL0     C47295  12.794  -0.491   3.172  0.5308 -0.3508 -0.3130
  351MOL0     C47296  12.650  -0.493   3.205 -0.4173  0.3935  0.4657
  351MOL0     O47297  12.464  -0.438   3.399  0.1023 -0.8244 -0.8718
  351MOL0     C47298  12.142  -0.393   3.235 -0.5060  0.1130  0.6303
  351MOL0     C47299  12.011  -0.386   3.263 -0.6167  1.1845 -0.0739
  351MOL0     N47300  11.520  -0.128   3.782  0.5694 -0.0141 -0.1046
  351MOL0     N47301  11.453  -0.037   3.852 -0.2457  1.1508  0.2637
  351MOL0     C47302  10.361   0.739   3.884 -0.8946  0.6453  0.8932
  351MOL0     C47303  10.225   0.738   3.845 -0.2221  0.5935 -0.1877
  351MOL0     C47304   9.832   0.665   3.591 -0.5979  0.2223  0.1110
  351MOL0     C47305   9.781   0.609   3.711 -0.3740 -0.9535 -1.0170
  351MOL0     C47306   9.642   0.593   3.735  0.2927  0.9854 -0.1670
  351MOL0     C47307   9.552   0.616   3.634 -0.5826  0.6706  0.1281
  351MOL0     O47308   9.419   0.591   3.657  0.4200  0.6504 -1.0134
  351MOL0     C47309   9.315   0.625   3.561 -1.1612 -0.5042  0.0046
  351MOL0     C47310   9.181   0.567   3.604  0.4252 -0.7659  0.3736
  351MOL0     C47311   9.067   0.639   3.537 -0.5978  0.2945 -0.2302
  351MOL0     C47312   8.934   0.564   3.553  0.8750  0.1221  0.5919
  351MOL0     C47313   8.874   0.577   3.685  0.2359  0.2941  0.2286
  351MOL0     C47314   8.813   0.580   3.790 -0.2381 -0.4300 -0.4190
  351MOL0     C47315   9.601   0.678   3.517  1.0146 -1.2275 -0.6122
  351MOL0     C47316   9.734   0.701   3.493 -0.6501 -0.4478 -0.4322
  351MOL0     C47317   9.775   0.782   3.361  0.5131  0.8329 -0.8767
  351MOL0     H47318  10.246   0.546   3.567 -0.5958  0.0646 -0.4828
  351MOL0     H47319  10.484   0.551   3.631  1.0237  1.0312 -0.8992
  351MOL0     H47320  10.684   0.530   3.745  0.1735 -1.1054  1.3272
  351MOL0     H47321  10.711   0.701   3.724 -2.1429  0.5463 -0.6463
  351MOL0     H47322  10.783   0.567   3.986 -2.3898 -1.1823 -2.2274
  351MOL0     H47323  10.834   0.727   3.920  2.0156  0.9030  0.2508
  351MOL0     H47324  10.961   0.633   3.739 -2.3882  1.0771 -0.5123
  351MOL0     H47325  10.918   0.464   3.793  1.8749 -0.5859  2.7930
  351MOL0     H47326  11.099   0.644   3.941  0.8320 -0.6494  0.7267
  351MOL0     H47327  11.022   0.511   4.014  1.0571  1.4869  0.7137
  351MOL0     H47328  11.142   0.443   3.749 -2.0056 -1.4599 -0.2065
  351MOL0     H47329  11.241   0.487   3.901 -0.0338 -1.2331 -0.8220
  351MOL0     H47330  11.126   0.285   4.007  0.1934  0.9402 -0.2810
  351MOL0     H47331  11.033   0.263   3.853 -0.1324 -1.1639  1.1550
  351MOL0     H47332  11.337   0.237   3.891  0.7117 -0.3264 -0.9235
  351MOL0     H47333  11.243   0.218   3.733 -4.4464 -0.7549 -0.4001
  351MOL0     H47334  11.222   0.046   3.972  0.6396 -0.2324  0.4599
  351MOL0     H47335  11.130   0.019   3.828  1.3357  1.5186 -3.5811
  351MOL0     H47336  11.218  -0.126   3.650 -0.1821 -1.4847  1.4531
  351MOL0     H47337  11.454  -0.367   3.668  1.0464  1.8312  1.5787
  351MOL0     H47338  11.371  -0.295   3.523 -0.6605  3.6599 -0.8662
  351MOL0     H47339  11.586  -0.187   3.459  1.9694 -0.1471 -0.0388
  351MOL0     H47340  11.668  -0.247   3.600  1.7481  2.8066 -2.8744
  351MOL0     H47341  11.520  -0.430   3.390 -0.3158 -1.6454  1.5400
  351MOL0     H47342  11.614  -0.474   3.523 -1.9924  1.3258  1.2557
  351MOL0     H47343  11.727  -0.346   3.274 -0.2672 -0.8637  0.6773
  351MOL0     H47344  11.743  -0.510   3.315 -1.5077 -0.1147 -0.5534
  351MOL0     H47345  12.024  -0.490   3.591 -0.1110 -2.0978 -0.5767
  351MOL0     H47346  12.261  -0.485   3.549 -0.4989 -0.8699 -0.3396
  351MOL0     H47347  12.551  -0.251   2.994  0.7380  3.0711  1.4360
  351MOL0     H47348  12.793  -0.246   2.939  3.9007 -2.5747 -1.3338
  351MOL0     H47349  12.999  -0.301   2.880 -1.6677  0.5607  1.1748
  351MOL0     H47350  13.056  -0.219   3.032 -0.6833 -2.4216  3.0662
  351MOL0     H47351  13.220  -0.423   2.862 -1.4337 -1.3969  0.0241
  351MOL0     H47352  13.257  -0.257   2.915 -4.6283  1.0322 -2.5808
  351MOL0     H47353  13.221  -0.351   3.170 -1.4174 -1.3977  0.9447
  351MOL0     H47354  13.243  -0.507   3.097  1.3345 -0.0620 -1.0486
  351MOL0     H47355  13.437  -0.269   3.068  1.2061 -0.0860 -0.4446
  351MOL0     H47356  13.448  -0.409   2.975  0.0923  0.3220  0.4491
  351MOL0     H47357  13.470  -0.555   3.188  2.4848 -0.4936 -0.4932
  351MOL0     H47358  13.441  -0.403   3.291  1.5590  3.0557 -0.4288
  351MOL0     H47359  13.644  -0.316   3.201  2.0760 -0.6924 -3.5173
  351MOL0     H47360  13.651  -0.476   3.292  0.5054  2.4590  0.7986
  351MOL0     H47361  13.694  -0.402   2.986 -0.5840 -3.1614 -3.6790
  351MOL0     H47362  13.655  -0.568   3.041  2.3959  0.2752 -3.8158
  351MOL0     H47363  13.842  -0.590   3.177  0.4156  0.4234  0.2112
  351MOL0     H47364  13.899  -0.544   3.001 -1.6916 -1.8423 -0.9480
  351MOL0     H47365  12.852  -0.573   3.214  0.3748 -1.9851 -3.0673
  351MOL0     H47366  12.610  -0.585   3.245  2.5993 -0.9722  0.5544
  351MOL0     H47367  12.175  -0.364   3.136  0.5382  0.2242  0.9978
  351MOL0     H47368  11.932  -0.352   3.197 -3.3024 -3.9346 -0.0628
  351MOL0     H47369  10.409   0.786   3.969 -1.7392 -0.0424  1.7778
  351MOL0     H47370  10.152   0.794   3.902 -0.9645  0.6480 -1.1694
  351MOL0     H47371   9.844   0.567   3.789 -3.2274 -2.8082  0.4543
  351MOL0     H47372   9.602   0.555   3.829 -0.4522  3.6653  0.6936
  351MOL0     H47373   9.345   0.591   3.461  1.7886  2.5328 -0.3649
  351MOL0     H47374   9.309   0.734   3.546 -2.8381 -0.7847 -1.7467
  351MOL0     H47375   9.161   0.560   3.711 -0.6852  0.6516  0.2790
  351MOL0     H47376   9.181   0.470   3.552 -0.2692 -0.2869 -0.5318
  351MOL0     H47377   9.099   0.651   3.433  1.2790  0.4899  0.3288
  351MOL0     H47378   9.064   0.738   3.582  0.6394  0.7584 -1.1332
  351MOL0     H47379   8.854   0.598   3.487 -0.0976 -1.8967  0.6899
  351MOL0     H47380   8.941   0.458   3.529  0.3124  0.1270  0.3973
  351MOL0     H47381   8.751   0.589   3.878 -0.1916 -0.1987 -0.4096
  351MOL0     H47382   9.530   0.710   3.442  1.1678  2.5431  0.6504
  351MOL0     H47383   9.881   0.778   3.334  0.4657  2.9823 -1.5680
  351MOL0     H47384   9.714   0.751   3.276  0.2746 -0.7666 -0.1623
  351MOL0     H47385   9.754   0.886   3.388 -4.6625 -0.5386  1.7837
  352MOL0     O47386   7.439  11.380   0.286 -0.1325 -0.3086 -0.4731
  352MOL0     C47387   7.380  11.429   0.389  0.1495 -0.4963  0.6202
  352MOL0     O47388   7.400  11.400   0.519  0.1954  0.2242 -0.5022
  352MOL0     C47389   7.517  11.343   0.559  0.2539 -0.1729  0.0905
  352MOL0     C47390   7.644  11.387   0.512 -0.2150 -0.2713  0.7108
  352MOL0     C47391   7.760  11.317   0.535 -0.2482 -0.6106 -0.4795
  352MOL0     C47392   7.759  11.203   0.618  0.3344 -1.4454  0.0672
  352MOL0     O47393   7.876  11.137   0.655  0.4419 -1.0358 -0.1911
  352MOL0     C47394   7.902  11.133   0.799 -0.0476 -0.4366  0.5427
  352MOL0     C47395   7.998  11.239   0.841  0.4056 -0.9881  0.8108
  352MOL0     C47396   7.988  11.279   0.993 -0.3354 -1.4080  0.4644
  352MOL0     C47397   8.062  11.179   1.090  1.3225  0.0194  0.5529
  352MOL0     C47398   8.055  11.223   1.244  0.1317 -0.1176  0.4303
  352MOL0     C47399   8.163  11.136   1.311 -0.1675 -0.6824  0.6931
  352MOL0     C47400   8.182  11.180   1.455 -0.8682 -0.1727  0.1017
  352MOL0     C47401   8.062  11.172   1.548 -0.2311  0.2509  0.6026
  352MOL0     N47402   7.993  11.047   1.530  0.0605 -0.0470 -0.2396
  352MOL0     C47403   8.047  10.926   1.556 -0.5629  0.2358  0.2444
  352MOL0     C47404   7.945  10.839   1.541  0.8880  0.5580 -0.5281
  352MOL0     C47405   7.937  10.684   1.556 -0.9826 -0.9218  0.9862
  352MOL0     C47406   8.010  10.638   1.678  0.5927  0.4631 -0.4183
  352MOL0     C47407   7.938  10.673   1.805 -0.1350 -0.3103 -0.7103
  352MOL0     C47408   8.037  10.666   1.923  0.4962 -0.3999 -0.2425
  352MOL0     O47409   7.954  10.665   2.041  0.4540 -0.2670  0.6842
  352MOL0     C47410   7.998  10.609   2.160  0.2226 -1.4530 -0.0727
  352MOL0     C47411   7.902  10.567   2.248 -0.8306 -0.1990 -0.3786
  352MOL0     C47412   7.934  10.497   2.364  0.7154  0.6717  0.7654
  352MOL0     C47413   8.070  10.464   2.386  0.8472 -0.2350 -0.0604
  352MOL0     C47414   8.095  10.375   2.510  0.8791 -0.0016  0.4536
  352MOL0     O47415   7.985  10.356   2.589 -0.1546 -0.4454 -1.1613
  352MOL0     C47416   8.004  10.271   2.698 -0.4918 -0.2503 -0.2553
  352MOL0     C47417   8.052  10.330   2.821 -0.0576  0.2520  0.1799
  352MOL0     C47418   8.077  10.240   2.927 -0.0842  0.3840 -0.4253
  352MOL0     C47419   8.058  10.095   2.920 -0.1394 -0.6859 -0.3476
  352MOL0     O47420   8.081  10.002   3.027  0.2965  0.0116 -0.3677
  352MOL0     C47421   8.221  10.010   3.062  0.3049 -0.3672  0.0070
  352MOL0     C47422   8.225   9.900   3.181 -0.5805 -0.3348  0.4217
  352MOL0     C47423   8.368   9.875   3.225 -0.2934  0.7835 -0.1242
  352MOL0     C47424   8.446   9.768   3.149 -0.1689 -0.3119 -0.0053
  352MOL0     C47425   8.600   9.753   3.179 -0.1402 -0.2589  0.7895
  352MOL0     C47426   8.621   9.687   3.309  0.2056  0.0649  0.6362
  352MOL0     C47427   8.751   9.597   3.309 -0.2026  0.6035 -0.1621
  352MOL0     C47428   8.759   9.522   3.444 -0.8623  0.2838 -0.0574
  352MOL0    Cl47429   8.657   9.385   3.443  0.2275  0.0443 -0.4667
  352MOL0     C47430   7.997  10.048   2.799 -0.4799 -0.9167 -1.1249
  352MOL0     C47431   7.973  10.136   2.687 -0.0341 -0.0413 -1.0473
  352MOL0     O47432   8.204  10.326   2.526 -0.5372  0.0212  0.9834
  352MOL0     C47433   8.166  10.499   2.297  0.3646  0.1801  0.0347
  352MOL0     C47434   8.125  10.576   2.188 -0.0198 -0.1541 -0.6283
  352MOL0     N47435   7.830  10.905   1.514  0.2662 -0.5053 -0.0729
  352MOL0     N47436   7.857  11.033   1.496 -0.2717 -0.0793 -0.2066
  352MOL0     C47437   7.637  11.171   0.679 -1.0809 -0.0074  0.5198
  352MOL0     C47438   7.522  11.239   0.645  1.1331 -0.3465 -0.1103
  352MOL0     C47439   7.261  11.518   0.362 -0.6060 -0.4050 -0.2879
  352MOL0     C47440   7.239  11.619   0.456 -0.4278 -0.1225 -0.2017
  352MOL0     C47441   7.145  11.717   0.438  0.2018 -0.0369 -0.4195
  352MOL0     C47442   7.052  11.718   0.336 -0.7799  0.3186  0.2021
  352MOL0     O47443   6.956  11.805   0.311  0.2073 -0.1232 -0.3220
  352MOL0     C47444   6.953  11.923   0.397  1.2434  0.1501  0.2638
  352MOL0     C47445   6.892  11.890   0.525 -0.2605 -0.2434 -0.2180
  352MOL0     C47446   6.740  11.872   0.499  0.0658  0.2960 -0.5945
  352MOL0     C47447   6.663  11.941   0.607 -0.2594 -0.6379 -0.2609
  352MOL0     C47448   6.521  11.914   0.602  1.0114 -0.1606 -0.1560
  352MOL0     C47449   6.402  11.881   0.609 -0.2632  0.1439 -0.6100
  352MOL0     C47450   7.069  11.607   0.249 -0.0699  0.1658  0.4600
  352MOL0     C47451   7.167  11.514   0.250 -0.8163  0.3620  0.1659
  352MOL0     C47452   7.181  11.414   0.145  0.1503  0.0837 -0.4106
  352MOL0     H47453   7.645  11.474   0.447  2.8900 -1.2169 -0.7301
  352MOL0     H47454   7.856  11.356   0.502  0.6354 -2.4299 -0.1609
  352MOL0     H47455   7.814  11.162   0.857 -0.3598  0.4000 -0.3042
  352MOL0     H47456   7.934  11.033   0.829 -0.6406 -0.0950  2.4356
  352MOL0     H47457   7.966  11.326   0.784 -1.0647 -1.5048  0.8009
  352MOL0     H47458   8.102  11.215   0.817  0.1168  0.0534 -1.7921
  352MOL0     H47459   7.886  11.319   1.003 -0.3549 -1.1040 -0.7211
  352MOL0     H47460   8.053  11.366   1.006 -1.6101 -0.4613  0.6676
  352MOL0     H47461   8.010  11.085   1.068 -0.3730  1.6187 -3.2603
  352MOL0     H47462   8.168  11.181   1.066  1.5767 -1.9040  1.3226
  352MOL0     H47463   8.075  11.330   1.246 -1.1183  0.1194  1.5960
  352MOL0     H47464   7.958  11.208   1.292 -0.8535  1.8757 -0.7902
  352MOL0     H47465   8.129  11.032   1.306 -2.5936  0.1024 -0.5215
  352MOL0     H47466   8.261  11.140   1.264  0.6262 -0.4892  2.3010
  352MOL0     H47467   8.215  11.285   1.456 -0.4063 -0.1834  4.7931
  352MOL0     H47468   8.259  11.122   1.505 -1.3903  0.2908  1.4765
  352MOL0     H47469   8.096  11.182   1.652 -3.2445  1.0713  1.6127
  352MOL0     H47470   7.992  11.254   1.529 -1.0331 -0.9452 -2.0171
  352MOL0     H47471   8.153  10.909   1.572  0.2319  1.8430 -2.5510
  352MOL0     H47472   7.833  10.653   1.566 -1.6763  1.3375  1.3868
  352MOL0     H47473   7.992  10.641   1.472  1.3081 -1.3233  2.5842
  352MOL0     H47474   8.024  10.529   1.679 -1.7374  0.1130  0.9962
  352MOL0     H47475   8.112  10.677   1.682  1.3059 -1.2998 -0.1753
  352MOL0     H47476   7.855  10.603   1.816 -0.4404  0.1472 -0.0403
  352MOL0     H47477   7.895  10.771   1.784 -0.2076 -0.1028  0.3471
  352MOL0     H47478   8.109  10.749   1.920  0.7839 -0.6681 -2.0915
  352MOL0     H47479   8.090  10.571   1.913  3.3767  1.0666 -0.0427
  352MOL0     H47480   7.798  10.583   2.220 -0.1900 -1.0616 -3.6615
  352MOL0     H47481   7.853  10.457   2.424 -0.1431  2.7710  1.0695
  352MOL0     H47482   8.082  10.434   2.824  0.3094  0.3128 -2.7511
  352MOL0     H47483   8.125  10.284   3.014  1.5289 -1.5494 -0.2710
  352MOL0     H47484   8.290   9.975   2.984  1.1880  1.4991 -0.1013
  352MOL0     H47485   8.258  10.106   3.099 -2.4232  0.9289 -0.3729
  352MOL0     H47486   8.165   9.938   3.264 -1.5950  2.8913 -1.6058
  352MOL0     H47487   8.182   9.804   3.151  2.6937 -1.6239 -0.6571
  352MOL0     H47488   8.415   9.971   3.202  0.0284  0.7274  0.2794
  352MOL0     H47489   8.384   9.847   3.330 -2.6241  0.7660  0.2910
  352MOL0     H47490   8.445   9.801   3.044 -1.5784  0.7879  0.3143
  352MOL0     H47491   8.400   9.669   3.161  0.2412 -0.8738 -2.4180
  352MOL0     H47492   8.653   9.848   3.194 -1.9403  0.5354  2.5430
  352MOL0     H47493   8.657   9.704   3.099 -2.4588 -1.3671 -0.2676
  352MOL0     H47494   8.644   9.772   3.374 -1.9177 -0.4099  2.0832
  352MOL0     H47495   8.534   9.633   3.345 -1.0135  0.7140 -1.2064
  352MOL0     H47496   8.835   9.666   3.296  0.0760  0.2328 -0.3299
  352MOL0     H47497   8.760   9.530   3.223 -2.2496  1.5712 -1.2058
  352MOL0     H47498   8.863   9.491   3.453 -1.0404 -0.1950  0.3647
  352MOL0     H47499   8.745   9.585   3.533  0.7547  1.7443 -0.7654
  352MOL0     H47500   7.970   9.943   2.796  0.8873 -1.3098 -0.3483
  352MOL0     H47501   7.914  10.111   2.600  0.2474 -2.5596 -0.6031
  352MOL0     H47502   8.266  10.456   2.301  1.1371  1.4934 -2.8530
  352MOL0     H47503   8.206  10.591   2.116 -0.2038 -3.3603 -1.6439
  352MOL0     H47504   7.629  11.080   0.737 -3.2746  0.0500  0.3763
  352MOL0     H47505   7.433  11.203   0.696  0.8892 -0.9937 -0.9733
  352MOL0     H47506   7.290  11.627   0.552  0.5464 -0.2410 -0.6969
  352MOL0     H47507   7.129  11.781   0.524  0.3697  2.1035 -1.8796
  352MOL0     H47508   6.902  12.007   0.347  0.9226 -0.3285 -0.2162
  352MOL0     H47509   7.053  11.968   0.401  0.8376  1.0727  0.3306
  352MOL0     H47510   6.908  11.970   0.597  0.8407 -1.4180  0.8881
  352MOL0     H47511   6.921  11.791   0.564  3.2434  1.2179  1.2909
  352MOL0     H47512   6.706  11.768   0.512 -0.7455  0.6647  0.3508
  352MOL0     H47513   6.718  11.910   0.399 -0.0994  0.3894 -0.5230
  352MOL0     H47514   6.699  11.913   0.706 -1.8924 -0.9158  0.2875
  352MOL0     H47515   6.681  12.049   0.598  1.9224 -0.8536  0.8243
  352MOL0     H47516   6.306  11.835   0.627  1.6295 -2.7609  4.1377
  352MOL0     H47517   7.000  11.594   0.166  0.4801  0.4672 -0.0500
  352MOL0     H47518   7.265  11.430   0.077  0.9896  0.1658  0.6166
  352MOL0     H47519   7.209  11.314   0.180 -3.8282 -1.7366 -1.8529
  352MOL0     H47520   7.082  11.398   0.102  0.3488  0.2708 -0.9431
  353MOL0     O47521   3.352   9.099   1.569  0.6045 -0.2761  0.8559
  353MOL0     C47522   3.366   9.021   1.665  0.5778  1.3297  0.2210
  353MOL0     O47523   3.484   8.982   1.721  0.0360  0.0830 -0.4834
  353MOL0     C47524   3.595   9.031   1.651  0.3494  0.7453 -0.2962
  353MOL0     C47525   3.620   9.168   1.657 -0.1882  0.7942  0.6192
  353MOL0     C47526   3.732   9.224   1.593  0.3859 -0.6512 -0.3272
  353MOL0     C47527   3.810   9.151   1.504 -0.0666 -0.1220  0.2214
  353MOL0     O47528   3.916   9.199   1.439 -0.4126  0.1612 -0.0710
  353MOL0     C47529   3.992   9.306   1.498 -0.4822 -0.1736  0.0692
  353MOL0     C47530   4.133   9.287   1.439 -0.4982  1.1951 -0.7394
  353MOL0     C47531   4.225   9.400   1.494 -0.5008 -0.3002 -0.6527
  353MOL0     C47532   4.358   9.387   1.426 -0.9281  0.0341  0.3892
  353MOL0     C47533   4.467   9.475   1.486 -0.8080 -0.2278 -0.4866
  353MOL0     C47534   4.514   9.435   1.625 -0.4969 -1.2740  0.6679
  353MOL0     C47535   4.563   9.287   1.637  0.2731 -0.6642  0.7264
  353MOL0     C47536   4.658   9.259   1.753 -0.5576 -0.1414 -0.1471
  353MOL0     N47537   4.788   9.323   1.736 -0.9868  0.2508 -0.0433
  353MOL0     C47538   4.839   9.386   1.847 -0.3680  0.1297 -0.1676
  353MOL0     C47539   4.958   9.428   1.808 -0.7560 -0.4698  0.8977
  353MOL0     C47540   5.056   9.518   1.898  0.1894 -0.0531  1.4055
  353MOL0     C47541   5.205   9.507   1.861  0.8713  0.6135  0.8898
  353MOL0     C47542   5.264   9.361   1.865  0.2772  0.1572 -0.5613
  353MOL0     C47543   5.423   9.377   1.874  0.7584 -0.0887 -0.0357
  353MOL0     O47544   5.471   9.380   2.010  0.4872  0.1624 -0.3722
  353MOL0     C47545   5.604   9.384   2.028 -0.6469 -1.3579 -0.7746
  353MOL0     C47546   5.702   9.366   1.924 -0.4435  0.4675  0.1019
  353MOL0     C47547   5.842   9.400   1.949  0.0066 -0.4946  1.1110
  353MOL0     C47548   5.882   9.436   2.075  0.3136  0.2541  0.6299
  353MOL0     C47549   6.023   9.463   2.109 -0.3593 -0.2861 -1.1014
  353MOL0     O47550   6.048   9.499   2.241 -0.3299 -0.5771 -0.3521
  353MOL0     C47551   6.171   9.535   2.288 -0.3141  1.3588  0.1076
  353MOL0     C47552   6.260   9.623   2.232 -0.0808 -0.7619 -0.1827
  353MOL0     C47553   6.381   9.657   2.306 -0.3171 -0.9151  0.7290
  353MOL0     C47554   6.397   9.618   2.434  0.2417  0.7783  0.5780
  353MOL0     O47555   6.505   9.642   2.520 -0.6347  0.5130 -0.6908
  353MOL0     C47556   6.611   9.728   2.474  0.1016 -0.5656 -0.7768
  353MOL0     C47557   6.713   9.742   2.589  0.2749 -0.0769  0.6352
  353MOL0     C47558   6.813   9.858   2.563  0.2080  0.7885  0.4336
  353MOL0     C47559   6.929   9.824   2.464 -0.2996  0.1703 -0.0961
  353MOL0     C47560   7.011   9.946   2.406 -0.2290  0.0496  1.1187
  353MOL0     C47561   7.130   9.899   2.326  0.0610 -0.8153  1.0284
  353MOL0     C47562   7.165  10.011   2.220 -0.7485  0.1839  0.3014
  353MOL0     C47563   7.306   9.991   2.169  0.4693 -0.5982 -0.7624
  353MOL0    Cl47564   7.333   9.857   2.060 -0.1417 -0.1161  0.5711
  353MOL0     C47565   6.307   9.530   2.489  0.8333  1.0583  0.3736
  353MOL0     C47566   6.200   9.479   2.415 -0.1257  0.1280 -0.5204
  353MOL0     O47567   6.108   9.472   2.013  0.0175  0.1772  0.5002
  353MOL0     C47568   5.783   9.452   2.179  0.5005  0.0183  0.5055
  353MOL0     C47569   5.645   9.424   2.150 -0.0753  0.2628 -0.0260
  353MOL0     N47570   4.993   9.368   1.686  0.1214 -0.0285 -0.6686
  353MOL0     N47571   4.887   9.298   1.644  0.5308 -0.0611  0.3172
  353MOL0     C47572   3.767   9.028   1.468 -0.6517  0.2463  0.0891
  353MOL0     C47573   3.677   8.964   1.557  0.3973 -0.2139 -0.2377
  353MOL0     C47574   3.249   8.958   1.716 -0.4217 -0.1741 -0.1388
  353MOL0     C47575   3.149   9.051   1.758  0.0327  0.5081 -0.2029
  353MOL0     C47576   3.032   8.996   1.825 -0.0952  0.7679 -0.6982
  353MOL0     C47577   3.011   8.863   1.857 -0.8751 -0.6802  0.2695
  353MOL0     O47578   2.904   8.807   1.923 -0.3279 -0.0631 -0.4302
  353MOL0     C47579   2.784   8.882   1.938  0.0794 -1.0294  0.5587
  353MOL0     C47580   2.699   8.814   2.037  0.4281  0.1402 -0.6894
  353MOL0     C47581   2.565   8.876   2.045  0.3811  0.0140 -0.2341
  353MOL0     C47582   2.478   8.800   2.151  0.3274 -0.5219 -0.3999
  353MOL0     C47583   2.343   8.858   2.156 -0.2307  1.0366  0.0102
  353MOL0     C47584   2.239   8.915   2.152 -0.1551  0.7888 -0.1584
  353MOL0     C47585   3.118   8.780   1.813 -0.3558 -0.3362  0.4345
  353MOL0     C47586   3.229   8.822   1.749  0.5199 -0.4647  0.2928
  353MOL0     C47587   3.344   8.724   1.694 -0.9543  0.1335 -0.1079
  353MOL0     H47588   3.545   9.223   1.712 -3.9194 -2.1042 -1.1444
  353MOL0     H47589   3.758   9.329   1.583  3.3180 -1.3909 -1.5255
  353MOL0     H47590   3.965   9.407   1.466  2.1853  0.5650 -0.1070
  353MOL0     H47591   4.001   9.305   1.607  0.1444  1.2813  0.0515
  353MOL0     H47592   4.132   9.280   1.330 -1.6361 -2.9661 -0.6205
  353MOL0     H47593   4.161   9.192   1.486  0.3837  1.9039  0.2144
  353MOL0     H47594   4.239   9.384   1.601 -1.3444 -3.6063 -0.9057
  353MOL0     H47595   4.168   9.493   1.485  0.3088  0.1784 -0.9127
  353MOL0     H47596   4.392   9.284   1.412 -0.9579  0.0286  0.3561
  353MOL0     H47597   4.337   9.416   1.323  0.0680  0.6873  0.3505
  353MOL0     H47598   4.562   9.487   1.432 -0.6425  0.6447 -0.0244
  353MOL0     H47599   4.426   9.577   1.489 -1.6934 -0.5920 -0.0925
  353MOL0     H47600   4.606   9.494   1.633 -0.6808 -0.6110 -1.4306
  353MOL0     H47601   4.445   9.465   1.704 -3.1391 -2.1282 -1.1963
  353MOL0     H47602   4.620   9.255   1.549 -1.7057 -0.3734 -0.7135
  353MOL0     H47603   4.477   9.220   1.642  0.1707 -0.7110 -0.9724
  353MOL0     H47604   4.613   9.281   1.850  0.2091  0.9638 -0.0329
  353MOL0     H47605   4.692   9.155   1.756  0.7718  0.2800  2.2954
  353MOL0     H47606   4.774   9.401   1.933  1.1024  0.2572  0.9677
  353MOL0     H47607   5.039   9.625   1.886 -1.7492  0.1431  4.7272
  353MOL0     H47608   5.054   9.502   2.007 -1.7786 -1.1629  1.2492
  353MOL0     H47609   5.213   9.555   1.763 -1.4048  4.1168  2.2107
  353MOL0     H47610   5.262   9.570   1.929 -0.8484  1.0896  1.9628
  353MOL0     H47611   5.250   9.306   1.772  4.7621 -0.7713 -0.8767
  353MOL0     H47612   5.220   9.308   1.951  0.6865  0.0206 -0.4360
  353MOL0     H47613   5.447   9.475   1.832  2.2914  0.6402  2.3672
  353MOL0     H47614   5.462   9.280   1.840  2.6273  0.7853 -0.4658
  353MOL0     H47615   5.680   9.334   1.822 -0.1518 -1.1626  0.5265
  353MOL0     H47616   5.922   9.387   1.877 -0.6203  2.1963 -0.1916
  353MOL0     H47617   6.248   9.670   2.135  0.7511 -1.4784 -0.6501
  353MOL0     H47618   6.464   9.704   2.254 -2.6765  0.3929 -2.2205
  353MOL0     H47619   6.661   9.681   2.389  0.4062  0.3618 -1.1260
  353MOL0     H47620   6.571   9.824   2.438 -1.2689 -0.2579  1.4167
  353MOL0     H47621   6.652   9.764   2.678 -1.5678  0.2856 -0.6536
  353MOL0     H47622   6.776   9.655   2.607  3.0069  1.9261  1.3864
  353MOL0     H47623   6.761   9.947   2.525 -0.8503 -0.2254 -0.6096
  353MOL0     H47624   6.855   9.900   2.654  3.0585  0.4184 -0.6202
  353MOL0     H47625   6.894   9.761   2.382  1.6476 -0.5778 -0.3918
  353MOL0     H47626   6.993   9.762   2.526  0.3049 -0.1474 -1.0216
  353MOL0     H47627   7.048  10.004   2.491  0.4573  1.9404 -0.3821
  353MOL0     H47628   6.943  10.002   2.340 -0.7467 -0.6934  1.0076
  353MOL0     H47629   7.209   9.860   2.390 -0.9800 -2.1150  1.5743
  353MOL0     H47630   7.092   9.814   2.268  3.2583 -0.8642 -1.2602
  353MOL0     H47631   7.173  10.108   2.269 -1.0782  1.2498 -1.6707
  353MOL0     H47632   7.094  10.022   2.138  0.3181 -0.6444 -0.7657
  353MOL0     H47633   7.346  10.072   2.108 -1.6399 -0.4603 -2.0718
  353MOL0     H47634   7.363   9.979   2.262  1.8544  0.6303 -1.4092
  353MOL0     H47635   6.338   9.483   2.582  0.3902 -0.2336 -0.1108
  353MOL0     H47636   6.128   9.410   2.457  0.9518 -0.4341  0.4296
  353MOL0     H47637   5.797   9.481   2.282 -2.9026 -1.8648  1.6811
  353MOL0     H47638   5.567   9.452   2.220  0.0766  0.2194  0.1621
  353MOL0     H47639   3.813   8.968   1.390  3.3124  2.1224  0.7423
  353MOL0     H47640   3.667   8.856   1.554  1.2352 -0.2817 -0.9753
  353MOL0     H47641   3.168   9.155   1.736  0.0524  0.3277 -1.0647
  353MOL0     H47642   2.957   9.068   1.858 -3.8567 -3.0161 -0.1280
  353MOL0     H47643   2.725   8.896   1.847 -2.2419 -0.9692  2.0201
  353MOL0     H47644   2.800   8.984   1.975 -0.9545 -0.4069 -0.6546
  353MOL0     H47645   2.746   8.803   2.135  0.0540 -2.8417 -0.7530
  353MOL0     H47646   2.690   8.710   2.003 -2.3720 -0.0643  0.4372
  353MOL0     H47647   2.516   8.875   1.947 -1.1686  1.1962  0.4722
  353MOL0     H47648   2.553   8.981   2.075 -1.0657 -0.2673  0.2522
  353MOL0     H47649   2.465   8.691   2.143 -2.9523 -0.2325 -0.2102
  353MOL0     H47650   2.510   8.827   2.253 -3.3040 -3.0900  1.6567
  353MOL0     H47651   2.141   8.957   2.162 -0.4768  0.5716 -1.9798
  353MOL0     H47652   3.113   8.674   1.836  0.2553 -1.2002 -2.8670
  353MOL0     H47653   3.411   8.690   1.774 -0.5338  1.5301  0.1594
  353MOL0     H47654   3.306   8.630   1.652 -3.1840  1.1804 -0.5676
  353MOL0     H47655   3.412   8.773   1.623 -0.6142 -0.3934 -0.1548
  354MOL0     O47656   6.472   5.909   0.756  0.2969 -0.3278  0.4020
  354MOL0     C47657   6.356   5.919   0.753  0.8605  0.6433  0.1693
  354MOL0     O47658   6.287   6.020   0.810  0.2541 -0.2950 -0.2070
  354MOL0     C47659   6.355   6.131   0.859 -0.6508 -0.5340 -0.4693
  354MOL0     C47660   6.309   6.255   0.823 -0.3330 -0.1338 -1.0605
  354MOL0     C47661   6.368   6.373   0.857 -0.3837  0.5329  0.2832
  354MOL0     C47662   6.490   6.370   0.940  1.3182 -0.3402  0.7600
  354MOL0     O47663   6.546   6.485   0.992  0.2046  0.0136  0.5151
  354MOL0     C47664   6.485   6.614   0.968 -0.3305  0.1513  0.4978
  354MOL0     C47665   6.522   6.686   0.833  0.0683 -0.6269 -0.0180
  354MOL0     C47666   6.672   6.682   0.820 -0.2349  0.1964  0.2400
  354MOL0     C47667   6.758   6.745   0.930  0.4956 -0.3879  0.3632
  354MOL0     C47668   6.894   6.792   0.873 -1.0108  0.3622  0.1523
  354MOL0     C47669   6.985   6.846   0.985 -0.1483  0.0323 -0.2432
  354MOL0     C47670   7.110   6.909   0.936  0.1543 -0.6331 -0.3396
  354MOL0     C47671   7.208   6.803   0.871 -0.0231  0.5583 -0.4952
  354MOL0     N47672   7.334   6.858   0.843  0.7873 -0.2941  0.2836
  354MOL0     C47673   7.363   6.954   0.740 -0.0570  0.4467 -1.4226
  354MOL0     C47674   7.499   6.952   0.738  0.3190 -0.6937  1.2617
  354MOL0     C47675   7.589   7.020   0.627 -0.2874  0.2856 -0.1936
  354MOL0     C47676   7.599   7.179   0.635  0.0688  0.3803 -0.1103
  354MOL0     C47677   7.465   7.251   0.655 -0.7944 -0.0520 -0.6492
  354MOL0     C47678   7.469   7.407   0.625 -0.7338  0.4082  0.0729
  354MOL0     O47679   7.569   7.474   0.700  0.3722 -0.2500  0.6213
  354MOL0     C47680   7.677   7.531   0.635 -0.1816 -0.0512 -0.3336
  354MOL0     C47681   7.804   7.477   0.662 -0.3073 -0.6461 -0.6078
  354MOL0     C47682   7.911   7.533   0.596  0.0202 -0.1119 -0.6491
  354MOL0     C47683   7.901   7.634   0.493  0.0332 -0.2092 -0.6085
  354MOL0     C47684   8.017   7.705   0.430 -0.1520 -0.0441  0.2554
  354MOL0     O47685   7.994   7.808   0.337  0.1118 -0.3564 -0.0451
  354MOL0     C47686   8.089   7.882   0.269  0.7892 -0.0191  0.0735
  354MOL0     C47687   8.158   7.986   0.334 -0.1629 -0.3053 -0.3066
  354MOL0     C47688   8.257   8.055   0.255  0.2918  0.1190 -0.1823
  354MOL0     C47689   8.273   8.031   0.121  0.1568 -0.4410  0.1389
  354MOL0     O47690   8.357   8.102   0.045 -0.0096 -0.2093 -0.4981
  354MOL0     C47691   8.487   8.140   0.094  0.2853  1.2435  0.6284
  354MOL0     C47692   8.548   8.230  -0.019 -1.7456  0.0075 -0.2257
  354MOL0     C47693   8.695   8.281   0.008  0.4876  0.1863  0.2153
  354MOL0     C47694   8.802   8.196  -0.057  0.3151 -0.0291 -0.4851
  354MOL0     C47695   8.939   8.272  -0.034 -0.3605  0.4876 -0.9893
  354MOL0     C47696   9.058   8.205  -0.106  0.0009  0.0672 -0.8412
  354MOL0     C47697   9.097   8.061  -0.049  0.2252  0.0128  0.4859
  354MOL0     C47698   9.225   8.015  -0.127  1.0816 -0.6886  0.2997
  354MOL0    Cl47699   9.190   7.971  -0.300 -0.0410 -0.1224  0.2032
  354MOL0     C47700   8.191   7.937   0.059 -0.0776  0.3496  0.3479
  354MOL0     C47701   8.100   7.858   0.134  0.2700 -0.1300 -0.7008
  354MOL0     O47702   8.126   7.675   0.477 -0.1871 -0.6117  0.0605
  354MOL0     C47703   7.768   7.669   0.456  0.4679  0.2908  0.1783
  354MOL0     C47704   7.663   7.626   0.538  1.1701 -1.0362  0.1988
  354MOL0     N47705   7.543   6.876   0.843 -0.9405  0.5679  0.1955
  354MOL0     N47706   7.446   6.820   0.904  0.1961 -0.5375 -0.4145
  354MOL0     C47707   6.529   6.251   0.985  0.5498  0.0420 -0.7931
  354MOL0     C47708   6.470   6.126   0.945  0.2632  0.7059 -0.5906
  354MOL0     C47709   6.270   5.809   0.698  0.7580  0.4651  0.6491
  354MOL0     C47710   6.139   5.805   0.734  0.0621  0.3837 -0.3895
  354MOL0     C47711   6.051   5.709   0.693  0.4380  0.0026 -0.9203
  354MOL0     C47712   6.093   5.613   0.602  0.5012  0.0454  0.0810
  354MOL0     O47713   6.008   5.523   0.563  0.5410  0.6182  0.5894
  354MOL0     C47714   6.036   5.426   0.462  0.2442  0.1913  0.1928
  354MOL0     C47715   5.906   5.379   0.392  0.5878 -0.0550  1.1901
  354MOL0     C47716   5.842   5.500   0.318 -0.8339  0.3690 -0.3260
  354MOL0     C47717   5.695   5.465   0.287  0.2712 -0.3770  0.1395
  354MOL0     C47718   5.622   5.570   0.224  1.1492 -0.4388 -0.0397
  354MOL0     C47719   5.570   5.670   0.165 -0.0005  0.5763 -0.2665
  354MOL0     C47720   6.232   5.602   0.566 -0.7022 -0.1407 -0.7737
  354MOL0     C47721   6.318   5.696   0.622 -0.6278 -0.6170  1.6407
  354MOL0     C47722   6.467   5.681   0.574  0.7058  0.0896 -0.3202
  354MOL0     H47723   6.222   6.268   0.760 -2.1131 -2.9116  0.6229
  354MOL0     H47724   6.296   6.452   0.836 -2.5723 -1.7709 -1.5672
  354MOL0     H47725   6.376   6.604   0.979 -0.6792  1.8132 -1.0179
  354MOL0     H47726   6.509   6.686   1.047  4.0418  0.6694 -1.0565
  354MOL0     H47727   6.484   6.788   0.832  1.5478 -0.0299  1.0949
  354MOL0     H47728   6.476   6.635   0.747 -0.7265 -1.4897  0.9007
  354MOL0     H47729   6.690   6.729   0.722 -0.7253  1.8976  0.9368
  354MOL0     H47730   6.700   6.578   0.802  1.4967  0.6560  0.1378
  354MOL0     H47731   6.709   6.829   0.979  4.9774  1.8091  1.6537
  354MOL0     H47732   6.778   6.672   1.010 -4.0616 -1.1484  1.1005
  354MOL0     H47733   6.925   6.697   0.828 -0.1712  0.5757  0.2579
  354MOL0     H47734   6.882   6.876   0.804  0.2197  3.6706  3.5944
  354MOL0     H47735   6.934   6.931   1.032  0.2756  0.7450 -1.0329
  354MOL0     H47736   7.018   6.769   1.055  0.8236  0.7094  0.0696
  354MOL0     H47737   7.152   6.949   1.029 -1.0208 -0.6197  0.2087
  354MOL0     H47738   7.079   6.989   0.867  2.0720 -1.3242 -2.0773
  354MOL0     H47739   7.221   6.717   0.936 -0.2259  0.8854 -0.0164
  354MOL0     H47740   7.155   6.765   0.783 -0.2811 -2.6388  0.9284
  354MOL0     H47741   7.295   7.017   0.685 -2.5681 -1.6817 -0.9349
  354MOL0     H47742   7.693   6.990   0.642 -0.6842 -0.8994  0.2495
  354MOL0     H47743   7.568   6.983   0.526  2.3686  0.4118 -0.8813
  354MOL0     H47744   7.667   7.213   0.714 -0.9756 -1.9040  1.9343
  354MOL0     H47745   7.641   7.214   0.540 -3.0481 -0.4714 -1.9639
  354MOL0     H47746   7.437   7.239   0.760 -1.0599  2.7222 -0.3250
  354MOL0     H47747   7.388   7.202   0.595  0.1037 -0.8635 -1.1574
  354MOL0     H47748   7.374   7.450   0.655 -1.9404 -1.0134 -1.4887
  354MOL0     H47749   7.480   7.438   0.521 -0.6026 -2.0931 -0.7267
  354MOL0     H47750   7.814   7.407   0.745  2.6378 -0.9469 -1.0996
  354MOL0     H47751   8.011   7.504   0.627 -0.9044 -1.2585  1.5183
  354MOL0     H47752   8.141   8.012   0.438 -2.4782 -2.2563 -0.1016
  354MOL0     H47753   8.323   8.119   0.313  0.4208 -0.3796  0.2230
  354MOL0     H47754   8.485   8.200   0.185  0.8857  1.8469  0.2484
  354MOL0     H47755   8.556   8.056   0.108 -0.2716  0.6573 -0.0304
  354MOL0     H47756   8.539   8.178  -0.115 -2.4149  0.0924 -0.2094
  354MOL0     H47757   8.486   8.320  -0.027  0.0420  1.1788 -1.9868
  354MOL0     H47758   8.701   8.384  -0.027 -0.9542 -0.3388 -1.7076
  354MOL0     H47759   8.705   8.283   0.117 -0.1519  2.1057  0.2750
  354MOL0     H47760   8.775   8.171  -0.160  0.3417 -0.2274 -0.4449
  354MOL0     H47761   8.806   8.098  -0.007  2.3724  0.5549  0.5923
  354MOL0     H47762   8.959   8.275   0.073  2.5862 -1.4470 -1.3820
  354MOL0     H47763   8.932   8.371  -0.079  1.9115  1.6492  1.0365
  354MOL0     H47764   9.018   8.194  -0.208 -0.1238  0.2769 -0.8152
  354MOL0     H47765   9.146   8.270  -0.106  1.1436 -1.4157  0.4585
  354MOL0     H47766   9.014   7.994  -0.072 -0.8659  1.2942  0.4879
  354MOL0     H47767   9.102   8.071   0.060  0.6152  2.0609  0.3297
  354MOL0     H47768   9.290   8.104  -0.125 -2.0660  1.7655  2.0364
  354MOL0     H47769   9.272   7.933  -0.072 -1.3268 -2.1062  0.3386
  354MOL0     H47770   8.196   7.924  -0.049 -1.2902  0.9742  0.1989
  354MOL0     H47771   8.032   7.786   0.090 -3.1278  1.9787  0.6678
  354MOL0     H47772   7.742   7.727   0.368 -1.8675 -0.2947  0.4284
  354MOL0     H47773   7.568   7.664   0.503  1.5652 -1.6949 -1.7260
  354MOL0     H47774   6.616   6.262   1.048 -0.3054  1.0688  0.2678
  354MOL0     H47775   6.510   6.026   0.959 -2.1379 -0.8049 -3.3969
  354MOL0     H47776   6.110   5.882   0.806  2.0344  1.6094 -0.8432
  354MOL0     H47777   5.947   5.701   0.723  0.1396 -0.6535 -2.1055
  354MOL0     H47778   6.099   5.349   0.508  0.6948  1.0427  1.0387
  354MOL0     H47779   6.097   5.474   0.385  1.1826 -1.8888 -0.4503
  354MOL0     H47780   5.837   5.343   0.469  0.9169  1.3681  2.1945
  354MOL0     H47781   5.925   5.295   0.325  0.2403  0.4754  0.4095
  354MOL0     H47782   5.892   5.531   0.225 -0.3754 -1.3297 -0.6828
  354MOL0     H47783   5.842   5.586   0.385 -1.8621  3.4570 -3.9001
  354MOL0     H47784   5.690   5.376   0.224 -0.6336 -0.1542 -0.1089
  354MOL0     H47785   5.640   5.438   0.378 -0.3502 -2.7401 -0.8644
  354MOL0     H47786   5.542   5.754   0.105  0.1752  2.5575  2.2475
  354MOL0     H47787   6.260   5.533   0.488 -2.4330 -1.6309 -0.1525
  354MOL0     H47788   6.530   5.695   0.662 -0.0904  1.8507  0.0061
  354MOL0     H47789   6.474   5.580   0.532 -1.1334 -0.6201  0.9483
  354MOL0     H47790   6.497   5.761   0.506  0.7478 -0.4406 -0.9431
  355MOL0     O47791   6.307   4.010   7.054 -0.3365  0.1469  0.5946
  355MOL0     C47792   6.281   3.890   7.033 -0.4005  0.4517  0.4086
  355MOL0     O47793   6.339   3.784   7.099  0.0167  0.1776  0.1368
  355MOL0     C47794   6.463   3.797   7.160  0.6239 -0.4886 -0.3748
  355MOL0     C47795   6.484   3.699   7.257 -0.0909 -0.2208 -0.4662
  355MOL0     C47796   6.603   3.691   7.336  1.1427  0.5254 -1.0735
  355MOL0     C47797   6.700   3.781   7.310  0.3326 -0.0162  1.0323
  355MOL0     O47798   6.816   3.758   7.376  0.6255 -0.4998  0.1049
  355MOL0     C47799   6.913   3.866   7.385 -0.3204  0.3478  0.5837
  355MOL0     C47800   6.858   4.001   7.445  0.3494 -0.4158  0.0727
  355MOL0     C47801   6.969   4.108   7.459 -0.3414  0.6980 -0.1601
  355MOL0     C47802   6.930   4.223   7.546  0.8915  0.2798 -1.1023
  355MOL0     C47803   7.008   4.348   7.516  0.0975 -1.6759  0.1984
  355MOL0     C47804   7.006   4.410   7.374  0.0022  0.2284 -0.0359
  355MOL0     C47805   7.082   4.551   7.388 -0.0537  0.5885  0.6126
  355MOL0     C47806   7.224   4.541   7.321  0.1569  0.2923  0.7458
  355MOL0     N47807   7.322   4.450   7.378 -0.8322  1.3232 -0.4215
  355MOL0     C47808   7.332   4.331   7.315 -0.3089 -0.0869  0.6219
  355MOL0     C47809   7.395   4.245   7.400 -0.7315  0.4358  0.1127
  355MOL0     C47810   7.427   4.100   7.375  0.0097 -0.9993  0.0346
  355MOL0     C47811   7.576   4.077   7.359 -0.9915  0.4827 -0.4127
  355MOL0     C47812   7.602   3.919   7.378 -0.8258  0.1859 -0.0479
  355MOL0     C47813   7.755   3.901   7.367  0.3557  0.0956 -0.2471
  355MOL0     O47814   7.813   3.930   7.238 -0.4855  0.5717  0.2823
  355MOL0     C47815   7.946   3.978   7.238  0.4159  0.0745  1.0099
  355MOL0     C47816   8.047   3.901   7.288 -0.4229 -0.4897 -0.0987
  355MOL0     C47817   8.183   3.926   7.269  1.0423 -0.0649 -0.0069
  355MOL0     C47818   8.219   4.041   7.199 -0.1033 -0.5679 -1.0624
  355MOL0     C47819   8.357   4.087   7.184 -0.2293 -0.0647 -0.3802
  355MOL0     O47820   8.374   4.224   7.194  0.1768 -0.2943 -0.3443
  355MOL0     C47821   8.489   4.297   7.224 -0.4595 -0.4158  0.0206
  355MOL0     C47822   8.616   4.248   7.257 -0.2531 -0.1693 -0.1473
  355MOL0     C47823   8.720   4.328   7.289  0.5725 -0.2972  0.2533
  355MOL0     C47824   8.711   4.468   7.279  0.3734  0.3589 -0.4250
  355MOL0     O47825   8.814   4.539   7.325  0.8322 -0.2249 -0.2355
  355MOL0     C47826   8.879   4.618   7.216  0.2201  0.1889 -0.4623
  355MOL0     C47827   8.953   4.525   7.114 -0.1706  0.8874 -0.5140
  355MOL0     C47828   9.098   4.486   7.149 -0.2734 -0.4615  0.1626
  355MOL0     C47829   9.153   4.412   7.030 -0.1111  0.2805 -0.8003
  355MOL0     C47830   9.297   4.366   7.060 -0.1026 -0.1639 -0.1116
  355MOL0     C47831   9.365   4.296   6.933 -0.7695  0.0058  0.2507
  355MOL0     C47832   9.404   4.387   6.816 -1.3717  0.9932  0.3360
  355MOL0     C47833   9.517   4.324   6.730 -0.5973 -0.6521 -1.0001
  355MOL0    Cl47834   9.455   4.165   6.662 -0.2987 -0.2967  0.0272
  355MOL0     C47835   8.587   4.521   7.232  0.0858  0.4390 -0.2838
  355MOL0     C47836   8.480   4.438   7.203  0.2994 -0.5946 -0.1689
  355MOL0     O47837   8.451   4.005   7.188 -0.1956  0.5426  0.5450
  355MOL0     C47838   8.112   4.122   7.151 -0.9362 -0.2817  0.5629
  355MOL0     C47839   7.972   4.087   7.163 -0.3186 -0.7764 -0.0185
  355MOL0     N47840   7.431   4.325   7.508 -0.7062  0.1753 -0.0021
  355MOL0     N47841   7.385   4.447   7.497 -0.0438  0.2839  0.4436
  355MOL0     C47842   6.681   3.875   7.206  0.0380  0.2805  0.7295
  355MOL0     C47843   6.560   3.893   7.137  0.1261 -0.1409 -0.4697
  355MOL0     C47844   6.158   3.866   6.949 -0.3927  0.3670 -0.6320
  355MOL0     C47845   6.074   3.759   6.988  0.3220 -0.4794 -0.7298
  355MOL0     C47846   5.961   3.724   6.912  0.0149  0.0001  0.8406
  355MOL0     C47847   5.926   3.801   6.790 -0.2678  0.4241 -0.0668
  355MOL0     O47848   5.827   3.774   6.701 -0.0979  0.0174 -0.4138
  355MOL0     C47849   5.761   3.640   6.707 -0.3281 -0.8348 -0.3794
  355MOL0     C47850   5.639   3.637   6.624 -0.0539  0.5726 -0.0925
  355MOL0     C47851   5.668   3.565   6.480  0.1138  0.1853  0.1747
  355MOL0     C47852   5.556   3.583   6.376  0.2912 -0.1846  0.1218
  355MOL0     C47853   5.435   3.512   6.424  0.0521 -0.0642  1.0374
  355MOL0     C47854   5.342   3.467   6.477 -0.3103  0.4859  0.2146
  355MOL0     C47855   6.007   3.911   6.758  0.6536 -0.0530 -0.7308
  355MOL0     C47856   6.123   3.945   6.834  0.0036 -0.0026 -0.0216
  355MOL0     C47857   6.201   4.069   6.786 -0.5351 -0.1347 -0.0327
  355MOL0     H47858   6.404   3.627   7.268  0.5480 -1.0288 -0.9862
  355MOL0     H47859   6.613   3.620   7.417 -2.5779 -0.5206 -1.3203
  355MOL0     H47860   7.005   3.832   7.434  0.3721 -0.8210 -1.3773
  355MOL0     H47861   6.937   3.890   7.281  0.0750 -2.8259 -0.1674
  355MOL0     H47862   6.830   3.967   7.545  2.1365 -0.7892  0.4890
  355MOL0     H47863   6.774   4.042   7.389 -1.3023  0.3396  2.8997
  355MOL0     H47864   6.994   4.146   7.360 -2.4583  0.3632 -0.8732
  355MOL0     H47865   7.059   4.064   7.502 -0.1540  1.6550  0.4700
  355MOL0     H47866   6.824   4.246   7.557  1.5015  1.8246  3.2609
  355MOL0     H47867   6.961   4.186   7.644  2.1302 -2.4247 -2.3818
  355MOL0     H47868   6.976   4.429   7.582  1.2799 -0.5574 -0.5600
  355MOL0     H47869   7.113   4.325   7.536  0.4764 -2.5416 -2.3928
  355MOL0     H47870   7.051   4.350   7.294 -0.7822  1.3153 -1.3303
  355MOL0     H47871   6.903   4.426   7.343  0.2231 -2.5894 -2.6713
  355MOL0     H47872   7.084   4.594   7.489 -0.9722  1.9112  0.0827
  355MOL0     H47873   7.015   4.614   7.331  0.0050  0.2609  0.1762
  355MOL0     H47874   7.204   4.522   7.215 -2.2091 -0.4433  1.2738
  355MOL0     H47875   7.264   4.642   7.332 -2.8897  1.5594  1.1489
  355MOL0     H47876   7.290   4.306   7.218  1.4638  0.3962 -0.3219
  355MOL0     H47877   7.398   4.054   7.470  0.6287 -2.4147 -0.4319
  355MOL0     H47878   7.374   4.063   7.287 -1.5237  4.0491 -1.4609
  355MOL0     H47879   7.614   4.119   7.266 -2.7561  0.9710 -0.9534
  355MOL0     H47880   7.620   4.133   7.442 -2.2462  1.5054 -0.3999
  355MOL0     H47881   7.550   3.860   7.302 -0.6671 -0.3264  0.2359
  355MOL0     H47882   7.576   3.879   7.476  0.9960 -1.1886 -0.0829
  355MOL0     H47883   7.757   3.792   7.378 -0.1958 -0.2771 -3.1193
  355MOL0     H47884   7.816   3.952   7.442  0.1717 -3.8817  2.9701
  355MOL0     H47885   8.016   3.810   7.339 -1.5991 -2.6556 -4.2138
  355MOL0     H47886   8.254   3.853   7.306 -1.0696 -1.8726  0.7210
  355MOL0     H47887   8.625   4.141   7.274 -0.3836 -0.0913  0.4313
  355MOL0     H47888   8.812   4.276   7.314  0.2323  0.2422  2.8856
  355MOL0     H47889   8.801   4.668   7.158 -1.2336 -1.7673 -0.2792
  355MOL0     H47890   8.948   4.695   7.253 -2.1834  1.5493  1.4045
  355MOL0     H47891   8.915   4.424   7.098  0.7267  0.5806 -0.7700
  355MOL0     H47892   8.962   4.578   7.018  0.6281 -0.0933 -0.9950
  355MOL0     H47893   9.153   4.579   7.164 -0.5479  0.0741 -1.9584
  355MOL0     H47894   9.099   4.427   7.241 -0.0386  1.1010  1.2030
  355MOL0     H47895   9.150   4.473   6.939  0.8950 -2.1755 -2.6114
  355MOL0     H47896   9.087   4.327   7.009 -1.4751  0.5013  2.1506
  355MOL0     H47897   9.299   4.295   7.143  0.9407  0.8713  0.8002
  355MOL0     H47898   9.352   4.453   7.098 -2.2779  1.4695 -0.5248
  355MOL0     H47899   9.461   4.256   6.968  0.7294  3.2168  0.1587
  355MOL0     H47900   9.301   4.217   6.894  1.9897 -1.7985 -0.9551
  355MOL0     H47901   9.439   4.477   6.866 -0.5606 -0.4254  2.4715
  355MOL0     H47902   9.315   4.406   6.755 -2.0051 -0.1519  0.8559
  355MOL0     H47903   9.527   4.393   6.646 -0.5373  2.6378  1.4866
  355MOL0     H47904   9.615   4.322   6.780 -1.6198 -1.7204  1.1105
  355MOL0     H47905   8.595   4.629   7.232 -1.0979  0.5647  1.4735
  355MOL0     H47906   8.388   4.483   7.168  1.3964  2.8790  0.9705
  355MOL0     H47907   8.135   4.213   7.096 -0.2017  0.7606  2.5017
  355MOL0     H47908   7.888   4.148   7.129 -1.6705 -1.0032  2.6576
  355MOL0     H47909   6.758   3.941   7.166 -0.7899  2.3516  2.3902
  355MOL0     H47910   6.545   3.973   7.067  0.5883  1.9970  1.7393
  355MOL0     H47911   6.080   3.708   7.083  1.0568 -0.2460 -0.6440
  355MOL0     H47912   5.901   3.636   6.933 -2.1540  0.8668 -1.2188
  355MOL0     H47913   5.724   3.630   6.809  0.3722  2.8255  0.3948
  355MOL0     H47914   5.823   3.550   6.706 -2.5450 -2.5423  2.0024
  355MOL0     H47915   5.603   3.741   6.624  0.7775  0.8711 -1.3397
  355MOL0     H47916   5.572   3.578   6.688  0.5947  0.9167  0.9308
  355MOL0     H47917   5.677   3.457   6.494 -1.1879  0.0028 -0.2291
  355MOL0     H47918   5.762   3.593   6.432 -0.7187  0.6077 -1.2918
  355MOL0     H47919   5.520   3.686   6.367  0.0520 -0.3581 -0.9045
  355MOL0     H47920   5.578   3.541   6.278 -1.0476 -0.1542 -0.1985
  355MOL0     H47921   5.260   3.421   6.528 -0.5509  0.4492 -0.2008
  355MOL0     H47922   5.991   3.969   6.667 -2.0278 -0.7959 -0.8123
  355MOL0     H47923   6.307   4.054   6.763  0.2634  0.9927  2.6058
  355MOL0     H47924   6.165   4.103   6.688 -0.4351  0.6300  0.1937
  355MOL0     H47925   6.179   4.146   6.860  1.0826  1.9385 -1.5625
  356MOL0     O47926   7.216   6.130   6.031 -1.3256  0.3786 -0.5997
  356MOL0     C47927   7.132   6.177   5.960 -0.6730 -0.3165 -0.7689
  356MOL0     O47928   7.108   6.316   5.942  0.5383  0.1162 -0.1500
  356MOL0     C47929   7.188   6.419   5.981  0.1102 -0.3941 -0.1244
  356MOL0     C47930   7.128   6.545   5.967 -0.4056  0.0518 -0.0593
  356MOL0     C47931   7.203   6.660   5.998 -0.0259 -0.1856 -0.2829
  356MOL0     C47932   7.336   6.658   6.040 -0.1937  0.4526 -0.3250
  356MOL0     O47933   7.393   6.773   6.079 -0.0644  0.2764 -0.6261
  356MOL0     C47934   7.473   6.765   6.188 -0.2181 -0.2294 -1.1591
  356MOL0     C47935   7.468   6.906   6.260 -0.0609  0.4360  0.9991
  356MOL0     C47936   7.332   6.950   6.313  1.0733  0.7684  0.0102
  356MOL0     C47937   7.288   7.084   6.262  0.2901 -0.1389 -1.3196
  356MOL0     C47938   7.366   7.208   6.327  0.1567 -0.5614 -0.2790
  356MOL0     C47939   7.499   7.238   6.254  0.7314  0.6406  0.4512
  356MOL0     C47940   7.566   7.350   6.324 -0.0464 -0.4411 -0.3233
  356MOL0     C47941   7.699   7.403   6.262  0.0224 -0.0504 -0.4057
  356MOL0     N47942   7.664   7.451   6.128 -0.0303  0.0028 -0.7755
  356MOL0     C47943   7.604   7.570   6.091  0.0270 -0.7308  0.3106
  356MOL0     C47944   7.579   7.550   5.956  0.8380  0.4348 -0.5273
  356MOL0     C47945   7.508   7.638   5.855  0.1551 -0.3996 -0.2177
  356MOL0     C47946   7.543   7.790   5.857  0.4723  0.3561  0.3950
  356MOL0     C47947   7.434   7.869   5.784 -0.5658 -0.3194  0.2106
  356MOL0     C47948   7.330   7.919   5.889  0.1505  0.1274 -0.4179
  356MOL0     O47949   7.247   8.001   5.812 -1.2832 -0.6065 -0.1790
  356MOL0     C47950   7.192   8.117   5.864  1.0592  0.2306  0.0661
  356MOL0     C47951   7.257   8.222   5.929 -0.2376 -0.0457 -0.3978
  356MOL0     C47952   7.177   8.331   5.970 -0.1624  0.1573  0.5729
  356MOL0     C47953   7.038   8.333   5.964 -0.0844  0.7611  0.4148
  356MOL0     C47954   6.953   8.445   6.000 -0.6926 -0.9753 -0.1260
  356MOL0     O47955   6.834   8.468   5.937 -0.1094  0.4430 -0.1019
  356MOL0     C47956   6.771   8.594   5.955 -0.3939 -0.2817  0.4173
  356MOL0     C47957   6.740   8.631   6.082 -1.3570 -0.5905  0.3615
  356MOL0     C47958   6.670   8.748   6.115 -0.7298  0.0920 -1.0859
  356MOL0     C47959   6.608   8.820   6.013  0.5491 -1.2227  0.1997
  356MOL0     O47960   6.520   8.923   6.020 -0.6407  0.1057 -0.2309
  356MOL0     C47961   6.524   8.992   6.151  0.3733  0.1523 -0.1852
  356MOL0     C47962   6.396   9.071   6.170 -0.4315  0.0524  1.5825
  356MOL0     C47963   6.371   9.165   6.049  0.5187 -0.5684  0.5662
  356MOL0     C47964   6.247   9.255   6.083  0.2022  0.0544  0.5368
  356MOL0     C47965   6.210   9.346   5.965 -0.4146  0.3842  0.1082
  356MOL0     C47966   6.123   9.455   5.999 -0.3861  1.0041  0.0898
  356MOL0     C47967   5.989   9.401   6.061  0.1553  0.0792 -0.5790
  356MOL0     C47968   5.878   9.504   6.065 -0.3637  0.2608 -0.6123
  356MOL0    Cl47969   5.721   9.399   6.093 -0.1443 -0.3025  0.1184
  356MOL0     C47970   6.635   8.783   5.881  0.1643  0.5371 -0.3744
  356MOL0     C47971   6.716   8.674   5.851  0.4077  0.0397  0.0429
  356MOL0     O47972   7.014   8.531   6.075 -0.2562 -0.3156  0.2478
  356MOL0     C47973   6.978   8.218   5.911 -0.9444  0.1786 -0.1947
  356MOL0     C47974   7.050   8.113   5.862  0.9701 -0.4085 -0.5348
  356MOL0     N47975   7.657   7.436   5.916  0.2766 -0.7651  0.8719
  356MOL0     N47976   7.708   7.385   6.018 -0.2534  0.0604 -0.1461
  356MOL0     C47977   7.400   6.530   6.038 -0.1324  0.3017 -0.2826
  356MOL0     C47978   7.323   6.411   6.005 -0.2794 -0.3845  0.0050
  356MOL0     C47979   7.041   6.081   5.900  0.6406  0.0634  0.2089
  356MOL0     C47980   6.907   6.119   5.884  0.2236 -0.2019  0.6570
  356MOL0     C47981   6.817   6.033   5.815  0.1778 -0.3161 -0.9731
  356MOL0     C47982   6.854   5.910   5.762  0.4083  0.3163 -0.6151
  356MOL0     O47983   6.778   5.824   5.695 -0.3971 -0.3402  0.6498
  356MOL0     C47984   6.638   5.861   5.660  0.0184 -0.3916 -0.1791
  356MOL0     C47985   6.569   5.764   5.570 -0.6703 -0.9968  0.0746
  356MOL0     C47986   6.619   5.791   5.427  0.4531 -0.5092  0.3210
  356MOL0     C47987   6.585   5.684   5.320  0.1810  0.2517  0.7180
  356MOL0     C47988   6.641   5.554   5.347  0.7247 -0.0203 -0.2480
  356MOL0     C47989   6.702   5.452   5.370  0.0839  0.1290 -0.2474
  356MOL0     C47990   6.991   5.878   5.776  0.3150 -0.9895  0.5306
  356MOL0     C47991   7.083   5.958   5.844  0.7671 -0.4905  0.8391
  356MOL0     C47992   7.222   5.902   5.858 -0.1278  0.4897  1.0961
  356MOL0     H47993   7.022   6.551   5.943 -0.5934  1.0029  0.9374
  356MOL0     H47994   7.154   6.757   6.005 -1.2604 -0.7296 -1.0045
  356MOL0     H47995   7.442   6.678   6.247  0.6331 -2.4194 -3.7285
  356MOL0     H47996   7.578   6.753   6.159  0.1636  2.6834 -1.2753
  356MOL0     H47997   7.502   6.969   6.177  1.3170 -0.3084  0.9771
  356MOL0     H47998   7.543   6.908   6.339  0.2505  2.2963  0.7012
  356MOL0     H47999   7.337   6.957   6.422  0.7915  1.8690 -0.0412
  356MOL0     H48000   7.252   6.879   6.290 -1.2905  2.8952  1.1550
  356MOL0     H48001   7.294   7.093   6.154  1.5255  1.9764 -1.1319
  356MOL0     H48002   7.181   7.089   6.286  0.5003  1.7257 -0.6015
  356MOL0     H48003   7.299   7.294   6.323  2.8727  1.7233 -0.5206
  356MOL0     H48004   7.385   7.198   6.434  1.9971  1.2356 -0.3551
  356MOL0     H48005   7.561   7.150   6.271  0.9490  0.1500 -2.4454
  356MOL0     H48006   7.497   7.257   6.146 -1.5550  1.1158  0.5241
  356MOL0     H48007   7.593   7.335   6.429  2.4793  3.7957 -0.1364
  356MOL0     H48008   7.495   7.433   6.315 -0.2775 -0.6562 -0.4746
  356MOL0     H48009   7.716   7.490   6.327 -1.4943  0.5232 -0.7382
  356MOL0     H48010   7.792   7.345   6.266 -0.0504 -0.0985  2.1280
  356MOL0     H48011   7.564   7.656   6.144 -2.1748 -3.0659  2.7784
  356MOL0     H48012   7.532   7.586   5.762  2.8283 -2.7802  1.5897
  356MOL0     H48013   7.399   7.626   5.860 -0.7418  4.5626 -2.4492
  356MOL0     H48014   7.539   7.827   5.960  0.0042  2.4948 -0.3416
  356MOL0     H48015   7.647   7.807   5.830  0.0703  2.3857  0.0136
  356MOL0     H48016   7.382   7.814   5.704 -1.7491  0.2954  0.5264
  356MOL0     H48017   7.477   7.956   5.734  1.5118 -1.3064  0.1789
  356MOL0     H48018   7.380   7.977   5.967  0.7483 -0.3029 -0.4690
  356MOL0     H48019   7.271   7.837   5.929 -0.6385  1.3135  0.9351
  356MOL0     H48020   7.365   8.227   5.924 -0.2227  1.1028  0.7567
  356MOL0     H48021   7.233   8.422   5.986  3.7507 -2.3762  3.0764
  356MOL0     H48022   6.779   8.577   6.168  0.8203  0.4521  0.0874
  356MOL0     H48023   6.655   8.766   6.221 -0.8015  1.2376 -1.2838
  356MOL0     H48024   6.531   8.921   6.233 -0.0567 -1.6011 -1.6126
  356MOL0     H48025   6.603   9.067   6.146  0.7965 -0.2697  0.1266
  356MOL0     H48026   6.315   8.998   6.169  1.2855 -2.2122 -3.2604
  356MOL0     H48027   6.414   9.129   6.261  0.7326  1.9371  0.2228
  356MOL0     H48028   6.461   9.219   6.019 -0.0330 -0.6164 -1.3405
  356MOL0     H48029   6.342   9.100   5.965  1.6883  1.0264 -1.1424
  356MOL0     H48030   6.279   9.312   6.171 -1.0612  2.8216 -0.6672
  356MOL0     H48031   6.157   9.199   6.110  0.3611  1.3889  4.4028
  356MOL0     H48032   6.164   9.289   5.883  0.4406 -1.8558  1.0856
  356MOL0     H48033   6.302   9.394   5.931  0.7938  1.1832  3.9865
  356MOL0     H48034   6.182   9.515   6.069  1.9548 -0.8126 -0.2007
  356MOL0     H48035   6.105   9.500   5.900 -0.5296  0.0222 -0.3414
  356MOL0     H48036   6.005   9.360   6.161 -0.8767 -0.4433 -0.6209
  356MOL0     H48037   5.952   9.320   5.999  0.7877 -2.2793  1.9380
  356MOL0     H48038   5.880   9.575   6.148 -0.4942 -0.1876 -0.2150
  356MOL0     H48039   5.880   9.567   5.977  1.8696  3.1722  1.3486
  356MOL0     H48040   6.585   8.848   5.810 -1.3041  0.7010  0.7724
  356MOL0     H48041   6.734   8.629   5.754  0.3122 -0.8120  0.4139
  356MOL0     H48042   6.870   8.213   5.909 -0.9007 -0.7219 -0.6726
  356MOL0     H48043   7.001   8.033   5.808 -0.0378  0.6743 -1.2688
  356MOL0     H48044   7.504   6.519   6.065  0.3092  0.3198 -1.8546
  356MOL0     H48045   7.368   6.313   6.000 -1.9066 -1.0777 -2.7834
  356MOL0     H48046   6.874   6.202   5.946  0.8842  0.0012  0.7456
  356MOL0     H48047   6.713   6.066   5.809 -0.2802 -1.0769  1.6447
  356MOL0     H48048   6.634   5.962   5.618  3.8570  0.3737  0.9840
  356MOL0     H48049   6.581   5.866   5.753 -0.0211  0.2597 -0.2321
  356MOL0     H48050   6.461   5.777   5.571 -1.3621 -5.2642 -0.8845
  356MOL0     H48051   6.586   5.660   5.599  0.4939 -0.3746  1.7943
  356MOL0     H48052   6.727   5.806   5.429  0.3801  0.1199 -0.1810
  356MOL0     H48053   6.567   5.882   5.397  2.5442  0.0203 -1.9983
  356MOL0     H48054   6.477   5.662   5.321 -0.0072  1.1071  2.5805
  356MOL0     H48055   6.624   5.711   5.221  0.0033 -2.5282 -0.1744
  356MOL0     H48056   6.754   5.362   5.397 -1.0604 -1.4042 -2.8179
  356MOL0     H48057   7.032   5.781   5.749  2.2172 -0.3962  1.0776
  356MOL0     H48058   7.212   5.840   5.947 -0.7812  0.1000  0.7625
  356MOL0     H48059   7.249   5.829   5.781 -0.8464 -0.4622  1.7128
  356MOL0     H48060   7.302   5.975   5.867  0.0732  0.2547  1.2355
  357MOL0     O48061   3.574   0.136   0.799 -0.7296  0.0139  0.1122
  357MOL0     C48062   3.574   0.224   0.720  0.4440 -0.2625 -0.0071
  357MOL0     O48063   3.679   0.286   0.663 -0.3992  0.0181 -0.0327
  357MOL0     C48064   3.807   0.245   0.692  0.1297 -0.3894 -0.8691
  357MOL0     C48065   3.876   0.306   0.798  0.3392  0.7187  0.0436
  357MOL0     C48066   4.000   0.257   0.839 -0.5966 -0.1112  0.0921
  357MOL0     C48067   4.064   0.154   0.762 -0.3504  0.1034  0.0698
  357MOL0     O48068   4.195   0.121   0.789 -0.2581  0.5392 -0.5159
  357MOL0     C48069   4.262   0.030   0.707 -0.0043 -0.2254 -0.2154
  357MOL0     C48070   4.237  -0.117   0.746  0.1704 -0.4600 -0.5990
  357MOL0     C48071   4.326  -0.203   0.661 -0.1277  0.9158 -0.2224
  357MOL0     C48072   4.309  -0.352   0.695 -0.6675 -0.3193 -0.6306
  357MOL0     C48073   4.406  -0.441   0.616  0.3383 -0.0257  0.4180
  357MOL0     C48074   4.387  -0.586   0.657 -0.6865  0.0699 -0.7046
  357MOL0     C48075   4.501  -0.683   0.611 -0.2011  0.3671 -0.0078
  357MOL0     C48076   4.504  -0.835   0.647 -0.1282 -0.1525 -0.3256
  357MOL0     N48077   4.639  -0.893   0.615  0.3038 -0.1214  0.6797
  357MOL0     C48078   4.747  -0.906   0.695 -0.1226 -0.2675  1.0059
  357MOL0     C48079   4.843  -0.943   0.608 -0.3068 -0.2623 -1.3505
  357MOL0     C48080   4.982  -0.982   0.662  0.2690 -0.1017 -0.1383
  357MOL0     C48081   5.083  -0.983   0.540  0.5741 -0.1984 -0.2644
  357MOL0     C48082   5.219  -0.970   0.597 -0.8864 -0.2310  0.6703
  357MOL0     C48083   5.329  -0.918   0.496  1.5245 -0.0377 -0.4435
  357MOL0     O48084   5.420  -0.824   0.566 -0.6162  0.0074  0.1765
  357MOL0     C48085   5.514  -0.883   0.651  0.6878  0.8931  0.5281
  357MOL0     C48086   5.612  -0.798   0.710  0.1906 -0.8836  0.1631
  357MOL0     C48087   5.720  -0.856   0.779 -0.2779  0.5142 -0.0645
  357MOL0     C48088   5.727  -0.999   0.803 -0.6291  0.0672 -0.3534
  357MOL0     C48089   5.830  -1.066   0.889  0.0967 -0.0471 -0.3839
  357MOL0     O48090   5.822  -1.209   0.907  0.5887  0.4851 -0.2634
  357MOL0     C48091   5.926  -1.301   0.927  0.2215  0.2178 -0.3182
  357MOL0     C48092   5.883  -1.441   0.948  0.2273 -1.1536  0.9556
  357MOL0     C48093   5.978  -1.537   0.971  0.0622  0.5285  1.0747
  357MOL0     C48094   6.117  -1.504   0.972 -0.2634  0.1721 -0.6414
  357MOL0     O48095   6.216  -1.598   0.992 -0.1337  0.5689  0.0909
  357MOL0     C48096   6.216  -1.636   1.128  0.9016  0.4023  0.0024
  357MOL0     C48097   6.331  -1.581   1.204 -0.0653 -0.1893  0.0067
  357MOL0     C48098   6.450  -1.666   1.163  0.7412  0.1643 -0.2559
  357MOL0     C48099   6.592  -1.614   1.185 -0.2641  0.4985  0.9476
  357MOL0     C48100   6.696  -1.724   1.157 -0.1435  0.1827 -0.2233
  357MOL0     C48101   6.844  -1.676   1.176 -0.2500 -1.2426 -0.3058
  357MOL0     C48102   6.939  -1.791   1.153  0.3788  0.6482  0.2022
  357MOL0     C48103   7.089  -1.752   1.166 -0.5165  0.7730 -0.3160
  357MOL0    Cl48104   7.199  -1.888   1.142  0.2369  0.2021  0.1460
  357MOL0     C48105   6.160  -1.379   0.944 -0.5302 -0.1912 -0.8092
  357MOL0     C48106   6.067  -1.279   0.912 -0.3962  1.1213  0.5781
  357MOL0     O48107   5.917  -0.990   0.934 -0.6265 -0.0512 -0.0395
  357MOL0     C48108   5.622  -1.076   0.747 -0.8239  0.6311 -0.7187
  357MOL0     C48109   5.528  -1.021   0.665 -0.0099  0.3285 -0.7651
  357MOL0     N48110   4.795  -0.965   0.489  0.1211  0.1019 -0.6461
  357MOL0     N48111   4.672  -0.940   0.491  0.9924  0.1581 -0.0434
  357MOL0     C48112   3.992   0.091   0.660  0.1472  0.5140  0.3119
  357MOL0     C48113   3.864   0.141   0.623 -0.2300 -0.2553 -0.4610
  357MOL0     C48114   3.444   0.273   0.672  1.1757 -0.1831  0.0309
  357MOL0     C48115   3.443   0.320   0.536 -0.6776  0.1213 -0.9455
  357MOL0     C48116   3.333   0.388   0.488  0.9390 -0.0891 -0.4204
  357MOL0     C48117   3.217   0.419   0.567  0.7487  0.6002  0.0003
  357MOL0     O48118   3.103   0.490   0.525 -0.2434 -0.2220 -0.3642
  357MOL0     C48119   3.131   0.568   0.413  1.1283 -0.4793  0.5222
  357MOL0     C48120   3.006   0.650   0.382  0.5653 -0.2442 -0.3865
  357MOL0     C48121   2.924   0.581   0.280 -0.2342  0.2064  0.1995
  357MOL0     C48122   2.801   0.665   0.234  0.1535 -0.0522 -0.1279
  357MOL0     C48123   2.711   0.661   0.352 -0.4280  0.1616  0.5773
  357MOL0     C48124   2.648   0.676   0.454 -0.8542 -0.1871 -0.0655
  357MOL0     C48125   3.218   0.371   0.694  0.2444 -0.3501 -0.1355
  357MOL0     C48126   3.324   0.298   0.754  0.5514 -0.3704  0.6575
  357MOL0     C48127   3.325   0.253   0.901  0.2064 -0.1815  0.3619
  357MOL0     H48128   3.837   0.395   0.847 -1.1825  0.9006 -1.4222
  357MOL0     H48129   4.057   0.316   0.911  2.1994  0.5928 -2.5091
  357MOL0     H48130   4.236   0.049   0.603 -0.5962  1.1352  0.1603
  357MOL0     H48131   4.371   0.033   0.712  0.0292 -1.5208  4.1778
  357MOL0     H48132   4.129  -0.135   0.741 -0.3456  1.6909  1.0947
  357MOL0     H48133   4.274  -0.123   0.848  1.4575  2.3545 -0.7870
  357MOL0     H48134   4.431  -0.172   0.667  0.6169 -1.7461  2.0380
  357MOL0     H48135   4.288  -0.204   0.558 -1.5909 -3.4205  0.1596
  357MOL0     H48136   4.340  -0.357   0.799  3.1772 -0.9824 -1.6348
  357MOL0     H48137   4.204  -0.380   0.684 -0.5255 -3.4184  3.6856
  357MOL0     H48138   4.390  -0.426   0.509  1.8224 -0.1063  0.1640
  357MOL0     H48139   4.512  -0.423   0.632  0.5130 -1.6732  1.2616
  357MOL0     H48140   4.393  -0.575   0.766 -0.9300  1.9164 -0.8483
  357MOL0     H48141   4.289  -0.619   0.621 -0.6425 -2.6492  1.2998
  357MOL0     H48142   4.599  -0.645   0.642  0.0984  1.1917 -1.8237
  357MOL0     H48143   4.514  -0.676   0.503  2.2221  0.7684  0.2480
  357MOL0     H48144   4.471  -0.849   0.750 -1.0237 -0.4948 -0.6389
  357MOL0     H48145   4.426  -0.868   0.577  0.0090  1.2675 -1.1834
  357MOL0     H48146   4.730  -0.880   0.799 -2.2816  1.7395  0.2414
  357MOL0     H48147   5.002  -0.890   0.718  1.7202  0.4908 -1.5370
  357MOL0     H48148   4.984  -1.069   0.727 -1.0966  0.0889  0.1882
  357MOL0     H48149   5.065  -1.064   0.468  0.7190 -1.2428  0.8313
  357MOL0     H48150   5.057  -0.889   0.491  2.4972 -0.1397 -1.2660
  357MOL0     H48151   5.246  -1.072   0.627  1.6624  0.2266  0.2168
  357MOL0     H48152   5.219  -0.914   0.691  2.4735  2.0600 -0.5104
  357MOL0     H48153   5.279  -0.853   0.424  2.4465  4.6596  2.7258
  357MOL0     H48154   5.380  -1.006   0.455  0.3748 -0.8786 -0.1347
  357MOL0     H48155   5.613  -0.693   0.685  0.2419 -1.3418 -2.0136
  357MOL0     H48156   5.789  -0.793   0.835 -2.9723 -0.9864  5.8013
  357MOL0     H48157   5.777  -1.462   0.950  0.3371 -2.8746 -3.1148
  357MOL0     H48158   5.954  -1.639   0.999  0.3655 -0.0244 -0.5439
  357MOL0     H48159   6.134  -1.593   1.186 -1.2705 -2.1274 -0.9969
  357MOL0     H48160   6.205  -1.744   1.126 -0.6270  0.4132  2.7734
  357MOL0     H48161   6.342  -1.473   1.190 -4.1815  0.2127 -1.6833
  357MOL0     H48162   6.315  -1.593   1.312  3.5295  2.5947  1.0364
  357MOL0     H48163   6.443  -1.762   1.216  1.9586  1.3424  2.2177
  357MOL0     H48164   6.432  -1.681   1.057 -1.4593  3.0322 -0.4017
  357MOL0     H48165   6.614  -1.600   1.291  2.4406  1.8286  0.2963
  357MOL0     H48166   6.623  -1.527   1.127  3.0829 -0.3955  1.1948
  357MOL0     H48167   6.687  -1.747   1.051  1.1307  1.6951 -0.6963
  357MOL0     H48168   6.685  -1.815   1.217  0.9616  0.4876  0.4727
  357MOL0     H48169   6.880  -1.595   1.113 -0.9745 -0.5130  0.1992
  357MOL0     H48170   6.850  -1.629   1.275 -0.9491 -1.0357 -0.3544
  357MOL0     H48171   6.904  -1.836   1.060 -1.7964  0.8896  0.8527
  357MOL0     H48172   6.929  -1.869   1.229 -2.4588  0.7514  0.0387
  357MOL0     H48173   7.105  -1.671   1.095 -2.7907  1.3781 -0.2121
  357MOL0     H48174   7.120  -1.702   1.258  0.4625 -3.3298  1.8427
  357MOL0     H48175   6.265  -1.355   0.952 -0.5615 -0.4813  1.1673
  357MOL0     H48176   6.097  -1.176   0.899 -1.3926  1.2117 -1.2708
  357MOL0     H48177   5.624  -1.184   0.759  1.6113  0.3903 -2.4647
  357MOL0     H48178   5.454  -1.096   0.637  0.6839 -1.2346  1.2869
  357MOL0     H48179   4.029   0.006   0.604  0.1620  1.1178 -0.6288
  357MOL0     H48180   3.804   0.097   0.544 -2.2562 -0.7588  1.2660
  357MOL0     H48181   3.526   0.303   0.469 -1.8601  1.1913 -2.7412
  357MOL0     H48182   3.334   0.433   0.390 -3.1401  2.2170  0.3449
  357MOL0     H48183   3.148   0.507   0.323  0.2884  2.5751 -1.9075
  357MOL0     H48184   3.211   0.640   0.431 -0.2783  1.4150 -0.3668
  357MOL0     H48185   3.037   0.746   0.339 -1.2916  0.9464  0.7909
  357MOL0     H48186   2.947   0.670   0.471  4.7754  0.8514  2.4492
  357MOL0     H48187   2.880   0.488   0.316 -3.0168  1.3705  0.0240
  357MOL0     H48188   2.983   0.554   0.192 -1.2158 -2.3594  0.2460
  357MOL0     H48189   2.834   0.769   0.227 -2.1451  0.7247 -0.1004
  357MOL0     H48190   2.757   0.631   0.140  1.2131 -1.8488 -0.0339
  357MOL0     H48191   2.589   0.689   0.543  1.4817 -2.8687  2.0248
  357MOL0     H48192   3.127   0.389   0.750 -0.3217 -0.7212 -0.9156
  357MOL0     H48193   3.320   0.144   0.906 -1.6174 -0.2685 -1.7353
  357MOL0     H48194   3.426   0.282   0.930  0.4509 -1.3256  0.6933
  357MOL0     H48195   3.253   0.306   0.965  1.0866 -0.4252  1.5806
  358MOL0     O48196   4.207   2.172   2.473 -0.3405 -0.0333  0.0777
  358MOL0     C48197   4.180   2.071   2.400 -0.8568 -0.8995 -0.7669
  358MOL0     O48198   4.269   2.009   2.318 -0.6421 -0.9525  0.5275
  358MOL0     C48199   4.404   2.020   2.320 -0.8580  0.0751 -0.1659
  358MOL0     C48200   4.472   1.903   2.347 -0.7721 -0.2490 -0.1011
  358MOL0     C48201   4.614   1.896   2.366  0.1254 -0.3109  0.1277
  358MOL0     C48202   4.684   2.021   2.375 -0.1077  0.9661  0.3054
  358MOL0     O48203   4.819   2.028   2.415  0.2658 -0.4325 -0.9420
  358MOL0     C48204   4.913   1.998   2.306  0.1024  0.5971 -0.3958
  358MOL0     C48205   5.043   1.944   2.371  0.5181  0.0395 -0.4423
  358MOL0     C48206   5.161   1.952   2.277  0.7709 -0.0927 -0.0858
  358MOL0     C48207   5.255   1.857   2.328 -0.8598 -0.0808 -0.5409
  358MOL0     C48208   5.393   1.891   2.259 -0.0059  0.0394  0.7603
  358MOL0     C48209   5.500   1.784   2.287  0.5454  0.3108  0.0887
  358MOL0     C48210   5.639   1.851   2.268 -0.3353 -0.5071  0.3073
  358MOL0     C48211   5.665   1.886   2.122  0.6309  0.3038 -0.1320
  358MOL0     N48212   5.794   1.955   2.125 -1.4767 -0.0303  0.0696
  358MOL0     C48213   5.916   1.916   2.074 -1.0594  0.4458  0.4140
  358MOL0     C48214   5.999   2.024   2.082 -0.4737 -0.0681  0.3961
  358MOL0     C48215   6.152   2.038   2.045  0.4172 -0.0350  0.6411
  358MOL0     C48216   6.199   2.187   2.070  0.4273  0.9054  0.6545
  358MOL0     C48217   6.349   2.205   2.045 -0.0225  0.1026  1.0087
  358MOL0     C48218   6.394   2.360   2.044  0.8603 -0.5596  0.1360
  358MOL0     O48219   6.431   2.392   2.183  0.3680 -0.4040 -0.0319
  358MOL0     C48220   6.562   2.408   2.209 -0.2713  0.5888  0.0056
  358MOL0     C48221   6.605   2.512   2.296  0.1294  0.0284  0.1526
  358MOL0     C48222   6.735   2.551   2.321 -0.0514 -0.0251 -0.0627
  358MOL0     C48223   6.836   2.492   2.250 -0.0211 -1.0070 -0.6100
  358MOL0     C48224   6.979   2.543   2.252 -0.3631 -0.0450  0.5136
  358MOL0     O48225   7.085   2.441   2.225 -0.5695  0.5120  0.4831
  358MOL0     C48226   7.208   2.498   2.210 -0.7309 -0.2558  0.7025
  358MOL0     C48227   7.240   2.553   2.086  0.0162  0.2046 -0.0681
  358MOL0     C48228   7.366   2.599   2.063  0.4966  0.3382  0.6336
  358MOL0     C48229   7.459   2.617   2.168 -0.4548 -0.4911 -0.0681
  358MOL0     O48230   7.576   2.686   2.161  0.4495  0.8729 -0.0749
  358MOL0     C48231   7.613   2.780   2.054 -0.3864 -0.1937 -0.1198
  358MOL0     C48232   7.695   2.706   1.938  0.9909  0.6800 -0.0797
  358MOL0     C48233   7.756   2.817   1.849  0.4993 -0.4974 -0.0312
  358MOL0     C48234   7.898   2.832   1.899 -0.9078  0.4902  0.4028
  358MOL0     C48235   7.975   2.931   1.803  0.3769  0.6022  0.3290
  358MOL0     C48236   8.121   2.931   1.863 -0.4953  0.8227  0.6690
  358MOL0     C48237   8.225   2.975   1.764 -0.5346 -0.7661 -0.4294
  358MOL0     C48238   8.366   2.987   1.812 -0.8257  0.5209 -0.1112
  358MOL0    Cl48239   8.378   3.118   1.919  0.2243  0.1700  0.1403
  358MOL0     C48240   7.424   2.566   2.293 -0.2725 -0.0341 -0.1413
  358MOL0     C48241   7.297   2.503   2.319 -0.0340  1.0707  0.4694
  358MOL0     O48242   6.990   2.660   2.283 -1.0601 -0.0491  0.6314
  358MOL0     C48243   6.807   2.386   2.158  0.4707 -0.0625  0.9165
  358MOL0     C48244   6.669   2.344   2.144 -0.2049 -0.6715  0.3324
  358MOL0     N48245   5.921   2.132   2.114 -0.7570 -0.5134  0.3871
  358MOL0     N48246   5.801   2.093   2.145 -0.6885  0.2119  0.2616
  358MOL0     C48247   4.613   2.137   2.351  1.0024  0.0583  0.5654
  358MOL0     C48248   4.473   2.136   2.311 -0.1982 -0.3656 -0.1670
  358MOL0     C48249   4.043   2.029   2.397  0.1987  0.5819 -0.4842
  358MOL0     C48250   4.024   1.894   2.446 -0.4371  0.4297  0.0935
  358MOL0     C48251   3.900   1.829   2.422  0.4766  0.2848  0.0731
  358MOL0     C48252   3.789   1.895   2.366  0.1293  0.0702  0.1490
  358MOL0     O48253   3.655   1.854   2.357 -0.1735 -0.6013 -0.5098
  358MOL0     C48254   3.632   1.716   2.336  0.3771  0.7316  0.1113
  358MOL0     C48255   3.497   1.701   2.262  0.1027  0.5743  0.1998
  358MOL0     C48256   3.379   1.730   2.353  0.0413  0.4255 -0.6239
  358MOL0     C48257   3.245   1.697   2.295 -0.6581 -1.2327 -0.0070
  358MOL0     C48258   3.198   1.574   2.354 -0.6818  1.0173  0.1147
  358MOL0     C48259   3.180   1.482   2.425  0.5514  0.1459 -0.3057
  358MOL0     C48260   3.811   2.024   2.328  1.3714  0.5546  0.3975
  358MOL0     C48261   3.929   2.091   2.350 -0.2505  0.1443  0.0572
  358MOL0     C48262   3.948   2.234   2.294  0.5983  0.3150 -0.0964
  358MOL0     H48263   4.412   1.816   2.373  0.4666 -0.9145  0.6602
  358MOL0     H48264   4.653   1.795   2.367  1.7628  0.2968  0.2611
  358MOL0     H48265   4.875   1.912   2.251  0.9167  0.2568 -0.4508
  358MOL0     H48266   4.927   2.092   2.252 -3.0888  2.2592  1.3749
  358MOL0     H48267   5.026   1.839   2.395  1.0551 -0.2914 -1.4922
  358MOL0     H48268   5.061   2.001   2.463  3.1606  1.0362 -1.4715
  358MOL0     H48269   5.199   2.054   2.265 -3.2471  1.3678 -2.5425
  358MOL0     H48270   5.124   1.920   2.179 -0.1024  0.8948 -0.0907
  358MOL0     H48271   5.279   1.869   2.434 -0.7801 -1.7238 -0.3478
  358MOL0     H48272   5.223   1.754   2.307  0.1472 -0.5130 -0.0203
  358MOL0     H48273   5.375   1.891   2.151 -2.4522  0.1254  1.1215
  358MOL0     H48274   5.438   1.987   2.286 -0.8098  0.6394  0.0223
  358MOL0     H48275   5.492   1.752   2.391 -1.5884  1.6669  0.4124
  358MOL0     H48276   5.487   1.699   2.220  1.7806 -1.2019  1.6766
  358MOL0     H48277   5.703   1.767   2.293 -1.2795 -1.8514 -1.5894
  358MOL0     H48278   5.656   1.930   2.342  0.6065 -2.2622  2.0453
  358MOL0     H48279   5.672   1.799   2.057  0.6057  0.2943 -0.1221
  358MOL0     H48280   5.597   1.960   2.080  2.7319  2.2719 -0.2875
  358MOL0     H48281   5.955   1.817   2.051  0.8708  1.6984 -2.2214
  358MOL0     H48282   6.207   1.970   2.109 -2.2922 -2.0662  0.9710
  358MOL0     H48283   6.170   2.005   1.942 -0.5651 -0.0240  0.4598
  358MOL0     H48284   6.144   2.251   2.000 -2.4506  1.9298  3.5897
  358MOL0     H48285   6.161   2.225   2.165 -4.0377  1.3412 -1.0785
  358MOL0     H48286   6.385   2.160   1.953 -2.7785  1.2748 -0.7723
  358MOL0     H48287   6.401   2.167   2.134  1.5922  1.3397  0.6538
  358MOL0     H48288   6.317   2.419   1.993 -0.6888 -2.7792 -0.2834
  358MOL0     H48289   6.483   2.368   1.981  0.0769 -1.7344 -1.2061
  358MOL0     H48290   6.525   2.570   2.341 -1.1085 -1.3241 -0.2103
  358MOL0     H48291   6.759   2.630   2.392 -0.1655 -0.3497  0.3339
  358MOL0     H48292   7.158   2.545   2.015 -0.4120 -2.2193  0.5886
  358MOL0     H48293   7.400   2.641   1.969 -0.0671  0.5179  0.5069
  358MOL0     H48294   7.519   2.827   2.023  0.4537  0.9818 -0.9609
  358MOL0     H48295   7.670   2.849   2.116 -0.9615 -1.0525  1.4386
  358MOL0     H48296   7.766   2.636   1.983  1.7288  0.0642 -2.1279
  358MOL0     H48297   7.621   2.664   1.869  1.0432  0.1354  0.1928
  358MOL0     H48298   7.750   2.785   1.744  2.8850  0.7787 -0.6322
  358MOL0     H48299   7.707   2.913   1.862  0.3508 -0.7703  1.7218
  358MOL0     H48300   7.952   2.738   1.883  0.2712  1.2429 -0.1316
  358MOL0     H48301   7.900   2.871   2.000 -1.8059 -0.6192  0.8791
  358MOL0     H48302   7.933   3.032   1.809 -0.5805  0.2726 -0.5572
  358MOL0     H48303   7.977   2.901   1.698 -0.4535 -1.1441  0.7704
  358MOL0     H48304   8.126   2.999   1.948  0.3739  0.4886  0.8968
  358MOL0     H48305   8.140   2.832   1.907 -3.0234 -0.3807 -0.6794
  358MOL0     H48306   8.190   3.075   1.739 -1.1856  0.3809  4.1051
  358MOL0     H48307   8.218   2.903   1.682 -0.2035 -0.1304 -1.0199
  358MOL0     H48308   8.407   2.887   1.832 -0.4321  0.7729  0.3406
  358MOL0     H48309   8.417   3.023   1.722  2.3016  0.8147  1.6382
  358MOL0     H48310   7.506   2.563   2.364  2.0020 -3.2840 -2.6102
  358MOL0     H48311   7.293   2.447   2.412 -0.0828 -1.7586 -1.1361
  358MOL0     H48312   6.886   2.334   2.105 -0.9979 -0.3319 -1.1361
  358MOL0     H48313   6.658   2.271   2.064  1.9965 -0.0791 -0.6123
  358MOL0     H48314   4.675   2.225   2.336 -0.4782  1.1470  0.5925
  358MOL0     H48315   4.420   2.228   2.292 -0.6880 -0.4110  0.9274
  358MOL0     H48316   4.115   1.846   2.479  0.3951  2.1916  0.4391
  358MOL0     H48317   3.883   1.729   2.460  3.5084  0.0243  1.0510
  358MOL0     H48318   3.624   1.660   2.430  0.8745  2.8439  1.4742
  358MOL0     H48319   3.704   1.673   2.265  3.2606  0.8175  2.7992
  358MOL0     H48320   3.504   1.593   2.241 -2.0197  0.6343 -1.0642
  358MOL0     H48321   3.500   1.748   2.163 -2.3865 -1.4350 -0.9445
  358MOL0     H48322   3.374   1.838   2.370  2.1764  0.9325 -2.7115
  358MOL0     H48323   3.387   1.689   2.454 -1.5642 -0.2494 -0.7314
  358MOL0     H48324   3.178   1.781   2.314 -1.0195 -1.0415 -1.9110
  358MOL0     H48325   3.260   1.682   2.188  0.9797  2.3522 -0.4226
  358MOL0     H48326   3.170   1.402   2.495  0.6189  2.1664  2.1462
  358MOL0     H48327   3.737   2.096   2.293  3.9748  3.3526  0.1979
  358MOL0     H48328   3.852   2.288   2.293 -0.2308 -1.0341 -2.7894
  358MOL0     H48329   4.022   2.288   2.353 -1.3407  0.2551  2.5529
  358MOL0     H48330   3.965   2.234   2.186 -2.0190 -2.3869 -0.6583
  359MOL0     O48331   8.258   9.347   7.409 -0.0057 -0.0852 -0.2908
  359MOL0     C48332   8.166   9.330   7.489 -0.6435  0.1533 -0.9002
  359MOL0     O48333   8.098   9.432   7.548  0.5753 -0.2731  0.5365
  359MOL0     C48334   8.151   9.554   7.537  0.8430 -0.1672 -0.0837
  359MOL0     C48335   8.288   9.581   7.542 -0.1697  0.1171  0.6532
  359MOL0     C48336   8.335   9.709   7.521  0.5257  0.1940 -0.7978
  359MOL0     C48337   8.249   9.814   7.499  0.7147 -1.4137  0.3901
  359MOL0     O48338   8.316   9.941   7.501  0.8053  0.0186  0.0599
  359MOL0     C48339   8.244  10.057   7.565  0.7063 -1.2419 -0.0685
  359MOL0     C48340   8.287  10.195   7.502  0.2848  0.0188 -0.7041
  359MOL0     C48341   8.425  10.233   7.519 -0.9334  0.2549 -0.0200
  359MOL0     C48342   8.461  10.245   7.675  1.0924 -0.1422 -0.8493
  359MOL0     C48343   8.590  10.324   7.696 -0.3428 -0.0953  0.1119
  359MOL0     C48344   8.700  10.261   7.615 -0.1646  0.4885 -0.7148
  359MOL0     C48345   8.832  10.289   7.679 -0.3836  0.0848 -0.5697
  359MOL0     C48346   8.950  10.237   7.599 -0.5250 -0.1816  0.4614
  359MOL0     N48347   9.072  10.250   7.666 -0.2281 -0.3651  0.5205
  359MOL0     C48348   9.182  10.326   7.645 -0.7846  0.8904 -0.0491
  359MOL0     C48349   9.276  10.288   7.737  0.7147 -0.2114  0.9222
  359MOL0     C48350   9.411  10.338   7.753 -0.2029  0.5496 -0.3023
  359MOL0     C48351   9.522  10.242   7.748 -0.7627  0.2044  0.8072
  359MOL0     C48352   9.656  10.307   7.769 -1.0892 -0.7411 -0.1348
  359MOL0     C48353   9.758  10.207   7.820  0.2101 -0.0545 -0.3410
  359MOL0     O48354   9.798  10.119   7.720  0.3435 -0.5144 -0.4523
  359MOL0     C48355   9.915  10.047   7.746  0.2556  0.5434  0.5256
  359MOL0     C48356   9.968  10.016   7.869  0.2027  0.1262 -0.7638
  359MOL0     C48357  10.085   9.942   7.882  0.5279 -0.1213 -0.2970
  359MOL0     C48358  10.156   9.906   7.767  0.3675  0.5764 -0.8742
  359MOL0     C48359  10.282   9.833   7.774 -0.4952  0.1759 -0.3428
  359MOL0     O48360  10.335   9.810   7.902  0.1855 -0.1273  0.1423
  359MOL0     C48361  10.457   9.745   7.910 -0.0447  1.2826  0.1860
  359MOL0     C48362  10.463   9.608   7.943 -0.5667  0.6027  0.6267
  359MOL0     C48363  10.586   9.545   7.952  0.4583  0.3156 -0.3525
  359MOL0     C48364  10.706   9.616   7.929 -0.4197  0.8245 -0.6033
  359MOL0     O48365  10.830   9.557   7.940  0.1520 -0.2932  0.2048
  359MOL0     C48366  10.842   9.416   7.922 -0.4277  0.2755  0.5787
  359MOL0     C48367  10.981   9.372   7.878 -0.2258  0.8118 -0.6282
  359MOL0     C48368  10.979   9.216   7.841 -0.3100 -0.4398 -0.0671
  359MOL0     C48369  11.103   9.155   7.898  0.0125 -0.1745 -0.5469
  359MOL0     C48370  11.143   9.025   7.819  0.6388 -0.2353  0.5241
  359MOL0     C48371  11.265   8.962   7.881  0.4405 -0.5283  0.6058
  359MOL0     C48372  11.313   8.853   7.787  0.3539  0.0333 -0.0913
  359MOL0     C48373  11.214   8.734   7.765 -0.5600 -0.2311  0.1393
  359MOL0    Cl48374  11.295   8.605   7.669 -0.0602  0.0155  0.3133
  359MOL0     C48375  10.702   9.752   7.899 -0.6737  0.3773  0.0935
  359MOL0     C48376  10.578   9.821   7.912 -0.3364  0.4006 -0.3192
  359MOL0     O48377  10.331   9.793   7.667  0.7263  0.1899  0.1853
  359MOL0     C48378  10.104   9.938   7.644 -0.0955 -0.5562 -0.6629
  359MOL0     C48379   9.982  10.012   7.632 -1.1078  0.3829  1.0784
  359MOL0     N48380   9.222  10.190   7.819  0.3764  0.9111 -0.5270
  359MOL0     N48381   9.099  10.177   7.776 -0.1447  1.1377 -1.0492
  359MOL0     C48382   8.113   9.796   7.490 -0.9253  0.4159  0.5639
  359MOL0     C48383   8.070   9.663   7.511  0.3631 -1.2153 -0.1373
  359MOL0     C48384   8.119   9.193   7.517 -0.2830  0.3682  0.0010
  359MOL0     C48385   8.085   9.166   7.653 -0.0820 -0.6240  0.2051
  359MOL0     C48386   8.014   9.056   7.692 -0.4018 -0.2684  0.0341
  359MOL0     C48387   7.982   8.957   7.599 -0.3051  0.1741  0.1246
  359MOL0     O48388   7.905   8.842   7.626 -0.1346 -0.4862  0.2038
  359MOL0     C48389   7.856   8.814   7.757 -0.6687  0.0206 -0.3992
  359MOL0     C48390   7.743   8.711   7.752  0.8359 -0.1175  0.4756
  359MOL0     C48391   7.617   8.763   7.674  0.7357 -0.0703  0.2888
  359MOL0     C48392   7.494   8.757   7.767 -1.1063  0.0025  0.1936
  359MOL0     C48393   7.376   8.779   7.681  0.2235  0.1198 -0.1332
  359MOL0     C48394   7.280   8.795   7.608  0.0142  0.3762 -0.5383
  359MOL0     C48395   8.016   8.985   7.461 -0.1477 -0.0130  0.2529
  359MOL0     C48396   8.081   9.102   7.421 -0.9830  0.2215 -0.1891
  359MOL0     C48397   8.097   9.134   7.274  0.6281 -0.3631  0.3859
  359MOL0     H48398   8.359   9.505   7.572 -0.2279  0.0893  0.7220
  359MOL0     H48399   8.438   9.735   7.546 -0.2460  0.0334  3.3817
  359MOL0     H48400   8.138  10.043   7.543 -0.1203  2.9813  0.2961
  359MOL0     H48401   8.253  10.055   7.674  0.1589  1.2744  0.0835
  359MOL0     H48402   8.217  10.273   7.533  0.6340  0.8452 -1.9071
  359MOL0     H48403   8.264  10.194   7.395 -0.3709  0.3727 -0.5705
  359MOL0     H48404   8.449  10.330   7.474 -0.1862  0.9797  1.8353
  359MOL0     H48405   8.487  10.158   7.469 -1.4857  0.7098 -1.4452
  359MOL0     H48406   8.379  10.291   7.730 -0.2985 -0.8936 -2.2123
  359MOL0     H48407   8.462  10.141   7.710 -0.8257  0.1519  0.2293
  359MOL0     H48408   8.574  10.431   7.684  1.7862  0.4321  1.4584
  359MOL0     H48409   8.616  10.311   7.801 -1.1140  0.4948  0.3832
  359MOL0     H48410   8.694  10.153   7.597  2.4293  0.2685 -0.5486
  359MOL0     H48411   8.705  10.309   7.517  1.4395 -0.5867 -1.1936
  359MOL0     H48412   8.842  10.255   7.783  0.7437 -0.7499 -0.9360
  359MOL0     H48413   8.827  10.397   7.697  0.3698 -0.3016  2.5037
  359MOL0     H48414   8.940  10.129   7.590  2.7064 -0.6592  1.2098
  359MOL0     H48415   8.956  10.290   7.503  1.7401  5.0354  3.0852
  359MOL0     H48416   9.191  10.390   7.558 -0.0143  0.3022 -0.4097
  359MOL0     H48417   9.428  10.420   7.682 -0.3563  0.8923  0.0552
  359MOL0     H48418   9.407  10.399   7.844 -0.0143  0.0314  0.0567
  359MOL0     H48419   9.517  10.158   7.818 -1.1531  0.8121  1.5198
  359MOL0     H48420   9.527  10.191   7.651  0.9231 -0.5461  1.2489
  359MOL0     H48421   9.641  10.390   7.839 -1.1796 -1.1151  0.2954
  359MOL0     H48422   9.688  10.352   7.675  1.4301  2.3430  1.9772
  359MOL0     H48423   9.729  10.141   7.902  0.0503 -1.4467 -1.4600
  359MOL0     H48424   9.852  10.255   7.847 -0.0942 -0.1604  0.9508
  359MOL0     H48425   9.921  10.048   7.961 -1.8831  1.1119 -2.0708
  359MOL0     H48426  10.132   9.923   7.978 -1.0814 -2.9622  0.0138
  359MOL0     H48427  10.369   9.557   7.960 -0.8641  1.2291  0.9094
  359MOL0     H48428  10.588   9.442   7.986 -0.6595  0.4398  0.1542
  359MOL0     H48429  10.812   9.363   8.012  1.0295  0.0721  0.9841
  359MOL0     H48430  10.787   9.388   7.832 -1.5241  1.0192  1.0006
  359MOL0     H48431  11.016   9.421   7.787 -0.8719 -1.2385 -2.0310
  359MOL0     H48432  11.039   9.398   7.967 -1.6216  1.3304  0.1648
  359MOL0     H48433  10.890   9.177   7.892  0.5449 -2.6380 -0.1697
  359MOL0     H48434  10.972   9.194   7.734  2.1920  3.1827 -1.1763
  359MOL0     H48435  11.093   9.138   8.006 -0.1582 -0.4151 -0.6006
  359MOL0     H48436  11.180   9.233   7.897  0.5794 -0.6663  1.1492
  359MOL0     H48437  11.154   9.044   7.711  1.9719 -1.2236  0.4609
  359MOL0     H48438  11.056   8.961   7.834  1.1780 -0.8105  1.2943
  359MOL0     H48439  11.344   9.035   7.901 -0.0195 -0.3138  1.7057
  359MOL0     H48440  11.229   8.914   7.972 -0.9407 -0.4128  0.1475
  359MOL0     H48441  11.406   8.811   7.825 -0.0077 -0.2404  0.5101
  359MOL0     H48442  11.336   8.892   7.688 -1.4386  1.7537  0.1092
  359MOL0     H48443  11.186   8.695   7.863 -1.3840  2.7811  1.2336
  359MOL0     H48444  11.123   8.764   7.713 -0.8450  1.7933  1.6542
  359MOL0     H48445  10.796   9.802   7.880 -0.2174  0.4319  2.2019
  359MOL0     H48446  10.574   9.929   7.920  0.1713  0.4576 -0.7962
  359MOL0     H48447  10.167   9.918   7.558 -1.9866 -1.1450 -1.9748
  359MOL0     H48448   9.947  10.062   7.542  1.0533  1.9498  1.0234
  359MOL0     H48449   8.039   9.875   7.476 -1.1984  0.0234 -0.2752
  359MOL0     H48450   7.962   9.653   7.505  0.1909 -1.0077  1.8395
  359MOL0     H48451   8.106   9.235   7.734 -1.8062  1.9848 -1.4030
  359MOL0     H48452   7.982   9.035   7.794  1.8203 -0.4677  0.7542
  359MOL0     H48453   7.805   8.900   7.803  0.5537 -0.1959  1.5089
  359MOL0     H48454   7.932   8.789   7.832 -1.1677  5.1228  2.2822
  359MOL0     H48455   7.720   8.678   7.854  1.6853 -0.9011  0.4266
  359MOL0     H48456   7.789   8.621   7.709  1.2894  0.2230  0.2411
  359MOL0     H48457   7.598   8.695   7.591 -0.6565 -2.3154  2.3245
  359MOL0     H48458   7.629   8.867   7.640 -1.4404  0.6804  1.6095
  359MOL0     H48459   7.495   8.659   7.816  0.0236  0.0474  0.2847
  359MOL0     H48460   7.512   8.831   7.847 -4.3590  0.3585  0.7184
  359MOL0     H48461   7.189   8.810   7.553  1.0126  1.3789 -1.9933
  359MOL0     H48462   7.975   8.915   7.389  2.1725  0.2934 -1.4715
  359MOL0     H48463   8.029   9.069   7.218 -1.0721  0.6545  1.1865
  359MOL0     H48464   8.068   9.236   7.247  1.1822 -0.4547 -0.6303
  359MOL0     H48465   8.202   9.132   7.244  0.1863  0.1246 -1.3103
  360MOL0     O48466  10.366   2.125   1.103  0.6083 -0.2382 -0.1997
  360MOL0     C48467  10.324   2.050   1.189 -0.8661 -0.6988  0.9085
  360MOL0     O48468  10.407   1.994   1.288  0.5522  0.3221 -0.2906
  360MOL0     C48469  10.524   2.052   1.307  0.0652  0.0956 -0.2484
  360MOL0     C48470  10.642   1.971   1.289 -0.0381  0.5775  0.0326
  360MOL0     C48471  10.767   2.024   1.310  0.4969  0.9452 -0.2272
  360MOL0     C48472  10.777   2.157   1.346  0.1036  0.0213 -0.0046
  360MOL0     O48473  10.904   2.202   1.355 -0.4350  0.6239 -0.4998
  360MOL0     C48474  10.943   2.332   1.398  0.3175  0.5337 -0.1119
  360MOL0     C48475  11.095   2.348   1.375  0.3505 -0.5518 -0.9129
  360MOL0     C48476  11.161   2.479   1.421 -0.1910  0.3536  1.0184
  360MOL0     C48477  11.306   2.479   1.373  0.0214 -1.0960  0.2136
  360MOL0     C48478  11.315   2.522   1.228 -0.4058  0.6349 -0.8400
  360MOL0     C48479  11.462   2.496   1.172 -0.0906  0.2882 -0.6304
  360MOL0     C48480  11.550   2.615   1.203 -0.1591  0.1054 -0.6432
  360MOL0     C48481  11.699   2.577   1.219  0.7697 -0.4974 -1.4352
  360MOL0     N48482  11.751   2.531   1.089  0.3730 -0.7663  0.4543
  360MOL0     C48483  11.837   2.423   1.071 -0.6558 -0.1392 -0.4831
  360MOL0     C48484  11.874   2.443   0.945 -0.2310 -0.3980  0.8281
  360MOL0     C48485  11.966   2.342   0.859 -0.1439 -0.2268  0.0928
  360MOL0     C48486  12.119   2.384   0.878  0.4197  0.7302  0.1022
  360MOL0     C48487  12.198   2.307   0.774 -0.1666  0.1392 -0.4540
  360MOL0     C48488  12.337   2.379   0.760 -0.3015  0.1831  0.5776
  360MOL0     O48489  12.327   2.479   0.655  0.0620  0.1663 -0.6809
  360MOL0     C48490  12.428   2.571   0.653  0.2945 -0.2635  0.0002
  360MOL0     C48491  12.409   2.690   0.579  0.3513  0.6344  0.2552
  360MOL0     C48492  12.505   2.789   0.572  0.1111  0.3988 -0.0759
  360MOL0     C48493  12.627   2.772   0.644 -0.3164 -0.1902 -0.6791
  360MOL0     C48494  12.741   2.868   0.638  0.5533  0.4037  0.1485
  360MOL0     O48495  12.720   2.968   0.542  0.8000  0.6565 -0.2956
  360MOL0     C48496  12.802   3.077   0.532 -0.7254 -0.3107  0.3434
  360MOL0     C48497  12.878   3.133   0.638 -0.1190  0.8186  0.9676
  360MOL0     C48498  12.951   3.253   0.612  0.4278 -0.0759 -0.3895
  360MOL0     C48499  12.950   3.315   0.493 -1.2224 -0.5109 -0.7184
  360MOL0     O48500  13.029   3.435   0.484 -0.2646 -0.8669 -0.5934
  360MOL0     C48501  13.079   3.472   0.351 -0.6982 -0.0059 -0.0048
  360MOL0     C48502  13.209   3.550   0.363 -0.2987  0.2666  0.1474
  360MOL0     C48503  13.186   3.687   0.436 -0.7776  0.0210 -0.5424
  360MOL0     C48504  13.325   3.760   0.444  0.3806 -0.0923  0.8837
  360MOL0     C48505  13.318   3.912   0.440 -0.5399 -0.1075 -0.8340
  360MOL0     C48506  13.306   3.969   0.584 -0.3438  0.0640  0.1958
  360MOL0     C48507  13.430   3.933   0.676  0.0992  0.0351 -0.9010
  360MOL0     C48508  13.473   4.052   0.759 -0.2294 -0.5225 -1.0614
  360MOL0    Cl48509  13.600   4.155   0.686  0.3722  0.2017 -0.4539
  360MOL0     C48510  12.877   3.262   0.388  0.5947  0.5576  0.5442
  360MOL0     C48511  12.806   3.144   0.404  0.1875  0.1606  1.5357
  360MOL0     O48512  12.851   2.833   0.684  0.5898 -0.0103  0.1716
  360MOL0     C48513  12.647   2.660   0.720  0.0794  0.2308  0.4750
  360MOL0     C48514  12.546   2.560   0.722 -1.0114  0.7090 -0.2046
  360MOL0     N48515  11.822   2.559   0.887 -0.0007  0.4433 -0.1697
  360MOL0     N48516  11.735   2.603   0.977 -0.5214 -1.1699  0.2424
  360MOL0     C48517  10.663   2.236   1.370  0.2712 -0.0023  0.6361
  360MOL0     C48518  10.535   2.183   1.350 -0.5891 -0.9427  0.8100
  360MOL0     C48519  10.184   2.004   1.190 -0.7875  0.2056  0.2313
  360MOL0     C48520  10.143   1.922   1.297 -0.7377 -0.0153 -0.1266
  360MOL0     C48521  10.015   1.860   1.305 -0.6678 -0.0659  0.0577
  360MOL0     C48522   9.924   1.888   1.212  0.8491  0.0190  0.3578
  360MOL0     O48523   9.795   1.833   1.218 -0.0779  0.1581  0.7040
  360MOL0     C48524   9.760   1.738   1.319 -0.3041 -0.4480  0.3640
  360MOL0     C48525   9.616   1.698   1.292 -1.0185 -0.9184  0.7439
  360MOL0     C48526   9.542   1.603   1.394 -0.7408  0.7213 -0.7715
  360MOL0     C48527   9.429   1.516   1.344 -0.1790 -0.1777 -0.2006
  360MOL0     C48528   9.485   1.399   1.269 -0.4581  0.3554 -0.1634
  360MOL0     C48529   9.540   1.303   1.210 -0.2445 -0.0311 -0.7864
  360MOL0     C48530   9.949   1.983   1.110 -0.5506 -0.0052  0.8198
  360MOL0     C48531  10.085   2.036   1.096  0.4540 -0.5077 -0.1348
  360MOL0     C48532  10.114   2.118   0.970 -0.2681  0.8332 -0.4017
  360MOL0     H48533  10.627   1.866   1.265 -1.1730  0.2193  2.1024
  360MOL0     H48534  10.853   1.958   1.298 -0.0757  0.3136 -0.9582
  360MOL0     H48535  10.881   2.401   1.341  1.1299  1.7221  0.4073
  360MOL0     H48536  10.914   2.349   1.502  1.0462  0.7814  0.0521
  360MOL0     H48537  11.112   2.342   1.267 -1.3945 -1.0431 -1.1951
  360MOL0     H48538  11.139   2.263   1.428 -0.1240 -0.4158 -0.2969
  360MOL0     H48539  11.145   2.479   1.530 -1.6116 -0.0523  0.8223
  360MOL0     H48540  11.100   2.564   1.391 -0.3629 -0.2201 -0.3438
  360MOL0     H48541  11.348   2.553   1.441 -0.6937  1.2505 -1.7807
  360MOL0     H48542  11.352   2.383   1.397  2.6045  0.7193  3.3801
  360MOL0     H48543  11.249   2.462   1.164  0.5710 -1.3543 -0.0784
  360MOL0     H48544  11.290   2.627   1.213  1.1032  1.1439  0.1269
  360MOL0     H48545  11.507   2.401   1.200 -0.4830  0.3892  0.3994
  360MOL0     H48546  11.456   2.477   1.064  0.8919  1.8108 -0.9853
  360MOL0     H48547  11.526   2.661   1.299  3.0678  0.9272 -0.1030
  360MOL0     H48548  11.531   2.701   1.138  0.2643  1.4120  0.8820
  360MOL0     H48549  11.744   2.671   1.252 -3.2256  0.6267  1.6880
  360MOL0     H48550  11.714   2.503   1.298 -0.3159  2.5732  1.9419
  360MOL0     H48551  11.861   2.351   1.149 -0.4033  0.8787  0.3986
  360MOL0     H48552  11.944   2.236   0.874 -0.1668 -0.4465 -1.3144
  360MOL0     H48553  11.943   2.363   0.754  1.5102 -1.4460 -0.5613
  360MOL0     H48554  12.129   2.491   0.856 -0.4350  0.4783 -1.6254
  360MOL0     H48555  12.137   2.365   0.985  1.6693  0.1685 -0.1990
  360MOL0     H48556  12.146   2.288   0.680 -1.2316 -0.7791  0.2865
  360MOL0     H48557  12.214   2.208   0.817 -0.1251 -0.6754 -2.2445
  360MOL0     H48558  12.420   2.311   0.741  0.4098  0.0688  3.5075
  360MOL0     H48559  12.363   2.423   0.857  0.1713  1.4100 -0.0861
  360MOL0     H48560  12.310   2.715   0.543  0.4366  3.8432  1.8382
  360MOL0     H48561  12.480   2.878   0.515  0.1974 -0.3208 -1.2794
  360MOL0     H48562  12.879   3.081   0.733 -0.6326  1.2708  1.2243
  360MOL0     H48563  12.990   3.295   0.704 -1.1784  0.1717  0.2157
  360MOL0     H48564  13.098   3.385   0.287 -0.5977 -1.3262  1.7605
  360MOL0     H48565  13.002   3.533   0.301 -1.1296 -1.0221 -0.6102
  360MOL0     H48566  13.283   3.495   0.424  2.1330  1.2941 -1.7052
  360MOL0     H48567  13.235   3.565   0.258 -2.1824  1.3332 -0.2022
  360MOL0     H48568  13.108   3.745   0.386  0.1928  0.0871 -2.0205
  360MOL0     H48569  13.141   3.685   0.536 -0.4037  0.6829 -0.3579
  360MOL0     H48570  13.384   3.731   0.357 -1.0479  0.0118 -0.1653
  360MOL0     H48571  13.365   3.730   0.541  0.9390 -1.2011  0.3313
  360MOL0     H48572  13.238   3.950   0.375 -2.5742 -0.0628  1.5295
  360MOL0     H48573  13.412   3.941   0.391  0.0618  0.7426  0.7648
  360MOL0     H48574  13.284   4.076   0.580  1.1929  0.3629 -3.1914
  360MOL0     H48575  13.216   3.928   0.630 -0.4125 -1.5785 -1.2941
  360MOL0     H48576  13.513   3.907   0.609  0.7125 -0.7600  0.1334
  360MOL0     H48577  13.402   3.852   0.744  0.5841  1.4232  1.0554
  360MOL0     H48578  13.384   4.108   0.789 -0.2644 -0.6951 -0.8363
  360MOL0     H48579  13.518   4.007   0.849  2.1758 -1.1473 -2.4843
  360MOL0     H48580  12.870   3.319   0.296  3.2728 -1.2243 -0.9137
  360MOL0     H48581  12.743   3.103   0.325  0.6757  0.2333  1.1020
  360MOL0     H48582  12.737   2.653   0.779 -0.3787 -0.3353  1.1280
  360MOL0     H48583  12.574   2.474   0.783  0.0854  0.2499 -1.3144
  360MOL0     H48584  10.684   2.338   1.399  3.0205 -0.5743  0.9025
  360MOL0     H48585  10.455   2.252   1.377 -0.3062 -0.7810  1.2448
  360MOL0     H48586  10.213   1.903   1.378  0.3553 -1.8477 -1.4165
  360MOL0     H48587  10.000   1.780   1.378 -0.9427 -1.1325 -1.1194
  360MOL0     H48588   9.780   1.776   1.419  0.2743 -1.3907  0.6244
  360MOL0     H48589   9.823   1.650   1.305 -0.7707 -0.6918 -0.2882
  360MOL0     H48590   9.597   1.653   1.194 -1.1549  1.7181 -0.5083
  360MOL0     H48591   9.556   1.789   1.293 -0.0514 -0.2296 -0.6194
  360MOL0     H48592   9.514   1.669   1.476  1.1219  1.7676 -0.9179
  360MOL0     H48593   9.628   1.538   1.414 -1.9302 -0.5670  0.3157
  360MOL0     H48594   9.373   1.474   1.428 -1.7447  1.0490 -0.5995
  360MOL0     H48595   9.370   1.577   1.276  1.0941  0.1652 -1.0378
  360MOL0     H48596   9.576   1.211   1.168 -0.2926 -1.0053  1.1882
  360MOL0     H48597   9.880   2.010   1.031 -2.1862  2.7306  2.9804
  360MOL0     H48598  10.143   2.221   0.991  0.2439  0.8372 -1.0963
  360MOL0     H48599  10.192   2.068   0.912  0.7004 -2.0678  3.0219
  360MOL0     H48600  10.027   2.120   0.904 -0.4262  0.4678 -0.2076
  361MOL0     O48601   5.139   9.006   5.579  0.6022  0.7196 -0.0739
  361MOL0     C48602   5.160   8.898   5.642  0.2170 -0.2293  0.5719
  361MOL0     O48603   5.276   8.856   5.689 -0.0229 -0.1394 -0.1339
  361MOL0     C48604   5.395   8.922   5.674 -1.3915  0.0848 -0.2230
  361MOL0     C48605   5.490   8.913   5.776 -0.3999 -0.1201 -0.1836
  361MOL0     C48606   5.616   8.977   5.769  0.7973  0.6236 -0.3983
  361MOL0     C48607   5.650   9.040   5.652  1.1597 -0.1252  0.0477
  361MOL0     O48608   5.771   9.099   5.635 -0.1349  0.2499 -0.0202
  361MOL0     C48609   5.793   9.205   5.717  0.4647 -0.2073  0.1716
  361MOL0     C48610   5.881   9.308   5.643  0.0186  0.0482  0.0538
  361MOL0     C48611   5.823   9.376   5.520  0.7138  0.9683 -0.7162
  361MOL0     C48612   5.929   9.451   5.443 -0.1543 -0.0300  0.3507
  361MOL0     C48613   5.867   9.545   5.338  0.1773  0.2292  0.0982
  361MOL0     C48614   5.806   9.462   5.214  0.5072 -0.1361  1.0696
  361MOL0     C48615   5.722   9.557   5.125 -0.0126  0.5181  0.0502
  361MOL0     C48616   5.601   9.624   5.195 -0.0578  1.0303 -0.1818
  361MOL0     N48617   5.509   9.537   5.266 -0.4845  0.1332  0.0655
  361MOL0     C48618   5.458   9.424   5.216  0.1932  0.0308 -0.2950
  361MOL0     C48619   5.380   9.374   5.318  0.3175 -0.5943  0.3128
  361MOL0     C48620   5.294   9.239   5.323  0.0215  0.2437 -0.3322
  361MOL0     C48621   5.190   9.239   5.215  0.3253  0.4163  0.6736
  361MOL0     C48622   5.089   9.122   5.231  0.6899  0.3856  0.2147
  361MOL0     C48623   4.986   9.122   5.119  0.5063  0.5201  0.6060
  361MOL0     O48624   5.046   9.120   4.983  0.0266 -0.1982  0.1012
  361MOL0     C48625   4.964   9.114   4.865 -0.2119 -0.1305  0.2217
  361MOL0     C48626   4.832   9.104   4.872 -0.2011  0.2885 -0.0239
  361MOL0     C48627   4.749   9.087   4.763  0.2088 -0.2817 -0.1612
  361MOL0     C48628   4.798   9.094   4.634  0.3523 -0.7824  0.0410
  361MOL0     C48629   4.703   9.075   4.519  0.4575 -0.4631  0.9808
  361MOL0     O48630   4.565   9.073   4.547 -0.3204  0.1417 -0.1476
  361MOL0     C48631   4.466   9.059   4.448 -0.5422  0.1587 -0.0397
  361MOL0     C48632   4.343   8.994   4.481 -0.3915 -0.5351  0.6002
  361MOL0     C48633   4.244   8.990   4.397  0.3276  0.5307  0.0090
  361MOL0     C48634   4.249   9.057   4.272 -0.0514 -0.2321  0.1051
  361MOL0     O48635   4.144   9.074   4.176 -0.4826  0.3114 -0.0502
  361MOL0     C48636   4.062   8.957   4.160  0.3926 -0.4603  0.3088
  361MOL0     C48637   3.975   8.990   4.041 -0.5615 -0.5418  0.5862
  361MOL0     C48638   3.846   9.072   4.068  0.3696  0.0182  0.2420
  361MOL0     C48639   3.766   9.065   3.937 -0.2813  0.1995 -0.5398
  361MOL0     C48640   3.669   9.175   3.935 -0.8114  0.9865 -0.1176
  361MOL0     C48641   3.554   9.152   3.839 -0.0330 -0.3326  0.5586
  361MOL0     C48642   3.462   9.276   3.826  0.0605  0.4732 -0.1161
  361MOL0     C48643   3.340   9.278   3.730  0.3797 -0.7411  0.7055
  361MOL0    Cl48644   3.405   9.328   3.574  0.1167 -0.3250  0.3141
  361MOL0     C48645   4.367   9.113   4.235 -0.5008  0.0544 -0.3720
  361MOL0     C48646   4.478   9.106   4.320 -0.8697  0.3973 -0.6005
  361MOL0     O48647   4.760   9.049   4.406  0.3915 -0.2456 -0.0568
  361MOL0     C48648   4.929   9.116   4.618  0.3021 -0.1094 -0.6751
  361MOL0     C48649   5.019   9.121   4.732 -0.7946 -0.2934  0.5169
  361MOL0     N48650   5.377   9.473   5.420  0.1623  0.6574 -0.5888
  361MOL0     N48651   5.457   9.563   5.382  0.3856 -0.0320 -0.0002
  361MOL0     C48652   5.558   9.044   5.543 -0.4443 -0.5330  0.2891
  361MOL0     C48653   5.431   8.988   5.557  0.2396  0.2080  0.2980
  361MOL0     C48654   5.041   8.810   5.674 -0.0754  0.1563 -0.7233
  361MOL0     C48655   5.054   8.706   5.767 -0.7462  0.4141  0.0853
  361MOL0     C48656   4.949   8.622   5.798 -0.9454  0.4144  0.7209
  361MOL0     C48657   4.822   8.644   5.744 -0.6730 -0.6319 -0.1547
  361MOL0     O48658   4.721   8.565   5.789 -0.2468 -0.3961  0.0320
  361MOL0     C48659   4.609   8.534   5.705  0.2115 -0.6722 -0.2031
  361MOL0     C48660   4.662   8.469   5.576 -0.5523 -0.1355  0.8218
  361MOL0     C48661   4.548   8.383   5.524  0.0335 -0.3432 -0.0572
  361MOL0     C48662   4.564   8.327   5.394 -0.1811  0.1953  1.4481
  361MOL0     C48663   4.668   8.219   5.399  0.5027 -0.8628 -0.6812
  361MOL0     C48664   4.743   8.131   5.386  0.4719  0.9297 -0.3135
  361MOL0     C48665   4.808   8.744   5.647 -0.1029  0.3345 -0.2344
  361MOL0     C48666   4.919   8.823   5.605  0.1574 -0.0868  0.3174
  361MOL0     C48667   4.890   8.923   5.495  0.8587  0.6399 -0.1320
  361MOL0     H48668   5.474   8.859   5.868  0.4524  2.2155  1.4414
  361MOL0     H48669   5.680   8.971   5.856 -1.3262 -2.3635  1.1597
  361MOL0     H48670   5.707   9.261   5.752  3.1383  2.8712  2.3651
  361MOL0     H48671   5.843   9.162   5.804  1.3272 -1.8088 -1.0405
  361MOL0     H48672   5.969   9.252   5.612 -0.2674 -2.1264  2.7641
  361MOL0     H48673   5.906   9.386   5.716  1.4438 -0.9183  0.6252
  361MOL0     H48674   5.735   9.433   5.553 -0.4059  0.6251 -2.9049
  361MOL0     H48675   5.786   9.291   5.462  2.0023 -1.9197  2.3644
  361MOL0     H48676   5.984   9.517   5.511 -1.3152  0.2216  1.0794
  361MOL0     H48677   5.984   9.367   5.402 -0.9844  0.3846 -1.7548
  361MOL0     H48678   5.788   9.601   5.388 -0.4997 -1.5161  1.0601
  361MOL0     H48679   5.943   9.616   5.306  0.0250 -0.0163 -0.8172
  361MOL0     H48680   5.890   9.442   5.147 -0.0342  1.2445 -0.0779
  361MOL0     H48681   5.746   9.374   5.240 -0.4052 -0.0795 -0.7269
  361MOL0     H48682   5.687   9.493   5.044 -0.2263  1.6657 -0.7956
  361MOL0     H48683   5.784   9.635   5.081 -0.3485  1.6819  1.5618
  361MOL0     H48684   5.633   9.703   5.264  1.1121  0.3252  0.1205
  361MOL0     H48685   5.540   9.674   5.120  1.8088  1.1413 -1.7098
  361MOL0     H48686   5.464   9.363   5.126 -2.2849 -0.6497 -0.0619
  361MOL0     H48687   5.367   9.158   5.316 -1.7104 -1.4928  0.4354
  361MOL0     H48688   5.242   9.230   5.419  0.9900  3.6027  0.6418
  361MOL0     H48689   5.135   9.333   5.223 -0.1400 -0.0058  4.1421
  361MOL0     H48690   5.228   9.236   5.113 -1.3901  1.1660 -0.0339
  361MOL0     H48691   5.040   9.126   5.329 -0.9641  0.6122 -0.6027
  361MOL0     H48692   5.130   9.021   5.225 -0.1810  0.1179 -2.7533
  361MOL0     H48693   4.919   9.208   5.119 -1.5256 -0.9224 -1.8821
  361MOL0     H48694   4.917   9.037   5.123 -0.3032  1.1771  3.6003
  361MOL0     H48695   4.783   9.105   4.969  1.4613  2.5826  0.8779
  361MOL0     H48696   4.645   9.073   4.792  0.5335  0.1993  1.3196
  361MOL0     H48697   4.328   8.957   4.582  0.1117 -1.0025  0.5081
  361MOL0     H48698   4.148   8.943   4.417 -0.1724  0.5510 -2.0971
  361MOL0     H48699   4.122   8.874   4.123 -2.1826 -2.6856  0.7815
  361MOL0     H48700   4.009   8.918   4.248  0.0528 -1.1862 -0.2105
  361MOL0     H48701   4.042   9.055   3.984 -0.2757 -0.7852  0.6369
  361MOL0     H48702   3.953   8.905   3.975 -0.9887  0.9465 -1.2674
  361MOL0     H48703   3.785   9.029   4.147 -1.5350  0.6201 -0.8303
  361MOL0     H48704   3.880   9.166   4.111 -1.3731  0.1114  1.5140
  361MOL0     H48705   3.721   8.966   3.935 -3.2438  1.4762 -1.4933
  361MOL0     H48706   3.834   9.067   3.851  0.9564 -3.3074  0.1923
  361MOL0     H48707   3.732   9.264   3.935  3.0548 -1.4697  1.9184
  361MOL0     H48708   3.622   9.169   4.034 -2.2876  0.8704 -0.7866
  361MOL0     H48709   3.580   9.142   3.733  3.3973 -0.9904  1.3650
  361MOL0     H48710   3.496   9.061   3.856 -0.0018 -0.8754 -1.8386
  361MOL0     H48711   3.529   9.360   3.806 -1.1651  1.2197 -1.1943
  361MOL0     H48712   3.413   9.290   3.923  1.7106  2.8185  0.4766
  361MOL0     H48713   3.290   9.181   3.731 -1.0005 -0.0714  0.2842
  361MOL0     H48714   3.258   9.346   3.754 -0.3448 -0.7769 -1.4633
  361MOL0     H48715   4.381   9.163   4.140 -3.0914 -1.2529 -1.5428
  361MOL0     H48716   4.569   9.152   4.283  0.0419  1.1209  2.2881
  361MOL0     H48717   4.968   9.130   4.518 -0.3703 -1.5505 -1.1611
  361MOL0     H48718   5.126   9.127   4.716 -1.1159 -1.2051 -2.4718
  361MOL0     H48719   5.587   9.096   5.452 -2.5626 -0.3942 -0.3465
  361MOL0     H48720   5.366   8.998   5.471  3.2470 -2.5657 -2.5597
  361MOL0     H48721   5.155   8.682   5.799 -0.8825 -0.0071  0.2022
  361MOL0     H48722   4.957   8.542   5.871  0.0581 -0.9555 -0.8379
  361MOL0     H48723   4.549   8.624   5.692 -0.8246 -0.7234  3.3360
  361MOL0     H48724   4.545   8.462   5.756  1.5051 -0.2259  2.1885
  361MOL0     H48725   4.758   8.419   5.591  1.9278  3.9167  0.0711
  361MOL0     H48726   4.677   8.553   5.507 -1.8359 -0.5772 -0.0356
  361MOL0     H48727   4.457   8.444   5.526  0.2295  0.0360  3.0805
  361MOL0     H48728   4.528   8.299   5.591 -1.3510 -0.3538 -0.4479
  361MOL0     H48729   4.471   8.278   5.363  0.4794 -0.9886  1.2877
  361MOL0     H48730   4.587   8.407   5.323  0.7902 -1.4382 -0.1611
  361MOL0     H48731   4.802   8.043   5.369 -2.0562 -0.4969 -2.4124
  361MOL0     H48732   4.717   8.756   5.588  0.2561  0.0314 -0.8602
  361MOL0     H48733   4.970   8.915   5.421 -0.8446 -1.6001 -1.8727
  361MOL0     H48734   4.792   8.911   5.448  0.7365  1.4880 -0.1134
  361MOL0     H48735   4.883   9.021   5.543 -0.7882  0.2185  0.5542
  362MOL0     O48736   9.660  10.997  10.443  0.9291  0.4248  0.0903
  362MOL0     C48737   9.540  10.978  10.428  0.2509 -0.7708 -0.5700
  362MOL0     O48738   9.451  11.067  10.478  0.0707  0.3740  0.8536
  362MOL0     C48739   9.488  11.162  10.564 -0.5673  0.5006  0.0566
  362MOL0     C48740   9.534  11.288  10.523  0.1276 -0.9003 -0.0241
  362MOL0     C48741   9.574  11.385  10.616 -0.9896  0.4756  0.4751
  362MOL0     C48742   9.575  11.355  10.754 -0.4214 -0.2299  0.0945
  362MOL0     O48743   9.629  11.450  10.834  0.2262 -0.1476  0.2897
  362MOL0     C48744   9.616  11.423  10.970  0.0332 -0.3774  0.7917
  362MOL0     C48745   9.698  11.517  11.048  0.4920 -0.1687 -0.1932
  362MOL0     C48746   9.846  11.511  11.020  0.7023 -0.6561 -0.0908
  362MOL0     C48747   9.929  11.602  11.110 -0.1176  0.4640  0.3873
  362MOL0     C48748  10.083  11.614  11.087 -0.2087  0.1720 -0.7977
  362MOL0     C48749  10.131  11.660  10.948  0.3772  1.1022  0.3497
  362MOL0     C48750  10.262  11.723  10.951 -0.0866  0.5495  0.6531
  362MOL0     C48751  10.272  11.852  11.010 -0.2978  0.6095  0.9919
  362MOL0     N48752  10.404  11.858  11.082 -0.0353 -0.1956  0.1336
  362MOL0     C48753  10.429  11.843  11.219  0.3748 -0.6878  0.4911
  362MOL0     C48754  10.564  11.888  11.224 -0.5180  0.0405  0.6752
  362MOL0     C48755  10.642  11.898  11.357  0.1635  0.2596  0.6983
  362MOL0     C48756  10.773  11.814  11.365  0.7218  0.0783 -0.2922
  362MOL0     C48757  10.840  11.787  11.499 -0.4354  0.4329 -0.0367
  362MOL0     C48758  10.996  11.777  11.491  0.4244 -0.0908  0.3729
  362MOL0     O48759  11.035  11.663  11.407 -0.7837 -0.0389 -0.8798
  362MOL0     C48760  11.170  11.642  11.381  0.1611  0.0517  0.3482
  362MOL0     C48761  11.262  11.678  11.481  0.6447 -0.2666  0.0127
  362MOL0     C48762  11.394  11.635  11.468  0.0829  0.2193  0.2221
  362MOL0     C48763  11.438  11.560  11.362 -0.2505 -0.1562  0.4627
  362MOL0     C48764  11.580  11.512  11.342 -0.0475  1.4427 -0.1290
  362MOL0     O48765  11.687  11.593  11.381 -0.3493  0.8544  0.2614
  362MOL0     C48766  11.816  11.578  11.340  0.3112 -0.0671 -1.2711
  362MOL0     C48767  11.863  11.486  11.244  0.9150 -0.2970 -0.0766
  362MOL0     C48768  11.998  11.478  11.221 -0.3059  0.6117  0.2497
  362MOL0     C48769  12.080  11.579  11.264  0.2395 -0.1464 -0.5871
  362MOL0     O48770  12.217  11.596  11.242 -0.9373  0.2848  0.2768
  362MOL0     C48771  12.283  11.507  11.148 -0.9399  0.2882 -0.2345
  362MOL0     C48772  12.436  11.539  11.135 -1.3702 -0.4421  0.2822
  362MOL0     C48773  12.512  11.494  11.257  0.3894  0.5598  0.9989
  362MOL0     C48774  12.663  11.493  11.235 -0.3279  0.2250  0.1661
  362MOL0     C48775  12.744  11.439  11.355 -0.1242  0.1149  0.0655
  362MOL0     C48776  12.881  11.492  11.374 -0.2671  1.6379 -0.3059
  362MOL0     C48777  12.975  11.448  11.256 -0.7569  0.0573  0.2393
  362MOL0     C48778  13.000  11.297  11.232  0.6617 -0.3033  0.1633
  362MOL0    Cl48779  13.152  11.237  11.324  0.1944  0.7628  0.0356
  362MOL0     C48780  12.029  11.680  11.342 -0.4464 -0.3755 -0.3401
  362MOL0     C48781  11.896  11.683  11.383  0.6285 -0.7092  1.0529
  362MOL0     O48782  11.586  11.401  11.283 -0.1217  0.1720  0.0530
  362MOL0     C48783  11.346  11.514  11.260  0.1718 -0.0598 -0.0074
  362MOL0     C48784  11.210  11.555  11.269  0.2855  0.4469 -0.6115
  362MOL0     N48785  10.611  11.916  11.094  0.0237  0.3499 -1.1414
  362MOL0     N48786  10.510  11.899  11.014 -1.1934 -0.6679  0.0516
  362MOL0     C48787   9.515  11.241  10.791  0.3266 -0.0191  0.0183
  362MOL0     C48788   9.466  11.147  10.699  0.1778  0.1985  0.2358
  362MOL0     C48789   9.495  10.861  10.356  0.6028  0.7294  0.0654
  362MOL0     C48790   9.583  10.791  10.273  0.7581  1.0888  0.5205
  362MOL0     C48791   9.549  10.673  10.216  0.2187  0.1715 -0.0480
  362MOL0     C48792   9.421  10.614  10.236  0.4358 -0.7789 -0.0048
  362MOL0     O48793   9.382  10.496  10.201  0.4630 -0.1221 -0.5641
  362MOL0     C48794   9.484  10.408  10.146 -0.7559  0.1106  0.1275
  362MOL0     C48795   9.586  10.341  10.249 -0.0831  0.8281  0.0657
  362MOL0     C48796   9.530  10.277  10.371 -0.9281 -0.4829 -0.1256
  362MOL0     C48797   9.629  10.172  10.430 -0.2740 -0.3045  0.3858
  362MOL0     C48798   9.651  10.051  10.357  0.7015 -0.4781  0.1990
  362MOL0     C48799   9.651   9.953  10.282 -0.0082  0.4331 -0.6447
  362MOL0     C48800   9.331  10.685  10.319 -0.5885  0.2089  0.6496
  362MOL0     C48801   9.366  10.806  10.375 -0.8883  0.1264 -0.4382
  362MOL0     C48802   9.252  10.862  10.456  0.5489 -0.5571  0.5065
  362MOL0     H48803   9.546  11.308  10.417  0.3555  0.7343  0.2830
  362MOL0     H48804   9.621  11.475  10.579 -0.7169  0.4050  0.6449
  362MOL0     H48805   9.508  11.435  10.983  0.0496  1.4356 -0.3736
  362MOL0     H48806   9.641  11.322  11.004 -1.8465 -0.3499  2.4643
  362MOL0     H48807   9.690  11.491  11.154 -0.4127  1.6795  0.2383
  362MOL0     H48808   9.665  11.621  11.040  1.4037  0.0347 -1.6953
  362MOL0     H48809   9.855  11.543  10.915  0.3680 -2.1756 -0.6062
  362MOL0     H48810   9.879  11.407  11.013 -1.0492 -1.1511 -2.8670
  362MOL0     H48811   9.885  11.702  11.097 -0.0206  0.7020  1.7736
  362MOL0     H48812   9.913  11.572  11.214  0.2989  0.2405  0.3872
  362MOL0     H48813  10.119  11.679  11.167 -1.1039 -0.5837  0.2472
  362MOL0     H48814  10.131  11.518  11.105  0.5127  1.1943  3.7824
  362MOL0     H48815  10.109  11.589  10.868 -0.5229  3.8441 -2.0007
  362MOL0     H48816  10.065  11.741  10.915 -0.4218  0.1954 -0.3584
  362MOL0     H48817  10.295  11.728  10.847 -1.0009 -2.0096  0.1813
  362MOL0     H48818  10.330  11.646  10.988  0.6260  0.5294 -0.6623
  362MOL0     H48819  10.253  11.922  10.929 -2.4841 -2.1382 -1.1000
  362MOL0     H48820  10.185  11.855  11.076 -0.3957 -1.4970  1.0486
  362MOL0     H48821  10.373  11.799  11.301 -2.5211 -0.0002 -1.0106
  362MOL0     H48822  10.669  12.004  11.369 -0.3022  0.3273  1.2080
  362MOL0     H48823  10.565  11.870  11.430 -1.2352 -1.6302 -1.3463
  362MOL0     H48824  10.761  11.723  11.307 -0.4158  1.5089 -2.4229
  362MOL0     H48825  10.855  11.861  11.309  0.6597 -0.2403 -0.6522
  362MOL0     H48826  10.810  11.688  11.537  0.9274  0.5167  1.3628
  362MOL0     H48827  10.812  11.856  11.579  1.3364 -0.3777  1.3541
  362MOL0     H48828  11.027  11.752  11.593  1.3091 -2.5753 -0.4295
  362MOL0     H48829  11.035  11.869  11.447 -1.4591 -0.2209 -1.7570
  362MOL0     H48830  11.227  11.726  11.572 -0.7037 -0.7496 -0.2187
  362MOL0     H48831  11.466  11.663  11.545 -0.3608 -1.2117  1.1845
  362MOL0     H48832  11.797  11.429  11.180  1.3863  1.0195 -1.8207
  362MOL0     H48833  12.051  11.405  11.161  1.0034  0.9563  0.9315
  362MOL0     H48834  12.263  11.404  11.177 -1.7149  1.2124  2.9619
  362MOL0     H48835  12.234  11.534  11.054 -1.6166 -1.6661 -0.4848
  362MOL0     H48836  12.482  11.504  11.042 -2.5067  2.4430 -1.5216
  362MOL0     H48837  12.437  11.648  11.125 -0.3859 -0.6057 -2.3797
  362MOL0     H48838  12.487  11.560  11.340  0.9112  2.1509 -0.0725
  362MOL0     H48839  12.476  11.397  11.293  2.5553 -1.5909 -2.0486
  362MOL0     H48840  12.693  11.594  11.204 -1.2090 -0.1417 -2.0290
  362MOL0     H48841  12.674  11.426  11.150 -0.2705 -0.6264  0.8321
  362MOL0     H48842  12.737  11.330  11.359  0.9274  0.0635  0.9436
  362MOL0     H48843  12.692  11.478  11.443  1.8680 -1.7401  2.2167
  362MOL0     H48844  12.874  11.601  11.375 -0.3732  1.6279  0.0815
  362MOL0     H48845  12.928  11.466  11.469 -0.8729 -2.0155 -0.8481
  362MOL0     H48846  13.066  11.508  11.257  0.7954 -1.8757 -3.6760
  362MOL0     H48847  12.923  11.487  11.169  1.6510 -0.1713 -1.3959
  362MOL0     H48848  12.913  11.239  11.263 -1.0945  0.4288 -2.9197
  362MOL0     H48849  13.013  11.282  11.124 -2.6770  0.4048 -0.4394
  362MOL0     H48850  12.102  11.755  11.373 -0.4138 -1.0616  1.4045
  362MOL0     H48851  11.857  11.771  11.433  1.6826  0.5686 -0.2741
  362MOL0     H48852  11.362  11.455  11.170  0.3971  2.2304 -1.5461
  362MOL0     H48853  11.126  11.530  11.205  0.2530 -3.3524  0.7087
  362MOL0     H48854   9.489  11.207  10.891 -0.5637 -2.6508 -1.0180
  362MOL0     H48855   9.415  11.066  10.751  0.6383  1.1364  2.2322
  362MOL0     H48856   9.683  10.831  10.257  0.0038  1.9988 -2.5923
  362MOL0     H48857   9.617  10.626  10.146 -1.3152 -1.9917 -0.2160
  362MOL0     H48858   9.536  10.460  10.064 -1.7466  0.5185 -0.2525
  362MOL0     H48859   9.439  10.323  10.095 -0.0896 -0.5902  0.6863
  362MOL0     H48860   9.657  10.413  10.290 -3.7381  3.5983  2.1492
  362MOL0     H48861   9.646  10.269  10.192  2.1189  1.5509  1.3614
  362MOL0     H48862   9.434  10.227  10.359 -0.8213 -0.4520 -1.2602
  362MOL0     H48863   9.522  10.349  10.453 -1.9803 -3.5491  2.6938
  362MOL0     H48864   9.726  10.221  10.442 -0.5977  0.4329  0.1291
  362MOL0     H48865   9.586  10.136  10.524  2.2902 -2.1282  0.9625
  362MOL0     H48866   9.632   9.878  10.208 -0.8096  0.1616 -0.1765
  362MOL0     H48867   9.230  10.649  10.336 -0.2030 -0.8533  0.7925
  362MOL0     H48868   9.229  10.967  10.436 -1.3590 -0.8705  0.8589
  362MOL0     H48869   9.152  10.820  10.438  0.9115 -1.9481  1.5593
  362MOL0     H48870   9.260  10.844  10.564  3.0292 -1.7313  0.1850
  363MOL0     O48871   7.608   3.735   1.011 -0.3976 -0.0708 -0.4403
  363MOL0     C48872   7.593   3.816   1.095 -0.3168  0.0349 -0.9918
  363MOL0     O48873   7.691   3.849   1.187  0.0992 -0.0065 -0.3409
  363MOL0     C48874   7.812   3.789   1.178 -0.7318 -0.3957 -0.3962
  363MOL0     C48875   7.911   3.842   1.095  0.3636  0.0497 -0.1447
  363MOL0     C48876   8.037   3.774   1.090 -0.5377  0.2540  0.9742
  363MOL0     C48877   8.059   3.652   1.151  0.4809  1.4448  0.6455
  363MOL0     O48878   8.171   3.576   1.126 -0.7784  0.2714  0.9031
  363MOL0     C48879   8.245   3.498   1.226 -0.0469 -0.9434  0.6514
  363MOL0     C48880   8.389   3.465   1.174  0.8381 -0.0209  0.8003
  363MOL0     C48881   8.490   3.574   1.217  0.1224  0.3821 -0.2350
  363MOL0     C48882   8.636   3.533   1.185 -0.4824 -0.6838  0.7769
  363MOL0     C48883   8.738   3.625   1.253 -0.5477 -0.0648 -0.3516
  363MOL0     C48884   8.883   3.600   1.194  0.0604 -0.3965 -0.0893
  363MOL0     C48885   8.960   3.475   1.249 -0.0827 -0.1038 -0.5162
  363MOL0     C48886   9.067   3.428   1.150  0.2716  0.6852  0.6094
  363MOL0     N48887   9.181   3.515   1.153 -0.3473  0.7390  0.5530
  363MOL0     C48888   9.242   3.573   1.048  1.0464 -0.0965  0.1414
  363MOL0     C48889   9.359   3.612   1.099  0.2706  0.9798  0.4227
  363MOL0     C48890   9.459   3.682   1.012 -0.2499 -0.1430  0.2047
  363MOL0     C48891   9.599   3.619   1.022  0.1125 -0.8948  0.6982
  363MOL0     C48892   9.714   3.724   0.973  0.6151  0.3283 -0.7174
  363MOL0     C48893   9.810   3.645   0.883 -0.7530 -0.1487  0.2333
  363MOL0     O48894   9.913   3.743   0.827 -0.2843 -0.8232 -0.2975
  363MOL0     C48895  10.034   3.750   0.885  0.1913  0.7847  0.0289
  363MOL0     C48896  10.057   3.726   1.023 -0.1182  0.6811  0.3679
  363MOL0     C48897  10.185   3.726   1.063 -0.1504 -0.4250  0.3028
  363MOL0     C48898  10.289   3.782   0.988 -0.4205  0.1270 -0.4888
  363MOL0     C48899  10.424   3.800   1.037  0.2513  0.3636  0.5011
  363MOL0     O48900  10.442   3.757   1.165 -0.4018 -0.0849  0.6259
  363MOL0     C48901  10.564   3.772   1.234  0.3146 -0.0801  0.8902
  363MOL0     C48902  10.696   3.769   1.173  0.6354  0.3228  0.4225
  363MOL0     C48903  10.809   3.783   1.252 -0.3797 -1.1535  0.7646
  363MOL0     C48904  10.805   3.796   1.386 -0.5199  0.1381  0.4399
  363MOL0     O48905  10.901   3.822   1.473 -0.5061 -0.8743  0.2551
  363MOL0     C48906  11.011   3.903   1.407 -1.2681 -0.3570 -0.8466
  363MOL0     C48907  11.121   3.936   1.497  0.4270  0.6300  0.2293
  363MOL0     C48908  11.184   3.820   1.568 -0.6586  0.3291 -0.2775
  363MOL0     C48909  11.274   3.734   1.470  0.4485  0.4963  0.4268
  363MOL0     C48910  11.361   3.655   1.552  0.1624 -0.8561 -0.1684
  363MOL0     C48911  11.437   3.571   1.449 -0.3699 -0.8791 -0.0974
  363MOL0     C48912  11.555   3.493   1.517  0.9386 -0.5805 -0.0761
  363MOL0     C48913  11.615   3.407   1.412 -0.3249  0.2379  0.3734
  363MOL0    Cl48914  11.762   3.328   1.461  0.0695  0.2160  0.1162
  363MOL0     C48915  10.681   3.791   1.437 -0.5057 -0.6555  0.3243
  363MOL0     C48916  10.562   3.770   1.369  0.3047  0.5743 -0.0078
  363MOL0     O48917  10.509   3.852   0.961  0.2419 -0.1866 -0.0434
  363MOL0     C48918  10.262   3.807   0.850 -0.4745 -0.5112 -0.4346
  363MOL0     C48919  10.133   3.796   0.801  0.1861  0.4322 -0.4257
  363MOL0     N48920   9.372   3.572   1.228 -0.4567  0.1264 -0.8162
  363MOL0     N48921   9.265   3.506   1.255 -0.6076  0.5359 -0.7070
  363MOL0     C48922   7.965   3.607   1.237 -0.2851  0.0770 -0.4369
  363MOL0     C48923   7.840   3.671   1.252 -0.8526 -0.9537  0.0370
  363MOL0     C48924   7.456   3.874   1.116  0.1219 -0.5130  0.6331
  363MOL0     C48925   7.450   3.996   1.198 -0.6716 -0.6244  0.6079
  363MOL0     C48926   7.330   4.066   1.188 -0.2119 -0.4058 -0.3649
  363MOL0     C48927   7.210   4.018   1.132 -0.5879  0.1976 -0.4744
  363MOL0     O48928   7.103   4.101   1.137  0.4525 -1.3670 -1.0113
  363MOL0     C48929   6.972   4.054   1.104  0.6008 -0.2551 -0.5063
  363MOL0     C48930   6.880   4.152   1.183 -0.3648  0.2435  0.4103
  363MOL0     C48931   6.747   4.157   1.114  0.7441 -0.1508  0.2125
  363MOL0     C48932   6.647   4.251   1.169  0.6158  0.4940 -0.1012
  363MOL0     C48933   6.540   4.286   1.073 -0.4420  0.3541  0.0962
  363MOL0     C48934   6.456   4.306   0.987 -0.5762 -0.2972 -0.7395
  363MOL0     C48935   7.217   3.891   1.071 -0.3792  0.1397 -0.1461
  363MOL0     C48936   7.342   3.820   1.053 -0.6424 -0.2507  0.1460
  363MOL0     C48937   7.317   3.694   0.976 -0.1901  0.0592 -0.1950
  363MOL0     H48938   7.878   3.934   1.048 -2.3437 -2.2334 -3.1993
  363MOL0     H48939   8.113   3.804   1.019 -2.2694  1.0956 -0.6378
  363MOL0     H48940   8.261   3.557   1.316  0.5423 -0.7690  0.4320
  363MOL0     H48941   8.196   3.405   1.257 -2.1534 -0.7730 -1.7485
  363MOL0     H48942   8.384   3.452   1.065  1.6193 -1.2785  0.8941
  363MOL0     H48943   8.413   3.366   1.213  0.7808  0.1180  1.1930
  363MOL0     H48944   8.471   3.585   1.324  2.2055  1.8777  0.0457
  363MOL0     H48945   8.454   3.665   1.167 -1.2697  0.0295  0.0728
  363MOL0     H48946   8.648   3.430   1.219  2.2304  0.4703  3.8342
  363MOL0     H48947   8.644   3.543   1.077 -0.9403  1.4562  0.8826
  363MOL0     H48948   8.695   3.723   1.235 -0.1435  0.0365 -0.7836
  363MOL0     H48949   8.740   3.593   1.358  2.2534  0.6890 -0.0999
  363MOL0     H48950   8.873   3.600   1.085  1.6400  0.2080 -0.2605
  363MOL0     H48951   8.946   3.685   1.222 -0.5461  0.0467 -0.0532
  363MOL0     H48952   8.887   3.394   1.259  0.6578 -0.9823 -1.7973
  363MOL0     H48953   9.006   3.488   1.347  0.6436  1.7807 -1.0632
  363MOL0     H48954   9.106   3.330   1.180  3.0789  2.7064  4.3490
  363MOL0     H48955   9.034   3.427   1.045  0.4540  2.3031  0.5085
  363MOL0     H48956   9.199   3.576   0.948 -1.8462 -2.6477  1.1501
  363MOL0     H48957   9.411   3.680   0.914 -0.0533  0.5860  0.0899
  363MOL0     H48958   9.462   3.789   1.034 -0.2807 -0.2662  0.8234
  363MOL0     H48959   9.613   3.585   1.125 -2.1798 -3.1610  0.3576
  363MOL0     H48960   9.602   3.521   0.974  1.3871 -0.9302  0.8072
  363MOL0     H48961   9.740   3.765   1.071 -5.0348 -1.1354  1.7833
  363MOL0     H48962   9.661   3.800   0.915  0.1788 -1.4607 -2.7891
  363MOL0     H48963   9.762   3.604   0.794  2.9240  0.3928 -2.2031
  363MOL0     H48964   9.847   3.557   0.938  3.1045 -0.0824 -1.9438
  363MOL0     H48965   9.976   3.707   1.093  1.6882 -2.7246  1.7723
  363MOL0     H48966  10.204   3.701   1.167  0.3169 -0.7667  0.1417
  363MOL0     H48967  10.696   3.757   1.065 -4.3822 -2.2856  0.3920
  363MOL0     H48968  10.903   3.785   1.197 -1.4322 -0.9389 -1.1017
  363MOL0     H48969  11.064   3.845   1.331  0.1815  1.0834 -0.9987
  363MOL0     H48970  10.968   3.997   1.371 -2.0917  0.0550  1.1247
  363MOL0     H48971  11.192   3.997   1.440  0.0602 -1.6910 -3.0246
  363MOL0     H48972  11.074   4.001   1.571 -0.3440  0.1240  0.1996
  363MOL0     H48973  11.258   3.849   1.643  0.3621 -2.1436 -0.2317
  363MOL0     H48974  11.115   3.754   1.621  1.6949 -2.2899 -0.2391
  363MOL0     H48975  11.333   3.806   1.412  0.5356  0.1831  0.1197
  363MOL0     H48976  11.212   3.681   1.397  1.7537  1.0027 -1.1271
  363MOL0     H48977  11.310   3.589   1.623 -1.3052  0.3677 -0.0324
  363MOL0     H48978  11.436   3.711   1.609  0.1299  0.1550 -1.0814
  363MOL0     H48979  11.369   3.503   1.396 -4.3056  0.1762  3.0985
  363MOL0     H48980  11.486   3.637   1.377  1.4729 -4.5360 -2.5184
  363MOL0     H48981  11.508   3.432   1.595 -0.4702  1.2241  0.5775
  363MOL0     H48982  11.624   3.566   1.560 -0.7695  0.2988  1.2975
  363MOL0     H48983  11.540   3.334   1.382 -1.2654  1.3658 -0.1119
  363MOL0     H48984  11.639   3.477   1.331  0.2418  3.6349  3.2190
  363MOL0     H48985  10.663   3.807   1.543 -4.0194 -1.7325  0.0220
  363MOL0     H48986  10.461   3.754   1.404 -0.5828 -1.3216 -3.0156
  363MOL0     H48987  10.335   3.847   0.781 -1.7014  2.9443  0.0593
  363MOL0     H48988  10.119   3.799   0.694 -2.2119 -3.0022 -0.3600
  363MOL0     H48989   7.986   3.517   1.293  0.9542 -0.8436 -2.2604
  363MOL0     H48990   7.760   3.642   1.320 -1.9416  2.8722  0.6447
  363MOL0     H48991   7.531   4.040   1.255 -0.7074  0.4416 -0.1320
  363MOL0     H48992   7.318   4.165   1.231 -0.8887 -0.7611  0.2824
  363MOL0     H48993   6.949   3.958   1.151 -1.7310 -0.4515 -1.8988
  363MOL0     H48994   6.967   4.052   0.995  0.7702  1.1459 -0.5639
  363MOL0     H48995   6.919   4.254   1.180  0.9522 -0.2554 -1.2588
  363MOL0     H48996   6.869   4.119   1.287  0.2542  0.4502  0.5423
  363MOL0     H48997   6.704   4.057   1.109  2.2572 -0.8089  0.0101
  363MOL0     H48998   6.761   4.189   1.010  0.4610  1.5718  0.6734
  363MOL0     H48999   6.596   4.222   1.261 -1.3323  0.8380 -1.0386
  363MOL0     H49000   6.700   4.340   1.206  3.7540 -1.0611 -0.4915
  363MOL0     H49001   6.382   4.327   0.912 -2.8076 -0.6011  1.2742
  363MOL0     H49002   7.126   3.850   1.029  1.1739 -4.1698  0.2445
  363MOL0     H49003   7.412   3.654   0.941 -0.1710 -0.1812  0.1264
  363MOL0     H49004   7.274   3.619   1.044  1.0427 -1.6376 -1.2065
  363MOL0     H49005   7.258   3.717   0.886 -0.2844 -1.2647 -0.4894
  364MOL0     O49006   4.106   6.109   0.137  0.6504 -0.1829 -0.1719
  364MOL0     C49007   4.000   6.095   0.191 -0.2242  0.3586  0.4960
  364MOL0     O49008   3.973   6.131   0.330  0.2852 -0.0101  0.7177
  364MOL0     C49009   4.073   6.174   0.404 -0.3280  0.2953 -0.0162
  364MOL0     C49010   4.055   6.285   0.488  0.2569 -0.6242  0.3346
  364MOL0     C49011   4.152   6.318   0.580  0.0024 -0.0659  0.6909
  364MOL0     C49012   4.265   6.245   0.592 -0.6134  0.0697 -0.3806
  364MOL0     O49013   4.360   6.295   0.676  0.2576 -0.3269 -0.1840
  364MOL0     C49014   4.437   6.202   0.755  0.0432  0.2515 -0.0388
  364MOL0     C49015   4.542   6.288   0.832  0.3501  0.7302 -0.3621
  364MOL0     C49016   4.614   6.213   0.951  0.7504 -0.2904  0.4179
  364MOL0     C49017   4.741   6.148   0.902 -0.6199  0.0800  0.7726
  364MOL0     C49018   4.806   6.073   1.017  0.2616 -0.3046 -0.1220
  364MOL0     C49019   4.931   5.997   0.964 -0.1592 -0.1945  0.0936
  364MOL0     C49020   5.029   5.972   1.078 -0.3863 -0.8308  0.6435
  364MOL0     C49021   5.118   6.094   1.122 -0.1839  0.1909  0.5277
  364MOL0     N49022   5.209   6.066   1.241  0.2920 -0.4759 -0.8007
  364MOL0     C49023   5.337   6.021   1.225 -0.6893 -0.5439 -0.0883
  364MOL0     C49024   5.380   5.997   1.353  0.5046 -0.0721  0.4307
  364MOL0     C49025   5.518   5.951   1.402  0.8011 -0.0817  0.6195
  364MOL0     C49026   5.615   6.063   1.432 -0.4645  0.1193 -0.5440
  364MOL0     C49027   5.552   6.150   1.546 -0.0919 -0.6676  0.2845
  364MOL0     C49028   5.667   6.239   1.590  0.7089 -0.1469 -1.1077
  364MOL0     O49029   5.771   6.161   1.658 -0.2171  0.1149 -0.4765
  364MOL0     C49030   5.885   6.227   1.687 -0.1065 -0.0836  0.5738
  364MOL0     C49031   5.904   6.365   1.676 -0.9380 -0.9100 -1.7727
  364MOL0     C49032   6.020   6.426   1.727 -0.4149 -0.5526  0.5360
  364MOL0     C49033   6.125   6.348   1.774  0.6004 -0.2689 -0.5650
  364MOL0     C49034   6.244   6.416   1.828 -0.2187 -0.1784 -0.0134
  364MOL0     O49035   6.337   6.338   1.898  0.2265  0.6733 -0.4852
  364MOL0     C49036   6.445   6.410   1.948 -0.4800  0.6235 -0.1452
  364MOL0     C49037   6.443   6.443   2.082  1.2896 -0.1912  0.6427
  364MOL0     C49038   6.546   6.516   2.133 -0.2505  0.2400  0.9315
  364MOL0     C49039   6.662   6.542   2.049 -0.4070 -0.2029 -0.5565
  364MOL0     O49040   6.765   6.601   2.112 -0.5338  0.2784 -0.5426
  364MOL0     C49041   6.866   6.672   2.026 -0.6501 -0.1781 -0.0569
  364MOL0     C49042   6.943   6.766   2.109  0.2616  0.0539 -1.0190
  364MOL0     C49043   7.041   6.839   2.025 -0.0498 -0.4634  0.6451
  364MOL0     C49044   7.144   6.894   2.118 -0.3862 -0.9354  0.1590
  364MOL0     C49045   7.254   6.955   2.051  0.3049  0.4357  0.7949
  364MOL0     C49046   7.357   7.000   2.165 -0.5834 -0.1688  1.1095
  364MOL0     C49047   7.472   7.085   2.097 -0.7440 -0.7103 -0.3579
  364MOL0     C49048   7.568   7.126   2.205 -0.3117  0.3555 -0.4626
  364MOL0    Cl49049   7.721   7.192   2.136  0.0296  0.3102  0.0228
  364MOL0     C49050   6.665   6.513   1.914 -0.2536 -0.2152 -0.0948
  364MOL0     C49051   6.557   6.433   1.869  0.2024 -0.9023 -0.0160
  364MOL0     O49052   6.265   6.533   1.799 -0.3867  0.4501 -0.2028
  364MOL0     C49053   6.108   6.212   1.772 -0.4362  0.1503  0.2365
  364MOL0     C49054   5.994   6.144   1.727 -0.7345 -0.1547  0.1545
  364MOL0     N49055   5.277   6.031   1.437 -0.0722 -0.0788  0.0251
  364MOL0     N49056   5.175   6.064   1.370  0.0933  0.0302  0.3470
  364MOL0     C49057   4.289   6.132   0.519  0.8140  0.8325 -0.8694
  364MOL0     C49058   4.191   6.094   0.424 -0.4760 -0.1753 -0.0315
  364MOL0     C49059   3.888   6.051   0.100 -0.5916  0.4914  0.1474
  364MOL0     C49060   3.917   6.016  -0.034 -0.1823 -0.0133 -0.0448
  364MOL0     C49061   3.824   5.996  -0.123  0.0101  0.3073 -0.0733
  364MOL0     C49062   3.693   5.990  -0.090 -0.2980  0.0816  0.1211
  364MOL0     O49063   3.599   5.960  -0.186  0.3148 -0.8378 -0.9222
  364MOL0     C49064   3.536   5.830  -0.182 -0.6523 -0.6140 -0.1637
  364MOL0     C49065   3.484   5.793  -0.322  0.0434  0.0635 -0.2156
  364MOL0     C49066   3.594   5.840  -0.423 -0.5407  0.8271  0.6158
  364MOL0     C49067   3.622   5.732  -0.535 -0.6221 -0.7065  0.1735
  364MOL0     C49068   3.497   5.676  -0.600 -0.9044  0.3191 -0.4551
  364MOL0     C49069   3.395   5.634  -0.656 -0.7270  0.6039  0.4161
  364MOL0     C49070   3.657   6.010   0.042  0.2807 -0.0673 -0.6739
  364MOL0     C49071   3.756   6.048   0.138  0.9898  0.3307 -0.4317
  364MOL0     C49072   3.701   6.102   0.267  0.2085 -0.7822 -0.4609
  364MOL0     H49073   3.967   6.348   0.483 -0.2906 -1.3205  0.9451
  364MOL0     H49074   4.141   6.416   0.625 -3.5747  0.1765 -0.3312
  364MOL0     H49075   4.373   6.154   0.830 -3.7089  0.8542 -2.6083
  364MOL0     H49076   4.484   6.127   0.691 -0.1959 -0.1636  0.2652
  364MOL0     H49077   4.481   6.363   0.883 -1.4747 -0.8028 -0.2069
  364MOL0     H49078   4.611   6.340   0.764  0.0931  0.4264 -0.8645
  364MOL0     H49079   4.538   6.149   0.996 -0.2283  1.4219  1.2879
  364MOL0     H49080   4.646   6.287   1.026  0.2099 -0.3557  0.7162
  364MOL0     H49081   4.726   6.082   0.816 -3.3071 -0.9074  1.8780
  364MOL0     H49082   4.801   6.230   0.863 -1.4369  0.7201  0.8236
  364MOL0     H49083   4.845   6.155   1.077  0.0129  0.7655 -1.3807
  364MOL0     H49084   4.724   6.021   1.069  0.0694  1.5968  1.6016
  364MOL0     H49085   4.901   5.916   0.897  1.5106  0.5815 -1.7067
  364MOL0     H49086   4.993   6.065   0.905 -1.7979 -0.0493 -1.5371
  364MOL0     H49087   5.095   5.891   1.047  0.0998 -0.1302 -0.1853
  364MOL0     H49088   4.974   5.954   1.171  2.0704 -2.5613  1.8827
  364MOL0     H49089   5.179   6.127   1.038  0.7536  0.2118  1.2135
  364MOL0     H49090   5.047   6.167   1.161 -1.1593 -1.0556  1.1801
  364MOL0     H49091   5.394   6.021   1.132 -1.2471  0.2093 -0.4407
  364MOL0     H49092   5.505   5.868   1.471  2.6307 -0.8375  0.1305
  364MOL0     H49093   5.570   5.898   1.321 -1.4030 -5.0575  2.0590
  364MOL0     H49094   5.710   6.016   1.458 -0.4221  0.6395  0.2727
  364MOL0     H49095   5.615   6.110   1.334 -4.0994 -0.9330 -1.2086
  364MOL0     H49096   5.530   6.088   1.633  3.1278  1.4125  2.8413
  364MOL0     H49097   5.460   6.195   1.509 -0.8502 -0.9120  1.8105
  364MOL0     H49098   5.621   6.301   1.667 -0.9386 -0.7507 -1.5503
  364MOL0     H49099   5.699   6.286   1.497 -0.3196 -1.4958 -2.1936
  364MOL0     H49100   5.825   6.427   1.635 -3.2498 -1.1897  1.8061
  364MOL0     H49101   6.026   6.534   1.744  0.8501 -0.4441 -0.4153
  364MOL0     H49102   6.351   6.419   2.134  0.1310 -1.0151 -1.6491
  364MOL0     H49103   6.545   6.542   2.239  1.6722  0.8874  0.8214
  364MOL0     H49104   6.933   6.598   1.982 -1.9767 -1.2199 -0.3545
  364MOL0     H49105   6.822   6.728   1.943 -2.1431 -1.6593 -0.3066
  364MOL0     H49106   6.867   6.829   2.156  1.5511 -0.1053  1.4260
  364MOL0     H49107   6.993   6.713   2.191  0.6058  0.4902 -0.9403
  364MOL0     H49108   7.096   6.772   1.959  0.0270 -1.8948  2.0969
  364MOL0     H49109   6.995   6.923   1.971  0.0925 -0.7589  0.0604
  364MOL0     H49110   7.195   6.812   2.170  2.0043 -0.3305 -1.0891
  364MOL0     H49111   7.088   6.949   2.195  1.6602  0.1598  0.9310
  364MOL0     H49112   7.237   7.047   1.994  0.4284 -1.9657 -3.4939
  364MOL0     H49113   7.295   6.885   1.977 -0.4206  1.1675 -0.3341
  364MOL0     H49114   7.305   7.065   2.236 -0.2262  0.5042  0.7526
  364MOL0     H49115   7.399   6.916   2.223  2.0646 -1.1833 -1.9763
  364MOL0     H49116   7.429   7.176   2.053  0.2415 -0.0051  0.1053
  364MOL0     H49117   7.529   7.031   2.021  0.6707  0.4103 -0.1365
  364MOL0     H49118   7.520   7.202   2.268 -1.2733 -0.0435 -0.6962
  364MOL0     H49119   7.583   7.041   2.272 -0.7601 -0.8861 -1.9007
  364MOL0     H49120   6.741   6.543   1.842  0.5775  2.5652  1.7363
  364MOL0     H49121   6.560   6.407   1.764  1.8169 -2.3369  0.3425
  364MOL0     H49122   6.188   6.146   1.807  1.3005  1.8856 -0.2810
  364MOL0     H49123   5.987   6.036   1.721  1.6592 -0.3980  0.7454
  364MOL0     H49124   4.364   6.055   0.536  1.3839  1.2907 -1.2460
  364MOL0     H49125   4.199   5.991   0.392  2.4831 -0.9716  2.7724
  364MOL0     H49126   4.020   6.010  -0.068  0.5011 -0.7926  1.9747
  364MOL0     H49127   3.842   5.965  -0.225 -1.5386 -1.3659  0.1168
  364MOL0     H49128   3.449   5.822  -0.117  0.0588 -1.2919  0.7295
  364MOL0     H49129   3.606   5.761  -0.135 -0.3769  1.4130  2.6786
  364MOL0     H49130   3.393   5.847  -0.348  0.7870  1.4395 -0.0153
  364MOL0     H49131   3.466   5.686  -0.336  5.7352 -1.2565  0.1649
  364MOL0     H49132   3.690   5.860  -0.376 -0.2793 -1.0803  0.9710
  364MOL0     H49133   3.554   5.923  -0.482 -0.1139 -0.0934 -1.0370
  364MOL0     H49134   3.690   5.773  -0.610 -2.1344 -0.8106 -1.3383
  364MOL0     H49135   3.671   5.653  -0.479  1.0423  0.0747 -0.1379
  364MOL0     H49136   3.316   5.584  -0.708  2.2556 -0.8555 -3.1178
  364MOL0     H49137   3.553   5.992   0.067  0.3054  0.8496  0.1316
  364MOL0     H49138   3.720   6.205   0.298 -0.3024 -0.5793 -0.8091
  364MOL0     H49139   3.594   6.084   0.277 -0.5949  3.0403 -0.5927
  364MOL0     H49140   3.745   6.039   0.345  1.5059 -0.0237 -0.5549
  365MOL0     O49141   6.457  10.659   7.301  0.0002 -0.0233 -0.7428
  365MOL0     C49142   6.388  10.724   7.375 -0.1738  0.0880 -0.7812
  365MOL0     O49143   6.430  10.845   7.426  0.0907 -0.3366  0.3064
  365MOL0     C49144   6.568  10.870   7.441  0.5117  0.5894 -1.1011
  365MOL0     C49145   6.645  10.776   7.508  0.2336  0.0363  0.2475
  365MOL0     C49146   6.778  10.798   7.531 -0.1309  0.6976  0.4385
  365MOL0     C49147   6.826  10.917   7.472  0.5548  0.0976  0.2205
  365MOL0     O49148   6.958  10.946   7.480  0.4232  0.8598 -0.4156
  365MOL0     C49149   7.042  10.840   7.432  1.1812  0.9996  0.0028
  365MOL0     C49150   7.179  10.888   7.377  0.3323  0.8981  0.2198
  365MOL0     C49151   7.265  10.940   7.489  0.4018  0.5582  0.5758
  365MOL0     C49152   7.393  10.988   7.420 -0.0831  0.4288  0.4949
  365MOL0     C49153   7.501  11.042   7.518  0.5294 -0.6583 -0.7626
  365MOL0     C49154   7.618  11.115   7.438  0.5490  1.1640  0.3355
  365MOL0     C49155   7.714  11.181   7.531 -0.4211 -0.7962  0.2894
  365MOL0     C49156   7.855  11.213   7.462  0.2096 -0.1008 -0.4680
  365MOL0     N49157   7.968  11.239   7.561  0.0484  0.0089  0.0800
  365MOL0     C49158   7.984  11.190   7.694 -0.4392 -0.1714 -0.1744
  365MOL0     C49159   8.093  11.252   7.740  0.1880 -0.3283  1.4258
  365MOL0     C49160   8.157  11.233   7.873  0.4839 -0.1901 -0.0175
  365MOL0     C49161   8.202  11.371   7.925  0.4779 -0.2294 -0.5924
  365MOL0     C49162   8.236  11.362   8.076  0.3980 -0.3948 -0.0676
  365MOL0     C49163   8.329  11.460   8.125 -0.3276 -1.0932 -0.3315
  365MOL0     O49164   8.374  11.427   8.260  0.3509  0.2609 -0.1733
  365MOL0     C49165   8.505  11.453   8.293  0.5720  0.3068 -1.0098
  365MOL0     C49166   8.573  11.362   8.363 -0.7004 -0.4606 -0.9187
  365MOL0     C49167   8.699  11.386   8.413  0.3049 -1.0950 -0.6453
  365MOL0     C49168   8.756  11.518   8.404 -1.2014 -0.0825 -0.0460
  365MOL0     C49169   8.887  11.541   8.464  0.6289 -0.3415 -0.3518
  365MOL0     O49170   8.969  11.440   8.491 -0.0136  0.3485 -0.1860
  365MOL0     C49171   9.090  11.470   8.552  1.0097  0.0198  0.1949
  365MOL0     C49172   9.106  11.462   8.693 -0.7428  0.5238  0.4246
  365MOL0     C49173   9.236  11.462   8.750 -0.5115 -0.4657  0.3398
  365MOL0     C49174   9.346  11.490   8.670  0.1522 -0.2677 -0.5688
  365MOL0     O49175   9.470  11.499   8.731 -0.1668  0.2784  0.2682
  365MOL0     C49176   9.553  11.605   8.689 -0.0723 -1.3575 -0.4348
  365MOL0     C49177   9.661  11.600   8.794  0.2487  0.2252  0.0410
  365MOL0     C49178   9.776  11.696   8.746 -0.3888 -0.3769  0.1074
  365MOL0     C49179   9.915  11.679   8.822  0.0741 -0.2461  1.4621
  365MOL0     C49180  10.007  11.801   8.787 -0.1581 -0.6833  0.1358
  365MOL0     C49181  10.142  11.797   8.859  0.3566  0.1823  0.8112
  365MOL0     C49182  10.230  11.903   8.799 -0.4331 -0.6526  0.5592
  365MOL0     C49183  10.374  11.917   8.843  0.0881  0.2889 -0.6863
  365MOL0    Cl49184  10.382  11.973   9.015 -0.3147 -0.1711  0.4354
  365MOL0     C49185   9.333  11.502   8.531  0.0056 -0.1041 -0.1372
  365MOL0     C49186   9.200  11.483   8.472 -0.0446 -0.4541 -0.4003
  365MOL0     O49187   8.911  11.658   8.487  0.6644 -0.1728  0.2773
  365MOL0     C49188   8.688  11.616   8.333  1.0342  0.1089 -0.0181
  365MOL0     C49189   8.560  11.579   8.274  0.3188 -0.0038 -0.6681
  365MOL0     N49190   8.143  11.340   7.648 -0.3828 -0.6856  0.1127
  365MOL0     N49191   8.068  11.331   7.543 -0.0731  0.2784  0.3260
  365MOL0     C49192   6.747  11.011   7.406 -0.5603  0.5045  0.4709
  365MOL0     C49193   6.615  10.982   7.377 -0.8519 -0.4047  0.4278
  365MOL0     C49194   6.242  10.688   7.396  0.0767 -1.0976  0.4737
  365MOL0     C49195   6.151  10.785   7.438  0.2677  0.4666  0.1848
  365MOL0     C49196   6.012  10.761   7.450  0.1854  0.6533  0.0949
  365MOL0     C49197   5.964  10.639   7.422 -0.7045 -0.3676 -0.4981
  365MOL0     O49198   5.831  10.635   7.424  0.4055  0.1284 -0.5740
  365MOL0     C49199   5.752  10.552   7.337  0.0556  0.0638 -0.3119
  365MOL0     C49200   5.772  10.594   7.193 -0.1081 -0.2587 -0.0907
  365MOL0     C49201   5.672  10.541   7.090 -0.1045 -0.2745  0.1699
  365MOL0     C49202   5.547  10.614   7.099  0.4652  0.8358  0.7660
  365MOL0     C49203   5.451  10.565   6.987 -0.2016 -0.4854 -0.1900
  365MOL0     C49204   5.372  10.554   6.898 -0.2233 -0.6261 -0.3652
  365MOL0     C49205   6.054  10.537   7.368  0.8304  0.2155 -0.2900
  365MOL0     C49206   6.190  10.558   7.372 -0.9958 -0.3814 -0.0180
  365MOL0     C49207   6.276  10.447   7.333  0.4250  0.3531  0.7672
  365MOL0     H49208   6.598  10.683   7.539  0.9889 -0.1828  0.7903
  365MOL0     H49209   6.835  10.723   7.585 -1.9787 -0.8396  0.3540
  365MOL0     H49210   7.058  10.774   7.518  1.7790  0.1127 -0.7751
  365MOL0     H49211   6.996  10.778   7.355  3.0949 -2.5675  1.5314
  365MOL0     H49212   7.149  10.963   7.303 -0.1377  0.6188  0.1208
  365MOL0     H49213   7.223  10.813   7.310 -2.5042 -0.6227 -0.0748
  365MOL0     H49214   7.300  10.856   7.549 -0.5023 -2.2103 -2.4646
  365MOL0     H49215   7.212  11.008   7.556  0.0379 -0.5005  1.3889
  365MOL0     H49216   7.446  10.908   7.367 -0.6134  0.7758 -0.6050
  365MOL0     H49217   7.364  11.062   7.344  1.6990 -0.0216 -0.7046
  365MOL0     H49218   7.447  11.115   7.579  0.4431 -3.0477  2.2755
  365MOL0     H49219   7.539  10.966   7.588 -2.4715 -1.7711 -0.2063
  365MOL0     H49220   7.659  11.039   7.371 -1.1787 -0.3073  0.8643
  365MOL0     H49221   7.573  11.195   7.379  1.6566 -0.3014 -2.7042
  365MOL0     H49222   7.739  11.116   7.615  0.0907 -0.5012  0.3699
  365MOL0     H49223   7.680  11.280   7.564 -0.7224 -0.6773 -0.3716
  365MOL0     H49224   7.858  11.118   7.406 -4.1998 -0.1970 -0.8731
  365MOL0     H49225   7.855  11.294   7.389 -0.2105  0.6273  0.3191
  365MOL0     H49226   7.915  11.126   7.746 -1.0935  0.2070 -0.5615
  365MOL0     H49227   8.079  11.192   7.938 -0.2483 -0.7463 -1.1980
  365MOL0     H49228   8.251  11.178   7.877  2.5621  2.9025 -1.7893
  365MOL0     H49229   8.292  11.401   7.871 -0.5537  0.0948 -2.2036
  365MOL0     H49230   8.115  11.438   7.917  0.9390  0.3797 -0.5789
  365MOL0     H49231   8.286  11.265   8.087  1.6664 -0.0586 -2.2982
  365MOL0     H49232   8.146  11.367   8.138 -0.7063 -1.1245 -1.5499
  365MOL0     H49233   8.287  11.560   8.111 -0.0615 -1.1003 -1.2234
  365MOL0     H49234   8.419  11.450   8.063 -1.6506  0.6351 -2.6832
  365MOL0     H49235   8.517  11.272   8.389  0.9991 -1.1707  0.4463
  365MOL0     H49236   8.744  11.306   8.472  0.0023  1.0165  2.7266
  365MOL0     H49237   9.020  11.461   8.760  0.6021 -0.8749  2.2425
  365MOL0     H49238   9.261  11.443   8.854 -0.9102 -0.5240  0.4277
  365MOL0     H49239   9.597  11.584   8.591 -0.2361 -2.7672 -0.2240
  365MOL0     H49240   9.502  11.701   8.694  0.9404 -0.8724  1.5680
  365MOL0     H49241   9.614  11.625   8.890 -1.1820 -0.2009 -0.5297
  365MOL0     H49242   9.699  11.498   8.804 -0.1910 -0.0586 -1.1265
  365MOL0     H49243   9.792  11.672   8.641  0.4202  0.7434 -0.0444
  365MOL0     H49244   9.732  11.795   8.758 -1.8253 -1.0104  0.1678
  365MOL0     H49245   9.960  11.590   8.777  0.5656  0.2127  1.0259
  365MOL0     H49246   9.908  11.667   8.931 -1.6176 -2.1219  1.1873
  365MOL0     H49247   9.957  11.892   8.820  1.4406  0.0915  0.5211
  365MOL0     H49248  10.019  11.806   8.679 -1.8869 -0.2817 -0.0603
  365MOL0     H49249  10.128  11.831   8.962  2.0146  2.7379  0.3012
  365MOL0     H49250  10.190  11.701   8.842  2.3283  1.2769 -0.2270
  365MOL0     H49251  10.182  12.001   8.799  1.3112  0.2889 -1.6862
  365MOL0     H49252  10.231  11.877   8.692  0.4404  1.7272 -0.0495
  365MOL0     H49253  10.424  11.821   8.824  0.7864  0.8151 -1.5926
  365MOL0     H49254  10.422  11.990   8.777 -0.2347  0.2688 -0.9514
  365MOL0     H49255   9.416  11.546   8.476 -1.4681  2.0585 -0.7592
  365MOL0     H49256   9.186  11.481   8.364 -5.2177  0.7114 -0.0211
  365MOL0     H49257   8.718  11.719   8.318 -2.1231  1.5787  2.4014
  365MOL0     H49258   8.512  11.650   8.208  2.1264 -0.1003 -2.1744
  365MOL0     H49259   6.798  11.098   7.367  0.8647 -1.0780 -1.4256
  365MOL0     H49260   6.551  11.049   7.321 -0.9978 -2.1223 -1.5581
  365MOL0     H49261   6.186  10.887   7.448 -1.3083  1.3020 -1.9385
  365MOL0     H49262   5.958  10.851   7.479  0.6246  0.7733  0.5498
  365MOL0     H49263   5.646  10.553   7.363 -0.3641  1.2431 -1.8829
  365MOL0     H49264   5.794  10.452   7.348  0.4388  0.3768  1.3568
  365MOL0     H49265   5.871  10.565   7.157  0.9070  3.0766 -0.3563
  365MOL0     H49266   5.773  10.704   7.187 -0.2176 -0.2864 -0.5861
  365MOL0     H49267   5.674  10.435   7.116  1.3939 -0.8199 -1.9355
  365MOL0     H49268   5.717  10.543   6.990  2.3724  0.0880  1.2280
  365MOL0     H49269   5.497  10.587   7.192 -2.8120 -0.1619 -1.1146
  365MOL0     H49270   5.571  10.721   7.092 -0.3701  1.2090  2.8614
  365MOL0     H49271   5.306  10.522   6.820  1.3188 -1.8954 -1.2068
  365MOL0     H49272   6.006  10.444   7.341  1.3721  0.1965 -1.1934
  365MOL0     H49273   6.307  10.457   7.228 -0.9860 -1.8263  0.0761
  365MOL0     H49274   6.367  10.445   7.395  0.1909 -1.3471  1.0996
  365MOL0     H49275   6.225  10.351   7.328 -0.1783  0.7190 -2.3166
  366MOL0     O49276   8.018   0.490   7.197 -0.3106 -0.7487  0.3629
  366MOL0     C49277   7.954   0.582   7.249 -0.2330  0.1144  0.3913
  366MOL0     O49278   7.998   0.712   7.250 -0.3964 -0.3535  0.3439
  366MOL0     C49279   8.109   0.749   7.171 -1.1898 -0.4128  0.2175
  366MOL0     C49280   8.102   0.882   7.139 -0.0480  0.8808  0.6181
  366MOL0     C49281   8.212   0.943   7.068  0.4960 -0.1479 -0.6116
  366MOL0     C49282   8.329   0.873   7.029 -0.1181 -0.2243 -0.3910
  366MOL0     O49283   8.429   0.944   6.964 -0.0395 -0.3999 -0.2157
  366MOL0     C49284   8.532   0.865   6.890 -0.6357 -0.3700  0.5258
  366MOL0     C49285   8.641   0.963   6.845 -0.9814 -0.1171  0.2303
  366MOL0     C49286   8.722   1.013   6.971  0.6926  0.3916 -0.4706
  366MOL0     C49287   8.710   1.169   6.985 -0.4182 -0.1563 -0.1838
  366MOL0     C49288   8.768   1.226   7.125  0.7691  0.6200  0.3914
  366MOL0     C49289   8.911   1.219   7.146 -0.0104  0.3399  0.1621
  366MOL0     C49290   8.957   1.078   7.206  0.2264  0.0513  0.3270
  366MOL0     C49291   9.111   1.071   7.197 -0.1635  0.3805  0.5199
  366MOL0     N49292   9.193   1.152   7.294  0.3163  0.8745  0.5966
  366MOL0     C49293   9.326   1.132   7.324 -0.2134  1.2174  0.6854
  366MOL0     C49294   9.353   1.226   7.418 -0.7292 -0.7977 -0.1208
  366MOL0     C49295   9.487   1.228   7.489 -0.1479 -0.0017 -0.7386
  366MOL0     C49296   9.474   1.291   7.636  0.7269 -0.2946 -0.9294
  366MOL0     C49297   9.524   1.438   7.645  0.3932  0.8271 -0.0344
  366MOL0     C49298   9.471   1.547   7.540  0.0863  0.4679 -0.3964
  366MOL0     O49299   9.503   1.673   7.596 -0.2795 -0.8976 -0.1344
  366MOL0     C49300   9.629   1.729   7.585  0.0897  0.1503 -0.3436
  366MOL0     C49301   9.728   1.691   7.492  0.6848 -1.0249 -0.2752
  366MOL0     C49302   9.856   1.745   7.499  0.4698  0.5587  0.7982
  366MOL0     C49303   9.896   1.837   7.601 -1.0815  0.6080  0.9095
  366MOL0     C49304  10.033   1.898   7.599 -0.4391 -0.6637 -0.5692
  366MOL0     O49305  10.115   1.830   7.515 -0.2722 -0.5279 -0.0218
  366MOL0     C49306  10.250   1.865   7.500 -0.5992  0.3212  0.0254
  366MOL0     C49307  10.337   1.759   7.456 -0.6382 -0.5123  0.2088
  366MOL0     C49308  10.473   1.766   7.436  0.1006  0.1712 -0.8201
  366MOL0     C49309  10.536   1.885   7.450  0.4302  0.9737 -0.6253
  366MOL0     O49310  10.667   1.902   7.414  0.2164  0.0372  0.6225
  366MOL0     C49311  10.708   2.005   7.324 -0.3769  0.4013  0.7770
  366MOL0     C49312  10.847   1.973   7.258 -0.3397 -1.0274 -0.4206
  366MOL0     C49313  10.853   1.847   7.166  0.1528  0.3060 -0.7774
  366MOL0     C49314  10.990   1.811   7.110  0.7841 -0.5800  0.6985
  366MOL0     C49315  10.986   1.701   7.005 -0.4811 -0.4076 -0.3390
  366MOL0     C49316  11.091   1.717   6.905 -0.0462  0.2859  0.4395
  366MOL0     C49317  11.107   1.616   6.793 -0.0770  0.0123 -0.5561
  366MOL0     C49318  10.975   1.603   6.721  0.4843  0.3722  0.7749
  366MOL0    Cl49319  10.925   1.743   6.614 -0.1194  0.2297  0.1529
  366MOL0     C49320  10.455   1.998   7.486  0.4167  0.0970 -0.0489
  366MOL0     C49321  10.309   1.991   7.507 -0.3114  0.2404 -0.4289
  366MOL0     O49322  10.059   2.000   7.663 -0.0226 -0.4767  0.1924
  366MOL0     C49323   9.803   1.868   7.695 -0.1299  0.1595  0.7252
  366MOL0     C49324   9.666   1.811   7.685 -0.1005 -0.3314  0.3154
  366MOL0     N49325   9.240   1.306   7.433 -1.0910 -1.1440  0.4300
  366MOL0     N49326   9.145   1.266   7.359 -0.3743  0.5874  0.4956
  366MOL0     C49327   8.323   0.731   7.055 -0.5113 -0.1471  1.0664
  366MOL0     C49328   8.221   0.675   7.124 -0.4368  0.0519 -0.8427
  366MOL0     C49329   7.821   0.553   7.314  0.5205  0.1378  0.2307
  366MOL0     C49330   7.737   0.469   7.253 -0.4774  0.7135 -0.2064
  366MOL0     C49331   7.613   0.449   7.302  0.1380  0.0946 -0.2956
  366MOL0     C49332   7.551   0.523   7.404  0.0518 -0.6612  0.2319
  366MOL0     O49333   7.427   0.508   7.455  0.2499 -0.2746 -0.5928
  366MOL0     C49334   7.355   0.392   7.416 -0.0066 -0.4105  0.7097
  366MOL0     C49335   7.236   0.358   7.500 -0.4407 -0.5572 -0.5203
  366MOL0     C49336   7.124   0.470   7.506 -0.7950 -0.1061 -0.3529
  366MOL0     C49337   7.041   0.469   7.630  0.7094 -1.0451 -0.2462
  366MOL0     C49338   7.010   0.334   7.690  0.3967 -0.4772 -0.2447
  366MOL0     C49339   6.986   0.225   7.741 -0.2133 -0.2652  0.8245
  366MOL0     C49340   7.642   0.612   7.469 -0.3144  0.2760  0.4384
  366MOL0     C49341   7.776   0.622   7.432  1.1944 -0.7354 -0.5427
  366MOL0     C49342   7.872   0.708   7.521 -0.5384  0.3051 -0.1738
  366MOL0     H49343   8.016   0.936   7.177 -0.4599 -0.4894  1.6892
  366MOL0     H49344   8.202   1.049   7.049 -0.9982 -0.4245 -1.5163
  366MOL0     H49345   8.569   0.782   6.950 -0.9544  0.2911  1.6684
  366MOL0     H49346   8.497   0.812   6.801  0.7200 -4.0839  2.0202
  366MOL0     H49347   8.589   1.045   6.796 -0.8525  1.6002  2.7614
  366MOL0     H49348   8.719   0.917   6.784 -1.1177 -0.4439  0.3022
  366MOL0     H49349   8.826   0.978   6.965  1.3011  1.9301  0.4644
  366MOL0     H49350   8.678   0.960   7.057 -1.0396  3.3565  0.5935
  366MOL0     H49351   8.767   1.220   6.906 -1.8460  2.3977  0.3201
  366MOL0     H49352   8.606   1.200   6.974 -0.9807 -2.2822 -1.1828
  366MOL0     H49353   8.733   1.329   7.132  2.4405  1.3119 -0.8276
  366MOL0     H49354   8.724   1.163   7.203  1.3368 -0.7741 -0.3637
  366MOL0     H49355   8.959   1.240   7.050 -1.2584  0.1535 -0.5285
  366MOL0     H49356   8.943   1.293   7.220 -1.4921  0.8813  0.2982
  366MOL0     H49357   8.907   0.999   7.150 -0.3833  1.5279 -1.3066
  366MOL0     H49358   8.936   1.067   7.312  4.1343 -1.1606  1.1634
  366MOL0     H49359   9.147   0.969   7.210 -1.6245 -0.4070 -1.1392
  366MOL0     H49360   9.146   1.104   7.099  1.4179  1.0142  1.2604
  366MOL0     H49361   9.385   1.049   7.288  0.0051  1.8415 -0.4476
  366MOL0     H49362   9.526   1.129   7.514  3.0693  1.5653  0.9515
  366MOL0     H49363   9.557   1.282   7.425 -2.9832  2.5371 -1.9488
  366MOL0     H49364   9.376   1.265   7.676  2.7497 -4.7203  2.0625
  366MOL0     H49365   9.540   1.248   7.712  0.8695 -0.6040 -1.2262
  366MOL0     H49366   9.631   1.420   7.633  0.3597  1.1171 -0.8699
  366MOL0     H49367   9.504   1.483   7.743  3.4825  2.4202 -0.0078
  366MOL0     H49368   9.362   1.540   7.533  0.0898  1.8402 -2.4844
  366MOL0     H49369   9.514   1.538   7.440  1.8087 -1.8053  0.4467
  366MOL0     H49370   9.708   1.624   7.408  0.3059 -1.0340 -0.1788
  366MOL0     H49371   9.936   1.704   7.438 -1.4633  1.3155 -2.4550
  366MOL0     H49372  10.280   1.667   7.451 -1.6904  0.1516 -0.3703
  366MOL0     H49373  10.530   1.679   7.407 -1.5277 -1.2868  0.1547
  366MOL0     H49374  10.627   2.023   7.253  0.3387 -0.3750 -0.2756
  366MOL0     H49375  10.708   2.099   7.381  0.0635  0.4854  0.6460
  366MOL0     H49376  10.867   2.061   7.196 -0.0185  0.3989  1.6013
  366MOL0     H49377  10.932   1.972   7.326 -0.7793 -1.2511  0.1380
  366MOL0     H49378  10.825   1.758   7.223  0.9766  1.6501  1.8579
  366MOL0     H49379  10.783   1.866   7.083 -0.4501  3.2611  0.2939
  366MOL0     H49380  11.062   1.792   7.190  0.7397 -1.1875  0.6026
  366MOL0     H49381  11.017   1.904   7.060 -0.7540  1.6661  3.7516
  366MOL0     H49382  10.890   1.703   6.951 -0.1577  0.7399 -0.8929
  366MOL0     H49383  10.987   1.599   7.046 -2.3834 -2.4131 -4.5981
  366MOL0     H49384  11.083   1.815   6.857  0.8975  0.2190  0.1214
  366MOL0     H49385  11.187   1.721   6.958  0.0596  2.4002  0.1965
  366MOL0     H49386  11.129   1.515   6.829 -3.0176 -2.5076 -4.8627
  366MOL0     H49387  11.173   1.658   6.716  0.7007  0.4709  0.3450
  366MOL0     H49388  11.003   1.522   6.652  2.7347  1.9787 -0.3040
  366MOL0     H49389  10.891   1.557   6.775  1.5813 -0.2568  2.0038
  366MOL0     H49390  10.491   2.100   7.494 -0.0123  0.1657  1.4770
  366MOL0     H49391  10.251   2.080   7.529 -0.1640 -0.0541  1.2834
  366MOL0     H49392   9.839   1.929   7.778 -0.0304 -0.2450  0.9831
  366MOL0     H49393   9.598   1.834   7.767  1.1316 -0.0323  1.3054
  366MOL0     H49394   8.409   0.669   7.033 -0.0050  0.7150  0.5864
  366MOL0     H49395   8.236   0.571   7.153  2.8716  1.3611  3.2798
  366MOL0     H49396   7.775   0.419   7.165  3.5223  1.6664  0.7908
  366MOL0     H49397   7.554   0.373   7.253  2.3882 -2.0940  0.1790
  366MOL0     H49398   7.417   0.302   7.425 -2.0109 -2.3147 -2.1997
  366MOL0     H49399   7.324   0.410   7.313  0.7640 -2.8116 -0.0244
  366MOL0     H49400   7.269   0.330   7.601  0.4683  0.8578 -0.4088
  366MOL0     H49401   7.187   0.277   7.444  0.4804 -1.1658 -0.4590
  366MOL0     H49402   7.064   0.460   7.415 -2.2734  2.9511  0.1491
  366MOL0     H49403   7.180   0.564   7.503  2.0315 -1.5908  1.3004
  366MOL0     H49404   7.083   0.543   7.699 -0.5262  0.5022 -1.0939
  366MOL0     H49405   6.944   0.513   7.607  0.5842 -1.1992 -0.0175
  366MOL0     H49406   6.984   0.131   7.793 -0.5270  0.4587  2.1689
  366MOL0     H49407   7.601   0.664   7.556 -1.9720  0.8914 -0.6511
  366MOL0     H49408   7.864   0.813   7.492  0.6061  0.3153 -0.4951
  366MOL0     H49409   7.868   0.709   7.630  2.6891  2.0879  0.0645
  366MOL0     H49410   7.977   0.684   7.504 -0.0941 -0.1087  2.7258
  367MOL0     O49411   6.293   6.187   2.804 -0.4421  0.9701  0.7125
  367MOL0     C49412   6.219   6.173   2.705 -0.8162 -0.4364 -0.3407
  367MOL0     O49413   6.264   6.174   2.576  0.2486  0.3282 -1.1608
  367MOL0     C49414   6.398   6.204   2.559  0.4999 -0.4671 -0.1129
  367MOL0     C49415   6.485   6.099   2.515 -0.8315 -0.5980  0.1364
  367MOL0     C49416   6.613   6.140   2.477 -0.3088  0.1999 -0.3194
  367MOL0     C49417   6.650   6.277   2.479 -0.0120 -0.3032 -0.2655
  367MOL0     O49418   6.776   6.302   2.454  0.0466  0.1437  0.7187
  367MOL0     C49419   6.824   6.431   2.447 -0.0414 -0.4297 -0.2658
  367MOL0     C49420   6.962   6.431   2.514 -1.0915  0.0787  0.9887
  367MOL0     C49421   7.027   6.561   2.469  0.0428  0.1522  0.1734
  367MOL0     C49422   7.150   6.586   2.553  0.3840 -0.2483  0.5587
  367MOL0     C49423   7.222   6.719   2.500  0.0771  0.5200 -0.4395
  367MOL0     C49424   7.361   6.743   2.572  0.7223  0.4445 -0.0983
  367MOL0     C49425   7.434   6.860   2.521  0.5129 -0.0046  0.5695
  367MOL0     C49426   7.534   6.908   2.619  0.8080  0.2309  0.4494
  367MOL0     N49427   7.626   7.004   2.567 -0.3018  0.1256 -0.4654
  367MOL0     C49428   7.745   6.973   2.511 -0.1910  0.7333  0.2227
  367MOL0     C49429   7.793   7.090   2.473 -0.5532 -0.2261  0.3569
  367MOL0     C49430   7.919   7.100   2.415 -0.0027 -0.0848 -0.6876
  367MOL0     C49431   8.034   7.162   2.500  0.7524 -0.1442 -0.0457
  367MOL0     C49432   8.068   7.103   2.632  0.5961  1.0095 -0.2360
  367MOL0     C49433   8.155   7.203   2.723  0.1427  0.2783  0.0433
  367MOL0     O49434   8.287   7.235   2.666  0.4362  0.6339  0.1189
  367MOL0     C49435   8.390   7.170   2.719  0.0363 -0.9127  1.5689
  367MOL0     C49436   8.456   7.211   2.828 -0.0199 -0.2361  0.0893
  367MOL0     C49437   8.549   7.130   2.889  0.0424  0.1670 -0.4092
  367MOL0     C49438   8.579   7.008   2.828  0.0248  1.0265  0.1419
  367MOL0     C49439   8.689   6.920   2.879 -0.5111 -0.0877  0.2815
  367MOL0     O49440   8.725   6.808   2.805 -0.1272 -0.1617  0.8003
  367MOL0     C49441   8.797   6.706   2.861  0.3067 -0.1394  0.2176
  367MOL0     C49442   8.740   6.582   2.871  0.2870 -0.3738  0.8154
  367MOL0     C49443   8.816   6.475   2.922 -0.8139 -0.0598 -0.2473
  367MOL0     C49444   8.957   6.499   2.953  0.6552 -0.7591  0.3808
  367MOL0     O49445   9.040   6.390   2.994  0.0255  0.0895  0.2523
  367MOL0     C49446   9.180   6.399   2.957 -0.0509 -0.6816  0.1685
  367MOL0     C49447   9.220   6.258   2.917 -0.5185  0.0622 -0.2695
  367MOL0     C49448   9.135   6.212   2.802  0.1445  0.0739 -0.3206
  367MOL0     C49449   9.172   6.059   2.772  0.3490  0.3468  0.0846
  367MOL0     C49450   9.060   5.968   2.695  0.2774 -0.7116  0.0505
  367MOL0     C49451   9.029   6.032   2.563 -0.2623 -0.2144  0.3192
  367MOL0     C49452   8.939   5.942   2.484 -0.6933 -0.6154 -0.0822
  367MOL0     C49453   8.934   5.987   2.343  0.6177  0.5551  0.7625
  367MOL0    Cl49454   8.796   5.894   2.277 -0.0346  0.5505 -0.2234
  367MOL0     C49455   9.008   6.627   2.953  0.1549 -0.4139 -1.0175
  367MOL0     C49456   8.929   6.732   2.904  0.8541  0.3727 -0.7176
  367MOL0     O49457   8.738   6.947   2.990  0.0200  0.0310  1.2261
  367MOL0     C49458   8.514   6.969   2.715 -0.2468 -0.8375 -0.0748
  367MOL0     C49459   8.417   7.046   2.661 -0.4657  0.0645  0.2120
  367MOL0     N49460   7.704   7.187   2.506  0.7241 -0.8490 -0.3050
  367MOL0     N49461   7.606   7.134   2.562  0.1034 -0.3276  0.3002
  367MOL0     C49462   6.562   6.375   2.529  0.0318  0.3659  0.5399
  367MOL0     C49463   6.433   6.338   2.563 -0.0751 -0.6650 -1.0650
  367MOL0     C49464   6.076   6.157   2.720  0.1393 -0.1964 -0.6797
  367MOL0     C49465   6.006   6.093   2.621  1.4895 -0.0490  0.1947
  367MOL0     C49466   5.869   6.057   2.645 -0.6667 -0.1159  0.1123
  367MOL0     C49467   5.799   6.098   2.755 -1.1615 -0.6143 -0.1361
  367MOL0     O49468   5.671   6.049   2.774 -0.4199  0.5436  0.5644
  367MOL0     C49469   5.587   6.074   2.891 -0.2226  0.2489  0.0522
  367MOL0     C49470   5.439   6.060   2.850  0.9342  0.1297  0.4654
  367MOL0     C49471   5.376   5.920   2.833  0.6899 -0.3291  1.0393
  367MOL0     C49472   5.224   5.941   2.822  0.3192 -0.0992  0.5192
  367MOL0     C49473   5.153   5.818   2.772 -0.0277 -0.1840  0.8772
  367MOL0     C49474   5.083   5.722   2.753 -0.8465  0.5642 -0.3227
  367MOL0     C49475   5.874   6.165   2.852  0.5252 -0.8002  0.0249
  367MOL0     C49476   6.002   6.197   2.842 -0.4762  0.2339  0.5036
  367MOL0     C49477   6.061   6.270   2.957  0.6683  0.3135 -0.2831
  367MOL0     H49478   6.454   5.995   2.511 -0.1867 -0.8913  1.6714
  367MOL0     H49479   6.685   6.068   2.440 -3.5432 -2.7556 -1.3706
  367MOL0     H49480   6.825   6.464   2.343 -0.4323  0.3069 -0.0388
  367MOL0     H49481   6.770   6.510   2.500  0.1504 -0.4776  0.0032
  367MOL0     H49482   7.021   6.350   2.470  0.8501  2.2167 -0.5986
  367MOL0     H49483   6.960   6.398   2.618 -0.4099 -1.9066  0.4301
  367MOL0     H49484   6.947   6.634   2.485 -0.4782  0.3389 -2.7840
  367MOL0     H49485   7.053   6.560   2.363 -0.2725 -0.5171  0.1012
  367MOL0     H49486   7.103   6.589   2.652 -1.8221 -3.0004 -0.2463
  367MOL0     H49487   7.226   6.507   2.549  0.7015  0.0797 -2.6774
  367MOL0     H49488   7.235   6.704   2.392 -0.0978 -1.1110 -0.2661
  367MOL0     H49489   7.159   6.806   2.521 -2.1508 -0.5109 -2.3595
  367MOL0     H49490   7.337   6.761   2.678  0.8465 -0.5354  0.1062
  367MOL0     H49491   7.424   6.653   2.576  1.3788  0.8662 -0.7041
  367MOL0     H49492   7.363   6.936   2.486  0.5242 -0.4329 -0.4094
  367MOL0     H49493   7.488   6.825   2.432 -1.7563 -1.6673 -0.2421
  367MOL0     H49494   7.475   6.944   2.704  1.0248 -0.7012  1.0104
  367MOL0     H49495   7.588   6.821   2.659  3.1378  0.2405 -2.3521
  367MOL0     H49496   7.785   6.873   2.501 -1.1930  0.4449 -1.2598
  367MOL0     H49497   7.958   7.002   2.386  1.6286  1.0527 -2.6994
  367MOL0     H49498   7.904   7.162   2.326 -1.5918 -1.2972 -1.3106
  367MOL0     H49499   8.123   7.156   2.436  0.8239  2.7250 -0.3335
  367MOL0     H49500   8.015   7.269   2.510 -0.8476 -0.2896 -1.0630
  367MOL0     H49501   8.129   7.013   2.627 -1.5366 -0.4728 -2.7247
  367MOL0     H49502   7.969   7.095   2.678  0.1154  2.7761 -0.8824
  367MOL0     H49503   8.175   7.166   2.823  1.7462 -1.2761 -0.8033
  367MOL0     H49504   8.089   7.290   2.728 -4.5723 -2.6676 -2.6419
  367MOL0     H49505   8.448   7.310   2.872  1.3377 -0.7457  1.6207
  367MOL0     H49506   8.600   7.148   2.983  2.2911 -2.6975 -0.9108
  367MOL0     H49507   8.643   6.560   2.828  0.3710 -0.0128  0.4458
  367MOL0     H49508   8.766   6.381   2.941  1.3030 -0.9348  1.3310
  367MOL0     H49509   9.198   6.462   2.870 -0.3179  1.8744  1.8428
  367MOL0     H49510   9.248   6.436   3.034  1.2598 -0.1138 -1.2267
  367MOL0     H49511   9.327   6.255   2.898 -0.5380  1.4907 -0.7230
  367MOL0     H49512   9.204   6.192   3.003  0.3271  0.7905  0.4667
  367MOL0     H49513   9.030   6.219   2.831  0.1766 -0.4415 -0.0819
  367MOL0     H49514   9.162   6.279   2.719  0.4517  0.2372 -0.0940
  367MOL0     H49515   9.196   6.009   2.866 -2.4750 -1.1332  0.1137
  367MOL0     H49516   9.263   6.062   2.711 -0.2594 -2.1924 -1.0942
  367MOL0     H49517   8.970   5.958   2.756  0.7291 -0.9842  0.6855
  367MOL0     H49518   9.099   5.867   2.678 -2.4020 -1.3546 -3.1635
  367MOL0     H49519   8.971   6.124   2.577  0.3872 -0.1197  2.7155
  367MOL0     H49520   9.119   6.051   2.505 -2.1158  1.8412 -2.1136
  367MOL0     H49521   8.838   5.962   2.520 -1.0659 -0.3524 -1.2457
  367MOL0     H49522   8.966   5.836   2.483  1.0910 -0.1970 -0.9741
  367MOL0     H49523   8.913   6.093   2.331 -0.1517  0.4508  1.1284
  367MOL0     H49524   9.028   5.971   2.290 -0.9397 -3.1091 -1.3173
  367MOL0     H49525   9.111   6.644   2.984  0.5313  1.9190 -3.1843
  367MOL0     H49526   8.968   6.833   2.905 -1.5648  1.3857  1.7416
  367MOL0     H49527   8.530   6.872   2.667  2.3492 -0.4463 -0.1697
  367MOL0     H49528   8.363   7.019   2.571  1.6512 -1.5354 -0.6565
  367MOL0     H49529   6.584   6.481   2.524  3.0548 -0.1413  1.0401
  367MOL0     H49530   6.355   6.412   2.577  2.1002  1.7113 -0.7256
  367MOL0     H49531   6.055   6.043   2.538 -1.6833 -1.8337 -0.7618
  367MOL0     H49532   5.809   5.995   2.580 -2.6939  1.8681 -0.0308
  367MOL0     H49533   5.596   6.180   2.918  0.7559  0.9644 -2.8107
  367MOL0     H49534   5.599   6.006   2.976  1.0245  0.4887  0.0839
  367MOL0     H49535   5.412   6.120   2.763 -0.2148  0.7162  1.1924
  367MOL0     H49536   5.388   6.108   2.934  0.1902 -0.1933  0.2056
  367MOL0     H49537   5.408   5.854   2.914  0.6256 -0.1954  1.1754
  367MOL0     H49538   5.407   5.878   2.737 -1.8517 -1.3262  0.5592
  367MOL0     H49539   5.176   5.951   2.920 -1.2362 -3.9028  0.3288
  367MOL0     H49540   5.189   6.024   2.759  1.3931  1.0637  1.4172
  367MOL0     H49541   5.028   5.636   2.722 -2.4925  2.1021 -1.9097
  367MOL0     H49542   5.820   6.169   2.946 -2.2264 -1.3862 -1.4395
  367MOL0     H49543   6.094   6.207   3.040  0.0326  3.2673  2.3618
  367MOL0     H49544   6.138   6.338   2.918 -1.6501  2.4766 -1.3766
  367MOL0     H49545   5.988   6.343   2.992  0.3763 -1.0322  2.0832
  368MOL0     O49546   2.101   1.236   6.916  0.3098 -0.9944 -0.2036
  368MOL0     C49547   2.084   1.209   6.795 -0.8734 -0.0372 -0.1615
  368MOL0     O49548   2.195   1.201   6.708  0.6580  0.0128 -0.0055
  368MOL0     C49549   2.319   1.191   6.758 -0.1037 -0.7893  0.9356
  368MOL0     C49550   2.386   1.300   6.798 -0.5741 -0.0420  0.6566
  368MOL0     C49551   2.511   1.290   6.859 -0.7919 -0.6440  0.1481
  368MOL0     C49552   2.588   1.172   6.855  0.3641  0.6355  1.0555
  368MOL0     O49553   2.717   1.162   6.904 -0.0032  0.5908 -0.0679
  368MOL0     C49554   2.772   1.285   6.955  0.1062  0.2639  0.0593
  368MOL0     C49555   2.884   1.253   7.040 -0.2764 -0.2504  0.1830
  368MOL0     C49556   2.987   1.179   6.953  0.3757 -0.2772  0.1673
  368MOL0     C49557   3.120   1.144   7.039 -0.0998 -0.0754 -0.0522
  368MOL0     C49558   3.224   1.091   6.931  0.3491 -0.6430 -0.4926
  368MOL0     C49559   3.350   1.035   6.999  0.2506 -0.9516 -0.2829
  368MOL0     C49560   3.445   0.960   6.913  0.6115 -0.4353 -0.1491
  368MOL0     C49561   3.505   1.041   6.796  0.0026 -0.2121 -1.5757
  368MOL0     N49562   3.572   0.973   6.691 -0.0752  1.3644  0.4346
  368MOL0     C49563   3.655   0.861   6.704 -0.9247 -0.2003  0.4879
  368MOL0     C49564   3.704   0.847   6.584 -0.4469  0.2036  0.3413
  368MOL0     C49565   3.791   0.730   6.556 -1.1238 -0.2830  0.1398
  368MOL0     C49566   3.946   0.767   6.583  0.3912  0.0312 -0.4372
  368MOL0     C49567   4.001   0.877   6.500 -0.3118 -0.1110  0.3811
  368MOL0     C49568   4.155   0.899   6.506 -0.0037 -0.5851 -0.6961
  368MOL0     O49569   4.188   0.951   6.631  0.2272 -0.1321  0.3485
  368MOL0     C49570   4.312   0.922   6.678  0.2863  0.1934 -0.6237
  368MOL0     C49571   4.328   0.801   6.752  0.6246 -1.2056  0.6175
  368MOL0     C49572   4.453   0.763   6.805 -0.2164  0.5035  0.0304
  368MOL0     C49573   4.568   0.846   6.784  1.3403  0.5951  0.3585
  368MOL0     C49574   4.686   0.818   6.861  0.0993 -1.0034 -0.0007
  368MOL0     O49575   4.808   0.847   6.802 -0.5517  0.5248  0.1920
  368MOL0     C49576   4.922   0.825   6.868 -0.3031 -0.3660  0.0859
  368MOL0     C49577   5.013   0.932   6.868 -1.1668 -0.0352 -0.2348
  368MOL0     C49578   5.137   0.919   6.940 -0.1162  0.6478 -0.5327
  368MOL0     C49579   5.164   0.796   7.020 -0.2831  0.4278  0.2613
  368MOL0     O49580   5.276   0.773   7.096  0.1668  0.3198  0.6704
  368MOL0     C49581   5.391   0.858   7.086  0.2282  0.1180 -0.8366
  368MOL0     C49582   5.515   0.781   7.133 -0.9268 -0.8540  0.4840
  368MOL0     C49583   5.639   0.869   7.112  0.0153  0.5522 -0.4785
  368MOL0     C49584   5.768   0.798   7.115 -0.0303  0.5407  0.3079
  368MOL0     C49585   5.888   0.885   7.064 -0.1156  0.4674  0.1274
  368MOL0     C49586   5.920   1.013   7.143  0.8596  1.1235  0.6590
  368MOL0     C49587   6.035   1.084   7.077  0.4562  1.0405  0.9882
  368MOL0     C49588   6.088   1.210   7.159  0.2607 -0.2221  0.2367
  368MOL0    Cl49589   5.959   1.328   7.194  0.3065  0.5686 -0.1353
  368MOL0     C49590   5.076   0.695   7.011 -0.3557  0.0034 -0.5751
  368MOL0     C49591   4.955   0.704   6.942  0.4393 -0.3639 -0.2158
  368MOL0     O49592   4.671   0.769   6.975  0.6494  0.2894 -0.2702
  368MOL0     C49593   4.549   0.951   6.694 -0.6655 -0.4171 -1.0721
  368MOL0     C49594   4.423   0.988   6.645 -0.3086 -0.4392 -0.1331
  368MOL0     N49595   3.656   0.943   6.502  0.3139 -0.5132  0.7101
  368MOL0     N49596   3.571   1.019   6.565 -0.0841  0.1179 -0.1702
  368MOL0     C49597   2.522   1.064   6.798 -0.2563 -0.2023  0.7720
  368MOL0     C49598   2.392   1.067   6.754  0.2591 -0.2064 -0.3567
  368MOL0     C49599   1.953   1.161   6.749 -0.5750  0.1248  0.5712
  368MOL0     C49600   1.953   1.036   6.687  0.1355  0.2825 -0.3498
  368MOL0     C49601   1.838   0.960   6.664  0.1071  0.2157  0.5220
  368MOL0     C49602   1.722   1.017   6.700 -0.0701  0.3379 -0.5119
  368MOL0     O49603   1.599   0.955   6.685 -0.1048  0.4459  0.0304
  368MOL0     C49604   1.589   0.816   6.674 -0.6071  0.3268  0.3047
  368MOL0     C49605   1.458   0.762   6.741  0.3093 -0.0212 -0.4006
  368MOL0     C49606   1.335   0.837   6.711  0.1248  0.0480 -0.3397
  368MOL0     C49607   1.206   0.753   6.727 -0.7098 -0.0026  1.1649
  368MOL0     C49608   1.086   0.833   6.744 -0.1657  1.2404 -0.2607
  368MOL0     C49609   0.984   0.893   6.760 -1.2271  0.1980 -0.5986
  368MOL0     C49610   1.713   1.144   6.756 -0.6553 -0.1371  0.0602
  368MOL0     C49611   1.828   1.223   6.778 -0.3384  0.0973 -0.6887
  368MOL0     C49612   1.822   1.369   6.824 -0.3246 -0.0244 -0.2359
  368MOL0     H49613   2.338   1.397   6.788  0.6005  0.4261 -0.9572
  368MOL0     H49614   2.551   1.388   6.881 -0.0130 -0.7761 -0.6021
  368MOL0     H49615   2.809   1.348   6.873  1.7774 -0.3619  0.2830
  368MOL0     H49616   2.699   1.331   7.022 -1.2682 -1.7154 -0.0060
  368MOL0     H49617   2.844   1.182   7.113 -0.1499 -1.0339 -0.4946
  368MOL0     H49618   2.941   1.341   7.068 -2.7748  1.3346  0.5552
  368MOL0     H49619   2.997   1.240   6.863 -1.0845  0.4637  0.4841
  368MOL0     H49620   2.938   1.086   6.923 -0.3231 -0.1715  0.9702
  368MOL0     H49621   3.150   1.234   7.094 -2.0623 -0.2686  1.4342
  368MOL0     H49622   3.105   1.066   7.114 -2.2509 -1.7999 -2.1360
  368MOL0     H49623   3.185   1.022   6.856 -0.0307 -0.4863 -0.4407
  368MOL0     H49624   3.254   1.183   6.881  4.6975 -1.9256 -0.6785
  368MOL0     H49625   3.405   1.124   7.032  2.6339 -2.5166  0.2692
  368MOL0     H49626   3.332   0.967   7.083  2.3678 -2.7655 -1.1720
  368MOL0     H49627   3.385   0.879   6.871 -1.2845  1.9381 -2.3791
  368MOL0     H49628   3.523   0.924   6.981 -0.4871  0.1774  1.5219
  368MOL0     H49629   3.418   1.087   6.749 -0.4934 -3.1270 -3.7961
  368MOL0     H49630   3.567   1.119   6.841 -1.3069  0.1255 -0.2796
  368MOL0     H49631   3.682   0.796   6.787 -0.0720 -1.8926 -1.0395
  368MOL0     H49632   3.763   0.637   6.606 -0.8148 -0.6795 -0.4129
  368MOL0     H49633   3.793   0.694   6.453  2.3259 -2.9505  0.9151
  368MOL0     H49634   3.959   0.786   6.690  0.8459  0.8758 -0.6295
  368MOL0     H49635   3.998   0.672   6.571  2.5674  0.3737  4.0869
  368MOL0     H49636   3.949   0.971   6.522 -0.5884 -0.8573  3.2223
  368MOL0     H49637   3.981   0.851   6.396 -0.0979 -0.2895  0.3841
  368MOL0     H49638   4.186   0.971   6.429 -4.7401  2.3521 -0.2470
  368MOL0     H49639   4.211   0.806   6.492  1.6698  0.4333 -1.0674
  368MOL0     H49640   4.241   0.745   6.785 -3.1759  2.2933 -2.3487
  368MOL0     H49641   4.470   0.672   6.861 -1.7560 -1.3154 -2.2303
  368MOL0     H49642   4.979   1.023   6.820 -1.5987  0.1345  0.3738
  368MOL0     H49643   5.207   1.000   6.955  0.2136 -0.0552  2.5111
  368MOL0     H49644   5.390   0.885   6.980 -3.0258  1.5097 -0.5687
  368MOL0     H49645   5.371   0.950   7.142 -0.8358 -0.2094 -0.6598
  368MOL0     H49646   5.503   0.773   7.241 -0.2801 -0.8729  0.5599
  368MOL0     H49647   5.514   0.681   7.088 -1.4461 -0.4232 -0.5157
  368MOL0     H49648   5.623   0.910   7.011  0.7639  1.1633 -0.3581
  368MOL0     H49649   5.636   0.950   7.186 -1.0045  0.9480 -0.9261
  368MOL0     H49650   5.768   0.710   7.050 -2.4387  0.8809 -0.2671
  368MOL0     H49651   5.783   0.767   7.218  0.8916 -3.9810 -0.9636
  368MOL0     H49652   5.864   0.909   6.960  0.3796  0.3316 -0.0205
  368MOL0     H49653   5.975   0.819   7.070  0.2491  1.0792  2.1918
  368MOL0     H49654   5.832   1.077   7.140  0.2051  0.2218 -2.0635
  368MOL0     H49655   5.950   0.973   7.241 -2.0531 -1.2073  0.7152
  368MOL0     H49656   5.996   1.120   6.982  0.2259  1.5857  1.2852
  368MOL0     H49657   6.119   1.017   7.058 -0.0161  0.9101 -0.7728
  368MOL0     H49658   6.120   1.164   7.253  0.3734 -0.9144 -0.1321
  368MOL0     H49659   6.174   1.245   7.101  0.4395 -3.5528 -1.7564
  368MOL0     H49660   5.099   0.611   7.076 -0.8011  1.6210  1.8121
  368MOL0     H49661   4.895   0.614   6.939  2.1240 -1.7528  2.8251
  368MOL0     H49662   4.639   1.007   6.671  1.3554 -3.7593 -2.0164
  368MOL0     H49663   4.418   1.079   6.586 -0.5147 -2.0551 -2.7838
  368MOL0     H49664   2.579   0.973   6.778  0.6250  0.5391 -0.2206
  368MOL0     H49665   2.337   0.986   6.707 -2.9379  2.2025 -1.1462
  368MOL0     H49666   2.053   0.997   6.671  1.0652  1.8178  1.3298
  368MOL0     H49667   1.845   0.862   6.618 -1.1112  0.5012 -0.3350
  368MOL0     H49668   1.680   0.761   6.701 -0.7720 -0.6926 -1.0677
  368MOL0     H49669   1.563   0.808   6.568 -2.6925 -1.3041  0.8644
  368MOL0     H49670   1.470   0.756   6.850 -1.9933  1.4065  0.0117
  368MOL0     H49671   1.433   0.664   6.701 -2.4762  0.2710  0.3853
  368MOL0     H49672   1.336   0.880   6.610  3.2142  3.0261  0.7854
  368MOL0     H49673   1.344   0.923   6.777  1.4021 -0.0824 -0.3244
  368MOL0     H49674   1.189   0.695   6.636 -0.7165  4.1112 -1.7421
  368MOL0     H49675   1.216   0.674   6.802 -1.4931 -3.0497 -1.7111
  368MOL0     H49676   0.892   0.948   6.760 -0.6384  1.2087 -1.2073
  368MOL0     H49677   1.616   1.188   6.774 -0.0982  0.1357  2.8657
  368MOL0     H49678   1.854   1.384   6.927 -1.5723 -1.8467  0.4470
  368MOL0     H49679   1.894   1.414   6.754 -0.4814  2.9597  1.3398
  368MOL0     H49680   1.721   1.408   6.808  0.1545  0.4910 -2.4044
  369MOL0     O49681   2.755   7.955  11.103 -0.2164 -0.1066 -0.3694
  369MOL0     C49682   2.702   7.917  11.208 -0.3261  0.3569  0.1576
  369MOL0     O49683   2.760   7.939  11.326  0.0033  0.6219 -0.1147
  369MOL0     C49684   2.898   7.962  11.325  1.1921  0.2334 -0.4480
  369MOL0     C49685   2.939   8.054  11.418  1.1902 -1.2791  0.8586
  369MOL0     C49686   3.079   8.076  11.440 -0.6832  0.2103  0.2660
  369MOL0     C49687   3.175   8.003  11.363 -0.3065 -0.7118 -1.2525
  369MOL0     O49688   3.308   8.028  11.382 -0.2491  0.0255 -0.1152
  369MOL0     C49689   3.360   8.142  11.452  0.3295 -0.8246 -0.4186
  369MOL0     C49690   3.504   8.155  11.482 -0.8050  0.4516 -0.5090
  369MOL0     C49691   3.589   8.183  11.346 -0.1971 -0.9345  0.2749
  369MOL0     C49692   3.739   8.223  11.370 -0.0448 -0.0676 -0.3197
  369MOL0     C49693   3.825   8.217  11.246 -0.2828 -1.0799 -1.6266
  369MOL0     C49694   3.974   8.183  11.273  0.6643 -1.0031 -0.2637
  369MOL0     C49695   4.065   8.176  11.145 -0.0236 -0.7212 -0.9019
  369MOL0     C49696   4.103   8.319  11.097 -0.1062 -0.1803  0.7137
  369MOL0     N49697   4.149   8.407  11.204  0.1522  0.2695  0.1326
  369MOL0     C49698   4.272   8.386  11.254 -0.3254  0.1506  0.4762
  369MOL0     C49699   4.293   8.472  11.355  0.0879 -0.1738  0.1962
  369MOL0     C49700   4.414   8.491  11.441  0.6146 -0.1378 -0.3649
  369MOL0     C49701   4.549   8.537  11.378  0.0938  0.7563  0.9084
  369MOL0     C49702   4.638   8.628  11.469  0.7701  1.1010 -1.0095
  369MOL0     C49703   4.766   8.668  11.406 -0.4155 -0.3945 -0.1220
  369MOL0     O49704   4.851   8.721  11.511 -0.2621  0.9482  0.1703
  369MOL0     C49705   4.984   8.709  11.475  0.0810 -0.8778  0.1241
  369MOL0     C49706   5.034   8.777  11.358 -0.2049  0.0574 -0.1132
  369MOL0     C49707   5.163   8.746  11.314  0.4579  0.4738 -0.2042
  369MOL0     C49708   5.249   8.658  11.389 -0.2281 -0.0056 -0.0290
  369MOL0     C49709   5.397   8.652  11.353  0.0021 -0.7989 -0.9169
  369MOL0     O49710   5.481   8.617  11.454 -0.5651 -0.2548 -0.5330
  369MOL0     C49711   5.615   8.628  11.432 -0.2132  0.3254 -0.3115
  369MOL0     C49712   5.681   8.748  11.394  0.0900 -0.1369  0.5805
  369MOL0     C49713   5.816   8.755  11.396  0.1950 -1.0546 -0.1866
  369MOL0     C49714   5.899   8.649  11.412 -1.5381 -0.1419 -0.3844
  369MOL0     O49715   6.035   8.663  11.402 -0.5246  0.5339 -0.8291
  369MOL0     C49716   6.128   8.549  11.423  0.4881  0.3565  0.4114
  369MOL0     C49717   6.129   8.457  11.304 -0.1554  0.1714  0.1736
  369MOL0     C49718   6.147   8.525  11.163  0.0911  0.1762  1.3481
  369MOL0     C49719   6.006   8.517  11.101 -0.0111 -0.3250  0.1535
  369MOL0     C49720   5.981   8.601  10.973  0.8037  1.0080 -0.1527
  369MOL0     C49721   5.854   8.564  10.896  0.2120 -1.3235  0.0876
  369MOL0     C49722   5.722   8.607  10.964  0.3492 -0.0741  0.9271
  369MOL0     C49723   5.605   8.596  10.860  0.0445 -0.0537  0.6983
  369MOL0    Cl49724   5.594   8.421  10.814  0.1331 -0.1907 -0.4594
  369MOL0     C49725   5.838   8.528  11.450 -0.8492 -0.3342  0.1506
  369MOL0     C49726   5.693   8.519  11.456 -0.1214  0.3497 -0.3320
  369MOL0     O49727   5.430   8.679  11.237  0.2929 -0.3869 -0.2696
  369MOL0     C49728   5.202   8.603  11.503  0.6994  0.8571 -0.7866
  369MOL0     C49729   5.073   8.628  11.546 -0.3325  0.1414  0.7604
  369MOL0     N49730   4.169   8.535  11.377  0.5654 -0.7895  0.0607
  369MOL0     N49731   4.092   8.497  11.285  0.8463  1.4151  0.0338
  369MOL0     C49732   3.130   7.911  11.275 -0.0263 -0.3296  0.2536
  369MOL0     C49733   2.992   7.892  11.256 -0.6446 -0.2106 -1.2386
  369MOL0     C49734   2.557   7.866  11.204  0.3597 -0.8443  0.4250
  369MOL0     C49735   2.468   7.920  11.103  0.0424  0.5381 -0.8602
  369MOL0     C49736   2.341   7.870  11.090  0.1889 -0.5503  0.6357
  369MOL0     C49737   2.291   7.766  11.173 -0.6890  0.3448 -0.1597
  369MOL0     O49738   2.160   7.720  11.146 -0.1125 -0.1228 -0.1894
  369MOL0     C49739   2.060   7.720  11.260 -0.3174  0.8407  1.0171
  369MOL0     C49740   2.040   7.857  11.318  0.0442 -0.2601 -0.2540
  369MOL0     C49741   2.000   7.957  11.207 -0.4784 -0.9516  0.1010
  369MOL0     C49742   1.894   7.901  11.110  0.7347  0.1425  0.0913
  369MOL0     C49743   1.773   7.880  11.196 -0.7737  0.1917 -1.3696
  369MOL0     C49744   1.681   7.858  11.275  0.1944  0.0960 -1.1781
  369MOL0     C49745   2.378   7.720  11.275  0.3225  0.3924 -1.0313
  369MOL0     C49746   2.511   7.767  11.298 -0.1208 -0.6556  0.2957
  369MOL0     C49747   2.607   7.695  11.386  0.8925  0.4875 -0.5364
  369MOL0     H49748   2.861   8.107  11.472  1.1359  0.1922 -0.5864
  369MOL0     H49749   3.120   8.146  11.512 -0.5920 -1.4089  1.8684
  369MOL0     H49750   3.323   8.228  11.395 -2.2084 -2.6036 -1.6930
  369MOL0     H49751   3.325   8.140  11.556  1.2402 -0.5367 -0.1009
  369MOL0     H49752   3.529   8.064  11.536 -1.8954  0.8837  0.7765
  369MOL0     H49753   3.527   8.245  11.539 -3.0892  1.9197 -1.7184
  369MOL0     H49754   3.560   8.258  11.271  2.7541  1.9403  1.7429
  369MOL0     H49755   3.591   8.087  11.294  0.6572 -0.6513 -0.2218
  369MOL0     H49756   3.752   8.322  11.414 -1.3522 -0.2252  0.4639
  369MOL0     H49757   3.777   8.146  11.437  1.2226  0.1436 -0.7651
  369MOL0     H49758   3.788   8.138  11.179  1.4815 -1.4341 -2.2441
  369MOL0     H49759   3.824   8.310  11.188  2.3040 -0.7552 -1.2682
  369MOL0     H49760   4.036   8.244  11.338  1.0023  1.0933 -2.4087
  369MOL0     H49761   3.970   8.087  11.325 -3.0612  0.1255  1.9167
  369MOL0     H49762   4.022   8.129  11.056 -1.2770 -1.0787 -0.1283
  369MOL0     H49763   4.156   8.125  11.179  0.2264 -0.7361 -1.5724
  369MOL0     H49764   4.177   8.306  11.018 -0.0771 -0.6652  0.8172
  369MOL0     H49765   4.014   8.359  11.047 -0.1909 -2.5135 -1.1950
  369MOL0     H49766   4.341   8.317  11.206 -1.4852 -0.3787 -0.4924
  369MOL0     H49767   4.385   8.557  11.523 -0.1514  0.7555 -1.3270
  369MOL0     H49768   4.421   8.397  11.497 -2.2121  0.1893  0.6701
  369MOL0     H49769   4.622   8.458  11.357  0.1578  0.7774  1.0573
  369MOL0     H49770   4.513   8.576  11.282 -0.5372  0.6459  1.0971
  369MOL0     H49771   4.655   8.574  11.563  1.3152  0.6712 -1.3510
  369MOL0     H49772   4.591   8.720  11.506 -2.8929 -0.9359 -0.0162
  369MOL0     H49773   4.750   8.739  11.324  1.0769  0.7464  0.5384
  369MOL0     H49774   4.822   8.586  11.358  4.8544  2.3366  0.6040
  369MOL0     H49775   4.975   8.852  11.307 -0.2513 -0.3069 -0.5984
  369MOL0     H49776   5.196   8.791  11.220 -3.4672  1.7869 -1.1727
  369MOL0     H49777   5.624   8.837  11.369  0.0600 -0.3924 -0.2635
  369MOL0     H49778   5.849   8.856  11.377  0.6989 -1.6692 -2.9239
  369MOL0     H49779   6.226   8.596  11.421  0.2832  1.1367 -4.6441
  369MOL0     H49780   6.107   8.494  11.516 -2.3043 -2.3645 -1.6090
  369MOL0     H49781   6.222   8.404  11.327  3.4269  5.0156 -1.2124
  369MOL0     H49782   6.043   8.390  11.301 -1.9085  2.3243 -0.3321
  369MOL0     H49783   6.183   8.628  11.168 -0.4467  0.3481  1.8114
  369MOL0     H49784   6.209   8.461  11.099 -1.7559 -0.8662  0.5228
  369MOL0     H49785   5.926   8.538  11.173  0.6453 -1.1174  1.1479
  369MOL0     H49786   5.998   8.409  11.087  0.7483 -0.7556  2.6046
  369MOL0     H49787   6.066   8.577  10.909  0.4036  0.4739 -0.4940
  369MOL0     H49788   5.976   8.707  10.999 -2.1461  0.8537  0.2452
  369MOL0     H49789   5.865   8.610  10.797 -1.2628  1.2036  1.0120
  369MOL0     H49790   5.859   8.455  10.885 -2.5657 -1.5123  0.0230
  369MOL0     H49791   5.731   8.705  11.013 -1.4453  0.0075  1.1806
  369MOL0     H49792   5.703   8.545  11.052  0.1133  1.1701  1.7779
  369MOL0     H49793   5.510   8.633  10.899 -0.1040  0.1550  0.1498
  369MOL0     H49794   5.629   8.641  10.763  0.7148 -1.4363  0.1881
  369MOL0     H49795   5.887   8.435  11.479 -0.9406 -1.0599 -1.8021
  369MOL0     H49796   5.654   8.424  11.491  2.7234 -0.1618  1.7597
  369MOL0     H49797   5.266   8.557  11.579 -1.4310 -0.2214  0.4430
  369MOL0     H49798   5.042   8.591  11.643 -2.1428  0.0877  0.2001
  369MOL0     H49799   3.200   7.856  11.211 -2.3904 -0.2796 -2.5720
  369MOL0     H49800   2.956   7.817  11.186  2.8820 -3.9178  0.5711
  369MOL0     H49801   2.507   7.994  11.034  1.0561  1.5637  0.7535
  369MOL0     H49802   2.270   7.904  11.015 -2.4024 -1.9266  2.3163
  369MOL0     H49803   2.104   7.658  11.338 -0.7944  0.1951  0.7814
  369MOL0     H49804   1.968   7.666  11.237 -1.4265  0.8439  4.8773
  369MOL0     H49805   2.126   7.893  11.376  0.1676  1.1762 -1.2754
  369MOL0     H49806   1.955   7.848  11.386  0.9581  1.1760  1.1372
  369MOL0     H49807   2.086   7.982  11.144 -0.6334  1.0856  0.6358
  369MOL0     H49808   1.978   8.052  11.257  3.5737 -0.4663  1.2654
  369MOL0     H49809   1.871   7.964  11.024 -0.6832  1.0406  1.0838
  369MOL0     H49810   1.921   7.807  11.061  0.4609 -0.1776  0.5447
  369MOL0     H49811   1.599   7.859  11.343 -0.2518 -0.3080 -1.6953
  369MOL0     H49812   2.354   7.644  11.350  0.6557 -0.8451 -2.1363
  369MOL0     H49813   2.711   7.696  11.351  2.0730  0.2658  2.6173
  369MOL0     H49814   2.607   7.737  11.487 -0.2622 -4.2213  1.7154
  369MOL0     H49815   2.583   7.590  11.408  2.2266  0.5137  1.3164
  370MOL0     O49816   5.236   7.087   5.455 -0.3515 -0.2077 -0.5373
  370MOL0     C49817   5.143   7.106   5.376  0.4291 -0.3637  0.4098
  370MOL0     O49818   5.164   7.135   5.243 -0.5567  0.2843 -0.5530
  370MOL0     C49819   5.284   7.123   5.171 -0.2272 -0.4720  0.4752
  370MOL0     C49820   5.412   7.110   5.228  0.2675 -0.4659 -0.0342
  370MOL0     C49821   5.527   7.099   5.144  0.5485  0.0683  0.0943
  370MOL0     C49822   5.513   7.098   5.008 -0.8754  0.4145  0.7956
  370MOL0     O49823   5.619   7.079   4.921  0.2571  0.0978 -0.4464
  370MOL0     C49824   5.702   7.199   4.927 -0.1523  0.2461 -0.8338
  370MOL0     C49825   5.698   7.272   4.798  1.3063  0.2975  0.6715
  370MOL0     C49826   5.820   7.350   4.749 -0.0790 -0.2310 -0.8647
  370MOL0     C49827   5.856   7.482   4.832  1.2687 -0.4062 -0.6427
  370MOL0     C49828   5.972   7.548   4.765 -0.1455  0.1052 -0.0052
  370MOL0     C49829   6.002   7.689   4.841  0.3836 -0.4025  0.5650
  370MOL0     C49830   6.149   7.740   4.842 -0.2681 -0.3601 -0.0326
  370MOL0     C49831   6.232   7.659   4.940 -0.5965  0.0160  0.3568
  370MOL0     N49832   6.362   7.724   4.968  0.4889 -0.8779 -0.3841
  370MOL0     C49833   6.388   7.850   5.021  0.0720 -1.0591  0.9803
  370MOL0     C49834   6.527   7.853   5.038 -0.5001 -0.0706  0.9526
  370MOL0     C49835   6.601   7.960   5.119 -0.5098 -0.4319 -0.0275
  370MOL0     C49836   6.757   7.957   5.095  0.9732 -0.4208  0.4881
  370MOL0     C49837   6.818   8.058   5.197  0.3030  0.0027  0.4856
  370MOL0     C49838   6.968   8.039   5.175  0.2662 -0.4790 -0.8103
  370MOL0     O49839   7.016   8.112   5.288 -0.1844  0.3133  0.1811
  370MOL0     C49840   7.155   8.094   5.309  0.0045 -0.6242 -0.5249
  370MOL0     C49841   7.215   8.136   5.425 -0.0034 -0.3346  0.3522
  370MOL0     C49842   7.349   8.122   5.455 -0.1304 -0.2632  0.5591
  370MOL0     C49843   7.439   8.070   5.359 -0.4510 -0.0636  1.0502
  370MOL0     C49844   7.574   8.090   5.379  0.6803 -0.6637 -0.9527
  370MOL0     O49845   7.614   8.109   5.512  0.7339 -0.2614  0.5744
  370MOL0     C49846   7.740   8.101   5.540  0.1799 -0.2942 -0.3471
  370MOL0     C49847   7.788   8.222   5.594  0.1409  0.0552  0.5298
  370MOL0     C49848   7.923   8.238   5.612 -0.3576  0.6112  0.1921
  370MOL0     C49849   8.010   8.124   5.603 -0.0815 -1.0770  0.5210
  370MOL0     O49850   8.147   8.152   5.614  0.2311 -0.0327  0.1485
  370MOL0     C49851   8.238   8.056   5.554 -0.1960 -0.6814 -0.2115
  370MOL0     C49852   8.367   8.128   5.527 -0.5885  0.6184  0.2116
  370MOL0     C49853   8.478   8.038   5.458 -0.0573  0.3066 -0.6142
  370MOL0     C49854   8.598   8.135   5.440 -0.2109  0.2491  0.3178
  370MOL0     C49855   8.726   8.073   5.387  0.7985 -1.1546  0.7138
  370MOL0     C49856   8.794   7.958   5.462  0.6495 -0.4254  0.2386
  370MOL0     C49857   8.902   7.918   5.374 -0.9698 -0.1371 -0.0142
  370MOL0     C49858   8.978   7.800   5.440  0.4674  0.0122  0.1500
  370MOL0    Cl49859   9.139   7.782   5.354 -0.3990  0.0252 -0.1444
  370MOL0     C49860   7.958   7.999   5.575  1.0671 -0.3334 -0.2102
  370MOL0     C49861   7.824   7.985   5.539 -0.0740  0.3883 -0.5959
  370MOL0     O49862   7.646   8.071   5.288 -0.5933 -0.0396 -0.9061
  370MOL0     C49863   7.385   8.043   5.232 -0.8020  0.2643 -0.3446
  370MOL0     C49864   7.245   8.057   5.211  1.1425 -0.0800 -0.3356
  370MOL0     N49865   6.579   7.737   4.980  0.7711  0.5599 -0.2755
  370MOL0     N49866   6.484   7.661   4.936  0.2474 -0.6338  0.4971
  370MOL0     C49867   5.392   7.099   4.948 -0.0921  0.1994 -0.4944
  370MOL0     C49868   5.276   7.117   5.030 -0.3256 -0.0057  0.5039
  370MOL0     C49869   5.007   7.104   5.438 -0.1313  0.2324  0.5469
  370MOL0     C49870   4.905   7.069   5.355  0.6451  0.7669  0.3464
  370MOL0     C49871   4.777   7.061   5.394  0.6516  0.1403 -0.3733
  370MOL0     C49872   4.746   7.095   5.521  0.2774 -0.7912 -0.3674
  370MOL0     O49873   4.612   7.094   5.565 -0.0209 -0.2075  0.2868
  370MOL0     C49874   4.519   7.159   5.482 -0.9911 -0.1010 -0.1738
  370MOL0     C49875   4.383   7.166   5.545  0.2288 -0.2417  1.0285
  370MOL0     C49876   4.390   7.239   5.677 -0.8661 -0.9820 -0.9901
  370MOL0     C49877   4.409   7.387   5.655  0.3529 -0.9325 -0.5166
  370MOL0     C49878   4.348   7.470   5.760  0.6219 -0.6480 -0.7149
  370MOL0     C49879   4.300   7.543   5.844  0.7132 -0.4245  0.0692
  370MOL0     C49880   4.850   7.128   5.616 -0.0260 -0.0016 -0.1555
  370MOL0     C49881   4.979   7.151   5.567  0.3553  0.2184 -0.2184
  370MOL0     C49882   5.080   7.209   5.665 -0.1665  0.2812  0.3176
  370MOL0     H49883   5.423   7.118   5.336  0.8443 -3.1456  0.1629
  370MOL0     H49884   5.622   7.122   5.189  1.0734 -0.5273 -0.6813
  370MOL0     H49885   5.669   7.274   4.999  2.6601 -1.6580  2.7632
  370MOL0     H49886   5.807   7.184   4.952 -0.7186 -0.2802  1.4482
  370MOL0     H49887   5.609   7.336   4.788  0.8292 -0.7904 -3.9324
  370MOL0     H49888   5.670   7.198   4.723 -0.3065 -1.4851  2.8829
  370MOL0     H49889   5.796   7.389   4.650  1.3908  2.8086 -0.1157
  370MOL0     H49890   5.908   7.286   4.749 -0.5913 -0.9957  0.3970
  370MOL0     H49891   5.779   7.560   4.826  0.6759 -0.6597  2.1575
  370MOL0     H49892   5.880   7.466   4.938 -3.4998 -0.2555  0.7179
  370MOL0     H49893   6.059   7.482   4.752  0.8589  1.2071  0.9090
  370MOL0     H49894   5.959   7.570   4.659 -1.5978  4.9284  0.9588
  370MOL0     H49895   5.928   7.760   4.803  1.3482  0.5524  0.4481
  370MOL0     H49896   5.972   7.683   4.946  0.3324  0.5933  0.6173
  370MOL0     H49897   6.135   7.847   4.861 -0.5626 -0.3348 -0.3801
  370MOL0     H49898   6.196   7.730   4.744  2.2433 -1.4052  1.2039
  370MOL0     H49899   6.183   7.662   5.038 -0.4427 -2.5161  0.5822
  370MOL0     H49900   6.234   7.554   4.909  0.2309 -0.0239  0.5349
  370MOL0     H49901   6.323   7.933   5.045  1.0264  1.0168 -2.8380
  370MOL0     H49902   6.576   8.063   5.093 -0.8053 -0.1659  1.2748
  370MOL0     H49903   6.578   7.959   5.226  0.0403  3.0952  0.2327
  370MOL0     H49904   6.801   7.858   5.111 -1.3207 -1.2955  1.8397
  370MOL0     H49905   6.773   8.003   4.997 -1.6311 -0.3201  0.0501
  370MOL0     H49906   6.793   8.021   5.296  1.6918 -2.3519  0.0569
  370MOL0     H49907   6.776   8.157   5.176 -0.5657 -0.5074 -0.2680
  370MOL0     H49908   7.001   8.087   5.082 -2.0596 -1.9290 -2.5122
  370MOL0     H49909   6.997   7.934   5.188  0.7596 -0.0704  2.0542
  370MOL0     H49910   7.138   8.169   5.495  0.0585 -1.7695  1.1213
  370MOL0     H49911   7.385   8.169   5.545 -1.6205  1.4796  0.2946
  370MOL0     H49912   7.726   8.311   5.605  2.1287  1.9210 -1.8778
  370MOL0     H49913   7.955   8.338   5.642 -1.9191  0.9813  0.7246
  370MOL0     H49914   8.264   7.978   5.626 -0.3071  0.1836  0.8019
  370MOL0     H49915   8.200   8.016   5.460 -1.5158 -0.2288  0.0998
  370MOL0     H49916   8.325   8.209   5.466 -2.8030 -1.3731 -1.0987
  370MOL0     H49917   8.418   8.163   5.617 -1.2976 -1.5753  1.5259
  370MOL0     H49918   8.506   7.963   5.532  0.7711  4.0765  3.2277
  370MOL0     H49919   8.447   8.002   5.359 -0.0454 -2.0744  0.1692
  370MOL0     H49920   8.626   8.183   5.534  2.4315 -2.1749  0.9328
  370MOL0     H49921   8.554   8.213   5.378 -2.6957  0.8742  2.6906
  370MOL0     H49922   8.795   8.156   5.368  0.2152  0.1062  3.5369
  370MOL0     H49923   8.699   8.032   5.290  3.1269  2.0037 -1.4882
  370MOL0     H49924   8.826   8.000   5.558 -2.4506  3.2533 -0.1261
  370MOL0     H49925   8.725   7.876   5.485 -0.2199 -0.5023 -2.4084
  370MOL0     H49926   8.973   7.999   5.357 -1.2047 -0.0298 -0.5128
  370MOL0     H49927   8.888   7.882   5.272  2.5845  0.5112 -0.8725
  370MOL0     H49928   8.993   7.813   5.548 -0.3020  1.9603  0.0601
  370MOL0     H49929   8.924   7.708   5.417 -1.0874  1.4085 -2.2677
  370MOL0     H49930   8.015   7.908   5.566  1.2173 -0.3469  0.6978
  370MOL0     H49931   7.786   7.891   5.500  3.3368 -0.7496 -1.5252
  370MOL0     H49932   7.459   8.017   5.156 -0.1014 -0.1314  0.4525
  370MOL0     H49933   7.204   8.021   5.117 -0.4911  1.0697 -0.1013
  370MOL0     H49934   5.381   7.079   4.842  1.0466  0.6849 -0.7217
  370MOL0     H49935   5.178   7.117   4.983  0.4176 -0.1690 -1.1253
  370MOL0     H49936   4.918   7.046   5.249 -1.6820 -2.1149  0.5589
  370MOL0     H49937   4.706   7.031   5.317 -2.1425  1.4980  1.5068
  370MOL0     H49938   4.509   7.091   5.397 -2.6758 -2.3010  1.6449
  370MOL0     H49939   4.554   7.253   5.438 -3.6920  1.2933  0.3904
  370MOL0     H49940   4.360   7.060   5.556  0.3698 -0.3578  0.2281
  370MOL0     H49941   4.316   7.221   5.479  1.6709  3.8158  2.5625
  370MOL0     H49942   4.467   7.202   5.745 -1.0966 -0.6455 -0.5424
  370MOL0     H49943   4.300   7.225   5.738 -0.4609 -1.4996 -0.4987
  370MOL0     H49944   4.516   7.405   5.642 -0.2743  4.8015 -0.0729
  370MOL0     H49945   4.358   7.419   5.564 -1.7749  0.1096  0.9625
  370MOL0     H49946   4.237   7.605   5.905 -3.1491 -1.2638 -2.7003
  370MOL0     H49947   4.826   7.154   5.719  2.7939 -1.4130  0.9716
  370MOL0     H49948   5.161   7.254   5.607 -0.0183 -1.2957 -0.7624
  370MOL0     H49949   5.029   7.287   5.722  0.1733 -0.8457  2.2485
  370MOL0     H49950   5.117   7.136   5.738 -0.5563  1.9770  2.2943
  371MOL0     O49951  11.172   8.799   9.405 -0.2180 -0.1697  0.5592
  371MOL0     C49952  11.156   8.745   9.509 -1.3971 -0.6381  0.3184
  371MOL0     O49953  11.246   8.648   9.565 -0.2990 -0.0734 -0.0435
  371MOL0     C49954  11.373   8.640   9.509  0.3077  0.1635 -0.0449
  371MOL0     C49955  11.425   8.515   9.488 -0.3167  0.3661  0.8526
  371MOL0     C49956  11.550   8.498   9.435  0.6530  0.2496 -0.0586
  371MOL0     C49957  11.626   8.605   9.394  0.0171  0.2483 -0.1209
  371MOL0     O49958  11.758   8.574   9.371  0.3432  0.2265 -0.2700
  371MOL0     C49959  11.842   8.656   9.284 -0.8885 -0.1515  0.4206
  371MOL0     C49960  11.958   8.555   9.239  0.8560 -0.3248 -0.5544
  371MOL0     C49961  12.045   8.609   9.125  1.2938 -0.3566  0.8015
  371MOL0     C49962  12.108   8.739   9.160  0.7072 -0.3354  0.2421
  371MOL0     C49963  12.202   8.791   9.041 -0.3246  0.4176  0.2996
  371MOL0     C49964  12.352   8.764   9.060 -0.6196 -0.5139 -0.2134
  371MOL0     C49965  12.447   8.836   8.954 -0.1943 -0.9058  0.0986
  371MOL0     C49966  12.592   8.794   8.987 -0.0922  0.5352  0.5119
  371MOL0     N49967  12.674   8.773   8.863 -0.4322 -0.6097 -0.1461
  371MOL0     C49968  12.693   8.880   8.776 -0.6918  0.6701 -0.5651
  371MOL0     C49969  12.795   8.839   8.690  0.1398 -0.3320 -0.7223
  371MOL0     C49970  12.856   8.935   8.592  1.3634 -0.2671  0.9090
  371MOL0     C49971  12.756   8.986   8.484  0.5601  0.5108  0.8921
  371MOL0     C49972  12.712   9.127   8.491  0.4244 -0.3943 -0.5031
  371MOL0     C49973  12.555   9.138   8.511  0.3405 -0.2370  0.9154
  371MOL0     O49974  12.502   9.148   8.644  0.4420  0.1059  0.3843
  371MOL0     C49975  12.360   9.150   8.659  0.4644  0.0940  0.0162
  371MOL0     C49976  12.271   9.137   8.552  0.0961  0.5615  0.0103
  371MOL0     C49977  12.133   9.125   8.584  0.1346  0.5994 -0.6055
  371MOL0     C49978  12.080   9.135   8.715 -0.5930 -0.3737 -0.5227
  371MOL0     C49979  11.941   9.115   8.755 -0.1228 -0.1263  0.0965
  371MOL0     O49980  11.905   9.121   8.889  0.0970 -0.5780 -0.3696
  371MOL0     C49981  11.774   9.088   8.927  1.4243  0.1621  0.0099
  371MOL0     C49982  11.667   9.164   8.878 -0.7115  0.0993  0.1956
  371MOL0     C49983  11.537   9.135   8.919  0.7296  0.6352  0.9982
  371MOL0     C49984  11.512   9.040   9.028  0.5429  0.2966 -0.5731
  371MOL0     O49985  11.387   9.018   9.087 -0.2060 -0.2727  0.1002
  371MOL0     C49986  11.279   9.000   8.987  0.4654 -0.8115 -0.3379
  371MOL0     C49987  11.145   8.977   9.049 -0.5044 -0.2212 -0.2179
  371MOL0     C49988  11.033   8.932   8.947  0.8897 -0.6138  0.3359
  371MOL0     C49989  10.887   8.921   9.006  0.1108 -0.1293  0.9156
  371MOL0     C49990  10.783   8.923   8.891 -0.6763 -0.9327 -0.4014
  371MOL0     C49991  10.653   8.940   8.963 -0.3079 -0.3834  0.1972
  371MOL0     C49992  10.539   8.900   8.876 -0.2555  0.0858 -0.1193
  371MOL0     C49993  10.506   8.747   8.884 -0.2623  0.5942  0.0386
  371MOL0    Cl49994  10.478   8.694   9.054  0.1950 -0.0276  0.3355
  371MOL0     C49995  11.622   8.963   9.069 -0.7187 -0.1151  0.1628
  371MOL0     C49996  11.741   8.989   9.020 -0.2864  0.1932  0.0328
  371MOL0     O49997  11.855   9.091   8.665 -0.6804 -0.3800  0.1418
  371MOL0     C49998  12.179   9.156   8.821 -0.7450  0.9600  0.2884
  371MOL0     C49999  12.311   9.168   8.789 -0.0881  0.0091 -0.1561
  371MOL0     N50000  12.849   8.718   8.743  0.2293 -0.1999 -0.1065
  371MOL0     N50001  12.773   8.682   8.842 -0.2574  0.2273 -0.5214
  371MOL0     C50002  11.577   8.733   9.417 -0.5429  0.6537 -1.1580
  371MOL0     C50003  11.453   8.752   9.484  0.1962 -0.1889  0.1295
  371MOL0     C50004  11.037   8.772   9.594  0.2009  0.0405 -0.4034
  371MOL0     C50005  11.012   8.675   9.695  0.4067 -0.7964 -0.3871
  371MOL0     C50006  10.917   8.702   9.792 -0.2753  0.2701  0.0596
  371MOL0     C50007  10.837   8.818   9.785 -0.8478  0.7633 -0.1508
  371MOL0     O50008  10.762   8.869   9.887 -0.1783  0.0008  0.1008
  371MOL0     C50009  10.780   8.804  10.013  0.2761 -0.0222  0.8411
  371MOL0     C50010  10.717   8.889  10.125  0.3751  0.1977  1.5129
  371MOL0     C50011  10.581   8.961  10.082  0.2710  0.4159 -0.6925
  371MOL0     C50012  10.519   9.037  10.204 -0.2697  0.1602 -1.0257
  371MOL0     C50013  10.381   9.086  10.179 -0.3609  0.1584  0.3441
  371MOL0     C50014  10.274   9.121  10.136 -0.6249  0.1792 -0.7314
  371MOL0     C50015  10.868   8.905   9.682 -1.2726  1.0265  0.0627
  371MOL0     C50016  10.966   8.891   9.595 -0.8013 -1.3117 -0.0981
  371MOL0     C50017  10.974   8.990   9.489  0.0342  0.2077 -0.3002
  371MOL0     H50018  11.366   8.431   9.523 -1.4439 -0.5525 -2.8176
  371MOL0     H50019  11.589   8.397   9.431 -1.5894 -0.7179  0.8490
  371MOL0     H50020  11.779   8.676   9.197 -1.8650 -0.6472  0.9949
  371MOL0     H50021  11.871   8.754   9.325 -1.0687  1.4335 -2.9493
  371MOL0     H50022  11.921   8.454   9.218 -0.9352 -0.0636  1.0535
  371MOL0     H50023  12.017   8.540   9.330 -0.4482  0.5974  0.4816
  371MOL0     H50024  11.984   8.635   9.038  1.5701  1.4173  1.0958
  371MOL0     H50025  12.126   8.537   9.109  0.6368 -0.7103 -1.2196
  371MOL0     H50026  12.031   8.816   9.169 -1.0983 -2.1393  1.1626
  371MOL0     H50027  12.161   8.731   9.256  2.0463  2.0563 -0.2230
  371MOL0     H50028  12.171   8.746   8.946 -0.2460  0.5416  0.2161
  371MOL0     H50029  12.190   8.899   9.029  1.0772  0.9674  3.0991
  371MOL0     H50030  12.387   8.785   9.161 -0.6897 -3.6114  0.5529
  371MOL0     H50031  12.369   8.656   9.055  0.6856 -0.4803  2.0913
  371MOL0     H50032  12.433   8.944   8.956 -0.0804 -0.9075  1.4827
  371MOL0     H50033  12.427   8.798   8.853  3.2938  0.5944 -1.3322
  371MOL0     H50034  12.636   8.861   9.062 -3.4251  0.7240  2.4959
  371MOL0     H50035  12.592   8.704   9.049  2.6434 -0.2835 -0.5369
  371MOL0     H50036  12.621   8.962   8.768 -1.9891 -0.0083  2.6913
  371MOL0     H50037  12.887   9.021   8.653 -0.1331  3.6508 -3.2738
  371MOL0     H50038  12.944   8.893   8.542  0.1791 -0.7761 -0.8648
  371MOL0     H50039  12.797   8.975   8.383 -0.0255 -1.7393  0.8521
  371MOL0     H50040  12.667   8.924   8.497  2.9411 -3.8838 -1.4589
  371MOL0     H50041  12.730   9.172   8.393  2.8147  0.1618  0.1240
  371MOL0     H50042  12.755   9.175   8.579  0.8690 -0.8572 -0.4632
  371MOL0     H50043  12.520   9.047   8.462  3.1259  0.2016 -2.2761
  371MOL0     H50044  12.519   9.224   8.453 -0.4789  0.8880  3.0121
  371MOL0     H50045  12.302   9.124   8.449 -2.1299  2.7055 -1.0482
  371MOL0     H50046  12.065   9.110   8.501 -2.4734 -0.4976  1.5851
  371MOL0     H50047  11.686   9.252   8.818  4.1752 -1.4587 -0.9940
  371MOL0     H50048  11.461   9.203   8.881  1.3760  0.5450 -0.5446
  371MOL0     H50049  11.267   9.083   8.917 -1.4164 -1.5437 -0.9286
  371MOL0     H50050  11.289   8.906   8.931 -3.2658 -0.8049 -1.2720
  371MOL0     H50051  11.161   8.898   9.123  0.8049  1.5229  1.4606
  371MOL0     H50052  11.124   9.069   9.103  1.4215  0.4598 -0.5805
  371MOL0     H50053  11.028   9.014   8.875  3.1797  0.2563  1.0895
  371MOL0     H50054  11.069   8.853   8.879 -1.4328 -0.0302 -1.7359
  371MOL0     H50055  10.877   9.013   9.064  0.2301  1.4356 -1.4117
  371MOL0     H50056  10.887   8.829   9.065  3.9145 -1.4943 -0.8338
  371MOL0     H50057  10.782   8.827   8.838  0.7858 -1.6006  0.6911
  371MOL0     H50058  10.795   8.996   8.810 -2.1321  0.5047  0.6093
  371MOL0     H50059  10.652   8.891   9.061 -2.9877 -0.9443 -0.0308
  371MOL0     H50060  10.631   9.045   8.982  0.7114 -0.2317  0.6329
  371MOL0     H50061  10.554   8.928   8.771  2.7880 -1.8705 -0.3249
  371MOL0     H50062  10.449   8.952   8.909 -0.6178 -0.3928 -0.3591
  371MOL0     H50063  10.421   8.738   8.816  0.5133 -1.4349 -0.7447
  371MOL0     H50064  10.592   8.690   8.847  0.3299  2.0834 -0.9574
  371MOL0     H50065  11.607   8.899   9.156  0.8163 -0.2412  0.3519
  371MOL0     H50066  11.827   8.936   9.059  2.4033  4.1914  0.1103
  371MOL0     H50067  12.152   9.161   8.926 -0.2840  2.2160  0.3544
  371MOL0     H50068  12.377   9.196   8.871  0.9760 -1.8442 -0.3254
  371MOL0     H50069  11.644   8.813   9.388 -0.6120  1.5327  0.9059
  371MOL0     H50070  11.415   8.851   9.507 -4.1753 -1.5036 -0.5331
  371MOL0     H50071  11.079   8.591   9.710 -1.0303 -1.5647  2.7333
  371MOL0     H50072  10.907   8.628   9.871 -1.1618  0.9105  0.5696
  371MOL0     H50073  10.886   8.798  10.038 -0.6782 -0.9399  5.5350
  371MOL0     H50074  10.736   8.704  10.018  0.3317 -0.1135 -0.1256
  371MOL0     H50075  10.785   8.964  10.167 -2.5925  2.5571  2.4656
  371MOL0     H50076  10.702   8.816  10.205 -0.5171 -0.8260  0.4461
  371MOL0     H50077  10.510   8.882  10.053  1.4988 -0.6764 -0.7877
  371MOL0     H50078  10.585   9.036  10.003 -1.3422  0.4394 -0.7847
  371MOL0     H50079  10.511   8.970  10.290 -0.1320  1.7469  0.2675
  371MOL0     H50080  10.584   9.116  10.242 -0.5800 -0.3591  0.6857
  371MOL0     H50081  10.176   9.151  10.105 -0.6236 -0.7776 -1.7231
  371MOL0     H50082  10.805   8.993   9.683 -0.3224  1.7204  0.6223
  371MOL0     H50083  10.884   9.050   9.502  0.7419  0.9571  1.4553
  371MOL0     H50084  11.066   9.050   9.486  1.7954 -2.3219  0.0607
  371MOL0     H50085  10.961   8.945   9.390 -2.5077  0.7483 -0.2739
  372MOL0     O50086   7.950   6.431   1.063 -0.1937 -0.4763 -0.1735
  372MOL0     C50087   7.837   6.457   1.014 -0.1029 -0.3527 -0.7334
  372MOL0     O50088   7.787   6.585   0.985  0.0169  1.0170  0.1108
  372MOL0     C50089   7.875   6.694   0.975 -0.6952  0.1282 -0.7294
  372MOL0     C50090   8.009   6.701   0.936 -0.0003  0.1961  0.0347
  372MOL0     C50091   8.075   6.825   0.908 -0.4098 -0.4665  0.1548
  372MOL0     C50092   8.013   6.946   0.946 -0.4344  0.0300  0.0208
  372MOL0     O50093   8.066   7.070   0.951  0.1218  0.0275  1.0967
  372MOL0     C50094   8.209   7.084   0.939 -0.3316 -0.2151  0.7430
  372MOL0     C50095   8.257   7.229   0.967  0.8012 -0.4880  0.5339
  372MOL0     C50096   8.405   7.237   0.965  0.3966  0.8054 -0.4724
  372MOL0     C50097   8.454   7.388   0.962 -0.6824 -0.2309  0.5916
  372MOL0     C50098   8.466   7.434   0.810 -0.3489 -0.0414 -0.0970
  372MOL0     C50099   8.395   7.558   0.780 -0.3796 -0.4836 -0.7052
  372MOL0     C50100   8.443   7.678   0.867 -0.0382 -0.2033 -0.6909
  372MOL0     C50101   8.345   7.790   0.829  0.7711 -0.8553 -0.5117
  372MOL0     N50102   8.389   7.911   0.889 -1.2535  0.4919 -0.0820
  372MOL0     C50103   8.474   8.005   0.837 -0.0281 -0.5213  0.5435
  372MOL0     C50104   8.445   8.127   0.888 -0.4592 -0.0305  0.0531
  372MOL0     C50105   8.498   8.267   0.859  0.8031  0.6797  0.9721
  372MOL0     C50106   8.443   8.365   0.960  0.0638 -0.5355  0.0409
  372MOL0     C50107   8.485   8.508   0.952 -0.1907  0.7541 -0.0673
  372MOL0     C50108   8.611   8.527   0.864  0.0623 -0.1454  0.3642
  372MOL0     O50109   8.643   8.661   0.842 -0.5642 -0.7812 -0.3040
  372MOL0     C50110   8.739   8.700   0.759  0.6087  0.2282  0.4009
  372MOL0     C50111   8.732   8.827   0.694  1.0883 -0.2349  0.1798
  372MOL0     C50112   8.844   8.871   0.620  0.3374  0.7519 -0.3457
  372MOL0     C50113   8.950   8.781   0.597  1.2069 -0.6105  0.3084
  372MOL0     C50114   9.053   8.821   0.502 -0.0236 -0.2669 -0.4500
  372MOL0     O50115   9.040   8.936   0.438  0.1014  0.1084  0.1618
  372MOL0     C50116   9.145   8.981   0.353  0.4983 -0.2202 -0.5840
  372MOL0     C50117   9.280   8.958   0.376  0.0328  0.0301  0.0472
  372MOL0     C50118   9.376   9.002   0.280 -0.2610  0.4681 -0.5379
  372MOL0     C50119   9.345   9.058   0.157 -0.7949  0.7302 -0.1476
  372MOL0     O50120   9.449   9.076   0.069  0.2071  1.0945  0.7005
  372MOL0     C50121   9.410   9.092  -0.071 -0.1682  0.5431  0.2191
  372MOL0     C50122   9.519   9.161  -0.146  0.6907  0.2528 -0.0740
  372MOL0     C50123   9.614   9.062  -0.220  0.4017 -0.3325  0.5662
  372MOL0     C50124   9.728   9.020  -0.121 -0.7740  0.3796 -0.0724
  372MOL0     C50125   9.799   8.897  -0.168 -1.3585 -0.0073 -0.7883
  372MOL0     C50126   9.898   8.941  -0.278 -0.3076 -0.0610 -0.7586
  372MOL0     C50127   9.969   8.812  -0.329  0.1120 -0.6680  0.0199
  372MOL0     C50128  10.063   8.846  -0.436 -0.2036 -0.2053  0.3244
  372MOL0    Cl50129  10.206   8.923  -0.367  0.3254  0.5533 -0.1470
  372MOL0     C50130   9.203   9.077   0.134  0.1105  1.0297 -0.2997
  372MOL0     C50131   9.112   9.048   0.236  0.4164 -0.1381 -0.2971
  372MOL0     O50132   9.135   8.734   0.482 -0.4112  0.4488  0.8388
  372MOL0     C50133   8.937   8.647   0.642  0.3979  0.3674  0.4273
  372MOL0     C50134   8.840   8.611   0.729  0.6921  0.0597 -0.5680
  372MOL0     N50135   8.340   8.099   0.987  0.3558  0.1254 -0.6518
  372MOL0     N50136   8.312   7.967   0.980  0.3214 -0.1307  0.4143
  372MOL0     C50137   7.885   6.941   0.980  1.7408 -0.5032  0.2471
  372MOL0     C50138   7.821   6.821   0.996 -0.6769  0.2782  0.6718
  372MOL0     C50139   7.727   6.365   1.014  0.6343  0.2753 -0.2571
  372MOL0     C50140   7.597   6.398   0.965 -0.4941 -0.2755 -0.2479
  372MOL0     C50141   7.485   6.308   0.952  0.7189 -0.5593  0.2464
  372MOL0     C50142   7.506   6.175   0.993  0.4174  0.4641 -0.9095
  372MOL0     O50143   7.422   6.063   0.977  0.5592  0.3955 -0.3155
  372MOL0     C50144   7.309   6.065   0.885 -0.5630  0.0557  0.6755
  372MOL0     C50145   7.183   6.114   0.952 -0.1271  0.0089  0.3036
  372MOL0     C50146   7.046   6.082   0.869 -0.3138  0.3605 -0.2601
  372MOL0     C50147   6.912   6.112   0.944 -0.0588  0.7260 -0.4343
  372MOL0     C50148   6.918   6.251   0.981 -0.2974  0.0203  0.0993
  372MOL0     C50149   6.922   6.379   0.985  0.9638 -0.2344  0.3266
  372MOL0     C50150   7.629   6.137   1.055  0.1374 -0.7193  1.0415
  372MOL0     C50151   7.734   6.235   1.074 -0.2689 -0.1157 -0.2905
  372MOL0     C50152   7.846   6.197   1.170 -0.1561  0.7592 -0.2752
  372MOL0     H50153   8.061   6.607   0.923 -0.4138  0.3803 -4.6813
  372MOL0     H50154   8.176   6.826   0.869 -1.3282  2.5222 -2.5675
  372MOL0     H50155   8.258   7.014   1.006 -0.8575 -1.4262 -0.0993
  372MOL0     H50156   8.234   7.067   0.834 -1.8700  1.8119 -0.0365
  372MOL0     H50157   8.231   7.243   1.072 -0.2930 -2.8546  0.6420
  372MOL0     H50158   8.211   7.294   0.892 -1.7319 -0.2296  2.2140
  372MOL0     H50159   8.441   7.176   0.882 -0.1988 -1.2097  0.6973
  372MOL0     H50160   8.439   7.185   1.054  1.6061  2.5549  0.1456
  372MOL0     H50161   8.386   7.445   1.026 -1.1851 -3.1977  2.9138
  372MOL0     H50162   8.555   7.400   1.002 -0.7162  0.5038  0.4709
  372MOL0     H50163   8.572   7.447   0.787  0.5031 -1.2718  2.7304
  372MOL0     H50164   8.427   7.359   0.741  0.5241 -0.2896 -0.3314
  372MOL0     H50165   8.409   7.580   0.674 -1.6651  1.3196 -0.5434
  372MOL0     H50166   8.287   7.542   0.773 -0.3487 -0.4969 -1.2154
  372MOL0     H50167   8.547   7.709   0.851 -0.4642  0.5298 -2.2702
  372MOL0     H50168   8.436   7.656   0.974  1.0447 -1.0215 -0.7748
  372MOL0     H50169   8.337   7.818   0.724  1.5971  2.0752  0.1081
  372MOL0     H50170   8.247   7.753   0.862  0.8975 -1.8011 -1.1425
  372MOL0     H50171   8.548   7.988   0.759 -0.2714 -0.7639  0.3621
  372MOL0     H50172   8.608   8.261   0.857  0.8299  1.0968  1.1198
  372MOL0     H50173   8.461   8.299   0.762  0.1912 -0.4519  0.8200
  372MOL0     H50174   8.335   8.350   0.954  0.3190 -2.0472 -2.8477
  372MOL0     H50175   8.479   8.335   1.059 -1.9337 -0.3133  0.8714
  372MOL0     H50176   8.511   8.548   1.050  0.2830  0.1968  0.0343
  372MOL0     H50177   8.394   8.559   0.919 -0.6579  2.4403  3.3789
  372MOL0     H50178   8.596   8.485   0.764 -0.0723  0.1487  0.2615
  372MOL0     H50179   8.687   8.473   0.921  0.1397  0.4007  0.7863
  372MOL0     H50180   8.644   8.888   0.710  1.4366  0.2871  0.1495
  372MOL0     H50181   8.832   8.966   0.569 -2.5483  0.4207 -0.4833
  372MOL0     H50182   9.321   8.912   0.465  0.3692  2.4349  1.2006
  372MOL0     H50183   9.480   8.978   0.304 -0.8240 -1.1979  0.4666
  372MOL0     H50184   9.384   8.993  -0.113 -2.4179  0.1323  2.3406
  372MOL0     H50185   9.324   9.158  -0.087  0.2867  0.6923 -1.8656
  372MOL0     H50186   9.482   9.230  -0.222  0.8325  2.2118  1.5478
  372MOL0     H50187   9.566   9.228  -0.073 -1.8297  2.9087 -0.6697
  372MOL0     H50188   9.557   8.976  -0.256 -0.0238 -0.2552  1.0348
  372MOL0     H50189   9.646   9.111  -0.312  1.6525 -1.0769  0.5860
  372MOL0     H50190   9.687   8.997  -0.023  1.6822  1.1769  1.2280
  372MOL0     H50191   9.796   9.104  -0.107  1.7119 -1.7140  1.3365
  372MOL0     H50192   9.726   8.830  -0.213 -2.0072  0.7450 -0.8794
  372MOL0     H50193   9.854   8.846  -0.088  0.1871  1.1480 -1.0602
  372MOL0     H50194   9.834   8.985  -0.355 -0.7103 -0.2704 -0.5442
  372MOL0     H50195   9.967   9.018  -0.243  2.4457 -2.9244  0.6304
  372MOL0     H50196   9.892   8.741  -0.362 -1.3146  0.2153  1.3338
  372MOL0     H50197  10.025   8.772  -0.243  1.4266  0.0461 -0.4705
  372MOL0     H50198  10.095   8.755  -0.489 -1.0542 -0.5223  0.3497
  372MOL0     H50199  10.009   8.911  -0.504  0.2304  2.6890  2.5737
  372MOL0     H50200   9.162   9.093   0.036 -2.3561 -0.0767  0.4894
  372MOL0     H50201   9.005   9.064   0.233  0.4849  0.4460  0.1319
  372MOL0     H50202   9.006   8.579   0.594  0.8959  2.1353 -1.5288
  372MOL0     H50203   8.841   8.511   0.772  1.7701  0.6292  0.8305
  372MOL0     H50204   7.835   7.035   0.997 -0.7366 -1.0455 -2.9335
  372MOL0     H50205   7.727   6.821   1.051  0.3924 -1.3504  2.6631
  372MOL0     H50206   7.591   6.498   0.922 -2.2174  0.3463  1.2936
  372MOL0     H50207   7.393   6.338   0.902  1.2151 -0.2947 -0.5261
  372MOL0     H50208   7.288   5.962   0.855 -2.3904  1.0496 -1.8281
  372MOL0     H50209   7.343   6.113   0.793  0.9292 -1.3842  0.4301
  372MOL0     H50210   7.205   6.220   0.968  2.8711 -0.1040 -2.1077
  372MOL0     H50211   7.163   6.059   1.044 -0.6094 -0.5917 -0.1532
  372MOL0     H50212   7.055   5.977   0.841  1.3275  0.7913 -1.5231
  372MOL0     H50213   7.050   6.129   0.770  0.9901 -0.2511 -0.5219
  372MOL0     H50214   6.829   6.073   0.883  1.4518 -3.3751 -0.1699
  372MOL0     H50215   6.916   6.049   1.033 -3.0892  0.5827 -0.2973
  372MOL0     H50216   6.920   6.485   0.974 -0.4618 -0.5213 -4.7644
  372MOL0     H50217   7.636   6.034   1.086  2.9067 -0.8328  0.2544
  372MOL0     H50218   7.943   6.206   1.120  0.4167 -0.6925  0.5323
  372MOL0     H50219   7.841   6.267   1.255  3.5512 -1.0943  1.6868
  372MOL0     H50220   7.836   6.096   1.209  1.0497  0.6827 -0.1200
  373MOL0     O50221   6.134   5.268   1.621  0.7223  0.2939  0.9254
  373MOL0     C50222   6.117   5.253   1.491 -0.0703 -0.7566 -0.4384
  373MOL0     O50223   6.214   5.239   1.402 -0.5681  0.0341 -0.1453
  373MOL0     C50224   6.340   5.241   1.445 -0.9908 -0.2836  0.3001
  373MOL0     C50225   6.412   5.120   1.449  0.3811  0.0678  0.5246
  373MOL0     C50226   6.540   5.107   1.514 -0.3864  0.5786  1.3352
  373MOL0     C50227   6.604   5.222   1.558  1.0005 -0.4329  0.1571
  373MOL0     O50228   6.733   5.227   1.600  0.0079  0.0845  0.0966
  373MOL0     C50229   6.794   5.118   1.677  0.4135 -0.1026  0.4582
  373MOL0     C50230   6.944   5.146   1.714 -0.0864  0.4124 -0.3389
  373MOL0     C50231   7.035   5.089   1.608 -0.2188 -0.9247  1.0936
  373MOL0     C50232   7.182   5.125   1.620 -0.2583  0.4798  0.4664
  373MOL0     C50233   7.266   5.063   1.505  0.2367 -1.5632  0.0917
  373MOL0     C50234   7.415   5.067   1.551  0.6220 -0.1877  0.8591
  373MOL0     C50235   7.517   5.024   1.439  0.3017  0.4563  0.1558
  373MOL0     C50236   7.490   4.879   1.388 -0.8369  0.6749 -0.5930
  373MOL0     N50237   7.578   4.846   1.288 -0.1358  0.6441 -0.2456
  373MOL0     C50238   7.709   4.902   1.267 -0.5328 -0.4381 -0.5104
  373MOL0     C50239   7.753   4.849   1.158 -0.0302 -0.2139  0.5008
  373MOL0     C50240   7.882   4.870   1.094  0.8186  0.1606 -0.1041
  373MOL0     C50241   7.900   5.019   1.069  0.9171 -0.0827  0.1294
  373MOL0     C50242   8.028   5.039   0.990 -0.1046  0.1381  0.6668
  373MOL0     C50243   8.077   5.178   0.980 -0.3353 -0.4339  0.2052
  373MOL0     O50244   7.976   5.284   0.948  0.2833 -0.0390 -0.1339
  373MOL0     C50245   8.018   5.410   0.921  0.2787 -0.8217 -0.0272
  373MOL0     C50246   8.122   5.474   0.984  0.3926  0.3145  0.0871
  373MOL0     C50247   8.160   5.603   0.936 -1.1035  0.4792 -0.7430
  373MOL0     C50248   8.098   5.661   0.827  0.3045 -0.8509  0.3111
  373MOL0     C50249   8.139   5.793   0.779  0.0020 -0.3752  0.2686
  373MOL0     O50250   8.213   5.861   0.861 -0.2922 -0.6071 -0.9442
  373MOL0     C50251   8.241   5.994   0.827 -0.6230  0.4358 -0.4103
  373MOL0     C50252   8.167   6.094   0.886  0.2777 -0.2870  0.0929
  373MOL0     C50253   8.185   6.227   0.845  0.3889 -0.5406  0.2043
  373MOL0     C50254   8.291   6.254   0.750  0.7149 -0.5379  0.5630
  373MOL0     O50255   8.325   6.383   0.712  0.0640  0.2452  0.3443
  373MOL0     C50256   8.338   6.482   0.812  0.5244 -0.1548 -0.0070
  373MOL0     C50257   8.394   6.605   0.755 -0.5629 -0.2923 -0.8417
  373MOL0     C50258   8.281   6.652   0.663 -0.6149  0.4145  0.0270
  373MOL0     C50259   8.301   6.797   0.618 -0.2192 -0.2341 -0.3865
  373MOL0     C50260   8.409   6.823   0.514 -0.0189  0.1055  0.5480
  373MOL0     C50261   8.443   6.975   0.487 -0.0617  0.0815  0.3585
  373MOL0     C50262   8.585   6.997   0.429  0.0309  0.3233 -0.0625
  373MOL0     C50263   8.588   7.007   0.278  0.1894 -0.0040  0.3950
  373MOL0    Cl50264   8.590   6.852   0.182 -0.2627  0.6492 -0.0761
  373MOL0     C50265   8.362   6.149   0.691  0.6408 -0.6062 -0.1583
  373MOL0     C50266   8.333   6.019   0.733 -0.5967  0.2162  0.0294
  373MOL0     O50267   8.084   5.831   0.672  0.4472  0.0635  0.0783
  373MOL0     C50268   7.999   5.587   0.762 -0.9214 -0.4281 -0.4525
  373MOL0     C50269   7.955   5.464   0.813 -0.4579  0.6649 -0.7277
  373MOL0     N50270   7.649   4.779   1.110  0.0926  0.2299 -0.7711
  373MOL0     N50271   7.544   4.772   1.181  0.5728  0.2008 -0.1582
  373MOL0     C50272   6.539   5.350   1.548 -0.4830  0.6830 -0.4685
  373MOL0     C50273   6.401   5.360   1.494 -0.8255  0.5078  0.2464
  373MOL0     C50274   5.978   5.252   1.449 -0.0626 -0.1557  0.1252
  373MOL0     C50275   5.954   5.300   1.311 -0.8126 -0.6041 -0.8672
  373MOL0     C50276   5.821   5.306   1.263 -0.3970  0.5455  0.4979
  373MOL0     C50277   5.714   5.255   1.344  0.1963 -0.6421  0.8262
  373MOL0     O50278   5.583   5.232   1.312 -0.8112 -0.0257 -0.4435
  373MOL0     C50279   5.540   5.249   1.179  0.2594 -0.6450 -0.6553
  373MOL0     C50280   5.558   5.140   1.086 -0.2245  1.1610  0.3283
  373MOL0     C50281   5.491   5.167   0.950 -0.5775  0.1611 -1.0070
  373MOL0     C50282   5.359   5.245   0.921  0.1298  0.7385  0.8081
  373MOL0     C50283   5.245   5.197   0.996  0.1218  0.1913 -0.7700
  373MOL0     C50284   5.147   5.161   1.064  0.9052 -0.6413  0.6032
  373MOL0     C50285   5.736   5.222   1.477  0.1714 -0.2938  0.2217
  373MOL0     C50286   5.865   5.213   1.528  0.2353  0.2950 -0.6692
  373MOL0     C50287   5.880   5.152   1.674  0.4106  0.3047 -0.2865
  373MOL0     H50288   6.362   5.029   1.416 -0.0661  0.3780  0.3312
  373MOL0     H50289   6.588   5.010   1.504  1.8388  1.3225  3.7410
  373MOL0     H50290   6.738   5.091   1.766  1.2385 -4.4229 -0.1264
  373MOL0     H50291   6.784   5.024   1.622  0.6884  0.2847 -0.2763
  373MOL0     H50292   6.960   5.096   1.810  1.8651 -0.7439 -1.2014
  373MOL0     H50293   6.958   5.254   1.727  0.6426  0.4193 -1.0667
  373MOL0     H50294   7.006   5.144   1.517  2.4569 -0.4981  0.4292
  373MOL0     H50295   7.021   4.984   1.582  0.4722 -0.5520 -0.9882
  373MOL0     H50296   7.196   5.233   1.620 -1.1960  0.7463 -3.1774
  373MOL0     H50297   7.222   5.070   1.706 -1.9488 -2.9692 -0.7657
  373MOL0     H50298   7.242   4.957   1.488  1.3149 -1.6927 -0.7032
  373MOL0     H50299   7.247   5.105   1.406 -1.9917  1.5756  1.6787
  373MOL0     H50300   7.435   5.170   1.582 -1.2711 -0.2197  2.3213
  373MOL0     H50301   7.433   4.993   1.629  2.1368 -1.1336 -0.3103
  373MOL0     H50302   7.615   5.041   1.483 -0.0102  3.7649 -0.1822
  373MOL0     H50303   7.508   5.096   1.358 -0.0483  1.5676  1.1612
  373MOL0     H50304   7.521   4.809   1.466  0.4670  0.5249 -1.2261
  373MOL0     H50305   7.386   4.869   1.353 -0.3115 -3.3096 -1.4385
  373MOL0     H50306   7.756   4.965   1.341  2.0326 -1.4891 -1.1507
  373MOL0     H50307   7.965   4.838   1.158  1.5513  2.7635  0.3774
  373MOL0     H50308   7.883   4.804   1.007 -1.3891  1.3694 -1.1372
  373MOL0     H50309   7.815   5.064   1.017 -0.4676 -1.4959  1.1068
  373MOL0     H50310   7.925   5.064   1.165  0.6510 -1.3233  0.8081
  373MOL0     H50311   8.015   4.993   0.892  0.5280  0.5072  0.3973
  373MOL0     H50312   8.108   4.980   1.036 -0.0442 -0.8845 -0.6870
  373MOL0     H50313   8.154   5.175   0.902 -0.0902  2.8767  0.1657
  373MOL0     H50314   8.123   5.203   1.076  0.1390  1.4162 -0.4660
  373MOL0     H50315   8.181   5.423   1.060  0.0683  0.1398  0.2242
  373MOL0     H50316   8.235   5.665   0.985 -1.1735 -1.9306  2.7940
  373MOL0     H50317   8.087   6.064   0.954  0.8960 -1.1217  0.4745
  373MOL0     H50318   8.135   6.305   0.900 -2.0211 -2.9760  1.7175
  373MOL0     H50319   8.244   6.507   0.862  0.7377  2.1571 -0.6591
  373MOL0     H50320   8.419   6.452   0.879 -0.1055  0.7751  1.2043
  373MOL0     H50321   8.415   6.667   0.843 -1.7199 -1.4200  0.2908
  373MOL0     H50322   8.486   6.587   0.700  0.4376  0.6978  0.4522
  373MOL0     H50323   8.285   6.597   0.569  3.0008 -1.0262  0.8751
  373MOL0     H50324   8.182   6.652   0.711 -0.5745 -0.7560  0.1198
  373MOL0     H50325   8.342   6.851   0.704  0.2111  0.9308 -1.2899
  373MOL0     H50326   8.203   6.839   0.593 -1.4975 -2.6114  0.2923
  373MOL0     H50327   8.364   6.782   0.423  2.4732 -1.5769 -0.0331
  373MOL0     H50328   8.503   6.773   0.542  0.8936 -0.8285 -3.4815
  373MOL0     H50329   8.370   7.020   0.419 -0.5221  0.6218  1.1903
  373MOL0     H50330   8.434   7.024   0.584 -1.6772  0.2130  0.1746
  373MOL0     H50331   8.657   6.934   0.481 -0.5601 -1.2428 -1.0733
  373MOL0     H50332   8.606   7.098   0.466 -1.5631  0.3589  0.8687
  373MOL0     H50333   8.497   7.055   0.241 -0.5404 -0.9048  0.9601
  373MOL0     H50334   8.674   7.064   0.243  0.1419  0.7074  1.3990
  373MOL0     H50335   8.439   6.169   0.618 -0.4882 -2.1849 -1.8771
  373MOL0     H50336   8.395   5.947   0.681 -1.3787  0.1505 -0.8508
  373MOL0     H50337   7.955   5.631   0.673  3.0222 -0.6678 -2.7413
  373MOL0     H50338   7.868   5.413   0.774 -1.2126 -0.1513  1.8279
  373MOL0     H50339   6.579   5.442   1.588 -0.1438  0.2702  0.1519
  373MOL0     H50340   6.357   5.458   1.504  1.8414  1.5995  2.6098
  373MOL0     H50341   6.032   5.345   1.251 -1.8315 -1.4308 -2.8932
  373MOL0     H50342   5.791   5.333   1.163 -0.6510 -2.5145 -0.3724
  373MOL0     H50343   5.591   5.337   1.140  0.4276 -1.0883 -1.4465
  373MOL0     H50344   5.436   5.284   1.175  0.0377 -1.3914 -2.2634
  373MOL0     H50345   5.515   5.052   1.135  1.9144  0.3283  0.8288
  373MOL0     H50346   5.666   5.123   1.073 -0.0161  1.2950  1.7207
  373MOL0     H50347   5.472   5.070   0.903 -0.0486  0.6689 -2.3013
  373MOL0     H50348   5.562   5.214   0.882 -1.1064 -0.7936 -2.2686
  373MOL0     H50349   5.373   5.351   0.945 -2.0968  1.2952 -0.0590
  373MOL0     H50350   5.344   5.245   0.813 -3.1146  0.8771  1.1687
  373MOL0     H50351   5.064   5.144   1.129 -0.1900 -0.1134 -0.6054
  373MOL0     H50352   5.650   5.210   1.542 -1.6873  3.1210 -1.3024
  373MOL0     H50353   5.972   5.094   1.685 -0.3042 -0.6471  0.8847
  373MOL0     H50354   5.885   5.231   1.749  0.3936 -1.1062  1.2617
  373MOL0     H50355   5.798   5.081   1.688  1.3532 -1.3944 -2.6813
  374MOL0     O50356  11.233   1.712   7.852 -0.1074 -0.1527 -0.0084
  374MOL0     C50357  11.216   1.803   7.773  0.2280 -0.3941  0.0794
  374MOL0     O50358  11.292   1.827   7.665  0.0051 -0.4363 -0.4580
  374MOL0     C50359  11.415   1.760   7.643 -0.4002  0.7828 -0.4499
  374MOL0     C50360  11.510   1.732   7.741 -0.6135 -0.5768 -0.1367
  374MOL0     C50361  11.635   1.682   7.723 -0.1474  0.3050  0.2850
  374MOL0     C50362  11.667   1.647   7.590 -0.2854 -0.6140  0.4185
  374MOL0     O50363  11.787   1.603   7.550  0.3512  0.2123  0.0545
  374MOL0     C50364  11.866   1.539   7.661 -0.7477 -0.0448 -0.2539
  374MOL0     C50365  11.955   1.440   7.593  0.0149  0.6141 -0.9198
  374MOL0     C50366  12.048   1.371   7.707  0.3572  0.2293 -0.2222
  374MOL0     C50367  12.178   1.321   7.645  0.0691  0.4640 -0.1689
  374MOL0     C50368  12.265   1.264   7.756 -0.1854  0.0419 -1.0506
  374MOL0     C50369  12.394   1.188   7.706 -0.2143  0.5707  0.3192
  374MOL0     C50370  12.495   1.175   7.820 -0.0364 -0.0770 -0.9176
  374MOL0     C50371  12.444   1.074   7.937  0.1976 -0.4443  0.0568
  374MOL0     N50372  12.537   0.973   7.972  0.3097  0.6560  0.1958
  374MOL0     C50373  12.591   0.954   8.099 -0.8435 -0.0034 -0.1802
  374MOL0     C50374  12.688   0.864   8.080  0.2929  0.5922 -1.2282
  374MOL0     C50375  12.786   0.815   8.182 -0.5332  0.5020 -0.8376
  374MOL0     C50376  12.929   0.847   8.139 -0.4211 -0.1023 -0.4819
  374MOL0     C50377  12.955   0.991   8.100  1.1450 -0.1463 -1.0072
  374MOL0     C50378  13.098   1.013   8.065  0.4569  0.2117  0.1893
  374MOL0     O50379  13.169   1.010   8.184 -0.6844 -0.1516 -0.5553
  374MOL0     C50380  13.303   1.027   8.189  0.3375 -0.3211 -0.3557
  374MOL0     C50381  13.365   0.994   8.311 -0.9882  0.0953  0.3801
  374MOL0     C50382  13.501   0.976   8.328 -1.1576  0.3161  0.2367
  374MOL0     C50383  13.590   1.008   8.222  0.2158 -0.7348  0.4721
  374MOL0     C50384  13.739   0.988   8.238 -0.1353 -0.9151  0.0940
  374MOL0     O50385  13.819   1.017   8.136 -0.9826 -0.7354  0.1885
  374MOL0     C50386  13.955   1.006   8.149  0.0593  0.1283  0.6531
  374MOL0     C50387  14.028   1.125   8.133  0.3153  0.4264 -0.2849
  374MOL0     C50388  14.167   1.131   8.143 -0.3171 -0.6347 -0.5235
  374MOL0     C50389  14.239   1.012   8.164 -0.7098  0.3008 -0.8274
  374MOL0     O50390  14.376   0.995   8.157  0.1342 -0.1487 -0.2637
  374MOL0     C50391  14.449   1.109   8.154 -0.9583  0.3306  0.0921
  374MOL0     C50392  14.592   1.059   8.179 -0.0663 -0.5150 -0.0581
  374MOL0     C50393  14.687   1.184   8.152 -0.6744 -0.1842  0.6232
  374MOL0     C50394  14.835   1.145   8.148 -0.6740 -0.2164 -0.1039
  374MOL0     C50395  14.938   1.254   8.101  0.8524  0.0684  0.2870
  374MOL0     C50396  15.067   1.246   8.174 -0.2434  0.4568  0.4343
  374MOL0     C50397  15.148   1.119   8.144  0.4969  0.3778  0.1264
  374MOL0     C50398  15.264   1.092   8.243  1.0526 -0.9231 -0.6612
  374MOL0    Cl50399  15.317   0.920   8.225 -0.2550 -0.1125 -0.3869
  374MOL0     C50400  14.166   0.888   8.180  0.6050  0.1712  0.0957
  374MOL0     C50401  14.026   0.886   8.175 -0.3591  0.4300  1.0397
  374MOL0     O50402  13.776   0.921   8.336  0.1104  0.2367  0.3957
  374MOL0     C50403  13.526   1.050   8.101  0.2390  0.3198 -0.1879
  374MOL0     C50404  13.388   1.059   8.083 -0.2707 -0.4813  0.1653
  374MOL0     N50405  12.695   0.835   7.949  0.3756  0.2828 -0.1858
  374MOL0     N50406  12.608   0.894   7.888 -0.3364 -0.8822 -0.3539
  374MOL0     C50407  11.569   1.662   7.492 -0.5462 -0.1309 -1.2165
  374MOL0     C50408  11.450   1.721   7.516 -0.5454  0.0129  0.7570
  374MOL0     C50409  11.096   1.881   7.789  1.9427 -0.4285  0.2246
  374MOL0     C50410  11.018   1.896   7.666 -0.5770  1.0074 -0.3263
  374MOL0     C50411  10.900   1.970   7.658  0.4441  0.3996  0.6469
  374MOL0     C50412  10.850   2.031   7.772  0.3569 -0.6151  0.1913
  374MOL0     O50413  10.736   2.107   7.762  0.2416  0.0455  0.3285
  374MOL0     C50414  10.625   2.061   7.833  0.0413  0.0675  0.1197
  374MOL0     C50415  10.517   2.173   7.826  0.2209 -0.0482  0.1355
  374MOL0     C50416  10.379   2.110   7.870  0.6463  0.4147 -0.9996
  374MOL0     C50417  10.261   2.210   7.861 -0.0159 -0.3609  0.2966
  374MOL0     C50418  10.294   2.351   7.902 -0.4282  0.2367  0.5788
  374MOL0     C50419  10.326   2.464   7.942 -0.7051 -0.0865  0.0509
  374MOL0     C50420  10.924   2.020   7.891  0.2248  0.1677  0.0412
  374MOL0     C50421  11.040   1.946   7.902  0.5523 -0.0496 -0.1474
  374MOL0     C50422  11.113   1.960   8.037  0.7830 -0.6968  0.9472
  374MOL0     H50423  11.488   1.764   7.843 -0.5784  0.7600 -0.5314
  374MOL0     H50424  11.704   1.667   7.806  1.9952  0.1321 -1.4431
  374MOL0     H50425  11.925   1.618   7.708 -1.3980 -1.3714  3.0365
  374MOL0     H50426  11.806   1.499   7.744 -0.2590  2.8270  1.6261
  374MOL0     H50427  12.021   1.486   7.518  0.9693 -1.6570 -1.5560
  374MOL0     H50428  11.892   1.368   7.541 -0.8431  1.7946 -1.5735
  374MOL0     H50429  11.990   1.287   7.747 -2.5680  0.1822 -4.0265
  374MOL0     H50430  12.079   1.446   7.780 -1.5456  1.4124 -0.5852
  374MOL0     H50431  12.163   1.239   7.573  2.5856 -2.2738  2.1632
  374MOL0     H50432  12.226   1.402   7.591  0.1893 -1.2504 -2.8453
  374MOL0     H50433  12.296   1.355   7.808  2.8103 -0.5090 -1.6757
  374MOL0     H50434  12.210   1.205   7.829  1.1833  1.4576  1.2560
  374MOL0     H50435  12.370   1.088   7.667 -1.5849  1.1642 -0.4269
  374MOL0     H50436  12.432   1.237   7.615 -3.5377  1.7127 -0.5898
  374MOL0     H50437  12.510   1.267   7.877 -0.9631  0.0083 -0.7898
  374MOL0     H50438  12.593   1.149   7.779 -1.0290 -1.9926 -2.2472
  374MOL0     H50439  12.426   1.143   8.020 -0.3404 -1.0976  0.4926
  374MOL0     H50440  12.354   1.019   7.907  0.3504 -0.0216 -1.2178
  374MOL0     H50441  12.562   0.998   8.194  0.2851 -2.0456  1.1767
  374MOL0     H50442  12.768   0.853   8.283 -1.6143  1.8318 -1.4892
  374MOL0     H50443  12.788   0.706   8.191 -0.7114  0.5162 -0.6274
  374MOL0     H50444  12.997   0.822   8.221 -0.0568 -1.8678 -1.2743
  374MOL0     H50445  12.952   0.785   8.053 -1.3740 -1.7845  0.4180
  374MOL0     H50446  12.928   1.049   8.189  0.4869 -2.3246  0.3006
  374MOL0     H50447  12.895   1.023   8.015 -0.7058 -0.7283  0.0081
  374MOL0     H50448  13.112   1.100   7.999  0.5995  0.6370  0.7765
  374MOL0     H50449  13.127   0.924   8.007 -2.9854  0.1898 -1.7964
  374MOL0     H50450  13.290   0.981   8.388 -1.9492 -0.3337 -0.5934
  374MOL0     H50451  13.553   0.953   8.420 -0.2078 -1.3208 -0.6708
  374MOL0     H50452  13.969   1.214   8.116 -1.6772 -0.7106  0.3046
  374MOL0     H50453  14.217   1.226   8.131  0.8142 -1.1830 -0.2966
  374MOL0     H50454  14.443   1.149   8.052 -0.0932 -1.7645 -0.8564
  374MOL0     H50455  14.418   1.181   8.230 -0.8549  1.0352 -0.5265
  374MOL0     H50456  14.601   1.020   8.281 -2.6202 -0.6469  0.1839
  374MOL0     H50457  14.607   0.983   8.102  0.3138  0.2513 -0.7481
  374MOL0     H50458  14.662   1.227   8.055 -3.6245 -0.6435  1.0878
  374MOL0     H50459  14.667   1.268   8.219  0.6076  3.4394 -3.1082
  374MOL0     H50460  14.849   1.056   8.086 -2.6921  0.3643 -1.5056
  374MOL0     H50461  14.851   1.126   8.255  1.9436  1.3158 -0.1432
  374MOL0     H50462  14.903   1.356   8.119 -0.3030 -0.4241  0.9466
  374MOL0     H50463  14.953   1.238   7.993  0.8300  0.5098  0.2149
  374MOL0     H50464  15.124   1.335   8.144 -2.0649  1.1429 -1.2702
  374MOL0     H50465  15.042   1.262   8.279  1.7749  0.1266  0.9915
  374MOL0     H50466  15.198   1.127   8.047 -0.0151  2.3313 -0.0035
  374MOL0     H50467  15.077   1.036   8.151 -2.4356  2.8112  1.5275
  374MOL0     H50468  15.342   1.165   8.221 -1.1878  1.2327 -1.9124
  374MOL0     H50469  15.239   1.115   8.347  0.7871  1.6849 -1.2411
  374MOL0     H50470  14.224   0.797   8.187  2.4057  1.3492  1.0275
  374MOL0     H50471  13.972   0.796   8.202  1.8493 -1.6416 -0.9255
  374MOL0     H50472  13.593   1.077   8.019 -0.8886  1.4119 -0.7877
  374MOL0     H50473  13.339   1.065   7.986  0.1016 -3.3274 -0.2992
  374MOL0     H50474  11.598   1.630   7.393 -0.0852 -0.8622 -0.8601
  374MOL0     H50475  11.390   1.736   7.427  0.5868  1.7510  0.2335
  374MOL0     H50476  11.055   1.839   7.581  0.6326 -0.3845  1.0737
  374MOL0     H50477  10.862   1.981   7.557 -1.6237 -0.4065  1.2884
  374MOL0     H50478  10.661   2.038   7.934  0.2899  0.4304  0.1132
  374MOL0     H50479  10.591   1.970   7.781 -2.4016 -0.1467  1.9110
  374MOL0     H50480  10.509   2.213   7.725 -0.1382 -0.4347  0.0103
  374MOL0     H50481  10.552   2.257   7.888  0.3972  2.2837 -2.9269
  374MOL0     H50482  10.388   2.094   7.978  0.8573  2.1924 -0.7269
  374MOL0     H50483  10.362   2.021   7.809  2.5913  1.1528 -2.7293
  374MOL0     H50484  10.233   2.210   7.755  1.1579 -4.2335 -0.1870
  374MOL0     H50485  10.181   2.172   7.925  0.1438  0.4297  0.9856
  374MOL0     H50486  10.335   2.566   7.973  0.3154 -0.0285 -0.3921
  374MOL0     H50487  10.886   2.073   7.977 -2.8554  1.5637 -1.9987
  374MOL0     H50488  11.167   1.867   8.056 -1.2529 -1.5998  2.8340
  374MOL0     H50489  11.174   2.051   8.040  0.0108 -0.1540  0.5887
  374MOL0     H50490  11.038   1.974   8.115  1.4181 -2.0287  1.8281
  375MOL0     O50491   8.418   4.253  10.975  0.5583  0.5435 -0.0898
  375MOL0     C50492   8.383   4.138  10.959 -0.3128  1.0747  0.8421
  375MOL0     O50493   8.469   4.031  10.926  0.2005 -0.4492  0.3640
  375MOL0     C50494   8.603   4.060  10.915 -0.0984 -0.3800 -0.9597
  375MOL0     C50495   8.696   3.976  10.976  0.5016  0.0154  0.4486
  375MOL0     C50496   8.829   3.999  10.959 -0.1380  0.8487 -0.3009
  375MOL0     C50497   8.875   4.104  10.876  0.6336 -0.3204  0.8695
  375MOL0     O50498   9.002   4.143  10.859  0.1996 -0.1764 -0.2132
  375MOL0     C50499   9.106   4.045  10.892  0.8857  0.2659  0.5270
  375MOL0     C50500   9.163   4.049  11.029 -0.5421  0.3362  0.1740
  375MOL0     C50501   9.197   4.199  11.067  0.1051 -0.0275  0.9364
  375MOL0     C50502   9.312   4.202  11.158  0.1688  0.9018  0.3061
  375MOL0     C50503   9.344   4.346  11.192  0.8203 -0.2415  0.3966
  375MOL0     C50504   9.454   4.356  11.303 -0.0589  0.4511  0.2445
  375MOL0     C50505   9.473   4.511  11.339 -1.2545  0.0814 -0.1462
  375MOL0     C50506   9.588   4.533  11.439  0.0290 -0.2725 -1.1035
  375MOL0     N50507   9.719   4.515  11.375  1.4680 -0.0773 -0.4458
  375MOL0     C50508   9.796   4.623  11.334 -0.0381  0.5145  1.2107
  375MOL0     C50509   9.919   4.572  11.298 -0.3222  0.4092 -0.0105
  375MOL0     C50510  10.036   4.642  11.240 -0.0839  0.5480  0.4766
  375MOL0     C50511  10.146   4.675  11.343  0.1514 -0.3394 -0.4548
  375MOL0     C50512  10.232   4.558  11.386  0.0434  0.2510 -0.1192
  375MOL0     C50513  10.350   4.589  11.480 -0.0296  0.1147  0.1500
  375MOL0     O50514  10.462   4.622  11.407 -0.3243 -0.5656 -0.3474
  375MOL0     C50515  10.582   4.640  11.476 -0.1174  0.6133  0.5420
  375MOL0     C50516  10.593   4.652  11.610  0.1736 -0.8557 -1.0925
  375MOL0     C50517  10.722   4.669  11.670  0.1175  0.5808  0.3208
  375MOL0     C50518  10.828   4.677  11.587 -1.4680 -0.8395 -0.1516
  375MOL0     C50519  10.965   4.699  11.649  0.6721 -0.1287 -0.2143
  375MOL0     O50520  11.062   4.728  11.559  0.1236  0.0432  0.1858
  375MOL0     C50521  11.189   4.768  11.599  0.2753  0.0592  0.9241
  375MOL0     C50522  11.293   4.753  11.504  0.5355 -1.0016  0.1432
  375MOL0     C50523  11.424   4.781  11.546 -0.4248 -0.1394 -0.7293
  375MOL0     C50524  11.457   4.832  11.673 -0.8053  0.3023 -1.0636
  375MOL0     O50525  11.584   4.848  11.718  0.3178  1.1136 -0.8076
  375MOL0     C50526  11.634   4.740  11.806  0.3018  0.3027  1.1900
  375MOL0     C50527  11.742   4.766  11.908  0.2473  0.3445  1.0973
  375MOL0     C50528  11.697   4.872  12.001  0.6028  0.0365  0.1538
  375MOL0     C50529  11.807   4.905  12.102  0.6822 -0.3190 -0.9023
  375MOL0     C50530  11.883   5.030  12.056 -1.1659 -0.6224 -0.1633
  375MOL0     C50531  11.973   5.101  12.164 -0.2068 -0.5640 -0.3418
  375MOL0     C50532  12.042   5.220  12.109  0.5184 -0.2188  0.0503
  375MOL0     C50533  12.162   5.263  12.196  0.0688 -0.5354  0.8021
  375MOL0    Cl50534  12.126   5.294  12.363  0.0951 -0.1251  0.6967
  375MOL0     C50535  11.351   4.846  11.767  0.0094 -0.4722  0.3041
  375MOL0     C50536  11.216   4.822  11.724 -0.9778 -0.6195  0.6968
  375MOL0     O50537  10.977   4.671  11.770  0.2887  0.3002 -0.3492
  375MOL0     C50538  10.816   4.676  11.443  0.2602  1.1335  0.3113
  375MOL0     C50539  10.691   4.656  11.394  0.1981 -0.5215  0.2899
  375MOL0     N50540   9.920   4.442  11.341 -0.3687  0.7171  0.3054
  375MOL0     N50541   9.803   4.410  11.384 -0.4526  0.2362 -0.7502
  375MOL0     C50542   8.781   4.193  10.820 -0.5244 -0.0382  0.6832
  375MOL0     C50543   8.649   4.171  10.841  0.8273  0.8859 -0.4353
  375MOL0     C50544   8.244   4.106  11.003 -0.5626  0.3170  0.0119
  375MOL0     C50545   8.204   3.968  11.021  0.2446 -0.2413  0.1339
  375MOL0     C50546   8.094   3.938  11.103  0.8770  0.1248 -0.5008
  375MOL0     C50547   8.016   4.032  11.150  0.1833  0.7122  0.4891
  375MOL0     O50548   7.901   3.982  11.213 -0.0696  0.5157  0.0652
  375MOL0     C50549   7.810   4.072  11.265  0.5690  0.3448 -0.4186
  375MOL0     C50550   7.717   3.997  11.353 -0.8973 -0.5129 -0.7765
  375MOL0     C50551   7.583   4.064  11.362  0.3266  0.8754  0.7085
  375MOL0     C50552   7.489   3.983  11.459  0.1647  0.2047  0.5855
  375MOL0     C50553   7.529   3.982  11.603 -0.1178  0.0117 -0.0458
  375MOL0     C50554   7.559   3.994  11.717  0.3555 -0.3031  0.9201
  375MOL0     C50555   8.046   4.161  11.122  0.0918  0.7380 -0.1795
  375MOL0     C50556   8.153   4.202  11.048  0.9955  0.9421 -0.0441
  375MOL0     C50557   8.165   4.345  11.022  0.2197 -0.1522 -0.3556
  375MOL0     H50558   8.667   3.895  11.043  1.7691 -1.7528 -1.0187
  375MOL0     H50559   8.895   3.933  11.015 -1.6170 -0.4700 -0.0172
  375MOL0     H50560   9.088   3.938  10.879  3.4578 -0.3893  1.6126
  375MOL0     H50561   9.185   4.065  10.820 -0.6195  1.6366 -0.8000
  375MOL0     H50562   9.259   3.996  11.031  0.6482  2.3620  2.4115
  375MOL0     H50563   9.093   4.004  11.100 -1.4065  0.4169 -0.6232
  375MOL0     H50564   9.108   4.234  11.119 -0.6553  0.4114 -0.5857
  375MOL0     H50565   9.207   4.246  10.969  0.2607 -1.3787  0.2667
  375MOL0     H50566   9.292   4.153  11.254  0.6586 -1.9470 -0.9232
  375MOL0     H50567   9.397   4.147  11.116 -0.4631 -3.0556  3.5935
  375MOL0     H50568   9.369   4.399  11.100 -0.5664  0.0707  0.1790
  375MOL0     H50569   9.252   4.389  11.234 -0.6312 -3.2509  0.5831
  375MOL0     H50570   9.419   4.306  11.394 -3.4665  2.2834  0.1124
  375MOL0     H50571   9.540   4.300  11.265 -2.2539 -3.4143  0.4570
  375MOL0     H50572   9.384   4.548  11.390 -0.9537  1.5212 -0.6292
  375MOL0     H50573   9.493   4.560  11.243 -0.3575 -0.8708 -0.4701
  375MOL0     H50574   9.583   4.632  11.486 -1.8516 -0.0482 -1.6589
  375MOL0     H50575   9.571   4.462  11.520  1.4961  0.3951 -0.1679
  375MOL0     H50576   9.763   4.723  11.309  0.9224 -0.0594 -3.3809
  375MOL0     H50577  10.074   4.586  11.154 -2.8929  3.4697 -3.0201
  375MOL0     H50578   9.997   4.736  11.201 -0.7171  0.7846  1.6448
  375MOL0     H50579  10.209   4.750  11.295  0.0362  0.6187  0.8373
  375MOL0     H50580  10.105   4.729  11.429 -0.3215  0.1684 -0.9817
  375MOL0     H50581  10.258   4.511  11.291  0.8149 -1.5389  0.9343
  375MOL0     H50582  10.167   4.486  11.437 -1.2691  1.3672 -0.1360
  375MOL0     H50583  10.382   4.494  11.524  1.6847 -0.3058 -1.8103
  375MOL0     H50584  10.322   4.659  11.560  1.0398 -0.7378  1.3101
  375MOL0     H50585  10.501   4.654  11.667 -1.0478  1.4575 -2.9482
  375MOL0     H50586  10.722   4.680  11.778  0.7316 -1.9589  0.6413
  375MOL0     H50587  11.279   4.716  11.403  1.4344 -1.5921  0.2198
  375MOL0     H50588  11.502   4.755  11.476 -1.5910 -0.4195 -1.9619
  375MOL0     H50589  11.546   4.698  11.857  0.0769 -3.2297 -1.6973
  375MOL0     H50590  11.669   4.658  11.742  1.7813 -0.3693  2.7683
  375MOL0     H50591  11.751   4.674  11.967  0.0725 -3.1228 -3.7469
  375MOL0     H50592  11.838   4.788  11.860  1.1564 -1.5074  2.0052
  375MOL0     H50593  11.653   4.959  11.950  0.9151 -0.2113 -0.5480
  375MOL0     H50594  11.620   4.824  12.062  2.3158 -0.2669  2.2388
  375MOL0     H50595  11.872   4.820  12.123  1.4701  1.1619  3.5398
  375MOL0     H50596  11.758   4.926  12.197 -0.3094 -1.4150 -1.1513
  375MOL0     H50597  11.810   5.100  12.016 -2.5027 -2.2000 -0.6267
  375MOL0     H50598  11.952   5.004  11.975  0.6032  1.1814  0.6844
  375MOL0     H50599  11.908   5.138  12.244 -0.1994 -3.3050  1.0407
  375MOL0     H50600  12.048   5.037  12.212  0.9013  1.1658  0.3250
  375MOL0     H50601  11.975   5.303  12.083  1.3432  1.0263  1.6620
  375MOL0     H50602  12.075   5.191  12.009 -1.1872  0.5216 -0.7554
  375MOL0     H50603  12.230   5.178  12.188  1.0718  0.3389 -6.2969
  375MOL0     H50604  12.219   5.339  12.142  0.7333 -2.6916 -1.7015
  375MOL0     H50605  11.393   4.888  11.858  2.0776  1.1073 -1.2965
  375MOL0     H50606  11.128   4.843  11.784 -0.7527 -0.5262  0.9952
  375MOL0     H50607  10.895   4.676  11.369 -1.8925  2.2596 -2.1364
  375MOL0     H50608  10.679   4.644  11.287  1.8958  0.8762 -0.1131
  375MOL0     H50609   8.810   4.277  10.757  2.7342 -0.0698  1.9215
  375MOL0     H50610   8.583   4.240  10.789 -0.7702 -0.4946 -0.3177
  375MOL0     H50611   8.260   3.880  10.989  1.4909  0.2999  0.7480
  375MOL0     H50612   8.087   3.833  11.130  1.2962  0.5022  1.1928
  375MOL0     H50613   7.756   4.118  11.181  2.2057 -0.1969 -1.8180
  375MOL0     H50614   7.854   4.151  11.326  0.2142  1.0530 -1.0616
  375MOL0     H50615   7.764   3.986  11.452 -0.0118 -1.5061 -1.2879
  375MOL0     H50616   7.707   3.895  11.314 -0.1537 -0.8564 -0.1179
  375MOL0     H50617   7.540   4.049  11.263  1.7098  0.8314  0.0883
  375MOL0     H50618   7.599   4.170  11.385  2.9174  0.5925  0.5472
  375MOL0     H50619   7.385   4.016  11.450 -0.3800 -1.8956 -2.4226
  375MOL0     H50620   7.487   3.875  11.441 -0.8811  0.1032  1.2205
  375MOL0     H50621   7.597   4.004  11.816  0.6552  0.1906  0.7572
  375MOL0     H50622   7.974   4.239  11.148  0.2863  0.7666  0.2832
  375MOL0     H50623   8.241   4.394  11.083  1.3591 -0.6469 -1.3393
  375MOL0     H50624   8.184   4.367  10.916 -1.6515 -3.7119 -1.6075
  375MOL0     H50625   8.080   4.408  11.050  1.8212  2.6223 -1.2963
  376MOL0     O50626   6.030   1.066   9.263 -0.2480 -0.1370 -0.5106
  376MOL0     C50627   6.041   0.944   9.297 -0.9823 -1.1407  0.1008
  376MOL0     O50628   6.021   0.899   9.426 -0.2159  0.6965 -0.5012
  376MOL0     C50629   6.077   0.972   9.524  0.0881 -0.3793  1.5097
  376MOL0     C50630   6.202   0.933   9.579  0.5093 -0.1897 -0.2708
  376MOL0     C50631   6.261   0.993   9.689 -0.2353 -0.0779 -0.2841
  376MOL0     C50632   6.200   1.106   9.745 -0.0304  0.4131 -0.1965
  376MOL0     O50633   6.262   1.186   9.840 -0.6326 -0.4574  0.3288
  376MOL0     C50634   6.378   1.143   9.911 -0.4642 -0.5995 -0.5930
  376MOL0     C50635   6.504   1.197   9.842  0.3732 -0.0634 -1.0108
  376MOL0     C50636   6.616   1.199   9.940 -1.1196 -0.3101  0.6591
  376MOL0     C50637   6.737   1.269   9.887  0.4862 -0.8865  0.5097
  376MOL0     C50638   6.836   1.305   9.993  0.4689 -0.1787  0.1719
  376MOL0     C50639   6.968   1.367   9.938  0.5566  0.5123  0.3928
  376MOL0     C50640   7.075   1.386  10.054 -0.3065  0.2067 -0.4685
  376MOL0     C50641   7.208   1.409   9.983  0.6248 -0.5040  0.9544
  376MOL0     N50642   7.318   1.429  10.074 -1.2308 -0.2044  0.6842
  376MOL0     C50643   7.401   1.327  10.132  0.6124 -0.1264 -0.6947
  376MOL0     C50644   7.500   1.391  10.193  0.5055  0.3332  0.3591
  376MOL0     C50645   7.605   1.328  10.282  0.3511 -0.4072  0.5729
  376MOL0     C50646   7.606   1.374  10.429 -0.5287  0.2755 -0.1206
  376MOL0     C50647   7.690   1.290  10.519 -0.2579 -0.2719  0.6693
  376MOL0     C50648   7.843   1.320  10.496  0.6960  0.0834 -0.3995
  376MOL0     O50649   7.893   1.249  10.381 -1.0239 -0.0637 -0.5712
  376MOL0     C50650   7.991   1.324  10.312  0.6071  0.4782 -0.1795
  376MOL0     C50651   8.090   1.249  10.266  0.1323  0.7121 -0.3728
  376MOL0     C50652   8.191   1.302  10.178 -0.1854  0.6302 -0.1150
  376MOL0     C50653   8.190   1.429  10.128  0.1378 -0.5672 -0.1578
  376MOL0     C50654   8.304   1.480  10.044 -0.0591 -0.3909 -0.1166
  376MOL0     O50655   8.373   1.387   9.977  0.6323  0.5718 -0.1371
  376MOL0     C50656   8.491   1.425   9.914  0.0908 -0.4841 -0.1777
  376MOL0     C50657   8.607   1.457   9.990  0.6006 -0.3424  0.8242
  376MOL0     C50658   8.728   1.484   9.919 -0.0857 -0.3129 -0.3395
  376MOL0     C50659   8.735   1.477   9.778  0.5430 -0.1770 -0.1950
  376MOL0     O50660   8.854   1.478   9.706 -0.1432 -0.0995 -0.3806
  376MOL0     C50661   8.985   1.475   9.763 -0.3696  0.3226 -0.3737
  376MOL0     C50662   9.095   1.492   9.653 -0.1383 -1.0763 -0.7890
  376MOL0     C50663   9.092   1.369   9.555  0.3010 -0.1395 -0.4084
  376MOL0     C50664   9.200   1.377   9.438 -0.3558  0.3491  0.1235
  376MOL0     C50665   9.341   1.350   9.482  0.0393 -0.0370 -1.2424
  376MOL0     C50666   9.423   1.359   9.355  0.5398 -0.1941  0.7046
  376MOL0     C50667   9.568   1.301   9.358  0.2791 -0.4821  0.2049
  376MOL0     C50668   9.648   1.373   9.469  0.2452  0.6168  0.7319
  376MOL0    Cl50669   9.810   1.301   9.470 -0.2906  0.1442 -0.1848
  376MOL0     C50670   8.615   1.453   9.711  0.0363 -0.0911  1.0866
  376MOL0     C50671   8.492   1.431   9.772 -0.7087 -0.0187 -0.0095
  376MOL0     O50672   8.330   1.601  10.038  0.2919 -0.4064  0.3276
  376MOL0     C50673   8.090   1.511  10.177 -0.3808 -0.2367  0.2001
  376MOL0     C50674   7.989   1.457  10.264  0.0952 -0.7781 -0.1978
  376MOL0     N50675   7.483   1.529  10.174 -0.4018 -0.3837  0.1543
  376MOL0     N50676   7.384   1.546  10.090  0.5736 -0.2611  0.3184
  376MOL0     C50677   6.076   1.152   9.686 -0.2262  0.3137 -0.2046
  376MOL0     C50678   6.014   1.095   9.573  0.5527  0.5143 -0.0164
  376MOL0     C50679   6.040   0.838   9.192 -0.2755  0.2949  0.2461
  376MOL0     C50680   6.044   0.705   9.235  0.9105 -0.4769 -0.1018
  376MOL0     C50681   6.048   0.595   9.147 -0.1594  0.1471 -0.2974
  376MOL0     C50682   6.042   0.610   9.009 -0.0776 -0.0418  0.7104
  376MOL0     O50683   6.054   0.497   8.930 -0.2376 -0.3304  0.5088
  376MOL0     C50684   6.031   0.513   8.785  0.1298 -0.6315 -0.0248
  376MOL0     C50685   6.017   0.371   8.729  0.8280  0.4985  0.6251
  376MOL0     C50686   6.140   0.289   8.714 -0.1387 -0.4010 -0.0943
  376MOL0     C50687   6.104   0.155   8.654 -1.4471  0.0006  0.4742
  376MOL0     C50688   6.226   0.066   8.642 -0.4412 -0.2585 -0.0951
  376MOL0     C50689   6.336   0.020   8.627 -0.9275  0.3851  0.0003
  376MOL0     C50690   6.048   0.745   8.963  0.1649  0.0340 -0.1238
  376MOL0     C50691   6.042   0.855   9.047 -0.3644 -0.2478 -0.0782
  376MOL0     C50692   6.057   0.989   8.981 -0.0866 -0.4496  0.6589
  376MOL0     H50693   6.248   0.853   9.521 -5.2054 -3.2652 -1.3374
  376MOL0     H50694   6.361   0.962   9.719  0.5662  3.4433  1.2801
  376MOL0     H50695   6.380   1.189  10.010 -2.5106  2.0004 -1.6584
  376MOL0     H50696   6.377   1.034   9.921  2.4306 -1.1812 -4.2738
  376MOL0     H50697   6.492   1.301   9.811 -0.4723  0.4914  1.0051
  376MOL0     H50698   6.524   1.128   9.760 -0.8936 -0.3867 -1.0690
  376MOL0     H50699   6.652   1.096   9.957  0.9562 -0.0452 -1.5542
  376MOL0     H50700   6.585   1.247  10.033 -2.2671  0.5727 -0.1467
  376MOL0     H50701   6.787   1.204   9.815  3.1911 -0.3115  1.7288
  376MOL0     H50702   6.720   1.360   9.829  7.0599 -0.8253 -2.1537
  376MOL0     H50703   6.778   1.367  10.063 -0.6264  0.1435 -0.9841
  376MOL0     H50704   6.861   1.216  10.051 -1.6196  0.1846  1.7574
  376MOL0     H50705   7.011   1.300   9.863  0.9708  1.9597 -0.7232
  376MOL0     H50706   6.948   1.469   9.902 -0.6393 -0.2306 -1.1514
  376MOL0     H50707   7.089   1.299  10.118  1.1077 -1.1529 -2.5133
  376MOL0     H50708   7.069   1.481  10.108  2.7095 -0.5718  1.4954
  376MOL0     H50709   7.242   1.331   9.915  0.6333  0.5158 -0.2437
  376MOL0     H50710   7.187   1.497   9.922 -1.5433 -1.0014  0.9038
  376MOL0     H50711   7.379   1.221  10.139  3.2174 -0.9560 -3.3361
  376MOL0     H50712   7.607   1.218  10.277  0.0276 -0.3799 -0.4734
  376MOL0     H50713   7.702   1.352  10.238  0.2800  0.1798  0.7401
  376MOL0     H50714   7.628   1.481  10.422  0.5990  0.0502 -0.3418
  376MOL0     H50715   7.507   1.380  10.475  0.0289  1.8713  0.9842
  376MOL0     H50716   7.662   1.184  10.514  0.3004 -0.3986  0.1051
  376MOL0     H50717   7.669   1.326  10.620  1.8977  1.5160  0.5665
  376MOL0     H50718   7.895   1.299  10.590 -2.1045 -1.9523  0.8779
  376MOL0     H50719   7.853   1.426  10.472  0.6083 -0.2976 -2.3072
  376MOL0     H50720   8.104   1.150  10.308  1.6645  2.1592  2.8308
  376MOL0     H50721   8.275   1.239  10.154  0.3741  1.3666 -0.1410
  376MOL0     H50722   8.606   1.435  10.097  0.1814  1.2114  1.1705
  376MOL0     H50723   8.815   1.492   9.982 -1.9731 -3.1171  3.0092
  376MOL0     H50724   8.989   1.559   9.833  0.7671 -1.2876  1.6232
  376MOL0     H50725   8.994   1.386   9.825  2.4927  0.7677 -0.0143
  376MOL0     H50726   9.081   1.587   9.601  3.4100  0.1401  0.1786
  376MOL0     H50727   9.190   1.506   9.706  0.3942 -0.1882 -1.9266
  376MOL0     H50728   9.117   1.282   9.617  0.5693  0.5470  0.4553
  376MOL0     H50729   8.993   1.360   9.510 -0.2227 -2.5820  1.0248
  376MOL0     H50730   9.179   1.469   9.382 -0.1835  1.2610  1.5107
  376MOL0     H50731   9.187   1.301   9.360  0.8511 -1.1221  1.3097
  376MOL0     H50732   9.350   1.244   9.508 -1.6705 -0.6369 -2.8951
  376MOL0     H50733   9.377   1.417   9.560 -0.5651  0.4553 -1.3822
  376MOL0     H50734   9.374   1.316   9.268 -1.2961  1.3734  0.8915
  376MOL0     H50735   9.434   1.466   9.335  0.3446  0.0157  1.6807
  376MOL0     H50736   9.611   1.328   9.261  0.3844  0.7776  0.5885
  376MOL0     H50737   9.558   1.192   9.366 -1.0386 -0.4194 -0.1812
  376MOL0     H50738   9.653   1.477   9.438  1.5213  0.4856  0.4643
  376MOL0     H50739   9.607   1.356   9.569 -0.9755  0.0039  0.1639
  376MOL0     H50740   8.627   1.449   9.604  0.8241  1.7854  1.0615
  376MOL0     H50741   8.396   1.426   9.721 -0.0743  0.3030 -1.2779
  376MOL0     H50742   8.100   1.615  10.148  1.5901 -0.4006  0.1553
  376MOL0     H50743   7.908   1.523  10.294  0.5453  0.1322 -0.9248
  376MOL0     H50744   6.034   1.243   9.727 -1.0753 -0.4254  0.5867
  376MOL0     H50745   5.922   1.130   9.529  1.0849 -0.9241 -2.4946
  376MOL0     H50746   6.039   0.692   9.343 -2.2133 -0.8035 -0.1907
  376MOL0     H50747   6.047   0.496   9.190  1.2102  0.0619 -0.4107
  376MOL0     H50748   6.113   0.574   8.745 -1.0897  0.9411 -0.2324
  376MOL0     H50749   5.943   0.571   8.754 -0.2817 -1.7877 -1.1291
  376MOL0     H50750   5.967   0.379   8.632  1.6629 -1.0892  0.0343
  376MOL0     H50751   5.942   0.315   8.786 -0.8610  1.2978 -0.6899
  376MOL0     H50752   6.171   0.273   8.818 -1.8140  1.1722  0.7202
  376MOL0     H50753   6.220   0.337   8.657 -1.4512 -0.1917 -1.8399
  376MOL0     H50754   6.037   0.102   8.723 -0.7787 -0.4305  0.8019
  376MOL0     H50755   6.064   0.175   8.555 -3.2806  0.5653  1.2808
  376MOL0     H50756   6.436  -0.014   8.613 -1.5726 -0.9772 -1.5140
  376MOL0     H50757   6.042   0.768   8.857  1.1611 -1.1191 -0.4607
  376MOL0     H50758   5.954   1.021   8.966  0.1167 -1.3312 -4.8394
  376MOL0     H50759   6.113   1.065   9.036 -0.1271  0.2621 -0.2586
  376MOL0     H50760   6.099   0.991   8.879 -2.8756  2.4793 -0.5897
  377MOL0     O50761   6.593   4.896   7.099  0.2678 -0.3029  0.1026
  377MOL0     C50762   6.657   4.971   7.030  0.5430  0.6734 -0.1757
  377MOL0     O50763   6.613   5.015   6.908 -0.0698 -0.4317  0.0863
  377MOL0     C50764   6.485   4.985   6.859 -0.5571  0.3316 -0.4895
  377MOL0     C50765   6.382   5.072   6.881 -0.7215  0.7422  0.6374
  377MOL0     C50766   6.253   5.054   6.824  0.1298 -0.5515 -0.0995
  377MOL0     C50767   6.232   4.935   6.752 -0.2270  0.1651 -0.4833
  377MOL0     O50768   6.105   4.913   6.710 -0.0054  0.1328 -0.5959
  377MOL0     C50769   6.083   4.848   6.587  0.0587  0.4097  0.7724
  377MOL0     C50770   5.938   4.857   6.549 -0.3891 -0.0043 -0.3316
  377MOL0     C50771   5.909   4.810   6.413 -0.2175 -0.1794 -0.8257
  377MOL0     C50772   5.788   4.721   6.401 -0.0306  0.0083  0.3426
  377MOL0     C50773   5.718   4.733   6.262  0.4661 -0.0945 -0.4417
  377MOL0     C50774   5.780   4.651   6.146  0.0028  0.4595 -0.3521
  377MOL0     C50775   5.677   4.595   6.038  0.3560 -0.1933 -0.1483
  377MOL0     C50776   5.747   4.511   5.934  0.1648 -0.9292 -0.3327
  377MOL0     N50777   5.645   4.494   5.830 -0.6293  1.0687 -0.5309
  377MOL0     C50778   5.538   4.409   5.825 -0.0346  0.4299  0.2175
  377MOL0     C50779   5.455   4.452   5.724 -1.1257  0.0358 -0.4206
  377MOL0     C50780   5.332   4.383   5.684  0.0844 -0.1929  0.0497
  377MOL0     C50781   5.262   4.463   5.577 -1.7342  0.7353  0.0665
  377MOL0     C50782   5.128   4.402   5.546 -1.6525 -0.2163 -0.5093
  377MOL0     C50783   5.075   4.468   5.415  0.0635  0.1128 -0.1917
  377MOL0     O50784   4.932   4.438   5.399 -0.7364 -0.6309  0.2519
  377MOL0     C50785   4.870   4.532   5.324 -0.6077 -0.4223 -1.4727
  377MOL0     C50786   4.732   4.545   5.339  1.1243 -0.4563 -0.2838
  377MOL0     C50787   4.660   4.641   5.271 -0.7626  0.4851 -0.6531
  377MOL0     C50788   4.726   4.722   5.174  0.1200  0.5279  0.3072
  377MOL0     C50789   4.655   4.843   5.105 -0.6704 -0.4489  0.3900
  377MOL0     O50790   4.730   4.928   5.015 -0.4070  0.0372 -0.8405
  377MOL0     C50791   4.696   5.059   5.007 -0.4949 -0.5740  0.4323
  377MOL0     C50792   4.646   5.140   5.110 -0.7502  0.3621  1.0557
  377MOL0     C50793   4.609   5.268   5.088 -0.5852  0.0048  0.2834
  377MOL0     C50794   4.644   5.326   4.967  0.2905 -0.2816 -1.1233
  377MOL0     O50795   4.627   5.464   4.970  0.9581  0.0731  0.6778
  377MOL0     C50796   4.554   5.517   4.857 -0.7083  0.4503  0.2185
  377MOL0     C50797   4.412   5.546   4.898 -0.3641 -0.2337 -0.6171
  377MOL0     C50798   4.331   5.614   4.785 -0.6045 -0.0009  0.2708
  377MOL0     C50799   4.197   5.666   4.841 -0.0298  0.6281 -0.9190
  377MOL0     C50800   4.122   5.760   4.736 -0.1456  0.2491 -0.7319
  377MOL0     C50801   4.060   5.698   4.619 -0.3598  0.0647  0.4767
  377MOL0     C50802   3.965   5.582   4.643  0.8613 -0.2276  0.5214
  377MOL0     C50803   3.889   5.535   4.510 -0.2152  0.1786 -1.0181
  377MOL0    Cl50804   4.006   5.476   4.384  0.2529 -0.1596 -0.2684
  377MOL0     C50805   4.715   5.262   4.868 -0.8593  0.3966 -0.3423
  377MOL0     C50806   4.729   5.120   4.877 -0.0663  0.6009 -0.1061
  377MOL0     O50807   4.543   4.869   5.137  0.5307  0.7272 -0.4605
  377MOL0     C50808   4.857   4.703   5.151 -0.1312 -0.1292  0.1415
  377MOL0     C50809   4.927   4.606   5.221 -1.0118 -0.3671 -0.0119
  377MOL0     N50810   5.505   4.570   5.678  1.1470  0.1370 -0.7922
  377MOL0     N50811   5.623   4.589   5.731 -0.4366 -0.5934 -0.3425
  377MOL0     C50812   6.331   4.840   6.747  0.5162 -1.1744  0.1182
  377MOL0     C50813   6.462   4.868   6.792 -0.1858 -0.4574 -0.5141
  377MOL0     C50814   6.803   4.998   7.067  0.2938 -0.1573 -0.1874
  377MOL0     C50815   6.858   5.127   7.022  0.8156 -0.2575 -0.5449
  377MOL0     C50816   6.984   5.172   7.068  0.1733 -0.6165 -0.4219
  377MOL0     C50817   7.056   5.083   7.151  0.3243  0.3332  0.6487
  377MOL0     O50818   7.171   5.138   7.205 -0.2863  0.2041 -0.2021
  377MOL0     C50819   7.244   5.054   7.301  0.1812 -0.3617  0.2282
  377MOL0     C50820   7.348   4.959   7.234 -0.1851  0.0456 -0.1367
  377MOL0     C50821   7.436   4.892   7.342 -0.3443  0.0617  0.0699
  377MOL0     C50822   7.514   4.779   7.291  0.3137  0.1325  0.4892
  377MOL0     C50823   7.616   4.812   7.195 -0.0420  0.2171 -0.0744
  377MOL0     C50824   7.691   4.806   7.100 -0.2395 -0.2451 -0.2070
  377MOL0     C50825   7.005   4.954   7.169  0.7865 -0.5153  0.1856
  377MOL0     C50826   6.883   4.906   7.129  0.1750  0.0794 -0.2254
  377MOL0     C50827   6.848   4.763   7.157 -0.4818  1.3485  0.3611
  377MOL0     H50828   6.399   5.165   6.934  2.3876  1.2404 -0.9863
  377MOL0     H50829   6.184   5.137   6.838  1.8577  0.6400  2.0124
  377MOL0     H50830   6.138   4.904   6.511  0.0698  0.6539  0.9593
  377MOL0     H50831   6.113   4.744   6.578 -0.5513  0.2438  0.6263
  377MOL0     H50832   5.899   4.958   6.566 -2.5448 -1.1844  2.6725
  377MOL0     H50833   5.885   4.794   6.621  2.3605  0.0429  1.9401
  377MOL0     H50834   5.987   4.744   6.374  0.5339 -0.6141  1.3171
  377MOL0     H50835   5.892   4.903   6.356 -2.8450  1.3623  2.1674
  377MOL0     H50836   5.827   4.619   6.403  1.4779  0.5532  0.0516
  377MOL0     H50837   5.707   4.737   6.473  0.5093  2.3742  0.5094
  377MOL0     H50838   5.615   4.699   6.273  0.1948  0.3368 -1.4879
  377MOL0     H50839   5.709   4.837   6.230  0.5809  0.3485  0.8865
  377MOL0     H50840   5.874   4.697   6.113  1.1064 -0.3568  1.5103
  377MOL0     H50841   5.823   4.563   6.195  1.2679  0.9097 -0.6120
  377MOL0     H50842   5.617   4.673   5.989 -2.1053 -2.0520 -0.2669
  377MOL0     H50843   5.604   4.530   6.088 -0.1396 -0.9199 -1.7712
  377MOL0     H50844   5.837   4.564   5.903 -0.5906  1.6369  1.4987
  377MOL0     H50845   5.780   4.417   5.980  3.0241  0.2084  0.1602
  377MOL0     H50846   5.523   4.315   5.878  3.2589  0.4177  1.3279
  377MOL0     H50847   5.351   4.281   5.650 -2.2096 -0.4466 -0.6567
  377MOL0     H50848   5.260   4.377   5.766  1.3876  1.2464  1.3731
  377MOL0     H50849   5.257   4.567   5.613 -2.2934  0.0415  2.1132
  377MOL0     H50850   5.333   4.446   5.495  0.6079  0.9856  1.9288
  377MOL0     H50851   5.054   4.425   5.623 -1.3664  3.1115 -1.0748
  377MOL0     H50852   5.136   4.293   5.538 -0.3673 -0.1579 -0.1957
  377MOL0     H50853   5.132   4.430   5.329 -1.6955  0.7233 -1.6872
  377MOL0     H50854   5.097   4.575   5.420  0.5896 -0.0560  1.8245
  377MOL0     H50855   4.672   4.483   5.405  2.4979 -1.2025  0.3184
  377MOL0     H50856   4.553   4.655   5.285 -1.0251  1.7642 -3.2301
  377MOL0     H50857   4.620   5.109   5.211 -0.3007 -3.6806  0.1177
  377MOL0     H50858   4.566   5.320   5.173 -1.7452 -0.0360 -0.2532
  377MOL0     H50859   4.605   5.610   4.827  3.2037 -1.1797  1.1885
  377MOL0     H50860   4.548   5.454   4.768 -1.1602  1.2632 -0.3456
  377MOL0     H50861   4.361   5.457   4.936  0.7930  0.5422  3.1212
  377MOL0     H50862   4.421   5.610   4.986 -0.2411 -0.2088 -0.6476
  377MOL0     H50863   4.387   5.697   4.740 -1.7060  2.1005  2.5333
  377MOL0     H50864   4.316   5.545   4.702 -1.0048  0.0118  0.3316
  377MOL0     H50865   4.214   5.725   4.931 -0.1645 -1.6641  0.6847
  377MOL0     H50866   4.128   5.586   4.870  1.3069  0.0164  0.7546
  377MOL0     H50867   4.184   5.846   4.709  0.3038  0.2499  0.2737
  377MOL0     H50868   4.040   5.811   4.787 -2.0599 -1.5229 -1.9007
  377MOL0     H50869   4.008   5.777   4.565  3.1181  1.6620 -0.8283
  377MOL0     H50870   4.141   5.665   4.553  2.1487 -1.0100  3.8304
  377MOL0     H50871   3.889   5.600   4.719 -0.2647  0.4816 -0.7399
  377MOL0     H50872   4.023   5.499   4.685  2.2259  0.4076 -0.0536
  377MOL0     H50873   3.821   5.456   4.542 -0.2780  0.0945 -1.3574
  377MOL0     H50874   3.835   5.622   4.473  1.1592  1.5363  0.0073
  377MOL0     H50875   4.748   5.321   4.784  0.1867 -1.7891 -1.5569
  377MOL0     H50876   4.764   5.053   4.799 -0.3617 -1.0370  1.0861
  377MOL0     H50877   4.897   4.770   5.075  1.1266  1.0104  1.7305
  377MOL0     H50878   5.033   4.601   5.197 -1.4427 -1.0686 -1.9617
  377MOL0     H50879   6.303   4.745   6.702  3.3850 -1.8216 -0.5132
  377MOL0     H50880   6.548   4.803   6.776  1.0380  1.0935 -0.4806
  377MOL0     H50881   6.791   5.195   6.970 -2.3857 -1.4627  1.6661
  377MOL0     H50882   7.014   5.273   7.041  0.7257 -0.9086 -0.9129
  377MOL0     H50883   7.183   5.005   7.377  0.9569  2.2591  2.7447
  377MOL0     H50884   7.302   5.122   7.364 -0.7612 -0.1675  0.9075
  377MOL0     H50885   7.423   5.007   7.172 -0.1738  1.1684  0.7211
  377MOL0     H50886   7.290   4.885   7.178 -2.2795  2.1220 -0.8639
  377MOL0     H50887   7.381   4.841   7.422  0.5734 -1.6699 -0.3339
  377MOL0     H50888   7.498   4.967   7.393 -2.5292  0.5816  2.1137
  377MOL0     H50889   7.564   4.741   7.381 -0.0211 -0.7830  0.2983
  377MOL0     H50890   7.449   4.700   7.251  0.0148  0.1506  0.9260
  377MOL0     H50891   7.759   4.793   7.018 -0.6620 -0.4735 -0.5249
  377MOL0     H50892   7.078   4.885   7.211 -2.1471 -1.5646  4.2387
  377MOL0     H50893   6.932   4.697   7.132 -1.8636  0.1612 -1.4693
  377MOL0     H50894   6.816   4.735   7.257  0.1414 -3.0043 -0.4671
  377MOL0     H50895   6.789   4.724   7.073  1.4426 -0.9422 -0.0232
  378MOL0     O50896   7.402   4.215   3.582  0.4218 -0.0317 -0.0277
  378MOL0     C50897   7.323   4.231   3.491 -0.3821 -0.5620 -0.5789
  378MOL0     O50898   7.347   4.320   3.390  0.2700  0.1213 -0.3598
  378MOL0     C50899   7.477   4.369   3.383 -0.0735 -0.0689  0.7018
  378MOL0     C50900   7.547   4.442   3.476  0.1837 -0.3868 -0.4341
  378MOL0     C50901   7.680   4.481   3.449 -0.8019  0.3560  0.5324
  378MOL0     C50902   7.734   4.459   3.318 -0.2024  0.1527  0.0582
  378MOL0     O50903   7.858   4.500   3.283 -0.1238 -0.1764  0.0702
  378MOL0     C50904   7.927   4.585   3.374  0.1152 -0.2549 -0.0922
  378MOL0     C50905   8.073   4.610   3.328  0.5712 -0.5248  0.7756
  378MOL0     C50906   8.134   4.737   3.393 -0.3459  0.4604  0.0737
  378MOL0     C50907   8.286   4.755   3.360  0.4976 -0.5251  0.6485
  378MOL0     C50908   8.336   4.868   3.443 -0.2027 -0.2195 -0.0367
  378MOL0     C50909   8.486   4.875   3.457 -0.2632 -0.5213 -0.5484
  378MOL0     C50910   8.543   4.963   3.576 -0.5604  0.0751 -0.0770
  378MOL0     C50911   8.690   4.955   3.580  0.6618  1.0085 -0.3813
  378MOL0     N50912   8.739   5.009   3.713  0.6528  0.7139  0.3364
  378MOL0     C50913   8.705   5.136   3.765  0.2334 -0.0327 -0.7802
  378MOL0     C50914   8.765   5.140   3.889  0.3590  0.6431  0.0733
  378MOL0     C50915   8.734   5.243   3.991 -0.8113 -0.3376 -0.0024
  378MOL0     C50916   8.699   5.186   4.128 -0.2644 -0.1537  0.8970
  378MOL0     C50917   8.569   5.240   4.193 -0.1615 -0.6192 -0.0727
  378MOL0     C50918   8.449   5.211   4.111 -0.6915  0.0068 -0.2071
  378MOL0     O50919   8.438   5.069   4.111 -0.9716 -0.2424 -0.3199
  378MOL0     C50920   8.329   5.021   4.055 -0.3358  0.0369  1.0492
  378MOL0     C50921   8.323   5.006   3.918  0.8740  0.9442 -0.3755
  378MOL0     C50922   8.211   4.949   3.856 -0.1195  0.0138  0.2620
  378MOL0     C50923   8.099   4.917   3.937  0.5455 -0.7882  0.7168
  378MOL0     C50924   7.982   4.839   3.883 -0.0032 -0.4778 -0.0371
  378MOL0     O50925   7.865   4.853   3.957  0.1687  0.0212  0.2826
  378MOL0     C50926   7.746   4.799   3.921  0.0857 -0.3992 -0.1091
  378MOL0     C50927   7.621   4.872   3.932 -0.8881  0.3201 -0.5387
  378MOL0     C50928   7.503   4.816   3.894  0.1656  0.5427 -0.0576
  378MOL0     C50929   7.489   4.689   3.853 -0.1525 -0.1957 -0.0257
  378MOL0     O50930   7.359   4.647   3.818  0.2063 -0.2806  0.5051
  378MOL0     C50931   7.318   4.510   3.841  0.3904 -0.1228 -0.0025
  378MOL0     C50932   7.175   4.491   3.877 -0.2460 -0.1107  0.9973
  378MOL0     C50933   7.079   4.568   3.792 -0.4421 -0.3230 -0.0614
  378MOL0     C50934   6.940   4.503   3.810  0.1284  0.2902  0.1576
  378MOL0     C50935   6.836   4.600   3.747  0.5915  0.0328  0.2462
  378MOL0     C50936   6.693   4.556   3.802 -0.6724  0.1484  0.0335
  378MOL0     C50937   6.577   4.636   3.749  0.5434 -0.5187 -1.2735
  378MOL0     C50938   6.574   4.781   3.812  0.4538 -0.0550  0.0150
  378MOL0    Cl50939   6.420   4.858   3.797 -0.2263 -0.3482  0.1659
  378MOL0     C50940   7.608   4.612   3.849 -0.0310  0.6399  0.2912
  378MOL0     C50941   7.737   4.669   3.868  0.1803  0.6899  0.4015
  378MOL0     O50942   7.999   4.787   3.774  0.6830 -0.7592 -0.7748
  378MOL0     C50943   8.104   4.938   4.073 -0.0221 -0.1727 -0.3796
  378MOL0     C50944   8.221   4.990   4.138  0.0955 -0.3501  0.2219
  378MOL0     N50945   8.838   5.028   3.900 -0.2276 -0.4793 -0.2393
  378MOL0     N50946   8.832   4.953   3.789 -0.1505 -0.2503 -0.1137
  378MOL0     C50947   7.661   4.389   3.222  0.3610  0.5898 -0.3037
  378MOL0     C50948   7.540   4.340   3.261 -0.4173 -0.6518 -0.5082
  378MOL0     C50949   7.196   4.158   3.488  0.3674  0.4432 -0.0255
  378MOL0     C50950   7.121   4.168   3.371  0.5299  0.4657  0.2334
  378MOL0     C50951   6.992   4.105   3.366  0.2149  0.3292  0.8151
  378MOL0     C50952   6.938   4.042   3.469 -0.0618 -0.4721  1.6016
  378MOL0     O50953   6.808   3.998   3.449 -0.1187 -0.0278 -0.3470
  378MOL0     C50954   6.760   3.902   3.541  0.3153 -0.2530  0.4330
  378MOL0     C50955   6.610   3.892   3.510  0.8715 -1.2962 -0.4309
  378MOL0     C50956   6.579   3.822   3.375  0.4811  0.2217 -0.4348
  378MOL0     C50957   6.485   3.702   3.395  0.2908 -0.3304  0.6335
  378MOL0     C50958   6.450   3.626   3.274 -0.5469  0.1619 -0.0422
  378MOL0     C50959   6.407   3.580   3.173 -0.7384  0.0179 -0.7034
  378MOL0     C50960   7.009   4.034   3.587 -0.2308 -0.3881 -0.5052
  378MOL0     C50961   7.135   4.092   3.601  0.4809 -0.4860  0.5139
  378MOL0     C50962   7.204   4.097   3.740  0.3870 -0.1532 -0.3518
  378MOL0     H50963   7.492   4.461   3.568 -1.7751 -0.8508 -1.4609
  378MOL0     H50964   7.731   4.546   3.519 -2.0038  1.2946  0.5761
  378MOL0     H50965   7.871   4.678   3.380 -1.2512 -1.1487  2.9832
  378MOL0     H50966   7.930   4.537   3.472  2.3660  0.1086  0.0576
  378MOL0     H50967   8.074   4.631   3.221 -1.3244  2.5671  1.2203
  378MOL0     H50968   8.138   4.524   3.345 -1.1370 -1.2274  4.7175
  378MOL0     H50969   8.113   4.739   3.500 -2.0878  0.4678 -0.2312
  378MOL0     H50970   8.072   4.815   3.347 -0.7452 -0.6068 -1.2702
  378MOL0     H50971   8.341   4.661   3.369  1.3208 -0.2681 -1.2626
  378MOL0     H50972   8.300   4.785   3.256 -0.2089  0.3299  0.7896
  378MOL0     H50973   8.290   4.953   3.393 -0.5060  0.3776  1.2361
  378MOL0     H50974   8.297   4.869   3.545  1.3614 -1.2943  0.6319
  378MOL0     H50975   8.517   4.770   3.455  2.5690  0.1646  1.4553
  378MOL0     H50976   8.534   4.916   3.368 -1.6389 -1.0654 -1.5875
  378MOL0     H50977   8.482   4.947   3.665 -2.1304  3.0811 -0.5068
  378MOL0     H50978   8.517   5.068   3.559 -1.0982  0.0580  0.5713
  378MOL0     H50979   8.727   4.853   3.568 -2.5064 -0.0880 -2.0514
  378MOL0     H50980   8.733   5.008   3.495  3.1506 -2.5676 -1.6197
  378MOL0     H50981   8.640   5.212   3.723 -1.1381  0.9436  2.7377
  378MOL0     H50982   8.826   5.302   4.000 -2.7845  2.8995  0.7920
  378MOL0     H50983   8.659   5.321   3.974 -0.9410 -0.4333  0.1244
  378MOL0     H50984   8.706   5.077   4.118  0.5655 -0.1250  1.0889
  378MOL0     H50985   8.782   5.217   4.191 -1.6682  3.0517  1.3601
  378MOL0     H50986   8.573   5.349   4.203  0.5663 -0.7872  2.0627
  378MOL0     H50987   8.554   5.198   4.293  0.9391  1.0136  0.8242
  378MOL0     H50988   8.464   5.253   4.011  2.3537 -0.8381 -0.2083
  378MOL0     H50989   8.360   5.259   4.153  1.7850  2.5240  2.7231
  378MOL0     H50990   8.406   5.031   3.852  0.5121 -0.0666 -1.2422
  378MOL0     H50991   8.221   4.912   3.754 -0.6137 -1.5542  0.7665
  378MOL0     H50992   7.642   4.971   3.970  2.9902 -0.7099  0.4383
  378MOL0     H50993   7.413   4.876   3.880 -0.3485 -0.7169 -2.7265
  378MOL0     H50994   7.323   4.456   3.746  1.1005 -0.2292  0.0889
  378MOL0     H50995   7.379   4.450   3.910  1.5192 -0.0613 -0.9277
  378MOL0     H50996   7.157   4.383   3.864  1.9985 -0.5334  1.0238
  378MOL0     H50997   7.174   4.532   3.978  1.2442 -0.1267  1.0435
  378MOL0     H50998   7.070   4.663   3.845  1.5670 -2.3609  4.4613
  378MOL0     H50999   7.108   4.590   3.689 -1.0166 -0.4326 -0.2537
  378MOL0     H51000   6.920   4.497   3.917 -0.8378  6.0612  0.5855
  378MOL0     H51001   6.939   4.410   3.751 -3.5112  1.7044 -2.3632
  378MOL0     H51002   6.837   4.581   3.639  1.5184 -1.4768  0.5005
  378MOL0     H51003   6.866   4.702   3.771  2.3433  0.3466 -2.6591
  378MOL0     H51004   6.673   4.455   3.766  3.7880 -1.2062  0.6807
  378MOL0     H51005   6.699   4.548   3.911 -0.1920 -2.0758 -0.1202
  378MOL0     H51006   6.483   4.581   3.747  1.1777 -1.6320 -1.4736
  378MOL0     H51007   6.601   4.657   3.644  0.9317  0.7108 -0.9631
  378MOL0     H51008   6.589   4.770   3.919  0.9638  0.7102  0.0199
  378MOL0     H51009   6.654   4.842   3.770 -2.4933  3.5713 -0.8223
  378MOL0     H51010   7.599   4.509   3.819  0.2900  0.7772 -0.2791
  378MOL0     H51011   7.823   4.606   3.848 -1.2526 -0.8963 -1.0968
  378MOL0     H51012   8.024   4.896   4.133  1.3484 -1.2455  0.7743
  378MOL0     H51013   8.224   5.005   4.245 -0.0396 -0.3403  0.2248
  378MOL0     H51014   7.703   4.373   3.123  0.2928  1.1643 -0.4240
  378MOL0     H51015   7.479   4.306   3.178 -3.7218 -0.8615  1.8317
  378MOL0     H51016   7.166   4.230   3.294 -0.5970  1.2305  0.1704
  378MOL0     H51017   6.927   4.116   3.280  0.0237  3.2368  1.2307
  378MOL0     H51018   6.764   3.932   3.646  1.9122 -0.5687  0.4830
  378MOL0     H51019   6.805   3.803   3.533  1.5057  0.1407  1.9387
  378MOL0     H51020   6.567   3.993   3.513 -1.5727 -2.2430 -0.8778
  378MOL0     H51021   6.579   3.832   3.595  0.7642 -0.0456  0.4360
  378MOL0     H51022   6.676   3.791   3.334 -0.6234 -1.1833 -2.1253
  378MOL0     H51023   6.541   3.899   3.308  1.7356  0.1246 -1.2963
  378MOL0     H51024   6.519   3.630   3.470  1.6693  0.6409  0.9760
  378MOL0     H51025   6.395   3.737   3.444 -0.5785 -1.8533  0.1865
  378MOL0     H51026   6.361   3.547   3.082 -0.7120  2.3638 -1.6385
  378MOL0     H51027   6.968   3.988   3.677 -0.2963  0.0195 -0.3261
  378MOL0     H51028   7.262   4.189   3.752  0.8467 -0.1887 -2.0450
  378MOL0     H51029   7.138   4.089   3.827  0.7159  2.1752  0.1811
  378MOL0     H51030   7.266   4.007   3.744  2.1431  0.9412 -1.4695
  379MOL0     O51031   0.156   3.230   4.947  0.4416 -0.3539 -0.4261
  379MOL0     C51032   0.074   3.206   4.856  0.7101 -0.1682  0.0210
  379MOL0     O51033   0.068   3.090   4.778  0.0248 -0.1760  0.4738
  379MOL0     C51034   0.167   2.992   4.794  0.8730  0.4169 -0.8407
  379MOL0     C51035   0.126   2.859   4.761  0.3826 -0.8109  0.6302
  379MOL0     C51036   0.200   2.747   4.777  0.5794 -0.6754 -1.0513
  379MOL0     C51037   0.330   2.759   4.833 -0.2989 -0.3212  0.0084
  379MOL0     O51038   0.393   2.639   4.847  0.2631 -0.1654  0.5671
  379MOL0     C51039   0.524   2.643   4.904 -0.2981 -0.8871 -0.1764
  379MOL0     C51040   0.587   2.498   4.912  0.6601 -0.0702 -0.3458
  379MOL0     C51041   0.731   2.493   4.963  0.1137 -0.4965  0.2127
  379MOL0     C51042   0.832   2.484   4.839 -0.2416 -0.3605  0.2592
  379MOL0     C51043   0.969   2.464   4.890 -0.9592 -0.4747  0.8120
  379MOL0     C51044   1.084   2.493   4.792  0.2589  0.6451 -0.0596
  379MOL0     C51045   1.225   2.456   4.844  0.2622  0.2596  0.3170
  379MOL0     C51046   1.266   2.539   4.965  0.6972  0.4421 -0.2616
  379MOL0     N51047   1.390   2.505   5.009 -0.1381 -0.1580  0.6485
  379MOL0     C51048   1.419   2.407   5.096 -1.2673 -0.3131  0.0147
  379MOL0     C51049   1.545   2.434   5.139  1.0169 -1.1832  0.2567
  379MOL0     C51050   1.627   2.350   5.229  0.8221 -0.4739  0.8604
  379MOL0     C51051   1.705   2.253   5.134  1.3284  0.5968  0.3853
  379MOL0     C51052   1.778   2.137   5.207  0.4462 -0.4597  0.7319
  379MOL0     C51053   1.873   2.192   5.327  0.1133  0.1283  0.2498
  379MOL0     O51054   1.964   2.093   5.373  1.1494  0.5929 -0.3450
  379MOL0     C51055   2.090   2.133   5.410 -0.7196  0.5006  0.2565
  379MOL0     C51056   2.199   2.054   5.377  0.0981  0.5698  0.9026
  379MOL0     C51057   2.325   2.107   5.411  0.2887 -0.7252 -0.0102
  379MOL0     C51058   2.343   2.230   5.480 -0.7032 -0.1564 -0.0126
  379MOL0     C51059   2.475   2.285   5.526  0.1706  0.4175 -0.5067
  379MOL0     O51060   2.584   2.206   5.493 -0.1126 -0.6136 -0.8695
  379MOL0     C51061   2.710   2.248   5.537  0.8527  0.1903 -0.5554
  379MOL0     C51062   2.745   2.245   5.671 -0.1707  0.5050 -1.2942
  379MOL0     C51063   2.867   2.282   5.707 -1.0809 -0.1255  0.6212
  379MOL0     C51064   2.975   2.324   5.622  0.0689 -0.1797  0.3728
  379MOL0     O51065   3.099   2.343   5.684 -0.3751 -0.3771 -0.0785
  379MOL0     C51066   3.200   2.398   5.602  0.1549 -0.3218  0.3891
  379MOL0     C51067   3.311   2.452   5.683  0.5867 -0.2882  0.1662
  379MOL0     C51068   3.426   2.497   5.594 -1.3659 -0.7508  0.2028
  379MOL0     C51069   3.525   2.582   5.667 -0.6904  0.4490  0.3770
  379MOL0     C51070   3.620   2.498   5.743 -0.5680  0.2810 -1.2229
  379MOL0     C51071   3.695   2.589   5.838  0.2916  0.0464 -0.1216
  379MOL0     C51072   3.787   2.685   5.765 -0.6315  0.2517  0.2056
  379MOL0     C51073   3.835   2.785   5.867 -0.5281  0.3369  0.0051
  379MOL0    Cl51074   3.978   2.876   5.779  0.0105 -0.2682 -0.4318
  379MOL0     C51075   2.945   2.309   5.486  0.1907 -0.6309  0.2571
  379MOL0     C51076   2.810   2.285   5.449 -0.2752  1.0178  0.6338
  379MOL0     O51077   2.484   2.399   5.578  0.5146  0.2505  0.0801
  379MOL0     C51078   2.231   2.304   5.516  0.2028  0.5696 -0.7110
  379MOL0     C51079   2.108   2.258   5.471 -0.4951 -0.3236  0.0051
  379MOL0     N51080   1.586   2.557   5.085  0.4934 -0.2191 -0.5632
  379MOL0     N51081   1.488   2.593   5.006 -0.2364 -0.4257  0.1081
  379MOL0     C51082   0.378   2.890   4.864  0.6002  0.3599 -0.3040
  379MOL0     C51083   0.300   3.001   4.852  0.2753 -0.2042  0.6869
  379MOL0     C51084  -0.024   3.322   4.832  0.3628 -0.6468  0.4312
  379MOL0     C51085  -0.014   3.432   4.925  1.3935  0.3193  0.4984
  379MOL0     C51086  -0.090   3.541   4.899 -0.7823  0.0262  0.2819
  379MOL0     C51087  -0.173   3.546   4.794  0.3192 -0.3844 -0.1865
  379MOL0     O51088  -0.221   3.683   4.782  0.2079  0.4984  0.2318
  379MOL0     C51089  -0.344   3.696   4.722  0.8359 -0.6320 -0.2602
  379MOL0     C51090  -0.400   3.836   4.718 -0.2096 -0.3545  0.8006
  379MOL0     C51091  -0.411   3.922   4.841 -0.1339 -0.7052  0.7302
  379MOL0     C51092  -0.464   4.065   4.809  0.1749 -0.0861  0.0728
  379MOL0     C51093  -0.596   4.058   4.737  0.1319 -0.2412  0.0904
  379MOL0     C51094  -0.703   4.053   4.671 -0.1682 -0.3756 -0.2508
  379MOL0     C51095  -0.199   3.437   4.710  0.4883 -0.6598  0.6175
  379MOL0     C51096  -0.129   3.316   4.732 -0.3249  0.2426 -0.2422
  379MOL0     C51097  -0.160   3.186   4.658  0.4852 -0.5806  0.6409
  379MOL0     H51098   0.026   2.838   4.725  0.0657  0.4970  0.6773
  379MOL0     H51099   0.180   2.644   4.750 -0.0255 -1.2219  1.2882
  379MOL0     H51100   0.583   2.704   4.834 -0.2932 -0.8309 -0.1235
  379MOL0     H51101   0.523   2.705   4.994 -1.6631  2.2726 -2.2057
  379MOL0     H51102   0.577   2.454   4.812  0.7288  0.0797 -0.4183
  379MOL0     H51103   0.513   2.443   4.971 -1.2690  2.5404 -0.1868
  379MOL0     H51104   0.746   2.412   5.035 -1.1355 -3.0246 -2.2026
  379MOL0     H51105   0.748   2.589   5.013  1.7292  0.7361 -2.4594
  379MOL0     H51106   0.801   2.407   4.767 -2.7639  1.1897 -0.4566
  379MOL0     H51107   0.822   2.583   4.794 -2.2683  0.4542  2.2789
  379MOL0     H51108   0.987   2.517   4.984  1.3743 -1.2092  0.8541
  379MOL0     H51109   0.969   2.358   4.915 -2.6751 -0.4974  0.8154
  379MOL0     H51110   1.059   2.433   4.704  1.5591 -2.5650  1.5790
  379MOL0     H51111   1.085   2.602   4.783 -0.3913  0.8475  1.7783
  379MOL0     H51112   1.295   2.474   4.762  0.9174 -1.6282  0.4195
  379MOL0     H51113   1.235   2.350   4.866  2.7569  0.2999 -0.3338
  379MOL0     H51114   1.268   2.644   4.933 -2.2059  0.4943 -0.4954
  379MOL0     H51115   1.194   2.531   5.046  2.5801  2.6740  1.8002
  379MOL0     H51116   1.348   2.332   5.131 -1.3189  0.8865  2.7076
  379MOL0     H51117   1.702   2.412   5.280 -0.2146  1.3413  0.2593
  379MOL0     H51118   1.559   2.299   5.298  0.9637 -2.1912 -0.2120
  379MOL0     H51119   1.636   2.217   5.057 -0.8381  0.8656  2.1002
  379MOL0     H51120   1.780   2.315   5.082  0.1713 -0.2267 -2.4660
  379MOL0     H51121   1.841   2.079   5.140  0.9693 -1.1202  1.7690
  379MOL0     H51122   1.701   2.069   5.244  4.2062 -3.7516  3.3822
  379MOL0     H51123   1.811   2.240   5.402  0.1485 -0.7540  0.8626
  379MOL0     H51124   1.932   2.273   5.284 -0.5272  0.7334  0.5070
  379MOL0     H51125   2.192   1.963   5.319 -1.0485 -1.5337  4.0652
  379MOL0     H51126   2.413   2.051   5.384  0.2317  0.0208 -1.8821
  379MOL0     H51127   2.677   2.235   5.755 -1.8393  0.4385 -2.5832
  379MOL0     H51128   2.880   2.277   5.815 -1.2500 -1.3167  0.6054
  379MOL0     H51129   3.244   2.324   5.534  0.8339  1.2935 -1.0176
  379MOL0     H51130   3.161   2.484   5.547  3.1603  1.5380  0.9138
  379MOL0     H51131   3.273   2.544   5.731  2.5506  0.3944  0.4799
  379MOL0     H51132   3.346   2.381   5.758 -0.5779 -1.3244 -0.2336
  379MOL0     H51133   3.473   2.415   5.539 -0.7294 -1.0955  1.2197
  379MOL0     H51134   3.389   2.569   5.522  2.6449  0.8407 -0.5499
  379MOL0     H51135   3.484   2.664   5.726 -1.3395  0.5970 -0.2700
  379MOL0     H51136   3.588   2.635   5.595 -1.4753 -0.5822 -1.1201
  379MOL0     H51137   3.701   2.454   5.683  1.8227  3.2621 -0.4506
  379MOL0     H51138   3.573   2.421   5.805  0.3864  1.0219  0.4949
  379MOL0     H51139   3.629   2.644   5.905 -0.9907 -1.0516 -0.4551
  379MOL0     H51140   3.749   2.524   5.908 -0.7263 -0.2389  0.4057
  379MOL0     H51141   3.749   2.739   5.677 -1.2565  0.2134  0.4497
  379MOL0     H51142   3.877   2.631   5.735 -0.6170  2.0738 -3.7098
  379MOL0     H51143   3.760   2.860   5.897  0.3711  0.9101  0.9210
  379MOL0     H51144   3.880   2.725   5.947 -2.3769 -2.7234 -1.0976
  379MOL0     H51145   3.017   2.331   5.408 -1.0498  1.6722 -0.3222
  379MOL0     H51146   2.806   2.273   5.342  0.9876 -0.9412  0.7728
  379MOL0     H51147   2.220   2.401   5.562 -0.3717  0.4537 -0.5933
  379MOL0     H51148   2.022   2.318   5.494  0.9424  1.3153  1.3831
  379MOL0     H51149   0.481   2.902   4.894  0.9559 -2.5733 -0.0640
  379MOL0     H51150   0.341   3.097   4.885  0.2651  0.4891 -1.1979
  379MOL0     H51151   0.058   3.412   5.004  0.1168 -5.1510  0.6610
  379MOL0     H51152  -0.080   3.624   4.968  3.4940 -0.6331  0.7341
  379MOL0     H51153  -0.411   3.638   4.786  1.7315 -1.3354  0.0629
  379MOL0     H51154  -0.339   3.662   4.618  2.1562  0.9229 -0.7402
  379MOL0     H51155  -0.498   3.831   4.670  0.5229  0.3917 -0.8456
  379MOL0     H51156  -0.329   3.882   4.649  1.5825 -3.1187  0.6705
  379MOL0     H51157  -0.312   3.929   4.885  1.0885  1.2665 -2.0717
  379MOL0     H51158  -0.480   3.886   4.918  0.0209  2.6568  2.6291
  379MOL0     H51159  -0.476   4.117   4.905  0.4078  0.3582 -0.1373
  379MOL0     H51160  -0.395   4.126   4.750 -0.9141 -0.3972 -1.5562
  379MOL0     H51161  -0.788   4.053   4.605  0.9012  1.2498 -1.7363
  379MOL0     H51162  -0.288   3.435   4.649  0.1372  2.0907  0.9469
  379MOL0     H51163  -0.161   3.101   4.726 -1.4771  1.0149  2.7878
  379MOL0     H51164  -0.260   3.184   4.614  0.2069 -1.9782  1.2975
  379MOL0     H51165  -0.088   3.169   4.577 -2.3961 -1.3461 -1.9455
  380MOL0     O51166   8.037   4.374  10.581 -0.3163 -0.0944  0.2261
  380MOL0     C51167   8.020   4.280  10.660 -0.1286 -0.2884  0.3127
  380MOL0     O51168   8.087   4.169  10.653  0.1291  0.4158  0.2624
  380MOL0     C51169   8.212   4.158  10.592 -0.1877  0.2146 -0.3113
  380MOL0     C51170   8.254   4.029  10.574 -0.4953  1.0181  0.1088
  380MOL0     C51171   8.374   4.004  10.504  0.2580 -0.2276  0.4650
  380MOL0     C51172   8.464   4.108  10.468 -0.9878 -0.0988 -0.1790
  380MOL0     O51173   8.586   4.075  10.407 -0.2888  0.5461  0.2283
  380MOL0     C51174   8.697   4.163  10.428 -0.1098 -0.4098 -0.7476
  380MOL0     C51175   8.811   4.112  10.338  0.1644  0.1320 -0.4087
  380MOL0     C51176   8.947   4.185  10.368  0.0398 -0.4645 -0.0600
  380MOL0     C51177   9.062   4.127  10.280  0.0598 -1.1323 -0.0951
  380MOL0     C51178   9.206   4.197  10.287 -0.7418 -0.2792 -0.5191
  380MOL0     C51179   9.321   4.099  10.230  0.1350 -0.2159 -0.1011
  380MOL0     C51180   9.464   4.164  10.229  0.8440  0.9447  0.4489
  380MOL0     C51181   9.513   4.172  10.369  0.2596 -0.5472 -0.8797
  380MOL0     N51182   9.658   4.185  10.376 -0.7009 -0.6248  0.0773
  380MOL0     C51183   9.735   4.277  10.451 -0.2014 -1.2969  0.7082
  380MOL0     C51184   9.861   4.226  10.459 -0.1967  0.3918  0.8006
  380MOL0     C51185   9.978   4.307  10.514  0.9087 -0.3181 -0.0359
  380MOL0     C51186  10.114   4.226  10.539  0.4498 -0.1052 -0.6523
  380MOL0     C51187  10.230   4.334  10.554  0.7142  0.3157  0.4119
  380MOL0     C51188  10.365   4.273  10.599  0.0604 -0.2111  0.5312
  380MOL0     O51189  10.460   4.378  10.631 -0.0348 -0.1927 -0.1819
  380MOL0     C51190  10.591   4.350  10.675 -0.0232 -0.3032  0.1557
  380MOL0     C51191  10.671   4.461  10.684 -0.7446  0.4887 -0.4799
  380MOL0     C51192  10.800   4.449  10.720 -0.5758  0.4801 -0.9928
  380MOL0     C51193  10.855   4.327  10.748 -0.7530 -0.1611 -0.2838
  380MOL0     C51194  10.997   4.314  10.796 -0.0708 -0.8312 -0.3494
  380MOL0     O51195  11.075   4.409  10.739  0.0580  0.2156  0.3627
  380MOL0     C51196  11.214   4.411  10.745  0.5693  0.7027  0.0441
  380MOL0     C51197  11.288   4.528  10.745  0.4846 -0.4988  0.4694
  380MOL0     C51198  11.426   4.517  10.742 -0.8666  0.0184 -0.6207
  380MOL0     C51199  11.499   4.395  10.741 -0.3796 -0.1086 -0.6784
  380MOL0     O51200  11.637   4.381  10.756  0.2728  0.2122 -0.0135
  380MOL0     C51201  11.716   4.487  10.704  0.6050 -0.6420  0.1072
  380MOL0     C51202  11.866   4.447  10.734  0.1676 -0.2187 -0.1620
  380MOL0     C51203  11.940   4.568  10.776  0.3177  0.0726 -0.5019
  380MOL0     C51204  11.995   4.645  10.650  0.1431 -0.9062  0.3706
  380MOL0     C51205  12.074   4.762  10.680  0.2289 -0.3645 -0.6703
  380MOL0     C51206  12.202   4.745  10.753 -0.3471  0.7280  0.2445
  380MOL0     C51207  12.326   4.698  10.668  0.5462  0.1712  0.7376
  380MOL0     C51208  12.463   4.747  10.725 -1.3000  0.2364  0.8126
  380MOL0    Cl51209  12.595   4.689  10.630  0.1127 -0.1002  0.1289
  380MOL0     C51210  11.421   4.275  10.747  0.3093  0.5790 -0.0186
  380MOL0     C51211  11.280   4.280  10.743 -0.8457 -0.7420  0.2562
  380MOL0     O51212  11.029   4.229  10.883  0.2768 -0.3554 -0.2164
  380MOL0     C51213  10.774   4.209  10.742 -1.0199 -0.5169 -0.3827
  380MOL0     C51214  10.638   4.223  10.699  0.0591  0.1097 -0.8224
  380MOL0     N51215   9.853   4.103  10.396 -0.0825 -0.4668  0.7956
  380MOL0     N51216   9.737   4.083  10.346  0.6413  0.2185 -0.1182
  380MOL0     C51217   8.424   4.234  10.488  0.2786 -0.4456 -0.5302
  380MOL0     C51218   8.294   4.263  10.542  0.7979  0.7333  0.2729
  380MOL0     C51219   7.907   4.284  10.745 -0.1840 -0.4535 -0.1274
  380MOL0     C51220   7.859   4.163  10.797 -0.7422 -0.9481  0.4861
  380MOL0     C51221   7.752   4.165  10.886  0.3881  0.8186  0.6757
  380MOL0     C51222   7.690   4.285  10.927 -0.1293 -0.6094 -0.4425
  380MOL0     O51223   7.602   4.277  11.034  0.4936 -0.1236  0.0949
  380MOL0     C51224   7.529   4.399  11.070  0.1499 -0.0728  0.6026
  380MOL0     C51225   7.443   4.372  11.195 -0.5836  0.7218 -0.0857
  380MOL0     C51226   7.316   4.282  11.164 -0.7903  0.4415  0.0185
  380MOL0     C51227   7.237   4.251  11.293 -0.0193 -0.4204 -0.7804
  380MOL0     C51228   7.102   4.231  11.268  1.1165 -0.7012  0.2328
  380MOL0     C51229   6.983   4.217  11.270 -0.2598 -0.5282 -0.5560
  380MOL0     C51230   7.735   4.401  10.876 -0.2228 -0.3734  0.3775
  380MOL0     C51231   7.842   4.408  10.789 -0.0234  0.5042  0.2916
  380MOL0     C51232   7.899   4.543  10.756 -0.0760 -0.2970 -0.1059
  380MOL0     H51233   8.196   3.943  10.606 -0.1563  1.0959  0.9384
  380MOL0     H51234   8.394   3.904  10.466 -2.2317  0.2235 -2.5036
  380MOL0     H51235   8.669   4.262  10.393  0.9549  0.5722  1.0718
  380MOL0     H51236   8.720   4.162  10.534  2.6990  0.8328 -1.2669
  380MOL0     H51237   8.775   4.117  10.235 -1.1661  0.6492  0.0638
  380MOL0     H51238   8.829   4.009  10.370 -1.5451 -0.1808 -0.3941
  380MOL0     H51239   8.974   4.183  10.474 -0.6242 -1.8825  0.0993
  380MOL0     H51240   8.940   4.289  10.336  1.7486 -0.4638 -0.5323
  380MOL0     H51241   9.070   4.020  10.297  1.5221 -0.9649  0.3938
  380MOL0     H51242   9.026   4.153  10.180  3.1092  6.1069  0.0422
  380MOL0     H51243   9.196   4.287  10.226  1.8175  1.5907  1.5914
  380MOL0     H51244   9.231   4.214  10.391  0.6718 -0.9377 -0.7261
  380MOL0     H51245   9.318   4.005  10.285 -0.5146  0.5842  1.2640
  380MOL0     H51246   9.297   4.073  10.126  3.4807 -2.5779 -0.4526
  380MOL0     H51247   9.459   4.266  10.192 -2.0866  1.5806  2.2785
  380MOL0     H51248   9.531   4.105  10.166  0.2589  0.9114 -0.1501
  380MOL0     H51249   9.447   4.240  10.424 -0.6310 -0.4739 -2.0175
  380MOL0     H51250   9.494   4.073  10.413 -3.1718  0.4765  0.2570
  380MOL0     H51251   9.706   4.365  10.506 -2.0974 -2.2259  1.2791
  380MOL0     H51252   9.988   4.397  10.454 -4.6156  0.3566 -0.5360
  380MOL0     H51253   9.935   4.347  10.607 -2.9998  3.8739 -3.1732
  380MOL0     H51254  10.086   4.168  10.628  0.1105 -1.6467 -1.7178
  380MOL0     H51255  10.135   4.163  10.451  1.5691 -1.6740  0.6728
  380MOL0     H51256  10.205   4.408  10.631  0.5979  1.0200 -0.2860
  380MOL0     H51257  10.245   4.389  10.461 -0.8683 -0.9194 -0.6280
  380MOL0     H51258  10.394   4.215  10.510 -2.1140 -1.9489  0.8758
  380MOL0     H51259  10.349   4.200  10.678  1.2392 -1.7481 -0.5760
  380MOL0     H51260  10.641   4.559  10.649 -0.5504  0.7405  0.0492
  380MOL0     H51261  10.857   4.541  10.715  1.0526 -0.5367 -2.1949
  380MOL0     H51262  11.240   4.625  10.750  1.5206  0.0293  0.4535
  380MOL0     H51263  11.474   4.614  10.751 -0.4068 -0.1935 -0.7758
  380MOL0     H51264  11.688   4.503  10.599 -0.8893  0.9618  0.6818
  380MOL0     H51265  11.691   4.583  10.751  3.3012  0.4962 -0.5793
  380MOL0     H51266  11.870   4.376  10.817  0.7666 -0.2832 -0.2387
  380MOL0     H51267  11.917   4.397  10.651  1.2578 -2.9873  2.0093
  380MOL0     H51268  11.880   4.636  10.837  0.2898 -1.3145  1.0694
  380MOL0     H51269  12.024   4.533  10.837 -0.4957  1.3716  1.4463
  380MOL0     H51270  11.916   4.670  10.579  2.7069  2.9488 -1.4200
  380MOL0     H51271  12.063   4.589  10.584 -0.8593 -0.3268 -1.2169
  380MOL0     H51272  12.007   4.822  10.743  0.8574  0.0810 -0.4065
  380MOL0     H51273  12.100   4.817  10.590  0.9017 -1.2653 -1.0416
  380MOL0     H51274  12.218   4.850  10.779  0.8956  1.1422 -1.9572
  380MOL0     H51275  12.194   4.679  10.840  1.0482 -0.1175 -0.2448
  380MOL0     H51276  12.311   4.731  10.564  0.7732 -1.1687  0.2568
  380MOL0     H51277  12.333   4.588  10.665  2.1205  0.2439  0.3584
  380MOL0     H51278  12.480   4.855  10.723 -0.0573  0.0589 -0.6230
  380MOL0     H51279  12.464   4.721  10.831  1.2321  0.8328  0.9926
  380MOL0     H51280  11.469   4.178  10.740  0.2538  0.3897  1.6329
  380MOL0     H51281  11.223   4.188  10.743 -1.3415 -0.5448 -2.9889
  380MOL0     H51282  10.819   4.114  10.764  3.0146  1.2272 -0.2743
  380MOL0     H51283  10.574   4.135  10.702  0.5065 -0.2479  3.2143
  380MOL0     H51284   8.472   4.322  10.446 -0.9675  0.1046 -0.8310
  380MOL0     H51285   8.263   4.367  10.537 -6.9207 -0.9706  0.1993
  380MOL0     H51286   7.918   4.074  10.777  3.0004  1.3086  0.4848
  380MOL0     H51287   7.726   4.063  10.911 -2.0008  0.5364 -2.2653
  380MOL0     H51288   7.472   4.446  10.989 -0.1165  1.3427  1.5759
  380MOL0     H51289   7.605   4.471  11.103  1.7719 -0.5126 -1.8762
  380MOL0     H51290   7.419   4.460  11.255  0.2947 -0.8646  2.7790
  380MOL0     H51291   7.497   4.294  11.248 -2.4470 -1.2434 -0.9415
  380MOL0     H51292   7.348   4.181  11.136  0.4011  0.5264  0.9801
  380MOL0     H51293   7.254   4.335  11.091 -0.5991 -0.4436 -0.8052
  380MOL0     H51294   7.283   4.161  11.337 -0.3778 -0.4859 -0.5334
  380MOL0     H51295   7.252   4.340  11.355  1.2984 -1.5993  0.6825
  380MOL0     H51296   6.876   4.206  11.277  0.0185 -2.7391  1.1574
  380MOL0     H51297   7.708   4.495  10.924 -1.5775 -0.9853  0.8546
  380MOL0     H51298   8.001   4.541  10.796  0.3475 -0.7388 -1.1725
  380MOL0     H51299   7.896   4.570  10.650  1.9953 -2.4375 -0.8160
  380MOL0     H51300   7.856   4.628  10.808  3.8312  0.6313  2.0228
  381MOL0     O51301   6.215   9.770   3.142  0.8322  0.3552  0.1939
  381MOL0     C51302   6.119   9.839   3.174  1.0039  0.5111 -0.1181
  381MOL0     O51303   6.129   9.962   3.239 -0.5465  0.0750 -0.8671
  381MOL0     C51304   6.249   9.999   3.292  0.2068  0.8036  0.2234
  381MOL0     C51305   6.316   9.922   3.389  0.1128 -0.4320 -0.5326
  381MOL0     C51306   6.433   9.976   3.448 -0.7967  0.4099  0.6646
  381MOL0     C51307   6.476  10.108   3.417 -0.5599 -0.6552 -0.1283
  381MOL0     O51308   6.578  10.168   3.494 -0.8776  0.7058  0.1951
  381MOL0     C51309   6.707  10.135   3.438  0.2358  0.0583  0.1035
  381MOL0     C51310   6.773  10.021   3.518 -0.1202  1.3319 -0.3826
  381MOL0     C51311   6.909   9.980   3.446 -1.4289  1.0206 -0.9157
  381MOL0     C51312   7.019  10.095   3.445  0.0295 -0.2059  0.1841
  381MOL0     C51313   7.035  10.172   3.568 -0.0679 -0.2196  0.2082
  381MOL0     C51314   7.149  10.291   3.560  0.3418  0.7559 -0.0917
  381MOL0     C51315   7.296  10.237   3.537 -0.7231 -0.5128 -1.0398
  381MOL0     C51316   7.406  10.342   3.585 -0.0260  0.0394  0.7390
  381MOL0     N51317   7.541  10.306   3.554  0.0684 -0.2832  0.1392
  381MOL0     C51318   7.635  10.374   3.479 -0.4661 -0.6467 -1.7237
  381MOL0     C51319   7.749  10.306   3.509 -1.1756 -0.2770  0.4138
  381MOL0     C51320   7.889  10.361   3.477  0.2629  0.4514  1.1658
  381MOL0     C51321   7.951  10.274   3.369  0.2354 -0.2836 -0.2540
  381MOL0     C51322   7.998  10.124   3.401 -0.4923  0.0641 -0.5954
  381MOL0     C51323   8.121  10.125   3.479 -0.1475  0.0388  0.2952
  381MOL0     O51324   8.237  10.179   3.411 -0.1094 -0.4035  1.2068
  381MOL0     C51325   8.364  10.139   3.429  0.1459  0.3931  0.1097
  381MOL0     C51326   8.404  10.061   3.535 -0.7427  0.5010 -0.2423
  381MOL0     C51327   8.543  10.039   3.547 -0.3243  0.5806 -0.6753
  381MOL0     C51328   8.642  10.098   3.456  0.8282  0.4510 -0.2861
  381MOL0     C51329   8.794  10.070   3.473  0.0777  0.0644  0.9139
  381MOL0     O51330   8.833   9.949   3.524 -0.4842 -0.1358 -0.4706
  381MOL0     C51331   8.958   9.885   3.521  0.0525  0.1475 -0.0723
  381MOL0     C51332   8.968   9.777   3.600  0.2770 -0.4540 -0.9962
  381MOL0     C51333   9.081   9.697   3.596 -0.2690  0.4853  0.0449
  381MOL0     C51334   9.167   9.723   3.493 -1.4412  0.8489  0.4666
  381MOL0     O51335   9.285   9.645   3.486 -0.1125 -0.3430 -0.5944
  381MOL0     C51336   9.340   9.582   3.605  0.5498 -0.0888  0.5374
  381MOL0     C51337   9.475   9.529   3.566 -1.0078 -0.0614  0.7823
  381MOL0     C51338   9.532   9.445   3.683 -0.8153 -0.3393  0.6670
  381MOL0     C51339   9.669   9.390   3.627 -0.5189  0.0191  0.5172
  381MOL0     C51340   9.730   9.297   3.724 -0.1214  0.6704  0.0156
  381MOL0     C51341   9.882   9.267   3.694  0.4090 -0.2854 -0.0932
  381MOL0     C51342   9.944   9.198   3.800 -0.3391  0.1965  0.5136
  381MOL0     C51343  10.093   9.221   3.815  0.4542  0.1110  0.1275
  381MOL0    Cl51344  10.187   9.185   3.673 -0.4842  0.1029 -0.3929
  381MOL0     C51345   9.152   9.830   3.404 -0.6956  0.3123 -0.1975
  381MOL0     C51346   9.044   9.905   3.418  0.5590 -0.6872  0.4696
  381MOL0     O51347   8.872  10.165   3.446 -0.4789  0.6451 -0.3741
  381MOL0     C51348   8.593  10.176   3.356 -0.4551  0.4257 -0.3968
  381MOL0     C51349   8.452  10.201   3.350 -0.6958  0.2472 -0.3584
  381MOL0     N51350   7.723  10.190   3.569  0.9203  0.3910  0.0214
  381MOL0     N51351   7.600  10.190   3.600  0.2834 -0.2296 -0.3577
  381MOL0     C51352   6.406  10.180   3.313  0.5050 -0.4437  0.2228
  381MOL0     C51353   6.303  10.119   3.253  0.2181 -0.3239 -0.7855
  381MOL0     C51354   5.984   9.790   3.122  0.3945 -0.7967 -0.2673
  381MOL0     C51355   5.980   9.662   3.072  0.5292 -0.3288  0.0064
  381MOL0     C51356   5.859   9.612   3.032  0.2245 -0.3969  0.2601
  381MOL0     C51357   5.737   9.690   3.047  0.2384  0.0088 -0.1088
  381MOL0     O51358   5.612   9.640   3.020 -0.1808 -0.5113 -0.7194
  381MOL0     C51359   5.549   9.701   2.909  0.1263  0.1794  0.3113
  381MOL0     C51360   5.428   9.618   2.852 -0.8797 -0.4708 -0.3248
  381MOL0     C51361   5.333   9.597   2.963 -0.3957 -0.5649 -0.4328
  381MOL0     C51362   5.200   9.513   2.925  0.2210  0.8847 -0.4349
  381MOL0     C51363   5.103   9.577   2.833 -0.4285 -0.2416 -0.0699
  381MOL0     C51364   5.007   9.603   2.762 -0.0124  0.2942 -0.2391
  381MOL0     C51365   5.744   9.816   3.093  0.3736 -0.3581 -0.9687
  381MOL0     C51366   5.864   9.872   3.130 -0.5660  0.3160  0.1815
  381MOL0     C51367   5.852  10.017   3.186  0.4572 -0.1495 -0.5536
  381MOL0     H51368   6.268   9.832   3.426 -1.1426  1.3317  2.5413
  381MOL0     H51369   6.474   9.906   3.519 -0.3919 -0.3579 -0.3025
  381MOL0     H51370   6.701  10.099   3.335  3.9032 -1.0398  0.1277
  381MOL0     H51371   6.763  10.229   3.439  0.5542 -0.0648 -1.6384
  381MOL0     H51372   6.710   9.934   3.498  0.1741  0.9341  0.4036
  381MOL0     H51373   6.783  10.050   3.623  0.3902 -1.1169  0.3164
  381MOL0     H51374   6.903   9.940   3.345  0.9134  1.0642 -1.1344
  381MOL0     H51375   6.949   9.897   3.505 -3.1934  0.1754 -0.8369
  381MOL0     H51376   7.115  10.051   3.417 -0.1492 -0.8008  0.4829
  381MOL0     H51377   6.991  10.163   3.364 -3.6742 -1.0756  0.5413
  381MOL0     H51378   6.947  10.220   3.611 -0.8453  0.1442 -1.7134
  381MOL0     H51379   7.065  10.097   3.642 -2.1622 -0.1209  1.2062
  381MOL0     H51380   7.114  10.345   3.472 -2.3031 -2.4791 -1.2861
  381MOL0     H51381   7.125  10.345   3.652  1.1724  2.1620 -0.6690
  381MOL0     H51382   7.299  10.204   3.433  0.0266 -0.7035 -0.9636
  381MOL0     H51383   7.313  10.148   3.599 -0.0621  0.3555  0.0619
  381MOL0     H51384   7.378  10.439   3.543  0.1761  0.6128  1.8871
  381MOL0     H51385   7.400  10.352   3.694 -1.9765  0.8810  0.6032
  381MOL0     H51386   7.622  10.473   3.437 -1.9147  0.1228  0.3955
  381MOL0     H51387   7.869  10.459   3.431 -1.5762 -0.2766  0.2781
  381MOL0     H51388   7.950  10.378   3.566  0.8003 -0.8890  1.0743
  381MOL0     H51389   7.873  10.252   3.296  0.7369 -2.8877 -0.1305
  381MOL0     H51390   8.033  10.325   3.318  1.0126 -1.1852  0.0546
  381MOL0     H51391   8.020  10.067   3.311  2.7560 -0.3754  0.3747
  381MOL0     H51392   7.920  10.063   3.448  0.0396 -0.3602 -0.2657
  381MOL0     H51393   8.148  10.028   3.521 -0.1229 -0.3739 -0.6506
  381MOL0     H51394   8.107  10.188   3.567  2.2205  1.2503 -0.1060
  381MOL0     H51395   8.348  10.020   3.619  0.3852  1.0665  0.8338
  381MOL0     H51396   8.578   9.972   3.625 -4.7965 -1.0383  0.2522
  381MOL0     H51397   8.879   9.756   3.658  2.4201  0.1968  2.8861
  381MOL0     H51398   9.091   9.600   3.643  1.0807  0.0168 -1.1152
  381MOL0     H51399   9.354   9.641   3.696 -0.4585 -1.6209  1.7548
  381MOL0     H51400   9.272   9.502   3.636 -0.6394 -0.0516 -1.7765
  381MOL0     H51401   9.463   9.467   3.477  0.2754  2.2531 -1.1371
  381MOL0     H51402   9.545   9.606   3.531 -1.0345 -0.2023  0.4108
  381MOL0     H51403   9.559   9.503   3.771  0.6825  0.6959 -0.4178
  381MOL0     H51404   9.468   9.360   3.707  1.1439 -2.1121 -0.0795
  381MOL0     H51405   9.735   9.476   3.613 -0.1268 -0.2476  0.7134
  381MOL0     H51406   9.648   9.339   3.533  0.4695 -0.3068  0.4640
  381MOL0     H51407   9.671   9.206   3.740 -1.1361  1.4052  0.6361
  381MOL0     H51408   9.737   9.352   3.818  1.2137  0.2108  0.2006
  381MOL0     H51409   9.884   9.205   3.603 -0.5488  1.0432 -1.0503
  381MOL0     H51410   9.923   9.366   3.672 -1.7427  0.8026  0.4538
  381MOL0     H51411   9.916   9.094   3.778 -1.4565  1.1302 -3.2286
  381MOL0     H51412   9.890   9.217   3.893 -0.6176  1.6520  0.0755
  381MOL0     H51413  10.123   9.322   3.844 -0.0996  0.4728 -0.4971
  381MOL0     H51414  10.127   9.153   3.893  2.7783  2.2703  1.1187
  381MOL0     H51415   9.218   9.844   3.320 -2.5737 -1.6211 -2.1228
  381MOL0     H51416   9.031   9.975   3.337 -0.5845 -1.7302 -0.2839
  381MOL0     H51417   8.659  10.214   3.279  1.2507 -1.3028  0.1388
  381MOL0     H51418   8.420  10.282   3.285  1.0234 -0.6072 -2.4094
  381MOL0     H51419   6.439  10.280   3.287  0.7802 -0.4812  0.4312
  381MOL0     H51420   6.263  10.173   3.167  1.5176 -1.1279 -1.9301
  381MOL0     H51421   6.059   9.588   3.083 -1.6761 -2.5506  2.0708
  381MOL0     H51422   5.851   9.505   3.013 -2.8062 -0.2965  0.3935
  381MOL0     H51423   5.623   9.720   2.830  1.5264 -2.3059  0.9294
  381MOL0     H51424   5.506   9.801   2.927 -1.3229 -0.7338  2.3472
  381MOL0     H51425   5.462   9.524   2.809  2.1694  0.1403  0.5254
  381MOL0     H51426   5.372   9.676   2.778 -0.6543  0.2785  0.0732
  381MOL0     H51427   5.295   9.694   2.999 -1.3770 -2.0454  2.9411
  381MOL0     H51428   5.394   9.550   3.041  0.9309 -0.6786 -1.5048
  381MOL0     H51429   5.228   9.413   2.891 -0.9626 -0.0148  1.0850
  381MOL0     H51430   5.154   9.484   3.019  1.2020 -2.8955 -0.9746
  381MOL0     H51431   4.914   9.610   2.709  1.1722  1.7039 -2.2884
  381MOL0     H51432   5.649   9.864   3.116 -0.4941 -2.3035 -0.1868
  381MOL0     H51433   5.747  10.048   3.190  0.3722 -0.5396  0.7340
  381MOL0     H51434   5.881  10.028   3.291 -0.9338  1.6306 -0.2998
  381MOL0     H51435   5.912  10.094   3.136  1.5314  0.7637  1.9588
  382MOL0     O51436   5.664   0.784   4.372  0.6776 -0.0008 -0.1470
  382MOL0     C51437   5.663   0.661   4.386 -1.3891  0.9097 -0.0880
  382MOL0     O51438   5.768   0.589   4.424 -0.2388 -0.9281  0.4511
  382MOL0     C51439   5.885   0.656   4.462 -0.1457  0.2877 -0.9481
  382MOL0     C51440   5.904   0.677   4.599  0.5383  0.4336 -0.7557
  382MOL0     C51441   6.021   0.732   4.657  0.7622  1.0118  0.4492
  382MOL0     C51442   6.118   0.774   4.570 -1.2230  1.1102  0.7591
  382MOL0     O51443   6.231   0.825   4.632 -0.0582  0.1034  0.8883
  382MOL0     C51444   6.340   0.889   4.557  0.2939 -0.6450  0.3736
  382MOL0     C51445   6.438   0.927   4.665 -0.4388  0.8797  0.2059
  382MOL0     C51446   6.549   1.016   4.623  0.5049 -0.2819  0.5156
  382MOL0     C51447   6.647   1.027   4.741  0.0176 -0.0777 -0.0932
  382MOL0     C51448   6.786   1.050   4.672  0.8663 -0.0297 -0.2722
  382MOL0     C51449   6.907   1.029   4.769  0.3643 -0.3087  0.6927
  382MOL0     C51450   7.039   1.090   4.724  0.0818 -0.1122 -0.3780
  382MOL0     C51451   7.075   1.052   4.576  0.1205  0.0974  0.0143
  382MOL0     N51452   7.201   1.105   4.520  0.1426  0.2024 -0.5988
  382MOL0     C51453   7.299   1.018   4.482 -0.2837 -0.0847 -1.0797
  382MOL0     C51454   7.375   1.091   4.398  0.8491  0.0519 -0.2597
  382MOL0     C51455   7.507   1.056   4.331  0.2728  0.0216 -0.7195
  382MOL0     C51456   7.481   1.005   4.192  0.2746 -1.0470 -1.2638
  382MOL0     C51457   7.605   0.951   4.125  0.3989  0.2812  1.2462
  382MOL0     C51458   7.568   0.915   3.980  0.0710  0.3726  0.0568
  382MOL0     O51459   7.621   1.021   3.902 -0.3621 -0.0380  0.2352
  382MOL0     C51460   7.724   0.982   3.823 -0.3331 -1.1499  1.3528
  382MOL0     C51461   7.721   1.024   3.693 -0.7023  0.4718 -0.1508
  382MOL0     C51462   7.834   0.992   3.605  0.3762  0.6756 -0.2071
  382MOL0     C51463   7.933   0.901   3.651 -0.2533  0.2527 -0.6650
  382MOL0     C51464   8.052   0.878   3.567  0.0064 -0.2047  0.2882
  382MOL0     O51465   8.150   0.792   3.618  0.5456 -0.5260 -0.1014
  382MOL0     C51466   8.266   0.771   3.542 -0.3284 -0.5180 -0.4969
  382MOL0     C51467   8.327   0.855   3.448 -0.7305 -0.3299  0.0366
  382MOL0     C51468   8.445   0.824   3.380 -0.2173 -0.4819  0.8541
  382MOL0     C51469   8.500   0.695   3.389  0.0746  1.3266  0.2642
  382MOL0     O51470   8.612   0.655   3.322  0.6323 -0.6367 -0.0442
  382MOL0     C51471   8.683   0.748   3.241  0.2434 -0.1139 -0.4510
  382MOL0     C51472   8.792   0.667   3.171  0.4173 -0.5507  0.2197
  382MOL0     C51473   8.883   0.754   3.081 -0.6287  0.5158 -0.5091
  382MOL0     C51474   8.980   0.664   3.004  0.2251 -0.3122  0.2344
  382MOL0     C51475   9.039   0.738   2.884  0.1750  0.7778 -0.1859
  382MOL0     C51476   9.110   0.647   2.785 -0.4242 -1.3172 -0.5455
  382MOL0     C51477   9.173   0.728   2.667  0.4305  0.2739 -0.5435
  382MOL0     C51478   9.266   0.637   2.582  0.1409  0.5063 -0.4263
  382MOL0    Cl51479   9.395   0.561   2.672 -0.2672 -0.2755  0.0240
  382MOL0     C51480   8.448   0.610   3.484  0.2530 -0.3228  1.1790
  382MOL0     C51481   8.329   0.648   3.557 -0.0951 -0.5027 -0.1559
  382MOL0     O51482   8.039   0.912   3.454  0.0480  0.5099  0.4316
  382MOL0     C51483   7.929   0.849   3.777 -0.1646 -0.1966  0.4002
  382MOL0     C51484   7.826   0.897   3.870  0.0667  0.5528  0.5701
  382MOL0     N51485   7.322   1.216   4.390  0.1856 -0.6182 -0.5878
  382MOL0     N51486   7.214   1.216   4.452 -0.2940  0.2187  0.5160
  382MOL0     C51487   6.106   0.750   4.424 -0.1197  0.6940  0.0218
  382MOL0     C51488   5.995   0.684   4.376  0.4729 -0.0068 -0.4531
  382MOL0     C51489   5.547   0.580   4.346 -0.4314 -0.1427 -0.3302
  382MOL0     C51490   5.543   0.451   4.392  0.0343 -0.5063  0.8221
  382MOL0     C51491   5.446   0.359   4.364  0.0886 -0.2115  0.6410
  382MOL0     C51492   5.345   0.400   4.276  0.1495  0.6645  0.9487
  382MOL0     O51493   5.244   0.322   4.226 -0.2473  0.0110  0.7719
  382MOL0     C51494   5.250   0.179   4.258  0.3023  0.7709  0.9861
  382MOL0     C51495   5.152   0.096   4.164 -0.4494 -0.5450 -0.2060
  382MOL0     C51496   5.197   0.116   4.013 -0.7006  0.7424  0.5938
  382MOL0     C51497   5.126   0.230   3.949  1.3726 -0.8417 -0.1097
  382MOL0     C51498   5.161   0.235   3.804 -0.2104  0.1566 -0.7147
  382MOL0     C51499   5.171   0.239   3.681  0.3838  0.1785  0.3128
  382MOL0     C51500   5.331   0.538   4.236 -0.5354  1.2047  1.1447
  382MOL0     C51501   5.437   0.627   4.260 -0.8703 -0.5070  0.8530
  382MOL0     C51502   5.443   0.755   4.178  0.3004  0.9901  0.1487
  382MOL0     H51503   5.823   0.643   4.663  0.5883 -0.5179 -1.1809
  382MOL0     H51504   6.031   0.733   4.765  1.3270  3.0857  0.4323
  382MOL0     H51505   6.385   0.812   4.493 -0.1188 -2.0059  1.6592
  382MOL0     H51506   6.300   0.969   4.494 -1.9128 -1.0487  1.1584
  382MOL0     H51507   6.478   0.839   4.715 -1.0982  1.0605  1.0836
  382MOL0     H51508   6.391   0.990   4.742  0.2444 -0.0323  1.4009
  382MOL0     H51509   6.506   1.113   4.595  0.0308 -0.0359  2.0188
  382MOL0     H51510   6.604   0.968   4.542  3.8808 -0.0803  2.4835
  382MOL0     H51511   6.605   1.111   4.797 -1.0117 -1.3429  1.1065
  382MOL0     H51512   6.643   0.956   4.825 -2.8185  0.7528  0.5898
  382MOL0     H51513   6.795   0.986   4.584 -2.0156  0.6373 -1.1524
  382MOL0     H51514   6.780   1.154   4.638 -0.1794 -0.3318 -1.0723
  382MOL0     H51515   6.892   1.080   4.865  1.9234 -0.4042  1.0121
  382MOL0     H51516   6.921   0.923   4.792  1.2375 -0.3299  0.1083
  382MOL0     H51517   7.127   1.071   4.786 -1.0765 -2.2177  0.7039
  382MOL0     H51518   7.025   1.199   4.719  0.8525 -0.0454 -1.4089
  382MOL0     H51519   7.084   0.943   4.566  0.4905  0.1599 -0.3939
  382MOL0     H51520   7.002   1.092   4.506  2.9563  1.4376 -2.3785
  382MOL0     H51521   7.306   0.914   4.511 -4.6042  0.0478  1.3630
  382MOL0     H51522   7.562   1.151   4.336  1.9752 -0.9514  0.2840
  382MOL0     H51523   7.561   0.980   4.387 -1.7942  0.6187  2.3344
  382MOL0     H51524   7.401   0.931   4.199  0.3603 -1.0447 -0.0293
  382MOL0     H51525   7.439   1.080   4.124  1.4293 -0.4084 -1.3094
  382MOL0     H51526   7.644   0.866   4.182 -0.0662 -0.0489  1.0777
  382MOL0     H51527   7.681   1.029   4.122 -1.6572  2.3866 -2.3940
  382MOL0     H51528   7.462   0.889   3.967  0.4175 -2.3172  1.8379
  382MOL0     H51529   7.610   0.816   3.962 -2.2292 -1.4754  3.7048
  382MOL0     H51530   7.648   1.098   3.661 -0.0223  1.0396 -0.4165
  382MOL0     H51531   7.846   1.038   3.508  0.6897  0.2227 -0.3859
  382MOL0     H51532   8.287   0.956   3.437  0.9646  0.3906  0.1997
  382MOL0     H51533   8.484   0.903   3.317 -3.1632  1.9168  1.7709
  382MOL0     H51534   8.624   0.802   3.167  1.5244  2.9152  0.5776
  382MOL0     H51535   8.716   0.834   3.300  1.8800 -0.8769 -0.2023
  382MOL0     H51536   8.842   0.615   3.253  2.8789  1.5683  0.2067
  382MOL0     H51537   8.752   0.586   3.109  4.6964  1.2012 -5.7939
  382MOL0     H51538   8.820   0.810   3.011 -1.3367  0.3217 -0.0510
  382MOL0     H51539   8.933   0.836   3.133  2.6690 -0.5491 -1.7666
  382MOL0     H51540   8.922   0.575   2.975 -3.7638  2.2186 -0.4038
  382MOL0     H51541   9.069   0.641   3.062 -0.3409 -0.0109  1.2434
  382MOL0     H51542   9.104   0.820   2.914 -1.6032  1.7766  1.1056
  382MOL0     H51543   8.953   0.778   2.830 -3.0500 -1.6310  2.7145
  382MOL0     H51544   9.182   0.588   2.842 -3.9354 -3.0267  2.5507
  382MOL0     H51545   9.035   0.573   2.759 -2.9729  0.3410  1.5324
  382MOL0     H51546   9.236   0.810   2.703  0.4718  0.6678 -1.4889
  382MOL0     H51547   9.087   0.765   2.609 -1.4741  0.2224  2.0532
  382MOL0     H51548   9.211   0.552   2.540  1.7246 -1.7487  1.7465
  382MOL0     H51549   9.310   0.690   2.497 -0.0773 -0.7249 -1.3331
  382MOL0     H51550   8.493   0.514   3.504 -0.5049 -0.9867 -0.1488
  382MOL0     H51551   8.293   0.571   3.624 -1.6217  1.2444  1.1222
  382MOL0     H51552   8.006   0.792   3.827 -1.2018 -0.5859  1.6212
  382MOL0     H51553   7.829   0.894   3.978  0.3817  0.9789  0.5775
  382MOL0     H51554   6.187   0.785   4.360 -0.6059  1.0460 -0.4106
  382MOL0     H51555   5.982   0.628   4.284 -1.8448 -1.4293  0.6477
  382MOL0     H51556   5.609   0.427   4.475  0.6990  1.7642  0.9977
  382MOL0     H51557   5.458   0.264   4.414  1.4459  1.3613  3.5566
  382MOL0     H51558   5.227   0.173   4.365  0.7400 -0.0817  1.0403
  382MOL0     H51559   5.349   0.137   4.242  0.7838  1.8954  0.8982
  382MOL0     H51560   5.047   0.127   4.167 -0.5638 -0.9952  1.7581
  382MOL0     H51561   5.154  -0.010   4.191  1.7593 -0.5969 -0.3921
  382MOL0     H51562   5.172   0.023   3.962 -1.0464  1.4318 -0.5398
  382MOL0     H51563   5.305   0.134   4.008 -0.3370 -1.5228 -1.0977
  382MOL0     H51564   5.019   0.214   3.961  1.0516  2.6481  4.3947
  382MOL0     H51565   5.155   0.326   3.992 -2.5932 -0.4336  2.0955
  382MOL0     H51566   5.186   0.229   3.575  0.6437  1.0075  0.2638
  382MOL0     H51567   5.251   0.562   4.167  0.0521 -1.6095 -0.6711
  382MOL0     H51568   5.391   0.725   4.086 -1.6104  1.3922  1.0350
  382MOL0     H51569   5.376   0.824   4.231 -0.7648  1.1699 -1.3572
  382MOL0     H51570   5.541   0.794   4.152  1.7845  0.4590  4.2577
  383MOL0     O51571   7.749   2.763   3.724 -0.4326 -0.2947 -0.7246
  383MOL0     C51572   7.751   2.873   3.684  0.5109 -0.7519  0.2707
  383MOL0     O51573   7.641   2.952   3.665  0.1059  0.3981 -0.0804
  383MOL0     C51574   7.535   2.902   3.734 -0.7751  0.9776  0.0180
  383MOL0     C51575   7.433   2.839   3.657 -0.3231 -0.3613 -0.1799
  383MOL0     C51576   7.317   2.798   3.726 -1.0283  0.0240  0.0852
  383MOL0     C51577   7.306   2.828   3.867 -0.1298  0.3576 -0.9286
  383MOL0     O51578   7.199   2.794   3.947  0.0359 -0.5596  0.2561
  383MOL0     C51579   7.070   2.768   3.885 -0.4234 -0.3847  1.0487
  383MOL0     C51580   7.043   2.618   3.914 -0.3129  0.2966 -0.6396
  383MOL0     C51581   7.130   2.520   3.840  0.5010 -0.4540 -0.4894
  383MOL0     C51582   7.072   2.379   3.871 -0.9525 -0.9813  0.7073
  383MOL0     C51583   7.158   2.277   3.793  0.4432 -0.5777 -1.0203
  383MOL0     C51584   7.293   2.249   3.861  0.8008 -0.6145  0.1074
  383MOL0     C51585   7.385   2.151   3.796 -0.0551  0.3803 -0.6200
  383MOL0     C51586   7.479   2.107   3.907 -0.1951  0.7483 -0.3820
  383MOL0     N51587   7.596   2.046   3.836 -0.3454  0.0062  0.2476
  383MOL0     C51588   7.658   1.932   3.878 -1.4376  0.1964  0.2210
  383MOL0     C51589   7.754   1.908   3.792 -0.5589 -0.0883  0.6751
  383MOL0     C51590   7.833   1.792   3.820  0.1910  0.3414  0.1731
  383MOL0     C51591   7.925   1.756   3.692  0.4111 -0.2010  0.7370
  383MOL0     C51592   8.017   1.630   3.728  0.0055 -0.4064  0.4268
  383MOL0     C51593   8.114   1.607   3.610 -0.5702  0.2355  0.2853
  383MOL0     O51594   8.176   1.480   3.639  0.2740 -0.0453  0.5226
  383MOL0     C51595   8.247   1.425   3.539 -0.4172  0.0650 -0.0279
  383MOL0     C51596   8.329   1.315   3.570  1.2640  0.1342 -0.1074
  383MOL0     C51597   8.415   1.243   3.481  0.5466 -0.0545  0.7104
  383MOL0     C51598   8.425   1.294   3.348 -1.2043 -0.6945 -1.0236
  383MOL0     C51599   8.516   1.246   3.247  0.1966  0.9013  0.0587
  383MOL0     O51600   8.542   1.320   3.132  0.4917 -0.0588 -0.2463
  383MOL0     C51601   8.622   1.285   3.028  0.6642 -0.1493 -0.9692
  383MOL0     C51602   8.604   1.355   2.910 -0.6388  0.0292 -0.7336
  383MOL0     C51603   8.684   1.315   2.799 -0.4999 -0.4702 -0.3343
  383MOL0     C51604   8.795   1.226   2.813 -0.1109 -0.5318  0.7197
  383MOL0     O51605   8.870   1.215   2.698 -0.3394  0.5349 -0.3210
  383MOL0     C51606   8.914   1.078   2.668  0.9014 -0.6343  0.4203
  383MOL0     C51607   9.021   1.078   2.561  0.9182 -0.0861  0.3624
  383MOL0     C51608   9.145   1.130   2.632 -0.6562 -0.4935  0.0295
  383MOL0     C51609   9.266   1.141   2.532 -0.4794  0.5315 -0.2491
  383MOL0     C51610   9.397   1.159   2.605  0.0865  0.1929 -0.8235
  383MOL0     C51611   9.518   1.123   2.523 -1.0147 -0.2212  0.3653
  383MOL0     C51612   9.541   0.963   2.527 -0.0320  0.3201  0.5679
  383MOL0     C51613   9.593   0.900   2.656  0.1352 -0.1621  0.1659
  383MOL0    Cl51614   9.706   0.754   2.627  0.1672  0.4277 -0.1095
  383MOL0     C51615   8.808   1.155   2.934 -0.6945  0.0769 -0.5888
  383MOL0     C51616   8.726   1.183   3.040 -0.1224  0.4180 -0.3955
  383MOL0     O51617   8.552   1.128   3.269  0.0010  0.4064  0.6676
  383MOL0     C51618   8.345   1.407   3.310 -0.2002  0.3635  0.9037
  383MOL0     C51619   8.256   1.474   3.401  0.7003  1.0871 -1.0368
  383MOL0     N51620   7.765   2.011   3.707 -0.9124  0.1114 -0.8610
  383MOL0     N51621   7.667   2.095   3.729 -0.8744 -0.6237 -1.0470
  383MOL0     C51622   7.399   2.897   3.941 -0.7408 -0.8409 -0.4216
  383MOL0     C51623   7.512   2.933   3.870 -0.7653 -0.0466 -0.2383
  383MOL0     C51624   7.879   2.921   3.623 -0.8943  0.6649  0.7431
  383MOL0     C51625   7.971   2.824   3.575 -0.8798 -0.0002 -0.0456
  383MOL0     C51626   8.096   2.863   3.513  0.1867 -0.1416 -0.7342
  383MOL0     C51627   8.134   2.994   3.523 -0.8428 -0.4495  0.5704
  383MOL0     O51628   8.264   3.018   3.480 -0.6897 -0.1480  0.3251
  383MOL0     C51629   8.284   3.147   3.413  0.4175  0.2813  0.2017
  383MOL0     C51630   8.358   3.134   3.276 -0.2531 -0.3300 -0.3890
  383MOL0     C51631   8.271   3.045   3.171 -0.0724 -0.0525 -1.1013
  383MOL0     C51632   8.356   2.986   3.065  0.4819  0.7775 -0.6690
  383MOL0     C51633   8.420   3.092   2.978  0.3064  0.7747  0.5265
  383MOL0     C51634   8.490   3.168   2.912  0.3034 -0.0968  0.5053
  383MOL0     C51635   8.049   3.086   3.580  0.0470 -0.7426 -0.6428
  383MOL0     C51636   7.925   3.051   3.634  0.2723 -0.7833  0.6588
  383MOL0     C51637   7.833   3.157   3.691 -1.2250  0.8078  0.7841
  383MOL0     H51638   7.467   2.823   3.556  2.6809  3.7912 -0.1063
  383MOL0     H51639   7.256   2.740   3.657 -0.5656  0.7731 -0.9851
  383MOL0     H51640   6.998   2.833   3.936 -2.5662 -0.1567 -1.9453
  383MOL0     H51641   7.076   2.782   3.776  3.4130 -1.6508  0.9496
  383MOL0     H51642   6.941   2.593   3.882 -0.6724  2.4962 -1.3984
  383MOL0     H51643   7.051   2.609   4.023 -1.7674  0.7030 -0.4734
  383MOL0     H51644   7.230   2.531   3.882 -0.1007 -2.3727  1.6560
  383MOL0     H51645   7.125   2.553   3.736  0.6583  1.9722  0.1996
  383MOL0     H51646   7.074   2.361   3.979  0.8522 -0.2724  0.8359
  383MOL0     H51647   6.968   2.370   3.840 -0.4380 -0.6015 -1.2600
  383MOL0     H51648   7.114   2.179   3.769  0.2147 -0.4735 -1.0371
  383MOL0     H51649   7.173   2.325   3.696 -2.5553 -0.4113 -1.5055
  383MOL0     H51650   7.345   2.345   3.871 -1.4432  0.8810 -1.4528
  383MOL0     H51651   7.269   2.214   3.962  1.8077  3.4970  1.9763
  383MOL0     H51652   7.428   2.217   3.721  0.1658  0.9581 -0.0023
  383MOL0     H51653   7.337   2.063   3.752  3.6106 -1.7179 -0.7943
  383MOL0     H51654   7.517   2.194   3.961 -2.4067  0.2595  2.1560
  383MOL0     H51655   7.437   2.035   3.978 -1.3848  0.1884 -1.6204
  383MOL0     H51656   7.643   1.877   3.970  3.2788 -2.1728 -0.1618
  383MOL0     H51657   7.898   1.820   3.903 -0.2485  3.2593 -0.3616
  383MOL0     H51658   7.774   1.707   3.856  0.1565 -0.4367 -1.6110
  383MOL0     H51659   7.854   1.731   3.613 -1.1536  1.2978  1.6012
  383MOL0     H51660   7.992   1.839   3.666  1.2472 -0.7998  0.9593
  383MOL0     H51661   7.959   1.542   3.757  0.6628 -0.3057  2.1954
  383MOL0     H51662   8.065   1.671   3.818  0.8330  0.3498 -0.3424
  383MOL0     H51663   8.193   1.683   3.609 -0.5119  0.1920 -1.5546
  383MOL0     H51664   8.059   1.622   3.517 -0.6120  2.7685  0.6421
  383MOL0     H51665   8.319   1.275   3.671  3.2088 -0.1121  0.0309
  383MOL0     H51666   8.459   1.155   3.526 -1.2470 -0.5632  1.5761
  383MOL0     H51667   8.535   1.437   2.896 -0.6158  0.6130  1.9180
  383MOL0     H51668   8.674   1.376   2.710  0.9676 -0.8005 -0.7478
  383MOL0     H51669   8.950   1.020   2.753 -0.1498 -1.9089  0.0342
  383MOL0     H51670   8.829   1.013   2.643  1.1458 -1.1005  0.7868
  383MOL0     H51671   9.043   0.983   2.512 -0.2468 -0.0308 -0.3040
  383MOL0     H51672   8.992   1.136   2.473 -2.8770 -1.0594  0.7987
  383MOL0     H51673   9.134   1.233   2.666 -0.2058 -1.4011  3.3078
  383MOL0     H51674   9.165   1.061   2.715 -0.2657  2.2560  2.3942
  383MOL0     H51675   9.232   1.213   2.457  1.4060  1.3365 -0.3889
  383MOL0     H51676   9.262   1.046   2.478 -0.0512  0.5496 -0.3193
  383MOL0     H51677   9.413   1.097   2.694  0.7874 -0.0239 -1.0993
  383MOL0     H51678   9.399   1.267   2.617 -5.6259  0.5601 -0.4221
  383MOL0     H51679   9.505   1.157   2.420 -1.2894  0.2698  0.5618
  383MOL0     H51680   9.609   1.167   2.566 -0.9250 -0.8195  0.8029
  383MOL0     H51681   9.618   0.934   2.454 -0.1106  0.2863  0.4973
  383MOL0     H51682   9.442   0.923   2.503  0.2644  0.1579 -0.4634
  383MOL0     H51683   9.655   0.968   2.715  1.4429 -1.9153  0.8914
  383MOL0     H51684   9.508   0.866   2.717  0.9960  0.3089  1.6779
  383MOL0     H51685   8.886   1.081   2.954  0.7299  1.7466  0.3294
  383MOL0     H51686   8.739   1.131   3.135 -0.7332  0.7092 -0.1461
  383MOL0     H51687   8.339   1.438   3.206 -4.4962 -3.6817 -0.3634
  383MOL0     H51688   8.197   1.558   3.364  0.1950 -0.3659 -3.8332
  383MOL0     H51689   7.400   2.907   4.049  0.5890 -1.7296 -0.3275
  383MOL0     H51690   7.593   2.986   3.918 -2.2780  3.5647 -1.2846
  383MOL0     H51691   7.942   2.719   3.581  0.3010 -0.3703 -0.4598
  383MOL0     H51692   8.159   2.785   3.473 -0.3309 -0.4870 -0.8865
  383MOL0     H51693   8.339   3.215   3.479  1.3747  0.1157 -0.4007
  383MOL0     H51694   8.192   3.203   3.393 -0.3315 -0.8288  0.5217
  383MOL0     H51695   8.460   3.096   3.287 -0.2871 -0.3925 -0.2849
  383MOL0     H51696   8.369   3.233   3.231  0.9839 -0.2851 -0.0212
  383MOL0     H51697   8.198   3.109   3.120  0.8923  3.2768  1.3390
  383MOL0     H51698   8.211   2.972   3.227  0.1487  0.7312  0.1925
  383MOL0     H51699   8.419   2.904   3.101 -0.0521  0.7151  0.1457
  383MOL0     H51700   8.284   2.935   3.000  1.7104  0.6709 -1.9866
  383MOL0     H51701   8.545   3.246   2.864 -0.2361  0.4340  0.7381
  383MOL0     H51702   8.071   3.192   3.569  0.8823 -0.7319  0.9188
  383MOL0     H51703   7.891   3.249   3.702 -1.1281  0.5241  3.3899
  383MOL0     H51704   7.747   3.177   3.627 -0.4705 -0.2924 -0.6334
  383MOL0     H51705   7.804   3.122   3.791  0.7780  1.7822  1.7661
  384MOL0     O51706   2.738   7.721   6.712  0.5111  0.1725  0.4674
  384MOL0     C51707   2.648   7.779   6.650 -0.6163 -0.3535 -0.1724
  384MOL0     O51708   2.670   7.851   6.545  0.1848  0.6040 -0.6753
  384MOL0     C51709   2.796   7.877   6.495 -0.4320  0.0832  0.9255
  384MOL0     C51710   2.800   7.908   6.359  0.2286 -0.8491 -0.5238
  384MOL0     C51711   2.914   7.951   6.299 -0.4287 -0.5763 -0.0613
  384MOL0     C51712   3.035   7.959   6.369 -0.6372  0.6831 -1.6318
  384MOL0     O51713   3.148   8.003   6.299 -0.2799  0.0660 -0.0096
  384MOL0     C51714   3.263   8.062   6.368  0.4231 -1.1511 -0.2908
  384MOL0     C51715   3.388   8.054   6.280  0.5202 -0.6555 -0.6906
  384MOL0     C51716   3.521   8.051   6.359 -0.0661  0.6124 -0.5701
  384MOL0     C51717   3.635   8.123   6.276 -0.1579  0.7598  0.1439
  384MOL0     C51718   3.763   8.147   6.356  0.7818  0.7208 -0.7000
  384MOL0     C51719   3.854   8.234   6.265  0.1458  0.2134  0.2377
  384MOL0     C51720   3.999   8.240   6.308  0.3139  0.0913  0.3042
  384MOL0     C51721   4.024   8.310   6.441 -0.0429 -0.0474  0.6621
  384MOL0     N51722   4.175   8.309   6.464 -0.1985  0.3172 -0.7494
  384MOL0     C51723   4.255   8.198   6.487  0.0064  0.0669  0.3378
  384MOL0     C51724   4.377   8.257   6.497  0.3038  0.1999 -0.7865
  384MOL0     C51725   4.501   8.186   6.524  0.1947 -0.1613  0.0099
  384MOL0     C51726   4.593   8.159   6.405  0.5361 -0.6894  0.6993
  384MOL0     C51727   4.708   8.076   6.456  0.4181 -0.2027 -0.2126
  384MOL0     C51728   4.817   8.055   6.360 -0.3939 -0.3622  0.1430
  384MOL0     O51729   4.869   8.190   6.338  0.2216  0.5519 -0.1507
  384MOL0     C51730   4.973   8.215   6.258  0.3955  0.7756 -0.2997
  384MOL0     C51731   5.010   8.344   6.210 -0.0598  0.2824 -0.6201
  384MOL0     C51732   5.136   8.365   6.129  0.0467  0.0203  0.4271
  384MOL0     C51733   5.217   8.255   6.108 -0.7081 -0.5358  0.8151
  384MOL0     C51734   5.336   8.277   6.023 -0.1097 -0.0052 -0.3906
  384MOL0     O51735   5.354   8.400   5.979 -0.1789  0.0495 -0.1203
  384MOL0     C51736   5.404   8.425   5.859  0.1305 -0.4984  0.2349
  384MOL0     C51737   5.391   8.346   5.742  0.9980  0.1480 -0.3167
  384MOL0     C51738   5.452   8.374   5.623  0.5519  0.2471 -0.1835
  384MOL0     C51739   5.532   8.481   5.614 -0.4992 -0.6264  0.8202
  384MOL0     O51740   5.614   8.496   5.499  0.3934 -0.6609  0.4755
  384MOL0     C51741   5.741   8.569   5.515 -0.1136  0.0239  0.9764
  384MOL0     C51742   5.834   8.484   5.602 -0.6820 -0.1351 -0.0393
  384MOL0     C51743   5.974   8.537   5.629 -0.4074 -0.2576  0.2457
  384MOL0     C51744   6.057   8.440   5.712  0.4140 -0.6044 -0.3968
  384MOL0     C51745   6.204   8.470   5.690  0.3037 -0.7337  0.1778
  384MOL0     C51746   6.302   8.377   5.774  0.7734 -0.2002  0.3351
  384MOL0     C51747   6.442   8.409   5.715 -1.1820 -0.1834  0.3664
  384MOL0     C51748   6.559   8.339   5.791  0.1466 -0.2113 -0.5487
  384MOL0    Cl51749   6.542   8.160   5.772  0.0423 -0.4014  0.0646
  384MOL0     C51750   5.549   8.551   5.728  0.1283  0.8614  1.1968
  384MOL0     C51751   5.486   8.532   5.845  0.0045  0.3269 -0.3202
  384MOL0     O51752   5.403   8.186   5.993 -0.2333 -0.0430 -0.5757
  384MOL0     C51753   5.188   8.133   6.172  0.3936  0.4660 -0.1648
  384MOL0     C51754   5.070   8.107   6.247 -0.0176 -0.1465  0.6993
  384MOL0     N51755   4.369   8.389   6.486 -0.0928 -0.2045 -0.8446
  384MOL0     N51756   4.250   8.418   6.470 -0.2543 -0.5131 -0.3789
  384MOL0     C51757   3.030   7.930   6.509  0.5880 -0.3371 -1.0753
  384MOL0     C51758   2.907   7.897   6.566  0.6474  0.4813  0.6665
  384MOL0     C51759   2.518   7.774   6.713  0.7903 -0.6677 -0.3490
  384MOL0     C51760   2.490   7.671   6.810 -0.1269 -0.2841 -0.5059
  384MOL0     C51761   2.362   7.668   6.869 -0.8566  0.3994 -0.1606
  384MOL0     C51762   2.264   7.762   6.843 -0.4280 -0.0084  0.2818
  384MOL0     O51763   2.150   7.789   6.921 -0.1485 -0.2637 -0.0987
  384MOL0     C51764   2.121   7.689   7.024 -0.4227  0.2495  0.2835
  384MOL0     C51765   1.974   7.694   7.081 -0.4152 -0.1178  0.5454
  384MOL0     C51766   1.964   7.589   7.190  0.5457 -0.0596 -0.1734
  384MOL0     C51767   1.856   7.612   7.297  0.1919  0.2477 -0.0984
  384MOL0     C51768   1.855   7.498   7.397 -0.5131 -0.0979 -0.3650
  384MOL0     C51769   1.843   7.413   7.480  0.5731 -0.1192  0.2248
  384MOL0     C51770   2.297   7.864   6.747 -0.2674  0.8324  0.2256
  384MOL0     C51771   2.413   7.865   6.669 -0.0880  0.3191 -0.3232
  384MOL0     C51772   2.423   7.980   6.575 -0.3075 -0.1933  0.6016
  384MOL0     H51773   2.705   7.910   6.306 -0.8985  2.0632  1.3118
  384MOL0     H51774   2.905   7.991   6.198 -2.2551  1.3430  0.7922
  384MOL0     H51775   3.252   8.167   6.396  0.5025 -1.0364 -0.6823
  384MOL0     H51776   3.282   8.014   6.465 -0.6187  1.1495  1.1412
  384MOL0     H51777   3.385   8.137   6.209  0.4948 -2.0233 -2.3326
  384MOL0     H51778   3.376   7.965   6.217  1.7992 -1.2332 -0.1584
  384MOL0     H51779   3.548   7.955   6.406  1.1479  1.4971  0.6354
  384MOL0     H51780   3.504   8.119   6.444  0.3926  1.1945 -0.9333
  384MOL0     H51781   3.659   8.050   6.198  0.0775  1.2742 -0.2646
  384MOL0     H51782   3.597   8.217   6.237  0.5658  0.7769 -0.5543
  384MOL0     H51783   3.735   8.191   6.452  0.5690 -0.4827 -0.1917
  384MOL0     H51784   3.823   8.057   6.371  0.4654  0.3675 -1.4710
  384MOL0     H51785   3.858   8.192   6.163 -0.5150 -2.5990  1.2766
  384MOL0     H51786   3.818   8.337   6.266 -1.6641 -0.3593 -0.3130
  384MOL0     H51787   4.044   8.299   6.228 -0.2008 -0.3261 -0.3068
  384MOL0     H51788   4.037   8.137   6.312  2.0681  0.6810 -0.3021
  384MOL0     H51789   3.987   8.412   6.439 -2.8136 -0.9853 -0.1506
  384MOL0     H51790   3.971   8.252   6.517 -0.3658 -1.2119 -0.4118
  384MOL0     H51791   4.230   8.093   6.476  0.7221  0.0944 -2.3733
  384MOL0     H51792   4.567   8.250   6.583 -0.1184 -0.7774  1.0443
  384MOL0     H51793   4.486   8.092   6.577  0.6575  0.7408  1.8521
  384MOL0     H51794   4.533   8.104   6.332  1.4862 -1.5557  0.5394
  384MOL0     H51795   4.635   8.252   6.366  1.1055 -1.9946 -2.0963
  384MOL0     H51796   4.673   7.980   6.494  0.6337 -0.5316 -0.8348
  384MOL0     H51797   4.760   8.124   6.539 -0.7603  0.7895 -0.0206
  384MOL0     H51798   4.789   8.010   6.264  1.1729  0.3940 -0.7013
  384MOL0     H51799   4.897   7.994   6.404  2.1337  1.1099 -2.0879
  384MOL0     H51800   4.953   8.432   6.239  1.6984  0.9893  0.9160
  384MOL0     H51801   5.156   8.466   6.095  1.9399 -1.0154 -1.7620
  384MOL0     H51802   5.316   8.268   5.740  0.7051  0.4015 -2.8670
  384MOL0     H51803   5.438   8.311   5.536  1.1289  0.7904 -0.6795
  384MOL0     H51804   5.787   8.600   5.420  1.3430  1.2056  2.0290
  384MOL0     H51805   5.721   8.662   5.569 -0.0766 -0.3534  1.6419
  384MOL0     H51806   5.786   8.472   5.700  0.6074  0.5284  0.7107
  384MOL0     H51807   5.837   8.385   5.555  0.0099  0.5819 -1.5482
  384MOL0     H51808   6.032   8.557   5.539  2.9280 -0.8788  2.1132
  384MOL0     H51809   5.970   8.634   5.680  2.4852 -0.2198  0.5206
  384MOL0     H51810   6.020   8.347   5.668 -0.8812  0.1218 -0.8709
  384MOL0     H51811   6.024   8.449   5.816  1.1802 -0.6332 -0.1483
  384MOL0     H51812   6.234   8.571   5.722  4.6831 -2.2925  1.7595
  384MOL0     H51813   6.226   8.449   5.585  2.1168 -0.1387  0.3999
  384MOL0     H51814   6.276   8.395   5.878 -1.1875  0.5520 -0.2528
  384MOL0     H51815   6.265   8.279   5.741 -1.0956  0.6412 -0.1740
  384MOL0     H51816   6.457   8.517   5.719 -2.1635 -0.0183 -0.1222
  384MOL0     H51817   6.455   8.373   5.613  0.5169  1.9694 -0.2483
  384MOL0     H51818   6.649   8.370   5.737  1.0264  0.4386  1.2104
  384MOL0     H51819   6.556   8.374   5.895  1.6649 -2.7882  0.4578
  384MOL0     H51820   5.621   8.633   5.735  0.3945  0.8310 -0.8228
  384MOL0     H51821   5.505   8.606   5.922 -2.0953  2.1297 -1.4322
  384MOL0     H51822   5.248   8.046   6.149  1.0344  1.0950 -0.9493
  384MOL0     H51823   5.053   8.013   6.298 -0.2405 -0.7298 -0.4216
  384MOL0     H51824   3.108   7.956   6.581  1.2152 -4.0138 -0.2285
  384MOL0     H51825   2.902   7.877   6.673  3.0464 -2.8317  0.3387
  384MOL0     H51826   2.567   7.612   6.858 -0.2467  1.7608  2.5290
  384MOL0     H51827   2.346   7.579   6.930  1.6007 -2.1112 -2.8750
  384MOL0     H51828   2.182   7.712   7.111 -0.6290  1.0266  0.2287
  384MOL0     H51829   2.143   7.584   7.005  4.7017  0.4899  3.1438
  384MOL0     H51830   1.895   7.678   7.008  1.2159 -0.0150 -1.3122
  384MOL0     H51831   1.971   7.797   7.119 -1.0017  0.4133 -0.8711
  384MOL0     H51832   2.059   7.574   7.243 -0.7426 -0.6578  2.0889
  384MOL0     H51833   1.933   7.493   7.149  1.1870  0.1315 -1.1415
  384MOL0     H51834   1.881   7.706   7.347 -0.5111  1.5834 -2.1191
  384MOL0     H51835   1.762   7.626   7.244  0.1626  0.4468  0.0052
  384MOL0     H51836   1.818   7.333   7.547  1.5374  0.5890  1.4802
  384MOL0     H51837   2.221   7.939   6.724 -0.1712  0.1807 -2.6471
  384MOL0     H51838   2.322   8.013   6.549 -0.0861 -1.1490 -1.7724
  384MOL0     H51839   2.471   8.063   6.627 -0.4144  0.6810 -0.6654
  384MOL0     H51840   2.469   7.959   6.478  1.3224  1.4665  0.9584
  385MOL0     O51841   1.460   4.721   7.502  0.3813  0.0730  0.3061
  385MOL0     C51842   1.343   4.740   7.538 -0.4521  0.1188  0.9820
  385MOL0     O51843   1.295   4.716   7.666  0.3764  0.0832 -0.3131
  385MOL0     C51844   1.376   4.658   7.759  0.2524  0.0057 -0.1488
  385MOL0     C51845   1.476   4.734   7.821  0.5266  0.5416 -0.1013
  385MOL0     C51846   1.546   4.685   7.929  0.3050 -0.1158 -0.4499
  385MOL0     C51847   1.507   4.566   8.004 -0.3174 -0.8276  1.0904
  385MOL0     O51848   1.583   4.534   8.111  0.3302 -0.7905  0.0338
  385MOL0     C51849   1.538   4.452   8.215 -0.5342 -0.4829  0.4894
  385MOL0     C51850   1.669   4.406   8.294 -0.6109  0.4215  0.1551
  385MOL0     C51851   1.762   4.316   8.202 -0.3786 -0.7117  1.0442
  385MOL0     C51852   1.874   4.273   8.284 -0.6657  0.6024 -0.0811
  385MOL0     C51853   1.982   4.197   8.204 -1.1847 -0.3236  0.7638
  385MOL0     C51854   1.930   4.073   8.134 -0.4091  0.5633  0.5047
  385MOL0     C51855   2.030   3.957   8.135  0.2145 -0.3723  0.1985
  385MOL0     C51856   2.143   3.972   8.032 -0.5610  0.9875  0.4951
  385MOL0     N51857   2.218   3.844   8.013  0.1289 -0.3268  0.2983
  385MOL0     C51858   2.296   3.774   8.106  0.3338  0.5155  0.2563
  385MOL0     C51859   2.355   3.674   8.035  0.4344  0.2364 -0.2456
  385MOL0     C51860   2.440   3.561   8.089 -0.2846 -0.0406  0.1462
  385MOL0     C51861   2.585   3.620   8.121  0.4605 -0.2187 -0.2990
  385MOL0     C51862   2.662   3.515   8.208  0.0333 -0.2904 -0.3333
  385MOL0     C51863   2.794   3.571   8.243  0.3524  0.1121  0.0087
  385MOL0     O51864   2.878   3.481   8.327  0.9646  0.0105  0.9179
  385MOL0     C51865   3.006   3.525   8.347  0.2089  0.1562  1.0515
  385MOL0     C51866   3.072   3.457   8.448  0.3633  0.9102  0.5590
  385MOL0     C51867   3.213   3.469   8.473  0.3988  0.1535 -0.4800
  385MOL0     C51868   3.293   3.547   8.380  0.0621 -0.6601 -0.1840
  385MOL0     C51869   3.433   3.561   8.404  0.3208 -0.4316  0.2551
  385MOL0     O51870   3.480   3.529   8.528  0.9102 -0.0940 -0.2996
  385MOL0     C51871   3.611   3.522   8.556  0.2490  0.5864  0.0890
  385MOL0     C51872   3.643   3.573   8.683 -0.9815 -0.0962  0.9346
  385MOL0     C51873   3.770   3.556   8.729 -0.1622  0.0826  0.5172
  385MOL0     C51874   3.875   3.493   8.652  0.3953 -0.0406 -0.3193
  385MOL0     O51875   3.996   3.495   8.705  0.0599  0.4834  0.4891
  385MOL0     C51876   4.098   3.417   8.639 -0.6444 -0.1163 -0.8806
  385MOL0     C51877   4.167   3.487   8.521 -0.4624 -0.5343 -0.7560
  385MOL0     C51878   4.308   3.423   8.500  0.5490 -0.3767  1.0602
  385MOL0     C51879   4.420   3.463   8.593  0.1508  0.4656 -0.0339
  385MOL0     C51880   4.530   3.374   8.548 -1.2703 -0.0035  0.6331
  385MOL0     C51881   4.655   3.415   8.633 -0.2044  0.2257  0.2983
  385MOL0     C51882   4.775   3.325   8.623  0.6290  0.4059  0.4669
  385MOL0     C51883   4.852   3.357   8.495 -0.0086  0.4899 -1.2480
  385MOL0    Cl51884   4.946   3.493   8.566  0.5904  0.1122 -0.0218
  385MOL0     C51885   3.839   3.434   8.527 -0.0527  0.2300 -0.4445
  385MOL0     C51886   3.703   3.452   8.483 -0.8039 -0.4435  0.3262
  385MOL0     O51887   3.500   3.602   8.311 -0.2259 -0.9459  0.5308
  385MOL0     C51888   3.219   3.615   8.273 -0.4608 -0.3026  0.1756
  385MOL0     C51889   3.084   3.601   8.258  0.3711  0.3281 -0.3583
  385MOL0     N51890   2.321   3.688   7.900  0.6119 -0.2119  0.3386
  385MOL0     N51891   2.241   3.788   7.895  0.0544 -0.7138 -0.7509
  385MOL0     C51892   1.399   4.494   7.947  0.2055  0.4878 -1.0045
  385MOL0     C51893   1.341   4.544   7.821 -0.0035 -0.1630  0.2981
  385MOL0     C51894   1.249   4.810   7.459  0.1091 -0.6535 -0.7700
  385MOL0     C51895   1.155   4.887   7.529 -0.4093 -0.2804  0.2036
  385MOL0     C51896   1.047   4.955   7.464 -0.0747  0.2221  0.3745
  385MOL0     C51897   1.040   4.954   7.325 -0.6477  0.1893 -0.8602
  385MOL0     O51898   0.933   5.024   7.264  0.3981 -0.3711 -0.1697
  385MOL0     C51899   0.930   5.045   7.126 -0.3018  1.1529  0.3126
  385MOL0     C51900   1.026   5.152   7.069  0.2672 -0.0308 -0.1827
  385MOL0     C51901   0.990   5.194   6.930  0.1442 -0.8036 -0.2197
  385MOL0     C51902   1.061   5.315   6.869  1.0153  0.3790  0.6807
  385MOL0     C51903   1.173   5.383   6.940 -0.3467  0.2776  0.2860
  385MOL0     C51904   1.259   5.456   6.992 -0.2233 -0.7934  0.0836
  385MOL0     C51905   1.144   4.888   7.258  0.8898 -0.6900  0.1893
  385MOL0     C51906   1.244   4.815   7.320  0.2528 -0.8013 -0.9078
  385MOL0     C51907   1.348   4.749   7.238  0.2093 -0.7216 -0.1883
  385MOL0     H51908   1.498   4.832   7.780  2.1327  0.6196  0.8497
  385MOL0     H51909   1.635   4.736   7.966  1.0625  0.4247 -2.8159
  385MOL0     H51910   1.491   4.512   8.293 -1.5421 -0.4335 -0.1435
  385MOL0     H51911   1.470   4.371   8.188  1.2563 -1.2256 -2.2168
  385MOL0     H51912   1.629   4.358   8.384 -0.8573 -0.8269 -0.5887
  385MOL0     H51913   1.730   4.493   8.320  2.8122 -1.4251 -0.9358
  385MOL0     H51914   1.781   4.375   8.111  0.9309  0.4634  2.0326
  385MOL0     H51915   1.702   4.231   8.168  0.4538  0.2746 -3.5718
  385MOL0     H51916   1.920   4.357   8.338  1.6244 -0.8692  0.4194
  385MOL0     H51917   1.835   4.197   8.352 -1.4674  1.8801  0.9387
  385MOL0     H51918   2.021   4.269   8.132  2.3952 -0.1842  2.6267
  385MOL0     H51919   2.072   4.164   8.256  1.2795 -1.3524 -3.6927
  385MOL0     H51920   1.847   4.025   8.188  2.2028 -3.4206  1.4594
  385MOL0     H51921   1.902   4.082   8.029  2.2784  0.2099 -0.3149
  385MOL0     H51922   1.972   3.866   8.115 -0.7191 -0.4546  2.8154
  385MOL0     H51923   2.076   3.946   8.234 -1.6436  0.5222  1.2265
  385MOL0     H51924   2.111   3.995   7.930 -1.7667  0.7678  0.8170
  385MOL0     H51925   2.209   4.054   8.062  1.2745 -1.9191  5.8619
  385MOL0     H51926   2.305   3.797   8.211 -1.7216 -1.0206  0.8311
  385MOL0     H51927   2.395   3.526   8.183  0.5139 -0.4136  0.3958
  385MOL0     H51928   2.437   3.475   8.021 -0.9157 -0.6201  0.8871
  385MOL0     H51929   2.634   3.641   8.026 -2.4531  0.7407 -1.6954
  385MOL0     H51930   2.575   3.713   8.178  1.8629 -0.7036  0.8110
  385MOL0     H51931   2.679   3.427   8.145 -1.6863 -1.1072  0.2580
  385MOL0     H51932   2.607   3.481   8.296  0.2481  1.8314  0.6685
  385MOL0     H51933   2.773   3.671   8.282 -3.4407 -0.5187 -0.0326
  385MOL0     H51934   2.845   3.582   8.147 -1.4002 -0.1066 -0.9789
  385MOL0     H51935   3.019   3.395   8.519 -0.1754  0.5629 -0.1295
  385MOL0     H51936   3.269   3.423   8.554  2.0240  0.9354 -1.1041
  385MOL0     H51937   3.562   3.628   8.731 -1.0876  0.1727  0.4504
  385MOL0     H51938   3.806   3.612   8.815 -2.0527 -0.3807  1.6620
  385MOL0     H51939   4.165   3.413   8.725 -1.2356  1.9079 -0.2717
  385MOL0     H51940   4.064   3.315   8.617 -2.1792 -0.1809  1.3813
  385MOL0     H51941   4.097   3.472   8.438 -3.4041 -1.0781  1.6251
  385MOL0     H51942   4.186   3.592   8.543 -1.0382 -0.6612  0.4769
  385MOL0     H51943   4.288   3.316   8.484  1.5589 -1.1852  4.3266
  385MOL0     H51944   4.350   3.466   8.409 -1.7550  1.7888  0.9390
  385MOL0     H51945   4.397   3.453   8.699 -0.7976  3.2461  0.0982
  385MOL0     H51946   4.441   3.569   8.574 -0.1399  0.8755  1.8319
  385MOL0     H51947   4.557   3.383   8.443 -2.1997  1.1049  0.4765
  385MOL0     H51948   4.499   3.270   8.564 -1.3266  0.0588  0.9462
  385MOL0     H51949   4.679   3.521   8.617 -0.7856  1.1514  4.4118
  385MOL0     H51950   4.628   3.418   8.739  2.1931 -2.0196  1.0576
  385MOL0     H51951   4.745   3.220   8.623 -1.6618  0.9681  2.6983
  385MOL0     H51952   4.832   3.340   8.715 -0.6142  0.7229  1.2219
  385MOL0     H51953   4.934   3.291   8.465  0.8854  1.0165 -0.0542
  385MOL0     H51954   4.774   3.380   8.422 -0.9316 -1.3727 -0.8985
  385MOL0     H51955   3.914   3.392   8.459  0.0271 -0.4111  0.0311
  385MOL0     H51956   3.691   3.417   8.381  4.2116 -1.4730 -0.1641
  385MOL0     H51957   3.277   3.676   8.205 -0.1789  0.0498  0.7340
  385MOL0     H51958   3.023   3.646   8.181 -1.2822 -0.7900  0.2506
  385MOL0     H51959   1.356   4.415   8.008 -0.5195  1.0506 -0.7747
  385MOL0     H51960   1.252   4.494   7.786 -1.0136  0.2333  2.1876
  385MOL0     H51961   1.142   4.887   7.637  0.8697 -1.1451  0.3777
  385MOL0     H51962   0.968   5.001   7.522  2.2671  1.2653  3.0117
  385MOL0     H51963   0.828   5.068   7.096 -1.2599 -0.9874  1.6732
  385MOL0     H51964   0.949   4.955   7.068 -0.5159  1.7116 -0.6353
  385MOL0     H51965   1.126   5.109   7.061 -0.2509 -1.7755  1.7333
  385MOL0     H51966   1.027   5.239   7.135  0.7236 -1.8382  2.3349
  385MOL0     H51967   0.882   5.211   6.920  0.6175  1.9341 -1.5936
  385MOL0     H51968   1.011   5.104   6.870 -0.0002 -2.3329  1.9014
  385MOL0     H51969   1.090   5.300   6.765 -1.0051  0.2043  0.1123
  385MOL0     H51970   0.987   5.396   6.874 -0.0747 -0.6640  4.1229
  385MOL0     H51971   1.346   5.506   7.029  1.1394 -0.4088 -3.2727
  385MOL0     H51972   1.142   4.892   7.149 -2.7484  0.9796  0.1714
  385MOL0     H51973   1.428   4.822   7.249 -2.3312  1.8518  3.4710
  385MOL0     H51974   1.367   4.653   7.288 -0.8001  0.3106  2.3196
  385MOL0     H51975   1.322   4.734   7.133  0.3623  0.5778 -0.4181
  386MOL0     O51976   0.707   9.634   6.181 -0.6634 -0.4532  0.4068
  386MOL0     C51977   0.698   9.636   6.299  0.0950  0.6110 -0.3503
  386MOL0     O51978   0.633   9.549   6.380  0.1321 -0.6709  0.6818
  386MOL0     C51979   0.561   9.454   6.306  0.6710  1.3575  0.1937
  386MOL0     C51980   0.602   9.322   6.289 -0.5156 -1.0413 -0.5790
  386MOL0     C51981   0.531   9.228   6.208 -0.3005  0.5691  1.2650
  386MOL0     C51982   0.419   9.278   6.133 -0.4309  0.6823  0.2553
  386MOL0     O51983   0.342   9.197   6.050 -0.2826 -0.5166 -0.6059
  386MOL0     C51984   0.216   9.166   6.113 -0.2904 -0.8185  0.7506
  386MOL0     C51985   0.106   9.118   6.017  0.1337  0.1090  0.2526
  386MOL0     C51986   0.127   8.959   5.995  0.9060 -0.2574 -0.4968
  386MOL0     C51987   0.268   8.922   5.935 -0.1449 -0.2279  0.5316
  386MOL0     C51988   0.264   8.793   5.845 -0.2861  0.5824 -0.5642
  386MOL0     C51989   0.390   8.719   5.825 -0.1405  0.9135  0.2468
  386MOL0     C51990   0.470   8.771   5.702 -0.0961 -0.0605  0.0324
  386MOL0     C51991   0.595   8.858   5.741 -0.0426 -0.3821 -0.1556
  386MOL0     N51992   0.704   8.795   5.822 -0.2258 -1.2953  0.3891
  386MOL0     C51993   0.820   8.745   5.760  0.1789  1.0453  0.7029
  386MOL0     C51994   0.907   8.745   5.869  1.4871 -0.8168 -0.2753
  386MOL0     C51995   1.057   8.746   5.860 -0.1676  0.3140 -0.7944
  386MOL0     C51996   1.106   8.885   5.812 -0.7715 -0.5933 -1.0652
  386MOL0     C51997   1.074   9.008   5.902  1.0293  0.0140  0.4150
  386MOL0     C51998   1.104   9.004   6.055 -0.4603  0.1410  0.5723
  386MOL0     O51999   1.247   8.980   6.101 -0.3633  0.0051  0.3287
  386MOL0     C52000   1.337   9.076   6.086  0.3765 -0.8577  0.5748
  386MOL0     C52001   1.471   9.041   6.100 -0.0720 -0.2512  0.2672
  386MOL0     C52002   1.569   9.135   6.082 -0.3307  0.5935  1.0383
  386MOL0     C52003   1.541   9.269   6.052 -0.1645 -0.8212  0.0983
  386MOL0     C52004   1.656   9.373   6.020  0.2089 -0.3294 -0.2742
  386MOL0     O52005   1.779   9.326   6.059  0.1702  0.0815 -0.0823
  386MOL0     C52006   1.890   9.407   6.050  1.1076 -0.6794  0.5428
  386MOL0     C52007   1.882   9.530   6.108 -0.1873  0.0882 -0.4527
  386MOL0     C52008   1.997   9.608   6.132 -0.2340 -1.0661 -0.1366
  386MOL0     C52009   2.121   9.563   6.084  0.1645 -0.1973 -0.5243
  386MOL0     O52010   2.235   9.648   6.103  0.1422  0.2192  0.4509
  386MOL0     C52011   2.258   9.718   6.224  0.1776 -0.2186  0.3512
  386MOL0     C52012   2.212   9.862   6.190 -0.4311 -0.0029  0.0743
  386MOL0     C52013   2.330   9.943   6.125  1.5214 -0.0163  0.0055
  386MOL0     C52014   2.271  10.070   6.068  0.1018 -1.1554  0.0770
  386MOL0     C52015   2.376  10.154   6.002 -0.0491  0.6637  1.0361
  386MOL0     C52016   2.318  10.269   5.920  1.2493  0.3490  0.5480
  386MOL0     C52017   2.236  10.233   5.793 -0.0968 -0.4835 -0.2890
  386MOL0     C52018   2.315  10.236   5.667 -0.0332  0.5997 -0.5794
  386MOL0    Cl52019   2.366  10.405   5.626  0.1714  0.3233 -0.0985
  386MOL0     C52020   2.124   9.441   6.010 -0.1160 -0.8106  1.0498
  386MOL0     C52021   2.013   9.364   5.982  0.8914 -0.6043  0.0764
  386MOL0     O52022   1.635   9.484   5.966 -0.2755  0.2836 -0.5238
  386MOL0     C52023   1.402   9.307   6.054  0.3921  1.2770 -0.3448
  386MOL0     C52024   1.303   9.207   6.059 -0.0795  0.6488  0.2410
  386MOL0     N52025   0.846   8.780   5.983  0.7664  0.6197 -0.0580
  386MOL0     N52026   0.724   8.816   5.959  0.0089 -0.0239  0.0255
  386MOL0     C52027   0.390   9.407   6.142  1.1415  0.0865  0.1369
  386MOL0     C52028   0.451   9.492   6.228  0.2587 -0.0366  0.1859
  386MOL0     C52029   0.756   9.754   6.365  0.5498  0.6805 -0.4720
  386MOL0     C52030   0.703   9.878   6.335 -0.8563  0.4406  1.3967
  386MOL0     C52031   0.742   9.994   6.398 -0.1320  0.2362  0.6038
  386MOL0     C52032   0.851   9.987   6.481 -0.5142  0.2161 -0.1769
  386MOL0     O52033   0.882  10.095   6.555 -0.7912 -0.3270  0.3477
  386MOL0     C52034   0.947  10.192   6.471 -0.5329  0.4049 -0.3064
  386MOL0     C52035   0.958  10.328   6.548 -0.0498 -0.4404  1.5889
  386MOL0     C52036   0.828  10.391   6.612  0.6137  0.1439 -0.3526
  386MOL0     C52037   0.725  10.420   6.501 -0.2603 -0.7344 -0.0966
  386MOL0     C52038   0.612  10.490   6.560  0.7017 -0.0434  0.1505
  386MOL0     C52039   0.521  10.545   6.624  0.2741  0.0833  0.2416
  386MOL0     C52040   0.914   9.870   6.510 -0.0253  0.4888 -0.9331
  386MOL0     C52041   0.861   9.754   6.458 -0.3788 -0.1196 -0.5474
  386MOL0     C52042   0.920   9.628   6.517 -0.4077 -0.5650 -0.6115
  386MOL0     H52043   0.694   9.304   6.344 -0.8449  1.8244  1.0803
  386MOL0     H52044   0.570   9.127   6.209  0.7382  0.7201 -2.9413
  386MOL0     H52045   0.238   9.095   6.194  3.3392  1.0733  1.6550
  386MOL0     H52046   0.183   9.256   6.167 -0.8449  0.1342 -1.1068
  386MOL0     H52047   0.116   9.177   5.925 -3.9274 -1.1703 -1.2355
  386MOL0     H52048   0.004   9.141   6.047 -0.3521 -1.3167 -0.2010
  386MOL0     H52049   0.050   8.935   5.921 -0.4767 -1.0105  1.1315
  386MOL0     H52050   0.102   8.897   6.081 -0.7310  2.0559  0.8163
  386MOL0     H52051   0.329   9.000   5.888  1.7246  0.5062  3.8822
  386MOL0     H52052   0.323   8.889   6.023 -0.1117 -2.2788 -0.1946
  386MOL0     H52053   0.192   8.724   5.890 -0.5576  0.2085 -1.5333
  386MOL0     H52054   0.214   8.825   5.753 -2.0726  1.2697  0.5919
  386MOL0     H52055   0.446   8.727   5.919  0.3612  0.9864 -0.0553
  386MOL0     H52056   0.366   8.613   5.813 -0.2602  0.9430  0.2270
  386MOL0     H52057   0.398   8.834   5.649  2.3628  1.3350 -1.8541
  386MOL0     H52058   0.505   8.689   5.639 -2.6820 -1.0528 -0.2373
  386MOL0     H52059   0.640   8.888   5.646 -0.1496  0.6694  0.1102
  386MOL0     H52060   0.570   8.955   5.787  0.1653 -0.1614 -0.5068
  386MOL0     H52061   0.852   8.732   5.657 -2.2277 -0.6770  0.0792
  386MOL0     H52062   1.091   8.723   5.962 -0.8468  2.1244 -0.1026
  386MOL0     H52063   1.098   8.665   5.801  1.6578  1.9719 -1.9189
  386MOL0     H52064   1.215   8.873   5.803 -0.2844  1.0424  1.5740
  386MOL0     H52065   1.069   8.903   5.711  0.0911  1.4136 -1.0700
  386MOL0     H52066   0.966   9.023   5.893  1.0306  0.0213  0.4117
  386MOL0     H52067   1.120   9.098   5.861 -0.5224  0.4735 -0.3873
  386MOL0     H52068   1.053   8.913   6.089  1.6056 -0.9444  0.9569
  386MOL0     H52069   1.063   9.090   6.109  1.8349  0.3389  2.1728
  386MOL0     H52070   1.498   8.936   6.110  0.7779 -0.2161 -1.3697
  386MOL0     H52071   1.671   9.098   6.077 -0.4199  0.5136 -2.1225
  386MOL0     H52072   1.786   9.559   6.148  0.1750  1.1133 -0.2971
  386MOL0     H52073   1.979   9.696   6.193  0.4816  0.9342 -2.6469
  386MOL0     H52074   2.190   9.691   6.305 -1.3855  2.6760  0.1660
  386MOL0     H52075   2.362   9.712   6.254  0.8540  2.0353 -1.2553
  386MOL0     H52076   2.126   9.870   6.122 -0.4629  3.6060  0.3661
  386MOL0     H52077   2.177   9.912   6.281  0.4225  1.6675 -0.4873
  386MOL0     H52078   2.406   9.960   6.202  1.1532  0.8906  0.1786
  386MOL0     H52079   2.380   9.882   6.049  0.6011  0.9828 -1.4468
  386MOL0     H52080   2.234  10.122   6.157  1.2592  0.0785 -0.1413
  386MOL0     H52081   2.189  10.050   5.998  0.2594 -2.2139  0.1735
  386MOL0     H52082   2.445  10.091   5.946  1.1422  2.8046  0.0234
  386MOL0     H52083   2.445  10.208   6.068  0.3137  0.5518  0.7499
  386MOL0     H52084   2.251  10.316   5.992  0.7291  0.4829 -0.0145
  386MOL0     H52085   2.384  10.353   5.897 -0.8982  1.9631 -0.0311
  386MOL0     H52086   2.153  10.304   5.779 -2.3424 -2.3090  2.6061
  386MOL0     H52087   2.191  10.133   5.791 -1.1532 -0.0301 -0.1617
  386MOL0     H52088   2.404  10.172   5.676 -0.4697 -0.4914 -3.0616
  386MOL0     H52089   2.248  10.194   5.591  3.0141 -1.0264 -2.5761
  386MOL0     H52090   2.227   9.418   5.987 -0.2418  0.4240 -0.9446
  386MOL0     H52091   2.004   9.268   5.932 -0.1643 -2.2436  3.1288
  386MOL0     H52092   1.385   9.414   6.046  0.0561  1.2941  0.5018
  386MOL0     H52093   1.200   9.242   6.060  0.3356  1.9438 -0.6060
  386MOL0     H52094   0.303   9.434   6.082 -1.9303 -2.9398  2.8442
  386MOL0     H52095   0.408   9.592   6.227 -0.9068 -0.5194 -1.4040
  386MOL0     H52096   0.626   9.895   6.260 -0.8203 -0.7989  1.0570
  386MOL0     H52097   0.704  10.093   6.377 -2.5358 -0.3631  1.8386
  386MOL0     H52098   0.896  10.190   6.374 -0.0213 -1.4324 -0.5788
  386MOL0     H52099   1.049  10.152   6.462 -1.2302 -1.4358 -0.5086
  386MOL0     H52100   1.012  10.398   6.483 -1.4341 -1.9280 -1.3510
  386MOL0     H52101   1.013  10.309   6.641 -0.9498 -2.2752  1.7883
  386MOL0     H52102   0.860  10.479   6.667  3.0862 -0.8373 -0.0871
  386MOL0     H52103   0.785  10.323   6.686 -0.1250 -0.0975 -0.9905
  386MOL0     H52104   0.772  10.481   6.424 -1.9458  0.2770 -0.3759
  386MOL0     H52105   0.696  10.322   6.464  3.5527 -1.9510 -0.2752
  386MOL0     H52106   0.430  10.556   6.680 -1.7470 -3.0498 -2.0930
  386MOL0     H52107   0.997   9.870   6.581  2.3021  0.9442 -3.5099
  386MOL0     H52108   1.023   9.607   6.486 -0.0077 -1.7379  1.3469
  386MOL0     H52109   0.916   9.634   6.626 -3.2887 -3.1284 -0.4321
  386MOL0     H52110   0.870   9.535   6.487 -0.2116 -1.3182  1.2540
  387MOL0     O52111   2.827  10.983   0.811 -0.5751  0.2812 -0.4221
  387MOL0     C52112   2.804  11.101   0.841  0.1924  0.7058  0.4242
  387MOL0     O52113   2.827  11.157   0.965 -0.0507  1.2884 -0.1611
  387MOL0     C52114   2.898  11.087   1.058 -0.0742  0.7147  0.2068
  387MOL0     C52115   3.023  11.023   1.041  0.0285  0.2129  0.9159
  387MOL0     C52116   3.100  10.972   1.146  0.6556  0.4451  1.7061
  387MOL0     C52117   3.046  10.970   1.273  0.1020  0.1983 -0.8980
  387MOL0     O52118   3.126  10.911   1.364  0.3766 -0.2499 -0.7436
  387MOL0     C52119   3.076  10.874   1.494 -1.0829 -0.1712 -0.0724
  387MOL0     C52120   3.077  10.989   1.606 -0.1536 -0.5065 -0.5400
  387MOL0     C52121   3.214  11.070   1.584  0.0674 -0.3708  0.0463
  387MOL0     C52122   3.325  10.979   1.647 -0.3920  0.3384  0.3007
  387MOL0     C52123   3.453  11.059   1.643 -0.2004 -0.0313 -0.7222
  387MOL0     C52124   3.467  11.159   1.761  0.5449 -1.2274 -0.3534
  387MOL0     C52125   3.587  11.255   1.761 -0.1219 -0.8425  0.0493
  387MOL0     C52126   3.720  11.182   1.797  0.6994  0.0407 -0.0404
  387MOL0     N52127   3.817  11.283   1.844 -0.4307  0.1938  0.7233
  387MOL0     C52128   3.910  11.343   1.764 -0.3105  0.0789 -0.0372
  387MOL0     C52129   3.960  11.444   1.840  0.1765 -0.4337 -0.3997
  387MOL0     C52130   4.084  11.522   1.795 -0.1072 -0.4237  0.3474
  387MOL0     C52131   4.081  11.658   1.864 -0.1189 -0.3417  0.3577
  387MOL0     C52132   4.188  11.763   1.819  0.3472 -0.0708  0.3490
  387MOL0     C52133   4.147  11.901   1.888  0.1196  0.9542 -0.6745
  387MOL0     O52134   4.207  12.012   1.823  0.3205  0.7847 -0.4043
  387MOL0     C52135   4.331  12.049   1.861 -0.3535  0.8292  0.1847
  387MOL0     C52136   4.425  11.970   1.938 -0.3901 -0.3041  0.1935
  387MOL0     C52137   4.544  12.022   1.987 -0.1797 -0.2046 -0.6798
  387MOL0     C52138   4.596  12.140   1.932  0.3361  0.8496  0.0911
  387MOL0     C52139   4.729  12.182   1.971 -1.1703 -0.1496  0.1810
  387MOL0     O52140   4.775  12.289   1.903  0.0896  1.0484  0.0917
  387MOL0     C52141   4.888  12.344   1.955 -0.5149  0.9343  0.0645
  387MOL0     C52142   4.880  12.440   2.059  0.4273  0.5789  0.5601
  387MOL0     C52143   5.004  12.495   2.104 -0.6280 -1.1761 -0.4720
  387MOL0     C52144   5.129  12.470   2.050 -0.1827  0.6977  1.0059
  387MOL0     O52145   5.247  12.524   2.092 -0.4983 -0.2343 -0.2719
  387MOL0     C52146   5.267  12.576   2.229  0.8893 -0.5131  0.0104
  387MOL0     C52147   5.406  12.628   2.228 -0.4048 -0.6073  0.3382
  387MOL0     C52148   5.447  12.706   2.341 -0.5640 -0.3891 -0.6264
  387MOL0     C52149   5.595  12.665   2.381 -0.2458  0.3024 -0.2617
  387MOL0     C52150   5.694  12.698   2.271 -0.3853  0.5442  0.4916
  387MOL0     C52151   5.836  12.657   2.304 -0.3643  0.4798  0.0956
  387MOL0     C52152   5.930  12.663   2.179  0.5824 -0.5552 -0.6386
  387MOL0     C52153   6.050  12.580   2.205 -0.7636 -0.3523 -0.4000
  387MOL0    Cl52154   6.147  12.635   2.351  0.0812  0.0762  0.2609
  387MOL0     C52155   5.129  12.370   1.958  0.0032 -0.8433 -0.2558
  387MOL0     C52156   5.015  12.311   1.906  0.6143 -0.0081 -0.0024
  387MOL0     O52157   4.787  12.125   2.065  0.7543  1.0114  0.2581
  387MOL0     C52158   4.518  12.206   1.846  0.1810 -0.3129  0.3082
  387MOL0     C52159   4.381  12.180   1.826  0.9042  0.9558 -0.3332
  387MOL0     N52160   3.898  11.447   1.970  0.1233  0.2109  0.1427
  387MOL0     N52161   3.812  11.346   1.965 -0.2665 -0.9763 -0.2742
  387MOL0     C52162   2.917  11.028   1.295 -0.4675 -0.6713  0.2517
  387MOL0     C52163   2.849  11.084   1.184  0.8455 -0.1677 -0.5807
  387MOL0     C52164   2.753  11.193   0.736 -1.2237 -0.6557 -0.0478
  387MOL0     C52165   2.675  11.300   0.785  0.9467  0.7112  0.8204
  387MOL0     C52166   2.625  11.392   0.702 -0.1013  0.1451 -0.0409
  387MOL0     C52167   2.652  11.388   0.565 -0.2089  1.1756 -0.5780
  387MOL0     O52168   2.576  11.480   0.500  0.6620 -0.8608  0.1187
  387MOL0     C52169   2.613  11.502   0.365  0.2552  0.2128 -0.2028
  387MOL0     C52170   2.558  11.639   0.328 -0.1613 -1.2615  0.2396
  387MOL0     C52171   2.639  11.711   0.215  0.7485  0.3397 -0.3510
  387MOL0     C52172   2.649  11.642   0.071 -0.9554 -0.5127 -0.1418
  387MOL0     C52173   2.677  11.738  -0.037  0.2851 -0.3202 -0.6033
  387MOL0     C52174   2.659  11.809  -0.134 -0.0048  0.3768  0.2018
  387MOL0     C52175   2.726  11.279   0.511  0.0798 -0.2920 -0.5783
  387MOL0     C52176   2.774  11.180   0.595  0.8115 -0.1834 -1.1260
  387MOL0     C52177   2.842  11.059   0.546 -0.1235  0.0343 -0.2129
  387MOL0     H52178   3.060  11.027   0.939 -0.9919 -1.8085  0.4130
  387MOL0     H52179   3.194  10.925   1.117 -0.9618 -2.8766  1.3486
  387MOL0     H52180   2.971  10.844   1.484 -0.5810 -1.5869 -1.4973
  387MOL0     H52181   3.132  10.784   1.522  0.9032  0.8773 -0.5191
  387MOL0     H52182   3.071  10.950   1.708  1.7979  1.6603  0.5322
  387MOL0     H52183   2.993  11.058   1.591 -0.2307  0.5190  3.3825
  387MOL0     H52184   3.191  11.164   1.635 -1.4224 -0.1912 -0.8956
  387MOL0     H52185   3.226  11.091   1.478 -1.4426 -1.6677 -0.4191
  387MOL0     H52186   3.293  10.948   1.747  1.8663 -0.3577  0.8712
  387MOL0     H52187   3.328  10.893   1.579 -1.4503 -0.4954  1.2585
  387MOL0     H52188   3.539  10.992   1.642  0.3460  0.5279  1.5851
  387MOL0     H52189   3.456  11.125   1.556  2.0720 -1.5693 -1.9186
  387MOL0     H52190   3.381  11.227   1.759  1.7945  0.5011  1.4130
  387MOL0     H52191   3.457  11.104   1.855 -1.3392 -1.4710 -0.6586
  387MOL0     H52192   3.561  11.336   1.830 -1.0142  1.0635 -2.3361
  387MOL0     H52193   3.603  11.299   1.661  2.0336 -0.5154  0.4941
  387MOL0     H52194   3.686  11.112   1.874  0.1585  0.3720  0.0233
  387MOL0     H52195   3.752  11.133   1.704 -0.8312 -0.7172 -0.1929
  387MOL0     H52196   3.938  11.324   1.661 -1.0441  3.2717 -0.9329
  387MOL0     H52197   4.179  11.471   1.812  1.0398  0.9802 -1.4538
  387MOL0     H52198   4.091  11.545   1.688  1.4655  1.2950  0.7730
  387MOL0     H52199   3.981  11.701   1.856  0.2506  0.3053 -1.0909
  387MOL0     H52200   4.103  11.636   1.969 -0.8584 -0.4924  0.4842
  387MOL0     H52201   4.175  11.791   1.714 -1.2025 -3.6555 -0.5467
  387MOL0     H52202   4.290  11.734   1.846  0.9466  1.4701 -0.1227
  387MOL0     H52203   4.164  11.896   1.995  1.2363 -1.1391 -0.9017
  387MOL0     H52204   4.039  11.914   1.874  0.1166  1.3953 -0.2637
  387MOL0     H52205   4.409  11.864   1.958  0.4900 -1.2837 -3.4655
  387MOL0     H52206   4.608  11.956   2.045  0.0267  0.1270 -0.5244
  387MOL0     H52207   4.782  12.450   2.103  0.1170  5.5866 -0.7736
  387MOL0     H52208   5.012  12.557   2.192 -1.0278 -1.4100 -0.2674
  387MOL0     H52209   5.199  12.660   2.242  2.5906  0.9694 -0.2174
  387MOL0     H52210   5.252  12.494   2.300  0.2489  1.2463  1.9849
  387MOL0     H52211   5.471  12.540   2.227 -1.4263 -1.3936  0.4849
  387MOL0     H52212   5.437  12.685   2.140  5.0061 -4.1942 -0.5429
  387MOL0     H52213   5.445  12.813   2.320 -0.2503 -0.2558 -0.0074
  387MOL0     H52214   5.379  12.696   2.427 -0.0631 -2.9215 -0.4676
  387MOL0     H52215   5.612  12.559   2.403  1.8963  0.9199  1.4255
  387MOL0     H52216   5.616  12.719   2.474  1.6876  0.1500 -0.5706
  387MOL0     H52217   5.691  12.805   2.251 -2.9242  1.0397  2.9128
  387MOL0     H52218   5.666  12.646   2.178  1.5326 -0.8988  0.6600
  387MOL0     H52219   5.874  12.726   2.380  1.6803 -0.8560  0.3602
  387MOL0     H52220   5.840  12.554   2.342 -3.3459  0.2164 -0.0637
  387MOL0     H52221   5.950  12.769   2.159 -2.5883  0.3911  0.6221
  387MOL0     H52222   5.881  12.612   2.095 -1.3716  0.8817 -0.4410
  387MOL0     H52223   6.030  12.473   2.217 -0.4524 -0.6972 -2.4866
  387MOL0     H52224   6.111  12.604   2.117  0.7533  1.0083  0.9593
  387MOL0     H52225   5.229  12.341   1.927 -0.0624 -1.2172 -0.1256
  387MOL0     H52226   5.024  12.240   1.824 -1.0193  1.8720 -1.9395
  387MOL0     H52227   4.551  12.305   1.816 -1.2716  0.1799  0.2364
  387MOL0     H52228   4.326  12.246   1.761  0.0079 -0.4862 -1.1084
  387MOL0     H52229   2.868  11.017   1.392  0.3528 -1.2565  0.6164
  387MOL0     H52230   2.745  11.113   1.197  0.4470 -1.2470 -1.1937
  387MOL0     H52231   2.671  11.308   0.894  1.5395  1.1414  0.8134
  387MOL0     H52232   2.548  11.458   0.743 -0.8261 -1.2828  0.9968
  387MOL0     H52233   2.576  11.416   0.309 -0.6673 -0.0816  0.8263
  387MOL0     H52234   2.722  11.512   0.357  0.6241 -2.4866  0.4429
  387MOL0     H52235   2.562  11.703   0.417 -1.7612 -1.1465  0.2608
  387MOL0     H52236   2.452  11.625   0.305 -0.4613 -1.1717  1.4841
  387MOL0     H52237   2.743  11.725   0.243  0.5265 -0.1169  0.7698
  387MOL0     H52238   2.592  11.807   0.192  0.5866 -0.4036 -3.6179
  387MOL0     H52239   2.718  11.557   0.074 -1.8825 -1.3112 -0.7270
  387MOL0     H52240   2.545  11.613   0.049 -1.6546  1.7750 -0.0995
  387MOL0     H52241   2.652  11.882  -0.212 -0.8480  2.1620  1.8717
  387MOL0     H52242   2.741  11.277   0.404  1.5257 -0.3533 -0.3936
  387MOL0     H52243   2.788  10.965   0.564  1.5163 -0.3547  3.8428
  387MOL0     H52244   2.870  11.063   0.440 -0.0334  0.4689 -0.1732
  387MOL0     H52245   2.934  11.041   0.603  0.3432 -0.0866 -0.9896
  388MOL0     O52246   9.734   1.770  10.718  0.6820  0.3031  0.5309
  388MOL0     C52247   9.743   1.811  10.607  0.7407  0.1156 -0.0203
  388MOL0     O52248   9.652   1.892  10.536 -0.0652 -0.1596 -0.5178
  388MOL0     C52249   9.532   1.892  10.597 -1.0535 -0.2467 -0.2929
  388MOL0     C52250   9.497   1.983  10.696  0.1130 -0.1698 -0.1088
  388MOL0     C52251   9.372   1.975  10.758  0.7265  0.4192 -0.6699
  388MOL0     C52252   9.282   1.877  10.716 -0.4086  0.0704  0.7865
  388MOL0     O52253   9.150   1.877  10.762 -0.7220 -0.6428  0.4714
  388MOL0     C52254   9.105   1.746  10.790  0.6041 -1.1727  0.1574
  388MOL0     C52255   8.972   1.770  10.871  0.6103 -0.0406 -0.1478
  388MOL0     C52256   8.888   1.645  10.885  0.3769 -0.8607 -0.2173
  388MOL0     C52257   8.735   1.668  10.898  0.2610 -0.1983  0.1041
  388MOL0     C52258   8.661   1.531  10.906  0.6471 -0.7776  1.0381
  388MOL0     C52259   8.517   1.539  10.952  0.0861 -0.3003  0.3262
  388MOL0     C52260   8.454   1.407  10.928  0.2524 -0.5678 -0.5555
  388MOL0     C52261   8.300   1.405  10.958  0.3265 -0.8589  0.8693
  388MOL0     N52262   8.253   1.267  10.940 -0.2015 -0.2490 -0.3959
  388MOL0     C52263   8.211   1.216  10.816  0.8123  0.2087  0.0246
  388MOL0     C52264   8.185   1.088  10.836  0.1938 -0.0294  0.2267
  388MOL0     C52265   8.154   0.982  10.735  0.5889 -0.1233  0.3220
  388MOL0     C52266   8.261   0.970  10.625 -0.1975  0.2644  0.2600
  388MOL0     C52267   8.401   0.938  10.689  0.3310 -0.4102 -0.4059
  388MOL0     C52268   8.508   0.919  10.578 -0.3099  0.8341 -0.1693
  388MOL0     O52269   8.480   0.826  10.466 -0.6259  0.3451 -0.0286
  388MOL0     C52270   8.585   0.805  10.383 -0.6416  0.6020  1.4127
  388MOL0     C52271   8.692   0.891  10.358  0.1155  0.1097 -0.8197
  388MOL0     C52272   8.798   0.863  10.286 -0.5983  0.7869  0.1535
  388MOL0     C52273   8.820   0.734  10.212  0.6307 -0.7658 -0.9119
  388MOL0     C52274   8.943   0.692  10.152 -0.1325 -0.1812 -0.1569
  388MOL0     O52275   9.036   0.795  10.148  0.4423 -0.6455  0.6177
  388MOL0     C52276   9.153   0.761  10.082 -0.4701  0.3606 -0.3781
  388MOL0     C52277   9.158   0.733   9.950  0.0708 -0.4638 -0.0063
  388MOL0     C52278   9.274   0.699   9.887 -0.4524 -0.7014  0.7556
  388MOL0     C52279   9.400   0.689   9.952  0.9461 -0.0936 -0.3851
  388MOL0     O52280   9.517   0.658   9.889  0.5909  0.4053 -0.6253
  388MOL0     C52281   9.524   0.676   9.746  0.5756  0.2998 -0.2064
  388MOL0     C52282   9.683   0.686   9.722  0.1488  0.0832 -0.2926
  388MOL0     C52283   9.707   0.728   9.583 -0.1842  0.0476  0.6537
  388MOL0     C52284   9.850   0.782   9.560 -0.9809 -0.1246 -0.5080
  388MOL0     C52285   9.872   0.817   9.408  0.2745  0.7263  1.0977
  388MOL0     C52286   9.848   0.705   9.295  0.4049 -0.2956 -0.9156
  388MOL0     C52287   9.906   0.564   9.334  0.7749 -0.9867 -0.2551
  388MOL0     C52288   9.897   0.472   9.216  0.7930  0.8192 -0.2075
  388MOL0    Cl52289  10.028   0.342   9.255  0.5191  0.0036  0.4392
  388MOL0     C52290   9.395   0.707  10.088 -0.4471  0.3256 -0.1914
  388MOL0     C52291   9.272   0.749  10.155 -0.0185 -1.0612  1.0369
  388MOL0     O52292   8.964   0.577  10.121 -0.4448  0.0674  0.3440
  388MOL0     C52293   8.708   0.647  10.225 -0.0298  0.1157  0.0673
  388MOL0     C52294   8.589   0.677  10.306 -0.1497 -0.0642  0.4081
  388MOL0     N52295   8.196   1.067  10.972  0.4965  0.1178 -0.5065
  388MOL0     N52296   8.228   1.178  11.037 -0.0355 -0.1665 -0.0065
  388MOL0     C52297   9.324   1.789  10.612 -0.5012  0.0796 -0.3643
  388MOL0     C52298   9.447   1.799  10.554 -0.0367  0.3651  0.6345
  388MOL0     C52299   9.855   1.764  10.519 -0.9389 -0.0163  0.1114
  388MOL0     C52300   9.864   1.812  10.383 -0.3027 -0.0956  0.0652
  388MOL0     C52301   9.946   1.754  10.289  0.8578 -0.1861 -0.5391
  388MOL0     C52302  10.039   1.667  10.319  0.1128 -0.2148 -1.0094
  388MOL0     O52303  10.123   1.608  10.238 -0.2345  0.2053 -0.2106
  388MOL0     C52304  10.141   1.656  10.096  0.7407  0.5615 -0.7087
  388MOL0     C52305  10.210   1.541  10.016 -0.0232  0.3822 -0.0689
  388MOL0     C52306  10.339   1.479  10.075 -0.5076 -0.9015 -0.0552
  388MOL0     C52307  10.310   1.390  10.190 -0.1016 -0.5731  0.1596
  388MOL0     C52308  10.404   1.278  10.182 -1.2170  0.8243 -0.1721
  388MOL0     C52309  10.481   1.190  10.167 -0.1203 -0.0262 -0.1284
  388MOL0     C52310  10.039   1.628  10.453  0.0527 -0.4316 -0.5859
  388MOL0     C52311   9.957   1.669  10.552  0.2332  0.0912  0.4670
  388MOL0     C52312   9.966   1.588  10.680  0.2880 -0.7516  0.0534
  388MOL0     H52313   9.567   2.056  10.734  0.4020 -1.0066  1.0277
  388MOL0     H52314   9.338   2.053  10.825 -1.3035 -0.4521 -0.6065
  388MOL0     H52315   9.087   1.689  10.698 -0.0273 -1.8079  0.6615
  388MOL0     H52316   9.173   1.685  10.851 -0.2837 -1.5982  0.7478
  388MOL0     H52317   8.912   1.848  10.822  1.7126  1.1666  0.3515
  388MOL0     H52318   9.007   1.807  10.968  1.3233  0.3668 -0.5510
  388MOL0     H52319   8.916   1.591  10.976 -3.3997  1.1526  2.4422
  388MOL0     H52320   8.896   1.592  10.790 -0.0657  0.6352 -1.1213
  388MOL0     H52321   8.704   1.724  10.986  4.6334  0.9211  1.1687
  388MOL0     H52322   8.702   1.727  10.811  0.3292 -2.5664 -1.6274
  388MOL0     H52323   8.662   1.474  10.813 -0.8560 -1.6925  1.5446
  388MOL0     H52324   8.710   1.471  10.984  2.0145 -1.5109 -0.3261
  388MOL0     H52325   8.512   1.567  11.058  1.9261 -0.6198  0.5350
  388MOL0     H52326   8.465   1.615  10.893 -0.6761 -2.1063 -1.4785
  388MOL0     H52327   8.505   1.328  10.984 -0.7746 -0.1569  1.0301
  388MOL0     H52328   8.476   1.376  10.825 -0.0464  1.0849 -1.1453
  388MOL0     H52329   8.265   1.426  11.060 -2.6459 -2.6047  0.3332
  388MOL0     H52330   8.253   1.469  10.882 -1.0858 -1.9536  0.7828
  388MOL0     H52331   8.195   1.271  10.724 -0.2938 -2.7570 -1.7046
  388MOL0     H52332   8.154   0.888  10.791 -0.2395 -0.1009  0.3699
  388MOL0     H52333   8.052   0.979  10.695 -0.7096 -1.6870  3.4287
  388MOL0     H52334   8.234   0.887  10.559 -0.1194 -0.2463  0.8645
  388MOL0     H52335   8.266   1.067  10.574  0.8299  0.4925  0.7699
  388MOL0     H52336   8.411   0.861  10.766  0.7768  0.7466  0.7282
  388MOL0     H52337   8.429   1.026  10.747  0.8229 -1.5947  1.2186
  388MOL0     H52338   8.602   0.891  10.626 -1.0091 -3.5191 -0.8685
  388MOL0     H52339   8.524   1.018  10.535  3.5238  0.8288  0.8697
  388MOL0     H52340   8.702   0.988  10.406  3.0948 -0.9973  1.1141
  388MOL0     H52341   8.869   0.945  10.287  1.1589 -0.5343 -2.5835
  388MOL0     H52342   9.068   0.746   9.892  0.3362  0.2041 -0.2749
  388MOL0     H52343   9.269   0.679   9.780  0.2710  3.0308 -0.1449
  388MOL0     H52344   9.483   0.582   9.709  1.0313 -0.7209  1.7500
  388MOL0     H52345   9.469   0.764   9.712 -0.1609 -0.0499  0.0531
  388MOL0     H52346   9.726   0.756   9.794 -1.8950 -1.1392  2.2674
  388MOL0     H52347   9.730   0.587   9.732  1.4159  0.6719 -0.1950
  388MOL0     H52348   9.700   0.641   9.517 -3.6554  0.4804  0.2786
  388MOL0     H52349   9.635   0.807   9.558  0.7885  1.3002  1.6740
  388MOL0     H52350   9.932   0.719   9.596  1.4354  3.2844  0.5640
  388MOL0     H52351   9.856   0.874   9.619 -1.6043 -0.2684 -0.2269
  388MOL0     H52352   9.971   0.862   9.393  0.2247  1.0860  1.7841
  388MOL0     H52353   9.798   0.895   9.386 -2.1265 -1.5695  0.6061
  388MOL0     H52354   9.741   0.696   9.274  0.0805 -1.0455  0.8358
  388MOL0     H52355   9.892   0.751   9.206  2.3210  3.4860  1.7081
  388MOL0     H52356   9.849   0.513   9.412 -2.0144 -0.3916 -1.7694
  388MOL0     H52357  10.011   0.581   9.358  0.9156  2.5028 -2.5212
  388MOL0     H52358   9.794   0.434   9.210  1.1959 -1.1159  3.0136
  388MOL0     H52359   9.926   0.520   9.122  0.8802  1.9581  0.3968
  388MOL0     H52360   9.473   0.704  10.163 -1.7556  0.2753  1.2192
  388MOL0     H52361   9.265   0.767  10.262 -0.0910 -0.9258  1.0102
  388MOL0     H52362   8.719   0.549  10.180  0.5175  0.2164 -0.0255
  388MOL0     H52363   8.503   0.612  10.315 -1.8149  2.1811  1.9567
  388MOL0     H52364   9.260   1.703  10.592 -1.1946  0.4752  0.0931
  388MOL0     H52365   9.473   1.729  10.475  1.3796 -0.7401  2.0095
  388MOL0     H52366   9.798   1.892  10.352  1.4001  1.6714  0.7230
  388MOL0     H52367   9.924   1.784  10.187 -1.1221  0.2604 -0.0116
  388MOL0     H52368  10.203   1.746  10.095  1.2198  0.2525 -2.1595
  388MOL0     H52369  10.040   1.675  10.059  0.7864  0.8359 -0.6949
  388MOL0     H52370  10.247   1.579   9.920  1.2636  0.6835  0.5219
  388MOL0     H52371  10.143   1.457   9.997 -0.1728  0.3398  0.6111
  388MOL0     H52372  10.423   1.540  10.109  0.2555 -2.1314  0.3482
  388MOL0     H52373  10.376   1.418   9.992  0.1967 -1.4210  0.6283
  388MOL0     H52374  10.312   1.443  10.285 -0.9296  2.2443 -1.2760
  388MOL0     H52375  10.209   1.348  10.194  0.1338 -1.2669 -0.7251
  388MOL0     H52376  10.544   1.115  10.123  0.5737  0.2797  0.3259
  388MOL0     H52377  10.123   1.561  10.472  2.3128  1.8773 -1.8231
  388MOL0     H52378   9.958   1.647  10.772 -2.4024 -0.3156 -0.3604
  388MOL0     H52379   9.881   1.519  10.688 -0.4261  0.2124  1.2237
  388MOL0     H52380  10.055   1.525  10.686 -0.1957 -1.3913  0.6755
  389MOL0     O52381   3.935   1.606  10.454 -0.2971 -0.0689 -0.6627
  389MOL0     C52382   3.871   1.572  10.545 -0.4008 -0.5837  0.1083
  389MOL0     O52383   3.919   1.528  10.666  0.3121  0.3059  0.2560
  389MOL0     C52384   4.051   1.524  10.695 -0.2458 -0.0005 -0.1211
  389MOL0     C52385   4.086   1.538  10.830 -0.3990 -0.1194 -0.6625
  389MOL0     C52386   4.215   1.520  10.891  0.6208  0.5623  0.7605
  389MOL0     C52387   4.325   1.492  10.816  0.6923 -0.1733  0.1919
  389MOL0     O52388   4.443   1.475  10.879  0.3281 -0.6501 -0.2626
  389MOL0     C52389   4.557   1.474  10.793 -0.0379  0.4259  0.4756
  389MOL0     C52390   4.676   1.466  10.887  0.8896  0.7383 -0.3201
  389MOL0     C52391   4.797   1.501  10.810 -0.0459  0.1593  1.0746
  389MOL0     C52392   4.930   1.499  10.886 -0.7638  0.3275  1.0021
  389MOL0     C52393   5.048   1.571  10.810  0.1034 -0.7368 -0.8400
  389MOL0     C52394   5.094   1.505  10.675 -0.1380 -0.1438  0.0965
  389MOL0     C52395   5.107   1.356  10.675  0.3102 -0.0264 -0.4615
  389MOL0     C52396   5.224   1.288  10.743 -0.0791 -0.1669 -0.1490
  389MOL0     N52397   5.351   1.279  10.664 -0.1286  0.3050 -0.4026
  389MOL0     C52398   5.446   1.371  10.672  0.4005  0.3068 -0.4322
  389MOL0     C52399   5.532   1.335  10.569 -0.3278 -0.3590 -0.7538
  389MOL0     C52400   5.670   1.393  10.534  0.3083 -0.6794  0.5822
  389MOL0     C52401   5.767   1.332  10.639  0.0916 -0.0387  0.4293
  389MOL0     C52402   5.910   1.381  10.617 -0.8546  0.5885 -0.6865
  389MOL0     C52403   6.016   1.316  10.701 -0.6128  0.0756 -0.7568
  389MOL0     O52404   6.127   1.411  10.698 -0.5524  0.7495  0.4934
  389MOL0     C52405   6.239   1.372  10.775  0.1604 -0.0974 -0.3964
  389MOL0     C52406   6.231   1.284  10.879  0.4354 -0.5490 -0.3821
  389MOL0     C52407   6.348   1.262  10.956 -0.0762 -0.0146  0.9878
  389MOL0     C52408   6.467   1.334  10.931  0.6144 -0.0729  0.0909
  389MOL0     C52409   6.581   1.308  11.015 -0.7276 -0.9524  0.3216
  389MOL0     O52410   6.702   1.350  10.960  0.2203  0.6468  0.5554
  389MOL0     C52411   6.817   1.347  11.039 -1.4784  0.6193  0.0597
  389MOL0     C52412   6.884   1.235  11.061 -0.6587 -0.3086 -0.2829
  389MOL0     C52413   7.025   1.237  11.107 -0.0488 -0.3572 -0.6762
  389MOL0     C52414   7.082   1.357  11.157 -0.2395  0.5363 -0.3862
  389MOL0     O52415   7.207   1.359  11.220  0.3317  0.0717 -0.0894
  389MOL0     C52416   7.306   1.345  11.110  0.5442 -0.2677 -1.2398
  389MOL0     C52417   7.339   1.493  11.053 -0.5364  0.3499  0.0459
  389MOL0     C52418   7.387   1.600  11.157  0.3434  0.1743 -0.2801
  389MOL0     C52419   7.372   1.743  11.096 -0.4036 -0.4771  0.5967
  389MOL0     C52420   7.412   1.773  10.951  0.2415 -0.4470 -0.1198
  389MOL0     C52421   7.559   1.791  10.915 -0.5328  0.4462  0.5963
  389MOL0     C52422   7.594   1.733  10.773 -0.0767 -0.1384 -0.8402
  389MOL0     C52423   7.752   1.763  10.746  0.9458  0.0221  0.4908
  389MOL0    Cl52424   7.779   1.674  10.596 -0.1547 -0.4798  0.4846
  389MOL0     C52425   7.000   1.478  11.157 -0.5703  0.7812  0.0990
  389MOL0     C52426   6.872   1.473  11.088  0.2173 -0.0552 -0.3779
  389MOL0     O52427   6.571   1.290  11.130 -0.1336 -0.4166  0.1032
  389MOL0     C52428   6.480   1.408  10.812  0.0874  0.2845  0.0242
  389MOL0     C52429   6.363   1.428  10.735  0.8950 -0.2327 -0.4713
  389MOL0     N52430   5.494   1.207  10.520 -0.4619 -0.1369 -0.7240
  389MOL0     N52431   5.385   1.173  10.585 -0.0388  0.0050  0.1326
  389MOL0     C52432   4.296   1.470  10.676  0.0613 -0.7828  0.1166
  389MOL0     C52433   4.164   1.489  10.622  0.0685  0.5522 -0.4436
  389MOL0     C52434   3.723   1.556  10.520 -0.5558  0.4406  0.5559
  389MOL0     C52435   3.649   1.575  10.637 -0.0604  0.2356  0.8660
  389MOL0     C52436   3.510   1.548  10.635 -0.4087 -0.8408  0.0990
  389MOL0     C52437   3.444   1.522  10.512 -0.5476  0.4078  0.1286
  389MOL0     O52438   3.310   1.488  10.491 -0.3649 -0.0802  1.1306
  389MOL0     C52439   3.222   1.501  10.602 -0.0070 -0.5682  0.1054
  389MOL0     C52440   3.195   1.360  10.657 -0.4106 -0.0648  0.8136
  389MOL0     C52441   3.068   1.290  10.603  0.6416 -0.0698 -0.4326
  389MOL0     C52442   3.032   1.185  10.700 -0.7473  0.1500 -1.2956
  389MOL0     C52443   2.896   1.140  10.670  0.2600 -0.2363 -0.5257
  389MOL0     C52444   2.778   1.106  10.652 -0.1810 -0.2057 -0.1848
  389MOL0     C52445   3.523   1.498  10.396 -0.0361 -0.6945  0.2247
  389MOL0     C52446   3.663   1.514  10.394  1.5177  0.2324 -0.5877
  389MOL0     C52447   3.731   1.515  10.261 -0.5208 -0.4770  0.5906
  389MOL0     H52448   4.008   1.558  10.903 -1.2402 -0.6934 -1.3902
  389MOL0     H52449   4.239   1.532  10.996  4.0640  2.6626 -0.1224
  389MOL0     H52450   4.560   1.384  10.731 -1.8047 -0.0943  1.0889
  389MOL0     H52451   4.549   1.554  10.720 -2.6455  2.2592  2.5796
  389MOL0     H52452   4.681   1.367  10.933  1.7230  0.2610 -1.3762
  389MOL0     H52453   4.655   1.536  10.968 -0.7759 -0.2034  0.0949
  389MOL0     H52454   4.784   1.603  10.774  1.4028  0.1600  0.4870
  389MOL0     H52455   4.815   1.436  10.724  0.6847 -0.7159  1.8655
  389MOL0     H52456   4.911   1.540  10.986 -2.5696  0.6010  0.5826
  389MOL0     H52457   4.964   1.397  10.904 -2.4829 -0.9035 -2.0282
  389MOL0     H52458   5.018   1.675  10.797  1.9682 -0.0015  0.3506
  389MOL0     H52459   5.133   1.592  10.875 -0.3475  2.5793 -1.1699
  389MOL0     H52460   5.010   1.535  10.612 -0.3276 -0.2316  0.3098
  389MOL0     H52461   5.188   1.543  10.633  0.8739 -2.0320  0.5291
  389MOL0     H52462   5.118   1.334  10.569  3.9689  0.8524 -0.3682
  389MOL0     H52463   5.021   1.309  10.725  2.2854 -0.1207  3.1751
  389MOL0     H52464   5.239   1.343  10.836  3.7587  0.4862 -1.0133
  389MOL0     H52465   5.191   1.186  10.763  0.7587 -0.3360  0.4042
  389MOL0     H52466   5.437   1.458  10.735 -2.8576 -1.3061  1.6137
  389MOL0     H52467   5.690   1.351  10.435  1.2963 -1.0137  0.9053
  389MOL0     H52468   5.683   1.501  10.536  0.5122 -0.7092  0.9836
  389MOL0     H52469   5.738   1.358  10.741  2.2692 -1.4493  1.4731
  389MOL0     H52470   5.766   1.223  10.623  0.0418  0.3774 -3.3675
  389MOL0     H52471   5.910   1.488  10.638  0.1299  0.7803 -1.6157
  389MOL0     H52472   5.932   1.369  10.510  3.9222 -0.8373  0.2338
  389MOL0     H52473   6.042   1.218  10.660 -3.2146 -0.7353 -0.6673
  389MOL0     H52474   5.983   1.306  10.805 -0.6658  0.2807 -0.7533
  389MOL0     H52475   6.146   1.221  10.903  1.7860 -1.0290  4.0153
  389MOL0     H52476   6.338   1.188  11.034  1.1517  2.2796  3.4812
  389MOL0     H52477   6.841   1.140  11.029 -0.3084 -2.0750  3.7845
  389MOL0     H52478   7.082   1.145  11.104 -0.4899 -0.6236 -1.0969
  389MOL0     H52479   7.396   1.302  11.156  0.6381  2.3592  1.2974
  389MOL0     H52480   7.272   1.278  11.030 -2.5758 -3.0811  2.0799
  389MOL0     H52481   7.422   1.484  10.983  1.1571 -1.1191  2.1088
  389MOL0     H52482   7.256   1.541  11.000 -0.3039  1.8314  0.9381
  389MOL0     H52483   7.332   1.579  11.250  1.6250 -3.1248 -0.1444
  389MOL0     H52484   7.490   1.575  11.184 -0.1426 -1.1330  0.4502
  389MOL0     H52485   7.422   1.819  11.156  1.2457 -1.3842  0.4670
  389MOL0     H52486   7.267   1.769  11.105 -0.4798 -1.2838  2.6272
  389MOL0     H52487   7.356   1.856  10.908  0.6914  0.0553  0.2644
  389MOL0     H52488   7.365   1.692  10.893  2.6160 -1.3314 -0.9181
  389MOL0     H52489   7.578   1.898  10.922  3.0067 -0.1631  2.3340
  389MOL0     H52490   7.605   1.734  10.997  0.7770  0.0091 -0.4102
  389MOL0     H52491   7.533   1.770  10.690 -0.7840  0.5226 -0.0429
  389MOL0     H52492   7.576   1.625  10.777  1.7587 -0.4820  3.7677
  389MOL0     H52493   7.761   1.872  10.738 -3.3408  0.6625  1.8074
  389MOL0     H52494   7.806   1.717  10.829 -0.1941 -0.9635  0.7120
  389MOL0     H52495   7.044   1.566  11.202  1.8449 -0.3086  0.0180
  389MOL0     H52496   6.825   1.569  11.069  1.5816  0.3375 -2.0238
  389MOL0     H52497   6.579   1.432  10.775 -1.2959  2.5635 -2.5422
  389MOL0     H52498   6.363   1.476  10.638  0.8061 -1.6144 -1.1782
  389MOL0     H52499   4.371   1.454  10.600  0.8172 -0.1881  0.7116
  389MOL0     H52500   4.150   1.464  10.517 -1.9829 -1.1756  0.1808
  389MOL0     H52501   3.695   1.592  10.734 -1.3556 -0.6114  1.6647
  389MOL0     H52502   3.466   1.565  10.732  0.4078  0.0571  0.3218
  389MOL0     H52503   3.131   1.551  10.569  0.2741 -0.8208 -1.0898
  389MOL0     H52504   3.258   1.563  10.685 -3.3899  0.1930  1.1537
  389MOL0     H52505   3.189   1.381  10.764  1.4693  5.7137  0.1062
  389MOL0     H52506   3.285   1.298  10.650  0.1830  0.2825  3.9516
  389MOL0     H52507   3.067   1.244  10.504 -0.9216 -0.4311 -0.2661
  389MOL0     H52508   2.984   1.358  10.588  0.2039 -0.5836 -0.3249
  389MOL0     H52509   3.099   1.099  10.690  0.3830  1.0893 -1.9935
  389MOL0     H52510   3.040   1.214  10.806  0.5617 -2.4431 -0.6041
  389MOL0     H52511   2.674   1.079  10.644 -0.9748  1.1267  3.6399
  389MOL0     H52512   3.477   1.449  10.311 -0.6420 -2.3412  1.4548
  389MOL0     H52513   3.661   1.481  10.185 -0.2049  0.4060 -0.1116
  389MOL0     H52514   3.780   1.608  10.232  0.3776 -1.3354 -0.7876
  389MOL0     H52515   3.812   1.441  10.256  0.2914  0.4163  0.2536
  390MOL0     O52516   6.239   2.757   6.175 -0.3271  0.0703 -0.5290
  390MOL0     C52517   6.258   2.878   6.195 -1.1031  0.5399  0.3692
  390MOL0     O52518   6.169   2.968   6.227 -0.1639  0.1907 -0.7457
  390MOL0     C52519   6.039   2.937   6.208  0.3253  0.1264  1.3735
  390MOL0     C52520   5.969   3.021   6.123  0.3754  0.0745  0.0437
  390MOL0     C52521   5.843   2.979   6.076  1.2064 -0.4265 -0.0764
  390MOL0     C52522   5.775   2.871   6.129 -0.0911  0.4905 -0.4064
  390MOL0     O52523   5.646   2.852   6.090 -0.0918  0.7737 -0.0445
  390MOL0     C52524   5.570   2.725   6.121 -0.0215 -0.5035 -0.6702
  390MOL0     C52525   5.451   2.720   6.027  0.0321  0.1026 -0.2099
  390MOL0     C52526   5.481   2.645   5.903 -0.0268  0.2254  1.0622
  390MOL0     C52527   5.349   2.628   5.826  0.1278 -0.2906  0.2618
  390MOL0     C52528   5.310   2.757   5.756  0.1057  0.1123 -0.0521
  390MOL0     C52529   5.166   2.746   5.696  0.0656  0.1051 -0.3686
  390MOL0     C52530   5.120   2.879   5.636 -0.7711 -0.2394 -0.6901
  390MOL0     C52531   4.993   2.934   5.693 -0.3665  0.3401 -0.3560
  390MOL0     N52532   5.003   2.993   5.825 -0.3009  0.4536 -0.2172
  390MOL0     C52533   5.044   3.121   5.855 -0.1279 -0.6115 -0.0100
  390MOL0     C52534   5.063   3.120   5.988  0.7172  0.1771 -0.6819
  390MOL0     C52535   5.106   3.247   6.065 -0.3380  0.4964  0.0119
  390MOL0     C52536   5.234   3.237   6.154  0.1046  0.5186  0.6834
  390MOL0     C52537   5.361   3.186   6.086 -0.6567  0.2697  0.2182
  390MOL0     C52538   5.488   3.194   6.169  0.1023 -0.5229 -0.0833
  390MOL0     O52539   5.592   3.222   6.078 -0.4274 -0.2950 -0.4456
  390MOL0     C52540   5.712   3.273   6.129  0.0570  0.1721  0.6523
  390MOL0     C52541   5.800   3.327   6.047  0.5380  0.6096  0.2690
  390MOL0     C52542   5.922   3.369   6.089 -1.0728 -0.3664  0.0292
  390MOL0     C52543   5.964   3.353   6.227 -0.0816  0.6961  0.6623
  390MOL0     C52544   6.097   3.394   6.280  0.5393 -0.2343 -0.2987
  390MOL0     O52545   6.085   3.427   6.410 -0.4239 -0.4899  0.1172
  390MOL0     C52546   6.197   3.479   6.474  0.4767 -0.1089 -1.1023
  390MOL0     C52547   6.331   3.435   6.465 -0.9739 -0.3579 -1.1194
  390MOL0     C52548   6.436   3.503   6.527 -0.1642 -0.6797 -0.3963
  390MOL0     C52549   6.407   3.620   6.600  0.8426  0.6532  0.0568
  390MOL0     O52550   6.496   3.708   6.668 -0.1221  0.1919 -0.5442
  390MOL0     C52551   6.634   3.686   6.646 -0.4609 -0.4129  0.3186
  390MOL0     C52552   6.721   3.794   6.724 -0.0119  0.1041  0.4187
  390MOL0     C52553   6.869   3.737   6.730 -0.2104  0.9118 -0.3282
  390MOL0     C52554   6.963   3.827   6.804  0.5356 -0.2487 -0.7105
  390MOL0     C52555   7.107   3.790   6.783 -0.5545  0.8753 -0.0062
  390MOL0     C52556   7.198   3.867   6.863 -0.3288  0.6175 -1.7003
  390MOL0     C52557   7.328   3.792   6.860 -0.2375 -0.7172  0.6428
  390MOL0     C52558   7.430   3.850   6.952 -0.7430 -0.5505 -0.1340
  390MOL0    Cl52559   7.385   3.833   7.121 -0.2393 -0.5198 -0.0065
  390MOL0     C52560   6.269   3.645   6.633  0.0888  0.1435  0.0821
  390MOL0     C52561   6.164   3.573   6.579  0.1838 -0.7667 -0.1386
  390MOL0     O52562   6.198   3.397   6.206 -0.3610 -0.8213 -0.6431
  390MOL0     C52563   5.873   3.285   6.307  1.1745  0.8299 -0.8467
  390MOL0     C52564   5.750   3.239   6.260  0.6016  0.0706  0.0130
  390MOL0     N52565   5.036   2.990   6.044 -0.7620 -0.9944 -0.0733
  390MOL0     N52566   4.996   2.922   5.941  0.4250  0.1793  0.4529
  390MOL0     C52567   5.847   2.786   6.215  0.0523 -0.9304  0.8602
  390MOL0     C52568   5.974   2.820   6.253 -0.0598  0.7875 -0.6644
  390MOL0     C52569   6.404   2.919   6.218  0.3507 -0.1540  0.1592
  390MOL0     C52570   6.430   3.056   6.230  0.2420 -0.2844  0.0591
  390MOL0     C52571   6.558   3.107   6.238 -0.6318  0.3154 -0.2297
  390MOL0     C52572   6.670   3.024   6.242 -0.7308  0.3967  0.5795
  390MOL0     O52573   6.801   3.066   6.260  1.0343  0.1731  0.4663
  390MOL0     C52574   6.829   3.201   6.238 -0.0534  0.2673 -0.2449
  390MOL0     C52575   6.832   3.280   6.376  0.3693  0.0597 -0.4664
  390MOL0     C52576   6.837   3.424   6.347  0.5687  0.3689 -0.2136
  390MOL0     C52577   6.865   3.507   6.476  0.5012 -0.4493 -0.4813
  390MOL0     C52578   7.012   3.510   6.519 -0.3055  0.0936  0.5217
  390MOL0     C52579   7.132   3.498   6.542  0.3028  0.2840 -0.1265
  390MOL0     C52580   6.643   2.885   6.247  0.1824 -0.0318  0.1753
  390MOL0     C52581   6.516   2.831   6.236  0.2705 -0.2848 -0.0910
  390MOL0     C52582   6.507   2.682   6.246 -0.0786  0.4483 -0.3695
  390MOL0     H52583   6.004   3.115   6.080  0.6109 -0.2427 -0.4697
  390MOL0     H52584   5.782   3.045   6.015 -5.3289 -3.5901  2.1036
  390MOL0     H52585   5.630   2.634   6.115  1.2860  0.1897  0.9225
  390MOL0     H52586   5.531   2.727   6.223 -1.3377  0.0819 -1.1723
  390MOL0     H52587   5.425   2.823   6.002 -2.0122  0.0570  1.4191
  390MOL0     H52588   5.362   2.681   6.079 -0.3789  0.2999 -0.7536
  390MOL0     H52589   5.534   2.552   5.927 -0.7511 -0.3561  0.4182
  390MOL0     H52590   5.548   2.709   5.845  1.8640 -0.7491  2.0696
  390MOL0     H52591   5.358   2.555   5.745 -1.1027  1.6166 -1.7279
  390MOL0     H52592   5.266   2.592   5.887 -0.8618  1.8205  0.2606
  390MOL0     H52593   5.321   2.842   5.824  1.4196 -1.2757  1.5753
  390MOL0     H52594   5.390   2.773   5.682  0.6969 -1.0236  0.3290
  390MOL0     H52595   5.170   2.670   5.617 -1.8955 -0.1936 -0.2176
  390MOL0     H52596   5.100   2.709   5.774 -2.1495  2.1904 -1.1072
  390MOL0     H52597   5.120   2.871   5.527  1.9673  2.1812 -1.0183
  390MOL0     H52598   5.197   2.954   5.659 -1.4694  1.0690 -2.3646
  390MOL0     H52599   4.966   3.019   5.629 -0.6073  0.8186  0.3698
  390MOL0     H52600   4.912   2.861   5.702 -0.1451 -0.0294 -1.2355
  390MOL0     H52601   5.057   3.201   5.782  0.1546 -1.7077 -1.1831
  390MOL0     H52602   5.119   3.337   6.003  0.0545  0.6403  0.3013
  390MOL0     H52603   5.019   3.268   6.128 -1.8283  1.9396 -2.3404
  390MOL0     H52604   5.247   3.329   6.212  2.4643 -0.0883  1.2187
  390MOL0     H52605   5.230   3.160   6.233  0.9528  0.7432  0.9595
  390MOL0     H52606   5.370   3.247   5.996  1.7461  2.4934  1.8273
  390MOL0     H52607   5.332   3.082   6.067  0.6754 -0.3984  1.6349
  390MOL0     H52608   5.496   3.090   6.202 -1.5389 -0.7299 -0.2345
  390MOL0     H52609   5.490   3.246   6.266 -0.5526 -1.6346  0.5441
  390MOL0     H52610   5.781   3.348   5.943 -0.5753  0.8850  0.5127
  390MOL0     H52611   5.991   3.421   6.023  0.1803 -1.6014  0.3237
  390MOL0     H52612   6.351   3.343   6.412  0.7707 -0.1736 -0.8271
  390MOL0     H52613   6.536   3.464   6.518 -0.7453 -2.6195  1.0450
  390MOL0     H52614   6.667   3.584   6.666  0.3246 -0.9395 -3.0063
  390MOL0     H52615   6.640   3.697   6.537 -2.0630 -1.3653  0.1022
  390MOL0     H52616   6.724   3.897   6.688  3.7126 -0.6021 -1.7758
  390MOL0     H52617   6.692   3.802   6.830  0.8320  5.0991  0.5243
  390MOL0     H52618   6.888   3.635   6.764 -1.0254  1.0141  0.4941
  390MOL0     H52619   6.911   3.750   6.630 -1.2607  4.0491 -0.4617
  390MOL0     H52620   6.923   3.833   6.905 -5.0639  2.4145 -2.6563
  390MOL0     H52621   6.954   3.931   6.769  1.6564  0.4262  0.9069
  390MOL0     H52622   7.143   3.794   6.679  1.3983 -0.0516  0.5812
  390MOL0     H52623   7.111   3.686   6.817  0.1802  0.4654 -1.2502
  390MOL0     H52624   7.212   3.970   6.831  1.7552  1.7392  2.1331
  390MOL0     H52625   7.162   3.874   6.966  2.2923 -0.3991 -0.6401
  390MOL0     H52626   7.375   3.795   6.761  1.1342  2.0332  1.2699
  390MOL0     H52627   7.313   3.687   6.888  0.7845 -0.3549  2.7898
  390MOL0     H52628   7.523   3.794   6.939 -1.0974 -0.8282 -1.7265
  390MOL0     H52629   7.449   3.956   6.932 -2.3691  0.0898  1.4782
  390MOL0     H52630   6.238   3.728   6.696 -2.5691  0.0334 -0.9392
  390MOL0     H52631   6.059   3.582   6.604 -0.1105  0.0400 -1.5408
  390MOL0     H52632   5.892   3.245   6.406 -4.3554 -2.6478 -0.7281
  390MOL0     H52633   5.678   3.175   6.311  1.0892 -0.9470 -0.5398
  390MOL0     H52634   5.804   2.692   6.246 -1.9587  1.1102  5.2309
  390MOL0     H52635   6.033   2.756   6.318 -2.2039  1.2033  1.8565
  390MOL0     H52636   6.343   3.119   6.213  0.0425 -0.9091 -1.4335
  390MOL0     H52637   6.572   3.213   6.221 -1.6769  0.4116 -0.5465
  390MOL0     H52638   6.752   3.250   6.179 -2.0985 -1.2464  0.9976
  390MOL0     H52639   6.917   3.228   6.180 -1.2756 -0.3455 -2.4776
  390MOL0     H52640   6.924   3.246   6.424  0.6087 -0.0026 -0.9664
  390MOL0     H52641   6.744   3.257   6.437  0.2886 -0.4087 -0.7574
  390MOL0     H52642   6.747   3.460   6.298  1.8773  3.3831 -0.6506
  390MOL0     H52643   6.921   3.448   6.281  1.8525  2.3744  1.9566
  390MOL0     H52644   6.842   3.610   6.447 -3.4726 -1.2491 -0.6681
  390MOL0     H52645   6.800   3.471   6.556  2.6156 -2.5186  0.4199
  390MOL0     H52646   7.235   3.484   6.566 -0.0774 -0.3598  1.2412
  390MOL0     H52647   6.735   2.827   6.253  0.7532  0.8172 -0.1320
  390MOL0     H52648   6.603   2.637   6.272 -0.1307  1.0597  0.9815
  390MOL0     H52649   6.430   2.659   6.321 -1.2509  2.3285 -0.9230
  390MOL0     H52650   6.462   2.640   6.156  0.1254 -2.5156  0.7885
  391MOL0     O52651   7.349   6.089   2.904 -0.6089 -0.0635  0.7612
  391MOL0     C52652   7.260   6.106   2.988  0.1301  0.2077  1.1807
  391MOL0     O52653   7.270   6.119   3.121  0.4668  0.3726  0.1984
  391MOL0     C52654   7.392   6.097   3.171 -0.8697  0.0013 -0.6164
  391MOL0     C52655   7.465   6.200   3.220  0.6455  0.0835 -0.0200
  391MOL0     C52656   7.586   6.173   3.280  0.0632 -0.4268  0.2111
  391MOL0     C52657   7.631   6.043   3.292 -0.1055 -0.8290 -0.2471
  391MOL0     O52658   7.740   6.011   3.366  0.1788 -0.3173  0.1635
  391MOL0     C52659   7.863   6.072   3.324 -0.0707  1.2956  0.8474
  391MOL0     C52660   7.983   6.024   3.421  0.6097 -0.0496  0.4744
  391MOL0     C52661   7.970   6.115   3.544  0.8019 -1.1991 -0.0999
  391MOL0     C52662   7.867   6.078   3.650  0.4134  0.5502  0.0379
  391MOL0     C52663   7.849   6.200   3.745  0.2663 -0.2981  0.3572
  391MOL0     C52664   7.951   6.207   3.855 -0.1218  0.0233  1.1506
  391MOL0     C52665   7.911   6.308   3.954  0.2857 -0.1838 -0.2490
  391MOL0     C52666   8.012   6.292   4.067 -0.1521 -0.6848  0.4763
  391MOL0     N52667   8.010   6.405   4.162  0.2128 -0.5126 -0.0945
  391MOL0     C52668   8.098   6.501   4.181  0.7740 -0.9682 -0.2569
  391MOL0     C52669   8.037   6.592   4.265 -0.0379 -0.3836  0.3498
  391MOL0     C52670   8.086   6.724   4.318  0.2391  0.3338 -0.0324
  391MOL0     C52671   8.229   6.718   4.372 -0.2942  0.3354  0.9441
  391MOL0     C52672   8.252   6.643   4.502 -0.3270 -1.0104 -0.8017
  391MOL0     C52673   8.395   6.658   4.562  0.4374  0.0938  0.7476
  391MOL0     O52674   8.479   6.761   4.510  0.0328 -0.3615  0.3131
  391MOL0     C52675   8.611   6.771   4.546 -0.4152  0.5843  0.3826
  391MOL0     C52676   8.701   6.819   4.457 -0.8464 -0.2734  0.3130
  391MOL0     C52677   8.838   6.843   4.500  0.0854  0.1283  0.0561
  391MOL0     C52678   8.888   6.791   4.622  1.0137  0.2678  0.8274
  391MOL0     C52679   9.041   6.794   4.639 -0.3424 -0.2555 -0.4743
  391MOL0     O52680   9.088   6.717   4.746 -0.3399 -0.0919  0.1032
  391MOL0     C52681   9.223   6.721   4.776 -0.7275  0.6753 -0.3173
  391MOL0     C52682   9.325   6.705   4.678 -0.2153 -1.6256  0.2020
  391MOL0     C52683   9.458   6.709   4.725  0.3913  0.0904  0.1293
  391MOL0     C52684   9.498   6.703   4.856 -0.1365  0.8702  0.3797
  391MOL0     O52685   9.631   6.673   4.881  0.5547 -0.1315 -0.5142
  391MOL0     C52686   9.652   6.624   5.016 -0.0842 -0.3327  0.0186
  391MOL0     C52687   9.803   6.611   5.045  0.8708 -0.3060  0.5128
  391MOL0     C52688   9.815   6.540   5.179  0.0586 -0.1345  0.8105
  391MOL0     C52689   9.959   6.554   5.221  0.0410  0.2401 -1.0203
  391MOL0     C52690   9.976   6.458   5.338 -0.2000  0.1401  0.2848
  391MOL0     C52691  10.091   6.517   5.421  0.3455 -0.4426  0.7011
  391MOL0     C52692  10.142   6.427   5.540  0.1525 -0.4502 -0.0629
  391MOL0     C52693  10.165   6.284   5.487  0.2747  0.1041  0.7642
  391MOL0    Cl52694  10.253   6.190   5.620  0.1815  0.3359  0.1450
  391MOL0     C52695   9.395   6.684   4.952 -0.2817 -0.0275 -0.0775
  391MOL0     C52696   9.258   6.691   4.910 -0.2646  0.8111 -0.2316
  391MOL0     O52697   9.106   6.856   4.557  0.3827 -0.8505 -0.4742
  391MOL0     C52698   8.793   6.725   4.702  0.6525 -0.3018  0.0859
  391MOL0     C52699   8.663   6.724   4.668  0.3198  0.5933 -0.2815
  391MOL0     N52700   7.911   6.542   4.299 -0.1165  0.2715  0.7609
  391MOL0     N52701   7.899   6.425   4.244 -0.5426  0.0554  0.4586
  391MOL0     C52702   7.565   5.935   3.241 -0.8556  0.4657 -0.8755
  391MOL0     C52703   7.440   5.967   3.178 -0.3194  0.6651  1.2411
  391MOL0     C52704   7.120   6.121   2.937  0.3936 -0.1643 -0.4342
  391MOL0     C52705   7.020   6.142   3.037 -0.6663  0.8629  0.0972
  391MOL0     C52706   6.887   6.156   3.002  0.0523  0.0035  0.2661
  391MOL0     C52707   6.844   6.142   2.869  0.8658 -0.3108  0.5122
  391MOL0     O52708   6.717   6.155   2.820  0.2623  0.3893  0.2033
  391MOL0     C52709   6.614   6.124   2.910  0.2818 -1.4235  0.0859
  391MOL0     C52710   6.608   5.976   2.952  0.7458  0.3850 -0.2331
  391MOL0     C52711   6.568   5.877   2.845  0.8575  0.0292 -0.5475
  391MOL0     C52712   6.420   5.829   2.866 -0.4648 -0.1448 -0.2297
  391MOL0     C52713   6.344   5.837   2.740 -0.0857  0.3103  0.6126
  391MOL0     C52714   6.279   5.833   2.638 -0.4091  0.5958  0.1054
  391MOL0     C52715   6.943   6.127   2.775  0.1170 -0.2376 -0.1717
  391MOL0     C52716   7.081   6.121   2.798  0.8797 -0.3576 -1.0879
  391MOL0     C52717   7.175   6.118   2.678  0.7157  0.3674  0.4331
  391MOL0     H52718   7.420   6.298   3.212 -2.1308 -1.2406 -3.3649
  391MOL0     H52719   7.648   6.251   3.323 -2.2452  0.8760  1.4100
  391MOL0     H52720   7.886   6.029   3.227 -0.5323 -0.1103  1.3299
  391MOL0     H52721   7.855   6.181   3.317 -1.4721  1.1166 -0.9689
  391MOL0     H52722   8.078   6.029   3.367  0.0008 -2.9931 -1.0551
  391MOL0     H52723   7.974   5.918   3.444 -0.8783 -0.3813 -1.3381
  391MOL0     H52724   7.959   6.217   3.507 -2.0061 -2.2842 -2.6488
  391MOL0     H52725   8.069   6.111   3.591  0.6088  1.2850  0.6476
  391MOL0     H52726   7.775   6.038   3.607  1.5061 -1.1693 -0.8040
  391MOL0     H52727   7.900   5.987   3.701 -2.3618 -1.3881 -1.3827
  391MOL0     H52728   7.841   6.285   3.677  1.0507 -1.8646 -1.7777
  391MOL0     H52729   7.751   6.205   3.794 -0.8258 -0.0854 -1.7573
  391MOL0     H52730   7.953   6.111   3.908  0.2523 -0.9338 -0.5090
  391MOL0     H52731   8.051   6.224   3.813 -0.3387 -0.1931  0.5175
  391MOL0     H52732   7.807   6.304   3.987 -0.6704  3.3229 -2.2769
  391MOL0     H52733   7.920   6.410   3.915 -3.0614  0.7809  1.2189
  391MOL0     H52734   7.980   6.203   4.121  0.7536  0.3194  2.7815
  391MOL0     H52735   8.118   6.285   4.038  0.2004  0.2632  1.4901
  391MOL0     H52736   8.197   6.509   4.138  0.3705 -2.6351 -1.5602
  391MOL0     H52737   8.068   6.805   4.247 -3.0125  2.8511  3.2698
  391MOL0     H52738   8.026   6.752   4.405  1.0098 -0.6769  0.8464
  391MOL0     H52739   8.304   6.680   4.302 -0.1327  1.6578  0.3755
  391MOL0     H52740   8.271   6.817   4.393  1.6390 -0.3784  0.7325
  391MOL0     H52741   8.217   6.541   4.484  0.1229 -1.1241 -1.0615
  391MOL0     H52742   8.186   6.682   4.580  0.3393 -1.4527  0.0156
  391MOL0     H52743   8.441   6.565   4.527  2.8309  0.7825  1.8795
  391MOL0     H52744   8.381   6.680   4.668  0.5153  3.5599  0.1759
  391MOL0     H52745   8.655   6.846   4.363 -0.0503  1.5821  0.4229
  391MOL0     H52746   8.902   6.914   4.448  1.5535  1.2412  3.1322
  391MOL0     H52747   9.303   6.707   4.572  2.1652  0.3144 -0.3692
  391MOL0     H52748   9.537   6.701   4.651 -0.9798 -0.8384 -1.2990
  391MOL0     H52749   9.612   6.693   5.091  2.0418  1.9374 -0.7885
  391MOL0     H52750   9.602   6.528   5.033 -0.9266  0.0234 -0.3821
  391MOL0     H52751   9.844   6.551   4.963  0.0523  0.5738 -0.5672
  391MOL0     H52752   9.854   6.706   5.060 -1.9354  0.9773  3.2214
  391MOL0     H52753   9.735   6.568   5.248  1.7687 -2.2156  3.9002
  391MOL0     H52754   9.797   6.434   5.158  2.6311 -0.1738 -1.9486
  391MOL0     H52755   9.985   6.658   5.243  1.3150  0.3201 -2.6636
  391MOL0     H52756  10.021   6.526   5.135 -1.1528 -1.6719 -1.3122
  391MOL0     H52757   9.992   6.356   5.302  2.3212  0.6932 -0.4003
  391MOL0     H52758   9.885   6.446   5.396  0.5666  1.2031  1.7692
  391MOL0     H52759  10.178   6.534   5.357 -0.2310 -2.2612 -0.6429
  391MOL0     H52760  10.059   6.616   5.456 -0.9649 -0.3186 -0.7349
  391MOL0     H52761  10.078   6.445   5.627  0.3591  0.9178 -0.1833
  391MOL0     H52762  10.240   6.470   5.562  0.2832 -0.0693 -1.3357
  391MOL0     H52763  10.083   6.218   5.458  1.3815 -2.1721  2.4241
  391MOL0     H52764  10.225   6.283   5.396 -1.3858  2.8186 -0.4816
  391MOL0     H52765   9.413   6.654   5.054  1.6245  0.6145 -0.1913
  391MOL0     H52766   9.181   6.661   4.981  0.6429  0.0675  0.4751
  391MOL0     H52767   8.827   6.663   4.784  4.6235 -3.4419 -3.4298
  391MOL0     H52768   8.586   6.682   4.732  0.3325 -0.6204 -1.0358
  391MOL0     H52769   7.610   5.838   3.258  1.4510  1.3656 -1.4748
  391MOL0     H52770   7.373   5.887   3.147  1.0326  0.1735 -0.5566
  391MOL0     H52771   7.042   6.131   3.143  0.1467 -1.3068 -0.2569
  391MOL0     H52772   6.816   6.176   3.082  1.0840  1.1410  0.9362
  391MOL0     H52773   6.516   6.154   2.870  1.8512  0.5419 -2.6532
  391MOL0     H52774   6.622   6.185   3.000 -0.0289 -1.2698  0.0115
  391MOL0     H52775   6.550   5.961   3.043 -1.2522 -0.6946 -1.6195
  391MOL0     H52776   6.712   5.947   2.969  0.7405 -1.2911 -2.6030
  391MOL0     H52777   6.631   5.792   2.870  1.7061  0.3134 -1.6136
  391MOL0     H52778   6.585   5.924   2.747  2.2558  1.7514  0.4580
  391MOL0     H52779   6.418   5.723   2.893 -1.1825 -0.3498 -1.0476
  391MOL0     H52780   6.376   5.885   2.949  1.2412 -2.3360  2.3220
  391MOL0     H52781   6.208   5.840   2.557  0.5121 -1.9325 -1.0192
  391MOL0     H52782   6.907   6.099   2.676  0.0734 -2.7743  0.4850
  391MOL0     H52783   7.234   6.026   2.666  1.1496  0.9310 -2.5618
  391MOL0     H52784   7.121   6.119   2.583  1.7942 -1.1501 -0.2404
  391MOL0     H52785   7.243   6.203   2.676  0.1123  0.8993 -2.7935
  392MOL0     O52786   6.485  10.346   1.053  0.1002 -0.0819  0.2515
  392MOL0     C52787   6.461  10.293   1.159  0.5039 -0.2106  0.1864
  392MOL0     O52788   6.558  10.224   1.229  0.0923 -0.1729  0.2061
  392MOL0     C52789   6.669  10.169   1.174  0.4994 -0.8938  0.9562
  392MOL0     C52790   6.702  10.154   1.034 -0.1790  0.5404 -0.5354
  392MOL0     C52791   6.827  10.096   1.006 -0.3944 -0.6932 -0.1698
  392MOL0     C52792   6.927  10.062   1.094  0.5150 -0.1346 -0.5143
  392MOL0     O52793   7.041  10.002   1.042 -0.1492  0.5571  0.5910
  392MOL0     C52794   7.156  10.019   1.122 -0.1897  0.2655 -0.8517
  392MOL0     C52795   7.259  10.101   1.042 -0.1961  0.5739 -0.3163
  392MOL0     C52796   7.321  10.027   0.922  0.5897  1.1786 -0.6501
  392MOL0     C52797   7.327  10.107   0.786  0.6274 -0.4430  0.4618
  392MOL0     C52798   7.338  10.015   0.664  0.0911  0.0247 -0.1338
  392MOL0     C52799   7.475   9.959   0.638  0.2585  0.0078  0.1025
  392MOL0     C52800   7.467   9.870   0.507 -0.1398 -0.0009  1.0288
  392MOL0     C52801   7.597   9.791   0.490  0.3299  0.3074 -0.3967
  392MOL0     N52802   7.594   9.701   0.375  0.5561  0.3656  0.0436
  392MOL0     C52803   7.485   9.634   0.318  0.2693 -0.4663 -0.1467
  392MOL0     C52804   7.536   9.592   0.199  0.5486  0.4738  0.7514
  392MOL0     C52805   7.449   9.530   0.086 -0.1707 -0.1832 -0.1401
  392MOL0     C52806   7.374   9.639  -0.004  0.8425  0.7911 -0.3001
  392MOL0     C52807   7.253   9.576  -0.081 -0.5657 -0.4073 -0.0552
  392MOL0     C52808   7.165   9.685  -0.154 -0.8233  0.7665  0.1320
  392MOL0     O52809   7.236   9.742  -0.267  0.4169 -0.1933 -0.2988
  392MOL0     C52810   7.227   9.873  -0.294  1.0258  0.4081  0.4804
  392MOL0     C52811   7.342   9.936  -0.333 -0.7388 -0.2743 -1.0332
  392MOL0     C52812   7.347  10.074  -0.360 -1.0003  0.3140  0.0174
  392MOL0     C52813   7.240  10.157  -0.339 -0.8311 -0.6129 -0.6725
  392MOL0     C52814   7.261  10.302  -0.334  0.6097  1.6569  0.5120
  392MOL0     O52815   7.388  10.332  -0.309 -0.8358 -0.1191  0.3117
  392MOL0     C52816   7.430  10.466  -0.293 -0.6984  0.2493 -0.2194
  392MOL0     C52817   7.358  10.588  -0.297  0.4875  0.7328 -0.4116
  392MOL0     C52818   7.425  10.706  -0.279 -0.1514  1.1537 -0.1755
  392MOL0     C52819   7.565  10.712  -0.261  0.5268  0.2674  0.8370
  392MOL0     O52820   7.618  10.838  -0.245  0.5659 -0.8383 -0.5562
  392MOL0     C52821   7.751  10.853  -0.213 -0.7284 -0.2400 -0.7735
  392MOL0     C52822   7.808  10.984  -0.265  0.0436 -0.1862  0.6111
  392MOL0     C52823   7.952  11.004  -0.231  0.0543 -0.4621  0.7683
  392MOL0     C52824   8.014  11.129  -0.294  0.5561 -0.3218  0.1046
  392MOL0     C52825   8.165  11.134  -0.257  0.2033 -0.0068 -0.5118
  392MOL0     C52826   8.224  11.271  -0.280  0.8017 -0.1878  0.4156
  392MOL0     C52827   8.230  11.307  -0.427  0.1645  1.5871  0.3268
  392MOL0     C52828   8.308  11.429  -0.452 -0.3263  0.6385 -1.4351
  392MOL0    Cl52829   8.288  11.449  -0.633 -0.4823 -0.2275 -0.4442
  392MOL0     C52830   7.637  10.591  -0.268  0.0875  0.1116  0.0792
  392MOL0     C52831   7.568  10.469  -0.294  0.1432 -0.0643 -0.5483
  392MOL0     O52832   7.162  10.376  -0.352 -0.0180 -0.1671  0.4456
  392MOL0     C52833   7.116  10.099  -0.310  0.3507  0.4947 -0.9291
  392MOL0     C52834   7.111   9.956  -0.293  0.6199 -0.3238 -0.0571
  392MOL0     N52835   7.668   9.626   0.189  0.6826  0.1073  1.4496
  392MOL0     N52836   7.696   9.696   0.296 -0.6450 -0.0760  0.7191
  392MOL0     C52837   6.888  10.066   1.232 -0.1921 -0.6406 -0.0058
  392MOL0     C52838   6.766  10.127   1.264 -0.4671  0.4815  0.1909
  392MOL0     C52839   6.320  10.302   1.219 -0.6217 -0.1701 -0.2668
  392MOL0     C52840   6.295  10.217   1.330  0.1819 -0.9317  1.2594
  392MOL0     C52841   6.172  10.201   1.374  0.3638  0.2622 -1.1597
  392MOL0     C52842   6.060  10.275   1.327 -0.1881  0.1120  0.0781
  392MOL0     O52843   5.938  10.250   1.385 -0.3227  0.8465  0.1482
  392MOL0     C52844   5.824  10.331   1.353 -0.4330  0.1547 -0.6361
  392MOL0     C52845   5.832  10.463   1.424  0.0123 -0.8012  0.4540
  392MOL0     C52846   5.734  10.569   1.374  0.7163  0.0324 -0.0903
  392MOL0     C52847   5.775  10.629   1.234  0.6725 -0.3153  0.0643
  392MOL0     C52848   5.907  10.681   1.251 -0.3722 -0.7210  0.6918
  392MOL0     C52849   6.013  10.742   1.261  0.4056 -0.2171  0.6738
  392MOL0     C52850   6.089  10.362   1.221  0.1736  0.4214 -0.8465
  392MOL0     C52851   6.216  10.377   1.161  0.7165 -0.7255  1.1355
  392MOL0     C52852   6.236  10.489   1.055  0.6210 -0.1382 -0.6990
  392MOL0     H52853   6.622  10.160   0.960 -2.1032 -0.2035  1.3690
  392MOL0     H52854   6.854  10.089   0.901  2.1235  0.1503  0.3631
  392MOL0     H52855   7.149  10.054   1.225  1.9798 -1.0037 -0.2206
  392MOL0     H52856   7.221   9.931   1.126  2.6935  2.2681 -1.1400
  392MOL0     H52857   7.342  10.124   1.109  0.0269  1.0869 -0.7673
  392MOL0     H52858   7.207  10.196   1.023 -0.2734  1.3878  3.2133
  392MOL0     H52859   7.249   9.951   0.892  0.3818  1.1013  0.0336
  392MOL0     H52860   7.414   9.982   0.958  0.3021  1.7520  0.8765
  392MOL0     H52861   7.231  10.157   0.771  0.4342 -0.5027  1.4264
  392MOL0     H52862   7.410  10.178   0.795 -0.4547  0.7808  1.1623
  392MOL0     H52863   7.268   9.932   0.672 -1.0463  1.0176  0.7504
  392MOL0     H52864   7.311  10.065   0.571  1.7647  2.1615  0.4552
  392MOL0     H52865   7.562  10.026   0.632 -0.2762  0.7046 -0.0316
  392MOL0     H52866   7.483   9.889   0.722 -2.9513 -0.7419 -0.0990
  392MOL0     H52867   7.473   9.933   0.418  4.5449  0.1215  1.2042
  392MOL0     H52868   7.373   9.814   0.507 -0.7496  0.9588 -0.5001
  392MOL0     H52869   7.682   9.859   0.479  0.4806  0.4046  1.1911
  392MOL0     H52870   7.620   9.734   0.581 -1.8950  0.3276  0.2378
  392MOL0     H52871   7.388   9.607   0.359  0.5490  1.5658  2.0989
  392MOL0     H52872   7.524   9.477   0.026  3.5569  2.7729  1.4566
  392MOL0     H52873   7.379   9.460   0.133 -0.9187 -0.7870 -2.0624
  392MOL0     H52874   7.339   9.715   0.067  4.5196  0.8362  1.7220
  392MOL0     H52875   7.446   9.694  -0.065  1.2945 -0.8884 -1.3445
  392MOL0     H52876   7.189   9.531  -0.004 -1.7362  0.7896 -0.2894
  392MOL0     H52877   7.290   9.502  -0.152 -0.2520 -1.0959  0.8064
  392MOL0     H52878   7.137   9.763  -0.083 -2.6765  0.7238 -0.5132
  392MOL0     H52879   7.085   9.629  -0.202  1.1901 -1.4545 -0.8601
  392MOL0     H52880   7.426   9.868  -0.347 -1.2217 -0.6451 -2.2707
  392MOL0     H52881   7.447  10.108  -0.386 -0.9330  1.2692  1.4088
  392MOL0     H52882   7.249  10.580  -0.293  0.6041 -2.0184 -0.5642
  392MOL0     H52883   7.356  10.790  -0.269 -0.6205  1.0367 -2.1974
  392MOL0     H52884   7.763  10.854  -0.105  0.2304  1.2575 -0.8646
  392MOL0     H52885   7.811  10.777  -0.265  0.4521  0.8128 -1.0115
  392MOL0     H52886   7.790  10.985  -0.372  1.2405  1.3148  0.3858
  392MOL0     H52887   7.748  11.065  -0.221  0.8709  0.4871  0.5342
  392MOL0     H52888   7.944  11.006  -0.121  0.3034  0.0259  0.7792
  392MOL0     H52889   8.007  10.915  -0.264  1.3725  0.5058  0.3046
  392MOL0     H52890   7.969  11.223  -0.262 -0.2621 -0.8977  0.6820
  392MOL0     H52891   8.006  11.123  -0.403  1.1057 -0.6607  0.0768
  392MOL0     H52892   8.218  11.063  -0.321  0.2233  2.8436 -3.9683
  392MOL0     H52893   8.177  11.112  -0.150 -0.8616  2.6534  0.2333
  392MOL0     H52894   8.168  11.350  -0.228 -3.0619 -1.6960 -1.0305
  392MOL0     H52895   8.323  11.272  -0.235  0.5332 -0.1811  1.0276
  392MOL0     H52896   8.122  11.303  -0.448  0.0104 -4.2392  0.7725
  392MOL0     H52897   8.277  11.223  -0.478 -3.1701 -0.2980  0.0399
  392MOL0     H52898   8.270  11.506  -0.385  0.2072 -1.0702  0.9476
  392MOL0     H52899   8.414  11.411  -0.430 -0.1565  4.0828  1.4714
  392MOL0     H52900   7.746  10.591  -0.269  0.1664 -1.5346 -2.8440
  392MOL0     H52901   7.628  10.380  -0.309  1.8056  0.8408  0.4005
  392MOL0     H52902   7.026  10.157  -0.292 -0.7262 -1.6030  1.1044
  392MOL0     H52903   7.007   9.925  -0.290  0.4961  0.1729  1.7716
  392MOL0     H52904   6.948  10.028   1.314 -0.7209  1.7900  1.5933
  392MOL0     H52905   6.737  10.130   1.369  0.5143  2.5758  0.4444
  392MOL0     H52906   6.376  10.161   1.377  2.0001  2.7785  3.0412
  392MOL0     H52907   6.164  10.142   1.464 -0.9116  1.3851 -0.5038
  392MOL0     H52908   5.732  10.276   1.373  0.9300 -2.7200 -1.6846
  392MOL0     H52909   5.832  10.352   1.246  1.5422  1.7677 -0.2305
  392MOL0     H52910   5.929  10.514   1.425 -2.1250  3.8154  0.6049
  392MOL0     H52911   5.797  10.450   1.527 -3.0904 -0.2045 -0.4326
  392MOL0     H52912   5.716  10.642   1.453 -1.4912 -1.4117  0.8557
  392MOL0     H52913   5.634  10.524   1.381 -0.5912  2.6423 -0.7444
  392MOL0     H52914   5.755  10.561   1.151  0.8374  2.5557 -2.5195
  392MOL0     H52915   5.709  10.712   1.208  0.2417 -1.0245 -1.1707
  392MOL0     H52916   6.103  10.800   1.253  1.6737 -2.1955 -0.3603
  392MOL0     H52917   6.012  10.428   1.182 -0.8046  0.0658  0.3936
  392MOL0     H52918   6.141  10.542   1.046 -0.1316 -0.7367  2.3464
  392MOL0     H52919   6.318  10.555   1.086 -0.6326  0.3917  1.7394
  392MOL0     H52920   6.253  10.436   0.961 -2.7466 -2.6837 -0.0966
  393MOL0     O52921   7.323   0.232   5.183  0.0634 -0.1118 -0.5645
  393MOL0     C52922   7.294   0.121   5.187  0.0217 -0.3572 -0.1436
  393MOL0     O52923   7.378   0.011   5.159  0.4308 -0.0928  0.3117
  393MOL0     C52924   7.506   0.052   5.123 -1.2312  0.8682  0.0805
  393MOL0     C52925   7.611   0.060   5.219 -0.3963 -0.2251  0.2259
  393MOL0     C52926   7.742   0.101   5.181 -0.1094 -0.8699 -0.1049
  393MOL0     C52927   7.772   0.121   5.047 -0.4720 -0.1004 -1.0582
  393MOL0     O52928   7.901   0.160   4.990  0.4600  0.6865  0.4096
  393MOL0     C52929   8.007   0.186   5.085 -0.5039 -0.0080 -0.5262
  393MOL0     C52930   8.125   0.242   5.003  0.1780 -0.3790 -0.6521
  393MOL0     C52931   8.167   0.165   4.874 -0.8566  0.2342  0.5673
  393MOL0     C52932   8.240   0.036   4.911  0.3731  0.5092 -0.2209
  393MOL0     C52933   8.354  -0.001   4.820  0.4390  0.1089  0.2540
  393MOL0     C52934   8.431  -0.115   4.889 -0.4306  0.0170 -0.4554
  393MOL0     C52935   8.347  -0.241   4.871  0.0789 -0.1928 -0.3440
  393MOL0     C52936   8.423  -0.364   4.929 -0.6928 -0.9233 -0.2167
  393MOL0     N52937   8.530  -0.415   4.839  0.1125  0.2457 -0.0211
  393MOL0     C52938   8.507  -0.459   4.705 -0.0133  0.4466 -0.8616
  393MOL0     C52939   8.624  -0.516   4.660 -0.0206 -1.3071 -0.3886
  393MOL0     C52940   8.638  -0.567   4.518 -0.4666 -0.7218 -0.6221
  393MOL0     C52941   8.778  -0.549   4.471  0.5501  0.9329  0.5747
  393MOL0     C52942   8.779  -0.531   4.312  0.3466 -0.2803 -0.1184
  393MOL0     C52943   8.915  -0.527   4.257  1.0224  0.2734  0.0352
  393MOL0     O52944   8.987  -0.649   4.288  0.3997 -0.3802 -0.8953
  393MOL0     C52945   9.118  -0.635   4.298  0.6245 -0.7604 -0.2855
  393MOL0     C52946   9.178  -0.627   4.424  0.5306  0.1970 -0.7827
  393MOL0     C52947   9.320  -0.595   4.429  0.9635 -0.4529  0.3636
  393MOL0     C52948   9.395  -0.552   4.318 -0.1979  0.1655  1.1029
  393MOL0     C52949   9.517  -0.476   4.344 -0.2734  0.9870  0.1484
  393MOL0     O52950   9.557  -0.458   4.475  0.1032 -0.1083 -0.1810
  393MOL0     C52951   9.673  -0.392   4.486 -0.4970  0.1736 -0.0494
  393MOL0     C52952   9.784  -0.466   4.528  0.7488  0.0835 -0.3728
  393MOL0     C52953   9.907  -0.405   4.550 -0.3816  0.1230  0.4156
  393MOL0     C52954   9.918  -0.265   4.548 -0.5979  0.2686 -0.2266
  393MOL0     O52955  10.045  -0.218   4.564 -0.2627 -0.0705  0.2300
  393MOL0     C52956  10.059  -0.092   4.633 -0.0866 -0.5232  0.0587
  393MOL0     C52957  10.219  -0.072   4.661 -0.3999 -0.7899 -0.1707
  393MOL0     C52958  10.269  -0.135   4.794 -0.1148 -0.5873 -0.6643
  393MOL0     C52959  10.421  -0.120   4.818  0.8915  0.3223 -0.0307
  393MOL0     C52960  10.481   0.018   4.784  0.5397  0.5613 -0.5139
  393MOL0     C52961  10.638   0.026   4.781 -0.6082  0.4059 -0.5118
  393MOL0     C52962  10.687  -0.004   4.928  0.6002  0.8197  0.1142
  393MOL0     C52963  10.841  -0.004   4.939  0.5106  0.3265  0.3122
  393MOL0    Cl52964  10.905   0.155   4.948 -0.1591  0.0079  0.2759
  393MOL0     C52965   9.806  -0.190   4.516  0.3020  0.0621  0.0356
  393MOL0     C52966   9.677  -0.250   4.479  0.2084  0.3347 -0.4227
  393MOL0     O52967   9.570  -0.426   4.245  0.6753  0.1272  0.8749
  393MOL0     C52968   9.327  -0.555   4.199 -0.2371  0.0233  0.4530
  393MOL0     C52969   9.192  -0.590   4.189  0.0940 -0.4789  0.6992
  393MOL0     N52970   8.716  -0.490   4.759 -0.3625 -0.2392  0.6180
  393MOL0     N52971   8.653  -0.455   4.867 -0.3163  0.1958  0.3328
  393MOL0     C52972   7.671   0.117   4.953  0.7042 -0.5333  0.2463
  393MOL0     C52973   7.538   0.073   4.986 -0.6704 -0.2069  0.5231
  393MOL0     C52974   7.146   0.090   5.223  0.2483 -0.2359 -0.7084
  393MOL0     C52975   7.095  -0.030   5.158  0.4847  0.4035  0.3955
  393MOL0     C52976   6.958  -0.056   5.166 -0.7073 -0.3942 -0.6461
  393MOL0     C52977   6.876   0.028   5.237  0.1344  0.0567 -0.5413
  393MOL0     O52978   6.744  -0.003   5.239  0.1304 -0.5524  0.3655
  393MOL0     C52979   6.672  -0.059   5.126  0.1616 -0.5361 -0.3112
  393MOL0     C52980   6.683   0.041   5.007  0.1375 -0.8088 -0.2016
  393MOL0     C52981   6.599   0.163   5.044  0.7400  1.0353 -0.1278
  393MOL0     C52982   6.628   0.272   4.944 -0.2299 -0.1165 -0.0935
  393MOL0     C52983   6.514   0.368   4.935 -0.4101 -0.3953 -0.1054
  393MOL0     C52984   6.433   0.456   4.951  0.3115  0.4526 -0.4714
  393MOL0     C52985   6.924   0.141   5.299  0.3658  0.4600 -0.0960
  393MOL0     C52986   7.057   0.178   5.291 -0.9276  0.0362 -0.7392
  393MOL0     C52987   7.108   0.297   5.365 -0.3095 -1.2369  0.7471
  393MOL0     H52988   7.575   0.048   5.321 -0.1047  1.8579  0.6172
  393MOL0     H52989   7.821   0.096   5.254  0.0497  1.0991 -0.0791
  393MOL0     H52990   7.973   0.261   5.156 -0.5883 -0.1185 -0.4494
  393MOL0     H52991   8.029   0.095   5.142 -0.3225  0.0781 -0.4570
  393MOL0     H52992   8.209   0.252   5.072 -0.2599 -2.3882  0.2485
  393MOL0     H52993   8.093   0.341   4.969 -1.6876 -0.5312  0.5068
  393MOL0     H52994   8.242   0.217   4.814  2.3716 -3.3940  1.0974
  393MOL0     H52995   8.080   0.146   4.811 -1.1172 -1.4333  1.3809
  393MOL0     H52996   8.277   0.039   5.014  0.3948 -0.9784 -0.1560
  393MOL0     H52997   8.155  -0.033   4.911 -1.1660  2.2393  1.7344
  393MOL0     H52998   8.314  -0.034   4.724  1.3523 -0.2862 -0.0071
  393MOL0     H52999   8.405   0.096   4.815  0.1827  0.2695  0.6996
  393MOL0     H53000   8.528  -0.134   4.842 -0.4986  1.3100 -1.1636
  393MOL0     H53001   8.457  -0.085   4.991  1.4087 -1.6638 -0.3549
  393MOL0     H53002   8.313  -0.256   4.768 -1.6611 -0.0690  0.1800
  393MOL0     H53003   8.255  -0.235   4.930 -1.6326  2.7159 -3.0262
  393MOL0     H53004   8.463  -0.330   5.025 -0.0704  0.6432 -0.9989
  393MOL0     H53005   8.344  -0.434   4.956  2.0370 -3.4810  1.8514
  393MOL0     H53006   8.424  -0.446   4.636  0.9541  0.6914 -2.0211
  393MOL0     H53007   8.597  -0.669   4.522 -1.6867 -0.2452 -0.5508
  393MOL0     H53008   8.574  -0.514   4.447 -2.9674 -1.7162  0.7539
  393MOL0     H53009   8.836  -0.468   4.516 -1.2982  1.3540  2.3715
  393MOL0     H53010   8.824  -0.644   4.501 -1.0658  0.5009  1.8913
  393MOL0     H53011   8.722  -0.441   4.285 -0.3121 -1.1589 -1.8169
  393MOL0     H53012   8.716  -0.612   4.272 -1.1686  1.3975 -1.3421
  393MOL0     H53013   8.966  -0.442   4.302  2.7602 -1.0546  0.6913
  393MOL0     H53014   8.912  -0.518   4.148 -0.3976 -1.8066 -0.1536
  393MOL0     H53015   9.134  -0.658   4.518  1.4354  1.4831  0.0858
  393MOL0     H53016   9.358  -0.604   4.530 -0.2820 -0.0667  0.8764
  393MOL0     H53017   9.756  -0.571   4.527 -3.1090  0.8603  2.1083
  393MOL0     H53018   9.991  -0.469   4.573 -0.5144  0.0105  0.5884
  393MOL0     H53019  10.028  -0.010   4.567  1.4645  1.3201  1.4910
  393MOL0     H53020  10.013  -0.101   4.732  0.4126 -0.4989  0.2941
  393MOL0     H53021  10.278  -0.099   4.573  0.1790 -1.1975  0.3326
  393MOL0     H53022  10.230   0.035   4.683  3.2873 -1.1835  0.4598
  393MOL0     H53023  10.225  -0.084   4.881  2.0112  1.1654 -0.5448
  393MOL0     H53024  10.239  -0.240   4.803 -1.9138 -0.0680 -0.1141
  393MOL0     H53025  10.471  -0.199   4.762  0.3726  0.5779 -0.8614
  393MOL0     H53026  10.436  -0.126   4.927  1.5488 -0.0330 -0.1352
  393MOL0     H53027  10.435   0.100   4.841  0.2603  1.9771 -2.6327
  393MOL0     H53028  10.436   0.040   4.687 -0.5304  1.3125  0.1270
  393MOL0     H53029  10.667  -0.045   4.704 -1.8077  0.5029 -1.0758
  393MOL0     H53030  10.677   0.125   4.754  0.8002  0.2528  0.8169
  393MOL0     H53031  10.663  -0.108   4.950  0.7734  0.9345  0.8652
  393MOL0     H53032  10.643   0.063   5.003 -1.9065 -0.6654  0.0738
  393MOL0     H53033  10.876  -0.056   5.029 -0.0206 -0.8549 -0.1486
  393MOL0     H53034  10.879  -0.068   4.859  2.3481 -0.8370  2.0307
  393MOL0     H53035   9.823  -0.084   4.502 -3.3798  1.4444  3.8191
  393MOL0     H53036   9.589  -0.188   4.468  1.3788  1.8108 -2.2017
  393MOL0     H53037   9.377  -0.501   4.119  0.4877  1.1802  1.6359
  393MOL0     H53038   9.142  -0.577   4.094  0.1177 -0.6270  0.6654
  393MOL0     H53039   7.692   0.123   4.847  0.4298 -1.8341  0.0978
  393MOL0     H53040   7.453   0.063   4.918  0.3350  2.0849 -1.1846
  393MOL0     H53041   7.171  -0.095   5.116 -1.5381 -1.7031 -0.1931
  393MOL0     H53042   6.924  -0.151   5.126 -1.0868 -1.9693  2.9733
  393MOL0     H53043   6.567  -0.070   5.153  0.2611  1.9137  1.3347
  393MOL0     H53044   6.720  -0.157   5.113 -0.5380 -0.5721 -3.5640
  393MOL0     H53045   6.653  -0.010   4.915 -0.1393 -2.6064  0.8355
  393MOL0     H53046   6.791   0.059   4.997  0.3261  0.2968  2.8820
  393MOL0     H53047   6.632   0.198   5.142  2.8873  0.0782 -0.4604
  393MOL0     H53048   6.495   0.131   5.053  0.9145 -0.4220 -2.5192
  393MOL0     H53049   6.718   0.327   4.972 -1.2924  1.0458  1.2078
  393MOL0     H53050   6.636   0.221   4.848  1.2545 -0.6927  0.3088
  393MOL0     H53051   6.355   0.524   4.981 -1.1628 -1.8401  1.1501
  393MOL0     H53052   6.849   0.202   5.347  0.9622  0.3548  0.9908
  393MOL0     H53053   7.148   0.379   5.306  1.9738 -0.5315  3.0812
  393MOL0     H53054   7.022   0.323   5.428 -1.5265 -3.1318 -0.0233
  393MOL0     H53055   7.192   0.279   5.433 -2.3869 -2.5307  3.1252
  394MOL0     O53056   2.877   0.332   8.911  0.7613 -0.3042  0.0491
  394MOL0     C53057   2.787   0.286   8.843  1.0777 -0.4509  0.5282
  394MOL0     O53058   2.806   0.219   8.724  0.2710  0.2084 -0.1626
  394MOL0     C53059   2.936   0.196   8.686  0.4937 -0.3810  0.4699
  394MOL0     C53060   2.992   0.283   8.582 -0.2427  0.6782  0.8729
  394MOL0     C53061   3.116   0.244   8.526 -0.1738 -0.4336  0.5620
  394MOL0     C53062   3.176   0.124   8.564 -0.0917 -0.5350  0.3107
  394MOL0     O53063   3.296   0.085   8.509  0.0670  0.8832 -0.0059
  394MOL0     C53064   3.393   0.188   8.503 -0.0314 -0.1110 -0.4003
  394MOL0     C53065   3.512   0.138   8.571  0.7980 -0.5462 -0.4553
  394MOL0     C53066   3.576   0.020   8.520 -0.1410 -0.2984 -0.1914
  394MOL0     C53067   3.688  -0.012   8.623 -0.3755  0.0720  0.6087
  394MOL0     C53068   3.649  -0.134   8.712 -0.0507  0.0305  0.6195
  394MOL0     C53069   3.740  -0.150   8.827  0.1409 -1.4671 -0.7358
  394MOL0     C53070   3.713  -0.066   8.963 -0.5391 -0.2883  0.6536
  394MOL0     C53071   3.833  -0.055   9.064  0.0854 -0.5372  0.8047
  394MOL0     N53072   3.971  -0.035   9.005  0.7684 -0.1390  0.1102
  394MOL0     C53073   4.018   0.067   8.925  0.6425  0.3380  0.4398
  394MOL0     C53074   4.149   0.041   8.914  0.3111 -0.2266  1.4341
  394MOL0     C53075   4.234   0.148   8.849 -0.3472 -0.3587 -0.4347
  394MOL0     C53076   4.267   0.273   8.938 -0.5617 -0.2132  0.2437
  394MOL0     C53077   4.401   0.326   8.899 -0.2114 -0.3601  0.2271
  394MOL0     C53078   4.434   0.439   8.990 -0.5978 -0.4217  0.4501
  394MOL0     O53079   4.574   0.462   8.950  0.0087  0.7608 -0.0809
  394MOL0     C53080   4.641   0.574   8.990  0.6505  1.0528  0.4891
  394MOL0     C53081   4.784   0.576   8.997  0.2886  0.0916  0.4292
  394MOL0     C53082   4.843   0.693   9.047 -0.1805 -0.5042  0.5899
  394MOL0     C53083   4.774   0.810   9.060 -0.2084 -0.3285  0.3517
  394MOL0     C53084   4.846   0.938   9.101 -0.6649 -0.0465  0.4626
  394MOL0     O53085   4.974   0.928   9.151  0.3436 -0.5146 -0.5407
  394MOL0     C53086   5.058   1.039   9.182 -0.3186  0.0590 -0.4124
  394MOL0     C53087   5.020   1.172   9.221  0.8829 -1.5823 -0.5538
  394MOL0     C53088   5.113   1.281   9.232 -0.6357  0.2353  0.7244
  394MOL0     C53089   5.251   1.253   9.211  0.1217 -0.0846 -0.7519
  394MOL0     O53090   5.328   1.367   9.203  0.5286  0.6561 -0.0007
  394MOL0     C53091   5.470   1.355   9.188 -0.9169  0.6300 -0.1830
  394MOL0     C53092   5.517   1.500   9.191 -0.5025  0.4149 -0.2656
  394MOL0     C53093   5.518   1.571   9.054  0.0647 -0.5701  0.1864
  394MOL0     C53094   5.597   1.704   9.063  0.0300  0.1052  0.2313
  394MOL0     C53095   5.610   1.786   8.943  0.3493 -0.0756 -0.1847
  394MOL0     C53096   5.748   1.759   8.870  0.5998  0.4932  0.1890
  394MOL0     C53097   5.887   1.822   8.927 -0.2049  0.4365  0.2740
  394MOL0     C53098   5.897   1.970   8.919 -0.0335 -0.5118  0.7039
  394MOL0    Cl53099   5.898   2.010   8.742  0.2651  0.1095  0.3717
  394MOL0     C53100   5.292   1.121   9.186 -0.0508  0.0698  0.2934
  394MOL0     C53101   5.201   1.019   9.176  0.5043 -0.3753 -0.2344
  394MOL0     O53102   4.783   1.041   9.072  0.1567  0.1533  0.5698
  394MOL0     C53103   4.634   0.814   9.051  0.5154 -0.3869 -0.1178
  394MOL0     C53104   4.568   0.698   9.022 -0.0217 -0.2668  0.5783
  394MOL0     N53105   4.177  -0.085   8.962  0.0473 -0.1711  0.4244
  394MOL0     N53106   4.069  -0.132   9.010 -0.3976  0.8417 -0.0151
  394MOL0     C53107   3.125   0.041   8.657  0.7442 -1.2412 -0.9492
  394MOL0     C53108   3.003   0.076   8.717 -0.0525 -0.0641 -0.0724
  394MOL0     C53109   2.655   0.294   8.895 -0.0054 -0.6500  0.6095
  394MOL0     C53110   2.555   0.369   8.824 -0.0251 -0.1697 -0.6646
  394MOL0     C53111   2.421   0.374   8.861 -0.7390 -0.0687  0.7615
  394MOL0     C53112   2.381   0.285   8.964 -0.2429  0.1205 -0.4945
  394MOL0     O53113   2.249   0.246   8.986  0.3070  0.3407  0.1857
  394MOL0     C53114   2.187   0.322   9.093  0.9023 -0.8676  0.4644
  394MOL0     C53115   2.106   0.223   9.184 -0.9155 -0.2374 -0.1221
  394MOL0     C53116   1.970   0.186   9.136 -0.1237  0.0744  0.0358
  394MOL0     C53117   1.850   0.261   9.211  0.1809 -0.3543  0.1398
  394MOL0     C53118   1.861   0.410   9.198 -0.4282 -0.8348  0.3682
  394MOL0     C53119   1.892   0.530   9.173  0.2048 -0.2550  0.0400
  394MOL0     C53120   2.477   0.218   9.033 -0.8530 -0.9109  0.5024
  394MOL0     C53121   2.612   0.213   9.004  0.0344  0.3107 -0.6427
  394MOL0     C53122   2.693   0.122   9.094  0.1438 -0.0217 -0.1293
  394MOL0     H53123   2.939   0.372   8.547  0.1285  0.4112 -0.4233
  394MOL0     H53124   3.150   0.304   8.442 -5.5320  3.8829  0.8915
  394MOL0     H53125   3.417   0.211   8.399 -0.9638 -0.5189 -0.7169
  394MOL0     H53126   3.353   0.283   8.540 -0.7714 -0.2446 -0.8267
  394MOL0     H53127   3.484   0.124   8.675 -0.8126 -2.3521 -1.0835
  394MOL0     H53128   3.584   0.221   8.566  0.2002 -0.0812 -4.0871
  394MOL0     H53129   3.619   0.045   8.422 -1.2516 -0.5407 -0.7558
  394MOL0     H53130   3.510  -0.067   8.514 -0.6001 -0.0248  0.7523
  394MOL0     H53131   3.777  -0.030   8.561  2.3414 -0.4347  4.3038
  394MOL0     H53132   3.701   0.083   8.675 -2.2798  1.4904 -1.3406
  394MOL0     H53133   3.549  -0.119   8.754  0.4765 -0.1869  2.0091
  394MOL0     H53134   3.650  -0.225   8.651 -4.4854  0.2326 -0.0832
  394MOL0     H53135   3.745  -0.256   8.852 -1.0143 -1.3409  0.1094
  394MOL0     H53136   3.838  -0.116   8.792 -0.2449  1.3381  0.6440
  394MOL0     H53137   3.629  -0.108   9.020 -0.5040 -3.2547 -1.2663
  394MOL0     H53138   3.695   0.035   8.925  1.4297 -0.5489 -1.1521
  394MOL0     H53139   3.818   0.035   9.124 -0.5857  0.5452 -0.9191
  394MOL0     H53140   3.843  -0.147   9.122  1.8295 -0.7108  0.2837
  394MOL0     H53141   3.961   0.157   8.904  1.2078  1.0082  1.6447
  394MOL0     H53142   4.324   0.097   8.811 -0.9222 -1.4846 -0.3089
  394MOL0     H53143   4.192   0.179   8.753 -2.4173 -1.7466 -0.0236
  394MOL0     H53144   4.189   0.346   8.917  0.0369  0.2957 -0.2732
  394MOL0     H53145   4.279   0.247   9.043 -0.2068 -0.6580  0.0978
  394MOL0     H53146   4.401   0.367   8.798  0.5319 -3.0148 -0.9308
  394MOL0     H53147   4.478   0.248   8.896 -0.9133 -1.0482 -1.9305
  394MOL0     H53148   4.417   0.407   9.093 -1.2783 -0.0332  0.4663
  394MOL0     H53149   4.364   0.517   8.958 -0.5157 -1.0308 -1.3298
  394MOL0     H53150   4.845   0.487   8.992  1.0786  0.6714 -0.4449
  394MOL0     H53151   4.950   0.709   9.063 -0.1473  1.4000 -1.1315
  394MOL0     H53152   4.917   1.204   9.232  1.4862  0.1186  0.4898
  394MOL0     H53153   5.069   1.378   9.253 -0.3085  0.0073  2.5726
  394MOL0     H53154   5.512   1.307   9.277  1.5399  1.3564 -0.8936
  394MOL0     H53155   5.491   1.298   9.097 -2.9312 -1.3571  0.4799
  394MOL0     H53156   5.462   1.559   9.265 -0.5207 -0.3721  0.3525
  394MOL0     H53157   5.624   1.506   9.214 -0.9949  2.6662  1.8182
  394MOL0     H53158   5.568   1.501   8.986  1.0994 -0.0713  0.4161
  394MOL0     H53159   5.416   1.596   9.024  0.2682  0.9417  0.6801
  394MOL0     H53160   5.697   1.688   9.103  0.3704 -2.3076 -1.4070
  394MOL0     H53161   5.539   1.758   9.139 -0.8706 -3.7389  2.5422
  394MOL0     H53162   5.599   1.891   8.971 -1.8458 -0.6902  1.5280
  394MOL0     H53163   5.526   1.764   8.878 -0.4473 -0.0953  0.8253
  394MOL0     H53164   5.759   1.650   8.862  1.5954  0.7194 -3.2024
  394MOL0     H53165   5.733   1.791   8.766 -0.8764  0.3316  0.3212
  394MOL0     H53166   5.964   1.765   8.874 -1.0227  1.1210 -1.7545
  394MOL0     H53167   5.892   1.796   9.033  1.8959  1.6285  0.5138
  394MOL0     H53168   5.818   2.016   8.979  1.4060  1.5547  1.1358
  394MOL0     H53169   5.989   2.007   8.965  1.2004 -2.0094 -0.4490
  394MOL0     H53170   5.394   1.095   9.157 -0.1704  1.0111 -1.0424
  394MOL0     H53171   5.232   0.915   9.163 -0.9863 -1.0747  1.3928
  394MOL0     H53172   4.583   0.903   9.085 -0.6684  0.1257 -2.9645
  394MOL0     H53173   4.459   0.697   9.031 -0.3370 -2.6761 -2.1222
  394MOL0     H53174   3.175  -0.053   8.677  0.7704 -0.8283  1.2014
  394MOL0     H53175   2.953   0.007   8.785 -0.7596  1.5361  1.1064
  394MOL0     H53176   2.591   0.436   8.747  2.5134 -1.4840 -0.7235
  394MOL0     H53177   2.354   0.436   8.802  2.2565  2.1684 -0.5000
  394MOL0     H53178   2.121   0.396   9.047 -1.6956 -3.0297  0.4354
  394MOL0     H53179   2.252   0.386   9.153  0.4442 -0.1094  0.1739
  394MOL0     H53180   2.095   0.278   9.278  0.7515  0.3962 -0.2637
  394MOL0     H53181   2.161   0.131   9.207 -0.1238 -0.2778 -2.0605
  394MOL0     H53182   1.940   0.082   9.148 -1.0829  0.4276  0.8617
  394MOL0     H53183   1.974   0.197   9.028  1.8023 -1.2017 -0.0710
  394MOL0     H53184   1.755   0.224   9.170  1.5683 -2.5472 -1.3328
  394MOL0     H53185   1.853   0.227   9.315  3.2917 -3.2651 -0.7146
  394MOL0     H53186   1.930   0.629   9.154 -1.8425 -0.1068 -4.8009
  394MOL0     H53187   2.430   0.165   9.115 -1.5546 -0.2465  0.5346
  394MOL0     H53188   2.800   0.144   9.086  0.2988  0.6037  2.5818
  394MOL0     H53189   2.656   0.121   9.197  0.8557 -2.1598  0.1634
  394MOL0     H53190   2.658   0.022   9.065 -1.2045 -0.3001  2.1471
  395MOL0     O53191   3.344   1.649  10.916 -0.3861  0.2004 -0.5154
  395MOL0     C53192   3.266   1.575  10.977 -0.1491 -0.2760  0.3967
  395MOL0     O53193   3.286   1.444  11.000 -0.2158  0.3056  0.1185
  395MOL0     C53194   3.406   1.382  10.979  1.0623 -0.5206  0.0339
  395MOL0     C53195   3.396   1.244  10.960  0.7090  0.3849 -1.1178
  395MOL0     C53196   3.507   1.179  10.928  0.1933  0.1792 -0.2615
  395MOL0     C53197   3.632   1.245  10.919  0.9666 -0.3886 -0.1101
  395MOL0     O53198   3.721   1.163  10.874  0.3060  0.7500 -0.1908
  395MOL0     C53199   3.851   1.210  10.861 -0.1566 -1.5248 -0.1206
  395MOL0     C53200   3.945   1.099  10.825  0.4957  0.2977  0.3503
  395MOL0     C53201   4.093   1.138  10.851  0.2882 -0.4139 -0.4372
  395MOL0     C53202   4.186   1.021  10.827 -1.0013 -0.2153  0.1016
  395MOL0     C53203   4.324   1.077  10.803 -1.0415 -0.9435  0.3307
  395MOL0     C53204   4.417   0.965  10.764  0.1457  0.5235 -0.1616
  395MOL0     C53205   4.566   0.997  10.744 -0.4092  0.3645  0.0367
  395MOL0     C53206   4.647   0.879  10.697 -0.1386  0.9294  0.5926
  395MOL0     N53207   4.787   0.922  10.671 -0.2821  0.5668 -0.2821
  395MOL0     C53208   4.891   0.845  10.613 -0.3475  0.2441 -0.5633
  395MOL0     C53209   4.983   0.934  10.565  0.7521 -0.1889 -0.0790
  395MOL0     C53210   5.103   0.909  10.479  0.5221 -0.1714  0.2756
  395MOL0     C53211   5.189   0.803  10.553 -0.2099  0.0735 -0.7778
  395MOL0     C53212   5.307   0.773  10.465 -1.4760  1.4388 -0.2500
  395MOL0     C53213   5.412   0.698  10.543  0.1341  0.1891 -1.0845
  395MOL0     O53214   5.537   0.682  10.474 -0.3895 -0.8308 -0.3768
  395MOL0     C53215   5.653   0.641  10.534 -0.2854 -0.3997 -1.5754
  395MOL0     C53216   5.761   0.630  10.456 -0.2681 -0.4452 -0.6307
  395MOL0     C53217   5.888   0.584  10.504  0.7156  0.0807  0.1708
  395MOL0     C53218   5.887   0.536  10.638 -0.4323  0.7873  0.0130
  395MOL0     C53219   6.017   0.479  10.683  0.2530 -1.2819 -0.9254
  395MOL0     O53220   6.015   0.427  10.810  0.6690  0.2805 -0.6130
  395MOL0     C53221   6.131   0.372  10.862 -0.1904 -0.1317 -0.0328
  395MOL0     C53222   6.194   0.261  10.811  0.4836 -0.7523  0.6764
  395MOL0     C53223   6.318   0.221  10.858  0.2060 -0.0959 -1.2201
  395MOL0     C53224   6.378   0.281  10.965  0.0124 -0.7391 -0.2615
  395MOL0     O53225   6.496   0.243  11.023  0.2276  0.4274 -0.6664
  395MOL0     C53226   6.535   0.098  11.008 -0.3274  0.1841  0.3699
  395MOL0     C53227   6.637   0.067  11.116  0.3277  0.4004 -0.3135
  395MOL0     C53228   6.764   0.143  11.089  0.2880 -0.2576 -0.4394
  395MOL0     C53229   6.884   0.084  11.157  0.5344  0.0553 -0.5046
  395MOL0     C53230   7.003   0.163  11.112 -0.9922  0.3084 -0.0441
  395MOL0     C53231   7.129   0.102  11.177 -0.7969  0.5838 -0.4935
  395MOL0     C53232   7.242   0.171  11.105 -0.6098 -0.5793  0.0995
  395MOL0     C53233   7.382   0.117  11.152  0.6302 -0.6154  0.2308
  395MOL0    Cl53234   7.497   0.250  11.117 -0.0333  0.0704 -0.1729
  395MOL0     C53235   6.311   0.385  11.022 -1.2052  0.3853 -0.6841
  395MOL0     C53236   6.191   0.428  10.978  1.1796  0.1343  0.3000
  395MOL0     O53237   6.115   0.485  10.612  0.0927  0.2353 -0.6157
  395MOL0     C53238   5.772   0.542  10.723  0.5613  0.1239 -0.5065
  395MOL0     C53239   5.659   0.597  10.669  0.3590 -0.3561  0.3298
  395MOL0     N53240   4.940   1.063  10.604  0.8473 -0.3334  0.0538
  395MOL0     N53241   4.828   1.054  10.671 -0.0461  1.0960  0.4872
  395MOL0     C53242   3.653   1.379  10.950 -0.2795  0.1801 -0.3221
  395MOL0     C53243   3.534   1.452  10.979  0.4816  0.0809 -0.4616
  395MOL0     C53244   3.142   1.634  11.013  0.4949  0.9250 -0.1847
  395MOL0     C53245   3.023   1.563  10.973  0.2117  0.8142 -0.0739
  395MOL0     C53246   2.899   1.614  11.002  0.3843 -0.2765 -0.1712
  395MOL0     C53247   2.880   1.726  11.077  0.0476  0.7755 -0.1399
  395MOL0     O53248   2.757   1.769  11.099  0.6461  0.7010  0.1455
  395MOL0     C53249   2.707   1.717  11.227  0.0668 -0.7281 -0.2311
  395MOL0     C53250   2.650   1.828  11.306 -0.3432 -0.1455 -0.7783
  395MOL0     C53251   2.586   1.759  11.430  0.0602  0.6212  0.0368
  395MOL0     C53252   2.561   1.865  11.539  0.1790  0.2661 -0.3485
  395MOL0     C53253   2.531   1.805  11.671  0.7849 -0.4134 -0.6253
  395MOL0     C53254   2.493   1.763  11.780  0.1663  0.3877  0.0712
  395MOL0     C53255   2.992   1.799  11.113 -0.8552  0.5547 -0.3107
  395MOL0     C53256   3.123   1.756  11.074 -0.0993 -1.0978  0.1758
  395MOL0     C53257   3.228   1.845  11.126 -0.8777 -0.1426 -0.9689
  395MOL0     H53258   3.298   1.201  10.978  0.6172  0.7445 -0.7342
  395MOL0     H53259   3.502   1.077  10.890 -0.3032  1.4269 -4.0188
  395MOL0     H53260   3.869   1.285  10.784 -0.7170  0.4285  1.5466
  395MOL0     H53261   3.886   1.248  10.957  0.0089  1.7164 -1.3487
  395MOL0     H53262   3.926   1.069  10.722  4.0746  0.8697 -0.6073
  395MOL0     H53263   3.920   1.010  10.884  0.9733 -0.5209 -0.6627
  395MOL0     H53264   4.109   1.172  10.954  1.8223 -0.9118 -0.4818
  395MOL0     H53265   4.116   1.222  10.786  1.7465  0.0631  0.6569
  395MOL0     H53266   4.193   0.954  10.914  0.1236 -0.4255 -0.1314
  395MOL0     H53267   4.158   0.958  10.742  0.8314 -2.4779  1.0378
  395MOL0     H53268   4.330   1.142  10.715  1.5395 -0.3877  0.8320
  395MOL0     H53269   4.348   1.131  10.895 -2.2593 -2.9017  1.9045
  395MOL0     H53270   4.402   0.881  10.834 -1.6257 -0.9545 -2.1647
  395MOL0     H53271   4.376   0.914  10.676 -3.6526 -3.2025  3.2957
  395MOL0     H53272   4.602   1.028  10.842  0.4729  0.0095 -0.1618
  395MOL0     H53273   4.582   1.086  10.683  2.1682  1.5188  2.2075
  395MOL0     H53274   4.657   0.800  10.773  3.1203  1.6339  1.0456
  395MOL0     H53275   4.607   0.833  10.606  1.4907  0.3359  0.1305
  395MOL0     H53276   4.898   0.737  10.618  1.7080  0.3870  0.8989
  395MOL0     H53277   5.074   0.877  10.379  2.1981  0.2045 -0.3668
  395MOL0     H53278   5.148   1.009  10.473 -0.7723  0.3309 -1.7696
  395MOL0     H53279   5.214   0.836  10.654 -3.4559 -1.5823  0.7030
  395MOL0     H53280   5.125   0.714  10.556  0.2474 -0.2555 -0.5151
  395MOL0     H53281   5.344   0.867  10.421  0.7458  1.5020  1.5976
  395MOL0     H53282   5.281   0.699  10.388  1.3632  1.1551 -1.0213
  395MOL0     H53283   5.382   0.603  10.588 -0.6718  1.4965  1.3190
  395MOL0     H53284   5.425   0.756  10.636  1.0791 -0.2918 -0.9014
  395MOL0     H53285   5.739   0.671  10.358 -0.7807  0.7054 -0.0576
  395MOL0     H53286   5.970   0.580  10.433  0.6778  0.4780  0.1021
  395MOL0     H53287   6.162   0.217  10.717  0.0404  0.9468  0.0115
  395MOL0     H53288   6.362   0.139  10.802  0.6942 -0.8656  0.2507
  395MOL0     H53289   6.449   0.032  11.019 -0.9862  0.8139 -0.8206
  395MOL0     H53290   6.589   0.094  10.913  0.4597  0.3660  0.8034
  395MOL0     H53291   6.591   0.092  11.212 -0.0563  2.1178 -0.9204
  395MOL0     H53292   6.657  -0.041  11.120 -2.6315 -0.3294  4.8571
  395MOL0     H53293   6.768   0.139  10.979  0.3697 -1.9532 -0.3926
  395MOL0     H53294   6.743   0.248  11.111 -1.3108 -0.1727 -2.0260
  395MOL0     H53295   6.900  -0.019  11.125 -1.2395 -0.3269 -0.2452
  395MOL0     H53296   6.873   0.086  11.265 -0.3415  0.1832 -0.5856
  395MOL0     H53297   6.997   0.266  11.148  0.1385 -0.6210  3.0717
  395MOL0     H53298   7.011   0.160  11.003 -0.0227  1.5269 -0.0257
  395MOL0     H53299   7.134   0.113  11.286  1.2138 -0.9044 -0.3662
  395MOL0     H53300   7.130  -0.007  11.161 -0.2918  0.8960 -3.0720
  395MOL0     H53301   7.243   0.276  11.134  1.2468 -0.0636 -1.5750
  395MOL0     H53302   7.236   0.164  10.996  0.5372 -3.0692  0.1166
  395MOL0     H53303   7.384   0.082  11.256 -2.0794  0.2698  0.6844
  395MOL0     H53304   7.403   0.033  11.086 -0.7714 -0.0410 -1.0049
  395MOL0     H53305   6.361   0.418  11.112 -1.9476  0.8454 -0.4323
  395MOL0     H53306   6.142   0.509  11.030 -3.4768 -2.6472  0.8734
  395MOL0     H53307   5.773   0.485  10.815  0.3375 -1.9352 -1.7180
  395MOL0     H53308   5.574   0.605  10.736  0.8036  1.0760  0.7448
  395MOL0     H53309   3.750   1.428  10.952  0.3722 -1.0054  2.5091
  395MOL0     H53310   3.538   1.557  11.005 -1.2299 -0.1192  0.7459
  395MOL0     H53311   3.039   1.482  10.903  0.9667 -0.2651  1.2822
  395MOL0     H53312   2.807   1.572  10.961 -0.2695  1.2239 -0.3113
  395MOL0     H53313   2.775   1.659  11.289 -1.7861 -2.0974  0.6357
  395MOL0     H53314   2.637   1.640  11.191  0.3660 -1.4634  0.7293
  395MOL0     H53315   2.575   1.883  11.248  0.2357  1.5277  0.0168
  395MOL0     H53316   2.727   1.896  11.342 -0.5237 -0.8608  1.0750
  395MOL0     H53317   2.636   1.670  11.471 -0.2774 -0.6948 -2.2693
  395MOL0     H53318   2.490   1.716  11.401  0.0190  0.2345  0.7147
  395MOL0     H53319   2.646   1.932  11.554 -0.5891  1.6076 -1.5996
  395MOL0     H53320   2.478   1.931  11.509 -0.0071 -0.8903 -2.5899
  395MOL0     H53321   2.445   1.717  11.864  0.4167 -4.7410 -2.2010
  395MOL0     H53322   2.969   1.892  11.164 -0.8554  1.0362 -1.1588
  395MOL0     H53323   3.321   1.844  11.068  0.1381  0.6201  0.5999
  395MOL0     H53324   3.195   1.947  11.149  2.2315  0.1493  3.5864
  395MOL0     H53325   3.263   1.804  11.221 -1.2901 -0.4813 -0.9582
  396MOL0     O53326   7.192   7.645   6.106 -0.6648  0.6077 -0.2931
  396MOL0     C53327   7.080   7.602   6.140  0.1379  0.5826  0.4041
  396MOL0     O53328   7.019   7.498   6.085 -0.5105  0.6240  0.3218
  396MOL0     C53329   7.076   7.428   5.993  0.8182  1.2986  0.5258
  396MOL0     C53330   7.143   7.474   5.878 -0.0913  0.1018 -0.2072
  396MOL0     C53331   7.227   7.384   5.806 -0.6702 -0.2352 -0.5602
  396MOL0     C53332   7.253   7.255   5.839 -0.8119  0.7984  1.1074
  396MOL0     O53333   7.343   7.175   5.758 -0.7673 -1.2126 -0.0101
  396MOL0     C53334   7.398   7.066   5.830 -0.0631 -0.4798 -0.3242
  396MOL0     C53335   7.525   7.014   5.759  0.6323  0.3062  0.4072
  396MOL0     C53336   7.573   6.888   5.825  0.0981 -0.2394 -0.2472
  396MOL0     C53337   7.691   6.820   5.756  0.5712  0.0036 -0.4261
  396MOL0     C53338   7.726   6.697   5.827 -0.4331 -0.2621 -0.2288
  396MOL0     C53339   7.858   6.638   5.779 -0.0151 -0.1808  0.7766
  396MOL0     C53340   7.935   6.560   5.890  0.0491 -0.6251  0.2303
  396MOL0     C53341   8.067   6.506   5.844 -0.7401  0.0246 -0.4615
  396MOL0     N53342   8.144   6.467   5.958  0.1497  0.0720  0.0387
  396MOL0     C53343   8.143   6.336   6.010 -0.0372  0.4851 -0.2467
  396MOL0     C53344   8.210   6.338   6.129  0.2970  0.4516  0.2446
  396MOL0     C53345   8.230   6.227   6.209  0.3109 -0.1853  0.1692
  396MOL0     C53346   8.365   6.167   6.163 -0.7470 -0.0822 -1.1337
  396MOL0     C53347   8.417   6.053   6.250  0.2345  0.1839 -0.3176
  396MOL0     C53348   8.494   6.114   6.366  0.5738 -0.3585  0.0714
  396MOL0     O53349   8.550   6.011   6.457 -0.5122 -0.0255  0.3571
  396MOL0     C53350   8.669   5.964   6.437 -0.7203 -0.6638  0.0196
  396MOL0     C53351   8.696   5.861   6.524 -0.2969 -0.3473 -0.5234
  396MOL0     C53352   8.817   5.793   6.505 -1.0986  0.3540  0.2984
  396MOL0     C53353   8.921   5.832   6.422 -0.4184 -0.2869 -0.0362
  396MOL0     C53354   9.031   5.738   6.402  0.2116 -0.5570  0.3555
  396MOL0     O53355   9.111   5.749   6.288  0.0064 -0.5603  0.3129
  396MOL0     C53356   9.230   5.692   6.272  1.3283  0.6298 -0.3604
  396MOL0     C53357   9.332   5.719   6.369 -0.5658 -0.8470  0.9723
  396MOL0     C53358   9.461   5.658   6.344 -0.2663 -0.3033  0.8386
  396MOL0     C53359   9.485   5.581   6.233 -0.5221 -0.7191  0.3929
  396MOL0     O53360   9.610   5.545   6.203  0.3298  0.3391  0.1726
  396MOL0     C53361   9.647   5.419   6.252 -0.0057 -0.0833  0.0387
  396MOL0     C53362   9.618   5.310   6.143  0.1025 -0.5548  0.1437
  396MOL0     C53363   9.734   5.198   6.125  0.2834 -0.6980 -0.8856
  396MOL0     C53364   9.672   5.076   6.051 -0.0103  0.3115 -0.1762
  396MOL0     C53365   9.572   4.997   6.125  0.1208  0.4210  0.0123
  396MOL0     C53366   9.545   4.852   6.088 -0.4974  0.1921  1.4623
  396MOL0     C53367   9.450   4.773   6.184 -0.1988 -0.1750 -0.0028
  396MOL0     C53368   9.441   4.618   6.134 -0.4433  0.3735  0.2593
  396MOL0    Cl53369   9.600   4.533   6.154  0.2886  0.4035 -0.5519
  396MOL0     C53370   9.384   5.561   6.134 -0.6027  0.2681 -0.1773
  396MOL0     C53371   9.256   5.611   6.159  0.6269 -0.2940 -0.0636
  396MOL0     O53372   9.068   5.666   6.491  0.2991  0.4031 -0.2225
  396MOL0     C53373   8.898   5.942   6.342  0.1048  0.7551  0.5755
  396MOL0     C53374   8.771   6.005   6.340  0.6339  0.2186  0.5027
  396MOL0     N53375   8.245   6.473   6.151  0.3370 -0.5280 -0.4632
  396MOL0     N53376   8.216   6.541   6.048 -0.1923 -0.1312 -1.0594
  396MOL0     C53377   7.176   7.205   5.944  0.6136  0.3447  0.9867
  396MOL0     C53378   7.087   7.289   6.019  0.3558 -0.7284  0.3115
  396MOL0     C53379   7.001   7.677   6.245  0.9594  0.5741  0.2006
  396MOL0     C53380   6.880   7.611   6.299 -1.4874  0.5155 -0.3865
  396MOL0     C53381   6.795   7.668   6.390  0.5966 -0.2912 -0.0724
  396MOL0     C53382   6.822   7.801   6.440  0.0690  0.9015  0.6902
  396MOL0     O53383   6.735   7.866   6.516 -0.2230  0.4198  0.2874
  396MOL0     C53384   6.623   7.794   6.571 -0.3613 -0.4583  0.9850
  396MOL0     C53385   6.519   7.878   6.637 -0.0772 -0.5884 -0.1677
  396MOL0     C53386   6.433   7.970   6.551  0.2194  0.1932  0.5326
  396MOL0     C53387   6.314   8.025   6.645 -0.1543 -0.4959  0.8121
  396MOL0     C53388   6.196   7.933   6.637 -0.2790 -0.0820  0.6067
  396MOL0     C53389   6.101   7.854   6.618  0.0294  0.6035  0.0233
  396MOL0     C53390   6.936   7.873   6.388 -0.4098  0.3640 -0.2837
  396MOL0     C53391   7.030   7.802   6.302  0.6111 -1.2625  0.5569
  396MOL0     C53392   7.150   7.890   6.268  0.0062  0.0271 -0.3707
  396MOL0     H53393   7.133   7.579   5.850 -1.0242  0.1822  0.3834
  396MOL0     H53394   7.276   7.431   5.721  1.0303  2.2289  1.6133
  396MOL0     H53395   7.418   7.111   5.928  0.2473  0.6433 -0.8818
  396MOL0     H53396   7.332   6.979   5.834  0.8041 -1.0990  1.9044
  396MOL0     H53397   7.590   7.102   5.758 -1.1609  1.9276 -4.5294
  396MOL0     H53398   7.507   6.996   5.652  1.7140  2.2642 -0.1552
  396MOL0     H53399   7.489   6.818   5.828 -1.1668  1.2544  0.5786
  396MOL0     H53400   7.599   6.917   5.927 -1.0813  0.6318 -0.1744
  396MOL0     H53401   7.671   6.808   5.649 -3.3404 -1.0543  0.2810
  396MOL0     H53402   7.771   6.895   5.757 -0.4470  1.1907 -2.1383
  396MOL0     H53403   7.745   6.727   5.931  2.2938  0.4876 -0.8511
  396MOL0     H53404   7.650   6.619   5.826 -0.8258 -0.0638  3.1161
  396MOL0     H53405   7.832   6.569   5.698  0.0296  1.9388 -1.1491
  396MOL0     H53406   7.918   6.718   5.735  2.6557 -2.7170 -0.5423
  396MOL0     H53407   7.874   6.486   5.943  0.1352  0.4920  1.9777
  396MOL0     H53408   7.957   6.636   5.966  0.3288  2.4091 -2.6462
  396MOL0     H53409   8.052   6.418   5.782  2.9355  0.1460 -1.7342
  396MOL0     H53410   8.125   6.579   5.787 -1.8279  0.3001 -1.2531
  396MOL0     H53411   8.106   6.248   5.958  0.6700 -0.4024  0.7092
  396MOL0     H53412   8.253   6.271   6.306  4.9242 -0.9418 -0.3383
  396MOL0     H53413   8.146   6.156   6.205 -1.5698  1.9635 -1.1344
  396MOL0     H53414   8.350   6.119   6.066 -0.3386 -2.4939 -0.0652
  396MOL0     H53415   8.435   6.246   6.133  0.3093 -1.5197 -2.6254
  396MOL0     H53416   8.490   5.999   6.188 -0.1269  0.5491 -1.0828
  396MOL0     H53417   8.335   5.986   6.277  0.3802 -0.2655 -0.9493
  396MOL0     H53418   8.418   6.166   6.424 -0.7860 -0.7394 -1.3009
  396MOL0     H53419   8.574   6.183   6.336 -0.0823  0.6120  0.5222
  396MOL0     H53420   8.627   5.829   6.601 -2.2007 -0.4812 -2.2045
  396MOL0     H53421   8.838   5.704   6.565 -1.5908  0.0882  0.0859
  396MOL0     H53422   9.328   5.785   6.455 -2.3883 -2.0866  1.8989
  396MOL0     H53423   9.548   5.673   6.406  2.4884 -1.9083 -2.3144
  396MOL0     H53424   9.756   5.420   6.264  0.0880  1.6774 -0.6659
  396MOL0     H53425   9.607   5.394   6.351  1.4410 -1.5231  0.3083
  396MOL0     H53426   9.525   5.258   6.165 -0.5706  0.2314 -0.7293
  396MOL0     H53427   9.623   5.368   6.050  3.5792  0.1056  0.5754
  396MOL0     H53428   9.803   5.248   6.057 -0.3723 -0.4978 -1.4175
  396MOL0     H53429   9.785   5.173   6.218  1.2069 -0.4819 -1.3164
  396MOL0     H53430   9.755   5.010   6.026  0.6199  0.0952  2.2671
  396MOL0     H53431   9.618   5.097   5.958  0.4719 -1.3154 -0.8624
  396MOL0     H53432   9.477   5.052   6.123 -0.0005  0.1935 -1.4649
  396MOL0     H53433   9.611   5.009   6.227 -0.4422  1.9908  0.0578
  396MOL0     H53434   9.505   4.853   5.986 -3.1942  2.0081  2.4115
  396MOL0     H53435   9.643   4.804   6.090  0.1226  1.2731 -0.5974
  396MOL0     H53436   9.351   4.819   6.191 -1.0438 -2.1148  2.2036
  396MOL0     H53437   9.490   4.777   6.285  0.0643 -0.1559 -0.1053
  396MOL0     H53438   9.366   4.555   6.182  2.6949 -4.5649 -0.5670
  396MOL0     H53439   9.425   4.620   6.025 -0.5789 -1.1563  0.2316
  396MOL0     H53440   9.405   5.501   6.046 -1.6887  0.1173 -0.3584
  396MOL0     H53441   9.171   5.606   6.092 -1.0287 -1.2870  1.9837
  396MOL0     H53442   8.970   5.973   6.267 -2.2095  4.6518 -0.3274
  396MOL0     H53443   8.757   6.087   6.270  0.1324  0.1388  0.5046
  396MOL0     H53444   7.189   7.100   5.970 -2.6104 -1.4724 -3.3951
  396MOL0     H53445   7.023   7.258   6.101  2.4131 -2.6572  1.2768
  396MOL0     H53446   6.844   7.517   6.259 -2.3642  0.4507  0.5106
  396MOL0     H53447   6.705   7.610   6.414  0.0112  0.3583 -0.6650
  396MOL0     H53448   6.658   7.716   6.638  1.3908  0.4874  1.2258
  396MOL0     H53449   6.567   7.738   6.495 -0.0286 -0.5309  0.7927
  396MOL0     H53450   6.577   7.946   6.700  2.1381 -0.0964 -2.5630
  396MOL0     H53451   6.456   7.819   6.704  0.2025  1.6269  2.1917
  396MOL0     H53452   6.394   7.918   6.464  2.7474  0.7013 -1.0070
  396MOL0     H53453   6.492   8.052   6.511 -0.5424  0.4278 -0.1372
  396MOL0     H53454   6.348   8.047   6.746 -0.9394  0.7245  0.8243
  396MOL0     H53455   6.281   8.123   6.609  1.2264 -0.7665 -1.4126
  396MOL0     H53456   6.013   7.794   6.603 -1.0645  2.7097 -2.8414
  396MOL0     H53457   6.950   7.970   6.434  1.0375  0.7072 -1.3769
  396MOL0     H53458   7.239   7.850   6.319 -0.0946  1.6199  1.1502
  396MOL0     H53459   7.164   7.881   6.160 -1.2178 -4.0894 -0.3569
  396MOL0     H53460   7.137   7.994   6.298 -4.7342 -0.1058 -1.2302
  397MOL0     O53461   6.857   0.160   3.965  0.7602  0.3674 -0.2680
  397MOL0     C53462   6.838   0.157   4.086 -0.3699  0.0445 -0.3721
  397MOL0     O53463   6.930   0.177   4.189 -0.5559 -0.8681  0.5977
  397MOL0     C53464   7.050   0.249   4.164  0.6241  0.0686  0.0494
  397MOL0     C53465   7.068   0.324   4.045  0.1748 -0.0063 -0.6726
  397MOL0     C53466   7.192   0.383   4.025 -0.4374 -0.1737 -0.1502
  397MOL0     C53467   7.293   0.375   4.122 -1.2023  0.7833 -0.0928
  397MOL0     O53468   7.414   0.438   4.103  0.3532 -0.4203 -0.7075
  397MOL0     C53469   7.484   0.409   3.981  0.5745 -0.0399  0.1040
  397MOL0     C53470   7.590   0.311   4.024 -0.5069 -0.8516 -0.7310
  397MOL0     C53471   7.676   0.352   4.150  0.1676  0.2339  0.5857
  397MOL0     C53472   7.761   0.246   4.209  0.0902 -0.8366  0.5095
  397MOL0     C53473   7.901   0.233   4.133 -0.0688 -0.3655 -0.5405
  397MOL0     C53474   7.959   0.101   4.146 -0.4077 -0.2824  0.0416
  397MOL0     C53475   8.073   0.078   4.059  0.0018  0.4158 -0.2420
  397MOL0     C53476   8.136  -0.072   4.066 -0.4061 -0.5501  0.5185
  397MOL0     N53477   8.280  -0.083   4.034  0.2645  0.0163 -0.4091
  397MOL0     C53478   8.383  -0.039   4.117 -1.1067  0.0013  0.2428
  397MOL0     C53479   8.491  -0.036   4.028 -0.0588  0.6058  0.1644
  397MOL0     C53480   8.632   0.000   4.059  0.1139  0.5010  0.3479
  397MOL0     C53481   8.715  -0.123   4.030 -0.0174 -0.2550  0.2804
  397MOL0     C53482   8.840  -0.116   4.106  0.6672  0.4704  0.0207
  397MOL0     C53483   8.920  -0.240   4.077  0.5413 -0.2696  0.1635
  397MOL0     O53484   9.043  -0.251   4.161  0.4970  0.0087 -0.2901
  397MOL0     C53485   9.166  -0.184   4.146  0.0780 -0.2603  0.3243
  397MOL0     C53486   9.261  -0.213   4.242 -0.0947 -0.5353  0.6912
  397MOL0     C53487   9.388  -0.152   4.236  0.2128  0.6640 -0.2730
  397MOL0     C53488   9.416  -0.064   4.128 -1.4319  0.1279 -0.1140
  397MOL0     C53489   9.539   0.010   4.113 -0.1820 -0.1746 -0.2446
  397MOL0     O53490   9.635  -0.015   4.212  0.4279  0.5102 -0.4301
  397MOL0     C53491   9.768  -0.010   4.185  0.0048  0.2528  0.0483
  397MOL0     C53492   9.835  -0.130   4.207 -0.9858 -0.0133  0.0118
  397MOL0     C53493   9.974  -0.131   4.210 -0.0591 -0.5190  0.8959
  397MOL0     C53494  10.042  -0.007   4.204 -0.2784 -0.0211  0.1019
  397MOL0     O53495  10.174   0.010   4.213 -0.7759  0.0160 -0.4181
  397MOL0     C53496  10.259  -0.106   4.214  0.8407  1.6626 -0.1899
  397MOL0     C53497  10.261  -0.168   4.079  0.7801  0.0655  0.1999
  397MOL0     C53498  10.386  -0.247   4.055 -1.0270 -0.5988 -0.7001
  397MOL0     C53499  10.378  -0.353   3.948 -0.0724 -0.5244  0.3683
  397MOL0     C53500  10.334  -0.487   4.000  0.2225  0.5075 -0.3164
  397MOL0     C53501  10.313  -0.606   3.898  0.4065 -0.3829 -0.4724
  397MOL0     C53502  10.287  -0.744   3.964 -0.5650 -0.0226  0.2189
  397MOL0     C53503  10.262  -0.857   3.862 -0.0063  0.1980 -0.0571
  397MOL0    Cl53504  10.083  -0.850   3.825 -0.0512 -0.0029  0.6735
  397MOL0     C53505   9.975   0.110   4.184  0.0463  1.1355  0.1885
  397MOL0     C53506   9.839   0.112   4.164 -0.0685 -0.1218  0.0005
  397MOL0     O53507   9.550   0.083   4.015  0.1371  0.2241  0.2054
  397MOL0     C53508   9.315  -0.037   4.042 -0.0297 -0.4404 -0.2758
  397MOL0     C53509   9.191  -0.086   4.052  0.1468  0.5253  0.1537
  397MOL0     N53510   8.449  -0.116   3.913 -0.1049 -0.3974 -0.4264
  397MOL0     N53511   8.321  -0.126   3.913 -0.1059 -0.3652 -0.2973
  397MOL0     C53512   7.268   0.303   4.242 -0.4566 -0.1106  0.6729
  397MOL0     C53513   7.148   0.237   4.258 -0.7445  0.6700  0.5605
  397MOL0     C53514   6.704   0.110   4.118  0.0646  0.1131  1.4491
  397MOL0     C53515   6.626   0.183   4.219 -0.2338  0.2066 -0.2976
  397MOL0     C53516   6.493   0.158   4.243 -0.4861  0.0398  0.2781
  397MOL0     C53517   6.432   0.061   4.172  0.1312 -0.5879 -0.8344
  397MOL0     O53518   6.299   0.050   4.194  0.5197  0.0019  0.3288
  397MOL0     C53519   6.226  -0.067   4.169 -0.1129  0.6349 -0.7976
  397MOL0     C53520   6.149  -0.056   4.035  0.4284 -1.1855 -0.6197
  397MOL0     C53521   6.043  -0.157   3.999  0.3584 -0.1693  0.6300
  397MOL0     C53522   5.906  -0.157   4.057  0.4918  0.3211  0.1039
  397MOL0     C53523   5.856  -0.290   4.015  0.2188 -0.0506  0.8408
  397MOL0     C53524   5.795  -0.390   4.006  1.1693  0.2625  0.5759
  397MOL0     C53525   6.508  -0.017   4.078 -0.7746  0.0547 -0.3778
  397MOL0     C53526   6.639  -0.001   4.051 -0.3648 -0.0568  0.8411
  397MOL0     C53527   6.700  -0.092   3.953  0.5053 -0.1037  0.7697
  397MOL0     H53528   6.986   0.357   3.982  0.8966  0.8188 -1.2294
  397MOL0     H53529   7.214   0.454   3.946 -0.7487  1.4411  1.1507
  397MOL0     H53530   7.422   0.366   3.902  0.2468  1.3210 -0.4193
  397MOL0     H53531   7.531   0.503   3.948  0.4293 -0.5614 -1.6794
  397MOL0     H53532   7.661   0.297   3.941  0.3215 -1.9311  0.1288
  397MOL0     H53533   7.541   0.215   4.046 -0.7757 -0.5034  0.2049
  397MOL0     H53534   7.603   0.365   4.231  1.5262  0.2333  1.8554
  397MOL0     H53535   7.742   0.437   4.132  1.7969 -1.2141 -0.6155
  397MOL0     H53536   7.762   0.260   4.318  1.5972 -1.6181  0.6258
  397MOL0     H53537   7.713   0.149   4.198  1.0269 -1.2520  0.0488
  397MOL0     H53538   7.898   0.261   4.028  0.1041  1.4929 -0.0923
  397MOL0     H53539   7.969   0.309   4.173  0.4159 -0.2788 -1.5014
  397MOL0     H53540   7.981   0.078   4.251  2.6783 -0.9128 -0.6458
  397MOL0     H53541   7.888   0.026   4.112 -1.2054 -0.0518  1.1728
  397MOL0     H53542   8.139   0.142   4.119 -0.6502  0.6920  0.1928
  397MOL0     H53543   8.062   0.117   3.958  4.4669  1.3515 -0.5634
  397MOL0     H53544   8.121  -0.135   4.154  1.4458 -1.5587  0.1627
  397MOL0     H53545   8.096  -0.130   3.983 -1.4691 -1.0640  1.3776
  397MOL0     H53546   8.381  -0.003   4.219  0.6060  0.8769 -0.0063
  397MOL0     H53547   8.657   0.086   3.996 -1.3148  0.7295  0.0654
  397MOL0     H53548   8.643   0.019   4.166 -0.3418 -0.7840  0.6347
  397MOL0     H53549   8.660  -0.216   4.045  1.1166 -1.4692 -2.4199
  397MOL0     H53550   8.738  -0.115   3.923 -3.7469  3.3135 -0.5043
  397MOL0     H53551   8.802  -0.122   4.208  0.0812 -0.3051 -0.2369
  397MOL0     H53552   8.905  -0.029   4.089  0.2392  0.4374 -1.9887
  397MOL0     H53553   8.931  -0.242   3.968  2.2812 -2.1022  0.3226
  397MOL0     H53554   8.853  -0.321   4.108  0.8000 -0.0781  1.2417
  397MOL0     H53555   9.244  -0.277   4.328  2.1551 -1.0069  0.8491
  397MOL0     H53556   9.457  -0.167   4.319 -3.6485  0.4360  3.2373
  397MOL0     H53557   9.788  -0.225   4.229 -1.5772  0.3666  0.4498
  397MOL0     H53558  10.025  -0.226   4.219  0.4546 -0.4422 -0.8208
  397MOL0     H53559  10.362  -0.079   4.235  1.9041 -1.2947 -1.1069
  397MOL0     H53560  10.218  -0.184   4.279  0.0866  0.0428 -2.4694
  397MOL0     H53561  10.173  -0.234   4.072 -2.8345  4.4153 -0.2333
  397MOL0     H53562  10.261  -0.100   3.993  2.2629 -0.1807 -0.0073
  397MOL0     H53563  10.466  -0.177   4.029 -0.9956  0.1140  1.1708
  397MOL0     H53564  10.426  -0.293   4.146 -0.1068 -0.9990 -1.2900
  397MOL0     H53565  10.478  -0.364   3.905 -0.9339  0.4886 -2.0601
  397MOL0     H53566  10.318  -0.327   3.860 -0.6939 -2.7505  0.0611
  397MOL0     H53567  10.239  -0.470   4.052  0.6901  2.3324  0.0262
  397MOL0     H53568  10.405  -0.513   4.079  1.7619  3.1474 -0.7161
  397MOL0     H53569  10.226  -0.584   3.836 -0.7900  1.2370  1.6308
  397MOL0     H53570  10.408  -0.621   3.847  1.7888 -3.3310  2.5194
  397MOL0     H53571  10.220  -0.740   4.051 -3.0746 -1.7159 -1.5025
  397MOL0     H53572  10.382  -0.767   4.012 -1.3374 -2.7132  0.6374
  397MOL0     H53573  10.309  -0.838   3.765 -0.4831  1.5324 -0.0378
  397MOL0     H53574  10.296  -0.947   3.915  2.5382  1.3372  0.3969
  397MOL0     H53575  10.028   0.203   4.163 -0.9700  1.8243  0.5965
  397MOL0     H53576   9.797   0.212   4.156  4.6427  1.9661 -2.0273
  397MOL0     H53577   9.327   0.034   3.961 -1.4052  0.6290  0.4027
  397MOL0     H53578   9.135  -0.073   3.961  0.0830 -2.8910 -0.4595
  397MOL0     H53579   7.361   0.286   4.296 -0.8394  0.3190  1.4749
  397MOL0     H53580   7.149   0.172   4.345 -0.0708  0.6793  0.5687
  397MOL0     H53581   6.674   0.264   4.272  0.3899 -1.0171  1.0780
  397MOL0     H53582   6.449   0.206   4.329 -0.1810 -0.7381  0.8746
  397MOL0     H53583   6.146  -0.089   4.240 -0.1454 -0.4107 -1.1345
  397MOL0     H53584   6.292  -0.154   4.175 -0.4983  0.4518  3.3873
  397MOL0     H53585   6.223  -0.053   3.955  1.1630 -2.5647 -0.0262
  397MOL0     H53586   6.092   0.037   4.037 -0.5560 -1.7631  1.1301
  397MOL0     H53587   6.090  -0.253   4.019  0.1070 -0.5428 -0.4944
  397MOL0     H53588   6.027  -0.153   3.891 -0.4210 -1.2439  0.6946
  397MOL0     H53589   5.912  -0.138   4.165 -0.0795  1.7551 -0.0990
  397MOL0     H53590   5.859  -0.075   4.003 -0.0620 -0.9389 -1.3978
  397MOL0     H53591   5.723  -0.461   3.970 -1.5943  1.9904  2.3446
  397MOL0     H53592   6.442  -0.090   4.031 -0.4948 -1.5449  1.5676
  397MOL0     H53593   6.681  -0.072   3.847  3.7137 -0.1863  0.0727
  397MOL0     H53594   6.807  -0.081   3.973  0.5959  0.3266  0.0917
  397MOL0     H53595   6.652  -0.188   3.972 -3.7850  2.4653  5.8979
  398MOL0     O53596   4.331   8.929   5.481 -0.0651  0.1636 -0.9631
  398MOL0     C53597   4.226   8.959   5.539 -0.6530  0.1138 -0.0654
  398MOL0     O53598   4.217   9.027   5.659 -0.2789 -0.2488 -0.1096
  398MOL0     C53599   4.331   9.033   5.728  0.1404 -0.7029  0.9559
  398MOL0     C53600   4.401   9.158   5.725  0.3024 -0.3193 -0.2497
  398MOL0     C53601   4.512   9.182   5.804  0.6227 -0.0123  0.4166
  398MOL0     C53602   4.554   9.081   5.881  0.4436 -0.9437 -0.2148
  398MOL0     O53603   4.653   9.105   5.968  0.0581 -0.8734 -0.3816
  398MOL0     C53604   4.746   8.998   5.975 -0.0186  1.1433 -0.4996
  398MOL0     C53605   4.882   9.065   6.018  0.2301  0.0887 -0.2341
  398MOL0     C53606   4.961   9.121   5.894 -0.8455 -0.0733 -0.4523
  398MOL0     C53607   5.065   9.221   5.940 -0.1455  0.4965  0.7644
  398MOL0     C53608   5.167   9.234   5.824  0.5835 -0.4332  0.4341
  398MOL0     C53609   5.283   9.324   5.862 -0.2461 -0.2264 -0.4903
  398MOL0     C53610   5.371   9.334   5.738 -0.9146  0.1694  0.6457
  398MOL0     C53611   5.490   9.419   5.760  0.8945 -1.3532  0.2922
  398MOL0     N53612   5.464   9.555   5.805 -0.1984  0.8066  0.7725
  398MOL0     C53613   5.409   9.653   5.725  0.3486 -1.1005 -0.0512
  398MOL0     C53614   5.417   9.767   5.795 -0.1673  0.5725  0.1227
  398MOL0     C53615   5.369   9.893   5.752 -0.7687  0.2313 -0.3745
  398MOL0     C53616   5.398   9.935   5.601 -0.1945 -0.9780  0.5885
  398MOL0     C53617   5.531  10.016   5.608  0.6971  0.0169 -0.5527
  398MOL0     C53618   5.635   9.911   5.648 -0.9297  0.0500 -0.4108
  398MOL0     O53619   5.761   9.977   5.614 -0.4936 -0.5388 -0.1682
  398MOL0     C53620   5.878   9.915   5.643 -0.1592  0.9308  0.0146
  398MOL0     C53621   5.984  10.001   5.633 -0.5879 -0.6133  0.2545
  398MOL0     C53622   6.117   9.961   5.656  0.5232 -1.2153  0.7672
  398MOL0     C53623   6.148   9.829   5.701  0.1384 -0.2669 -0.4804
  398MOL0     C53624   6.282   9.786   5.735  0.7895 -0.0547  0.3533
  398MOL0     O53625   6.363   9.883   5.777 -0.3132 -0.4005 -0.9764
  398MOL0     C53626   6.483   9.849   5.832 -0.5295  0.2539  0.0766
  398MOL0     C53627   6.489   9.745   5.927 -0.2485 -0.1066  0.5782
  398MOL0     C53628   6.615   9.696   5.966 -0.4916 -0.8575  0.5771
  398MOL0     C53629   6.736   9.753   5.909  0.1500  1.1625 -0.0764
  398MOL0     O53630   6.843   9.682   5.952 -0.7559 -0.8086  0.0598
  398MOL0     C53631   6.972   9.692   5.893 -0.1161 -0.5723 -0.7017
  398MOL0     C53632   7.063   9.563   5.903  0.0596  0.2263 -0.1670
  398MOL0     C53633   7.207   9.587   5.861  0.1953  0.1299 -0.6127
  398MOL0     C53634   7.285   9.460   5.888  0.2625  0.3548  0.0819
  398MOL0     C53635   7.433   9.468   5.846  0.2014  0.2581 -0.6881
  398MOL0     C53636   7.510   9.350   5.915 -0.2656 -0.6247  0.4223
  398MOL0     C53637   7.474   9.212   5.867  0.2251  1.6995  0.6483
  398MOL0     C53638   7.509   9.209   5.719 -0.3905  0.0684  0.4816
  398MOL0    Cl53639   7.567   9.043   5.664  0.4727  0.1453  0.3058
  398MOL0     C53640   6.734   9.853   5.808  0.7775 -0.8325 -0.2740
  398MOL0     C53641   6.603   9.898   5.781 -0.3636 -0.3253 -0.0715
  398MOL0     O53642   6.312   9.669   5.717  0.3932 -0.4762  0.4911
  398MOL0     C53643   6.037   9.738   5.697 -0.8973 -0.4396 -1.1607
  398MOL0     C53644   5.905   9.783   5.666  0.5522  0.3635 -0.9261
  398MOL0     N53645   5.472   9.737   5.917 -1.0293  1.7265  0.6210
  398MOL0     N53646   5.502   9.602   5.917  0.9107  0.8843 -0.2380
  398MOL0     C53647   4.484   8.955   5.880 -0.3439 -0.0646  0.0458
  398MOL0     C53648   4.377   8.928   5.802  0.1578  0.1880  0.2821
  398MOL0     C53649   4.091   8.886   5.499 -0.0389 -0.6135  0.1125
  398MOL0     C53650   3.981   8.893   5.585  0.2446 -0.0371 -0.1015
  398MOL0     C53651   3.860   8.826   5.568  0.6022  0.6239  0.0796
  398MOL0     C53652   3.839   8.759   5.443 -0.8252  0.0409  0.3751
  398MOL0     O53653   3.721   8.686   5.410 -1.0449 -0.0504  0.1293
  398MOL0     C53654   3.605   8.705   5.493 -0.3367 -0.4888 -0.9707
  398MOL0     C53655   3.476   8.686   5.408  0.3593 -0.5202 -0.3773
  398MOL0     C53656   3.476   8.777   5.282 -0.4104  0.8903 -0.2084
  398MOL0     C53657   3.415   8.915   5.305 -0.7902 -0.2408 -0.6814
  398MOL0     C53658   3.308   8.920   5.395  0.2744 -0.5789  0.0061
  398MOL0     C53659   3.209   8.920   5.464  1.2012  0.7222  0.0445
  398MOL0     C53660   3.945   8.759   5.355  0.6730 -0.7727  0.0432
  398MOL0     C53661   4.071   8.811   5.377  0.4378  0.6665 -0.4564
  398MOL0     C53662   4.176   8.799   5.265  0.3434 -0.2042 -0.2286
  398MOL0     H53663   4.380   9.248   5.668 -1.2463  1.0195  2.2527
  398MOL0     H53664   4.555   9.282   5.800  0.3449  0.0780 -0.3479
  398MOL0     H53665   4.716   8.927   6.053  0.9881  0.2227 -0.9272
  398MOL0     H53666   4.766   8.936   5.887 -0.3885 -0.1660  0.3036
  398MOL0     H53667   4.945   8.996   6.076  1.0558  2.5202  1.9684
  398MOL0     H53668   4.846   9.139   6.090 -1.2740 -0.3874 -0.4728
  398MOL0     H53669   4.895   9.178   5.827  0.5837  2.3470  0.0716
  398MOL0     H53670   5.011   9.041   5.839  1.0539  0.6964  0.0722
  398MOL0     H53671   5.021   9.312   5.982 -2.1212 -0.9823  2.0654
  398MOL0     H53672   5.126   9.171   6.016 -0.1683  2.0837  1.8646
  398MOL0     H53673   5.204   9.136   5.792  1.1480  0.8412 -3.4158
  398MOL0     H53674   5.110   9.281   5.743 -0.6271 -0.6058  1.1584
  398MOL0     H53675   5.251   9.422   5.898  0.2909 -1.0913  2.6744
  398MOL0     H53676   5.339   9.272   5.940 -3.8747  0.7161  3.0608
  398MOL0     H53677   5.316   9.354   5.645 -1.4704  0.5113  1.0369
  398MOL0     H53678   5.414   9.237   5.712 -1.4919  0.0055  0.2764
  398MOL0     H53679   5.574   9.378   5.817  0.2882  1.0757  3.1218
  398MOL0     H53680   5.535   9.438   5.662  3.1643 -0.0796  1.5122
  398MOL0     H53681   5.366   9.642   5.626  0.4107 -1.1657 -0.0706
  398MOL0     H53682   5.262   9.906   5.769 -0.7611  2.6471 -1.6717
  398MOL0     H53683   5.422   9.965   5.817 -2.3724  0.1223  1.1184
  398MOL0     H53684   5.390   9.852   5.530 -0.0649 -1.2603  0.8999
  398MOL0     H53685   5.323  10.010   5.575 -1.8878 -2.8631 -0.2430
  398MOL0     H53686   5.522  10.105   5.672 -1.4496  1.2505 -2.4082
  398MOL0     H53687   5.552  10.056   5.509 -0.5488  1.2530 -0.3620
  398MOL0     H53688   5.641   9.820   5.587 -2.0567  0.9338 -1.9075
  398MOL0     H53689   5.636   9.902   5.757  2.1549  4.2590  0.1325
  398MOL0     H53690   5.971  10.106   5.607  0.7717 -0.3988  0.3627
  398MOL0     H53691   6.196  10.032   5.634 -0.8726 -0.1866 -1.1879
  398MOL0     H53692   6.400   9.698   5.967 -0.2120 -1.4357 -0.8232
  398MOL0     H53693   6.613   9.608   6.029 -0.2409 -1.2778  0.0132
  398MOL0     H53694   6.950   9.711   5.787  0.2855 -2.5703 -1.1877
  398MOL0     H53695   7.026   9.775   5.938  1.5267 -0.7300 -2.2682
  398MOL0     H53696   7.055   9.532   6.008  3.9136  0.4800  0.3296
  398MOL0     H53697   7.017   9.486   5.840 -2.5957  0.6109  1.1606
  398MOL0     H53698   7.213   9.622   5.758  0.2832 -1.1391 -1.0498
  398MOL0     H53699   7.253   9.660   5.929 -0.6633  2.3877 -2.3350
  398MOL0     H53700   7.231   9.373   5.850  0.2363  1.3975 -2.5263
  398MOL0     H53701   7.284   9.461   5.997 -0.2415 -0.9483  0.1063
  398MOL0     H53702   7.459   9.565   5.890 -0.0992  0.0183  0.0349
  398MOL0     H53703   7.450   9.475   5.738 -1.1547  3.0996 -0.8303
  398MOL0     H53704   7.618   9.366   5.905 -0.3108 -1.0789 -1.0542
  398MOL0     H53705   7.479   9.349   6.020  1.0986 -1.0762  0.8428
  398MOL0     H53706   7.367   9.190   5.878  0.6122 -0.1886  1.0275
  398MOL0     H53707   7.530   9.139   5.927 -1.5635  1.2288  1.8147
  398MOL0     H53708   7.416   9.236   5.666  0.1483  0.4606 -0.2883
  398MOL0     H53709   7.592   9.277   5.696  0.6392 -0.7733  1.6251
  398MOL0     H53710   6.826   9.894   5.768  0.0685  0.3990 -0.7035
  398MOL0     H53711   6.578   9.984   5.720 -1.4352 -0.0130  0.7735
  398MOL0     H53712   6.048   9.636   5.732 -1.2242 -0.2774 -0.5705
  398MOL0     H53713   5.824   9.712   5.676  0.4182  0.8498  3.7995
  398MOL0     H53714   4.536   8.878   5.936 -0.9613 -1.3697 -1.1061
  398MOL0     H53715   4.333   8.829   5.800  1.8185 -0.5799 -0.5902
  398MOL0     H53716   4.003   8.950   5.675  2.2857 -1.4397  0.3570
  398MOL0     H53717   3.784   8.831   5.645 -2.1036  1.0144 -2.4434
  398MOL0     H53718   3.610   8.809   5.526 -0.4502 -0.1932 -1.8621
  398MOL0     H53719   3.601   8.633   5.576  0.1148 -0.7227 -1.1463
  398MOL0     H53720   3.384   8.708   5.464 -1.8851  1.7433 -4.4485
  398MOL0     H53721   3.471   8.581   5.379  2.4421 -0.6248 -0.5009
  398MOL0     H53722   3.423   8.726   5.201 -1.0711 -0.3613  0.9646
  398MOL0     H53723   3.579   8.777   5.244 -0.7461  1.1210 -1.1547
  398MOL0     H53724   3.502   8.971   5.342 -0.1338 -2.9763  2.3243
  398MOL0     H53725   3.389   8.962   5.210  0.9673  0.1068 -1.0323
  398MOL0     H53726   3.115   8.916   5.516  0.4859  3.5227 -0.8685
  398MOL0     H53727   3.922   8.706   5.262  0.5378 -1.0105  0.2118
  398MOL0     H53728   4.139   8.738   5.181 -2.2148  2.9569 -1.6112
  398MOL0     H53729   4.205   8.897   5.227 -0.3929  0.0118 -0.2284
  398MOL0     H53730   4.262   8.743   5.304  2.5646  2.3555 -1.0789
  399MOL0     O53731   1.954   9.813   7.364  0.0305 -0.0829 -0.7434
  399MOL0     C53732   1.967   9.733   7.456 -0.1725 -0.9765 -0.4211
  399MOL0     O53733   1.870   9.640   7.486  0.4620 -0.2371  0.1207
  399MOL0     C53734   1.739   9.656   7.471 -0.1853  0.2515 -0.1551
  399MOL0     C53735   1.676   9.726   7.372  0.3808  0.0520  1.0398
  399MOL0     C53736   1.538   9.735   7.375  0.2310  0.5095  0.7456
  399MOL0     C53737   1.470   9.662   7.463 -0.1285 -0.1634  0.4023
  399MOL0     O53738   1.327   9.668   7.461 -0.6287  0.3079  0.8197
  399MOL0     C53739   1.256   9.685   7.585 -0.5087 -0.2497 -0.1423
  399MOL0     C53740   1.186   9.822   7.597 -0.6539  1.7696  0.7031
  399MOL0     C53741   1.074   9.866   7.504 -0.3932 -0.0442 -0.0217
  399MOL0     C53742   0.975   9.753   7.469  0.9047 -0.2578 -0.0903
  399MOL0     C53743   0.844   9.820   7.408 -0.3491  0.0640 -0.0001
  399MOL0     C53744   0.868   9.835   7.257 -0.0557 -0.4171  0.1127
  399MOL0     C53745   0.785   9.943   7.195 -0.6354  0.1357 -0.9831
  399MOL0     C53746   0.790   9.949   7.041 -0.2939 -0.5283 -0.5096
  399MOL0     N53747   0.916  10.001   6.989  0.3152  0.0567 -0.4931
  399MOL0     C53748   1.022   9.921   6.953  0.1884  0.0266 -0.0016
  399MOL0     C53749   1.106  10.009   6.902 -0.1764  0.4908  0.7591
  399MOL0     C53750   1.226   9.951   6.825  0.3034  0.1856  0.7739
  399MOL0     C53751   1.354   9.932   6.918 -0.3385  0.3354  0.7232
  399MOL0     C53752   1.434   9.816   6.866 -0.0561  0.0237 -0.2546
  399MOL0     C53753   1.557   9.779   6.951 -0.0955 -0.3335  0.5702
  399MOL0     O53754   1.668   9.867   6.908  1.1683 -0.2811 -0.4560
  399MOL0     C53755   1.796   9.851   6.944  1.0090 -0.3145  0.1498
  399MOL0     C53756   1.855   9.734   7.001 -0.3963 -0.6400 -0.7457
  399MOL0     C53757   1.987   9.734   7.046  0.1773  0.0554  0.6833
  399MOL0     C53758   2.079   9.842   7.007  0.1209 -0.6045 -0.5601
  399MOL0     C53759   2.219   9.847   7.054  1.1155 -0.1318  0.0678
  399MOL0     O53760   2.282   9.970   7.033  0.5336 -0.2207 -0.0195
  399MOL0     C53761   2.420   9.964   7.053  0.5072 -0.1849  0.3547
  399MOL0     C53762   2.462  10.002   7.182 -0.9854 -0.1022 -0.7193
  399MOL0     C53763   2.598   9.985   7.220 -0.0169  0.5123 -0.2973
  399MOL0     C53764   2.683   9.919   7.134  0.5250 -1.2618 -0.1985
  399MOL0     O53765   2.808   9.906   7.190  0.4157  0.1405  0.3913
  399MOL0     C53766   2.899   9.827   7.113 -0.6728  0.3360  0.7689
  399MOL0     C53767   3.034   9.799   7.193  0.5964 -0.1537  0.5124
  399MOL0     C53768   3.124   9.689   7.112 -0.3781 -0.4125 -0.1105
  399MOL0     C53769   3.239   9.641   7.189 -0.8768 -0.1721  0.1102
  399MOL0     C53770   3.324   9.734   7.266  0.0727  0.4929  0.7735
  399MOL0     C53771   3.403   9.672   7.376  0.8685  0.3018  0.4942
  399MOL0     C53772   3.442   9.780   7.483 -0.2600 -0.1284  0.7597
  399MOL0     C53773   3.314   9.813   7.553 -0.4487 -0.3109  0.1869
  399MOL0    Cl53774   3.187   9.691   7.592  0.2238  0.7697  0.7652
  399MOL0     C53775   2.645   9.883   7.006  0.8026  0.3245 -0.2167
  399MOL0     C53776   2.509   9.893   6.966 -0.0678 -0.8045  0.5598
  399MOL0     O53777   2.272   9.747   7.101  0.3515  0.0838 -0.0903
  399MOL0     C53778   2.025   9.947   6.930  0.4586  0.7793 -0.0493
  399MOL0     C53779   1.886   9.958   6.909 -0.0781 -0.9765 -0.1678
  399MOL0     N53780   1.061  10.146   6.915 -0.2011  0.8453 -0.1033
  399MOL0     N53781   0.943  10.143   6.970 -0.8088  0.4259 -0.2753
  399MOL0     C53782   1.536   9.590   7.565  0.1635  0.1018  0.2772
  399MOL0     C53783   1.672   9.577   7.559  0.2026  0.3378 -0.1654
  399MOL0     C53784   2.086   9.717   7.543 -0.9092 -0.0120  1.0885
  399MOL0     C53785   2.109   9.596   7.619 -0.7142  0.5446  0.9214
  399MOL0     C53786   2.231   9.583   7.684 -0.2306 -0.5819 -0.3250
  399MOL0     C53787   2.338   9.677   7.666  0.3207 -0.2102  0.2324
  399MOL0     O53788   2.454   9.678   7.736 -0.6762  0.6071 -0.1059
  399MOL0     C53789   2.513   9.550   7.766 -0.3936  0.5784 -0.0695
  399MOL0     C53790   2.644   9.561   7.845  0.5397  0.0643 -0.3694
  399MOL0     C53791   2.619   9.594   7.992  1.5716  0.8550 -0.6645
  399MOL0     C53792   2.749   9.608   8.064 -0.0963  0.3535 -0.1561
  399MOL0     C53793   2.731   9.657   8.195 -0.7994 -0.2174 -0.7197
  399MOL0     C53794   2.714   9.705   8.307 -1.8056  0.4592  1.0553
  399MOL0     C53795   2.312   9.792   7.603 -0.3415 -0.1565  0.2946
  399MOL0     C53796   2.187   9.820   7.540 -0.5790  0.3281  0.1369
  399MOL0     C53797   2.185   9.954   7.477  0.5944  0.2695  0.2228
  399MOL0     H53798   1.721   9.778   7.287 -1.3640 -1.0729 -0.6527
  399MOL0     H53799   1.501   9.791   7.290  0.2529  0.1883  0.5228
  399MOL0     H53800   1.194   9.595   7.582  0.1501 -0.7187 -2.9017
  399MOL0     H53801   1.323   9.676   7.671  0.9218  0.0365 -1.1767
  399MOL0     H53802   1.260   9.902   7.589 -0.7119  1.8384  0.8449
  399MOL0     H53803   1.136   9.814   7.694  0.7856  0.3802  1.3674
  399MOL0     H53804   1.114   9.907   7.411  0.3425 -1.0003 -0.1436
  399MOL0     H53805   1.023   9.947   7.558  1.8798  1.1216  0.4866
  399MOL0     H53806   1.011   9.675   7.402  1.4905 -1.7322  1.8422
  399MOL0     H53807   0.937   9.707   7.560 -0.4094  0.5264 -0.2172
  399MOL0     H53808   0.754   9.760   7.427  0.4782 -1.6698 -1.2708
  399MOL0     H53809   0.828   9.916   7.459 -1.8679 -0.2057  0.0812
  399MOL0     H53810   0.973   9.857   7.237  0.2879  1.4449  3.2515
  399MOL0     H53811   0.847   9.742   7.205  0.6836 -2.0842  2.6334
  399MOL0     H53812   0.822  10.039   7.234  2.7203 -1.6555  0.7458
  399MOL0     H53813   0.684   9.916   7.225 -0.0015 -0.4809  0.7495
  399MOL0     H53814   0.766   9.850   7.002  2.0564 -0.3806 -2.5768
  399MOL0     H53815   0.705  10.016   7.019 -1.6093 -2.2262 -0.7941
  399MOL0     H53816   1.032   9.813   6.948 -2.2030 -0.2484 -4.4668
  399MOL0     H53817   1.203   9.856   6.778 -2.0315  1.6736 -1.3422
  399MOL0     H53818   1.242  10.014   6.737  0.1209 -1.2091 -0.2908
  399MOL0     H53819   1.418  10.021   6.913  0.9749 -0.4960  1.9882
  399MOL0     H53820   1.328   9.920   7.023  0.0012  5.7335  1.7284
  399MOL0     H53821   1.454   9.840   6.761  3.4281  0.0797  0.3105
  399MOL0     H53822   1.361   9.734   6.865  0.7171 -0.8237 -4.3265
  399MOL0     H53823   1.567   9.674   6.922 -2.7913  0.0554 -2.2557
  399MOL0     H53824   1.547   9.784   7.060  2.6525  1.3633  0.8523
  399MOL0     H53825   1.793   9.647   7.020  0.6597 -1.3356 -0.3910
  399MOL0     H53826   2.025   9.647   7.098 -0.1217 -0.0367  0.7460
  399MOL0     H53827   2.400  10.040   7.262  0.4939  0.9777 -0.0397
  399MOL0     H53828   2.626  10.013   7.322 -2.7846  2.1341  0.1217
  399MOL0     H53829   2.861   9.726   7.093  0.5618  0.2827 -1.7244
  399MOL0     H53830   2.932   9.874   7.020  0.5157 -0.1485  0.9328
  399MOL0     H53831   3.090   9.892   7.196  2.6987 -1.3256 -0.2666
  399MOL0     H53832   3.010   9.762   7.293 -0.1893 -3.9575 -0.8912
  399MOL0     H53833   3.048   9.617   7.082 -3.4777  2.3648  0.5292
  399MOL0     H53834   3.160   9.731   7.018  1.2823 -0.4966  0.4598
  399MOL0     H53835   3.302   9.585   7.119  1.4783  1.9420  0.3796
  399MOL0     H53836   3.200   9.572   7.264 -2.0464 -0.7728 -1.0005
  399MOL0     H53837   3.260   9.812   7.310 -0.0238 -0.2994  2.1022
  399MOL0     H53838   3.398   9.775   7.197 -0.3077 -1.4492 -0.8970
  399MOL0     H53839   3.348   9.598   7.434 -0.6963  0.3337 -0.8838
  399MOL0     H53840   3.493   9.622   7.339  0.9425 -0.5681  1.7715
  399MOL0     H53841   3.483   9.875   7.449  0.4250 -0.0252  1.8372
  399MOL0     H53842   3.507   9.738   7.559  0.4022  5.2907  3.7072
  399MOL0     H53843   3.352   9.851   7.648 -0.8344 -0.1035  0.2643
  399MOL0     H53844   3.271   9.897   7.498  1.9388  0.4993 -0.5622
  399MOL0     H53845   2.712   9.847   6.929 -0.0960 -0.6693 -0.5557
  399MOL0     H53846   2.489   9.868   6.862  1.9738 -0.3721  0.0228
  399MOL0     H53847   2.084  10.027   6.887 -0.5348  1.7377  0.3189
  399MOL0     H53848   1.854  10.050   6.860  0.0522 -1.1221 -0.5297
  399MOL0     H53849   1.481   9.539   7.643 -0.2961  0.4113  0.1608
  399MOL0     H53850   1.733   9.532   7.638 -0.7730  3.1961  2.4371
  399MOL0     H53851   2.034   9.518   7.613 -2.6969  2.4847 -1.6419
  399MOL0     H53852   2.238   9.496   7.748  1.9432 -0.5673 -0.4581
  399MOL0     H53853   2.536   9.497   7.673 -0.9082  0.2458 -0.0128
  399MOL0     H53854   2.459   9.477   7.827  1.6984 -1.9982 -1.1031
  399MOL0     H53855   2.709   9.639   7.804  2.5828  0.3046  3.0008
  399MOL0     H53856   2.702   9.469   7.839  0.0689 -0.1628 -2.9488
  399MOL0     H53857   2.565   9.513   8.042  0.9584  2.2826  1.0758
  399MOL0     H53858   2.552   9.679   8.010 -1.7178 -1.9246  1.3760
  399MOL0     H53859   2.796   9.509   8.072  1.5209  1.2295  3.1632
  399MOL0     H53860   2.822   9.675   8.016 -0.7923 -0.3831 -2.3544
  399MOL0     H53861   2.687   9.752   8.400 -0.5776  0.8608  1.2257
  399MOL0     H53862   2.400   9.855   7.604  2.1777 -3.4070  1.1783
  399MOL0     H53863   2.086  10.001   7.481  0.3460  0.2809 -3.1201
  399MOL0     H53864   2.254  10.024   7.526  1.7932  1.5503 -2.9845
  399MOL0     H53865   2.217   9.949   7.373 -2.0816 -0.2466 -0.6664
  400MOL0     O53866   8.965   4.457   5.625  0.1146  0.5425  0.6214
  400MOL0     C53867   8.979   4.504   5.512  0.2679  0.4849  0.1690
  400MOL0     O53868   9.020   4.628   5.477  0.3043  0.2961 -0.3171
  400MOL0     C53869   9.024   4.714   5.587  0.6462  0.3261  0.3891
  400MOL0     C53870   9.143   4.748   5.641  0.6365  0.6777  0.2379
  400MOL0     C53871   9.151   4.824   5.757  0.1064  0.9268  0.9150
  400MOL0     C53872   9.034   4.884   5.812  0.1993 -0.7855  1.3959
  400MOL0     O53873   9.064   4.987   5.897 -0.3762 -0.8074  0.3736
  400MOL0     C53874   8.965   5.037   5.987  0.9155  0.4398 -0.9442
  400MOL0     C53875   9.007   5.113   6.116 -0.0384  0.2294  0.2382
  400MOL0     C53876   9.068   5.253   6.085  0.4682 -0.4816  0.3913
  400MOL0     C53877   9.204   5.250   6.013 -0.1090  0.0647  0.1864
  400MOL0     C53878   9.186   5.291   5.862 -0.4825 -0.0429 -0.2547
  400MOL0     C53879   9.308   5.250   5.778 -0.2864 -0.2782  0.1261
  400MOL0     C53880   9.296   5.313   5.641  0.0569 -0.4656 -0.1707
  400MOL0     C53881   9.432   5.341   5.580  0.1605 -0.0727 -0.7804
  400MOL0     N53882   9.426   5.381   5.443 -0.5342 -0.2443 -0.0358
  400MOL0     C53883   9.359   5.324   5.338  0.4342  0.0443 -1.5596
  400MOL0     C53884   9.404   5.394   5.231  0.3931  0.7957  1.4465
  400MOL0     C53885   9.345   5.361   5.095  0.3902 -0.0167 -0.1574
  400MOL0     C53886   9.400   5.231   5.037  0.6325 -0.1904 -0.0432
  400MOL0     C53887   9.541   5.227   4.999  0.2661 -0.2108  0.6406
  400MOL0     C53888   9.579   5.085   4.950 -0.0659 -0.0182 -0.4422
  400MOL0     O53889   9.577   4.989   5.057  0.1601 -0.0957 -0.4011
  400MOL0     C53890   9.636   5.014   5.180  0.0762 -0.7034 -0.4126
  400MOL0     C53891   9.762   5.064   5.193 -0.3618 -0.8430  0.0267
  400MOL0     C53892   9.811   5.089   5.320 -0.3796  0.2367  0.1871
  400MOL0     C53893   9.734   5.054   5.434 -0.4271 -1.0929 -0.8041
  400MOL0     C53894   9.790   5.083   5.567 -0.0220 -0.7147  0.6051
  400MOL0     O53895   9.927   5.101   5.575 -0.2512  0.2106 -0.4918
  400MOL0     C53896   9.994   5.123   5.696  0.8851  0.4224  0.0760
  400MOL0     C53897   9.975   5.242   5.764  0.6927 -0.3622 -0.5877
  400MOL0     C53898  10.040   5.271   5.877 -0.9560 -0.4145 -0.4005
  400MOL0     C53899  10.133   5.185   5.933 -0.0646  1.0443  0.3559
  400MOL0     O53900  10.204   5.222   6.037 -0.6176  0.4739 -0.7782
  400MOL0     C53901  10.263   5.124   6.129 -0.2444  0.1650 -0.3944
  400MOL0     C53902  10.327   5.196   6.248 -0.3115 -0.6884 -0.5148
  400MOL0     C53903  10.357   5.101   6.365 -0.5257  0.3758 -0.0586
  400MOL0     C53904  10.383   5.183   6.498  0.2770 -0.5442 -0.7182
  400MOL0     C53905  10.460   5.095   6.599  0.3867  0.0237  0.4188
  400MOL0     C53906  10.487   5.200   6.719  0.0720 -0.8213  0.0363
  400MOL0     C53907  10.587   5.145   6.828  0.4972 -0.1763 -0.0805
  400MOL0     C53908  10.587   5.248   6.941 -0.6396 -1.2753  0.4392
  400MOL0    Cl53909  10.689   5.390   6.886 -0.3007 -0.2214 -0.0293
  400MOL0     C53910  10.145   5.056   5.868 -0.8065 -0.1083  0.5225
  400MOL0     C53911  10.084   5.032   5.744  0.0434  0.4012 -0.3037
  400MOL0     O53912   9.709   5.086   5.662 -0.2089 -0.2481 -0.0131
  400MOL0     C53913   9.611   4.983   5.424 -0.0600 -0.4375  0.8337
  400MOL0     C53914   9.564   4.971   5.292 -0.4232  0.0425 -0.5611
  400MOL0     N53915   9.492   5.489   5.264 -0.4023  0.5080 -0.2481
  400MOL0     N53916   9.501   5.481   5.389 -0.6824 -0.0620  0.4293
  400MOL0     C53917   8.916   4.837   5.763  0.8137 -1.0301  0.6274
  400MOL0     C53918   8.905   4.753   5.654  1.0222 -0.4261 -0.1476
  400MOL0     C53919   8.962   4.414   5.391 -0.9980 -0.6560  0.1471
  400MOL0     C53920   9.028   4.463   5.271 -0.1057  0.2146 -0.6314
  400MOL0     C53921   9.017   4.387   5.158  0.7554  0.1869  0.6469
  400MOL0     C53922   8.923   4.281   5.152 -1.2249 -0.3984 -0.1149
  400MOL0     O53923   8.903   4.235   5.022  0.0423  0.1039  0.0572
  400MOL0     C53924   8.814   4.132   4.989  0.5414 -0.5188 -0.0214
  400MOL0     C53925   8.876   3.999   5.027  1.0240  0.0094 -0.4301
  400MOL0     C53926   8.774   3.886   5.035  0.0049 -0.5869  0.3223
  400MOL0     C53927   8.840   3.760   5.072 -0.1605  0.1273 -0.0602
  400MOL0     C53928   8.878   3.765   5.217 -1.0878  0.4218  0.4448
  400MOL0     C53929   8.891   3.789   5.336  0.1942  0.3932 -0.2207
  400MOL0     C53930   8.856   4.239   5.270 -0.1970  0.5340 -0.2455
  400MOL0     C53931   8.884   4.297   5.392  0.0491  0.0321 -0.1755
  400MOL0     C53932   8.820   4.243   5.526 -0.5062 -0.7001 -0.4861
  400MOL0     H53933   9.233   4.710   5.592 -1.1055  0.6216 -3.1793
  400MOL0     H53934   9.251   4.856   5.783  0.5249 -0.9991  1.8823
  400MOL0     H53935   8.887   5.095   5.936 -1.7122 -1.8653  0.1684
  400MOL0     H53936   8.915   4.947   6.023  2.2343 -1.0502 -2.6791
  400MOL0     H53937   9.077   5.053   6.174 -1.0298 -3.0402 -1.6855
  400MOL0     H53938   8.918   5.117   6.180  0.8168 -0.6019  1.5134
  400MOL0     H53939   9.090   5.288   6.186 -0.3803  1.0442  0.0719
  400MOL0     H53940   9.000   5.323   6.036  4.4153  2.1536 -1.8669
  400MOL0     H53941   9.271   5.327   6.051  0.6266  0.0003 -0.9237
  400MOL0     H53942   9.247   5.152   6.035 -0.1999  0.6263  3.2749
  400MOL0     H53943   9.099   5.248   5.812 -1.1156  2.0898 -1.0822
  400MOL0     H53944   9.177   5.400   5.864  2.0478  0.2404 -0.6333
  400MOL0     H53945   9.394   5.287   5.834 -1.2783 -1.3723  2.5696
  400MOL0     H53946   9.315   5.141   5.778 -1.1973 -0.3444  0.1820
  400MOL0     H53947   9.240   5.407   5.647 -0.1452 -0.5665 -0.4405
  400MOL0     H53948   9.241   5.249   5.571  1.4072 -0.6869 -1.0666
  400MOL0     H53949   9.476   5.424   5.636  1.8600 -0.2268 -1.8242
  400MOL0     H53950   9.495   5.251   5.578  0.6599  0.2895 -2.0065
  400MOL0     H53951   9.271   5.260   5.343  0.9456 -0.6085 -0.4439
  400MOL0     H53952   9.236   5.366   5.103  0.5988  2.1647  3.0554
  400MOL0     H53953   9.374   5.450   5.038 -1.5892  2.6220  2.6468
  400MOL0     H53954   9.391   5.149   5.109  3.9112  0.2190  1.0010
  400MOL0     H53955   9.342   5.208   4.947  3.0155  1.2474 -2.0639
  400MOL0     H53956   9.610   5.259   5.077 -0.9489 -2.2857  2.7287
  400MOL0     H53957   9.554   5.297   4.916  1.2805 -1.2210 -0.0825
  400MOL0     H53958   9.681   5.082   4.911  0.6514  2.9328  0.9124
  400MOL0     H53959   9.514   5.052   4.869  0.4374 -3.0673  0.3040
  400MOL0     H53960   9.826   5.080   5.107  1.3765 -1.5590  1.1332
  400MOL0     H53961   9.912   5.128   5.328  0.3887 -1.9972  2.7940
  400MOL0     H53962   9.905   5.310   5.716 -0.5022 -0.2710  1.2093
  400MOL0     H53963  10.034   5.368   5.926  2.4731  1.5964 -3.5039
  400MOL0     H53964  10.173   5.073   6.162 -2.0452  3.7657  0.7376
  400MOL0     H53965  10.320   5.048   6.074 -1.1767  0.2420 -1.5034
  400MOL0     H53966  10.416   5.240   6.202 -1.4885  3.0045  0.4308
  400MOL0     H53967  10.265   5.277   6.286 -1.4149 -0.9715 -1.6477
  400MOL0     H53968  10.278   5.027   6.379 -1.2536  0.6609 -2.2451
  400MOL0     H53969  10.445   5.043   6.333 -1.6291 -1.1908 -0.3899
  400MOL0     H53970  10.292   5.230   6.535  1.8807  3.2502 -1.1861
  400MOL0     H53971  10.453   5.262   6.469 -2.8317  2.1855 -1.2799
  400MOL0     H53972  10.546   5.054   6.546 -0.7852 -0.0751 -1.5256
  400MOL0     H53973  10.401   5.007   6.627 -1.3353  1.4027  1.4018
  400MOL0     H53974  10.531   5.293   6.681  0.2586 -1.1583 -0.5791
  400MOL0     H53975  10.393   5.240   6.757  1.2123  3.2624 -0.8776
  400MOL0     H53976  10.687   5.145   6.784 -0.8707 -0.5201 -3.4865
  400MOL0     H53977  10.549   5.050   6.868 -0.3204  0.2205  0.1177
  400MOL0     H53978  10.484   5.273   6.970  0.3863  0.4513  2.8858
  400MOL0     H53979  10.623   5.208   7.036 -0.4069  1.2067  1.4531
  400MOL0     H53980  10.188   4.973   5.923 -0.6355  1.3114  2.6425
  400MOL0     H53981  10.086   4.939   5.688 -0.9750  2.1575 -3.4964
  400MOL0     H53982   9.573   4.937   5.515  2.2426 -2.3831  0.9108
  400MOL0     H53983   9.475   4.918   5.260 -0.5608 -0.0564 -0.0226
  400MOL0     H53984   8.828   4.877   5.812  1.5054 -0.6532  1.5898
  400MOL0     H53985   8.807   4.725   5.617 -0.9417  2.7463  2.1591
  400MOL0     H53986   9.084   4.555   5.265  0.3103  0.1171  1.2750
  400MOL0     H53987   9.077   4.419   5.074  0.6607 -2.1691 -0.3810
  400MOL0     H53988   8.791   4.128   4.882 -0.5508 -2.2650  0.2350
  400MOL0     H53989   8.714   4.153   5.027 -1.3502 -3.5232 -2.7781
  400MOL0     H53990   8.930   3.998   5.123  1.2393 -0.5983 -0.5535
  400MOL0     H53991   8.956   3.983   4.954  2.4264  0.8105  0.8510
  400MOL0     H53992   8.748   3.875   4.929  0.7235  1.0070 -0.0547
  400MOL0     H53993   8.693   3.903   5.107  0.4937 -1.3389  1.0590
  400MOL0     H53994   8.771   3.677   5.054 -1.3861  1.3223 -1.0839
  400MOL0     H53995   8.924   3.742   5.005 -0.8830 -0.6390 -0.7826
  400MOL0     H53996   8.890   3.813   5.441  1.7844 -0.6292  0.0807
  400MOL0     H53997   8.787   4.156   5.254 -0.8847  0.8412  1.0287
  400MOL0     H53998   8.902   4.199   5.584  0.5597 -0.7083 -1.9508
  400MOL0     H53999   8.765   4.324   5.576 -1.3017 -0.1354 -2.2215
  400MOL0     H54000   8.749   4.166   5.496  0.1273 -0.5051 -2.5901
  401MOL0     O54001   8.088   8.854   8.105 -0.4497  0.4030 -0.3035
  401MOL0     C54002   8.058   8.815   8.218  0.0041 -1.0440  0.1064
  401MOL0     O54003   7.978   8.886   8.302  0.5480  0.7159 -0.2890
  401MOL0     C54004   7.919   9.000   8.245  0.6405 -0.1028  0.5812
  401MOL0     C54005   7.833   9.000   8.132  0.0210 -0.4030 -0.6647
  401MOL0     C54006   7.769   9.113   8.086  0.2452 -1.1577 -0.0317
  401MOL0     C54007   7.784   9.234   8.149  0.1620 -0.2180 -0.2113
  401MOL0     O54008   7.748   9.354   8.098  0.9716 -0.1830  0.5558
  401MOL0     C54009   7.785   9.367   7.959 -0.3601  0.1646 -0.1974
  401MOL0     C54010   7.791   9.512   7.920 -0.5357  0.5195 -0.0370
  401MOL0     C54011   7.893   9.601   8.008 -0.2596 -0.8414  0.0380
  401MOL0     C54012   7.897   9.741   7.941  0.6694  0.7642 -0.4741
  401MOL0     C54013   7.965   9.856   8.027 -0.5655 -0.0920  0.4071
  401MOL0     C54014   8.010   9.977   7.931 -0.5215  0.0693  0.6601
  401MOL0     C54015   7.890  10.054   7.862 -0.9513 -0.5550 -0.4405
  401MOL0     C54016   7.934  10.177   7.780  0.0187  0.2707 -0.4980
  401MOL0     N54017   8.003  10.284   7.859  0.8947 -0.4194  0.0399
  401MOL0     C54018   8.136  10.295   7.884  0.8071 -0.0133  0.6510
  401MOL0     C54019   8.150  10.393   7.972  0.6118 -0.8620 -1.2169
  401MOL0     C54020   8.283  10.435   8.029  0.4263  0.5747 -1.2485
  401MOL0     C54021   8.270  10.426   8.187  1.1427  0.4316 -0.5817
  401MOL0     C54022   8.392  10.484   8.254 -0.5423 -0.2043 -0.7359
  401MOL0     C54023   8.527  10.393   8.259  0.6207 -0.1344  0.4671
  401MOL0     O54024   8.576  10.362   8.129 -0.3595  0.2745 -0.3111
  401MOL0     C54025   8.689  10.430   8.090 -0.3991  0.4294  0.6994
  401MOL0     C54026   8.701  10.565   8.097 -0.8358 -0.5739  0.0327
  401MOL0     C54027   8.818  10.631   8.043 -0.2311  0.7411 -0.1959
  401MOL0     C54028   8.938  10.565   8.008  0.0096  0.0809  0.2850
  401MOL0     C54029   9.060  10.634   7.974  0.0156  0.1838  0.8930
  401MOL0     O54030   9.177  10.558   7.949 -0.1505 -0.0772 -0.3879
  401MOL0     C54031   9.284  10.625   7.895 -0.1764 -0.3670  0.8255
  401MOL0     C54032   9.391  10.654   7.975 -0.6403  0.2543 -0.1594
  401MOL0     C54033   9.515  10.697   7.916  0.2754  0.0884  0.0655
  401MOL0     C54034   9.525  10.716   7.776 -0.4398  0.1583 -1.2026
  401MOL0     O54035   9.654  10.744   7.737 -0.9628 -0.2054  0.4239
  401MOL0     C54036   9.680  10.707   7.593 -0.9749  0.0481 -0.5134
  401MOL0     C54037   9.831  10.752   7.566  0.4854 -0.1581  0.6033
  401MOL0     C54038   9.935  10.695   7.659 -0.1062 -0.8020  0.4449
  401MOL0     C54039   9.975  10.549   7.629  0.9819 -0.3691 -0.8545
  401MOL0     C54040  10.083  10.497   7.736  0.4117 -0.2756 -0.4065
  401MOL0     C54041  10.125  10.358   7.713  0.6090  0.4056  0.5994
  401MOL0     C54042  10.268  10.356   7.775 -0.1242 -0.3155 -0.4656
  401MOL0     C54043  10.309  10.220   7.818  0.3014 -0.4051 -0.2427
  401MOL0    Cl54044  10.482  10.234   7.873  0.4020 -0.0430  0.2996
  401MOL0     C54045   9.411  10.699   7.697  0.1860 -0.7034 -0.1263
  401MOL0     C54046   9.293  10.652   7.753  0.2536  0.0558  0.4411
  401MOL0     O54047   9.056  10.754   7.965 -0.4979 -0.0595 -1.1968
  401MOL0     C54048   8.919  10.423   7.996 -0.7234 -0.1570 -0.8590
  401MOL0     C54049   8.804  10.360   8.030  0.4962  0.2277  0.8310
  401MOL0     N54050   8.031  10.453   7.987  0.3178 -0.0026  0.1190
  401MOL0     N54051   7.936  10.386   7.928  0.4409 -0.3229  0.4032
  401MOL0     C54052   7.858   9.242   8.266  0.4129  0.8477 -0.3625
  401MOL0     C54053   7.926   9.125   8.317  0.1465 -0.9852 -0.1596
  401MOL0     C54054   8.100   8.675   8.243 -0.3402 -0.1988  0.1709
  401MOL0     C54055   8.230   8.639   8.202 -0.0458  0.3678  0.1009
  401MOL0     C54056   8.289   8.521   8.243 -0.7094  0.1948  0.3183
  401MOL0     C54057   8.219   8.423   8.324  1.4049 -0.6921  0.0469
  401MOL0     O54058   8.264   8.306   8.366  0.4684  0.1699 -0.6215
  401MOL0     C54059   8.393   8.251   8.326 -0.2844 -0.1854 -0.7724
  401MOL0     C54060   8.390   8.184   8.185 -0.8762  1.2604  0.1264
  401MOL0     C54061   8.304   8.053   8.178 -0.3785  0.6553 -0.2402
  401MOL0     C54062   8.344   7.949   8.283  0.0820 -0.3186  0.1848
  401MOL0     C54063   8.479   7.907   8.260  0.2790  0.7487  0.2232
  401MOL0     C54064   8.591   7.887   8.217  0.0242 -0.3003 -0.7103
  401MOL0     C54065   8.089   8.455   8.365  0.1771  0.2075 -0.1692
  401MOL0     C54066   8.029   8.578   8.324 -1.1070 -0.5759 -0.7645
  401MOL0     C54067   7.898   8.592   8.397  0.1323  0.2570  0.2240
  401MOL0     H54068   7.819   8.900   8.094 -2.0225 -0.6166  0.5252
  401MOL0     H54069   7.699   9.096   8.005 -2.2777  2.5565  1.1592
  401MOL0     H54070   7.877   9.311   7.941  1.1173  2.0596  1.0530
  401MOL0     H54071   7.712   9.309   7.902 -1.2486  2.3132 -1.3647
  401MOL0     H54072   7.692   9.556   7.927 -1.5457 -0.8913 -3.2856
  401MOL0     H54073   7.814   9.518   7.813  4.7358  0.2132  0.8010
  401MOL0     H54074   8.000   9.582   8.012 -0.6050 -2.6662  2.0185
  401MOL0     H54075   7.873   9.609   8.115 -0.9461  4.2186 -0.2191
  401MOL0     H54076   7.939   9.737   7.839 -1.6613  0.7784 -1.4912
  401MOL0     H54077   7.796   9.775   7.916  0.8522  0.9309 -1.0007
  401MOL0     H54078   7.894   9.885   8.105 -0.3306 -1.1867  1.0584
  401MOL0     H54079   8.050   9.814   8.083  0.4562  0.0144 -1.0044
  401MOL0     H54080   8.079  10.046   7.981  0.7446  0.8085 -1.9354
  401MOL0     H54081   8.061   9.943   7.841 -0.5465  0.3050  0.5541
  401MOL0     H54082   7.811  10.079   7.933  0.5680 -1.0678  1.5225
  401MOL0     H54083   7.851   9.988   7.784 -0.9767 -0.8917 -0.1445
  401MOL0     H54084   8.005  10.167   7.698  0.0279 -1.3358 -0.3125
  401MOL0     H54085   7.842  10.223   7.744  0.1285  0.8450 -0.0722
  401MOL0     H54086   8.211  10.226   7.847 -0.7973 -2.2157  1.2755
  401MOL0     H54087   8.358  10.371   7.982  0.4761 -0.6644  0.4205
  401MOL0     H54088   8.308  10.538   8.004  3.6075 -0.0865 -1.2410
  401MOL0     H54089   8.178  10.483   8.203 -0.4898 -1.6838 -1.7600
  401MOL0     H54090   8.251  10.324   8.224  1.6958  0.0861 -1.2210
  401MOL0     H54091   8.355  10.511   8.353 -1.0287 -1.5585 -0.5368
  401MOL0     H54092   8.418  10.583   8.214  0.4440 -0.0072  0.3461
  401MOL0     H54093   8.509  10.296   8.306  3.4077 -0.0643  1.8964
  401MOL0     H54094   8.590  10.438   8.336 -2.4105  0.2771  2.8889
  401MOL0     H54095   8.625  10.621   8.152  2.7945  3.3605  1.6208
  401MOL0     H54096   8.823  10.737   8.020 -3.9232  0.7325 -1.8073
  401MOL0     H54097   9.386  10.639   8.082 -1.4448 -0.4983 -0.2945
  401MOL0     H54098   9.597  10.714   7.985  1.9345 -1.3986 -1.4674
  401MOL0     H54099   9.664  10.601   7.573 -2.7286 -0.0434  1.0408
  401MOL0     H54100   9.627  10.773   7.524 -1.2031  1.4673  0.9556
  401MOL0     H54101   9.855  10.722   7.463  0.8640 -1.3991  1.0362
  401MOL0     H54102   9.835  10.861   7.559  0.2539 -0.2464 -2.1887
  401MOL0     H54103  10.026  10.753   7.642 -1.3596  1.4707  1.2048
  401MOL0     H54104   9.905  10.700   7.764  1.3010 -0.0833  0.8329
  401MOL0     H54105  10.003  10.547   7.524 -0.5027  1.2453 -1.3448
  401MOL0     H54106   9.881  10.493   7.630  1.6535 -1.5797 -2.3908
  401MOL0     H54107  10.041  10.502   7.837  1.1661 -2.8276  0.0969
  401MOL0     H54108  10.175  10.554   7.722  1.2635 -1.1354  1.2886
  401MOL0     H54109  10.064  10.288   7.770  1.3899 -2.1779 -1.5204
  401MOL0     H54110  10.114  10.332   7.607 -1.3122  0.0874  0.8431
  401MOL0     H54111  10.259  10.422   7.862 -0.8806 -0.0715 -0.7195
  401MOL0     H54112  10.338  10.394   7.699 -0.2174 -4.1387 -2.7155
  401MOL0     H54113  10.244  10.187   7.899  0.1542  1.4309  0.4385
  401MOL0     H54114  10.309  10.147   7.737  1.1548 -0.5217 -0.1490
  401MOL0     H54115   9.410  10.709   7.589 -2.7491  1.4848 -0.0239
  401MOL0     H54116   9.215  10.624   7.684 -0.1575 -0.1125  0.9724
  401MOL0     H54117   8.994  10.357   7.955 -1.0271 -1.3214  0.3988
  401MOL0     H54118   8.799  10.254   8.006 -0.0412  0.6044 -0.8665
  401MOL0     H54119   7.872   9.334   8.322  0.5204  0.0006  1.0335
  401MOL0     H54120   7.981   9.137   8.410 -2.3462 -0.1043  1.2939
  401MOL0     H54121   8.291   8.703   8.139  1.9695 -4.3768 -3.3774
  401MOL0     H54122   8.390   8.500   8.208  0.0781  0.7883  2.1186
  401MOL0     H54123   8.426   8.177   8.400 -0.7055  2.4446  2.2808
  401MOL0     H54124   8.458   8.339   8.334 -0.9976  0.3909 -1.2040
  401MOL0     H54125   8.491   8.157   8.153 -1.1161  1.2469 -0.6424
  401MOL0     H54126   8.342   8.263   8.127 -0.3812  1.0828 -0.5347
  401MOL0     H54127   8.314   8.002   8.082 -0.4324 -2.1230  1.1132
  401MOL0     H54128   8.196   8.064   8.190 -0.4422 -0.8510  0.8457
  401MOL0     H54129   8.333   7.997   8.381 -1.9258  0.1974 -0.2386
  401MOL0     H54130   8.270   7.868   8.283 -1.5558  1.1047 -1.0865
  401MOL0     H54131   8.686   7.843   8.193 -0.8350 -1.9928 -1.1548
  401MOL0     H54132   8.031   8.386   8.425  1.9111  1.3726  3.0983
  401MOL0     H54133   7.907   8.561   8.501 -3.7885  1.4597  1.0642
  401MOL0     H54134   7.857   8.694   8.397 -0.1590  0.1448  0.9883
  401MOL0     H54135   7.824   8.536   8.339  1.1030  0.3618 -1.1807
  402MOL0     O54136   8.215   9.828   1.392 -0.5885 -0.0168 -0.0120
  402MOL0     C54137   8.098   9.810   1.355  0.2489 -0.0247 -0.6512
  402MOL0     O54138   8.055   9.759   1.235 -0.6593  0.6605  0.9388
  402MOL0     C54139   8.126   9.771   1.115 -0.4200  0.6254 -0.9767
  402MOL0     C54140   8.189   9.888   1.072 -0.2666  1.0161 -0.4276
  402MOL0     C54141   8.263   9.889   0.955  0.9685  0.3382  0.0991
  402MOL0     C54142   8.271   9.775   0.871  0.7514  2.0203 -0.6529
  402MOL0     O54143   8.334   9.765   0.754  0.1310  0.0462  0.5186
  402MOL0     C54144   8.369   9.876   0.673 -1.4662  0.4259 -1.5696
  402MOL0     C54145   8.502   9.937   0.707 -0.3200 -0.0041  0.5286
  402MOL0     C54146   8.617   9.847   0.675  0.8053  0.5039 -0.4439
  402MOL0     C54147   8.687   9.807   0.803 -1.0616 -0.3044 -0.0410
  402MOL0     C54148   8.803   9.709   0.788  0.1410 -0.2859  1.1762
  402MOL0     C54149   8.926   9.792   0.746 -0.3216 -0.4827  0.1193
  402MOL0     C54150   9.045   9.698   0.734 -0.1921  0.1038  0.7733
  402MOL0     C54151   9.106   9.665   0.869  0.5887 -0.0308 -0.6464
  402MOL0     N54152   9.213   9.571   0.846  0.8533  0.3552  0.2756
  402MOL0     C54153   9.344   9.610   0.835 -0.0693 -0.7260 -0.2307
  402MOL0     C54154   9.409   9.490   0.827  0.7381  0.0375 -0.6887
  402MOL0     C54155   9.551   9.484   0.826  0.7603  0.0718 -0.0982
  402MOL0     C54156   9.618   9.374   0.906  0.2630  0.0046  0.3149
  402MOL0     C54157   9.606   9.382   1.058 -0.2837 -0.8445  0.3467
  402MOL0     C54158   9.670   9.273   1.139 -0.8216  0.3234  0.4977
  402MOL0     O54159   9.812   9.256   1.136 -0.8742  0.5682  0.2556
  402MOL0     C54160   9.849   9.130   1.181 -0.4180 -0.0448 -0.6128
  402MOL0     C54161   9.981   9.081   1.168 -1.3304 -1.5489 -0.0677
  402MOL0     C54162  10.031   8.955   1.208  0.1815  0.3192  0.2926
  402MOL0     C54163   9.945   8.856   1.254  0.9416  0.6154 -0.0564
  402MOL0     C54164   9.989   8.714   1.292  0.4018 -0.5340  0.0445
  402MOL0     O54165  10.129   8.697   1.293 -0.1385 -0.3219  0.1778
  402MOL0     C54166  10.196   8.596   1.353  0.7116  0.4855 -0.5026
  402MOL0     C54167  10.147   8.491   1.439 -0.1727  0.2495  0.0341
  402MOL0     C54168  10.226   8.394   1.513 -0.7277  0.0111  0.8601
  402MOL0     C54169  10.361   8.408   1.497 -1.1570 -0.3210  0.0452
  402MOL0     O54170  10.453   8.309   1.530 -0.1756  0.2094 -0.2575
  402MOL0     C54171  10.406   8.179   1.489 -0.4939 -0.1983  0.0749
  402MOL0     C54172  10.520   8.084   1.513  0.1694  0.0901  1.3365
  402MOL0     C54173  10.474   7.948   1.459  0.0975 -0.8381 -1.1184
  402MOL0     C54174  10.582   7.848   1.498  0.4240  0.0975 -0.2042
  402MOL0     C54175  10.700   7.836   1.408  0.4902 -1.0939  0.3132
  402MOL0     C54176  10.823   7.769   1.480  0.4119 -0.5539 -0.3806
  402MOL0     C54177  10.942   7.735   1.391 -0.6840  0.2183 -0.1285
  402MOL0     C54178  11.047   7.646   1.452  0.0489  0.0727  0.2196
  402MOL0    Cl54179  11.154   7.713   1.576 -0.0826 -0.2363 -0.2152
  402MOL0     C54180  10.415   8.511   1.411  0.5194 -0.1407  0.0856
  402MOL0     C54181  10.331   8.593   1.341 -0.2111 -0.2300 -0.5314
  402MOL0     O54182   9.905   8.630   1.304  0.4032  0.4214 -0.5171
  402MOL0     C54183   9.816   8.905   1.275  0.5794  0.6846  0.0481
  402MOL0     C54184   9.774   9.033   1.242  1.0634  0.1506 -0.1115
  402MOL0     N54185   9.319   9.389   0.836  0.0622  0.7226 -0.4486
  402MOL0     N54186   9.204   9.436   0.850 -0.0736 -0.0129  0.5995
  402MOL0     C54187   8.203   9.659   0.909 -0.5495  0.3502 -1.1171
  402MOL0     C54188   8.137   9.657   1.034 -0.6764  0.4814  0.4397
  402MOL0     C54189   7.984   9.838   1.454 -0.3097  0.6505  0.4362
  402MOL0     C54190   7.857   9.850   1.393  0.0181 -0.1723  0.4502
  402MOL0     C54191   7.746   9.875   1.466 -0.5198 -0.2079 -0.4840
  402MOL0     C54192   7.758   9.906   1.608  0.3149  0.5017  0.6195
  402MOL0     O54193   7.652   9.942   1.688  0.2251  0.7971 -0.1816
  402MOL0     C54194   7.528   9.972   1.633  0.2351 -0.0195 -0.3874
  402MOL0     C54195   7.408  10.007   1.736 -0.4063  0.9172  0.8634
  402MOL0     C54196   7.442  10.141   1.801  0.0513  0.2917 -0.1997
  402MOL0     C54197   7.584  10.154   1.869  0.4890 -0.2901  0.0992
  402MOL0     C54198   7.590  10.287   1.932 -0.9759 -0.7968 -0.7591
  402MOL0     C54199   7.576  10.404   1.977  0.2216 -0.3304 -0.2203
  402MOL0     C54200   7.882   9.885   1.667  0.7172 -0.0577  0.0029
  402MOL0     C54201   7.999   9.859   1.596 -0.7691  0.5233 -0.0508
  402MOL0     C54202   8.129   9.847   1.671 -0.0204 -0.0517 -0.6832
  402MOL0     H54203   8.195   9.968   1.145  1.7711  0.1585  0.4294
  402MOL0     H54204   8.319   9.980   0.937  1.9565 -0.1209  0.7497
  402MOL0     H54205   8.360   9.844   0.569  0.0495 -0.2137 -1.5278
  402MOL0     H54206   8.294   9.956   0.678  1.4339  3.2516 -0.2736
  402MOL0     H54207   8.496   9.954   0.814 -1.7685  0.8791  0.3236
  402MOL0     H54208   8.521  10.028   0.649  0.8031  0.3201  1.3661
  402MOL0     H54209   8.690   9.890   0.606  2.4992 -2.4088 -0.6501
  402MOL0     H54210   8.593   9.749   0.633  2.7454 -0.7600  1.1756
  402MOL0     H54211   8.733   9.893   0.851  0.1569  0.8568 -3.0344
  402MOL0     H54212   8.605   9.775   0.867 -0.8254  1.3221  1.1195
  402MOL0     H54213   8.831   9.656   0.879  1.8639 -1.2014  0.1664
  402MOL0     H54214   8.779   9.637   0.709  2.7462 -0.8070  0.7623
  402MOL0     H54215   8.909   9.844   0.651 -1.1886  2.6281  1.8333
  402MOL0     H54216   8.954   9.870   0.818  0.3743  1.2761 -1.9209
  402MOL0     H54217   9.118   9.750   0.671  1.7854  0.8388  3.4790
  402MOL0     H54218   9.007   9.608   0.686 -2.5975  1.3198  0.2174
  402MOL0     H54219   9.130   9.757   0.924 -0.7546 -0.4467  0.7098
  402MOL0     H54220   9.035   9.620   0.939 -0.8570  1.5912 -0.9765
  402MOL0     H54221   9.393   9.703   0.808  3.5736 -1.6309  2.5582
  402MOL0     H54222   9.585   9.473   0.722 -3.5049 -0.0835 -1.6761
  402MOL0     H54223   9.588   9.573   0.878 -0.8641 -1.9381  5.1422
  402MOL0     H54224   9.576   9.277   0.878 -0.0923  0.0347  0.7406
  402MOL0     H54225   9.724   9.379   0.881  0.5749 -0.5448  1.4561
  402MOL0     H54226   9.500   9.385   1.086  0.1088 -1.6915  2.0680
  402MOL0     H54227   9.650   9.480   1.080  0.6510 -0.9011 -1.1185
  402MOL0     H54228   9.618   9.181   1.113  1.1268 -0.6014 -0.3181
  402MOL0     H54229   9.632   9.290   1.240 -2.9389 -0.5775 -0.1067
  402MOL0     H54230  10.042   9.147   1.106 -2.8808  0.0704  0.0686
  402MOL0     H54231  10.137   8.937   1.196 -0.0596 -1.7686  0.9082
  402MOL0     H54232  10.040   8.486   1.455 -0.0925 -0.4834  0.3730
  402MOL0     H54233  10.199   8.316   1.584  2.5314  0.3956  2.7160
  402MOL0     H54234  10.320   8.141   1.546 -0.2594 -0.3641  0.3163
  402MOL0     H54235  10.381   8.170   1.382 -2.3035 -0.0650  0.4427
  402MOL0     H54236  10.613   8.123   1.472 -1.5219  5.9729  2.2413
  402MOL0     H54237  10.537   8.075   1.621  2.5211 -1.8684  0.8978
  402MOL0     H54238  10.382   7.921   1.512 -0.1313  0.5125 -0.7963
  402MOL0     H54239  10.452   7.939   1.352  1.4194 -0.3323 -1.4488
  402MOL0     H54240  10.535   7.749   1.498 -2.7284  1.4262  1.9147
  402MOL0     H54241  10.612   7.866   1.601  0.0519  1.3074 -0.2966
  402MOL0     H54242  10.736   7.937   1.387 -0.7253  0.0213  3.0791
  402MOL0     H54243  10.675   7.783   1.316 -0.1947  1.7095 -1.2338
  402MOL0     H54244  10.864   7.839   1.553  0.0430  1.0533 -1.6704
  402MOL0     H54245  10.786   7.682   1.536  1.4345 -0.5408  0.3331
  402MOL0     H54246  10.987   7.829   1.359 -1.0294  0.2583 -0.5014
  402MOL0     H54247  10.899   7.688   1.303 -0.7463 -1.2240  0.6365
  402MOL0     H54248  11.008   7.553   1.495 -0.5808  0.2724  0.0830
  402MOL0     H54249  11.114   7.615   1.371 -0.9262  3.5234 -2.1022
  402MOL0     H54250  10.523   8.518   1.399  0.5586 -2.2035 -1.2265
  402MOL0     H54251  10.371   8.669   1.275 -0.0347 -0.9304 -1.2436
  402MOL0     H54252   9.746   8.836   1.322  3.9241 -1.4041  2.4442
  402MOL0     H54253   9.669   9.049   1.262  0.9286 -0.9121  0.1278
  402MOL0     H54254   8.207   9.565   0.854  3.0155 -0.7022  0.6729
  402MOL0     H54255   8.089   9.563   1.061  1.8742 -1.3957 -1.0249
  402MOL0     H54256   7.843   9.845   1.285 -2.2107  2.0734  0.5382
  402MOL0     H54257   7.655   9.890   1.409 -0.7921  1.0038  0.2609
  402MOL0     H54258   7.487   9.882   1.587  1.5080 -0.0072 -1.6224
  402MOL0     H54259   7.559  10.052   1.565  0.5261 -1.0482 -1.5194
  402MOL0     H54260   7.380   9.933   1.812  1.1099 -0.2310  0.3495
  402MOL0     H54261   7.317  10.025   1.677 -0.4860  0.5201  0.8589
  402MOL0     H54262   7.365  10.162   1.877 -0.3024  1.9597 -0.9713
  402MOL0     H54263   7.429  10.217   1.723  1.4189 -0.0052 -0.7348
  402MOL0     H54264   7.595  10.063   1.928 -3.9842 -1.9841 -1.3089
  402MOL0     H54265   7.661  10.154   1.790  1.9404 -0.9028  1.4546
  402MOL0     H54266   7.575  10.509   1.999  1.4221 -0.2066 -0.7036
  402MOL0     H54267   7.873   9.893   1.775 -2.6654  1.1426 -0.2426
  402MOL0     H54268   8.188   9.760   1.641 -1.3880 -1.4732  0.6346
  402MOL0     H54269   8.177   9.946   1.671 -1.9747  1.0219  2.4999
  402MOL0     H54270   8.112   9.822   1.776  3.0024 -1.2597 -0.3720
  403MOL0     O54271   0.867   0.605   6.693 -0.1106 -0.5616 -0.1457
  403MOL0     C54272   0.819   0.497   6.664 -0.2818 -0.0449  0.7076
  403MOL0     O54273   0.882   0.376   6.648  0.2310 -0.3937 -0.9186
  403MOL0     C54274   1.016   0.376   6.691 -0.0393  0.6038  0.3148
  403MOL0     C54275   1.052   0.416   6.815  0.0369  0.2806  0.2257
  403MOL0     C54276   1.185   0.425   6.861  0.1007  0.2173  0.2269
  403MOL0     C54277   1.287   0.390   6.775  0.0799 -0.4391 -0.3791
  403MOL0     O54278   1.415   0.403   6.812  0.3286 -0.0874  0.4157
  403MOL0     C54279   1.486   0.395   6.939 -0.0605  0.4056  0.0699
  403MOL0     C54280   1.635   0.433   6.936 -0.0734  0.2063 -0.4694
  403MOL0     C54281   1.697   0.434   7.084  0.0415 -0.3687 -0.1093
  403MOL0     C54282   1.846   0.464   7.067 -0.4002 -0.2540 -0.5453
  403MOL0     C54283   1.904   0.518   7.199 -0.3104 -0.6152 -0.0612
  403MOL0     C54284   2.053   0.524   7.202 -0.2681  0.7956 -0.9010
  403MOL0     C54285   2.110   0.551   7.334 -1.8651  0.2854  0.9666
  403MOL0     C54286   2.065   0.686   7.381 -0.0017 -0.8146  0.0005
  403MOL0     N54287   2.123   0.711   7.521  0.6147  0.2997  0.5736
  403MOL0     C54288   2.253   0.723   7.553 -0.4526 -0.6252  1.1087
  403MOL0     C54289   2.256   0.757   7.689 -0.2983 -0.2525 -0.5935
  403MOL0     C54290   2.384   0.755   7.772  0.4505 -0.1459 -0.6098
  403MOL0     C54291   2.509   0.739   7.677 -0.5553 -0.4558 -0.1026
  403MOL0     C54292   2.633   0.746   7.772  0.2056  0.3632 -0.0373
  403MOL0     C54293   2.765   0.738   7.710 -0.2719  0.2914  0.4827
  403MOL0     O54294   2.865   0.777   7.807  0.5054 -0.1304 -0.0423
  403MOL0     C54295   2.998   0.739   7.782  0.3869  0.0361 -0.1925
  403MOL0     C54296   3.058   0.690   7.668  0.2886 -0.3563  0.1939
  403MOL0     C54297   3.198   0.666   7.658  0.9172 -0.1053 -0.1047
  403MOL0     C54298   3.284   0.686   7.771  0.4719 -0.9885 -0.3074
  403MOL0     C54299   3.427   0.649   7.765 -0.1305 -0.8166 -0.9455
  403MOL0     O54300   3.503   0.634   7.886  0.3605  0.2466  0.4924
  403MOL0     C54301   3.641   0.603   7.896  0.5992 -0.2488 -0.4430
  403MOL0     C54302   3.692   0.514   7.803  0.2421 -0.4317 -0.0435
  403MOL0     C54303   3.815   0.463   7.826 -0.2175 -0.0423 -0.3825
  403MOL0     C54304   3.887   0.466   7.950  1.2171 -0.4090 -0.3306
  403MOL0     O54305   4.003   0.398   7.980  0.1143 -0.0545  0.7624
  403MOL0     C54306   4.072   0.316   7.889 -0.1925 -0.2065 -0.0605
  403MOL0     C54307   4.204   0.267   7.949 -0.2327  0.5394 -0.0884
  403MOL0     C54308   4.276   0.172   7.858 -0.4400 -0.5146  0.0489
  403MOL0     C54309   4.405   0.124   7.928  0.7428 -0.1384  0.6966
  403MOL0     C54310   4.515   0.060   7.836  0.4272  0.6294 -0.7070
  403MOL0     C54311   4.636   0.017   7.914 -0.3451 -0.0070 -0.7181
  403MOL0     C54312   4.757   0.099   7.882 -0.6712 -0.0540 -0.4064
  403MOL0     C54313   4.879  -0.005   7.878 -0.7595 -0.3401  0.9309
  403MOL0    Cl54314   5.014   0.092   7.951 -0.5380  0.1192  0.0595
  403MOL0     C54315   3.824   0.543   8.051  1.1680  0.0327 -0.6170
  403MOL0     C54316   3.708   0.621   8.016  0.4069 -0.4233 -0.2870
  403MOL0     O54317   3.474   0.631   7.654 -0.3569 -0.2231 -0.1312
  403MOL0     C54318   3.229   0.734   7.895  0.4449  0.2099  0.2742
  403MOL0     C54319   3.084   0.754   7.888  0.1154  0.3126 -0.2183
  403MOL0     N54320   2.124   0.770   7.729  0.1106  0.5894 -0.1128
  403MOL0     N54321   2.048   0.739   7.628  0.2068 -0.6573 -0.1622
  403MOL0     C54322   1.255   0.353   6.646  0.5847  0.7622  0.4569
  403MOL0     C54323   1.122   0.336   6.603  0.0289  0.3007  0.5020
  403MOL0     C54324   0.671   0.493   6.626  1.1567  0.6625 -1.2585
  403MOL0     C54325   0.608   0.368   6.603 -1.3432  0.2509 -0.6969
  403MOL0     C54326   0.465   0.358   6.575  0.2508 -0.7105 -0.7392
  403MOL0     C54327   0.386   0.475   6.593 -0.2743  0.0881 -0.3635
  403MOL0     O54328   0.252   0.468   6.605 -0.2186 -0.4681  0.1194
  403MOL0     C54329   0.176   0.374   6.535 -0.2516  0.2113 -0.3725
  403MOL0     C54330   0.142   0.449   6.409  0.7717  0.6638 -0.4179
  403MOL0     C54331   0.058   0.359   6.324 -0.5555  0.4089 -0.0042
  403MOL0     C54332   0.129   0.256   6.241  0.0651 -0.9113  0.5573
  403MOL0     C54333   0.197   0.310   6.130 -0.6980 -0.0608 -0.2223
  403MOL0     C54334   0.252   0.342   6.027  0.0571 -0.6406  0.1160
  403MOL0     C54335   0.446   0.597   6.612 -0.1646  0.0071 -0.1476
  403MOL0     C54336   0.583   0.610   6.632  0.3402 -0.2062  0.0712
  403MOL0     C54337   0.628   0.752   6.647  0.5441 -0.1055  0.7310
  403MOL0     H54338   0.981   0.444   6.893 -2.1823 -1.4477 -1.0479
  403MOL0     H54339   1.217   0.447   6.962  1.7291  1.6272 -0.5362
  403MOL0     H54340   1.431   0.467   7.001 -0.4355 -0.5512  0.8795
  403MOL0     H54341   1.474   0.300   6.992 -4.8139  0.4076 -0.4930
  403MOL0     H54342   1.659   0.527   6.885  3.8791 -0.9324 -1.0489
  403MOL0     H54343   1.694   0.368   6.871 -1.2471 -0.2880 -1.0568
  403MOL0     H54344   1.681   0.341   7.140 -0.3532  0.8495  1.9065
  403MOL0     H54345   1.650   0.523   7.127 -2.2019  0.8855 -4.6499
  403MOL0     H54346   1.872   0.361   7.039 -2.5915 -1.4847  1.6169
  403MOL0     H54347   1.859   0.540   6.989  0.1747  1.4691  1.1603
  403MOL0     H54348   1.865   0.619   7.216 -1.0317 -0.6869 -1.1957
  403MOL0     H54349   1.871   0.461   7.287  1.0574  0.3623  1.1237
  403MOL0     H54350   2.099   0.429   7.175 -2.3011 -1.6943  3.2800
  403MOL0     H54351   2.086   0.606   7.138 -0.3229  2.4805  1.1156
  403MOL0     H54352   2.219   0.549   7.322 -1.6029  4.1335  1.5520
  403MOL0     H54353   2.080   0.475   7.408 -3.1522 -0.0379  0.1454
  403MOL0     H54354   2.088   0.762   7.306 -1.1384 -2.4310 -2.1043
  403MOL0     H54355   1.957   0.678   7.398  0.0166 -0.3421  0.3702
  403MOL0     H54356   2.333   0.697   7.484 -0.4059  3.2320 -0.5094
  403MOL0     H54357   2.384   0.845   7.834 -4.7855 -1.4609  1.8921
  403MOL0     H54358   2.367   0.671   7.840  1.9661 -0.1213 -0.1684
  403MOL0     H54359   2.517   0.644   7.623 -1.5615 -0.6219  0.0331
  403MOL0     H54360   2.504   0.824   7.608  0.1345 -0.2737  0.0643
  403MOL0     H54361   2.620   0.665   7.844 -1.8654  2.4500  2.0962
  403MOL0     H54362   2.620   0.836   7.832  4.6228  1.2059  0.0335
  403MOL0     H54363   2.766   0.799   7.619  3.2403 -2.7736 -1.8711
  403MOL0     H54364   2.786   0.638   7.670 -1.2857 -0.0936  0.8705
  403MOL0     H54365   2.992   0.675   7.583  0.1360 -0.3127  0.3036
  403MOL0     H54366   3.228   0.636   7.558 -0.0414 -1.1174 -0.1091
  403MOL0     H54367   3.648   0.498   7.705 -1.1165 -0.7154  0.5860
  403MOL0     H54368   3.851   0.413   7.737 -0.1710 -1.3575  0.3540
  403MOL0     H54369   4.009   0.232   7.858 -0.8040 -0.3216  1.4217
  403MOL0     H54370   4.106   0.377   7.804  1.4287 -0.6010  0.2663
  403MOL0     H54371   4.263   0.356   7.971  0.4223  0.1229 -0.1178
  403MOL0     H54372   4.195   0.220   8.047 -0.5132 -1.5343 -1.0486
  403MOL0     H54373   4.206   0.097   7.819 -0.5503 -1.2388  1.5357
  403MOL0     H54374   4.317   0.230   7.775 -2.8557 -0.9648 -1.5534
  403MOL0     H54375   4.377   0.049   8.002  2.8921 -2.7560 -0.9684
  403MOL0     H54376   4.453   0.202   7.988 -1.0413 -0.0409  2.0868
  403MOL0     H54377   4.541   0.124   7.751  1.6095 -1.4387 -2.0076
  403MOL0     H54378   4.476  -0.028   7.784 -1.7430  0.2122  1.4376
  403MOL0     H54379   4.617  -0.005   8.020 -1.1034 -1.1793 -1.0745
  403MOL0     H54380   4.657  -0.084   7.878 -0.5151 -1.7998  3.5876
  403MOL0     H54381   4.764   0.178   7.958 -0.2165 -0.0823 -0.4159
  403MOL0     H54382   4.750   0.143   7.783  0.5612 -2.2799 -1.5738
  403MOL0     H54383   4.871  -0.097   7.936  2.7499 -1.6593 -0.3842
  403MOL0     H54384   4.903  -0.046   7.780 -1.5999  1.4645 -0.0896
  403MOL0     H54385   3.869   0.539   8.149 -1.5668 -1.7261  0.6607
  403MOL0     H54386   3.674   0.700   8.082 -0.0141  0.1654 -1.1926
  403MOL0     H54387   3.285   0.749   7.986  1.1914  3.9120 -0.6382
  403MOL0     H54388   3.046   0.792   7.982  2.2893  1.0626  0.4218
  403MOL0     H54389   1.328   0.318   6.573  0.2529  2.1933 -0.5971
  403MOL0     H54390   1.100   0.288   6.508  1.6933  1.8996 -0.7742
  403MOL0     H54391   0.669   0.279   6.596 -2.7741 -0.6342 -3.1590
  403MOL0     H54392   0.445   0.255   6.547  2.5543 -1.1471 -0.9659
  403MOL0     H54393   0.083   0.354   6.589  0.0718  2.1051  0.9913
  403MOL0     H54394   0.234   0.283   6.513  0.8765  0.7615  0.2227
  403MOL0     H54395   0.230   0.477   6.350  1.0812 -0.6598 -0.6038
  403MOL0     H54396   0.078   0.536   6.429 -0.1904 -0.2345  0.5286
  403MOL0     H54397   0.004   0.422   6.253  3.1449  2.9517 -0.8662
  403MOL0     H54398  -0.008   0.303   6.390 -0.3519 -0.1956 -0.3052
  403MOL0     H54399   0.203   0.205   6.303 -0.3747 -0.1660  1.7317
  403MOL0     H54400   0.056   0.182   6.208  0.1077  0.2696 -2.6177
  403MOL0     H54401   0.277   0.343   5.923 -0.6757 -1.2458 -0.0732
  403MOL0     H54402   0.378   0.681   6.629  0.5873  0.1518  2.7641
  403MOL0     H54403   0.549   0.827   6.648  1.6991  1.3433 -2.6409
  403MOL0     H54404   0.668   0.760   6.748 -3.1625 -0.0104  2.3314
  403MOL0     H54405   0.698   0.781   6.568 -1.5520  2.0958 -0.4466
  404MOL0     O54406   3.010   6.193   0.854 -0.3361  0.8459  0.6458
  404MOL0     C54407   3.126   6.154   0.833  0.7799 -0.0744  0.3430
  404MOL0     O54408   3.224   6.236   0.798  0.1467 -0.5313 -0.5331
  404MOL0     C54409   3.190   6.358   0.731  0.2519 -0.9952 -0.0570
  404MOL0     C54410   3.090   6.376   0.633  0.2796 -0.4537  0.8979
  404MOL0     C54411   3.078   6.498   0.565 -0.7185 -0.6476  0.1349
  404MOL0     C54412   3.173   6.602   0.589  0.1804 -0.1910 -0.9950
  404MOL0     O54413   3.171   6.728   0.535  0.5187  0.4621 -0.2153
  404MOL0     C54414   3.100   6.758   0.415  0.1082 -0.0747 -0.2322
  404MOL0     C54415   2.953   6.795   0.458  0.5069 -0.3085 -1.0443
  404MOL0     C54416   2.879   6.865   0.351 -0.7925  0.4786  0.5053
  404MOL0     C54417   2.733   6.886   0.401 -0.2379 -0.1275 -0.6495
  404MOL0     C54418   2.646   6.934   0.284  0.4930 -1.5852 -0.5765
  404MOL0     C54419   2.498   6.935   0.326  1.1356 -0.1469  0.5535
  404MOL0     C54420   2.437   6.786   0.334 -0.0440 -1.0527 -0.1512
  404MOL0     C54421   2.291   6.775   0.293  0.0020 -0.1523 -0.6531
  404MOL0     N54422   2.199   6.854   0.377 -0.3669 -0.1265  0.8074
  404MOL0     C54423   2.191   6.991   0.372 -0.6257  0.4639 -0.5099
  404MOL0     C54424   2.130   7.023   0.486 -0.0580 -0.3017 -0.2891
  404MOL0     C54425   2.099   7.165   0.538 -0.7557 -0.3782  0.8742
  404MOL0     C54426   2.226   7.253   0.534  0.2170 -0.6762  0.2623
  404MOL0     C54427   2.206   7.400   0.586  0.2582 -0.6221  1.3140
  404MOL0     C54428   2.348   7.476   0.589 -0.0967  0.2252  0.6944
  404MOL0     O54429   2.407   7.450   0.719 -0.1202  0.4773  0.1543
  404MOL0     C54430   2.537   7.495   0.739  0.1042  0.0605 -0.9948
  404MOL0     C54431   2.613   7.433   0.835  0.1505 -0.1320 -0.1204
  404MOL0     C54432   2.744   7.474   0.856 -0.1806  0.6417 -0.2940
  404MOL0     C54433   2.805   7.560   0.774 -0.2701 -0.0946 -0.3820
  404MOL0     C54434   2.949   7.595   0.796  0.3288  0.2222 -0.3400
  404MOL0     O54435   3.019   7.533   0.898  0.2119  0.1480 -0.0449
  404MOL0     C54436   3.153   7.539   0.881  0.0179 -0.5243 -0.4188
  404MOL0     C54437   3.209   7.651   0.941  0.7040 -0.6528  0.7289
  404MOL0     C54438   3.345   7.669   0.910  0.8110  0.4328  0.7107
  404MOL0     C54439   3.418   7.581   0.823  0.2234 -0.7472 -0.6755
  404MOL0     O54440   3.550   7.616   0.802 -0.3963  0.0372  0.8391
  404MOL0     C54441   3.640   7.507   0.774  0.1539 -0.1116  0.2740
  404MOL0     C54442   3.772   7.562   0.726  0.1307  1.5390 -0.1184
  404MOL0     C54443   3.868   7.438   0.709  0.9388 -0.0218 -0.4836
  404MOL0     C54444   3.995   7.492   0.646 -0.7348 -0.4184 -0.5021
  404MOL0     C54445   4.120   7.395   0.690 -0.7827 -0.3628 -1.0957
  404MOL0     C54446   4.244   7.447   0.630 -0.4210 -0.1039  0.1969
  404MOL0     C54447   4.371   7.365   0.676 -0.2204 -0.2803 -0.3702
  404MOL0     C54448   4.406   7.416   0.826  0.1524 -0.2986  0.9937
  404MOL0    Cl54449   4.580   7.399   0.847  0.1054  0.0901 -0.3796
  404MOL0     C54450   3.351   7.471   0.773  0.0280 -0.2323  0.4925
  404MOL0     C54451   3.218   7.449   0.800 -0.3265  0.3358  0.1882
  404MOL0     O54452   3.000   7.658   0.697  0.6672  0.7130  0.0022
  404MOL0     C54453   2.731   7.630   0.684 -0.3088  0.4203 -0.0210
  404MOL0     C54454   2.603   7.591   0.658  0.5671 -0.4252  0.0268
  404MOL0     N54455   2.114   6.915   0.561 -0.0028 -0.2032 -0.5767
  404MOL0     N54456   2.146   6.804   0.492  0.2288 -0.3357  0.1299
  404MOL0     C54457   3.273   6.584   0.680 -0.6243 -0.0307  0.6338
  404MOL0     C54458   3.293   6.462   0.749 -0.1424 -0.2173 -1.0033
  404MOL0     C54459   3.171   6.019   0.862  0.4773  0.1888 -0.0398
  404MOL0     C54460   3.313   5.994   0.854  0.3483 -0.1198 -0.5832
  404MOL0     C54461   3.352   5.862   0.875  0.2291  0.0182 -0.0881
  404MOL0     C54462   3.263   5.758   0.898 -0.4899  0.1389 -0.6411
  404MOL0     O54463   3.319   5.643   0.939  0.3253  0.2423  0.8271
  404MOL0     C54464   3.271   5.572   1.050 -0.4715  0.0744 -0.6097
  404MOL0     C54465   3.381   5.483   1.113 -0.2548  0.9105  0.4060
  404MOL0     C54466   3.490   5.581   1.170 -0.1135  0.9221  0.9684
  404MOL0     C54467   3.611   5.511   1.230  0.8302  0.2563 -0.4743
  404MOL0     C54468   3.657   5.432   1.119  0.0274  0.9000 -0.4699
  404MOL0     C54469   3.713   5.362   1.037 -0.4911 -0.4061 -0.1250
  404MOL0     C54470   3.127   5.778   0.893 -0.4394  0.1492  0.2327
  404MOL0     C54471   3.075   5.908   0.878 -0.3599 -0.3351 -0.1122
  404MOL0     C54472   2.928   5.915   0.863  0.5791 -0.4964 -0.8771
  404MOL0     H54473   3.020   6.300   0.602  1.0785 -1.2403  0.9966
  404MOL0     H54474   3.005   6.506   0.485  0.3523  4.1076 -0.6221
  404MOL0     H54475   3.141   6.851   0.373 -0.4600  2.3169  3.8964
  404MOL0     H54476   3.095   6.677   0.342 -2.4879 -0.7097  0.5623
  404MOL0     H54477   2.955   6.865   0.542 -0.0735  0.3707 -1.5829
  404MOL0     H54478   2.907   6.698   0.478 -0.7827  0.7416  1.5095
  404MOL0     H54479   2.874   6.806   0.259 -0.4487 -0.1862  0.9117
  404MOL0     H54480   2.937   6.952   0.317  0.8308 -1.3614 -1.8231
  404MOL0     H54481   2.699   6.789   0.439 -0.9258  0.9313  1.6435
  404MOL0     H54482   2.728   6.955   0.486  2.7043  0.1772 -0.6449
  404MOL0     H54483   2.664   7.040   0.262  0.4790 -1.0519  1.7164
  404MOL0     H54484   2.662   6.880   0.191 -0.1157 -1.2615 -0.8767
  404MOL0     H54485   2.460   6.991   0.412 -4.7905 -0.4205 -1.4270
  404MOL0     H54486   2.455   6.984   0.238  0.2936  1.1772  1.6600
  404MOL0     H54487   2.440   6.760   0.440  2.3712  3.7531  1.2805
  404MOL0     H54488   2.498   6.715   0.278  2.0047  0.3905  0.1386
  404MOL0     H54489   2.267   6.810   0.193 -1.2880 -1.7210 -0.9344
  404MOL0     H54490   2.249   6.674   0.296 -0.3274 -0.1094 -2.7565
  404MOL0     H54491   2.224   7.069   0.304  2.6832  0.5846  1.0459
  404MOL0     H54492   2.031   7.212   0.466  0.4961  0.7636  0.3916
  404MOL0     H54493   2.047   7.161   0.634 -0.0006 -1.2713  1.2546
  404MOL0     H54494   2.304   7.205   0.594 -0.4959  1.3441  3.0167
  404MOL0     H54495   2.243   7.253   0.426 -3.3752  1.8695 -0.4836
  404MOL0     H54496   2.173   7.399   0.691 -0.1681  0.0586  1.1928
  404MOL0     H54497   2.132   7.457   0.529 -1.6835 -1.6861  2.6593
  404MOL0     H54498   2.333   7.583   0.570 -0.2413 -0.2117 -2.2508
  404MOL0     H54499   2.416   7.439   0.512  1.6323  0.4404  2.0580
  404MOL0     H54500   2.556   7.360   0.891  0.2617  0.5135  0.8516
  404MOL0     H54501   2.792   7.424   0.939 -4.2158 -0.8901  1.3118
  404MOL0     H54502   3.159   7.722   1.005  0.6316  0.5111 -0.5538
  404MOL0     H54503   3.389   7.761   0.947 -0.3974  0.2179  2.8927
  404MOL0     H54504   3.649   7.448   0.866  0.5564 -0.2365  0.1563
  404MOL0     H54505   3.608   7.434   0.699  2.1688 -1.3391  0.5412
  404MOL0     H54506   3.757   7.610   0.629 -1.2312  2.4408  0.5007
  404MOL0     H54507   3.823   7.631   0.794  0.4454 -0.8563  2.2624
  404MOL0     H54508   3.890   7.391   0.805 -0.5534 -3.0436 -1.4998
  404MOL0     H54509   3.827   7.364   0.639 -0.8414  0.4249  0.0205
  404MOL0     H54510   4.017   7.595   0.675  1.1190 -0.9506  0.1490
  404MOL0     H54511   3.988   7.483   0.537 -0.6740  1.4286 -0.6865
  404MOL0     H54512   4.116   7.288   0.669  0.4806  0.2369 -5.5234
  404MOL0     H54513   4.127   7.412   0.797  2.2402  3.4004 -1.6930
  404MOL0     H54514   4.231   7.433   0.522  1.2578 -1.4492  0.1293
  404MOL0     H54515   4.260   7.554   0.646 -3.8718  0.2812  1.9933
  404MOL0     H54516   4.450   7.389   0.604 -1.7561  0.1336 -1.9721
  404MOL0     H54517   4.341   7.260   0.674 -2.7305  0.2937  2.1006
  404MOL0     H54518   4.373   7.518   0.843 -0.3142 -0.5345  1.5562
  404MOL0     H54519   4.347   7.352   0.894 -1.7041  0.1770 -0.1115
  404MOL0     H54520   3.393   7.387   0.718 -0.9784  0.7063 -1.8455
  404MOL0     H54521   3.164   7.366   0.756 -0.3307  0.5846 -0.2781
  404MOL0     H54522   2.771   7.696   0.607 -1.5057 -2.9334 -3.8924
  404MOL0     H54523   2.557   7.645   0.576 -5.2126 -0.7239  2.5638
  404MOL0     H54524   3.341   6.663   0.710 -1.1803  1.2817 -1.3504
  404MOL0     H54525   3.378   6.447   0.815  1.1042  0.5973 -2.3555
  404MOL0     H54526   3.391   6.066   0.835  2.0098 -1.9485 -1.1003
  404MOL0     H54527   3.459   5.846   0.870  0.0122 -1.5352 -0.2536
  404MOL0     H54528   3.192   5.500   1.026  0.2041 -1.1528  0.6770
  404MOL0     H54529   3.234   5.631   1.134  0.0153 -1.9213  1.1144
  404MOL0     H54530   3.408   5.415   1.032  2.1727  0.0806  1.8062
  404MOL0     H54531   3.342   5.415   1.190  2.9918 -0.0723  1.3437
  404MOL0     H54532   3.453   5.656   1.240  0.7315  2.4985 -0.2300
  404MOL0     H54533   3.525   5.639   1.085 -1.4490  0.6158  0.1771
  404MOL0     H54534   3.687   5.585   1.255  0.8875  0.3018 -0.7806
  404MOL0     H54535   3.594   5.446   1.315  2.1289 -1.3240 -1.3724
  404MOL0     H54536   3.752   5.291   0.966 -0.2086 -0.4994  0.1197
  404MOL0     H54537   3.063   5.694   0.919  2.1508 -2.0733 -0.1175
  404MOL0     H54538   2.885   5.822   0.826 -2.1076  0.2859  0.0328
  404MOL0     H54539   2.899   5.936   0.967 -1.4350 -1.4922 -1.1779
  404MOL0     H54540   2.894   5.984   0.786 -1.0783 -1.6602 -1.2333
  405MOL0     O54541   2.003   6.456   3.406 -0.7057 -0.5217 -0.4599
  405MOL0     C54542   1.985   6.334   3.436 -0.3669 -0.1429  0.3056
  405MOL0     O54543   2.080   6.234   3.412  1.5037  0.5864  0.0738
  405MOL0     C54544   2.199   6.265   3.357  0.4631  1.1059  1.1630
  405MOL0     C54545   2.198   6.316   3.228 -0.8187  0.1078  0.2233
  405MOL0     C54546   2.318   6.336   3.160 -0.4428 -0.1716 -0.0851
  405MOL0     C54547   2.444   6.315   3.216 -0.1735  0.4417  0.0532
  405MOL0     O54548   2.557   6.361   3.150 -0.2328  0.5466  0.0499
  405MOL0     C54549   2.677   6.278   3.157  0.3129 -0.3481 -0.0243
  405MOL0     C54550   2.774   6.347   3.254 -0.1297 -0.0872 -0.4531
  405MOL0     C54551   2.880   6.416   3.173  0.0260  0.3604  0.3977
  405MOL0     C54552   2.978   6.478   3.276 -0.1797  0.1486  0.3140
  405MOL0     C54553   3.081   6.560   3.207 -0.6317  0.3538  0.4796
  405MOL0     C54554   3.191   6.469   3.143 -0.4047  0.3382 -0.4136
  405MOL0     C54555   3.282   6.553   3.047 -0.5765  0.7669 -0.8823
  405MOL0     C54556   3.212   6.632   2.929  0.2522 -0.1091 -0.6284
  405MOL0     N54557   3.119   6.548   2.853 -0.2415 -0.6592  0.3113
  405MOL0     C54558   2.984   6.569   2.828  0.1844  0.1183 -0.3638
  405MOL0     C54559   2.956   6.476   2.735 -0.1834 -0.2464 -0.1033
  405MOL0     C54560   2.816   6.451   2.685  1.0900  0.7355 -0.1940
  405MOL0     C54561   2.746   6.317   2.721 -0.7010 -0.6214 -0.2363
  405MOL0     C54562   2.619   6.314   2.641  0.5932  0.0972  0.2102
  405MOL0     C54563   2.500   6.272   2.729  0.0090 -0.5600  0.0412
  405MOL0     O54564   2.373   6.293   2.661  0.2051 -0.3534  0.0911
  405MOL0     C54565   2.257   6.251   2.722 -0.2244  1.3263  0.1127
  405MOL0     C54566   2.252   6.175   2.839  0.0191 -0.0360  0.8618
  405MOL0     C54567   2.132   6.128   2.894  0.9492 -0.5059  0.2847
  405MOL0     C54568   2.007   6.179   2.858  0.3166 -0.1071  0.7410
  405MOL0     C54569   1.874   6.149   2.939  0.2121  0.5720 -0.2191
  405MOL0     O54570   1.763   6.193   2.871  0.4387  0.1278 -0.5298
  405MOL0     C54571   1.643   6.193   2.935 -0.1468 -0.5725  0.0970
  405MOL0     C54572   1.567   6.312   2.932  0.7118  0.1401 -0.2098
  405MOL0     C54573   1.436   6.304   2.987 -0.3247 -0.5636  0.7248
  405MOL0     C54574   1.396   6.203   3.068 -0.0370  0.1320  0.3960
  405MOL0     O54575   1.274   6.196   3.137 -0.0602 -0.3351  0.5883
  405MOL0     C54576   1.206   6.327   3.161 -0.6358 -0.1279  0.3196
  405MOL0     C54577   1.128   6.326   3.290 -0.5653  0.2827 -0.1961
  405MOL0     C54578   1.019   6.230   3.302  0.0348  0.4908 -0.2340
  405MOL0     C54579   0.930   6.254   3.427 -1.1028 -0.0317  0.4506
  405MOL0     C54580   0.827   6.147   3.436  0.2322  0.2111  0.3812
  405MOL0     C54581   0.719   6.196   3.528  0.4611 -0.6523 -0.0158
  405MOL0     C54582   0.617   6.296   3.472  0.4113  0.4110  0.2474
  405MOL0     C54583   0.476   6.290   3.537 -0.3807  0.2487  0.6101
  405MOL0    Cl54584   0.493   6.282   3.713 -0.3809 -0.2007 -0.2473
  405MOL0     C54585   1.480   6.094   3.081 -0.5254 -0.6277  0.2939
  405MOL0     C54586   1.597   6.082   3.013 -1.3274 -0.5743  0.4974
  405MOL0     O54587   1.879   6.117   3.057  0.3593  0.0672 -0.5578
  405MOL0     C54588   2.012   6.252   2.734 -0.1747 -0.8353 -0.2421
  405MOL0     C54589   2.131   6.289   2.669  0.3133 -0.3221 -0.1406
  405MOL0     N54590   3.071   6.411   2.695  0.1502 -0.2522 -0.0890
  405MOL0     N54591   3.168   6.446   2.773 -0.0197 -0.5317  0.3126
  405MOL0     C54592   2.440   6.251   3.343 -0.3634  0.7219 -0.4663
  405MOL0     C54593   2.321   6.230   3.412  0.5158  0.7875 -0.2028
  405MOL0     C54594   1.845   6.299   3.469 -0.5968 -0.1451  0.0398
  405MOL0     C54595   1.783   6.185   3.409 -0.1168 -0.7179  0.3932
  405MOL0     C54596   1.652   6.152   3.436 -0.4515 -0.4243  0.1105
  405MOL0     C54597   1.574   6.233   3.515 -0.3588  0.0122 -0.6366
  405MOL0     O54598   1.441   6.212   3.546  0.0089 -0.3149 -0.2283
  405MOL0     C54599   1.404   6.080   3.533  0.2953  1.1787  0.6926
  405MOL0     C54600   1.263   6.066   3.587 -0.3753  0.3600  0.1611
  405MOL0     C54601   1.227   5.918   3.569  0.7639 -0.1008 -0.0887
  405MOL0     C54602   1.088   5.878   3.615 -0.4355 -0.3685 -0.8586
  405MOL0     C54603   1.039   5.963   3.731  0.4508  0.0263  0.2907
  405MOL0     C54604   1.002   6.031   3.825  0.4825 -0.1400 -0.5234
  405MOL0     C54605   1.636   6.343   3.575  0.1806 -0.3952 -0.1568
  405MOL0     C54606   1.770   6.371   3.557 -0.3440  0.0400 -0.0596
  405MOL0     C54607   1.825   6.471   3.653 -1.0423 -1.0319 -0.2840
  405MOL0     H54608   2.105   6.347   3.182 -1.4441  0.6618  1.7918
  405MOL0     H54609   2.335   6.374   3.060  1.0525 -1.8334 -0.5146
  405MOL0     H54610   2.653   6.174   3.180  0.4266 -0.9884 -2.5671
  405MOL0     H54611   2.708   6.280   3.052 -1.1307 -1.2287 -0.4892
  405MOL0     H54612   2.812   6.269   3.321 -0.5627  0.0564 -0.0290
  405MOL0     H54613   2.715   6.423   3.307  1.2401  0.8419 -0.1957
  405MOL0     H54614   2.829   6.498   3.122 -1.1087 -0.0674  0.8157
  405MOL0     H54615   2.925   6.347   3.101 -0.6668  2.5138 -2.2745
  405MOL0     H54616   2.929   6.538   3.353 -3.8685 -1.4869 -0.5617
  405MOL0     H54617   3.018   6.404   3.346 -0.6003  0.5067  0.9407
  405MOL0     H54618   3.028   6.605   3.123 -0.5719  3.5773  2.0236
  405MOL0     H54619   3.124   6.624   3.284 -0.1031 -1.5382  1.8365
  405MOL0     H54620   3.254   6.416   3.214 -0.3955  1.2864  0.3057
  405MOL0     H54621   3.143   6.392   3.083 -2.3599 -0.6346  2.2316
  405MOL0     H54622   3.364   6.494   3.003  1.1969  2.0775  0.5302
  405MOL0     H54623   3.337   6.624   3.109  1.3157  1.0625 -2.7470
  405MOL0     H54624   3.160   6.713   2.981 -0.6438 -0.9343 -0.2059
  405MOL0     H54625   3.276   6.674   2.851 -1.0951 -2.3310 -3.0869
  405MOL0     H54626   2.912   6.642   2.865  0.0034 -0.3739  0.2840
  405MOL0     H54627   2.752   6.529   2.726  1.1807  0.7652 -0.1100
  405MOL0     H54628   2.809   6.463   2.576 -2.8445 -0.1665 -0.1999
  405MOL0     H54629   2.809   6.235   2.685 -1.7606 -0.4815 -2.5795
  405MOL0     H54630   2.739   6.319   2.830  0.5137 -1.0706 -0.1364
  405MOL0     H54631   2.622   6.249   2.553  1.1728  1.0274 -0.4691
  405MOL0     H54632   2.598   6.412   2.598  2.3715 -1.1118 -3.8902
  405MOL0     H54633   2.503   6.329   2.822 -1.4603  2.7868 -1.7828
  405MOL0     H54634   2.522   6.168   2.754  2.8604  0.5051  2.7773
  405MOL0     H54635   2.340   6.130   2.883 -1.4616 -1.6227  2.4017
  405MOL0     H54636   2.138   6.064   2.982  0.7657  1.0408  1.4773
  405MOL0     H54637   1.594   6.397   2.871 -1.0435  0.7768 -0.1642
  405MOL0     H54638   1.370   6.388   2.967 -0.8712 -1.6626 -2.7984
  405MOL0     H54639   1.279   6.408   3.166  1.8943 -2.1488 -1.1965
  405MOL0     H54640   1.137   6.334   3.076 -5.0571 -0.0852  3.5413
  405MOL0     H54641   1.191   6.310   3.378 -0.1034  1.4402 -0.2989
  405MOL0     H54642   1.087   6.427   3.295  0.0102  0.4923  0.3842
  405MOL0     H54643   0.959   6.234   3.211 -1.4703 -1.6377  0.6004
  405MOL0     H54644   1.068   6.132   3.298  2.4536  1.6402 -1.2836
  405MOL0     H54645   0.890   6.355   3.419  1.8978  1.4017  1.8203
  405MOL0     H54646   1.002   6.246   3.509  2.1941 -1.1242 -2.3021
  405MOL0     H54647   0.881   6.057   3.466 -0.1008  1.2515  4.7992
  405MOL0     H54648   0.779   6.118   3.343  2.7304 -0.1914 -0.8493
  405MOL0     H54649   0.677   6.099   3.554 -1.0805  0.5895  2.4988
  405MOL0     H54650   0.757   6.238   3.622 -1.0675  2.8644 -0.7780
  405MOL0     H54651   0.606   6.288   3.363  1.3055  0.7091  0.1242
  405MOL0     H54652   0.654   6.396   3.496 -2.2858  0.9023  2.9326
  405MOL0     H54653   0.420   6.377   3.501  0.4655  1.4863  2.1723
  405MOL0     H54654   0.419   6.206   3.496  2.2415 -1.8843  1.0475
  405MOL0     H54655   1.432   6.012   3.134 -1.8153  0.0733  0.2360
  405MOL0     H54656   1.650   5.988   3.014  1.7193  1.0106  0.5612
  405MOL0     H54657   1.921   6.275   2.680 -1.3870 -2.4297  1.0108
  405MOL0     H54658   2.127   6.342   2.574 -0.1108  1.2965  0.7617
  405MOL0     H54659   2.532   6.226   3.394 -0.6610 -1.7547 -1.0241
  405MOL0     H54660   2.318   6.170   3.502  0.7761 -0.5256 -1.0422
  405MOL0     H54661   1.837   6.131   3.331  0.0583 -0.1846  0.1410
  405MOL0     H54662   1.610   6.079   3.369 -1.9370  2.0896 -1.8759
  405MOL0     H54663   1.470   6.021   3.597  0.7221 -0.6185 -1.3062
  405MOL0     H54664   1.416   6.046   3.430 -0.2112  0.7836  0.7599
  405MOL0     H54665   1.205   6.140   3.531  1.1278 -0.6006 -2.8959
  405MOL0     H54666   1.262   6.096   3.692 -2.1732 -1.7917  0.8309
  405MOL0     H54667   1.308   5.858   3.611 -0.4797 -1.5532  0.3031
  405MOL0     H54668   1.232   5.893   3.462  1.7591 -1.9619  0.3449
  405MOL0     H54669   1.029   5.901   3.526 -0.4593 -0.7141 -0.9348
  405MOL0     H54670   1.081   5.771   3.637  2.2688 -1.0517 -2.8883
  405MOL0     H54671   0.957   6.088   3.903  1.1698 -0.4386  0.0930
  405MOL0     H54672   1.579   6.394   3.652  1.0361 -2.2253  1.7890
  405MOL0     H54673   1.754   6.486   3.735  0.0644  4.8708  0.0312
  405MOL0     H54674   1.915   6.437   3.705 -0.9511  1.3425  1.2640
  405MOL0     H54675   1.843   6.569   3.609 -0.7339 -1.8223 -1.9869
  406MOL0     O54676   4.324   4.235   9.343  0.2084 -0.2406 -0.4484
  406MOL0     C54677   4.315   4.275   9.225  0.3734 -0.6215 -0.3335
  406MOL0     O54678   4.415   4.296   9.146 -0.4930  0.1934  1.1003
  406MOL0     C54679   4.538   4.261   9.186  0.4559  0.3436  0.0051
  406MOL0     C54680   4.609   4.152   9.127  0.7073 -0.5345  0.1858
  406MOL0     C54681   4.732   4.131   9.173  0.3622  0.6173 -1.1243
  406MOL0     C54682   4.790   4.206   9.282 -0.5164  1.0765  0.0485
  406MOL0     O54683   4.911   4.159   9.324  0.3389  0.4936 -0.0168
  406MOL0     C54684   5.001   4.255   9.377 -1.0920  0.7549  0.1754
  406MOL0     C54685   5.151   4.231   9.356 -0.6004  0.3689 -0.3605
  406MOL0     C54686   5.192   4.187   9.216 -0.9037 -0.5720  0.5159
  406MOL0     C54687   5.181   4.302   9.110 -0.3692  0.1837  0.4832
  406MOL0     C54688   5.220   4.263   8.971  0.5400  0.0497  0.1878
  406MOL0     C54689   5.309   4.367   8.901  0.7647  0.2212  0.2500
  406MOL0     C54690   5.355   4.327   8.761 -0.4123  0.2669  0.7267
  406MOL0     C54691   5.248   4.369   8.654  0.1820 -0.1594 -0.5013
  406MOL0     N54692   5.252   4.281   8.538 -0.0032  0.6373 -0.3283
  406MOL0     C54693   5.360   4.256   8.454  0.0671 -0.8856  0.7638
  406MOL0     C54694   5.317   4.183   8.353  0.5023 -0.9356  0.2370
  406MOL0     C54695   5.399   4.134   8.243 -0.9715 -0.8584 -0.4787
  406MOL0     C54696   5.435   4.239   8.139 -0.5685  0.0239  0.2970
  406MOL0     C54697   5.581   4.252   8.123 -0.8571 -0.1137 -0.3361
  406MOL0     C54698   5.606   4.372   8.037 -0.3346 -0.4476 -0.0647
  406MOL0     O54699   5.711   4.350   7.947 -0.4338 -0.3008 -0.2520
  406MOL0     C54700   5.825   4.412   7.987  0.1618  0.1058 -0.3722
  406MOL0     C54701   5.900   4.492   7.893  1.2011  0.4938 -0.2874
  406MOL0     C54702   6.010   4.564   7.942  0.7605  0.4033 -0.0495
  406MOL0     C54703   6.053   4.556   8.072 -1.1855  0.3451  0.1978
  406MOL0     C54704   6.182   4.626   8.109  0.3982 -1.1607  0.6548
  406MOL0     O54705   6.271   4.653   8.003  0.1436 -1.1960 -0.3020
  406MOL0     C54706   6.409   4.670   8.038 -1.0151 -0.1530 -0.0406
  406MOL0     C54707   6.476   4.787   7.999  0.0307  0.0252  0.5715
  406MOL0     C54708   6.612   4.803   8.027  0.4698 -0.7067 -0.0568
  406MOL0     C54709   6.680   4.714   8.112  0.0614 -0.9011 -0.2140
  406MOL0     O54710   6.804   4.719   8.146 -0.6052  0.3655 -0.3130
  406MOL0     C54711   6.877   4.844   8.132 -0.2846 -0.4755  1.0788
  406MOL0     C54712   7.023   4.829   8.177  0.3790 -0.1350 -0.6179
  406MOL0     C54713   7.060   4.974   8.210 -0.2376 -0.3231  0.6761
  406MOL0     C54714   7.196   4.991   8.266 -0.6804  0.6164 -0.2013
  406MOL0     C54715   7.297   5.061   8.162 -0.9626 -0.0282  0.6238
  406MOL0     C54716   7.422   5.117   8.230 -0.1609  0.0690  0.3928
  406MOL0     C54717   7.522   5.163   8.135 -0.8567 -0.0033 -0.5715
  406MOL0     C54718   7.647   5.205   8.203 -0.6215 -0.5877 -0.4679
  406MOL0    Cl54719   7.767   5.281   8.084 -0.0710  0.6828 -0.2949
  406MOL0     C54720   6.610   4.605   8.154  0.9892  0.0903 -0.0621
  406MOL0     C54721   6.474   4.571   8.116 -0.1807  0.2904 -0.3232
  406MOL0     O54722   6.207   4.653   8.226  0.3678 -0.1307  0.4015
  406MOL0     C54723   5.980   4.484   8.163  0.6497 -0.4086 -0.2883
  406MOL0     C54724   5.863   4.411   8.125  0.6372 -0.6606 -0.0131
  406MOL0     N54725   5.181   4.153   8.375  0.1331 -0.1497 -0.2873
  406MOL0     N54726   5.145   4.213   8.483  0.2417 -0.3390 -0.4079
  406MOL0     C54727   4.723   4.308   9.343 -0.0712 -0.2614 -0.6475
  406MOL0     C54728   4.591   4.334   9.292 -0.3630  0.2339 -0.5406
  406MOL0     C54729   4.183   4.321   9.178 -1.5243 -0.0438 -0.0396
  406MOL0     C54730   4.077   4.234   9.183  0.0864  0.4784  0.5054
  406MOL0     C54731   3.953   4.263   9.120 -0.5681  0.1501 -0.4492
  406MOL0     C54732   3.920   4.387   9.061  0.9549 -0.1890 -0.2091
  406MOL0     O54733   3.793   4.412   9.003 -0.4501  0.2872 -0.1420
  406MOL0     C54734   3.758   4.554   8.973 -0.6308  0.5950 -0.1611
  406MOL0     C54735   3.636   4.552   8.890 -0.3635  0.6621 -0.0745
  406MOL0     C54736   3.608   4.696   8.856  0.6027  0.2054  0.0824
  406MOL0     C54737   3.500   4.702   8.750  0.3477  0.4021  0.5648
  406MOL0     C54738   3.446   4.836   8.731  0.1561  0.8141  0.3605
  406MOL0     C54739   3.405   4.945   8.717 -0.6256 -0.6653  0.8525
  406MOL0     C54740   4.033   4.478   9.052  0.0586  0.8816  1.4396
  406MOL0     C54741   4.162   4.447   9.110  0.2493 -0.7456  0.1661
  406MOL0     C54742   4.264   4.560   9.118 -0.7042  0.0375 -0.0921
  406MOL0     H54743   4.569   4.095   9.044  1.2054 -4.0170  2.1330
  406MOL0     H54744   4.797   4.049   9.144  1.4564  1.5508 -1.3937
  406MOL0     H54745   4.988   4.353   9.331 -1.8518  2.2492  3.3394
  406MOL0     H54746   4.970   4.266   9.481 -1.2403  1.8159  0.0263
  406MOL0     H54747   5.185   4.154   9.427  4.0476  1.7184 -0.7502
  406MOL0     H54748   5.214   4.314   9.389 -0.5328  0.5560 -0.9337
  406MOL0     H54749   5.133   4.107   9.171  0.7297  0.5342 -4.1367
  406MOL0     H54750   5.293   4.149   9.201  0.8027  3.1500  1.3006
  406MOL0     H54751   5.074   4.327   9.106 -0.5872 -0.8710 -0.8531
  406MOL0     H54752   5.245   4.379   9.154 -0.9238  1.1167 -0.2924
  406MOL0     H54753   5.272   4.167   8.967  0.4115  0.0047 -3.9197
  406MOL0     H54754   5.124   4.245   8.921  0.0569  0.8088  0.8071
  406MOL0     H54755   5.263   4.466   8.900 -0.0050 -0.1253 -1.5370
  406MOL0     H54756   5.407   4.364   8.952  0.5089 -0.5612  0.7212
  406MOL0     H54757   5.390   4.223   8.763  0.0650  0.2917 -2.3201
  406MOL0     H54758   5.447   4.382   8.743 -0.1781  0.0356  1.2045
  406MOL0     H54759   5.147   4.371   8.696 -0.1264  1.2187 -1.2494
  406MOL0     H54760   5.260   4.473   8.623 -2.0215  0.8116  1.6319
  406MOL0     H54761   5.461   4.289   8.476 -0.0526 -1.5243  2.4660
  406MOL0     H54762   5.485   4.079   8.283 -0.4201 -1.2677 -2.1437
  406MOL0     H54763   5.340   4.050   8.205 -0.2610 -2.1560  1.1440
  406MOL0     H54764   5.395   4.200   8.045  0.3040  0.1906 -0.1562
  406MOL0     H54765   5.386   4.334   8.164 -2.1986 -1.0030  1.1939
  406MOL0     H54766   5.606   4.155   8.078 -1.8295 -0.5033 -0.0849
  406MOL0     H54767   5.631   4.253   8.220  0.7890 -3.3082 -1.0194
  406MOL0     H54768   5.608   4.471   8.085 -2.3176 -0.4343  0.0816
  406MOL0     H54769   5.525   4.385   7.964 -0.1439 -0.8986 -0.3627
  406MOL0     H54770   5.865   4.491   7.791 -0.6549  1.5908  0.2849
  406MOL0     H54771   6.075   4.603   7.864 -0.0165 -1.4788 -1.7391
  406MOL0     H54772   6.420   4.851   7.931 -0.4232 -0.4660  0.4796
  406MOL0     H54773   6.659   4.890   7.983  2.0630 -0.9088  1.1745
  406MOL0     H54774   6.891   4.873   8.027 -0.2926 -0.4717  1.0792
  406MOL0     H54775   6.813   4.915   8.184 -2.0592  0.3152 -1.9366
  406MOL0     H54776   7.035   4.764   8.264 -3.0263 -0.7556 -0.4657
  406MOL0     H54777   7.089   4.783   8.103  0.7316 -1.4073  0.4408
  406MOL0     H54778   7.049   5.037   8.121  5.4079  0.4343  0.1217
  406MOL0     H54779   7.001   5.009   8.294 -0.5870 -1.2122  0.8178
  406MOL0     H54780   7.243   4.900   8.303 -0.5077  0.8408  0.1333
  406MOL0     H54781   7.190   5.058   8.352  0.5371  0.8536 -0.2852
  406MOL0     H54782   7.235   5.132   8.107 -1.5614  0.0169  1.3418
  406MOL0     H54783   7.336   4.987   8.091  0.4145  0.7056  0.5667
  406MOL0     H54784   7.386   5.203   8.288  1.5318  2.3474 -1.7076
  406MOL0     H54785   7.465   5.038   8.292 -2.2829 -2.5031 -1.1928
  406MOL0     H54786   7.486   5.257   8.091  1.1533  2.2154  2.1696
  406MOL0     H54787   7.539   5.094   8.052  2.1491  0.1954 -0.2340
  406MOL0     H54788   7.631   5.289   8.272  0.0327 -1.2023  0.4607
  406MOL0     H54789   7.701   5.118   8.241  0.6054  0.1538 -0.4527
  406MOL0     H54790   6.655   4.533   8.222 -0.8797 -0.9445  0.1572
  406MOL0     H54791   6.427   4.477   8.145  4.7711 -3.0536 -1.8898
  406MOL0     H54792   6.013   4.473   8.266 -0.5372  1.9622  0.4309
  406MOL0     H54793   5.818   4.351   8.203  0.5486 -0.5393  0.0299
  406MOL0     H54794   4.756   4.359   9.432 -0.9607  0.2246 -0.5899
  406MOL0     H54795   4.532   4.406   9.349  0.6784  0.9317 -0.3183
  406MOL0     H54796   4.084   4.137   9.231  3.6519 -0.1898 -1.0093
  406MOL0     H54797   3.883   4.181   9.122  2.5740 -2.7612  1.2522
  406MOL0     H54798   3.837   4.603   8.916 -0.2298  1.5132  1.1524
  406MOL0     H54799   3.757   4.621   9.059  1.1669  1.8729 -1.0616
  406MOL0     H54800   3.547   4.518   8.944 -1.6580  3.1304 -0.5039
  406MOL0     H54801   3.656   4.501   8.795  0.1849  0.4035  0.1749
  406MOL0     H54802   3.700   4.745   8.824  0.9743 -0.0192  0.7918
  406MOL0     H54803   3.575   4.754   8.943  0.0663  4.5134 -2.6650
  406MOL0     H54804   3.532   4.659   8.655  3.2532  0.3264  1.4747
  406MOL0     H54805   3.409   4.654   8.787 -0.8980  1.7090 -0.6955
  406MOL0     H54806   3.363   5.040   8.690  1.6680 -0.0702 -0.9361
  406MOL0     H54807   4.027   4.581   9.019  2.4725  0.1166 -1.9014
  406MOL0     H54808   4.223   4.656   9.085  0.0182  0.2755 -0.3115
  406MOL0     H54809   4.296   4.593   9.218  1.3210 -0.4225 -0.5446
  406MOL0     H54810   4.358   4.533   9.069  0.4797  2.2648  0.8088
  407MOL0     O54811   5.842   4.356   4.306 -0.3540 -0.3403  0.1784
  407MOL0     C54812   5.766   4.267   4.347  1.0413 -0.5148  0.3408
  407MOL0     O54813   5.780   4.208   4.469 -0.4112  0.3000 -0.6485
  407MOL0     C54814   5.857   4.263   4.576  0.2407 -0.6771 -0.4394
  407MOL0     C54815   5.894   4.182   4.683  0.6048  0.1750 -0.1769
  407MOL0     C54816   5.954   4.216   4.798  0.6126 -0.2393 -0.3694
  407MOL0     C54817   5.963   4.354   4.825 -0.2395  0.1864 -0.5820
  407MOL0     O54818   6.008   4.385   4.960 -0.0538 -0.0428 -0.1727
  407MOL0     C54819   6.131   4.340   5.004  0.8518  0.1386 -0.0057
  407MOL0     C54820   6.246   4.435   4.992  0.1927 -0.1096 -0.2604
  407MOL0     C54821   6.233   4.584   5.048 -0.7297 -0.1747  0.0450
  407MOL0     C54822   6.279   4.611   5.191 -0.4603 -0.0713 -0.5249
  407MOL0     C54823   6.231   4.499   5.287 -0.9457  0.0854 -0.8986
  407MOL0     C54824   6.247   4.538   5.435 -0.7143  0.4918 -0.2465
  407MOL0     C54825   6.399   4.557   5.465 -0.1360  0.2818  0.6951
  407MOL0     C54826   6.429   4.573   5.618 -0.1988 -0.5155  0.3499
  407MOL0     N54827   6.567   4.531   5.647 -0.3465  0.2083 -0.1365
  407MOL0     C54828   6.677   4.522   5.559  0.0366 -1.0300 -0.0182
  407MOL0     C54829   6.775   4.467   5.641 -0.0661  0.8030  0.6145
  407MOL0     C54830   6.907   4.415   5.591  0.0166  0.6468 -0.1877
  407MOL0     C54831   7.032   4.485   5.650 -0.7269  0.9665  0.7963
  407MOL0     C54832   7.045   4.628   5.585 -0.1890  0.3594 -0.9133
  407MOL0     C54833   7.177   4.687   5.624 -0.4383 -0.6483 -0.2473
  407MOL0     O54834   7.289   4.598   5.610 -0.2584  0.4678 -0.1905
  407MOL0     C54835   7.414   4.656   5.624  0.1401 -0.1223 -0.5946
  407MOL0     C54836   7.513   4.564   5.587  0.0694 -0.0237  0.1009
  407MOL0     C54837   7.652   4.601   5.598  0.9119 -0.3995 -0.6216
  407MOL0     C54838   7.680   4.723   5.669 -0.5559 -0.2911 -0.1865
  407MOL0     C54839   7.811   4.745   5.732  0.3824 -0.0588 -0.4987
  407MOL0     O54840   7.910   4.665   5.688  0.1622  0.2727 -0.0048
  407MOL0     C54841   8.040   4.685   5.704  0.0901  0.0221 -0.6132
  407MOL0     C54842   8.104   4.800   5.757  0.3008  0.4274  0.0073
  407MOL0     C54843   8.240   4.808   5.761 -1.5525 -0.9117  0.0229
  407MOL0     C54844   8.332   4.703   5.734  0.4287  0.2141 -0.9995
  407MOL0     O54845   8.471   4.703   5.739  0.4381 -0.2556  0.2827
  407MOL0     C54846   8.538   4.802   5.807  0.3408 -0.0356  0.3872
  407MOL0     C54847   8.598   4.737   5.940 -0.6629  0.5736 -0.1288
  407MOL0     C54848   8.496   4.678   6.052  0.1029 -0.4877  0.5322
  407MOL0     C54849   8.559   4.665   6.191  0.3261 -0.2874 -0.3380
  407MOL0     C54850   8.474   4.598   6.297  0.2079 -0.3441 -1.0331
  407MOL0     C54851   8.505   4.454   6.304  0.2809  0.0260 -0.5409
  407MOL0     C54852   8.438   4.378   6.411 -0.0020  0.3493 -0.8992
  407MOL0     C54853   8.286   4.385   6.398 -0.7695 -0.4943 -0.1720
  407MOL0    Cl54854   8.232   4.306   6.246 -0.0022 -0.0359  0.3275
  407MOL0     C54855   8.268   4.589   5.684 -0.8522  0.1695 -0.2162
  407MOL0     C54856   8.129   4.581   5.661  1.1345 -0.7931 -0.1949
  407MOL0     O54857   7.817   4.830   5.819 -0.4008  0.1435  0.1958
  407MOL0     C54858   7.574   4.815   5.688 -0.0485  0.5557 -0.2868
  407MOL0     C54859   7.442   4.789   5.664 -0.5329  0.1600  0.9539
  407MOL0     N54860   6.723   4.451   5.765 -0.3454  0.0724 -0.0418
  407MOL0     N54861   6.613   4.500   5.769  1.0445 -0.4232 -0.7239
  407MOL0     C54862   5.922   4.449   4.736  0.2179  0.9267 -0.0115
  407MOL0     C54863   5.874   4.402   4.611  0.3186 -0.3868  0.2304
  407MOL0     C54864   5.668   4.209   4.251  0.5859 -0.3062  0.1753
  407MOL0     C54865   5.594   4.109   4.317  0.5700  0.2922  0.0617
  407MOL0     C54866   5.507   4.032   4.239 -0.7895  0.6902  0.1437
  407MOL0     C54867   5.476   4.068   4.109  0.0628  0.2170 -1.1041
  407MOL0     O54868   5.385   4.002   4.040  0.0709  0.3119 -0.7483
  407MOL0     C54869   5.260   4.064   4.050 -0.2091 -0.2153 -0.5938
  407MOL0     C54870   5.141   3.971   4.011 -0.9234 -0.3661 -0.1751
  407MOL0     C54871   5.169   3.921   3.866  0.0278  0.0188  0.8441
  407MOL0     C54872   5.044   3.843   3.831 -0.2132 -0.1393 -0.3506
  407MOL0     C54873   5.046   3.796   3.690  0.2994  0.3041 -0.8426
  407MOL0     C54874   5.039   3.748   3.578 -0.6982 -1.1704 -0.8813
  407MOL0     C54875   5.544   4.173   4.049  1.0514  0.6742  0.0420
  407MOL0     C54876   5.644   4.245   4.115 -0.5475  0.4171  0.4372
  407MOL0     C54877   5.726   4.350   4.042  0.2777 -0.2462 -0.4190
  407MOL0     H54878   5.868   4.077   4.677  0.1012  0.2546  0.5227
  407MOL0     H54879   5.977   4.145   4.877  0.1763  0.5947  0.5326
  407MOL0     H54880   6.119   4.317   5.110 -0.5048  1.0046  0.0507
  407MOL0     H54881   6.163   4.249   4.953  0.9111  0.1720 -0.0273
  407MOL0     H54882   6.268   4.451   4.886  0.8415  0.6468 -0.0187
  407MOL0     H54883   6.329   4.388   5.045  0.8614  0.9713 -0.3128
  407MOL0     H54884   6.131   4.612   5.019 -0.1334 -2.6737 -6.1551
  407MOL0     H54885   6.293   4.650   4.986  0.5766 -2.5792 -1.4261
  407MOL0     H54886   6.387   4.620   5.183 -0.7543  3.7625 -2.5530
  407MOL0     H54887   6.227   4.699   5.231 -1.7916 -2.1911  2.8591
  407MOL0     H54888   6.125   4.473   5.279 -2.0856  1.4148  5.1206
  407MOL0     H54889   6.290   4.410   5.263  0.6168  1.5085 -2.6249
  407MOL0     H54890   6.195   4.633   5.451  0.0361  0.8665  0.0615
  407MOL0     H54891   6.202   4.468   5.506 -2.5948 -1.4737 -3.1302
  407MOL0     H54892   6.437   4.646   5.415  0.7832 -2.1045 -3.3426
  407MOL0     H54893   6.449   4.469   5.423 -0.3281 -0.5260  2.0728
  407MOL0     H54894   6.416   4.678   5.645 -0.3392 -0.0305 -1.4395
  407MOL0     H54895   6.358   4.507   5.668  0.2318 -0.4748  1.0306
  407MOL0     H54896   6.689   4.548   5.455  0.3857 -1.7460 -0.1611
  407MOL0     H54897   6.916   4.309   5.620  1.9793  0.5851 -0.8464
  407MOL0     H54898   6.903   4.400   5.483  0.1640  0.4318 -0.1644
  407MOL0     H54899   7.024   4.498   5.759 -1.2169  0.9376  0.7653
  407MOL0     H54900   7.115   4.419   5.625 -0.3493  2.2557 -1.6874
  407MOL0     H54901   6.960   4.686   5.622 -1.2261 -1.0915 -0.9417
  407MOL0     H54902   7.039   4.618   5.476 -0.7055 -0.7147 -0.8000
  407MOL0     H54903   7.171   4.710   5.731  3.2746 -2.3008  0.4712
  407MOL0     H54904   7.200   4.773   5.561 -3.2848  0.6015  0.2783
  407MOL0     H54905   7.489   4.470   5.538  1.6286 -0.7947  0.7626
  407MOL0     H54906   7.722   4.519   5.580  0.3004 -0.8033 -1.2074
  407MOL0     H54907   8.050   4.882   5.802 -1.7907 -0.0467 -1.5123
  407MOL0     H54908   8.281   4.900   5.801  0.9137 -2.2264  0.7932
  407MOL0     H54909   8.614   4.844   5.741 -0.7527  1.5417  0.0887
  407MOL0     H54910   8.483   4.887   5.847  2.4404 -0.2653  4.3208
  407MOL0     H54911   8.656   4.651   5.904 -2.2816 -1.5184  1.9859
  407MOL0     H54912   8.665   4.814   5.980 -3.3660  1.4292  3.1664
  407MOL0     H54913   8.411   4.743   6.076 -0.2501 -0.8548  0.2795
  407MOL0     H54914   8.460   4.581   6.017 -1.4771  1.0262 -2.4812
  407MOL0     H54915   8.595   4.764   6.223  2.4145 -0.4253 -1.9749
  407MOL0     H54916   8.652   4.609   6.179 -0.9594 -2.6848  0.2603
  407MOL0     H54917   8.369   4.628   6.289  0.1233 -1.0763 -3.7350
  407MOL0     H54918   8.503   4.634   6.396  0.5081 -3.2985  0.0303
  407MOL0     H54919   8.500   4.397   6.211  0.0526 -1.2043  0.2024
  407MOL0     H54920   8.605   4.458   6.350 -0.4400  2.2704  1.0024
  407MOL0     H54921   8.470   4.424   6.504 -2.6627  0.5103  0.0054
  407MOL0     H54922   8.469   4.273   6.417 -1.0726  0.1288  2.5608
  407MOL0     H54923   8.240   4.343   6.488 -1.2031  0.1059 -0.1097
  407MOL0     H54924   8.250   4.488   6.398 -0.7497 -0.4867 -0.3483
  407MOL0     H54925   8.329   4.514   5.635 -0.1850 -0.8309  2.0235
  407MOL0     H54926   8.077   4.504   5.604 -2.8426  0.2194  1.7130
  407MOL0     H54927   7.602   4.907   5.738 -1.1655 -0.3569  2.2060
  407MOL0     H54928   7.366   4.865   5.675  1.5890  2.3657  1.3545
  407MOL0     H54929   5.935   4.554   4.761  1.4095  0.7948 -0.0547
  407MOL0     H54930   5.829   4.467   4.536  0.1411 -2.1639 -1.2702
  407MOL0     H54931   5.608   4.086   4.422  0.1200  6.5604  1.8652
  407MOL0     H54932   5.448   3.951   4.281 -1.1644  0.4868 -0.7635
  407MOL0     H54933   5.257   4.142   3.973 -2.8264 -1.4381 -1.8437
  407MOL0     H54934   5.245   4.102   4.152  0.9098  1.8669 -1.1375
  407MOL0     H54935   5.047   4.027   4.000 -1.9029 -1.6363  1.3108
  407MOL0     H54936   5.132   3.887   4.080  1.6421 -1.1712 -0.7023
  407MOL0     H54937   5.259   3.858   3.862 -0.9523 -1.3546 -0.7821
  407MOL0     H54938   5.189   3.999   3.792  1.2732 -1.5967 -0.6025
  407MOL0     H54939   5.033   3.755   3.895  1.7014 -1.7502 -2.1129
  407MOL0     H54940   4.959   3.907   3.858  0.8345  0.4796  1.7137
  407MOL0     H54941   5.016   3.725   3.476 -4.1322  1.3358 -0.8556
  407MOL0     H54942   5.524   4.200   3.946  0.0851 -1.1935 -0.2971
  407MOL0     H54943   5.718   4.349   3.933 -0.3192  0.1718 -0.3843
  407MOL0     H54944   5.692   4.450   4.071  2.3850  0.4443 -0.2063
  407MOL0     H54945   5.832   4.332   4.062  0.2402  1.7081  1.8863
  408MOL0     O54946   5.154   1.933   1.409  0.2619  0.8576  0.2858
  408MOL0     C54947   5.081   2.034   1.405  0.5544  0.1444  0.6449
  408MOL0     O54948   5.125   2.155   1.362 -0.3368  0.7420  0.2895
  408MOL0     C54949   5.245   2.155   1.289 -0.3139  0.9959 -0.1068
  408MOL0     C54950   5.356   2.228   1.334  0.1524  0.8151 -0.9123
  408MOL0     C54951   5.473   2.232   1.254  0.0813  0.1743 -0.1000
  408MOL0     C54952   5.485   2.144   1.143  0.3636 -0.6643  0.1899
  408MOL0     O54953   5.595   2.129   1.064 -0.3169 -0.7484 -0.1500
  408MOL0     C54954   5.681   2.246   1.025  0.4119  0.2985 -0.1228
  408MOL0     C54955   5.759   2.192   0.912 -0.0752 -0.0124 -0.8289
  408MOL0     C54956   5.849   2.070   0.959  0.5098  0.3988  1.0602
  408MOL0     C54957   5.940   2.111   1.076 -0.2172  0.4993 -0.4979
  408MOL0     C54958   6.064   2.014   1.077 -0.4191 -0.1737  0.1097
  408MOL0     C54959   6.170   2.054   1.176 -0.2022  0.2886  0.8919
  408MOL0     C54960   6.294   1.960   1.170 -0.4850  0.2115  0.2016
  408MOL0     C54961   6.394   1.989   1.282  0.9580 -0.3169 -0.6971
  408MOL0     N54962   6.514   1.904   1.272 -0.2746  0.9341  0.9000
  408MOL0     C54963   6.508   1.769   1.291 -0.1273  0.0230  0.6267
  408MOL0     C54964   6.632   1.728   1.336  0.6033  0.5601 -0.3964
  408MOL0     C54965   6.669   1.588   1.362 -0.8823  0.0718 -0.3116
  408MOL0     C54966   6.819   1.558   1.363  0.0572 -0.9208 -0.4726
  408MOL0     C54967   6.881   1.616   1.494 -1.2205 -0.0475 -0.3218
  408MOL0     C54968   7.015   1.545   1.528 -0.9719 -1.2741  0.1434
  408MOL0     O54969   7.119   1.598   1.439 -0.7124  0.0457 -0.0593
  408MOL0     C54970   7.190   1.533   1.337 -0.3421  0.0400  0.5530
  408MOL0     C54971   7.162   1.405   1.291 -0.5830  0.7836  0.2731
  408MOL0     C54972   7.234   1.346   1.191 -0.3841  0.1292 -0.0482
  408MOL0     C54973   7.342   1.413   1.129 -0.5419 -0.5709 -0.2908
  408MOL0     C54974   7.426   1.341   1.040  0.0806  0.8333 -0.0652
  408MOL0     O54975   7.423   1.204   1.042  0.0225 -0.3053  0.7709
  408MOL0     C54976   7.528   1.142   0.965  0.5196 -0.4068  0.5127
  408MOL0     C54977   7.488   1.082   0.847  0.6995 -0.7692  0.3397
  408MOL0     C54978   7.589   1.048   0.754  0.0936  0.1946  0.0777
  408MOL0     C54979   7.728   1.052   0.786  0.6448 -0.4436 -1.1282
  408MOL0     O54980   7.829   1.007   0.702  0.6073 -0.8306  0.2067
  408MOL0     C54981   7.787   0.911   0.604 -0.4815  0.5385 -0.0996
  408MOL0     C54982   7.900   0.868   0.524 -0.1976 -0.7803 -0.2046
  408MOL0     C54983   7.994   0.777   0.600 -0.9768  0.6133 -0.8712
  408MOL0     C54984   8.134   0.838   0.611 -0.0635 -0.1834 -0.4116
  408MOL0     C54985   8.253   0.756   0.657 -0.0727  0.3009  0.3940
  408MOL0     C54986   8.257   0.733   0.803 -0.0394 -1.3705 -0.7849
  408MOL0     C54987   8.362   0.624   0.836 -0.0715 -0.5220 -0.1472
  408MOL0     C54988   8.407   0.660   0.975 -0.3038 -0.5392  0.3211
  408MOL0    Cl54989   8.274   0.619   1.088  0.0125  0.1195  0.0164
  408MOL0     C54990   7.759   1.094   0.913  0.4450 -0.7555  1.3188
  408MOL0     C54991   7.659   1.153   0.998  0.4097 -0.5963  0.2974
  408MOL0     O54992   7.499   1.408   0.969 -0.2128  0.5600  0.3652
  408MOL0     C54993   7.372   1.546   1.172 -0.1584  0.0282  0.1574
  408MOL0     C54994   7.295   1.606   1.275 -0.7754  0.1732  0.8163
  408MOL0     N54995   6.721   1.838   1.330  0.2628  0.2463 -0.1293
  408MOL0     N54996   6.640   1.946   1.301 -0.9720  0.6600 -0.0922
  408MOL0     C54997   5.369   2.077   1.104  0.5867 -0.9525  0.2120
  408MOL0     C54998   5.251   2.087   1.166 -0.8054  0.8673 -0.0755
  408MOL0     C54999   4.932   2.033   1.431  0.8405 -0.1203 -0.4142
  408MOL0     C55000   4.858   1.916   1.387  0.8457  0.3440  1.4357
  408MOL0     C55001   4.723   1.913   1.403  0.5038 -0.0990  1.0886
  408MOL0     C55002   4.651   2.023   1.468  0.4442  0.5736  0.4069
  408MOL0     O55003   4.515   2.035   1.489 -0.0970  0.0138 -0.6569
  408MOL0     C55004   4.441   1.919   1.440 -0.5112 -0.1147  0.2422
  408MOL0     C55005   4.285   1.962   1.451 -1.3536  0.6489 -0.8803
  408MOL0     C55006   4.228   1.936   1.595  0.3253  0.2401 -0.3829
  408MOL0     C55007   4.289   2.041   1.690 -0.0894  1.0131 -0.0413
  408MOL0     C55008   4.226   2.047   1.825 -0.1915  0.0562 -0.1960
  408MOL0     C55009   4.165   2.053   1.930  0.0441  0.7800  0.4937
  408MOL0     C55010   4.723   2.124   1.517 -0.0696  0.8046  1.1585
  408MOL0     C55011   4.867   2.139   1.502  0.2143  0.1910 -0.3487
  408MOL0     C55012   4.936   2.259   1.558  0.1798 -0.4997 -0.2270
  408MOL0     H55013   5.352   2.275   1.432 -0.2726  0.1585 -0.6048
  408MOL0     H55014   5.564   2.283   1.284 -0.0520  0.8439 -0.7944
  408MOL0     H55015   5.618   2.333   1.005 -2.7874 -1.5691  1.0300
  408MOL0     H55016   5.739   2.269   1.115 -1.2082 -0.4697  1.1874
  408MOL0     H55017   5.810   2.276   0.865 -3.9286  2.1219 -1.5893
  408MOL0     H55018   5.683   2.157   0.841 -1.7611  3.1032 -0.7067
  408MOL0     H55019   5.897   2.034   0.867  0.8686  1.7380  0.6936
  408MOL0     H55020   5.786   1.988   0.992  2.5205 -0.7015  2.3731
  408MOL0     H55021   5.976   2.208   1.041  1.2735 -0.5279 -1.9561
  408MOL0     H55022   5.893   2.115   1.175 -0.2727 -1.6154 -0.3947
  408MOL0     H55023   6.019   1.920   1.111  0.4495 -0.1749  1.3072
  408MOL0     H55024   6.115   1.991   0.983 -1.0908 -1.7457  0.1025
  408MOL0     H55025   6.212   2.152   1.151  2.3733 -0.8852  0.2376
  408MOL0     H55026   6.133   2.053   1.279  2.2873 -0.5247  1.8573
  408MOL0     H55027   6.350   1.984   1.080  0.3740  2.3355  1.2337
  408MOL0     H55028   6.264   1.855   1.160 -1.2387  0.5542 -1.1953
  408MOL0     H55029   6.425   2.094   1.285  0.6695 -0.1848 -1.9228
  408MOL0     H55030   6.341   1.965   1.375  0.8147  0.9144 -0.4415
  408MOL0     H55031   6.427   1.697   1.284 -0.6031  0.6964 -3.3911
  408MOL0     H55032   6.628   1.553   1.457 -1.5893  1.8290  0.0727
  408MOL0     H55033   6.620   1.529   1.284 -2.3949  2.1122 -0.9886
  408MOL0     H55034   6.826   1.449   1.361 -0.7820 -0.9848 -0.6137
  408MOL0     H55035   6.875   1.599   1.279 -1.6692 -0.4444 -1.4367
  408MOL0     H55036   6.818   1.615   1.583 -2.1017 -0.3345 -0.9430
  408MOL0     H55037   6.899   1.724   1.499  0.4262 -0.3135  0.4587
  408MOL0     H55038   6.997   1.437   1.520 -1.4125 -1.2226  0.4187
  408MOL0     H55039   7.039   1.566   1.633  0.9959 -1.4624 -0.2281
  408MOL0     H55040   7.089   1.344   1.342 -0.7708  0.0474 -0.8468
  408MOL0     H55041   7.216   1.243   1.165  1.2415 -0.3448  0.5199
  408MOL0     H55042   7.381   1.087   0.831  0.8151  3.1355 -0.1666
  408MOL0     H55043   7.552   1.004   0.661 -0.8513 -2.5258  1.6149
  408MOL0     H55044   7.744   0.815   0.635 -0.2158  0.8535  1.2931
  408MOL0     H55045   7.715   0.955   0.534 -0.3136 -1.0702 -1.3596
  408MOL0     H55046   7.876   0.812   0.433 -0.0846 -3.5253  1.3484
  408MOL0     H55047   7.947   0.959   0.487  0.7731 -0.7509  1.0594
  408MOL0     H55048   7.956   0.749   0.699  1.5561  0.2380  0.0617
  408MOL0     H55049   7.999   0.677   0.557  0.1149 -1.4681  3.5803
  408MOL0     H55050   8.134   0.925   0.678  0.2990 -0.5519  0.0716
  408MOL0     H55051   8.166   0.866   0.510  0.3666  2.5646  0.3836
  408MOL0     H55052   8.346   0.800   0.621  0.6537 -0.3113  1.4478
  408MOL0     H55053   8.243   0.656   0.615 -3.1467  0.4966  0.4136
  408MOL0     H55054   8.272   0.829   0.854 -1.3650 -1.3328 -0.4358
  408MOL0     H55055   8.152   0.716   0.829  0.5790 -1.3416  2.0414
  408MOL0     H55056   8.445   0.642   0.767  0.8759 -1.0438  0.8199
  408MOL0     H55057   8.325   0.521   0.826 -1.9081  0.0788  0.2226
  408MOL0     H55058   8.485   0.596   1.017 -0.4152  0.4176  2.1079
  408MOL0     H55059   8.432   0.765   0.990 -1.2993 -0.1798 -0.4349
  408MOL0     H55060   7.862   1.090   0.945 -0.0375 -3.5402  2.8923
  408MOL0     H55061   7.681   1.201   1.093  0.3779  0.4277 -0.2005
  408MOL0     H55062   7.462   1.584   1.125 -0.0237 -1.3755 -0.7897
  408MOL0     H55063   7.330   1.703   1.311  0.2331  0.9597 -2.0623
  408MOL0     H55064   5.390   2.009   1.022  1.2825 -1.6208  0.9276
  408MOL0     H55065   5.167   2.032   1.124 -0.1012 -0.1444 -0.1971
  408MOL0     H55066   4.908   1.829   1.344  0.3065  0.2159  1.0731
  408MOL0     H55067   4.667   1.825   1.373 -0.8586  0.5438  1.6555
  408MOL0     H55068   4.465   1.825   1.489 -0.3030 -0.9967 -1.4769
  408MOL0     H55069   4.465   1.913   1.333 -0.8704  3.1474 -0.1423
  408MOL0     H55070   4.224   1.905   1.381 -1.0302 -4.9657  2.7407
  408MOL0     H55071   4.277   2.067   1.425 -1.8910  0.9253  0.2983
  408MOL0     H55072   4.253   1.837   1.633  2.9605  1.3157  1.0036
  408MOL0     H55073   4.119   1.947   1.587  0.4366  1.5180 -0.3922
  408MOL0     H55074   4.396   2.022   1.707  0.6776  0.6818 -4.2100
  408MOL0     H55075   4.282   2.142   1.649  0.7621  0.9405 -0.3960
  408MOL0     H55076   4.121   2.059   2.027  2.3612 -0.2678  1.6904
  408MOL0     H55077   4.672   2.204   1.569 -0.0465  0.6855  1.3632
  408MOL0     H55078   4.884   2.290   1.649  0.1483 -0.1445 -0.3630
  408MOL0     H55079   5.040   2.236   1.582 -0.2873 -1.8344  0.5919
  408MOL0     H55080   4.929   2.339   1.483 -0.3105 -0.7084 -0.4073
  409MOL0     O55081   7.303   2.681   0.688 -0.1746  0.3733  1.1960
  409MOL0     C55082   7.274   2.574   0.636  0.0670 -0.2921 -0.5134
  409MOL0     O55083   7.146   2.522   0.625  0.3089  0.1205  0.3783
  409MOL0     C55084   7.061   2.577   0.716 -0.0470 -0.4650  1.0348
  409MOL0     C55085   7.002   2.701   0.694  0.0919  0.1507 -0.3352
  409MOL0     C55086   6.904   2.750   0.779 -0.3705 -0.4267 -0.0941
  409MOL0     C55087   6.873   2.688   0.899 -0.4526  0.1567  0.7923
  409MOL0     O55088   6.779   2.722   0.993 -0.6324  0.2973 -0.1243
  409MOL0     C55089   6.690   2.836   0.985 -0.8782 -0.2619 -0.2340
  409MOL0     C55090   6.547   2.781   0.984  0.0426  0.0282 -0.5078
  409MOL0     C55091   6.440   2.894   0.995  0.4322  0.3281 -0.0420
  409MOL0     C55092   6.420   2.943   1.139  0.5840 -1.0646 -0.9925
  409MOL0     C55093   6.266   2.946   1.187  0.6515  0.6318  0.0351
  409MOL0     C55094   6.180   3.067   1.144 -0.3737 -0.8980  0.0900
  409MOL0     C55095   6.177   3.074   0.989 -0.0911  0.2638 -0.6230
  409MOL0     C55096   6.093   3.179   0.924  0.2164  0.0316 -0.0393
  409MOL0     N55097   6.092   3.163   0.782  0.2255 -0.5850  0.4290
  409MOL0     C55098   6.201   3.196   0.695  0.5427  0.6532 -0.7834
  409MOL0     C55099   6.151   3.164   0.572  0.5774 -0.2287  0.0708
  409MOL0     C55100   6.241   3.182   0.453  0.3095 -0.9484  0.2965
  409MOL0     C55101   6.375   3.133   0.458 -1.2311 -0.0596 -0.2918
  409MOL0     C55102   6.426   3.095   0.317  0.4577  0.0206  0.0425
  409MOL0     C55103   6.410   3.213   0.216 -0.9793  0.6421  0.1576
  409MOL0     O55104   6.498   3.164   0.109  0.3021  0.0200  0.4108
  409MOL0     C55105   6.633   3.190   0.105 -0.5962 -0.3940  1.0178
  409MOL0     C55106   6.699   3.149  -0.009 -0.3522 -0.1454  0.5906
  409MOL0     C55107   6.832   3.170  -0.030 -1.3491 -0.6178  0.6943
  409MOL0     C55108   6.907   3.245   0.064  0.1907 -0.0002  0.1686
  409MOL0     C55109   7.058   3.254   0.049  0.0046  0.4135  0.3061
  409MOL0     O55110   7.131   3.331   0.140 -0.2727 -0.0977  0.3571
  409MOL0     C55111   7.271   3.336   0.142  0.0624 -0.2695 -0.0294
  409MOL0     C55112   7.354   3.310   0.031  1.4216 -0.8252 -0.1818
  409MOL0     C55113   7.489   3.305   0.059 -0.3035  0.4224 -0.3436
  409MOL0     C55114   7.547   3.338   0.184 -0.7036 -0.5223 -0.1253
  409MOL0     O55115   7.683   3.350   0.202 -0.2540 -0.8296 -0.2682
  409MOL0     C55116   7.724   3.468   0.131 -0.8723 -0.8955  0.1331
  409MOL0     C55117   7.873   3.499   0.159  0.9708 -0.2207  0.1750
  409MOL0     C55118   7.912   3.628   0.084  0.6213 -0.5107 -0.5996
  409MOL0     C55119   8.054   3.674   0.131  0.1713  1.3424 -0.1055
  409MOL0     C55120   8.099   3.803   0.070  0.0484 -0.5406 -0.0286
  409MOL0     C55121   8.253   3.826   0.097 -0.6247 -0.4484  0.4904
  409MOL0     C55122   8.336   3.880  -0.029  0.1747  0.0796  0.0405
  409MOL0     C55123   8.467   3.944   0.001  0.7487 -0.2236 -0.0466
  409MOL0    Cl55124   8.569   3.833   0.104 -0.1762 -0.2880  0.0170
  409MOL0     C55125   7.469   3.375   0.295 -0.2071 -0.7438  0.2488
  409MOL0     C55126   7.328   3.378   0.264 -0.5644  0.1825 -0.0792
  409MOL0     O55127   7.108   3.175  -0.032  0.7563  0.1650 -0.1127
  409MOL0     C55128   6.842   3.299   0.175 -0.2550  0.3321 -0.1939
  409MOL0     C55129   6.709   3.264   0.202  0.9796 -0.2149 -0.7796
  409MOL0     N55130   6.041   3.092   0.582 -0.0371 -1.0560 -0.2774
  409MOL0     N55131   6.005   3.090   0.709 -0.1405  0.0949  0.5866
  409MOL0     C55132   6.952   2.573   0.925  0.1487  0.8223  0.3126
  409MOL0     C55133   7.041   2.511   0.831  0.5466 -0.0776  0.2619
  409MOL0     C55134   7.377   2.506   0.561 -0.1427 -0.0335 -0.0803
  409MOL0     C55135   7.502   2.496   0.619 -0.4078  0.6262 -0.3107
  409MOL0     C55136   7.607   2.430   0.562 -1.1825  1.1943  1.1440
  409MOL0     C55137   7.578   2.356   0.440  0.2950 -0.2121 -0.0125
  409MOL0     O55138   7.676   2.258   0.402 -0.5163 -0.7737  0.3981
  409MOL0     C55139   7.627   2.128   0.361  0.2415 -0.8422  0.0894
  409MOL0     C55140   7.743   2.017   0.371 -0.0741  0.8111  1.0318
  409MOL0     C55141   7.807   1.995   0.506  0.4738 -0.2417  0.4131
  409MOL0     C55142   7.726   1.884   0.585  0.3240  0.5456  0.1662
  409MOL0     C55143   7.784   1.892   0.723 -0.8491  0.0890  0.1232
  409MOL0     C55144   7.817   1.890   0.839 -0.6027 -0.4730 -0.7840
  409MOL0     C55145   7.456   2.370   0.373 -0.2710  0.1258  0.4204
  409MOL0     C55146   7.358   2.452   0.431 -0.1353 -0.7371 -0.1156
  409MOL0     C55147   7.222   2.457   0.363 -0.8040 -0.3117  0.3672
  409MOL0     H55148   7.011   2.765   0.607 -2.9960  1.5724  0.2552
  409MOL0     H55149   6.848   2.836   0.743 -0.8590  0.8603  3.3736
  409MOL0     H55150   6.707   2.886   1.080  1.5296  2.2682 -1.8600
  409MOL0     H55151   6.725   2.896   0.900 -0.9194 -2.9818 -2.3271
  409MOL0     H55152   6.529   2.709   1.066 -0.2497 -0.4724 -1.0051
  409MOL0     H55153   6.531   2.725   0.892 -3.0530  0.3070 -0.2682
  409MOL0     H55154   6.350   2.849   0.952 -0.6904  1.1456  1.3912
  409MOL0     H55155   6.472   2.977   0.931  0.3905 -0.0586 -0.5741
  409MOL0     H55156   6.460   2.870   1.210  0.2901  0.2396  0.5877
  409MOL0     H55157   6.478   3.034   1.155 -0.3035 -0.6456  0.0230
  409MOL0     H55158   6.211   2.856   1.159 -0.3756  0.5446  2.1586
  409MOL0     H55159   6.266   2.927   1.294 -0.9136  0.4821  0.0292
  409MOL0     H55160   6.077   3.048   1.175 -1.0114 -1.8421 -2.3600
  409MOL0     H55161   6.214   3.156   1.198 -1.6223  0.4578 -1.2803
  409MOL0     H55162   6.131   2.979   0.962  0.2268  0.1846 -0.8878
  409MOL0     H55163   6.280   3.074   0.952  0.5623  2.5776  0.9175
  409MOL0     H55164   5.992   3.172   0.965  1.1956 -1.0704  2.3587
  409MOL0     H55165   6.150   3.267   0.957  1.8650  0.4694 -3.5058
  409MOL0     H55166   6.304   3.229   0.711  0.7458 -0.6801  0.8499
  409MOL0     H55167   6.194   3.130   0.370  0.4320 -1.1564  0.3560
  409MOL0     H55168   6.235   3.286   0.419 -3.2161 -1.4835 -1.0557
  409MOL0     H55169   6.446   3.207   0.496 -1.9882  0.6658 -0.2885
  409MOL0     H55170   6.381   3.043   0.521 -4.3436  0.6204  1.1539
  409MOL0     H55171   6.359   3.016   0.282 -0.0548  0.6582 -0.4276
  409MOL0     H55172   6.525   3.049   0.321  1.7635  2.3524 -2.3223
  409MOL0     H55173   6.441   3.310   0.255  1.8235 -0.9322  2.2452
  409MOL0     H55174   6.306   3.212   0.181 -0.4181  2.6759 -1.7760
  409MOL0     H55175   6.647   3.081  -0.076 -2.5375  2.0118 -0.0109
  409MOL0     H55176   6.875   3.119  -0.116  0.9992  0.7744  0.9456
  409MOL0     H55177   7.314   3.305  -0.070  1.5342  1.7128 -0.4089
  409MOL0     H55178   7.560   3.285  -0.021  2.5961  1.5416  1.7402
  409MOL0     H55179   7.712   3.462   0.022  1.3743  1.0381 -0.3094
  409MOL0     H55180   7.668   3.554   0.168 -1.0626  0.0281 -2.1112
  409MOL0     H55181   7.895   3.509   0.266  0.9349  2.2804  0.0010
  409MOL0     H55182   7.929   3.413   0.121 -2.0816 -3.2289  1.8266
  409MOL0     H55183   7.918   3.607  -0.023  0.1407  2.5608 -1.3244
  409MOL0     H55184   7.838   3.708   0.094 -1.7765 -2.4998 -1.3360
  409MOL0     H55185   8.122   3.591   0.107  0.4969  1.6535 -0.2697
  409MOL0     H55186   8.058   3.682   0.240  1.3270  3.0137 -0.2209
  409MOL0     H55187   8.038   3.884   0.111 -0.9180  0.2369 -2.7613
  409MOL0     H55188   8.082   3.804  -0.038 -1.6991  1.8287  0.1905
  409MOL0     H55189   8.269   3.896   0.179 -3.8445  1.5959 -0.4605
  409MOL0     H55190   8.306   3.732   0.119  3.2365  0.7935 -2.3982
  409MOL0     H55191   8.277   3.957  -0.079  0.3125 -0.6296 -1.2620
  409MOL0     H55192   8.356   3.794  -0.094 -1.0244 -0.6496  0.6183
  409MOL0     H55193   8.521   3.974  -0.089  0.5348  1.1475  0.2501
  409MOL0     H55194   8.450   4.041   0.050  2.4049  0.0874 -0.0447
  409MOL0     H55195   7.514   3.387   0.393  0.4924  0.7731 -0.2408
  409MOL0     H55196   7.255   3.394   0.342 -0.8948 -2.8239  0.3329
  409MOL0     H55197   6.905   3.339   0.253  0.5926 -2.5372  0.7108
  409MOL0     H55198   6.653   3.302   0.286  1.8657  2.7816 -1.4203
  409MOL0     H55199   6.931   2.521   1.018  0.5099 -0.2025 -0.1593
  409MOL0     H55200   7.090   2.419   0.862 -2.0939 -1.6949 -0.0514
  409MOL0     H55201   7.501   2.550   0.713 -1.9011 -0.5568  0.4170
  409MOL0     H55202   7.707   2.425   0.604 -0.7049 -1.1568 -0.1098
  409MOL0     H55203   7.593   2.140   0.258  0.1427 -1.3208  0.0626
  409MOL0     H55204   7.539   2.100   0.419 -0.5689  2.2305  0.5091
  409MOL0     H55205   7.820   2.042   0.298 -0.3758  0.1924  0.4864
  409MOL0     H55206   7.705   1.919   0.339  1.0150  0.4706  0.7351
  409MOL0     H55207   7.807   2.090   0.561  2.3504  0.1378 -0.1509
  409MOL0     H55208   7.908   1.955   0.493  0.4035  0.2799 -2.7056
  409MOL0     H55209   7.619   1.910   0.588  0.1864 -0.1025  2.2658
  409MOL0     H55210   7.737   1.784   0.542  1.8117  0.2683  1.1270
  409MOL0     H55211   7.830   1.886   0.945 -1.3304 -0.8076 -0.7003
  409MOL0     H55212   7.435   2.329   0.274 -2.6762 -0.8668  1.2540
  409MOL0     H55213   7.175   2.381   0.426  1.7383 -1.3550  1.1329
  409MOL0     H55214   7.170   2.553   0.364 -3.1570 -1.4171 -1.9747
  409MOL0     H55215   7.208   2.408   0.267  1.0003  0.6400 -0.4230
  410MOL0     O55216   9.473   7.931   5.723  0.4352 -0.6603  0.1035
  410MOL0     C55217   9.424   7.917   5.611  1.2033  0.6012  0.8734
  410MOL0     O55218   9.448   7.818   5.529  0.3206  0.5002 -0.1474
  410MOL0     C55219   9.560   7.737   5.557 -0.1638  0.1189  0.8851
  410MOL0     C55220   9.676   7.769   5.490  0.2721 -0.7220  0.6459
  410MOL0     C55221   9.796   7.704   5.517  0.1719 -1.0367  0.3466
  410MOL0     C55222   9.798   7.594   5.614  0.6110  0.0181 -0.4442
  410MOL0     O55223   9.909   7.528   5.648  0.2163  0.1495  0.5239
  410MOL0     C55224   9.910   7.408   5.572  0.5182 -0.1263  0.1912
  410MOL0     C55225  10.029   7.322   5.589 -0.6436 -0.5777  0.8901
  410MOL0     C55226  10.023   7.197   5.511 -0.6354  0.8488  0.6120
  410MOL0     C55227  10.109   7.082   5.572  0.1477 -0.3478  0.4574
  410MOL0     C55228  10.141   6.980   5.474  0.2629 -1.4807  1.1951
  410MOL0     C55229  10.243   7.022   5.368 -0.0172 -0.2051 -0.2140
  410MOL0     C55230  10.283   6.904   5.281 -0.1288 -0.4815  0.0975
  410MOL0     C55231  10.353   6.781   5.347 -0.5856 -0.3213 -0.6366
  410MOL0     N55232  10.494   6.806   5.382 -0.2841  0.1998  0.1833
  410MOL0     C55233  10.535   6.841   5.506  0.1621  0.4159 -0.1341
  410MOL0     C55234  10.663   6.893   5.492 -1.1665  0.4118  1.1785
  410MOL0     C55235  10.729   6.955   5.619 -0.4639 -0.4083 -0.1518
  410MOL0     C55236  10.800   7.084   5.587  1.0415 -0.2353  0.3526
  410MOL0     C55237  10.920   7.083   5.500 -0.8407 -0.7244  0.5410
  410MOL0     C55238  11.036   7.003   5.556 -0.0352 -0.1154  0.8685
  410MOL0     O55239  11.148   7.015   5.465  0.4771  0.0161  0.8611
  410MOL0     C55240  11.264   7.084   5.491 -0.0040 -1.2754 -0.3710
  410MOL0     C55241  11.366   7.072   5.397  0.0436 -1.0668  0.0961
  410MOL0     C55242  11.494   7.129   5.416  0.1003  0.1366  0.0104
  410MOL0     C55243  11.507   7.202   5.533 -0.8358 -0.5973 -0.3794
  410MOL0     C55244  11.638   7.272   5.561  0.2081 -0.9303 -0.1761
  410MOL0     O55245  11.736   7.262   5.471 -0.6540  0.0235 -0.7976
  410MOL0     C55246  11.858   7.312   5.513 -1.0445 -0.0928 -0.4124
  410MOL0     C55247  11.928   7.278   5.628 -0.5540 -0.1410  0.1338
  410MOL0     C55248  12.063   7.320   5.668  0.6287  0.1096  0.3765
  410MOL0     C55249  12.130   7.412   5.584 -0.1135  0.0967  0.0764
  410MOL0     O55250  12.255   7.464   5.619  0.2974  0.6539 -0.2261
  410MOL0     C55251  12.347   7.461   5.508  0.1173  0.3045 -0.0287
  410MOL0     C55252  12.466   7.555   5.533 -0.3271 -0.2118  0.0657
  410MOL0     C55253  12.510   7.564   5.678 -0.5157 -0.9280  0.3200
  410MOL0     C55254  12.651   7.632   5.692 -1.0545 -0.1292  0.0335
  410MOL0     C55255  12.774   7.551   5.649  0.0547  0.2645 -0.4810
  410MOL0     C55256  12.903   7.633   5.676 -0.5713 -0.1951 -1.0590
  410MOL0     C55257  13.027   7.580   5.596  0.6334  0.4707  0.7433
  410MOL0     C55258  13.048   7.428   5.624  0.3989 -0.1969 -0.2456
  410MOL0    Cl55259  13.191   7.369   5.558  0.4549 -0.1605 -0.0205
  410MOL0     C55260  12.057   7.450   5.466  0.1617  0.2437  0.1927
  410MOL0     C55261  11.935   7.406   5.438  0.2964 -0.0212 -0.4620
  410MOL0     O55262  11.645   7.325   5.670 -0.2880 -0.1035 -0.4164
  410MOL0     C55263  11.398   7.241   5.614 -0.7294  0.2689  0.1907
  410MOL0     C55264  11.274   7.189   5.586 -0.1273  0.0851 -0.6256
  410MOL0     N55265  10.695   6.874   5.357 -0.2107  0.9123  0.6709
  410MOL0     N55266  10.595   6.837   5.295  0.4025 -0.3300  0.7903
  410MOL0     C55267   9.671   7.549   5.665 -0.7152  0.6409 -0.1629
  410MOL0     C55268   9.561   7.629   5.646 -0.4731 -0.2605 -0.4982
  410MOL0     C55269   9.319   8.010   5.557  0.4127 -0.8721  0.3910
  410MOL0     C55270   9.349   8.079   5.438 -0.2458  0.9038 -0.3018
  410MOL0     C55271   9.245   8.165   5.389  0.9176  0.3182  0.0811
  410MOL0     C55272   9.135   8.190   5.470 -0.7597  0.6086  0.3679
  410MOL0     O55273   9.032   8.284   5.443  0.6827  0.3460 -0.0082
  410MOL0     C55274   9.040   8.361   5.327 -0.0224  0.5419 -0.2984
  410MOL0     C55275   8.961   8.482   5.362  1.1659 -1.1061 -0.0808
  410MOL0     C55276   8.842   8.469   5.451  0.5730  0.0855 -0.3060
  410MOL0     C55277   8.779   8.609   5.464  1.0249  0.5056  0.1511
  410MOL0     C55278   8.654   8.586   5.531  0.5596  0.0200 -0.3718
  410MOL0     C55279   8.540   8.539   5.561 -1.2179 -0.2516 -0.0133
  410MOL0     C55280   9.111   8.135   5.601 -0.0757  0.0692  1.0173
  410MOL0     C55281   9.203   8.037   5.638  0.2675 -0.4571  0.7458
  410MOL0     C55282   9.165   7.967   5.768  0.0350  0.1160 -0.8255
  410MOL0     H55283   9.684   7.845   5.413  2.6657 -1.7099 -0.1887
  410MOL0     H55284   9.884   7.732   5.459 -2.1455  0.9022 -2.5387
  410MOL0     H55285   9.833   7.343   5.615  1.7422  0.4422  3.4727
  410MOL0     H55286   9.879   7.425   5.468 -2.3939 -0.1081  0.9526
  410MOL0     H55287  10.034   7.290   5.694 -1.7353 -3.9039  0.0458
  410MOL0     H55288  10.117   7.383   5.564  0.8996 -1.9690  2.5509
  410MOL0     H55289  10.059   7.227   5.412 -0.3806  0.3712  0.5569
  410MOL0     H55290   9.922   7.156   5.501  0.7626 -3.1232  0.8898
  410MOL0     H55291  10.202   7.120   5.615  1.5499 -1.2832 -1.5773
  410MOL0     H55292  10.049   7.047   5.656 -1.9522 -1.1948 -1.2792
  410MOL0     H55293  10.171   6.900   5.543  0.3347 -0.0688  2.8485
  410MOL0     H55294  10.054   6.946   5.417 -0.7350  0.5114  1.4595
  410MOL0     H55295  10.201   7.098   5.301  2.1781 -0.4000 -1.9005
  410MOL0     H55296  10.338   7.061   5.406 -1.3575  2.6701  0.4791
  410MOL0     H55297  10.347   6.938   5.200  0.3028  1.8435  1.3310
  410MOL0     H55298  10.191   6.864   5.236 -0.6717 -1.2387  1.8042
  410MOL0     H55299  10.307   6.764   5.445 -1.5013 -3.1869 -1.4689
  410MOL0     H55300  10.348   6.688   5.291  1.4973  0.2414 -1.8683
  410MOL0     H55301  10.481   6.833   5.599  1.7864 -0.2285  0.7954
  410MOL0     H55302  10.657   6.970   5.700 -0.5289  1.3862 -0.5187
  410MOL0     H55303  10.805   6.890   5.664  0.0542  0.3001 -0.0019
  410MOL0     H55304  10.723   7.154   5.553  0.6178 -0.7668  0.2145
  410MOL0     H55305  10.830   7.132   5.680 -1.1503  1.1615  0.3976
  410MOL0     H55306  10.966   7.182   5.489 -3.5520  0.5448 -0.2899
  410MOL0     H55307  10.889   7.051   5.400  1.8062 -3.0475  0.3444
  410MOL0     H55308  11.011   6.897   5.547  2.0285 -0.5498 -0.3854
  410MOL0     H55309  11.057   7.036   5.658 -0.1928  2.0593  0.2450
  410MOL0     H55310  11.341   7.019   5.305 -0.4228  3.5823 -2.7827
  410MOL0     H55311  11.572   7.093   5.350  0.5970  1.1142  0.0465
  410MOL0     H55312  11.876   7.213   5.698 -0.4737 -0.3809 -0.0286
  410MOL0     H55313  12.121   7.273   5.747  0.9674 -0.5020 -0.2244
  410MOL0     H55314  12.384   7.358   5.500  1.3631  0.7683 -0.4962
  410MOL0     H55315  12.306   7.485   5.409 -0.1377 -1.8908 -0.5146
  410MOL0     H55316  12.550   7.531   5.467 -2.6813 -2.4147 -2.3666
  410MOL0     H55317  12.444   7.657   5.500  2.0421  0.4997  0.4735
  410MOL0     H55318  12.442   7.636   5.726  1.2752 -1.2396  3.6474
  410MOL0     H55319  12.505   7.466   5.725 -0.0216 -1.0869  0.0479
  410MOL0     H55320  12.660   7.654   5.799 -2.8343 -2.6539  0.7920
  410MOL0     H55321  12.666   7.726   5.637 -2.4170 -0.5815 -1.1927
  410MOL0     H55322  12.777   7.524   5.543 -2.8139 -0.2567 -0.4930
  410MOL0     H55323  12.775   7.456   5.703  1.5526  0.5368  0.0152
  410MOL0     H55324  12.894   7.739   5.649  2.7667  0.7851  0.9919
  410MOL0     H55325  12.906   7.632   5.786  2.2775 -1.2373 -1.0665
  410MOL0     H55326  13.120   7.634   5.618  1.7235 -1.0615  0.0529
  410MOL0     H55327  13.007   7.606   5.492 -2.5096  0.8227  1.3411
  410MOL0     H55328  13.044   7.419   5.733 -0.7614 -2.1476 -0.4051
  410MOL0     H55329  12.968   7.362   5.588  2.0650 -1.7376 -1.2793
  410MOL0     H55330  12.103   7.517   5.395 -0.3836 -1.8553 -2.2815
  410MOL0     H55331  11.900   7.437   5.340  1.5279  1.7125 -0.4024
  410MOL0     H55332  11.427   7.310   5.692  1.1180  0.5487 -0.6843
  410MOL0     H55333  11.194   7.221   5.651  1.9996  0.5366  1.9474
  410MOL0     H55334   9.673   7.463   5.732  1.6111  0.8602  0.1157
  410MOL0     H55335   9.465   7.625   5.695  0.9111  0.7429  2.5420
  410MOL0     H55336   9.438   8.062   5.379 -0.5173 -1.2857 -0.1528
  410MOL0     H55337   9.252   8.218   5.294  1.0332  0.1797  0.0117
  410MOL0     H55338   9.001   8.303   5.242  2.3258 -2.4670  0.5180
  410MOL0     H55339   9.143   8.390   5.302  0.2031 -0.1433 -0.1722
  410MOL0     H55340   8.922   8.528   5.271  0.1310  1.1380  1.4102
  410MOL0     H55341   9.037   8.550   5.402 -0.1347  0.4501 -0.1602
  410MOL0     H55342   8.877   8.433   5.549 -2.3883 -0.8948  0.4917
  410MOL0     H55343   8.771   8.389   5.428 -1.6874  1.3381  1.9056
  410MOL0     H55344   8.843   8.684   5.511  1.5360  0.8273 -1.0198
  410MOL0     H55345   8.747   8.648   5.367 -1.2645  1.2255  1.1366
  410MOL0     H55346   8.445   8.502   5.594 -2.3764  2.2455 -0.2843
  410MOL0     H55347   9.021   8.163   5.654 -3.0698 -1.1675 -2.9722
  410MOL0     H55348   9.059   7.979   5.790  0.0031 -0.9017 -0.4022
  410MOL0     H55349   9.191   7.861   5.762  0.3538 -0.0118  1.8151
  410MOL0     H55350   9.234   7.996   5.848 -0.9760 -3.0140  1.3607
  411MOL0     O55351   0.691   3.895   6.362  0.4044 -0.0918  0.0045
  411MOL0     C55352   0.679   3.885   6.239  0.3203  0.0558 -0.6471
  411MOL0     O55353   0.787   3.848   6.152  0.6543  0.1733 -0.4865
  411MOL0     C55354   0.903   3.792   6.210 -0.3518  0.9396  0.3790
  411MOL0     C55355   0.908   3.687   6.309  0.1876  0.6990  0.0443
  411MOL0     C55356   1.032   3.614   6.342  0.4230 -0.5840 -0.4985
  411MOL0     C55357   1.149   3.649   6.259  0.8326 -0.2578  0.3654
  411MOL0     O55358   1.265   3.579   6.284 -0.2500 -1.2500  0.1280
  411MOL0     C55359   1.392   3.599   6.216  0.5465 -0.4426 -0.3575
  411MOL0     C55360   1.492   3.491   6.258 -0.2105 -0.2747  0.0656
  411MOL0     C55361   1.454   3.351   6.232 -0.2095  0.4947 -0.2853
  411MOL0     C55362   1.478   3.300   6.092  0.1157  0.0257  0.5015
  411MOL0     C55363   1.361   3.337   5.996  0.1992 -0.4173  0.3043
  411MOL0     C55364   1.381   3.244   5.876 -0.2714  0.3383 -0.5784
  411MOL0     C55365   1.499   3.282   5.779  0.9298 -0.3295  0.4362
  411MOL0     C55366   1.496   3.434   5.738  0.7107 -0.5300  0.2109
  411MOL0     N55367   1.601   3.503   5.811 -0.4249 -0.1104 -1.1154
  411MOL0     C55368   1.737   3.491   5.790  0.2060 -0.1944  0.4767
  411MOL0     C55369   1.797   3.570   5.878  0.4427 -0.1733  0.5178
  411MOL0     C55370   1.944   3.605   5.894 -0.0894 -0.8055 -0.3928
  411MOL0     C55371   2.007   3.587   6.040  0.0912 -0.3625 -0.8965
  411MOL0     C55372   2.158   3.621   6.049 -0.3549  0.6585  0.5873
  411MOL0     C55373   2.224   3.567   6.169 -0.8354 -0.0269  0.7175
  411MOL0     O55374   2.191   3.429   6.180  0.6044  0.6849 -0.1649
  411MOL0     C55375   2.233   3.355   6.291 -0.8602 -0.5937  0.6537
  411MOL0     C55376   2.277   3.415   6.411  1.2546 -0.7863 -0.5190
  411MOL0     C55377   2.307   3.337   6.518  0.4838 -0.5028  0.2905
  411MOL0     C55378   2.308   3.197   6.512  0.1942  0.1429 -0.5046
  411MOL0     C55379   2.367   3.125   6.625  0.0671  0.2912 -0.6101
  411MOL0     O55380   2.424   3.206   6.730 -0.0509  0.3743 -0.3414
  411MOL0     C55381   2.503   3.145   6.833  0.6324  0.1108 -0.3420
  411MOL0     C55382   2.484   3.203   6.955  0.1869  1.1063 -0.2441
  411MOL0     C55383   2.570   3.185   7.060 -0.4045 -0.0583 -1.0451
  411MOL0     C55384   2.682   3.092   7.042  0.3154  0.7653  1.1441
  411MOL0     O55385   2.761   3.052   7.142 -0.4440  0.7223  0.0081
  411MOL0     C55386   2.786   3.133   7.256  0.2146  0.4506 -0.3744
  411MOL0     C55387   2.902   3.078   7.337  1.3537  0.3157  1.2448
  411MOL0     C55388   3.026   3.063   7.249 -0.1758  0.2390 -0.0114
  411MOL0     C55389   3.143   3.032   7.338  0.2087 -0.1595 -0.4776
  411MOL0     C55390   3.188   2.892   7.325  0.4701  0.3106  0.1071
  411MOL0     C55391   3.290   2.855   7.440 -0.6282  0.0441  0.2661
  411MOL0     C55392   3.355   2.716   7.420 -0.0847  0.4679  0.5667
  411MOL0     C55393   3.507   2.714   7.471  0.5469  0.6130 -0.0683
  411MOL0    Cl55394   3.541   2.787   7.637  0.2732 -0.3255 -0.5389
  411MOL0     C55395   2.694   3.019   6.925 -0.0580 -0.2871  0.6259
  411MOL0     C55396   2.604   3.044   6.821  0.8389 -0.3789 -1.1814
  411MOL0     O55397   2.379   3.003   6.621  0.1625  0.0769 -0.8094
  411MOL0     C55398   2.275   3.137   6.389  0.1127  0.2991  0.0507
  411MOL0     C55399   2.233   3.218   6.286  0.9418 -0.3951  0.6316
  411MOL0     N55400   1.703   3.623   5.965 -0.7345 -0.3651  0.1873
  411MOL0     N55401   1.590   3.575   5.930 -0.3446 -0.7213 -0.6591
  411MOL0     C55402   1.142   3.762   6.170 -0.0707 -0.5014  0.4433
  411MOL0     C55403   1.023   3.832   6.149  0.6311  0.7066 -0.4931
  411MOL0     C55404   0.547   3.903   6.190  0.2292  0.3620 -1.3235
  411MOL0     C55405   0.497   3.819   6.100 -0.4026  0.6552 -0.6984
  411MOL0     C55406   0.369   3.830   6.053 -0.2868 -0.1581 -0.0071
  411MOL0     C55407   0.288   3.933   6.092  0.5953  0.4235 -1.0344
  411MOL0     O55408   0.160   3.968   6.035 -0.0826  0.1457 -0.6792
  411MOL0     C55409   0.087   3.888   5.946 -0.0212 -0.4244  0.1394
  411MOL0     C55410  -0.008   3.972   5.861 -0.3550 -0.1427 -0.0454
  411MOL0     C55411   0.063   4.051   5.750  0.1556  0.0616  0.5402
  411MOL0     C55412   0.084   3.986   5.608 -1.1556  0.4469 -0.9512
  411MOL0     C55413  -0.041   3.968   5.536 -0.3034  1.3913 -0.5886
  411MOL0     C55414  -0.149   3.958   5.493  0.1595  0.3113 -0.2712
  411MOL0     C55415   0.332   4.021   6.185  0.3141 -0.3603 -0.5333
  411MOL0     C55416   0.462   4.012   6.238  1.8453  0.0441 -0.1457
  411MOL0     C55417   0.512   4.125   6.328  0.4448 -0.0921 -0.6724
  411MOL0     H55418   0.824   3.643   6.362  0.2906 -0.0650 -0.4279
  411MOL0     H55419   1.027   3.534   6.415  1.5075 -1.1289 -0.9980
  411MOL0     H55420   1.377   3.599   6.108  3.9451 -1.3431 -0.9529
  411MOL0     H55421   1.434   3.697   6.242  0.4892 -0.5732  0.2348
  411MOL0     H55422   1.496   3.502   6.367  2.5825 -0.7410  0.0681
  411MOL0     H55423   1.591   3.505   6.215 -0.8102 -2.9181 -2.4531
  411MOL0     H55424   1.356   3.323   6.273  1.5530 -1.8125  2.7802
  411MOL0     H55425   1.522   3.288   6.290  2.0127  2.9688 -0.0095
  411MOL0     H55426   1.578   3.327   6.055 -0.2559 -2.7276 -2.9887
  411MOL0     H55427   1.478   3.191   6.091 -0.0573  0.0167 -1.1292
  411MOL0     H55428   1.263   3.307   6.035 -1.3915  0.2389 -2.8740
  411MOL0     H55429   1.375   3.444   5.979  0.8210  0.1802  3.8800
  411MOL0     H55430   1.394   3.139   5.905  0.7157  0.5513 -0.2240
  411MOL0     H55431   1.289   3.238   5.816  0.7299 -2.1605 -2.0251
  411MOL0     H55432   1.486   3.235   5.681  5.0459 -1.4746  0.2656
  411MOL0     H55433   1.593   3.248   5.822  0.6742 -0.8442  0.5957
  411MOL0     H55434   1.526   3.429   5.633  0.8637 -0.2005  0.2386
  411MOL0     H55435   1.403   3.493   5.742  1.2568  0.3049  0.8551
  411MOL0     H55436   1.788   3.440   5.709  0.8725  0.2877  0.5839
  411MOL0     H55437   1.998   3.538   5.827  2.1673 -1.1476  1.6217
  411MOL0     H55438   1.965   3.706   5.858  1.2352 -0.7464  0.4753
  411MOL0     H55439   1.962   3.661   6.107  0.5059 -2.0297  1.3290
  411MOL0     H55440   1.975   3.489   6.077 -0.3717  0.4727  1.0144
  411MOL0     H55441   2.172   3.729   6.055 -0.8731  0.6611  2.3192
  411MOL0     H55442   2.209   3.591   5.957  0.2962  0.7497  0.9140
  411MOL0     H55443   2.177   3.618   6.253 -2.5186  0.3886 -0.4284
  411MOL0     H55444   2.332   3.585   6.172 -1.1294  1.8268  1.2864
  411MOL0     H55445   2.273   3.523   6.414 -3.0695 -0.7664  0.5871
  411MOL0     H55446   2.323   3.391   6.611 -0.8580 -0.7711  0.7126
  411MOL0     H55447   2.401   3.270   6.970 -0.8914 -0.5465  1.6580
  411MOL0     H55448   2.558   3.228   7.158  0.3823 -2.7116  0.3041
  411MOL0     H55449   2.819   3.234   7.227  3.2790  0.5901  2.9492
  411MOL0     H55450   2.699   3.142   7.321 -1.7050  0.9750 -2.8471
  411MOL0     H55451   2.921   3.146   7.420 -2.6168  3.0543  0.2189
  411MOL0     H55452   2.870   2.979   7.371  1.7467 -1.4024 -2.8018
  411MOL0     H55453   3.013   2.991   7.167 -0.6100 -0.8275  0.9648
  411MOL0     H55454   3.046   3.161   7.206 -3.1032  1.1292  0.4336
  411MOL0     H55455   3.114   3.050   7.442 -2.5375 -1.2417 -0.9601
  411MOL0     H55456   3.223   3.106   7.336  1.7400 -1.5425  2.5825
  411MOL0     H55457   3.231   2.880   7.225  1.9969 -0.5567  0.8340
  411MOL0     H55458   3.100   2.827   7.333 -1.5123  3.0261  2.2922
  411MOL0     H55459   3.366   2.934   7.448 -0.1019 -0.4905  0.6401
  411MOL0     H55460   3.237   2.857   7.536  0.9652 -0.4377  1.1934
  411MOL0     H55461   3.342   2.690   7.315 -0.7607  0.6362  0.6075
  411MOL0     H55462   3.302   2.641   7.479 -0.5579  0.8198  0.5958
  411MOL0     H55463   3.529   2.608   7.488  1.2742  1.0202  1.7825
  411MOL0     H55464   3.570   2.771   7.403 -0.2854  1.7981  0.1168
  411MOL0     H55465   2.758   2.932   6.926 -2.4752 -2.1874  2.1682
  411MOL0     H55466   2.624   2.996   6.725 -0.7166 -1.6316 -0.9113
  411MOL0     H55467   2.298   3.031   6.380  1.9138  0.2837  3.3820
  411MOL0     H55468   2.196   3.181   6.191 -0.0783 -0.6875  1.1280
  411MOL0     H55469   1.231   3.796   6.119  0.9065 -0.4008  2.1563
  411MOL0     H55470   1.034   3.910   6.075  3.5224  1.9913  1.0967
  411MOL0     H55471   0.553   3.733   6.065 -3.1008 -0.4587 -2.5343
  411MOL0     H55472   0.340   3.753   5.982 -0.4949 -0.3535  0.2856
  411MOL0     H55473   0.027   3.803   5.980 -1.1367  0.3770  0.2300
  411MOL0     H55474   0.162   3.838   5.884  0.4322 -0.1317  0.4429
  411MOL0     H55475  -0.055   4.041   5.932  1.5579 -1.6531  2.9172
  411MOL0     H55476  -0.083   3.901   5.826 -1.1607 -1.3066  3.6071
  411MOL0     H55477   0.164   4.074   5.784  0.1750  0.8892 -0.0415
  411MOL0     H55478  -0.008   4.133   5.734 -3.6255 -3.3685 -2.4744
  411MOL0     H55479   0.155   4.041   5.544  0.3713 -1.8156 -1.2944
  411MOL0     H55480   0.123   3.885   5.620  1.5041  1.0708 -3.1539
  411MOL0     H55481  -0.248   3.963   5.453 -0.8610  0.6404  2.1465
  411MOL0     H55482   0.271   4.092   6.240  3.9124  1.6397  1.2767
  411MOL0     H55483   0.495   4.087   6.430  1.9916 -0.2628 -0.4515
  411MOL0     H55484   0.620   4.143   6.324  1.5010 -4.1899  2.1446
  411MOL0     H55485   0.457   4.218   6.315  2.2588  1.2719  0.7665
  412MOL0     O55486   4.431   4.152   3.229 -0.5676 -0.4481 -0.2029
  412MOL0     C55487   4.520   4.204   3.162 -0.6109  0.5575 -0.9897
  412MOL0     O55488   4.504   4.260   3.042 -0.3394  0.5663 -0.0148
  412MOL0     C55489   4.375   4.282   2.996 -0.7462 -0.4325 -0.0821
  412MOL0     C55490   4.297   4.367   3.078 -0.2317  0.7330  0.5438
  412MOL0     C55491   4.180   4.424   3.030  0.3846 -0.0527  0.3224
  412MOL0     C55492   4.143   4.418   2.893  0.5625  0.4005 -0.8076
  412MOL0     O55493   4.031   4.472   2.845 -0.0817  0.1047  0.2551
  412MOL0     C55494   3.917   4.448   2.921 -0.1047 -1.0571  0.2747
  412MOL0     C55495   3.808   4.389   2.834  0.3241  0.1335  0.4961
  412MOL0     C55496   3.725   4.489   2.747 -0.0074 -0.0963 -0.0450
  412MOL0     C55497   3.659   4.420   2.629 -0.2887 -0.7660 -0.2929
  412MOL0     C55498   3.588   4.530   2.534 -0.6337  0.4794 -0.0508
  412MOL0     C55499   3.555   4.479   2.388  0.5142  0.9540 -0.8657
  412MOL0     C55500   3.465   4.361   2.394  0.3059  0.4098  1.0826
  412MOL0     C55501   3.433   4.328   2.244  0.1774  0.4878  0.3676
  412MOL0     N55502   3.553   4.274   2.170  0.0806  0.6216  0.6909
  412MOL0     C55503   3.648   4.345   2.106  0.1172  0.2037 -0.3533
  412MOL0     C55504   3.725   4.258   2.035  0.3900 -0.1001 -1.5883
  412MOL0     C55505   3.850   4.291   1.956  0.3815  0.5310  0.0129
  412MOL0     C55506   3.961   4.190   1.990 -0.1804  0.9877 -0.2117
  412MOL0     C55507   4.097   4.225   1.917 -0.7353  0.3976 -0.8136
  412MOL0     C55508   4.188   4.102   1.901  0.0127  0.6279 -0.0377
  412MOL0     O55509   4.301   4.129   1.808  0.1677 -0.6663 -0.1013
  412MOL0     C55510   4.418   4.198   1.852  0.5015  0.2203  0.4741
  412MOL0     C55511   4.447   4.221   1.987  0.0223  0.2354 -0.2048
  412MOL0     C55512   4.573   4.280   2.025  0.0373 -0.2998 -0.2092
  412MOL0     C55513   4.670   4.311   1.929 -1.0627 -0.1796 -0.0220
  412MOL0     C55514   4.796   4.362   1.977 -0.3140  0.2526  0.1260
  412MOL0     O55515   4.803   4.404   2.113  0.7824  0.2846  0.3128
  412MOL0     C55516   4.926   4.462   2.146  0.3607  0.7392 -0.3572
  412MOL0     C55517   4.960   4.598   2.111 -0.4596 -0.0493 -0.6078
  412MOL0     C55518   5.080   4.657   2.149  0.7966  0.0541  0.3770
  412MOL0     C55519   5.158   4.600   2.247  0.7837  0.5208 -0.5049
  412MOL0     O55520   5.268   4.658   2.296  0.1781 -0.6375  0.0448
  412MOL0     C55521   5.278   4.798   2.303  0.0076  0.1939  0.6262
  412MOL0     C55522   5.317   4.851   2.444 -0.3613 -0.6278  0.2779
  412MOL0     C55523   5.457   4.914   2.437 -0.2591  0.3721 -0.5098
  412MOL0     C55524   5.491   4.964   2.584 -0.3023 -0.7164  0.4664
  412MOL0     C55525   5.609   5.066   2.576 -0.8339 -0.0603 -0.2510
  412MOL0     C55526   5.657   5.097   2.713 -1.2477 -0.2978  0.3397
  412MOL0     C55527   5.781   5.195   2.713 -1.1168 -0.4924 -0.2499
  412MOL0     C55528   5.832   5.220   2.858 -0.2367  0.5641  0.1448
  412MOL0    Cl55529   5.754   5.342   2.941 -0.4726 -0.3469 -0.1811
  412MOL0     C55530   5.123   4.471   2.295 -0.4841 -0.8176  0.1116
  412MOL0     C55531   5.009   4.403   2.241 -0.5563  0.1079  0.1249
  412MOL0     O55532   4.890   4.364   1.891  0.2763  0.5340 -0.0471
  412MOL0     C55533   4.635   4.300   1.796  0.0644  0.8172  1.0149
  412MOL0     C55534   4.511   4.232   1.755 -1.0128 -0.4484  0.2593
  412MOL0     N55535   3.679   4.129   2.071 -0.2415  0.7137  0.1104
  412MOL0     N55536   3.575   4.139   2.145 -0.0632  0.0499 -0.2241
  412MOL0     C55537   4.224   4.340   2.810 -0.1899  0.2117 -0.9041
  412MOL0     C55538   4.338   4.269   2.863 -0.6382  0.2539  0.2313
  412MOL0     C55539   4.664   4.173   3.203  0.2990 -0.6241 -0.5063
  412MOL0     C55540   4.765   4.247   3.139  0.0721 -0.3923  0.5358
  412MOL0     C55541   4.900   4.232   3.164 -0.1202  0.1903  0.0330
  412MOL0     C55542   4.948   4.145   3.253 -0.4495  0.9191 -0.4675
  412MOL0     O55543   5.086   4.132   3.276  0.1279 -0.0526  0.1516
  412MOL0     C55544   5.126   4.130   3.415 -0.1277  0.7044 -0.3288
  412MOL0     C55545   5.268   4.185   3.412 -0.5651  0.1263 -0.6376
  412MOL0     C55546   5.350   4.167   3.537 -0.2320  0.7955  0.3675
  412MOL0     C55547   5.399   4.021   3.561  1.1158  0.8567  0.6010
  412MOL0     C55548   5.477   3.959   3.459 -0.1206 -0.4968  0.3262
  412MOL0     C55549   5.547   3.907   3.372 -0.4966 -0.9314 -0.5299
  412MOL0     C55550   4.853   4.065   3.321 -0.0665  0.5085  0.1941
  412MOL0     C55551   4.713   4.086   3.306 -0.0089 -0.3315  0.0284
  412MOL0     C55552   4.615   4.014   3.399 -0.5534 -0.0644  0.2867
  412MOL0     H55553   4.336   4.394   3.176  6.4866  1.5822 -1.8485
  412MOL0     H55554   4.120   4.479   3.102  3.0130 -0.4805  3.0560
  412MOL0     H55555   3.932   4.381   3.006 -0.3635 -0.9917  0.3755
  412MOL0     H55556   3.878   4.541   2.964 -1.0085 -1.9656  1.4931
  412MOL0     H55557   3.740   4.323   2.888 -0.4922  0.7313  0.2271
  412MOL0     H55558   3.865   4.332   2.761 -1.2030 -1.6747  0.6424
  412MOL0     H55559   3.788   4.570   2.711  1.5868 -2.5131 -3.2248
  412MOL0     H55560   3.647   4.532   2.810  0.9665 -0.9098  1.7959
  412MOL0     H55561   3.734   4.378   2.562  1.0216  1.7207 -0.5007
  412MOL0     H55562   3.587   4.345   2.661  0.0231  0.6480  4.5681
  412MOL0     H55563   3.502   4.565   2.591 -0.2031  0.7896  0.4263
  412MOL0     H55564   3.650   4.620   2.526 -0.2862  0.1310 -1.6600
  412MOL0     H55565   3.500   4.566   2.350 -0.8995 -0.5672 -2.4751
  412MOL0     H55566   3.650   4.466   2.336  0.4430 -0.5593 -0.6471
  412MOL0     H55567   3.375   4.376   2.454  0.4837  1.6879  1.0488
  412MOL0     H55568   3.508   4.268   2.432  0.4178 -0.1912 -0.4310
  412MOL0     H55569   3.357   4.250   2.248  0.8943 -0.6622 -3.7419
  412MOL0     H55570   3.392   4.409   2.182 -0.5097 -0.2631 -0.1751
  412MOL0     H55571   3.660   4.453   2.115 -0.9298  0.2578  0.7035
  412MOL0     H55572   3.824   4.290   1.850 -1.4752  0.5027  0.4326
  412MOL0     H55573   3.902   4.384   1.982 -1.3559  1.3203  0.8789
  412MOL0     H55574   3.985   4.188   2.097  0.0950 -0.1426 -0.2853
  412MOL0     H55575   3.925   4.091   1.960  0.8826 -0.2850  2.4216
  412MOL0     H55576   4.150   4.303   1.972 -3.5238  1.2728  0.8375
  412MOL0     H55577   4.072   4.266   1.819  0.5595  0.3426 -1.1943
  412MOL0     H55578   4.133   4.016   1.861  4.5570 -2.3466 -0.6591
  412MOL0     H55579   4.229   4.071   1.997  0.6147 -0.1817 -0.5365
  412MOL0     H55580   4.383   4.183   2.067 -2.9849  2.5265 -1.3240
  412MOL0     H55581   4.590   4.289   2.132 -0.4420 -0.6467 -0.0983
  412MOL0     H55582   4.907   4.654   2.034  0.6792 -0.3927 -1.6694
  412MOL0     H55583   5.112   4.753   2.109  2.2300  0.4333  2.3079
  412MOL0     H55584   5.362   4.813   2.235  0.1317 -2.5473  0.0557
  412MOL0     H55585   5.189   4.847   2.262  0.4027  0.7951  0.4647
  412MOL0     H55586   5.239   4.924   2.469 -0.5591 -0.4623 -0.7746
  412MOL0     H55587   5.300   4.768   2.513 -1.7523 -3.0437 -2.7032
  412MOL0     H55588   5.533   4.841   2.410  0.3228  1.6264 -2.4636
  412MOL0     H55589   5.463   4.997   2.365 -1.4163  0.5231 -0.4550
  412MOL0     H55590   5.534   4.877   2.635  0.1049 -1.8009 -1.6347
  412MOL0     H55591   5.406   5.009   2.636 -0.0675  3.8755 -2.5582
  412MOL0     H55592   5.566   5.157   2.534  1.1191  1.2200  0.3960
  412MOL0     H55593   5.691   5.033   2.512 -0.8266 -0.7265  0.0894
  412MOL0     H55594   5.574   5.147   2.765 -0.2085  0.7730  1.0201
  412MOL0     H55595   5.686   5.005   2.764  1.0299 -0.3135 -0.8538
  412MOL0     H55596   5.753   5.290   2.667  0.8728  1.4283  2.2028
  412MOL0     H55597   5.866   5.155   2.656  0.6018  0.3820  1.5705
  412MOL0     H55598   5.815   5.126   2.910  0.6323  0.0047 -0.5500
  412MOL0     H55599   5.941   5.222   2.865 -0.0522 -0.9967 -1.5310
  412MOL0     H55600   5.197   4.430   2.364  0.3773  0.4887 -0.0038
  412MOL0     H55601   4.991   4.303   2.280  0.3460 -0.5033 -0.9352
  412MOL0     H55602   4.708   4.336   1.725 -1.4566  1.8493 -0.0889
  412MOL0     H55603   4.492   4.218   1.649  2.1350  1.3539 -0.6826
  412MOL0     H55604   4.204   4.331   2.704 -0.6370 -0.0957 -0.7952
  412MOL0     H55605   4.398   4.205   2.799 -3.8339 -2.0626 -0.6966
  412MOL0     H55606   4.740   4.327   3.070  1.8547  0.3836  0.7407
  412MOL0     H55607   4.971   4.285   3.101 -2.8532  3.7214 -0.3728
  412MOL0     H55608   5.128   4.031   3.461  0.1093  0.8190 -0.0921
  412MOL0     H55609   5.061   4.189   3.480 -1.1630 -2.0027  1.2681
  412MOL0     H55610   5.274   4.291   3.386  1.8089 -0.1398 -1.4523
  412MOL0     H55611   5.309   4.146   3.317 -1.9906 -0.1986 -1.1374
  412MOL0     H55612   5.287   4.203   3.619  2.6499  2.9837  1.7964
  412MOL0     H55613   5.444   4.222   3.544  2.1560 -2.7634 -1.0032
  412MOL0     H55614   5.444   4.014   3.661  0.4005  0.4127  0.9044
  412MOL0     H55615   5.311   3.958   3.581  0.0549  1.0498 -2.8966
  412MOL0     H55616   5.592   3.854   3.291  3.0792  2.3810 -0.9926
  412MOL0     H55617   4.892   3.993   3.393 -1.1352 -1.6699 -1.2810
  412MOL0     H55618   4.538   3.958   3.345  0.1311 -0.2014 -0.5721
  412MOL0     H55619   4.684   3.941   3.442  2.3720  2.0799 -0.4330
  412MOL0     H55620   4.574   4.078   3.478 -0.9729  1.0842 -0.8409
  413MOL0     O55621   0.898   0.033   0.976  0.8802 -0.1219  1.1225
  413MOL0     C55622   0.882  -0.017   0.869 -1.1187 -0.1840  0.4216
  413MOL0     O55623   0.975  -0.083   0.793  0.7541  0.1280 -0.1312
  413MOL0     C55624   1.083  -0.139   0.865 -0.1797 -0.5358 -0.1699
  413MOL0     C55625   1.078  -0.201   0.996 -0.0036  0.5782 -0.3797
  413MOL0     C55626   1.194  -0.246   1.055  0.3431 -1.0541 -0.4479
  413MOL0     C55627   1.317  -0.242   0.981  0.9702  0.4492 -0.1571
  413MOL0     O55628   1.422  -0.303   1.046 -0.5954  0.9772 -0.3081
  413MOL0     C55629   1.509  -0.375   0.958 -0.2091 -0.2135  0.3452
  413MOL0     C55630   1.600  -0.479   1.037 -0.7307 -1.3599 -0.2258
  413MOL0     C55631   1.522  -0.537   1.154  1.2599 -0.3499  0.5152
  413MOL0     C55632   1.594  -0.651   1.225  0.3541  0.2352  0.6056
  413MOL0     C55633   1.739  -0.622   1.275  0.3948 -0.5415  0.2638
  413MOL0     C55634   1.828  -0.712   1.362  0.5638  0.8159  0.3624
  413MOL0     C55635   1.965  -0.654   1.388  0.1055  0.4382 -0.1236
  413MOL0     C55636   2.048  -0.714   1.503  0.4620  0.7332  0.1228
  413MOL0     N55637   2.062  -0.863   1.467  0.0998 -0.1305 -0.4041
  413MOL0     C55638   1.979  -0.970   1.479 -0.8243 -0.3946 -0.1101
  413MOL0     C55639   2.053  -1.064   1.414 -0.1323 -0.1924 -0.3767
  413MOL0     C55640   2.029  -1.213   1.409  0.5725 -0.0987 -0.2977
  413MOL0     C55641   2.002  -1.293   1.538  0.1469 -0.6969  0.4442
  413MOL0     C55642   2.121  -1.300   1.645 -0.7843 -1.2641 -0.6240
  413MOL0     C55643   2.127  -1.434   1.724 -1.0605 -0.5431  1.3621
  413MOL0     O55644   2.249  -1.454   1.798 -0.0388 -0.4774 -0.3361
  413MOL0     C55645   2.371  -1.475   1.734 -0.4832 -0.0940 -0.4608
  413MOL0     C55646   2.488  -1.485   1.822  1.6740 -0.5863  0.1687
  413MOL0     C55647   2.610  -1.508   1.767 -0.4575 -1.8256  0.5267
  413MOL0     C55648   2.622  -1.533   1.626 -0.3084  0.6258 -0.6828
  413MOL0     C55649   2.756  -1.577   1.565 -0.2115 -0.2453  0.4052
  413MOL0     O55650   2.863  -1.570   1.641 -0.8197  0.0483 -0.2054
  413MOL0     C55651   2.976  -1.627   1.597 -0.4145  0.5806  0.1341
  413MOL0     C55652   3.062  -1.542   1.529 -0.1582 -0.2889 -0.9543
  413MOL0     C55653   3.182  -1.599   1.472 -0.7987 -0.7328 -0.4141
  413MOL0     C55654   3.220  -1.730   1.492 -0.2914  0.5245 -1.1667
  413MOL0     O55655   3.343  -1.766   1.436 -0.4590 -0.3141  0.7995
  413MOL0     C55656   3.390  -1.903   1.463  1.9776 -0.1762  1.0738
  413MOL0     C55657   3.524  -1.927   1.408  0.1471 -0.7873 -0.9745
  413MOL0     C55658   3.533  -2.046   1.316 -0.4420 -0.0377  0.0344
  413MOL0     C55659   3.657  -2.036   1.223 -0.1435  0.2619  0.7638
  413MOL0     C55660   3.647  -2.132   1.097 -0.4937  0.6734  0.2998
  413MOL0     C55661   3.768  -2.126   0.996  0.4579 -0.1521 -0.1782
  413MOL0     C55662   3.906  -2.113   1.063 -0.5055 -0.4124  0.6646
  413MOL0     C55663   4.013  -2.088   0.957 -0.1892 -0.0242 -0.3956
  413MOL0    Cl55664   3.980  -1.946   0.855  0.1573 -0.4070  0.0757
  413MOL0     C55665   3.126  -1.820   1.557 -0.3000  0.0254 -0.3085
  413MOL0     C55666   3.010  -1.765   1.615  0.3647  0.3172  0.8202
  413MOL0     O55667   2.749  -1.606   1.441 -0.7689  0.2399 -0.2398
  413MOL0     C55668   2.505  -1.527   1.552 -0.1268 -0.5465 -0.4367
  413MOL0     C55669   2.387  -1.507   1.601  0.4436 -0.4570 -0.4748
  413MOL0     N55670   2.177  -1.012   1.378  0.3128 -0.1155  0.5468
  413MOL0     N55671   2.173  -0.891   1.398  0.2927 -1.0929 -0.6683
  413MOL0     C55672   1.325  -0.180   0.856 -0.8590 -0.2663 -0.6451
  413MOL0     C55673   1.211  -0.123   0.807 -0.5710 -0.0562  0.0598
  413MOL0     C55674   0.747  -0.013   0.814 -0.0391  0.5445  0.4944
  413MOL0     C55675   0.700  -0.121   0.732 -0.0782 -0.8630  0.4540
  413MOL0     C55676   0.571  -0.113   0.680  0.5120  0.4052  0.2938
  413MOL0     C55677   0.481  -0.008   0.700 -0.0424  0.4926 -0.0573
  413MOL0     O55678   0.357  -0.024   0.649  0.0093  0.2597  0.0328
  413MOL0     C55679   0.275   0.092   0.635 -2.0916  0.7210  1.0166
  413MOL0     C55680   0.319   0.204   0.529 -0.4627 -0.0716 -0.6281
  413MOL0     C55681   0.215   0.311   0.494  0.0922  0.1527 -0.3022
  413MOL0     C55682   0.144   0.389   0.602  0.2872 -0.1459  0.5432
  413MOL0     C55683   0.227   0.451   0.707 -1.1664 -0.9260  0.6229
  413MOL0     C55684   0.294   0.502   0.795  0.7632  0.7822 -0.4465
  413MOL0     C55685   0.528   0.101   0.775 -1.2726  0.0841  0.1234
  413MOL0     C55686   0.654   0.094   0.839 -0.2344 -0.2444 -0.1553
  413MOL0     C55687   0.697   0.211   0.917 -0.1500 -0.6274 -0.8092
  413MOL0     H55688   0.982  -0.216   1.046 -0.8267  0.4383 -1.9427
  413MOL0     H55689   1.189  -0.288   1.155 -2.9680  2.9029  1.3626
  413MOL0     H55690   1.441  -0.431   0.893  0.9524  2.0230 -3.1340
  413MOL0     H55691   1.574  -0.305   0.904  0.2686  0.9959  2.3984
  413MOL0     H55692   1.690  -0.424   1.067 -0.9872 -1.1707  0.2194
  413MOL0     H55693   1.633  -0.559   0.971  1.0694 -0.7868 -0.0691
  413MOL0     H55694   1.427  -0.573   1.112 -0.2383  1.0910  2.4954
  413MOL0     H55695   1.493  -0.468   1.233 -2.5043  0.8275 -1.6064
  413MOL0     H55696   1.535  -0.679   1.313 -2.0006  2.8899  0.0281
  413MOL0     H55697   1.605  -0.737   1.159  1.7088  0.9420 -0.1341
  413MOL0     H55698   1.809  -0.596   1.194  0.1846 -1.9748 -0.4038
  413MOL0     H55699   1.726  -0.530   1.333  3.6698  2.5944 -3.3516
  413MOL0     H55700   1.774  -0.740   1.453  1.1177 -0.0199  0.4488
  413MOL0     H55701   1.842  -0.804   1.304 -3.5572  1.8301 -2.6866
  413MOL0     H55702   1.957  -0.547   1.407  0.6876  0.0864  2.4258
  413MOL0     H55703   2.012  -0.663   1.289 -5.5480  1.5859 -3.3331
  413MOL0     H55704   2.149  -0.676   1.521 -0.5784  3.0328  1.5951
  413MOL0     H55705   1.994  -0.698   1.597  1.7579  2.9998  0.5543
  413MOL0     H55706   1.884  -0.982   1.530 -1.0660 -0.2801 -0.5307
  413MOL0     H55707   1.940  -1.227   1.346  0.4670 -0.3335 -0.1005
  413MOL0     H55708   2.111  -1.262   1.358  3.4351  0.3608  3.4290
  413MOL0     H55709   1.915  -1.243   1.583 -1.9157 -3.4109 -0.2300
  413MOL0     H55710   1.955  -1.389   1.516 -2.6452  1.1529 -2.6640
  413MOL0     H55711   2.119  -1.214   1.714 -1.0107  0.9649 -3.2493
  413MOL0     H55712   2.209  -1.279   1.584 -2.7294  2.6716 -2.4956
  413MOL0     H55713   2.112  -1.517   1.654  1.4515  0.2659 -0.2806
  413MOL0     H55714   2.042  -1.429   1.793 -1.7697  2.0755  0.4220
  413MOL0     H55715   2.470  -1.468   1.928  3.0775  1.1775  0.1638
  413MOL0     H55716   2.691  -1.509   1.839 -2.1015  0.1448  2.5509
  413MOL0     H55717   3.028  -1.442   1.505 -0.4868 -0.6086 -1.8655
  413MOL0     H55718   3.248  -1.539   1.410 -1.3480  0.4032  0.0733
  413MOL0     H55719   3.390  -1.933   1.569 -0.5228 -2.3687  0.5525
  413MOL0     H55720   3.332  -1.981   1.414  0.4720  0.5928  1.5656
  413MOL0     H55721   3.537  -1.840   1.343 -1.0928  1.4127  1.5136
  413MOL0     H55722   3.592  -1.922   1.494 -2.8160 -0.1120  1.5216
  413MOL0     H55723   3.543  -2.140   1.371  1.3732  1.3363  2.2074
  413MOL0     H55724   3.442  -2.052   1.256 -1.3712 -1.9463  1.5220
  413MOL0     H55725   3.745  -2.056   1.286 -1.2166 -1.0568  1.8930
  413MOL0     H55726   3.685  -1.936   1.187  1.7513 -0.6979 -0.6514
  413MOL0     H55727   3.560  -2.108   1.036 -0.7157 -1.5078 -0.3018
  413MOL0     H55728   3.642  -2.238   1.123  1.9715  0.2969 -0.4593
  413MOL0     H55729   3.762  -2.206   0.922  0.7768  2.9075 -3.8245
  413MOL0     H55730   3.752  -2.034   0.938 -1.1312 -0.4414 -0.2373
  413MOL0     H55731   3.925  -2.202   1.123 -3.1185 -1.0209  0.7084
  413MOL0     H55732   3.889  -2.021   1.121 -5.9497  0.3572 -1.5789
  413MOL0     H55733   4.105  -2.072   1.014  0.6941  0.3237 -1.8738
  413MOL0     H55734   4.023  -2.171   0.887 -0.6441  0.9558 -1.6784
  413MOL0     H55735   3.145  -1.926   1.574 -1.7163  0.0571  1.9578
  413MOL0     H55736   2.941  -1.825   1.674  0.2547 -0.9192 -0.5033
  413MOL0     H55737   2.514  -1.556   1.448  0.9170 -0.3288 -0.4173
  413MOL0     H55738   2.296  -1.499   1.542  0.2592  1.9341  0.0593
  413MOL0     H55739   1.420  -0.158   0.808  0.5129  0.4144  2.1542
  413MOL0     H55740   1.237  -0.081   0.710  3.0330 -3.8448 -0.8849
  413MOL0     H55741   0.761  -0.210   0.716 -0.9574 -1.4179  0.1112
  413MOL0     H55742   0.529  -0.204   0.637 -1.6744  0.9655  1.1348
  413MOL0     H55743   0.265   0.134   0.735 -2.1589  4.1671 -0.3159
  413MOL0     H55744   0.180   0.057   0.593 -0.8496  0.2129 -1.5837
  413MOL0     H55745   0.347   0.141   0.444  1.7447 -2.3656  1.6446
  413MOL0     H55746   0.411   0.248   0.569 -0.5270  1.8145 -2.4006
  413MOL0     H55747   0.137   0.262   0.435  1.0012  1.2185 -2.5011
  413MOL0     H55748   0.273   0.383   0.436 -0.4895  1.2726  0.4763
  413MOL0     H55749   0.076   0.465   0.561  1.4188  0.4941 -0.2137
  413MOL0     H55750   0.075   0.320   0.651 -0.5291 -0.8411 -1.4726
  413MOL0     H55751   0.358   0.548   0.869 -0.9364  3.9909 -0.7763
  413MOL0     H55752   0.464   0.186   0.794 -0.7734 -0.1823  3.4785
  413MOL0     H55753   0.624   0.292   0.905  0.4626  0.3817  1.6008
  413MOL0     H55754   0.714   0.199   1.024 -2.6054  0.1443 -0.2590
  413MOL0     H55755   0.786   0.261   0.877 -0.8825  2.2343  0.8068
  414MOL0     O55756   5.043   1.708   5.381  0.3825  0.1340  0.3693
  414MOL0     C55757   5.135   1.630   5.379  0.2352  0.0893  0.5968
  414MOL0     O55758   5.195   1.574   5.266  0.4057  0.1851  0.5852
  414MOL0     C55759   5.117   1.572   5.148  0.5448 -0.3607 -0.6679
  414MOL0     C55760   5.034   1.456   5.140  0.0865 -0.1807 -0.8018
  414MOL0     C55761   4.951   1.438   5.021  0.4941 -0.0615 -0.0487
  414MOL0     C55762   4.959   1.533   4.920 -0.1618 -0.6061  0.3681
  414MOL0     O55763   4.879   1.522   4.807 -0.2350  0.2135 -0.0973
  414MOL0     C55764   4.754   1.442   4.805 -0.6448  1.3017 -0.0950
  414MOL0     C55765   4.674   1.458   4.674 -0.6555 -0.2950  0.6457
  414MOL0     C55766   4.606   1.599   4.679 -0.3805 -0.0085  0.2431
  414MOL0     C55767   4.561   1.663   4.546 -0.0284  0.1115  0.1490
  414MOL0     C55768   4.445   1.764   4.572 -0.1637 -0.6098  0.1946
  414MOL0     C55769   4.496   1.889   4.651  0.3755  1.3873 -0.2152
  414MOL0     C55770   4.378   1.996   4.674  0.0668  0.8029  0.0035
  414MOL0     C55771   4.428   2.119   4.745  0.9242 -0.2125  0.3445
  414MOL0     N55772   4.321   2.205   4.774 -0.2242 -0.0716 -0.0257
  414MOL0     C55773   4.199   2.185   4.823  0.0229 -0.2068 -0.0129
  414MOL0     C55774   4.135   2.302   4.821  0.5508 -0.2255  0.2980
  414MOL0     C55775   3.995   2.307   4.874 -0.6397  0.2793 -0.4631
  414MOL0     C55776   3.900   2.265   4.772  0.0385  0.4487  0.8376
  414MOL0     C55777   3.758   2.299   4.821 -0.6411 -0.1602  0.5269
  414MOL0     C55778   3.652   2.273   4.710  0.6041  0.5876 -0.2581
  414MOL0     O55779   3.530   2.338   4.757 -0.4276 -0.4719 -0.0633
  414MOL0     C55780   3.409   2.313   4.697  0.0223 -0.3551  0.1392
  414MOL0     C55781   3.311   2.249   4.766 -0.2317  0.3437  0.6306
  414MOL0     C55782   3.188   2.220   4.715 -0.9926  0.0023  0.3371
  414MOL0     C55783   3.145   2.266   4.591  0.4386 -0.0921 -0.1743
  414MOL0     C55784   3.005   2.229   4.544 -1.3093 -0.6175 -0.6685
  414MOL0     O55785   2.932   2.154   4.629 -0.6410  0.0083 -0.5903
  414MOL0     C55786   2.814   2.105   4.584 -0.9855  0.3080  0.3158
  414MOL0     C55787   2.704   2.127   4.664 -0.5771  0.2173  0.0321
  414MOL0     C55788   2.587   2.063   4.629  0.1231  0.4989 -0.1532
  414MOL0     C55789   2.573   1.982   4.510 -0.1360  0.4925 -0.3998
  414MOL0     O55790   2.462   1.912   4.473 -0.2105 -0.3881 -0.2320
  414MOL0     C55791   2.367   1.874   4.583  1.0147 -0.3884 -1.3144
  414MOL0     C55792   2.248   1.793   4.538 -0.3119 -0.0017 -0.2447
  414MOL0     C55793   2.276   1.646   4.483  0.4718  0.4914  0.6524
  414MOL0     C55794   2.138   1.610   4.433  0.4500 -0.6903  0.7911
  414MOL0     C55795   2.131   1.482   4.349 -0.2980  0.4217  0.6961
  414MOL0     C55796   1.987   1.439   4.325 -0.2437  0.3100 -0.9295
  414MOL0     C55797   1.967   1.327   4.217  0.0794 -0.1200 -0.4381
  414MOL0     C55798   1.835   1.260   4.239  0.4130 -0.1384  0.3800
  414MOL0    Cl55799   1.808   1.127   4.115 -0.1327  0.1305 -0.1883
  414MOL0     C55800   2.683   1.977   4.431 -0.7800  0.1560  0.4082
  414MOL0     C55801   2.807   2.035   4.466 -0.2245  0.2853  0.3446
  414MOL0     O55802   2.976   2.269   4.431 -0.3097 -0.2934 -0.4270
  414MOL0     C55803   3.236   2.360   4.523 -0.5421 -0.4325 -0.3321
  414MOL0     C55804   3.372   2.378   4.573 -0.0788  0.9561 -0.3822
  414MOL0     N55805   4.214   2.398   4.758  0.5053  0.0457  0.3041
  414MOL0     N55806   4.329   2.339   4.729  0.3858 -0.5016 -1.1414
  414MOL0     C55807   5.037   1.651   4.939  0.1288 -0.5627 -0.3666
  414MOL0     C55808   5.121   1.674   5.050  0.9612  0.6676 -0.4045
  414MOL0     C55809   5.188   1.574   5.511  0.3002 -0.2293  0.4989
  414MOL0     C55810   5.267   1.458   5.498 -0.0319 -0.7885  0.5269
  414MOL0     C55811   5.305   1.385   5.608  0.4419  0.4634 -0.2253
  414MOL0     C55812   5.290   1.437   5.738  0.2233 -0.6155  0.1567
  414MOL0     O55813   5.361   1.379   5.837  0.2033  0.5136 -0.0206
  414MOL0     C55814   5.387   1.458   5.956 -1.2855 -0.2300 -0.1873
  414MOL0     C55815   5.496   1.387   6.039  0.6186 -0.6857 -0.3770
  414MOL0     C55816   5.439   1.273   6.122  0.2721 -0.6081  0.1620
  414MOL0     C55817   5.541   1.232   6.231 -0.5867 -0.8530 -0.6562
  414MOL0     C55818   5.540   1.336   6.337  0.3498  0.0742 -0.5830
  414MOL0     C55819   5.558   1.409   6.439  1.2444  0.0597 -0.5299
  414MOL0     C55820   5.213   1.557   5.745  0.6546  0.2803  0.3647
  414MOL0     C55821   5.160   1.622   5.637  0.2670  0.0342  0.1295
  414MOL0     C55822   5.088   1.748   5.662 -0.3743  0.1892 -0.2993
  414MOL0     H55823   5.040   1.380   5.217 -0.2745 -3.7920 -4.0052
  414MOL0     H55824   4.895   1.345   5.021 -1.7503  1.1323  2.4993
  414MOL0     H55825   4.771   1.335   4.823  0.5129  1.7084  1.3608
  414MOL0     H55826   4.693   1.482   4.887  0.9228 -1.2950  2.5293
  414MOL0     H55827   4.600   1.378   4.665 -2.6380  1.5874 -0.9749
  414MOL0     H55828   4.737   1.445   4.585 -0.1704  0.8856  0.7968
  414MOL0     H55829   4.678   1.673   4.715 -0.1521 -0.1459  0.0724
  414MOL0     H55830   4.529   1.591   4.757  0.7971  2.0090  1.6811
  414MOL0     H55831   4.641   1.710   4.489  0.4715  1.0829  1.6042
  414MOL0     H55832   4.524   1.584   4.479 -1.0225  1.8760 -1.4899
  414MOL0     H55833   4.413   1.801   4.474  2.7563 -2.0713 -1.4363
  414MOL0     H55834   4.359   1.716   4.619  1.1926 -2.7730  0.6133
  414MOL0     H55835   4.520   1.842   4.747  1.1916 -0.0951 -1.1107
  414MOL0     H55836   4.580   1.939   4.604 -0.2108  2.2736 -0.3403
  414MOL0     H55837   4.302   1.944   4.733  3.0657 -1.6904  2.0475
  414MOL0     H55838   4.331   2.033   4.583 -2.1125  0.6000  0.9827
  414MOL0     H55839   4.482   2.092   4.837 -1.3473  0.3658  1.9509
  414MOL0     H55840   4.504   2.172   4.686 -1.4079 -0.0903 -2.7783
  414MOL0     H55841   4.158   2.093   4.863  0.0491 -0.4072 -0.4352
  414MOL0     H55842   3.991   2.245   4.964 -1.7440  1.4066  0.2993
  414MOL0     H55843   3.970   2.408   4.908  1.2948  1.2677 -1.7786
  414MOL0     H55844   3.921   2.315   4.677  1.8995 -1.1482  0.3648
  414MOL0     H55845   3.917   2.157   4.770  2.5790  0.7992  0.6219
  414MOL0     H55846   3.744   2.404   4.849  0.8229  0.6392 -1.4704
  414MOL0     H55847   3.735   2.229   4.902 -0.7988 -1.2584 -0.4514
  414MOL0     H55848   3.625   2.167   4.714  1.0157  0.4961  3.4956
  414MOL0     H55849   3.685   2.299   4.609  0.0314  0.1364 -0.5727
  414MOL0     H55850   3.334   2.216   4.867 -1.0709  0.4755  0.8692
  414MOL0     H55851   3.122   2.162   4.778  1.6148 -1.2180  2.1552
  414MOL0     H55852   2.703   2.195   4.749 -3.3461 -2.4401  2.3402
  414MOL0     H55853   2.502   2.084   4.693  1.1014  3.3722  0.3753
  414MOL0     H55854   2.415   1.823   4.667 -2.6842 -0.5260  0.9286
  414MOL0     H55855   2.321   1.959   4.632  1.4846 -0.6165 -0.4606
  414MOL0     H55856   2.179   1.782   4.622  0.8175 -0.8915  0.6070
  414MOL0     H55857   2.207   1.857   4.460  0.5632  1.2815  0.3172
  414MOL0     H55858   2.344   1.645   4.397 -0.0028  1.5862  0.2540
  414MOL0     H55859   2.313   1.570   4.553  0.3336 -0.4818 -0.3013
  414MOL0     H55860   2.101   1.683   4.359  0.7859  0.5826  1.8341
  414MOL0     H55861   2.065   1.608   4.514 -0.5062 -3.0610 -0.0420
  414MOL0     H55862   2.195   1.410   4.401  1.7548 -1.5126 -3.9495
  414MOL0     H55863   2.183   1.497   4.254  2.4870  0.1051  2.0879
  414MOL0     H55864   1.941   1.401   4.417  0.5099  0.5819 -0.4342
  414MOL0     H55865   1.927   1.523   4.289 -1.5032 -0.9716 -1.9522
  414MOL0     H55866   2.056   1.264   4.211  2.6484  3.3542 -4.2146
  414MOL0     H55867   1.960   1.383   4.124  0.3440  0.8677  0.1172
  414MOL0     H55868   1.822   1.224   4.342  0.2003  0.2491  0.4943
  414MOL0     H55869   1.749   1.328   4.233  1.2400  1.0205  1.0407
  414MOL0     H55870   2.685   1.917   4.340  1.5487  3.6406 -2.0963
  414MOL0     H55871   2.887   2.015   4.395 -1.5956  1.2936 -1.5843
  414MOL0     H55872   3.210   2.425   4.440 -0.7485  2.0722  1.5886
  414MOL0     H55873   3.448   2.445   4.533  1.3339 -1.7937 -2.7086
  414MOL0     H55874   5.041   1.723   4.858 -1.0706 -1.0844 -0.9073
  414MOL0     H55875   5.173   1.770   5.045 -0.1878  1.2629 -1.8310
  414MOL0     H55876   5.298   1.413   5.404 -0.7945 -2.5103  1.0598
  414MOL0     H55877   5.355   1.290   5.592  0.5809  0.6560 -0.9962
  414MOL0     H55878   5.303   1.484   6.021  0.1336  2.7434  0.6375
  414MOL0     H55879   5.425   1.553   5.917 -0.4463 -1.5814 -2.9254
  414MOL0     H55880   5.546   1.461   6.101  0.8753  0.2301 -1.6423
  414MOL0     H55881   5.575   1.359   5.969  0.1518 -2.0765 -0.3728
  414MOL0     H55882   5.412   1.184   6.064  1.0888 -0.0514 -1.1443
  414MOL0     H55883   5.349   1.306   6.173 -0.8321 -4.5445  1.1254
  414MOL0     H55884   5.523   1.140   6.287  0.6190 -1.3761 -1.1038
  414MOL0     H55885   5.645   1.239   6.198 -1.0097  0.6321 -1.8142
  414MOL0     H55886   5.548   1.478   6.521  0.9248 -0.2529 -0.3023
  414MOL0     H55887   5.204   1.606   5.841 -0.9682  2.3131 -0.7440
  414MOL0     H55888   5.097   1.827   5.588 -2.5683 -0.1793 -1.0241
  414MOL0     H55889   4.980   1.735   5.648 -0.3541  2.5247 -3.7105
  414MOL0     H55890   5.118   1.795   5.756  0.9876 -0.5754 -0.3348
  415MOL0     O55891   9.054   6.584  11.325 -0.6882 -0.1932 -0.6454
  415MOL0     C55892   8.936   6.600  11.344 -0.0344 -0.7483  0.9069
  415MOL0     O55893   8.879   6.717  11.368 -1.0175 -0.1886 -0.1039
  415MOL0     C55894   8.956   6.828  11.331 -0.0828  0.5264  0.0910
  415MOL0     C55895   9.055   6.866  11.417 -0.8347  0.8771 -0.0947
  415MOL0     C55896   9.135   6.980  11.396  0.4517  0.0514  0.2203
  415MOL0     C55897   9.114   7.052  11.276 -0.1369 -0.3677  0.4928
  415MOL0     O55898   9.183   7.162  11.231 -0.5428 -0.2890  0.1472
  415MOL0     C55899   9.278   7.216  11.331  0.3420 -0.6657 -0.6594
  415MOL0     C55900   9.350   7.342  11.278 -0.5628  0.3378  0.1978
  415MOL0     C55901   9.406   7.311  11.129 -0.4699 -0.7910  0.2317
  415MOL0     C55902   9.479   7.432  11.075 -0.0576 -0.1990  0.4873
  415MOL0     C55903   9.600   7.397  10.991 -0.2247 -0.3963  0.5312
  415MOL0     C55904   9.717   7.335  11.080  0.0268 -0.5506  0.1555
  415MOL0     C55905   9.858   7.349  11.010  0.5332  0.5976  0.1359
  415MOL0     C55906   9.957   7.273  11.102 -0.4719 -0.0340  1.5832
  415MOL0     N55907  10.096   7.266  11.043  0.2778  0.1222 -0.6013
  415MOL0     C55908  10.185   7.158  11.027  0.1351 -0.4659  0.5967
  415MOL0     C55909  10.281   7.206  10.950 -0.2662 -1.2349 -0.5740
  415MOL0     C55910  10.388   7.136  10.882 -0.1767 -0.0443  0.1541
  415MOL0     C55911  10.519   7.120  10.969  0.4767 -0.4263 -0.2540
  415MOL0     C55912  10.609   7.019  10.915 -0.3756 -0.3486  0.2957
  415MOL0     C55913  10.741   7.015  10.985  0.1031 -0.6129  0.4058
  415MOL0     O55914  10.815   6.905  10.930  0.3293 -0.3993 -1.0209
  415MOL0     C55915  10.951   6.913  10.955 -0.3537  0.4325  0.6805
  415MOL0     C55916  10.987   6.915  11.087  0.1675 -0.1779 -0.1363
  415MOL0     C55917  11.128   6.902  11.120 -0.2733 -0.1990 -1.2176
  415MOL0     C55918  11.226   6.885  11.029  0.2333 -0.5738 -0.1539
  415MOL0     C55919  11.368   6.864  11.068 -0.6028 -0.0603  0.1255
  415MOL0     O55920  11.453   6.815  10.968  0.6012  0.4988  0.2902
  415MOL0     C55921  11.578   6.775  11.019 -0.1220  0.1571 -0.9852
  415MOL0     C55922  11.606   6.640  11.033 -0.6797 -0.9061  0.9340
  415MOL0     C55923  11.728   6.598  11.081 -0.9488  0.2846  0.7627
  415MOL0     C55924  11.826   6.686  11.117  0.0974 -0.1895 -0.0901
  415MOL0     O55925  11.950   6.646  11.159  0.4753 -0.4913 -0.7924
  415MOL0     C55926  11.939   6.626  11.303 -1.1471  0.7374 -0.1046
  415MOL0     C55927  12.067   6.559  11.362 -0.2718 -0.0830 -0.6063
  415MOL0     C55928  12.197   6.632  11.348  0.4276 -1.0130  0.3940
  415MOL0     C55929  12.305   6.559  11.424  0.8097 -0.5663 -0.6042
  415MOL0     C55930  12.434   6.636  11.439 -0.8457 -0.2676  0.0388
  415MOL0     C55931  12.508   6.661  11.308  0.2909 -0.5388 -0.1249
  415MOL0     C55932  12.636   6.739  11.319  0.2024  0.9446 -0.0154
  415MOL0     C55933  12.679   6.802  11.187  0.2467  0.3434  0.7061
  415MOL0    Cl55934  12.577   6.940  11.130 -0.0938  0.4016  0.0121
  415MOL0     C55935  11.801   6.822  11.105 -0.5813  0.0407 -0.1080
  415MOL0     C55936  11.676   6.867  11.055  0.5382  0.7579  0.7581
  415MOL0     O55937  11.400   6.894  11.179  0.8015  0.5759  0.0613
  415MOL0     C55938  11.178   6.863  10.894  0.5311 -0.1217 -0.8932
  415MOL0     C55939  11.043   6.880  10.851 -0.5247  0.0492  0.4051
  415MOL0     N55940  10.265   7.354  10.943  0.1539  0.3785 -0.1136
  415MOL0     N55941  10.155   7.381  11.004  0.0839 -0.8032  0.4427
  415MOL0     C55942   9.012   7.015  11.197  0.5398  0.1405  0.3243
  415MOL0     C55943   8.924   6.902  11.220 -0.0313 -0.8132  0.9093
  415MOL0     C55944   8.852   6.482  11.364 -0.8269 -0.0724  0.0501
  415MOL0     C55945   8.724   6.506  11.417 -0.7215 -0.5183 -0.2797
  415MOL0     C55946   8.641   6.398  11.447  0.7728 -0.9765  0.2750
  415MOL0     C55947   8.676   6.271  11.424 -0.0508 -0.2568  0.4492
  415MOL0     O55948   8.600   6.163  11.453 -0.5912 -0.0758  0.6643
  415MOL0     C55949   8.461   6.165  11.420  0.3446 -0.2371 -0.0912
  415MOL0     C55950   8.420   6.173  11.279  1.2021 -1.2079 -0.3994
  415MOL0     C55951   8.469   6.052  11.202  0.3882  0.8252 -0.0119
  415MOL0     C55952   8.444   6.060  11.048  0.0342 -0.3649  0.3443
  415MOL0     C55953   8.311   6.014  11.008  0.3354  0.6529 -0.2008
  415MOL0     C55954   8.200   6.019  10.960  0.8051  0.8066  1.1588
  415MOL0     C55955   8.801   6.250  11.355 -0.4413  0.1126  0.2201
  415MOL0     C55956   8.898   6.349  11.331 -0.6179  0.5127 -0.7678
  415MOL0     C55957   9.024   6.308  11.259  0.2266  0.7024  1.1136
  415MOL0     H55958   9.078   6.800  11.499 -2.0040  0.0862 -0.3854
  415MOL0     H55959   9.196   7.007  11.482  1.9454  1.0331 -1.0966
  415MOL0     H55960   9.235   7.250  11.426  0.0521 -1.2699 -0.5709
  415MOL0     H55961   9.359   7.145  11.352  0.4521 -0.0790  1.0396
  415MOL0     H55962   9.437   7.364  11.340 -1.4312 -0.0089  1.5763
  415MOL0     H55963   9.289   7.433  11.278 -1.5202 -0.2942  0.6334
  415MOL0     H55964   9.317   7.290  11.069  0.0735  0.5979 -1.1248
  415MOL0     H55965   9.474   7.225  11.138 -1.9727 -1.8268  3.1226
  415MOL0     H55966   9.411   7.488  11.010  3.7905  0.8871 -3.0019
  415MOL0     H55967   9.514   7.494  11.158  2.8351 -1.8759  0.6570
  415MOL0     H55968   9.571   7.321  10.919  0.5235 -2.6855  2.4764
  415MOL0     H55969   9.639   7.485  10.939 -1.2915 -1.2716 -1.8504
  415MOL0     H55970   9.726   7.380  11.179 -0.3245  2.9133 -1.2460
  415MOL0     H55971   9.691   7.229  11.086 -1.5194 -0.1696  0.5977
  415MOL0     H55972   9.890   7.454  11.005  0.3034  0.7007  0.7293
  415MOL0     H55973   9.855   7.309  10.908 -1.8012  3.3801 -1.0656
  415MOL0     H55974   9.957   7.305  11.207  0.4609  1.2627  1.2146
  415MOL0     H55975   9.932   7.167  11.111  1.6014 -0.5679  1.4543
  415MOL0     H55976  10.166   7.056  11.057  2.0758 -0.7293  1.0670
  415MOL0     H55977  10.344   7.039  10.854 -0.3143 -0.4297  1.6470
  415MOL0     H55978  10.402   7.190  10.788  1.0225  1.6867  1.2706
  415MOL0     H55979  10.573   7.216  10.973  0.6341 -0.5609  1.2360
  415MOL0     H55980  10.492   7.103  11.073  0.0316 -0.0220 -0.2985
  415MOL0     H55981  10.619   7.019  10.806 -2.6320  0.6081  0.0258
  415MOL0     H55982  10.564   6.923  10.943 -0.3699 -1.3448 -2.6712
  415MOL0     H55983  10.737   7.008  11.094 -0.0155  1.6268  0.5953
  415MOL0     H55984  10.786   7.112  10.960 -2.3733  0.0624 -2.0127
  415MOL0     H55985  10.910   6.915  11.163  1.4706  0.0439  1.2316
  415MOL0     H55986  11.144   6.897  11.227 -0.6325 -1.0340 -1.1910
  415MOL0     H55987  11.536   6.559  11.018  0.2050 -2.3499  3.9206
  415MOL0     H55988  11.753   6.493  11.091  0.1934  0.5979  1.4714
  415MOL0     H55989  11.905   6.714  11.359  4.5149  1.1696  3.3786
  415MOL0     H55990  11.864   6.546  11.304 -0.7073  0.1190 -3.5652
  415MOL0     H55991  12.045   6.530  11.465 -0.8691  1.3929 -0.3014
  415MOL0     H55992  12.083   6.467  11.304  0.3707  0.0581 -0.6623
  415MOL0     H55993  12.226   6.638  11.243  0.2867 -2.1203  0.2757
  415MOL0     H55994  12.186   6.732  11.391 -1.0829 -1.9799  2.4220
  415MOL0     H55995  12.316   6.464  11.372 -1.0486 -0.0025 -2.1610
  415MOL0     H55996  12.266   6.536  11.523 -1.0459 -3.1748 -1.8316
  415MOL0     H55997  12.487   6.569  11.507 -1.2718 -0.8092 -0.1625
  415MOL0     H55998  12.438   6.723  11.505 -1.8592  0.0207 -0.2614
  415MOL0     H55999  12.515   6.565  11.256 -2.5706 -1.9041  1.7733
  415MOL0     H56000  12.434   6.718  11.251  0.6690  0.8988  0.7952
  415MOL0     H56001  12.715   6.677  11.361  0.4821  0.6558 -0.9414
  415MOL0     H56002  12.623   6.826  11.384  0.9273  0.6678  0.5007
  415MOL0     H56003  12.776   6.843  11.216 -0.3133  0.6524  2.2828
  415MOL0     H56004  12.703   6.728  11.110  3.1618  1.9912 -0.1078
  415MOL0     H56005  11.872   6.896  11.140 -0.7487  0.1824 -0.0625
  415MOL0     H56006  11.653   6.973  11.044  3.2311  1.4005  0.6890
  415MOL0     H56007  11.248   6.835  10.816  0.3035 -1.6681 -0.5704
  415MOL0     H56008  11.016   6.874  10.746 -1.4595 -0.0994  0.6407
  415MOL0     H56009   8.993   7.067  11.103  1.5015  0.7745  0.4739
  415MOL0     H56010   8.840   6.874  11.156 -0.5993 -0.8892  1.6782
  415MOL0     H56011   8.686   6.607  11.429  1.3204  0.3545 -0.6853
  415MOL0     H56012   8.540   6.408  11.485 -0.3318  0.2208 -2.6819
  415MOL0     H56013   8.402   6.250  11.454 -2.2320 -0.8602 -2.5497
  415MOL0     H56014   8.416   6.082  11.476 -1.9859  2.0993  1.7267
  415MOL0     H56015   8.472   6.257  11.232 -0.9187 -0.8941 -2.3292
  415MOL0     H56016   8.312   6.170  11.263  1.1135 -0.2793 -0.0365
  415MOL0     H56017   8.420   5.968  11.251  1.0323  0.8476  0.6904
  415MOL0     H56018   8.574   6.029  11.220  0.6259  0.5955 -1.5485
  415MOL0     H56019   8.469   6.160  11.012  3.2484 -1.2911 -0.3842
  415MOL0     H56020   8.517   5.998  10.995 -1.3814 -3.5640  1.8839
  415MOL0     H56021   8.116   5.998  10.897  2.3833  2.6168 -1.7684
  415MOL0     H56022   8.831   6.148  11.334  2.3733  0.5949  1.5178
  415MOL0     H56023   9.108   6.369  11.294  0.9060  1.6481 -1.8970
  415MOL0     H56024   9.044   6.200  11.263 -0.4068  0.3247 -2.5457
  415MOL0     H56025   9.027   6.333  11.153  0.5423  2.9200  1.5899
  416MOL0     O56026   8.140   1.149   2.924 -0.7618 -0.2308 -0.5394
  416MOL0     C56027   8.146   1.099   3.033 -0.5779 -0.1794  0.6332
  416MOL0     O56028   8.242   1.004   3.078  0.3667  0.3742  0.0010
  416MOL0     C56029   8.329   0.946   2.989 -0.4294  0.1909  0.5242
  416MOL0     C56030   8.411   1.030   2.914  1.4099 -0.1808  1.3807
  416MOL0     C56031   8.498   0.981   2.820 -0.6022  0.0997  0.5873
  416MOL0     C56032   8.524   0.844   2.812 -0.5724 -0.6424 -0.0266
  416MOL0     O56033   8.616   0.796   2.718 -0.3749 -0.6905  0.5210
  416MOL0     C56034   8.614   0.658   2.676 -0.2090 -0.0858  0.0284
  416MOL0     C56035   8.709   0.653   2.552  0.7216 -0.1572 -0.2585
  416MOL0     C56036   8.651   0.725   2.423  0.8409  0.4182 -0.5420
  416MOL0     C56037   8.772   0.796   2.356 -0.0004  0.0045 -0.0543
  416MOL0     C56038   8.733   0.805   2.203  0.5904 -0.2928 -0.1421
  416MOL0     C56039   8.607   0.884   2.183  0.4485  1.1656  0.2218
  416MOL0     C56040   8.589   0.921   2.034 -0.1381  0.2917  0.5304
  416MOL0     C56041   8.452   0.907   1.976 -0.2216  0.0607 -0.3894
  416MOL0     N56042   8.458   0.916   1.832 -0.4561 -0.3894 -0.9856
  416MOL0     C56043   8.521   0.833   1.739 -1.0918 -0.2916  0.4852
  416MOL0     C56044   8.538   0.908   1.630  0.1203 -0.3619  0.9548
  416MOL0     C56045   8.610   0.865   1.501 -0.6882 -0.5961 -0.4647
  416MOL0     C56046   8.578   0.953   1.384 -0.1539  0.2853 -0.7960
  416MOL0     C56047   8.582   0.866   1.253  0.6300 -0.2788 -0.6028
  416MOL0     C56048   8.718   0.801   1.220 -0.0817 -0.2015  0.6765
  416MOL0     O56049   8.737   0.758   1.074  0.4426  0.3754  0.3574
  416MOL0     C56050   8.841   0.680   1.028 -0.0945 -0.0049  0.0652
  416MOL0     C56051   8.935   0.616   1.111 -0.6428  0.5638 -0.7522
  416MOL0     C56052   9.042   0.536   1.059  0.7960  0.4175  0.1536
  416MOL0     C56053   9.067   0.537   0.920 -0.7466  0.2477 -0.2680
  416MOL0     C56054   9.183   0.463   0.861 -0.5619 -0.3822 -0.5169
  416MOL0     O56055   9.196   0.491   0.729  0.1276 -0.1755 -0.5736
  416MOL0     C56056   9.298   0.439   0.654  0.4998  0.0792 -0.1849
  416MOL0     C56057   9.426   0.498   0.630 -0.0843  0.6920 -0.6664
  416MOL0     C56058   9.523   0.439   0.542 -0.5196  0.5242 -0.3265
  416MOL0     C56059   9.501   0.308   0.502 -0.6538 -1.3290  0.2460
  416MOL0     O56060   9.601   0.248   0.422  0.0994  0.1964  0.4700
  416MOL0     C56061   9.573   0.157   0.313  0.8660 -0.0975  0.1466
  416MOL0     C56062   9.708   0.128   0.252 -1.3136 -0.1999  0.2894
  416MOL0     C56063   9.691   0.031   0.137  0.8778  0.2652  0.6614
  416MOL0     C56064   9.820  -0.055   0.107  0.0373  0.3116  0.6767
  416MOL0     C56065   9.786  -0.157   0.010 -0.1144 -0.0149  0.7828
  416MOL0     C56066   9.914  -0.230  -0.036  0.2694  1.0214  0.3766
  416MOL0     C56067   9.892  -0.340  -0.151 -0.8741 -0.2510  0.0826
  416MOL0     C56068  10.024  -0.381  -0.199  0.4150  0.0189 -0.0744
  416MOL0    Cl56069  10.007  -0.518  -0.308  0.2002 -0.1803 -0.1950
  416MOL0     C56070   9.377   0.251   0.516  0.4828  0.3637  1.2484
  416MOL0     C56071   9.273   0.318   0.581 -0.0625 -1.2778  0.0294
  416MOL0     O56072   9.260   0.392   0.928  0.4378  0.3965 -0.1030
  416MOL0     C56073   8.975   0.600   0.837 -0.4841  0.9992 -0.0772
  416MOL0     C56074   8.867   0.675   0.889  0.2488 -0.2103  0.5163
  416MOL0     N56075   8.497   1.038   1.656 -0.3449 -0.0821  0.1839
  416MOL0     N56076   8.445   1.042   1.778 -0.3344 -0.1116 -0.0740
  416MOL0     C56077   8.441   0.760   2.890 -0.1928 -0.1639  0.6341
  416MOL0     C56078   8.344   0.811   2.980 -0.2926  0.0161 -0.0994
  416MOL0     C56079   8.040   1.154   3.126  0.2544  0.4533  0.6417
  416MOL0     C56080   8.087   1.189   3.257 -0.0231 -0.2961  1.0636
  416MOL0     C56081   7.992   1.247   3.337 -0.7635  1.3561  0.2857
  416MOL0     C56082   7.864   1.279   3.302 -0.3027 -1.0620 -0.6484
  416MOL0     O56083   7.772   1.339   3.382 -0.3622 -0.6555  0.2380
  416MOL0     C56084   7.801   1.364   3.521  0.6663  0.3200  0.4722
  416MOL0     C56085   7.663   1.405   3.572 -1.1928  0.1269  0.1556
  416MOL0     C56086   7.609   1.527   3.497 -0.6732 -0.6990  0.6846
  416MOL0     C56087   7.468   1.556   3.545 -0.3800 -0.4638 -0.1757
  416MOL0     C56088   7.472   1.599   3.687  0.1666 -0.0535 -0.1413
  416MOL0     C56089   7.476   1.620   3.809  0.3828 -0.6728  0.4839
  416MOL0     C56090   7.824   1.257   3.170  0.6773  0.6941  0.9663
  416MOL0     C56091   7.904   1.194   3.076 -0.1602  0.2526 -0.1696
  416MOL0     C56092   7.854   1.148   2.946  0.5137 -0.5595 -0.1494
  416MOL0     H56093   8.404   1.138   2.916  2.3733  0.0765 -2.1552
  416MOL0     H56094   8.552   1.048   2.755 -0.8654  1.9307  2.1727
  416MOL0     H56095   8.651   0.588   2.752  2.6895  0.9856 -0.2696
  416MOL0     H56096   8.512   0.636   2.642  0.2443  3.2817 -4.3364
  416MOL0     H56097   8.736   0.549   2.529  2.5338  0.3838 -0.7174
  416MOL0     H56098   8.803   0.701   2.580 -1.1926  3.5464  0.2896
  416MOL0     H56099   8.573   0.798   2.445 -0.0886  0.1698 -2.8494
  416MOL0     H56100   8.605   0.655   2.353 -1.1721  1.2480 -0.1242
  416MOL0     H56101   8.795   0.890   2.406 -0.4442  0.0056  0.1503
  416MOL0     H56102   8.863   0.735   2.353 -0.9907 -1.5211 -0.7118
  416MOL0     H56103   8.811   0.860   2.149  0.7110 -1.8984 -1.6922
  416MOL0     H56104   8.729   0.707   2.155  4.9504 -0.0893 -1.3686
  416MOL0     H56105   8.517   0.835   2.222  1.5628 -1.4177 -0.2628
  416MOL0     H56106   8.607   0.971   2.249 -1.6916  1.1933  0.2528
  416MOL0     H56107   8.644   0.845   1.978 -0.1376 -0.3669  1.4066
  416MOL0     H56108   8.632   1.019   2.011  0.6872 -0.2463 -0.2702
  416MOL0     H56109   8.400   0.816   2.008 -2.9322  1.6558  0.1122
  416MOL0     H56110   8.385   0.985   2.015  1.4012  2.8116 -2.7213
  416MOL0     H56111   8.570   0.743   1.773  1.9824  0.5499 -1.3469
  416MOL0     H56112   8.719   0.868   1.514 -0.9221 -1.0538  2.2297
  416MOL0     H56113   8.577   0.765   1.472  0.0352 -0.3834 -2.1241
  416MOL0     H56114   8.477   0.994   1.383 -1.4849 -2.6731 -0.0358
  416MOL0     H56115   8.647   1.037   1.396  0.8872 -0.9573  3.4548
  416MOL0     H56116   8.576   0.943   1.177 -0.9259 -0.1139 -0.3541
  416MOL0     H56117   8.503   0.791   1.241  2.0494 -1.9516  0.0596
  416MOL0     H56118   8.740   0.718   1.287  2.6643  0.8408  1.1940
  416MOL0     H56119   8.794   0.876   1.242 -1.1103  1.0173  0.1772
  416MOL0     H56120   8.904   0.620   1.215 -0.7845  0.7054 -0.7996
  416MOL0     H56121   9.108   0.488   1.130  2.4693  2.1708 -0.1523
  416MOL0     H56122   9.454   0.598   0.660  0.9718  0.4672 -0.8490
  416MOL0     H56123   9.619   0.481   0.514 -1.0890  1.2561 -1.2367
  416MOL0     H56124   9.528   0.061   0.341  1.3144 -0.4169 -0.2103
  416MOL0     H56125   9.500   0.210   0.251  0.8476  1.2197  1.2536
  416MOL0     H56126   9.753   0.224   0.228 -1.5726  0.3201  1.7726
  416MOL0     H56127   9.769   0.082   0.331 -0.5282  1.5507  0.7351
  416MOL0     H56128   9.610  -0.041   0.153  0.1088  1.0413  0.3290
  416MOL0     H56129   9.663   0.095   0.052 -3.4345  0.7140  2.1852
  416MOL0     H56130   9.844  -0.101   0.203  2.3498 -0.2621 -0.1003
  416MOL0     H56131   9.903   0.005   0.068  1.6491 -1.7629  0.7083
  416MOL0     H56132   9.730  -0.113  -0.073 -1.1152 -1.3316  0.7237
  416MOL0     H56133   9.713  -0.225   0.055 -1.0872  0.8428  0.5463
  416MOL0     H56134   9.984  -0.160  -0.083  3.0736 -2.3646 -0.9761
  416MOL0     H56135   9.957  -0.278   0.052 -1.7707 -1.2987  0.2479
  416MOL0     H56136   9.831  -0.298  -0.232 -0.0354  1.2972  0.2125
  416MOL0     H56137   9.816  -0.409  -0.113 -2.8981  2.2944  1.0156
  416MOL0     H56138  10.076  -0.306  -0.260 -0.4791 -0.4749 -1.5022
  416MOL0     H56139  10.084  -0.418  -0.116 -0.4547  0.5418  0.8134
  416MOL0     H56140   9.358   0.152   0.476 -3.0087  1.9186 -1.5093
  416MOL0     H56141   9.172   0.280   0.596  0.1076 -0.8784  2.5642
  416MOL0     H56142   8.997   0.593   0.731  3.1514  2.1828  0.4635
  416MOL0     H56143   8.800   0.723   0.819 -0.3017 -0.2623  1.0071
  416MOL0     H56144   8.457   0.654   2.873 -1.2637 -0.6088  2.1427
  416MOL0     H56145   8.287   0.739   3.038  1.7330 -1.8667 -0.2952
  416MOL0     H56146   8.191   1.176   3.282  0.8269  0.4975 -1.6538
  416MOL0     H56147   8.023   1.267   3.440  0.7985 -1.5906  0.5032
  416MOL0     H56148   7.881   1.437   3.537 -0.0346  1.3255 -0.4493
  416MOL0     H56149   7.829   1.270   3.570 -2.6928 -1.8254 -1.3472
  416MOL0     H56150   7.665   1.425   3.680  0.2861  2.9567 -0.2905
  416MOL0     H56151   7.597   1.322   3.548 -0.5755  0.4268 -3.1307
  416MOL0     H56152   7.612   1.500   3.391  1.5609 -0.9822  0.7765
  416MOL0     H56153   7.675   1.614   3.499 -1.4568 -0.0266 -0.7490
  416MOL0     H56154   7.422   1.629   3.477 -0.5263 -2.5466 -2.4875
  416MOL0     H56155   7.405   1.467   3.535  2.7811 -2.9441  0.3116
  416MOL0     H56156   7.468   1.648   3.913 -2.4449  0.3408  0.1100
  416MOL0     H56157   7.729   1.285   3.124  1.0717 -0.7984 -0.8668
  416MOL0     H56158   7.916   1.073   2.895 -0.9046 -0.6075 -1.8944
  416MOL0     H56159   7.751   1.113   2.953  0.7630 -1.0616  4.7720
  416MOL0     H56160   7.863   1.232   2.878  0.2623  1.4720  2.1899
  417MOL0     O56161   6.584   0.733   2.862 -0.3494 -0.4051  0.2117
  417MOL0     C56162   6.483   0.756   2.921  0.0735  0.8052 -0.3081
  417MOL0     O56163   6.445   0.693   3.033  0.2665  0.4150 -0.7178
  417MOL0     C56164   6.526   0.610   3.118  0.3420 -0.6078  0.7341
  417MOL0     C56165   6.652   0.559   3.092  0.1127  0.0706 -0.3117
  417MOL0     C56166   6.724   0.488   3.190  0.3877  0.6732 -0.4568
  417MOL0     C56167   6.668   0.471   3.318  1.0898 -1.1773 -0.6471
  417MOL0     O56168   6.719   0.400   3.425  0.2508 -0.7912  0.0043
  417MOL0     C56169   6.859   0.363   3.411 -0.4265 -0.7427 -0.2355
  417MOL0     C56170   6.887   0.303   3.552 -0.4663  0.9036 -0.5462
  417MOL0     C56171   7.028   0.246   3.539 -0.1762  0.5754 -0.3696
  417MOL0     C56172   7.045   0.131   3.647 -0.5918 -0.4019  0.1761
  417MOL0     C56173   7.176   0.055   3.626  0.3045 -1.1264 -0.0412
  417MOL0     C56174   7.293   0.147   3.687 -0.5243 -0.7806  0.3851
  417MOL0     C56175   7.426   0.082   3.631  0.7677 -0.3676 -0.1484
  417MOL0     C56176   7.553   0.158   3.656  0.1795 -0.4430 -0.0087
  417MOL0     N56177   7.678   0.081   3.652 -0.2583  0.7553 -0.8524
  417MOL0     C56178   7.756   0.028   3.549 -0.0569 -0.4729 -0.4372
  417MOL0     C56179   7.828  -0.074   3.600 -0.8331 -0.7275  0.3974
  417MOL0     C56180   7.922  -0.167   3.536 -0.6109  0.4314 -0.0848
  417MOL0     C56181   8.062  -0.147   3.577  0.4446  0.0124 -1.0015
  417MOL0     C56182   8.136  -0.279   3.550  0.5613  1.1616 -0.6258
  417MOL0     C56183   8.283  -0.269   3.572 -0.3390 -0.1549  0.3736
  417MOL0     O56184   8.358  -0.384   3.525 -0.0826 -0.4481 -0.1488
  417MOL0     C56185   8.481  -0.385   3.570 -0.3917 -0.1229  0.5150
  417MOL0     C56186   8.550  -0.283   3.632 -0.2041 -1.0430  0.1677
  417MOL0     C56187   8.686  -0.298   3.664  0.3548 -0.9480  1.1487
  417MOL0     C56188   8.756  -0.409   3.638 -0.0556  0.0909 -1.1310
  417MOL0     C56189   8.902  -0.415   3.681 -0.2463 -0.9219 -1.4177
  417MOL0     O56190   8.967  -0.301   3.697  0.0063 -0.5910  0.2459
  417MOL0     C56191   9.104  -0.296   3.729  1.3240 -0.5261  0.5673
  417MOL0     C56192   9.167  -0.381   3.830 -0.6305  0.0295 -0.2535
  417MOL0     C56193   9.310  -0.379   3.826  0.4067  0.4337  0.4252
  417MOL0     C56194   9.382  -0.304   3.737 -0.2957 -1.1736  1.1419
  417MOL0     O56195   9.513  -0.304   3.740 -0.1608  0.4476 -0.0428
  417MOL0     C56196   9.564  -0.180   3.801  0.2733  0.1300 -0.2657
  417MOL0     C56197   9.692  -0.223   3.872  0.0468 -0.3115  0.0246
  417MOL0     C56198   9.800  -0.277   3.775 -0.4013 -0.1520  0.2133
  417MOL0     C56199   9.926  -0.311   3.840 -0.5265 -0.3109  0.7798
  417MOL0     C56200   9.950  -0.455   3.871  0.7934  0.2780  0.0590
  417MOL0     C56201   9.860  -0.506   3.987  0.3015 -0.1869  0.3503
  417MOL0     C56202   9.931  -0.627   4.058 -0.0827 -0.2914  0.1755
  417MOL0     C56203   9.868  -0.632   4.200 -1.2056  0.7143 -0.4966
  417MOL0    Cl56204   9.942  -0.771   4.283 -0.4551 -0.1687 -0.0111
  417MOL0     C56205   9.320  -0.212   3.656  0.7101  0.7424 -0.1420
  417MOL0     C56206   9.181  -0.206   3.650 -0.0326  0.6728  0.4160
  417MOL0     O56207   8.941  -0.528   3.715 -0.7451  0.3829 -0.1908
  417MOL0     C56208   8.686  -0.514   3.578 -0.4034  0.2961  0.1614
  417MOL0     C56209   8.550  -0.506   3.542 -1.3444 -0.1207 -0.5203
  417MOL0     N56210   7.798  -0.084   3.737  0.1023  0.2271  0.0879
  417MOL0     N56211   7.714   0.016   3.762 -0.0413 -0.4955  0.1132
  417MOL0     C56212   6.546   0.525   3.341  0.5531 -0.2066  0.1981
  417MOL0     C56213   6.477   0.591   3.242  0.0509  0.5273 -0.4198
  417MOL0     C56214   6.390   0.870   2.880 -0.8154 -0.0126 -0.0445
  417MOL0     C56215   6.277   0.889   2.960  0.5577 -0.3161 -0.1411
  417MOL0     C56216   6.181   0.998   2.934  0.8310  0.0096 -0.1373
  417MOL0     C56217   6.221   1.087   2.830  0.1615  0.3338 -0.3659
  417MOL0     O56218   6.156   1.203   2.802 -0.0675 -0.2412 -0.6057
  417MOL0     C56219   6.112   1.211   2.669 -0.1981 -0.5065 -0.8678
  417MOL0     C56220   5.963   1.237   2.669 -0.5560 -0.0661 -0.5414
  417MOL0     C56221   5.882   1.142   2.755  0.2164 -0.1540  0.3371
  417MOL0     C56222   5.731   1.164   2.730 -0.3733 -0.9952  0.7138
  417MOL0     C56223   5.674   1.292   2.775 -0.5889 -0.4885  0.4742
  417MOL0     C56224   5.625   1.391   2.816  0.5768  0.4374  0.1650
  417MOL0     C56225   6.334   1.064   2.749  0.2030 -0.6103  0.4370
  417MOL0     C56226   6.418   0.957   2.771  0.0369  0.4785 -0.0129
  417MOL0     C56227   6.531   0.946   2.679 -0.3756  0.4582  0.2627
  417MOL0     H56228   6.704   0.581   2.999  0.5730  0.2238 -0.0237
  417MOL0     H56229   6.820   0.448   3.160  1.1128  1.4986  0.7036
  417MOL0     H56230   6.887   0.283   3.342  2.1786 -1.3301  1.3665
  417MOL0     H56231   6.915   0.453   3.386 -2.7194  0.8833  0.1483
  417MOL0     H56232   6.815   0.221   3.560 -1.1853  1.3679 -1.8794
  417MOL0     H56233   6.884   0.374   3.635  0.7076  1.3178 -0.8384
  417MOL0     H56234   7.102   0.327   3.542  0.0598  0.5422 -2.9535
  417MOL0     H56235   7.036   0.197   3.441 -1.7979 -1.6585  0.5390
  417MOL0     H56236   7.048   0.174   3.747  0.0012  0.5626 -0.2397
  417MOL0     H56237   6.961   0.062   3.660 -0.6049 -0.0602  2.2150
  417MOL0     H56238   7.178  -0.040   3.681 -0.1263  0.0919  2.1748
  417MOL0     H56239   7.180   0.038   3.518 -3.5426  0.7733 -0.6378
  417MOL0     H56240   7.274   0.253   3.666  1.4831 -0.5443 -0.4353
  417MOL0     H56241   7.282   0.129   3.794 -0.0415  1.6050  0.8868
  417MOL0     H56242   7.413   0.060   3.525  1.2388  0.6941 -0.4363
  417MOL0     H56243   7.445  -0.006   3.694  0.9932  0.3934  0.8543
  417MOL0     H56244   7.549   0.218   3.564  0.3624 -1.0148 -0.3977
  417MOL0     H56245   7.539   0.218   3.746  1.1370 -0.0875 -0.0870
  417MOL0     H56246   7.768   0.069   3.449  2.3116  2.2365  0.8091
  417MOL0     H56247   7.884  -0.268   3.554 -2.4446  1.3561  1.5803
  417MOL0     H56248   7.931  -0.143   3.430  0.2086 -0.5379 -0.2412
  417MOL0     H56249   8.112  -0.068   3.520 -0.1024 -0.8666 -2.7907
  417MOL0     H56250   8.074  -0.130   3.684  2.1369 -2.2386 -0.7598
  417MOL0     H56251   8.116  -0.314   3.449  2.3971 -1.0662 -0.2978
  417MOL0     H56252   8.095  -0.353   3.620  0.5001  2.9628  1.3758
  417MOL0     H56253   8.304  -0.245   3.677 -1.1209  1.7649  0.1408
  417MOL0     H56254   8.318  -0.189   3.506  2.4523 -1.4393  0.1795
  417MOL0     H56255   8.508  -0.183   3.638  1.6815 -0.1932 -0.1003
  417MOL0     H56256   8.725  -0.208   3.710 -0.6155  1.5559 -2.5066
  417MOL0     H56257   9.112  -0.444   3.899 -0.3117  1.0676  0.9952
  417MOL0     H56258   9.367  -0.440   3.897 -0.6442 -0.4451  0.5409
  417MOL0     H56259   9.597  -0.109   3.725 -1.7359  1.4407  0.0076
  417MOL0     H56260   9.493  -0.130   3.867 -1.3016 -2.1813 -0.0983
  417MOL0     H56261   9.732  -0.149   3.941  1.1623 -1.8620  1.1171
  417MOL0     H56262   9.677  -0.308   3.939  1.3221 -0.6551 -0.1023
  417MOL0     H56263   9.751  -0.356   3.717 -0.4719 -1.0332  1.4408
  417MOL0     H56264   9.822  -0.192   3.709 -0.8979 -0.5088 -0.4294
  417MOL0     H56265   9.939  -0.251   3.930  1.9518 -1.2247  1.1136
  417MOL0     H56266  10.001  -0.282   3.766  2.1028 -1.6872  2.7705
  417MOL0     H56267  10.055  -0.480   3.893  1.0268 -1.5697 -2.7589
  417MOL0     H56268   9.930  -0.516   3.783  1.6744  0.6501 -0.4232
  417MOL0     H56269   9.851  -0.417   4.049 -1.8345  1.8594 -2.5979
  417MOL0     H56270   9.758  -0.530   3.957  0.9216 -3.7330  0.6846
  417MOL0     H56271  10.040  -0.624   4.062  0.0143  0.5260 -1.8159
  417MOL0     H56272   9.902  -0.720   4.008 -0.7051 -1.4093  2.4629
  417MOL0     H56273   9.895  -0.548   4.265 -2.5038  1.1459 -0.4865
  417MOL0     H56274   9.759  -0.645   4.195 -1.0105 -1.1259 -0.8312
  417MOL0     H56275   9.383  -0.149   3.593 -1.2583  3.9373  0.8328
  417MOL0     H56276   9.133  -0.145   3.574 -1.0519 -0.2903  0.2709
  417MOL0     H56277   8.732  -0.608   3.547  1.4633  1.6840 -1.5303
  417MOL0     H56278   8.490  -0.574   3.481 -0.3494  0.3079 -2.0225
  417MOL0     H56279   6.489   0.503   3.432 -2.6329 -0.0664 -1.6018
  417MOL0     H56280   6.375   0.624   3.256  0.6530  3.2928 -1.9082
  417MOL0     H56281   6.253   0.826   3.045 -0.5378  1.1019  0.6481
  417MOL0     H56282   6.093   1.009   2.996  0.4067 -1.7326 -0.3735
  417MOL0     H56283   6.121   1.119   2.610 -1.9750 -1.6460  0.5368
  417MOL0     H56284   6.159   1.294   2.615 -1.6952  0.1344 -1.2179
  417MOL0     H56285   5.929   1.226   2.565 -1.5932  0.2694 -0.2489
  417MOL0     H56286   5.951   1.340   2.703 -3.8299 -0.9372  1.3242
  417MOL0     H56287   5.899   1.164   2.860 -1.0624  0.0357  0.5212
  417MOL0     H56288   5.913   1.039   2.734 -0.7484 -0.0940 -1.6767
  417MOL0     H56289   5.707   1.168   2.624  1.4735  1.1619  0.2845
  417MOL0     H56290   5.672   1.082   2.772  1.2604 -3.0296 -0.7742
  417MOL0     H56291   5.571   1.480   2.843 -1.6375 -0.5213 -0.8373
  417MOL0     H56292   6.355   1.130   2.665  0.7722 -0.5915  0.5876
  417MOL0     H56293   6.530   0.850   2.628  1.5409 -1.4309  3.4769
  417MOL0     H56294   6.523   1.025   2.604 -1.0691  0.3696  0.2309
  417MOL0     H56295   6.623   0.953   2.738 -0.1220 -0.5011 -0.0106
  418MOL0     O56296   3.495   4.362   9.178  0.1392  0.3218 -0.4555
  418MOL0     C56297   3.451   4.270   9.256 -0.1758 -1.3237 -0.2015
  418MOL0     O56298   3.508   4.233   9.378  0.2886 -0.0040  0.5390
  418MOL0     C56299   3.627   4.290   9.410  0.3301 -0.4251  0.0351
  418MOL0     C56300   3.745   4.212   9.403  0.0773  0.8020  0.0822
  418MOL0     C56301   3.862   4.263   9.449 -0.0742  0.1201 -0.1437
  418MOL0     C56302   3.872   4.399   9.494 -0.0690 -0.5202  0.1789
  418MOL0     O56303   3.976   4.463   9.553  0.5144  0.0228 -0.5436
  418MOL0     C56304   4.094   4.390   9.575 -0.5443  0.3490 -0.5426
  418MOL0     C56305   4.200   4.486   9.629  0.0587 -0.7831  0.1558
  418MOL0     C56306   4.338   4.438   9.609 -0.3503 -0.4444 -0.7572
  418MOL0     C56307   4.443   4.542   9.671  0.1467  0.2867  0.4122
  418MOL0     C56308   4.586   4.514   9.621 -0.0629 -0.3616 -0.0151
  418MOL0     C56309   4.709   4.589   9.682 -0.1948 -0.5735 -0.2157
  418MOL0     C56310   4.832   4.519   9.629 -0.5817 -0.5553 -0.6322
  418MOL0     C56311   4.945   4.603   9.670 -0.7205 -0.0935 -1.3217
  418MOL0     N56312   5.066   4.533   9.642 -0.2272  0.3279 -0.4192
  418MOL0     C56313   5.115   4.426   9.709 -0.1122  0.1688 -0.0481
  418MOL0     C56314   5.245   4.426   9.685 -0.4203  0.0699 -0.0371
  418MOL0     C56315   5.355   4.341   9.751 -0.0394  0.2599  0.7988
  418MOL0     C56316   5.490   4.359   9.692 -0.5473  0.5730 -0.7756
  418MOL0     C56317   5.597   4.262   9.747 -0.0211 -0.2712 -0.7493
  418MOL0     C56318   5.661   4.309   9.877  0.0122 -0.1829 -1.0220
  418MOL0     O56319   5.564   4.301   9.993 -0.2131 -0.5050  0.3285
  418MOL0     C56320   5.518   4.178  10.033 -0.8279  0.3365 -0.8370
  418MOL0     C56321   5.405   4.174  10.109  0.0659  0.2933 -0.2399
  418MOL0     C56322   5.352   4.056  10.168 -0.8716 -0.7678  0.8606
  418MOL0     C56323   5.415   3.933  10.149 -0.5071  0.0363 -0.4177
  418MOL0     C56324   5.370   3.816  10.229 -1.2236 -0.7843  0.1797
  418MOL0     O56325   5.249   3.817  10.276  0.5026 -0.1138 -0.0338
  418MOL0     C56326   5.173   3.710  10.318 -0.0828  1.1704  0.5410
  418MOL0     C56327   5.038   3.721  10.302  1.1481 -0.8657 -1.0012
  418MOL0     C56328   4.955   3.619  10.344 -0.0133 -0.1137 -0.0615
  418MOL0     C56329   4.994   3.503  10.399  0.1292  0.2054 -0.4859
  418MOL0     O56330   4.894   3.418  10.432  0.6855  0.0934 -0.2977
  418MOL0     C56331   4.927   3.272  10.460  0.9355 -0.9679 -0.4453
  418MOL0     C56332   4.803   3.181  10.497  0.2407  0.4000 -0.9286
  418MOL0     C56333   4.715   3.152  10.374  0.8138 -0.0307  0.3020
  418MOL0     C56334   4.599   3.060  10.401  0.8512  0.1366  0.0432
  418MOL0     C56335   4.538   3.018  10.272  0.3226  0.2368  0.6269
  418MOL0     C56336   4.434   2.909  10.297  0.0847 -0.2877  0.8315
  418MOL0     C56337   4.351   2.856  10.175  0.0811 -0.7614 -0.1620
  418MOL0     C56338   4.311   2.704  10.205 -0.7777  0.4646  0.7123
  418MOL0    Cl56339   4.212   2.650  10.068  0.2745 -0.0719 -0.0256
  418MOL0     C56340   5.135   3.486  10.422  0.2318 -0.7148  0.7807
  418MOL0     C56341   5.229   3.586  10.373  0.0272 -0.7808 -0.3944
  418MOL0     O56342   5.446   3.719  10.240  0.0003 -0.1241 -0.1543
  418MOL0     C56343   5.529   3.932  10.064  0.4545  0.6480  0.4373
  418MOL0     C56344   5.573   4.050  10.007 -0.6868 -0.4226  0.0783
  418MOL0     N56345   5.279   4.534   9.596  0.2387  0.8572  0.0905
  418MOL0     N56346   5.169   4.590   9.571 -0.1966  0.8984 -0.4929
  418MOL0     C56347   3.755   4.477   9.490 -0.1905 -0.7704  0.0776
  418MOL0     C56348   3.634   4.426   9.451 -0.2982 -0.1242  0.1098
  418MOL0     C56349   3.314   4.220   9.246 -0.2239  0.1579 -0.0725
  418MOL0     C56350   3.286   4.078   9.251  0.6959 -0.2746  0.5802
  418MOL0     C56351   3.152   4.024   9.248 -0.0207  0.4407  0.0927
  418MOL0     C56352   3.045   4.115   9.244  0.6419  0.0444 -0.3464
  418MOL0     O56353   2.918   4.071   9.257 -0.0440  0.3009 -0.4222
  418MOL0     C56354   2.895   3.938   9.320  0.4113  0.5856  0.2233
  418MOL0     C56355   2.753   3.913   9.379 -0.4887  0.5319  0.0580
  418MOL0     C56356   2.649   3.972   9.282 -0.2299  0.1000  0.2938
  418MOL0     C56357   2.652   3.888   9.149  0.4496  0.0652 -0.0960
  418MOL0     C56358   2.610   3.972   9.048 -0.8196 -0.2325 -0.3799
  418MOL0     C56359   2.566   4.055   8.972 -0.1710 -0.2123 -0.1177
  418MOL0     C56360   3.067   4.253   9.243  0.2543  0.2001 -0.2469
  418MOL0     C56361   3.199   4.306   9.240 -0.6342  0.8486  0.6444
  418MOL0     C56362   3.225   4.456   9.238 -0.3092  0.3333  0.8921
  418MOL0     H56363   3.746   4.106   9.379  0.0062  1.3815 -2.8732
  418MOL0     H56364   3.950   4.200   9.455  0.2824  0.3759 -1.9149
  418MOL0     H56365   4.078   4.314   9.652 -0.3971  0.9974  0.1378
  418MOL0     H56366   4.129   4.339   9.484  1.9510  0.4870  0.2632
  418MOL0     H56367   4.175   4.486   9.736 -1.9421  1.1524 -0.2443
  418MOL0     H56368   4.184   4.584   9.585  1.4839  0.3172  1.9185
  418MOL0     H56369   4.353   4.434   9.501  0.8371 -1.6413 -0.5762
  418MOL0     H56370   4.351   4.339   9.655  0.1402  0.0411  0.1952
  418MOL0     H56371   4.402   4.640   9.647  0.1688 -0.0375 -1.0867
  418MOL0     H56372   4.455   4.530   9.779  3.0713  1.5119  0.3035
  418MOL0     H56373   4.591   4.406   9.638 -1.7475 -0.4412  0.1140
  418MOL0     H56374   4.594   4.556   9.520  2.0363  0.3825  0.4006
  418MOL0     H56375   4.718   4.693   9.649  1.1126  0.3009  2.6014
  418MOL0     H56376   4.703   4.574   9.790 -2.0391 -1.2897 -0.3842
  418MOL0     H56377   4.837   4.524   9.520  0.4560  0.5804 -0.5478
  418MOL0     H56378   4.842   4.415   9.663  2.6799  0.4046  1.8581
  418MOL0     H56379   4.939   4.700   9.620 -0.4423  1.2969  1.1837
  418MOL0     H56380   4.956   4.632   9.775  1.7395 -2.4500 -0.8388
  418MOL0     H56381   5.063   4.369   9.786  2.1081 -2.9916 -0.7094
  418MOL0     H56382   5.369   4.373   9.855 -1.0296  1.6475  0.5374
  418MOL0     H56383   5.324   4.236   9.756 -0.8831  0.4357 -0.4977
  418MOL0     H56384   5.493   4.351   9.583 -2.1299  0.4704 -0.8343
  418MOL0     H56385   5.520   4.463   9.712 -2.0874  0.8433  0.2575
  418MOL0     H56386   5.677   4.263   9.671  0.8289  0.9559  0.1228
  418MOL0     H56387   5.567   4.157   9.759 -1.2992  0.3016  1.4797
  418MOL0     H56388   5.698   4.411   9.866  2.3497 -0.8943 -0.3898
  418MOL0     H56389   5.748   4.245   9.892 -1.1391 -1.7018 -0.5266
  418MOL0     H56390   5.363   4.274  10.122  0.8236  0.2625  3.5124
  418MOL0     H56391   5.269   4.075  10.235 -2.6643  2.2486 -1.8933
  418MOL0     H56392   4.991   3.803  10.250  0.3754 -0.8671 -0.3350
  418MOL0     H56393   4.847   3.632  10.335  0.1674  0.3238 -2.1821
  418MOL0     H56394   4.974   3.241  10.366 -0.7878  1.1749 -2.1333
  418MOL0     H56395   4.998   3.256  10.541  1.7602  1.2760 -0.6555
  418MOL0     H56396   4.853   3.089  10.529  0.7069  0.5527 -1.2068
  418MOL0     H56397   4.742   3.209  10.583 -0.2883 -1.5154 -0.6237
  418MOL0     H56398   4.676   3.246  10.335  0.7500  0.2828  1.1003
  418MOL0     H56399   4.779   3.108  10.296 -1.3546 -2.1247 -0.4331
  418MOL0     H56400   4.528   3.118  10.462  0.2694 -1.5481  1.0390
  418MOL0     H56401   4.623   2.976  10.467  2.2598  0.3481 -0.1676
  418MOL0     H56402   4.612   2.985  10.198 -0.9104 -0.2628 -0.4430
  418MOL0     H56403   4.491   3.106  10.228  3.3325  1.9402  0.5450
  418MOL0     H56404   4.474   2.827  10.356  2.0852  0.1718  0.1900
  418MOL0     H56405   4.368   2.951  10.374  0.6853 -3.3689  3.2179
  418MOL0     H56406   4.403   2.877  10.081  1.6818  2.3637  1.2614
  418MOL0     H56407   4.260   2.917  10.167  0.5853 -0.2177 -2.5625
  418MOL0     H56408   4.392   2.632  10.219 -1.6396 -0.6411  0.1398
  418MOL0     H56409   4.245   2.700  10.292 -1.9168  0.4994 -0.1301
  418MOL0     H56410   5.169   3.393  10.466  0.5581  0.4302  3.1075
  418MOL0     H56411   5.336   3.580  10.387 -0.1775  0.8544  2.6980
  418MOL0     H56412   5.574   3.835  10.045 -0.8712  0.1604 -0.3849
  418MOL0     H56413   5.658   4.032   9.941 -0.2075 -1.9960  1.0859
  418MOL0     H56414   3.755   4.577   9.531 -1.0531 -1.0736  0.8585
  418MOL0     H56415   3.541   4.481   9.445  0.4616  1.0832 -1.1905
  418MOL0     H56416   3.377   4.020   9.260  1.5832  0.4768 -2.2616
  418MOL0     H56417   3.138   3.917   9.253  0.6434  0.2826 -1.0746
  418MOL0     H56418   2.958   3.920   9.408 -1.2866  0.3250  1.4439
  418MOL0     H56419   2.922   3.855   9.255  4.1832  1.2653  0.6854
  418MOL0     H56420   2.741   3.963   9.475 -1.3928 -0.5147  0.5132
  418MOL0     H56421   2.744   3.804   9.392  1.7498  0.0006 -1.9242
  418MOL0     H56422   2.665   4.079   9.265 -0.8100 -0.0143 -1.1882
  418MOL0     H56423   2.550   3.961   9.327  0.4742 -0.7890  1.6830
  418MOL0     H56424   2.746   3.847   9.113  0.4899  0.8480 -0.9258
  418MOL0     H56425   2.574   3.811   9.156 -0.0485  0.5956  0.3777
  418MOL0     H56426   2.528   4.132   8.907  0.3411 -0.7349 -1.0554
  418MOL0     H56427   2.992   4.331   9.242 -1.2234 -0.9046  4.1995
  418MOL0     H56428   3.244   4.488   9.135  2.8298 -0.6676  1.0537
  418MOL0     H56429   3.133   4.507   9.267 -1.4309 -1.1268  0.0830
  418MOL0     H56430   3.300   4.496   9.306  0.0677  0.3204  0.4894
  419MOL0     O56431   8.740   5.320   8.449 -0.3223 -0.1744 -0.2761
  419MOL0     C56432   8.771   5.436   8.483 -0.2524 -0.0167  0.4831
  419MOL0     O56433   8.687   5.543   8.463 -0.9907  0.1963  0.0122
  419MOL0     C56434   8.555   5.544   8.418 -0.2845 -1.1181  0.0316
  419MOL0     C56435   8.477   5.650   8.462  0.8545  0.4202 -0.6573
  419MOL0     C56436   8.344   5.652   8.421 -0.1776 -0.5483 -0.0828
  419MOL0     C56437   8.293   5.573   8.321  0.3009  0.0685  0.7940
  419MOL0     O56438   8.164   5.589   8.269  0.4242 -0.2040  0.6059
  419MOL0     C56439   8.126   5.528   8.143 -1.1744 -0.2243 -0.0480
  419MOL0     C56440   7.984   5.580   8.097 -0.3751  0.2145  0.0587
  419MOL0     C56441   7.992   5.718   8.034  0.6259  0.3602 -0.8873
  419MOL0     C56442   7.856   5.764   7.985  0.2146  0.2258 -0.0915
  419MOL0     C56443   7.873   5.913   7.944 -0.1101  0.1600 -0.4204
  419MOL0     C56444   7.861   6.016   8.058 -0.7215  0.9857 -0.1085
  419MOL0     C56445   7.878   6.164   8.009 -0.7732 -0.2183  0.7682
  419MOL0     C56446   7.874   6.259   8.130 -0.8463  0.4948 -0.7948
  419MOL0     N56447   7.909   6.396   8.089  0.4966 -0.4671 -0.4738
  419MOL0     C56448   8.032   6.441   8.040 -0.2426  0.2585 -0.5673
  419MOL0     C56449   8.048   6.558   8.102 -0.1667  0.2091 -0.9441
  419MOL0     C56450   8.172   6.638   8.087  0.2253  0.2996 -0.3176
  419MOL0     C56451   8.289   6.602   8.179  0.2939 -0.1093  0.0846
  419MOL0     C56452   8.420   6.679   8.154 -0.0391 -0.4188 -0.2101
  419MOL0     C56453   8.528   6.657   8.258  0.9531 -0.9733 -0.1730
  419MOL0     O56454   8.619   6.546   8.222 -0.0286 -1.0812  0.7697
  419MOL0     C56455   8.739   6.540   8.296  0.6601  0.0115 -0.0102
  419MOL0     C56456   8.783   6.645   8.385  0.2757  0.0519 -0.1527
  419MOL0     C56457   8.894   6.630   8.468 -0.4454 -0.2257  0.0596
  419MOL0     C56458   8.968   6.504   8.456 -0.1498 -0.3655  0.1889
  419MOL0     C56459   9.104   6.487   8.518  0.0637 -0.6655 -0.2616
  419MOL0     O56460   9.194   6.397   8.459 -1.0771 -0.3141 -0.0143
  419MOL0     C56461   9.326   6.378   8.493 -0.1309 -0.5227 -0.8107
  419MOL0     C56462   9.400   6.466   8.579  0.5510 -0.1460 -0.3811
  419MOL0     C56463   9.538   6.456   8.592  0.2816  0.5978  0.4652
  419MOL0     C56464   9.595   6.348   8.532 -0.6160 -0.8789  0.2781
  419MOL0     O56465   9.732   6.338   8.562 -0.2804  0.4774 -0.6909
  419MOL0     C56466   9.826   6.354   8.458 -1.0714  0.2420  0.0408
  419MOL0     C56467   9.974   6.318   8.490  0.1520 -0.2817  0.9899
  419MOL0     C56468  10.025   6.399   8.612  0.3181 -1.0078 -0.0279
  419MOL0     C56469  10.073   6.544   8.573  0.7768 -0.1771  0.6476
  419MOL0     C56470  10.077   6.634   8.698  0.5761  0.5488 -0.5704
  419MOL0     C56471   9.956   6.653   8.785  0.5406  1.0032 -0.5863
  419MOL0     C56472   9.836   6.708   8.711  0.6451 -0.2406 -0.5599
  419MOL0     C56473   9.724   6.721   8.798  0.2322 -0.7220 -0.0239
  419MOL0    Cl56474   9.590   6.763   8.707  0.2628 -0.2036  0.5615
  419MOL0     C56475   9.527   6.251   8.447  0.4774 -0.6324  0.0081
  419MOL0     C56476   9.392   6.266   8.433 -0.4902 -0.7720 -0.6225
  419MOL0     O56477   9.127   6.571   8.607 -0.3975 -0.0820  0.0599
  419MOL0     C56478   8.919   6.405   8.365 -0.2745  0.1926  0.5751
  419MOL0     C56479   8.810   6.426   8.282  0.1983 -0.1048  0.0384
  419MOL0     N56480   7.927   6.602   8.165 -0.6339  0.1203 -0.3444
  419MOL0     N56481   7.854   6.501   8.156  0.5066  0.6765 -0.2120
  419MOL0     C56482   8.379   5.474   8.273 -0.5729 -0.4238  0.2954
  419MOL0     C56483   8.504   5.452   8.336 -0.9422  0.0770  0.3995
  419MOL0     C56484   8.904   5.461   8.556  0.7957  0.5361 -0.1707
  419MOL0     C56485   8.967   5.352   8.601  0.0790  0.7135  0.0253
  419MOL0     C56486   9.084   5.361   8.674  0.7231  0.2806 -0.5099
  419MOL0     C56487   9.139   5.481   8.699 -0.7851  0.5917  0.3434
  419MOL0     O56488   9.256   5.486   8.773 -0.7991 -0.0860 -0.8694
  419MOL0     C56489   9.317   5.369   8.838  0.5175 -0.1406  0.8277
  419MOL0     C56490   9.461   5.407   8.899  0.0953  1.4958 -0.2692
  419MOL0     C56491   9.469   5.555   8.951 -0.1878 -0.1489 -0.4805
  419MOL0     C56492   9.594   5.581   9.035 -0.6362  0.5022 -0.4052
  419MOL0     C56493   9.564   5.700   9.117  1.0948  0.8883  0.1012
  419MOL0     C56494   9.521   5.794   9.188 -0.5295 -0.1677 -0.0567
  419MOL0     C56495   9.085   5.600   8.653 -0.0556 -0.1657  0.2512
  419MOL0     C56496   8.963   5.593   8.581  0.2758  0.5424 -0.1667
  419MOL0     C56497   8.902   5.716   8.523 -0.3848  0.0085  0.2416
  419MOL0     H56498   8.518   5.715   8.538  0.8595 -1.6164  1.1861
  419MOL0     H56499   8.277   5.722   8.469  1.2965  0.0202  1.2179
  419MOL0     H56500   8.200   5.547   8.064  0.8561  0.4236  1.9030
  419MOL0     H56501   8.112   5.420   8.154 -4.8177  0.0655 -0.6858
  419MOL0     H56502   7.918   5.589   8.184  0.1630  1.6519  0.3424
  419MOL0     H56503   7.930   5.514   8.029  0.7286  0.1095 -0.7366
  419MOL0     H56504   8.063   5.734   7.952  1.7139  2.4899  0.3598
  419MOL0     H56505   8.030   5.790   8.108  0.4034 -0.1166 -0.3022
  419MOL0     H56506   7.818   5.712   7.897 -1.4612  1.2045  0.0097
  419MOL0     H56507   7.779   5.755   8.063 -0.3810  1.1212 -0.5633
  419MOL0     H56508   7.973   5.928   7.901 -1.2038 -1.0714 -3.6764
  419MOL0     H56509   7.794   5.938   7.873 -1.2981 -0.7119  0.5665
  419MOL0     H56510   7.761   6.005   8.103  0.0070  0.0089  1.3753
  419MOL0     H56511   7.931   5.996   8.139  1.1575  3.1061 -1.1107
  419MOL0     H56512   7.803   6.200   7.939  1.5539  0.0929 -1.7260
  419MOL0     H56513   7.973   6.167   7.954 -0.7785 -0.8624  0.7162
  419MOL0     H56514   7.788   6.237   8.193  0.4906 -6.0764 -0.4426
  419MOL0     H56515   7.957   6.226   8.194  0.2474  2.5517 -1.0780
  419MOL0     H56516   8.098   6.395   7.966 -0.5468 -0.5106 -0.3631
  419MOL0     H56517   8.205   6.623   7.984  1.5546  1.0545 -0.0269
  419MOL0     H56518   8.151   6.745   8.085  0.1056  0.3411 -4.3221
  419MOL0     H56519   8.260   6.614   8.284 -1.2974  1.5291 -0.4789
  419MOL0     H56520   8.313   6.497   8.162 -1.2171 -0.5291  0.3374
  419MOL0     H56521   8.397   6.786   8.160 -0.9968 -0.6444  0.3986
  419MOL0     H56522   8.471   6.647   8.063  0.2030  0.7759 -0.5017
  419MOL0     H56523   8.484   6.658   8.358  0.2892  1.7615 -0.4011
  419MOL0     H56524   8.580   6.753   8.255 -2.8819  1.3168  0.1634
  419MOL0     H56525   8.738   6.742   8.401  4.2169  2.2147 -0.8809
  419MOL0     H56526   8.929   6.712   8.530 -0.9887 -1.3515  1.9195
  419MOL0     H56527   9.345   6.545   8.630 -0.6695 -0.6494 -0.8871
  419MOL0     H56528   9.603   6.507   8.661  1.3830  1.7824 -1.3804
  419MOL0     H56529   9.789   6.286   8.382  1.3201 -1.8194  0.5945
  419MOL0     H56530   9.810   6.457   8.424 -0.0129 -0.5956 -3.3988
  419MOL0     H56531   9.977   6.213   8.521 -0.7293 -0.9764 -1.0803
  419MOL0     H56532  10.035   6.318   8.399  1.7587  0.8163  2.0065
  419MOL0     H56533   9.950   6.407   8.691 -0.7541  1.0903 -1.1571
  419MOL0     H56534  10.105   6.353   8.671  1.6841  1.6936  0.3567
  419MOL0     H56535   9.991   6.575   8.508 -0.5893  0.7545  2.7285
  419MOL0     H56536  10.169   6.556   8.522  0.2392 -0.8554 -0.5845
  419MOL0     H56537  10.117   6.730   8.665 -2.3713  1.3456 -2.1063
  419MOL0     H56538  10.150   6.584   8.763 -0.1913 -1.4577 -1.1758
  419MOL0     H56539   9.937   6.563   8.844 -2.2554  0.4964 -2.0888
  419MOL0     H56540   9.984   6.731   8.856 -1.4548  1.1805  0.0561
  419MOL0     H56541   9.793   6.641   8.635  0.1163 -0.8264  0.2370
  419MOL0     H56542   9.854   6.801   8.657  1.0204  2.2140  3.4658
  419MOL0     H56543   9.708   6.626   8.850 -2.6386 -1.3051 -1.7897
  419MOL0     H56544   9.744   6.788   8.883  1.0063 -4.1713  2.7712
  419MOL0     H56545   9.584   6.176   8.392  0.9860 -0.8337  0.7909
  419MOL0     H56546   9.341   6.199   8.364 -0.3901 -0.6872 -0.7782
  419MOL0     H56547   8.968   6.309   8.350 -1.8590 -0.4455 -0.8574
  419MOL0     H56548   8.760   6.347   8.227 -1.2953  1.4260 -0.8991
  419MOL0     H56549   8.337   5.410   8.197  1.6312 -0.9002 -0.5964
  419MOL0     H56550   8.551   5.358   8.308 -2.5606 -0.2721 -1.4189
  419MOL0     H56551   8.927   5.252   8.590 -2.9814  1.8599 -0.0229
  419MOL0     H56552   9.126   5.269   8.713  2.0912  1.1696  0.1723
  419MOL0     H56553   9.339   5.284   8.772  0.6561  0.0651  0.6044
  419MOL0     H56554   9.248   5.325   8.910  0.8480 -2.3787 -0.1480
  419MOL0     H56555   9.539   5.401   8.822  2.7253  1.6279  2.1982
  419MOL0     H56556   9.491   5.333   8.973 -5.0603 -1.0097 -0.2526
  419MOL0     H56557   9.375   5.571   9.005 -1.0922 -0.9691 -1.7259
  419MOL0     H56558   9.475   5.637   8.879  2.2184 -0.1847 -0.3976
  419MOL0     H56559   9.621   5.495   9.096  4.0207  2.2512  0.4043
  419MOL0     H56560   9.684   5.584   8.973 -0.8821 -2.3635 -1.0466
  419MOL0     H56561   9.471   5.862   9.253  0.0742  0.2447 -0.0133
  419MOL0     H56562   9.144   5.689   8.669  1.8445 -0.9710 -1.8114
  419MOL0     H56563   8.822   5.726   8.596  0.3533  0.4062  1.0161
  419MOL0     H56564   8.964   5.805   8.534 -0.6421  0.3796 -1.1221
  419MOL0     H56565   8.872   5.695   8.419 -2.3926 -1.5886  1.0748
  420MOL0     O56566   4.571   5.650   0.833  0.7028 -0.0193 -0.2886
  420MOL0     C56567   4.547   5.742   0.915  0.9117  0.3842  0.7119
  420MOL0     O56568   4.615   5.762   1.038 -0.8050 -0.6057 -0.7046
  420MOL0     C56569   4.728   5.703   1.070 -0.7381 -0.3246  0.0882
  420MOL0     C56570   4.771   5.746   1.200 -0.4157  0.4558 -0.2658
  420MOL0     C56571   4.890   5.705   1.256  0.2413 -0.1073 -0.3302
  420MOL0     C56572   4.967   5.616   1.178  0.4132  0.4238 -1.2726
  420MOL0     O56573   5.094   5.572   1.211  0.1472 -0.1178 -0.5738
  420MOL0     C56574   5.162   5.628   1.327 -0.9986  0.0127  0.1522
  420MOL0     C56575   5.313   5.587   1.304 -0.1599 -0.5578 -0.4081
  420MOL0     C56576   5.381   5.596   1.437  0.1603  0.1024 -0.2668
  420MOL0     C56577   5.528   5.577   1.429 -0.2439  0.3943 -0.0818
  420MOL0     C56578   5.596   5.548   1.573 -0.6357 -0.2915  0.0571
  420MOL0     C56579   5.755   5.567   1.576 -0.2497 -0.1626  0.0452
  420MOL0     C56580   5.802   5.698   1.533 -0.3937  0.5187  0.9886
  420MOL0     C56581   5.950   5.727   1.551  0.1843 -0.3977  0.1402
  420MOL0     N56582   5.986   5.826   1.451 -0.2850 -0.0568 -0.2905
  420MOL0     C56583   6.005   5.793   1.315 -0.4835  0.8577  0.4658
  420MOL0     C56584   6.042   5.918   1.264 -0.0187  1.4896 -0.2469
  420MOL0     C56585   6.074   5.948   1.124  0.4343  0.4715 -0.4992
  420MOL0     C56586   5.975   6.040   1.064 -0.2702  1.0018 -0.6558
  420MOL0     C56587   5.821   5.990   1.055 -0.3206  0.6044  0.1750
  420MOL0     C56588   5.734   6.088   0.973 -0.0499  0.6503 -0.1824
  420MOL0     O56589   5.605   6.015   0.956 -0.5657 -0.1288  0.8893
  420MOL0     C56590   5.502   6.070   0.881 -1.0950  0.2817 -0.1813
  420MOL0     C56591   5.393   5.991   0.873  0.7075  0.0487  0.2939
  420MOL0     C56592   5.284   6.024   0.798 -0.1333  0.4993  0.0030
  420MOL0     C56593   5.267   6.151   0.732 -0.2500  1.8036 -0.2794
  420MOL0     C56594   5.145   6.198   0.662  0.0528  0.7363 -0.3045
  420MOL0     O56595   5.135   6.314   0.595  0.0940  0.5544 -0.3233
  420MOL0     C56596   5.021   6.369   0.533  0.2959 -1.2225 -0.7066
  420MOL0     C56597   5.038   6.441   0.416  0.6296  0.5906  0.2966
  420MOL0     C56598   4.930   6.506   0.344 -0.4053 -0.1265 -0.2303
  420MOL0     C56599   4.797   6.500   0.392  0.5046 -0.4353  0.3727
  420MOL0     O56600   4.700   6.556   0.312 -0.2462  1.0839  0.3503
  420MOL0     C56601   4.563   6.507   0.312  0.7759 -0.4983 -0.3884
  420MOL0     C56602   4.500   6.535   0.176 -0.1707 -0.4309  0.3356
  420MOL0     C56603   4.516   6.684   0.141 -0.0056  0.5674 -0.3173
  420MOL0     C56604   4.449   6.718   0.012  0.9957  0.2983  0.2903
  420MOL0     C56605   4.443   6.877  -0.011 -0.9495  0.5829  0.4035
  420MOL0     C56606   4.569   6.947  -0.040  0.6287  0.1313  0.0572
  420MOL0     C56607   4.549   7.097  -0.051  0.5876 -0.7074 -0.4419
  420MOL0     C56608   4.573   7.158  -0.187 -0.0419  0.1085  0.2335
  420MOL0    Cl56609   4.461   7.077  -0.297  0.6679  0.0913 -0.2098
  420MOL0     C56610   4.779   6.432   0.514  0.5243  0.4872 -0.1936
  420MOL0     C56611   4.889   6.374   0.584 -0.5596  0.3436 -0.0230
  420MOL0     O56612   5.051   6.116   0.665 -0.7211 -0.4546 -0.3200
  420MOL0     C56613   5.368   6.232   0.747  0.4980  0.0332 -0.4924
  420MOL0     C56614   5.488   6.193   0.825 -0.2521  0.1665  0.1113
  420MOL0     N56615   6.049   6.007   1.367 -0.6355 -0.3276  0.3498
  420MOL0     N56616   6.021   5.954   1.480 -0.0456 -0.3352 -0.4217
  420MOL0     C56617   4.929   5.572   1.054  0.4363 -0.3321 -0.0827
  420MOL0     C56618   4.806   5.616   0.991  0.2976  0.0029 -0.2508
  420MOL0     C56619   4.420   5.814   0.897 -0.7473  0.0942  0.2352
  420MOL0     C56620   4.360   5.868   1.015 -0.7059  0.3164 -0.0504
  420MOL0     C56621   4.241   5.928   1.013  0.6653  0.8770 -0.5389
  420MOL0     C56622   4.170   5.941   0.901  0.8999  0.0339 -0.5363
  420MOL0     O56623   4.057   6.016   0.907  0.0178 -0.8321  0.2523
  420MOL0     C56624   3.985   6.053   0.790 -0.0793 -0.2389  0.2321
  420MOL0     C56625   3.879   6.161   0.819 -0.3162  0.4518 -0.9630
  420MOL0     C56626   3.757   6.096   0.872 -0.1411 -0.1141 -0.5435
  420MOL0     C56627   3.764   6.059   1.011 -0.5001 -0.5529 -0.8474
  420MOL0     C56628   3.794   6.159   1.120  0.4426  0.0658  0.3249
  420MOL0     C56629   3.812   6.243   1.212  0.3447 -0.5760 -0.5979
  420MOL0     C56630   4.229   5.904   0.786  0.3898  0.4716  0.0852
  420MOL0     C56631   4.348   5.836   0.777  0.4007  0.2202 -0.3813
  420MOL0     C56632   4.379   5.780   0.635  0.5154 -0.1327 -0.2709
  420MOL0     H56633   4.715   5.810   1.268 -5.0181 -2.4098 -0.8937
  420MOL0     H56634   4.907   5.736   1.359 -2.4139  1.1345 -0.1763
  420MOL0     H56635   5.148   5.736   1.341 -3.5915 -0.4895  2.2699
  420MOL0     H56636   5.122   5.586   1.420 -0.2577 -1.1267 -0.0210
  420MOL0     H56637   5.354   5.667   1.242 -1.4074 -0.6768 -1.4428
  420MOL0     H56638   5.311   5.493   1.249 -2.6830 -0.9460  0.1916
  420MOL0     H56639   5.345   5.502   1.480  3.4750 -0.9003  0.6164
  420MOL0     H56640   5.366   5.686   1.496 -0.2482 -0.9698  1.3321
  420MOL0     H56641   5.552   5.498   1.357  0.8185  1.2102 -0.6539
  420MOL0     H56642   5.570   5.670   1.390 -0.9950  0.6003 -0.4041
  420MOL0     H56643   5.561   5.622   1.646 -0.6418  2.7133 -2.7480
  420MOL0     H56644   5.563   5.446   1.594 -1.7586 -0.2544 -1.2912
  420MOL0     H56645   5.793   5.536   1.674  0.9305 -0.6006 -0.5293
  420MOL0     H56646   5.796   5.490   1.509  0.8052  0.4484 -0.0391
  420MOL0     H56647   5.747   5.782   1.578  2.1249  3.5809 -1.2271
  420MOL0     H56648   5.777   5.707   1.427 -0.0992  3.2495  1.0862
  420MOL0     H56649   5.976   5.772   1.648  2.6014  0.7949 -0.9844
  420MOL0     H56650   6.016   5.642   1.535  3.4635  2.1040 -0.6402
  420MOL0     H56651   5.999   5.694   1.271 -2.6494 -0.0143  2.4680
  420MOL0     H56652   6.170   5.996   1.101  1.1445 -0.3288  0.6739
  420MOL0     H56653   6.069   5.853   1.069  0.0931 -0.5784  1.2530
  420MOL0     H56654   5.976   6.131   1.124  2.1980  0.1338  0.7333
  420MOL0     H56655   6.012   6.039   0.961 -3.2974 -3.4238 -1.9631
  420MOL0     H56656   5.773   5.981   1.153  2.9139  0.1031  1.8512
  420MOL0     H56657   5.828   5.891   1.010 -0.9684 -2.3903  5.7145
  420MOL0     H56658   5.788   6.101   0.878  1.2622  1.7827  0.6826
  420MOL0     H56659   5.718   6.187   1.017  1.2228  0.5845  0.4709
  420MOL0     H56660   5.404   5.897   0.927  0.2002 -0.8170 -1.0623
  420MOL0     H56661   5.199   5.957   0.785  1.0957 -0.7584 -2.3128
  420MOL0     H56662   5.140   6.448   0.380  0.5802  1.7406  0.3543
  420MOL0     H56663   4.949   6.574   0.261  1.5754  1.0085  1.0853
  420MOL0     H56664   4.567   6.397   0.317  0.3002 -0.5060 -0.1122
  420MOL0     H56665   4.512   6.554   0.397  1.9840  0.3711 -0.1198
  420MOL0     H56666   4.550   6.467   0.106  1.1247 -0.2492  1.0509
  420MOL0     H56667   4.396   6.503   0.164 -0.3085  0.6772 -1.9535
  420MOL0     H56668   4.456   6.741   0.212  2.0432  0.6102  1.4864
  420MOL0     H56669   4.621   6.717   0.143  0.4584 -0.8832  0.9299
  420MOL0     H56670   4.345   6.685   0.012  0.8143  0.8530 -0.0286
  420MOL0     H56671   4.489   6.668  -0.077  1.9794 -1.0532  1.4542
  420MOL0     H56672   4.409   6.924   0.082  2.4836 -0.4670  2.3664
  420MOL0     H56673   4.368   6.902  -0.086  1.2243  1.8883 -1.4734
  420MOL0     H56674   4.642   6.921   0.038  1.9889 -1.5856 -1.6982
  420MOL0     H56675   4.611   6.899  -0.129 -0.1628 -0.8108  0.1695
  420MOL0     H56676   4.628   7.145   0.008  2.3050 -0.8860 -2.4997
  420MOL0     H56677   4.450   7.129  -0.018  1.2204  1.0264 -0.1349
  420MOL0     H56678   4.540   7.263  -0.182 -1.0752 -0.2132  0.4486
  420MOL0     H56679   4.677   7.141  -0.216  1.0628  1.6214  2.8653
  420MOL0     H56680   4.678   6.426   0.555  0.0439  1.0195 -1.2607
  420MOL0     H56681   4.865   6.320   0.675  1.8746 -0.6627  0.1177
  420MOL0     H56682   5.360   6.330   0.701  2.3382 -0.3022 -1.6207
  420MOL0     H56683   5.583   6.246   0.821  0.8908 -1.7184  1.1091
  420MOL0     H56684   4.993   5.500   1.005  1.3217  0.6797 -0.4685
  420MOL0     H56685   4.777   5.591   0.890 -1.4081  0.0085  0.2076
  420MOL0     H56686   4.404   5.849   1.112 -1.0098  3.3290  0.7776
  420MOL0     H56687   4.198   5.971   1.103  3.2570 -1.1889  1.8855
  420MOL0     H56688   3.927   5.968   0.754  0.8075 -0.0016 -1.8765
  420MOL0     H56689   4.048   6.095   0.711 -0.6563 -0.8860 -0.5783
  420MOL0     H56690   3.851   6.213   0.727  2.4753  2.6663 -0.6899
  420MOL0     H56691   3.919   6.244   0.877  1.7881 -0.6429 -0.7596
  420MOL0     H56692   3.731   6.009   0.811 -0.2514  0.6668 -1.6314
  420MOL0     H56693   3.674   6.166   0.860  0.2685  0.3558 -0.6826
  420MOL0     H56694   3.663   6.023   1.033 -0.2227 -1.4929 -1.0668
  420MOL0     H56695   3.836   5.978   1.021 -2.4701 -2.1409  1.7142
  420MOL0     H56696   3.830   6.312   1.292  1.3828  0.8228 -1.9799
  420MOL0     H56697   4.181   5.932   0.692  0.8969  0.7294 -0.1012
  420MOL0     H56698   4.280   5.748   0.602  0.2503  1.0440 -0.6779
  420MOL0     H56699   4.413   5.858   0.566 -2.0078 -0.3617 -1.8973
  420MOL0     H56700   4.448   5.696   0.629  1.7012  0.8833 -1.4757
  421MOL0     O56701   4.996   2.668   3.941  0.1125  0.5244  0.6935
  421MOL0     C56702   5.064   2.767   3.914  0.2660  0.4937 -0.0149
  421MOL0     O56703   5.016   2.887   3.880  0.1600 -0.3516 -0.6584
  421MOL0     C56704   4.888   2.916   3.831 -0.3642  0.4387 -0.5205
  421MOL0     C56705   4.789   2.838   3.768 -0.7917 -0.2570 -0.2135
  421MOL0     C56706   4.665   2.900   3.742 -0.7897 -0.2223  0.6139
  421MOL0     C56707   4.639   3.033   3.775  1.5874  0.7138  0.4952
  421MOL0     O56708   4.513   3.083   3.752  0.4310 -0.1290 -0.6587
  421MOL0     C56709   4.468   3.184   3.841 -0.1135 -0.4314 -0.7823
  421MOL0     C56710   4.308   3.188   3.825 -0.5078  0.1735  0.9340
  421MOL0     C56711   4.234   3.288   3.913  0.1056 -0.6791 -0.9574
  421MOL0     C56712   4.090   3.321   3.876  0.4225  0.3305 -0.0699
  421MOL0     C56713   4.023   3.404   3.987  0.0058  0.3526 -0.1859
  421MOL0     C56714   3.884   3.438   3.945  0.2973 -0.4032  0.5422
  421MOL0     C56715   3.822   3.557   4.023 -0.8075  0.6598  0.0011
  421MOL0     C56716   3.680   3.551   4.003 -0.0422 -0.8035  0.0859
  421MOL0     N56717   3.617   3.661   4.085  0.5798  0.3146 -0.0132
  421MOL0     C56718   3.667   3.794   4.089 -0.2229  0.5817 -0.3453
  421MOL0     C56719   3.593   3.840   4.194 -0.4829 -0.6981 -0.2991
  421MOL0     C56720   3.586   3.983   4.246  0.1983 -0.8113  0.2466
  421MOL0     C56721   3.446   4.028   4.286  0.2107 -0.3398 -0.0616
  421MOL0     C56722   3.345   4.027   4.169 -0.0599  0.0109  0.1044
  421MOL0     C56723   3.370   4.154   4.092 -0.6684  0.6862  0.6681
  421MOL0     O56724   3.318   4.279   4.147 -0.2687 -0.5733 -0.6091
  421MOL0     C56725   3.179   4.292   4.152  0.3554 -0.2887 -0.6859
  421MOL0     C56726   3.090   4.216   4.083 -0.0458 -0.1034 -0.0094
  421MOL0     C56727   2.961   4.264   4.067  0.1666 -0.4165  0.3832
  421MOL0     C56728   2.918   4.391   4.108 -0.6841  0.6422 -0.2515
  421MOL0     C56729   2.779   4.433   4.089 -0.0345 -0.6915 -0.0343
  421MOL0     O56730   2.742   4.528   4.181 -0.5216 -0.1212  0.3323
  421MOL0     C56731   2.612   4.556   4.187  0.2383 -0.0505 -0.9392
  421MOL0     C56732   2.548   4.645   4.105 -0.3473  0.3277  0.0981
  421MOL0     C56733   2.417   4.669   4.109 -0.6521  0.1745 -0.0889
  421MOL0     C56734   2.331   4.593   4.183  0.2280 -0.1716 -1.4731
  421MOL0     O56735   2.194   4.596   4.172  0.2720 -0.1617  0.0995
  421MOL0     C56736   2.126   4.470   4.159  0.4248 -1.0147 -0.0473
  421MOL0     C56737   1.985   4.489   4.113 -0.4709 -0.4173 -0.2984
  421MOL0     C56738   1.956   4.562   3.977 -0.4575  0.1843  0.6252
  421MOL0     C56739   1.946   4.714   3.990 -0.6027  0.1091  0.0339
  421MOL0     C56740   1.982   4.785   3.867  0.0419 -0.0462  0.0366
  421MOL0     C56741   1.960   4.937   3.879  0.3438  0.3258  0.3474
  421MOL0     C56742   2.021   5.006   4.002 -0.2269  0.8439  0.1985
  421MOL0     C56743   1.995   5.156   3.998  0.6971  0.2776  0.0002
  421MOL0    Cl56744   2.016   5.214   4.168 -0.0516 -0.3101  0.4394
  421MOL0     C56745   2.392   4.511   4.275 -0.9974 -0.7420  0.1297
  421MOL0     C56746   2.527   4.496   4.287 -0.0469 -0.7872  0.6896
  421MOL0     O56747   2.716   4.386   3.996 -0.1668 -0.6223  0.2606
  421MOL0     C56748   3.011   4.466   4.184  0.9868  0.0480 -1.7357
  421MOL0     C56749   3.134   4.409   4.217 -0.3129  0.5798  0.0192
  421MOL0     N56750   3.499   3.747   4.241  0.1681 -0.2121  0.0702
  421MOL0     N56751   3.509   3.635   4.174  0.0214  0.0361  0.9002
  421MOL0     C56752   4.740   3.107   3.829  0.2222  0.4656 -0.7468
  421MOL0     C56753   4.862   3.055   3.854  0.5675 -0.1195  0.8066
  421MOL0     C56754   5.214   2.752   3.927 -0.0881 -0.5808 -0.0061
  421MOL0     C56755   5.266   2.632   3.979 -0.1698 -0.6638 -0.7092
  421MOL0     C56756   5.406   2.608   4.008  1.0166 -0.1546  0.2656
  421MOL0     C56757   5.497   2.704   3.985 -0.2656 -0.4564 -0.9615
  421MOL0     O56758   5.630   2.700   4.034  0.0186  0.0882 -0.5542
  421MOL0     C56759   5.648   2.627   4.158  0.0823  0.3531 -0.7088
  421MOL0     C56760   5.796   2.666   4.192 -0.8336 -0.2438 -0.5033
  421MOL0     C56761   5.855   2.573   4.297  0.3543  0.2896 -0.4285
  421MOL0     C56762   5.776   2.578   4.432 -0.3341 -0.5104  0.3923
  421MOL0     C56763   5.875   2.565   4.549  0.6939 -0.5154  0.2834
  421MOL0     C56764   5.941   2.573   4.647 -0.2141  0.2464  0.2917
  421MOL0     C56765   5.447   2.825   3.931  0.6138  0.4975  0.7624
  421MOL0     C56766   5.314   2.850   3.895  0.8465 -0.0110 -0.5835
  421MOL0     C56767   5.294   2.995   3.851  0.9864  0.2015 -0.0868
  421MOL0     H56768   4.802   2.740   3.724 -0.3614  0.6754 -2.3187
  421MOL0     H56769   4.598   2.839   3.681 -0.9920 -0.3627  0.9708
  421MOL0     H56770   4.486   3.160   3.946 -2.2629 -1.7449 -0.6451
  421MOL0     H56771   4.504   3.284   3.815 -1.3588 -0.0838 -1.2669
  421MOL0     H56772   4.282   3.083   3.836  2.9033 -1.0046 -0.9630
  421MOL0     H56773   4.294   3.211   3.719  0.4071  0.2403  0.8158
  421MOL0     H56774   4.291   3.381   3.924  0.0254 -0.4409 -2.4466
  421MOL0     H56775   4.225   3.241   4.012  1.5926 -0.2864 -0.6147
  421MOL0     H56776   4.082   3.377   3.782 -3.1496  0.1640 -0.0091
  421MOL0     H56777   4.033   3.228   3.868  3.5788 -1.5646 -2.7595
  421MOL0     H56778   4.008   3.354   4.084  0.8772  0.6363  0.1030
  421MOL0     H56779   4.076   3.494   4.019  2.2282 -1.4271  1.4692
  421MOL0     H56780   3.891   3.458   3.838  1.6105  0.5202  0.7797
  421MOL0     H56781   3.821   3.349   3.956 -0.8287  0.1456 -1.1520
  421MOL0     H56782   3.864   3.655   4.000 -1.8193  1.4222  1.2391
  421MOL0     H56783   3.843   3.546   4.130  0.3578  2.2317 -0.0273
  421MOL0     H56784   3.659   3.565   3.896 -0.9805  1.4567  0.4985
  421MOL0     H56785   3.648   3.453   4.039 -1.5407  0.6628  3.1694
  421MOL0     H56786   3.733   3.844   4.020  2.5509 -2.8203 -0.4656
  421MOL0     H56787   3.649   3.981   4.335 -0.6511 -0.1879  0.8807
  421MOL0     H56788   3.631   4.046   4.169 -0.5295  1.9153  1.9121
  421MOL0     H56789   3.421   3.970   4.375  2.4784  2.0108  2.2893
  421MOL0     H56790   3.449   4.127   4.332  0.7266  0.5611 -1.9135
  421MOL0     H56791   3.240   4.017   4.198  0.1874 -3.7424  0.1661
  421MOL0     H56792   3.360   3.938   4.107 -1.0342 -0.1010  0.0154
  421MOL0     H56793   3.341   4.145   3.987 -1.6058 -0.8542  1.0355
  421MOL0     H56794   3.477   4.169   4.075 -1.0581  0.9951 -1.8677
  421MOL0     H56795   3.111   4.124   4.030  2.3413  1.1803 -1.4287
  421MOL0     H56796   2.890   4.200   4.015 -1.4208  3.1742 -2.2474
  421MOL0     H56797   2.604   4.687   4.021  0.2997  0.0349  0.3714
  421MOL0     H56798   2.375   4.719   4.022 -3.8107 -0.6583  0.8341
  421MOL0     H56799   2.169   4.403   4.083 -1.2023  0.0485 -2.0244
  421MOL0     H56800   2.120   4.416   4.254 -1.3206 -1.4089 -0.3336
  421MOL0     H56801   1.933   4.393   4.106  0.3291 -0.8845  0.0758
  421MOL0     H56802   1.930   4.549   4.186 -1.0335 -2.4153  0.9975
  421MOL0     H56803   2.018   4.536   3.890  0.1636  0.0456  1.1004
  421MOL0     H56804   1.857   4.527   3.948 -1.0193  2.1370  0.0391
  421MOL0     H56805   2.006   4.748   4.075  0.3868  0.1593 -0.6741
  421MOL0     H56806   1.842   4.740   4.012 -0.2539  1.4970  0.1238
  421MOL0     H56807   1.927   4.745   3.782 -1.5085 -0.5112  1.2168
  421MOL0     H56808   2.088   4.766   3.846  0.0386  1.3263 -1.4162
  421MOL0     H56809   1.999   4.990   3.792 -2.2406  2.5722  0.4505
  421MOL0     H56810   1.856   4.967   3.887  0.0125 -1.0877  1.8931
  421MOL0     H56811   2.130   4.995   4.003 -0.1350  0.9141 -2.3555
  421MOL0     H56812   1.975   4.979   4.098 -1.4450  3.6833  0.5185
  421MOL0     H56813   2.056   5.212   3.926  0.7015 -1.7013 -1.6008
  421MOL0     H56814   1.891   5.159   3.966  0.3329 -2.1556  0.8029
  421MOL0     H56815   2.338   4.455   4.350  0.5427  0.1671  2.0104
  421MOL0     H56816   2.573   4.417   4.346  3.0882 -1.9818 -2.9254
  421MOL0     H56817   2.968   4.551   4.234  0.3176 -0.2679 -1.7687
  421MOL0     H56818   3.200   4.465   4.283 -0.7831  0.0456  0.9545
  421MOL0     H56819   4.738   3.215   3.844  1.2096  0.5099 -0.8572
  421MOL0     H56820   4.946   3.118   3.883  2.1922 -0.7666 -2.1015
  421MOL0     H56821   5.210   2.542   4.000  1.4356 -1.2117  1.6044
  421MOL0     H56822   5.444   2.513   4.043  0.7955 -0.1438  0.5430
  421MOL0     H56823   5.653   2.522   4.129  1.6905  0.3649 -0.5632
  421MOL0     H56824   5.577   2.645   4.239  1.1701 -0.3217  0.4182
  421MOL0     H56825   5.794   2.770   4.227  0.7527 -0.0100 -1.0102
  421MOL0     H56826   5.870   2.673   4.112  0.0446  1.7816  0.4089
  421MOL0     H56827   5.958   2.603   4.320  0.2795 -0.5276  1.0537
  421MOL0     H56828   5.863   2.470   4.261 -0.1814  0.4136 -0.9200
  421MOL0     H56829   5.703   2.659   4.445 -0.4361 -0.7367  1.2864
  421MOL0     H56830   5.711   2.490   4.438 -0.8367 -0.4522 -2.4516
  421MOL0     H56831   5.992   2.582   4.741  0.5658 -1.8598  0.1337
  421MOL0     H56832   5.517   2.909   3.936 -0.5834  1.4690  2.0367
  421MOL0     H56833   5.211   3.039   3.906  1.1202 -2.8569  2.8788
  421MOL0     H56834   5.373   3.069   3.867 -1.2286  2.6786 -0.0827
  421MOL0     H56835   5.263   3.001   3.746  0.7658 -0.7391 -0.0909
  422MOL0     O56836   5.327   6.954   8.988 -0.3462  0.0730  0.0405
  422MOL0     C56837   5.240   6.865   8.990  0.1649 -0.1703 -0.4886
  422MOL0     O56838   5.263   6.737   9.032  0.3188 -0.1598  0.1260
  422MOL0     C56839   5.392   6.715   9.074 -0.8036 -0.3518  0.2395
  422MOL0     C56840   5.429   6.719   9.213  0.5460  0.8599  0.0777
  422MOL0     C56841   5.566   6.698   9.247  0.5644  0.7833 -0.4820
  422MOL0     C56842   5.663   6.673   9.153 -0.1653 -0.0833 -1.2855
  422MOL0     O56843   5.790   6.641   9.204  0.2423 -0.6149 -0.2931
  422MOL0     C56844   5.898   6.612   9.111  0.5000  0.3916 -0.0488
  422MOL0     C56845   6.027   6.603   9.194 -0.0702 -0.3928  0.5370
  422MOL0     C56846   6.135   6.539   9.101 -0.2170  0.0285  0.9500
  422MOL0     C56847   6.271   6.533   9.176  1.5755  0.2702  0.3910
  422MOL0     C56848   6.379   6.455   9.101 -0.5914 -0.0316 -0.4904
  422MOL0     C56849   6.493   6.423   9.194 -0.0821 -0.4568 -0.6663
  422MOL0     C56850   6.619   6.381   9.112  0.7539 -0.5447 -0.0906
  422MOL0     C56851   6.695   6.484   9.019 -1.1380 -0.1898  0.1411
  422MOL0     N56852   6.830   6.432   8.978 -0.1783  0.6749  1.0418
  422MOL0     C56853   6.871   6.303   8.942 -0.3649 -0.3272  0.4368
  422MOL0     C56854   6.988   6.327   8.880 -0.5466 -0.1318 -1.1406
  422MOL0     C56855   7.052   6.230   8.783 -0.0634 -0.1419  0.1296
  422MOL0     C56856   7.198   6.195   8.834  0.9082  0.9090  0.4179
  422MOL0     C56857   7.257   6.108   8.716 -0.2841  0.7815 -0.1462
  422MOL0     C56858   7.415   6.097   8.717 -1.4632 -0.9292  0.1842
  422MOL0     O56859   7.465   6.003   8.814  0.1611 -0.4323  0.2995
  422MOL0     C56860   7.599   6.014   8.841  0.4380  0.5204  0.6067
  422MOL0     C56861   7.694   6.062   8.751 -0.2210  0.6362  0.1723
  422MOL0     C56862   7.829   6.085   8.789 -0.0479  0.1730  1.6308
  422MOL0     C56863   7.866   6.060   8.920  0.3622  0.2684 -0.3789
  422MOL0     C56864   7.997   6.102   8.977 -0.3005  0.2004 -0.6744
  422MOL0     O56865   8.089   6.167   8.897  0.4596 -0.1259 -0.0922
  422MOL0     C56866   8.205   6.212   8.958  0.6525  0.1508 -0.7563
  422MOL0     C56867   8.228   6.348   8.981  0.7233 -0.1699 -0.3019
  422MOL0     C56868   8.354   6.396   9.030  1.2788  0.9650  0.6651
  422MOL0     C56869   8.458   6.297   9.061 -0.3497  0.6682 -0.5671
  422MOL0     O56870   8.568   6.340   9.119 -0.7951 -0.5412 -0.4628
  422MOL0     C56871   8.680   6.253   9.142  0.6042 -0.2195 -1.0488
  422MOL0     C56872   8.814   6.313   9.195  0.6232  0.1390  0.1691
  422MOL0     C56873   8.813   6.387   9.320  0.7186  0.0932 -0.0748
  422MOL0     C56874   8.957   6.431   9.357  0.9087 -0.9268  0.1860
  422MOL0     C56875   8.970   6.462   9.512  0.4045  0.3193 -0.1475
  422MOL0     C56876   9.109   6.477   9.553 -0.5588  0.3480 -0.8882
  422MOL0     C56877   9.173   6.602   9.487 -0.8964 -0.9304 -0.0863
  422MOL0     C56878   9.303   6.641   9.556  0.1936 -0.6885 -0.1646
  422MOL0    Cl56879   9.263   6.696   9.720  0.4050 -0.2056  0.0662
  422MOL0     C56880   8.423   6.166   9.047 -0.2838  0.5334  1.2516
  422MOL0     C56881   8.303   6.123   8.985  0.2920 -0.4906  0.6869
  422MOL0     O56882   8.009   6.082   9.099  0.0462 -0.5938 -0.0502
  422MOL0     C56883   7.763   6.015   9.013 -1.2481  0.5097 -0.4631
  422MOL0     C56884   7.639   6.005   8.972  0.6309 -0.5141  0.4413
  422MOL0     N56885   7.028   6.457   8.896 -0.7077  1.2033  0.0555
  422MOL0     N56886   6.938   6.514   8.955 -0.2982  1.1638 -0.2083
  422MOL0     C56887   5.626   6.674   9.015 -0.2982  0.9302  0.0644
  422MOL0     C56888   5.495   6.702   8.979 -1.0446  0.3258  0.2438
  422MOL0     C56889   5.097   6.902   8.951  0.8162 -0.7217 -0.2203
  422MOL0     C56890   5.068   7.040   8.947 -0.0221  1.5325  0.2381
  422MOL0     C56891   4.930   7.081   8.935 -0.7446  0.6079  0.1345
  422MOL0     C56892   4.831   6.986   8.932 -0.0125  0.0068  0.0310
  422MOL0     O56893   4.699   7.011   8.931  0.0180  0.6449  0.3414
  422MOL0     C56894   4.641   7.144   8.954 -0.4255 -0.4449  0.0609
  422MOL0     C56895   4.488   7.139   8.977  0.1069 -0.1467  0.8642
  422MOL0     C56896   4.436   7.280   9.024  0.1664 -0.3020 -0.4631
  422MOL0     C56897   4.283   7.267   9.059  0.3834 -0.3908 -0.6300
  422MOL0     C56898   4.223   7.399   9.085  0.4381 -0.5162  0.1443
  422MOL0     C56899   4.180   7.500   9.138  0.9291  0.0378 -0.5416
  422MOL0     C56900   4.860   6.861   8.929 -0.1191 -0.2456  0.7703
  422MOL0     C56901   4.995   6.806   8.929  0.2584 -0.5468  0.0220
  422MOL0     C56902   5.023   6.657   8.909  0.6064 -0.4458 -0.0326
  422MOL0     H56903   5.356   6.751   9.286  0.4320 -2.2798  1.4997
  422MOL0     H56904   5.586   6.696   9.354  0.3219 -1.5257 -0.4343
  422MOL0     H56905   5.878   6.519   9.057  2.8246 -0.9796  1.3026
  422MOL0     H56906   5.903   6.692   9.037 -0.0038  2.6877  2.2373
  422MOL0     H56907   6.017   6.544   9.285  0.9048  0.2886  1.1004
  422MOL0     H56908   6.062   6.700   9.230 -0.8739 -1.0560  3.3157
  422MOL0     H56909   6.141   6.602   9.012  2.1280 -0.6955  0.5187
  422MOL0     H56910   6.102   6.441   9.066  1.9138 -0.8879  1.3132
  422MOL0     H56911   6.309   6.628   9.216 -1.9812  2.1605 -0.2587
  422MOL0     H56912   6.257   6.466   9.262  0.4334 -0.3314 -0.2452
  422MOL0     H56913   6.347   6.357   9.062 -0.2549  0.1127 -1.1461
  422MOL0     H56914   6.423   6.509   9.017  2.1054 -1.1261  0.1240
  422MOL0     H56915   6.527   6.502   9.261 -0.9943 -0.1245 -0.5774
  422MOL0     H56916   6.466   6.341   9.261 -2.1456 -0.4016 -1.3347
  422MOL0     H56917   6.590   6.295   9.051  1.3165 -0.9390  0.1823
  422MOL0     H56918   6.695   6.340   9.179  0.8750  0.6756  0.5431
  422MOL0     H56919   6.644   6.521   8.929  0.1534  0.8163 -0.1999
  422MOL0     H56920   6.707   6.573   9.081 -2.8869 -0.0567  0.3449
  422MOL0     H56921   6.810   6.213   8.943  0.5252 -1.0423 -1.8946
  422MOL0     H56922   6.983   6.147   8.769  1.2904 -1.5105  1.2241
  422MOL0     H56923   7.059   6.281   8.687 -1.2308  2.5553  1.3488
  422MOL0     H56924   7.252   6.282   8.873 -0.4541  1.9853 -0.0084
  422MOL0     H56925   7.186   6.124   8.916 -1.1392  0.0155 -0.5744
  422MOL0     H56926   7.212   6.126   8.618 -0.8441 -1.6546 -0.4104
  422MOL0     H56927   7.228   6.007   8.746  0.7974  0.5829  0.2675
  422MOL0     H56928   7.464   6.194   8.730 -0.4512 -1.6634  2.2094
  422MOL0     H56929   7.444   6.061   8.617 -0.7010  0.9575 -0.3273
  422MOL0     H56930   7.672   6.075   8.646  4.0248  1.6897 -0.7835
  422MOL0     H56931   7.898   6.127   8.716 -0.7651 -2.4333 -0.7119
  422MOL0     H56932   8.149   6.416   8.948 -1.6228 -2.9096 -0.6732
  422MOL0     H56933   8.367   6.503   9.030 -0.2081  1.1970 -1.3431
  422MOL0     H56934   8.648   6.174   9.212 -0.2034 -0.8369 -2.0873
  422MOL0     H56935   8.703   6.201   9.049 -0.4408 -1.7599 -0.4946
  422MOL0     H56936   8.888   6.235   9.208  0.3455 -0.4067 -1.3335
  422MOL0     H56937   8.853   6.380   9.117  1.7485 -1.7163 -0.9372
  422MOL0     H56938   8.742   6.469   9.306  0.0504 -0.6964 -1.5823
  422MOL0     H56939   8.776   6.320   9.398 -1.0482  2.8294  1.6132
  422MOL0     H56940   8.994   6.515   9.297  0.5472 -2.0435 -1.6914
  422MOL0     H56941   9.024   6.350   9.326  0.8522 -0.4452 -1.2637
  422MOL0     H56942   8.919   6.391   9.578 -0.7475  0.6521 -0.6538
  422MOL0     H56943   8.915   6.554   9.534 -1.9582 -0.6581 -1.5815
  422MOL0     H56944   9.113   6.487   9.661  1.5372 -0.1264 -0.8934
  422MOL0     H56945   9.154   6.381   9.524  0.1415 -0.0008  1.2232
  422MOL0     H56946   9.110   6.692   9.485 -0.1062 -0.3677 -1.2355
  422MOL0     H56947   9.195   6.589   9.381  0.5969  1.7294 -0.1990
  422MOL0     H56948   9.368   6.553   9.546  0.4027 -0.3447 -2.1565
  422MOL0     H56949   9.344   6.726   9.500 -0.6910 -0.2785 -0.2042
  422MOL0     H56950   8.492   6.088   9.076  0.7458  0.8108 -0.2915
  422MOL0     H56951   8.296   6.016   8.970 -0.6253 -0.2416 -0.9555
  422MOL0     H56952   7.788   6.002   9.118  0.0463 -2.1204 -1.0217
  422MOL0     H56953   7.555   6.017   9.040  0.8961  1.0074  0.5283
  422MOL0     H56954   5.710   6.669   8.946 -1.3064  2.5334 -1.3453
  422MOL0     H56955   5.472   6.719   8.874  1.7143  2.1199 -0.1971
  422MOL0     H56956   5.146   7.115   8.960  0.2512  0.9862  2.0723
  422MOL0     H56957   4.906   7.187   8.931 -0.9658  0.5859 -4.2648
  422MOL0     H56958   4.640   7.206   8.863 -4.7355 -1.0676 -0.5402
  422MOL0     H56959   4.702   7.196   9.028  2.0127 -4.6932  1.3649
  422MOL0     H56960   4.470   7.057   9.048  0.6312 -0.8620  0.1739
  422MOL0     H56961   4.429   7.122   8.887 -0.1987  3.1651  0.2931
  422MOL0     H56962   4.452   7.354   8.946 -1.2673 -1.6400 -2.0965
  422MOL0     H56963   4.490   7.314   9.114  0.7434  1.4938 -1.4416
  422MOL0     H56964   4.233   7.223   8.972  1.5537 -3.8852  0.2869
  422MOL0     H56965   4.272   7.197   9.142  1.9115 -1.0260 -0.9303
  422MOL0     H56966   4.137   7.592   9.173 -0.1378 -0.7033  0.1695
  422MOL0     H56967   4.775   6.796   8.908 -1.6217  1.2196  2.1193
  422MOL0     H56968   5.112   6.625   8.854 -0.1854 -1.4451 -0.7705
  422MOL0     H56969   5.012   6.606   9.004  2.5003  1.5687  1.3624
  422MOL0     H56970   4.943   6.618   8.846  0.4706  0.8814 -0.7314
  423MOL0     O56971   1.845   6.961   3.855  0.5895  0.9446 -0.0032
  423MOL0     C56972   1.818   6.994   3.741  0.4853 -0.5269 -0.4949
  423MOL0     O56973   1.861   6.939   3.623 -0.8626  0.0519 -0.5173
  423MOL0     C56974   1.975   6.871   3.601 -0.3180  0.6176  0.0805
  423MOL0     C56975   2.071   6.830   3.692 -0.7089  0.5490 -0.0499
  423MOL0     C56976   2.183   6.760   3.641  0.7895  0.1590  0.3383
  423MOL0     C56977   2.207   6.737   3.509  1.1446 -0.8647  0.6162
  423MOL0     O56978   2.309   6.658   3.474 -0.8365 -0.3425 -0.5666
  423MOL0     C56979   2.378   6.703   3.356 -0.4002 -0.2389 -1.3231
  423MOL0     C56980   2.522   6.667   3.365  0.4176  0.2331 -0.5776
  423MOL0     C56981   2.587   6.767   3.458 -0.0027 -0.3946 -0.4543
  423MOL0     C56982   2.620   6.897   3.389 -0.5127  0.0429  0.3585
  423MOL0     C56983   2.638   7.011   3.485  0.2660  0.2466  0.2867
  423MOL0     C56984   2.733   6.977   3.610  0.2277  0.0225  0.2553
  423MOL0     C56985   2.877   6.924   3.571 -0.7622 -0.8723  0.8267
  423MOL0     C56986   2.971   7.048   3.585 -0.8780  0.5379  0.6658
  423MOL0     N56987   3.103   7.028   3.529 -0.6784 -0.7158  0.4428
  423MOL0     C56988   3.164   6.912   3.492 -0.1170 -0.6722 -1.4631
  423MOL0     C56989   3.295   6.959   3.451 -0.1670  1.0053 -0.5451
  423MOL0     C56990   3.408   6.863   3.401 -0.4413  0.0136 -0.4458
  423MOL0     C56991   3.439   6.778   3.521 -0.2810 -0.1526  0.9738
  423MOL0     C56992   3.554   6.675   3.489  0.7079 -0.2815  0.4040
  423MOL0     C56993   3.684   6.723   3.555  1.3677 -0.2554 -0.2755
  423MOL0     O56994   3.792   6.637   3.535 -0.5754  0.0476 -0.3279
  423MOL0     C56995   3.910   6.695   3.575  0.3404  0.1419 -1.2745
  423MOL0     C56996   3.927   6.749   3.704 -0.0081 -0.6430  0.0816
  423MOL0     C56997   4.057   6.784   3.742 -0.4201 -0.2295  0.3316
  423MOL0     C56998   4.164   6.759   3.659 -0.5518  0.0337  0.1729
  423MOL0     C56999   4.311   6.786   3.698 -0.5983 -0.2301 -0.1081
  423MOL0     O57000   4.413   6.764   3.610 -0.2735 -0.2823 -0.0155
  423MOL0     C57001   4.545   6.767   3.657 -0.2516  0.1888  0.5899
  423MOL0     C57002   4.614   6.893   3.648 -0.2322  0.3164 -0.5333
  423MOL0     C57003   4.740   6.912   3.702  0.0150  0.5620 -0.3986
  423MOL0     C57004   4.800   6.794   3.765  0.6640 -0.0050  0.3006
  423MOL0     O57005   4.931   6.808   3.800  0.0542 -0.7531  0.4172
  423MOL0     C57006   4.952   6.817   3.941  0.1826  0.0125  0.3368
  423MOL0     C57007   5.089   6.756   3.973 -0.6941 -0.6035 -0.0699
  423MOL0     C57008   5.088   6.603   3.943 -0.3720  0.3295  0.2887
  423MOL0     C57009   5.223   6.539   3.990 -0.4461  0.2215  0.0525
  423MOL0     C57010   5.328   6.557   3.882 -0.2761  0.6122 -0.3492
  423MOL0     C57011   5.468   6.583   3.938  0.0155 -0.6244  0.9199
  423MOL0     C57012   5.582   6.608   3.839 -0.7604 -0.5343 -0.4695
  423MOL0     C57013   5.626   6.487   3.756 -0.4580 -0.4999 -0.1256
  423MOL0    Cl57014   5.496   6.434   3.638  0.3492  0.0561 -0.3371
  423MOL0     C57015   4.730   6.673   3.774 -0.3056  0.2736 -0.1166
  423MOL0     C57016   4.602   6.658   3.712  0.5172  0.0644  0.1941
  423MOL0     O57017   4.328   6.815   3.814  0.0704  0.2109  0.3335
  423MOL0     C57018   4.140   6.719   3.530 -0.3223  0.9387 -0.1324
  423MOL0     C57019   4.015   6.672   3.492  0.2668 -0.1947 -0.1035
  423MOL0     N57020   3.308   7.094   3.473  0.1938 -0.0807  0.1099
  423MOL0     N57021   3.190   7.137   3.517 -0.4074  0.1381  0.4395
  423MOL0     C57022   2.101   6.774   3.420 -0.5069 -0.3864 -0.9687
  423MOL0     C57023   1.987   6.840   3.461 -0.2479  0.1620 -1.1846
  423MOL0     C57024   1.723   7.101   3.728  0.5991 -0.3207 -0.0189
  423MOL0     C57025   1.620   7.089   3.633 -0.2326 -0.1694  0.1657
  423MOL0     C57026   1.530   7.197   3.616 -0.5009  0.0377  0.4590
  423MOL0     C57027   1.547   7.317   3.695  0.7042 -0.1745 -0.4840
  423MOL0     O57028   1.465   7.426   3.696  0.5854  0.4478 -0.0496
  423MOL0     C57029   1.412   7.459   3.579  0.7412 -0.3477  0.1205
  423MOL0     C57030   1.346   7.596   3.586 -0.1401  0.1167 -1.0346
  423MOL0     C57031   1.232   7.598   3.682  0.4779 -0.1612 -0.5849
  423MOL0     C57032   1.124   7.703   3.654 -0.1627 -0.2266 -0.0694
  423MOL0     C57033   1.024   7.692   3.756 -1.0570  0.4706  0.4430
  423MOL0     C57034   0.939   7.687   3.845  0.2157 -0.4506  0.9923
  423MOL0     C57035   1.643   7.316   3.799 -0.3739  0.3478 -0.2970
  423MOL0     C57036   1.730   7.211   3.822 -0.4283  0.0288 -0.3637
  423MOL0     C57037   1.826   7.227   3.940 -0.0183  0.8421  0.1058
  423MOL0     H57038   2.059   6.849   3.798 -2.6646 -3.4092  0.6001
  423MOL0     H57039   2.254   6.747   3.723 -0.0800  0.2740  1.1207
  423MOL0     H57040   2.352   6.645   3.267 -1.8493  0.0248 -1.0893
  423MOL0     H57041   2.368   6.810   3.340  1.3330  0.4152  1.2192
  423MOL0     H57042   2.570   6.679   3.267  1.7533 -1.7857 -0.2254
  423MOL0     H57043   2.532   6.563   3.396  1.8870 -0.4938 -3.1389
  423MOL0     H57044   2.676   6.722   3.502 -0.9392  0.4067  2.4949
  423MOL0     H57045   2.527   6.790   3.546  1.2724  2.1462 -0.1613
  423MOL0     H57046   2.708   6.883   3.325 -1.7714 -3.0545 -0.9440
  423MOL0     H57047   2.541   6.931   3.320 -1.0503  0.0892  0.9867
  423MOL0     H57048   2.674   7.096   3.426  2.2650  1.8272  3.4901
  423MOL0     H57049   2.541   7.044   3.522  1.8632  3.0733  2.3686
  423MOL0     H57050   2.747   7.064   3.674  1.0529  0.3351 -0.3256
  423MOL0     H57051   2.680   6.915   3.683 -0.6292 -1.2171 -1.3409
  423MOL0     H57052   2.883   6.880   3.471  2.2360  0.6675  0.2078
  423MOL0     H57053   2.912   6.845   3.639 -0.0725  1.6790  3.7033
  423MOL0     H57054   2.923   7.125   3.524  0.1923  2.1108  1.7229
  423MOL0     H57055   2.980   7.080   3.689 -0.7855  3.8817 -0.2531
  423MOL0     H57056   3.132   6.812   3.466 -2.1638 -0.1487 -1.1558
  423MOL0     H57057   3.383   6.806   3.311  1.0236  0.3429 -1.0898
  423MOL0     H57058   3.489   6.930   3.370 -1.2225  1.1511 -0.1080
  423MOL0     H57059   3.477   6.840   3.603 -0.4378 -1.5930  2.1823
  423MOL0     H57060   3.351   6.725   3.558 -1.8591  2.5826  1.4560
  423MOL0     H57061   3.575   6.666   3.382 -0.5987  0.3512  0.0655
  423MOL0     H57062   3.536   6.573   3.525 -1.8075  0.0774  0.3772
  423MOL0     H57063   3.649   6.731   3.659  1.6079  2.7606 -0.3427
  423MOL0     H57064   3.708   6.818   3.506  0.5232 -0.3959 -0.9928
  423MOL0     H57065   3.846   6.767   3.775 -0.3017  3.0689 -0.9583
  423MOL0     H57066   4.066   6.813   3.846  0.3922 -2.6502  1.0038
  423MOL0     H57067   4.560   6.979   3.610 -0.5112  0.5010  0.2512
  423MOL0     H57068   4.800   7.003   3.697  2.6579 -1.0961 -1.1548
  423MOL0     H57069   4.945   6.923   3.965 -1.1854  0.2059 -0.7298
  423MOL0     H57070   4.883   6.760   4.003 -0.1944 -0.0604 -0.1425
  423MOL0     H57071   5.167   6.818   3.927 -0.0207 -0.7133  0.8982
  423MOL0     H57072   5.094   6.761   4.082 -2.7169 -1.6501  0.1136
  423MOL0     H57073   5.013   6.556   4.007  0.9470 -2.6821 -0.1952
  423MOL0     H57074   5.075   6.569   3.839 -0.8998  1.4704 -0.0357
  423MOL0     H57075   5.214   6.431   4.006  1.4638 -1.1681 -5.7429
  423MOL0     H57076   5.255   6.588   4.083  0.9981  0.7934 -0.7209
  423MOL0     H57077   5.301   6.628   3.803 -0.3881 -1.8431 -2.6922
  423MOL0     H57078   5.337   6.464   3.825  1.7889  1.1919 -1.0368
  423MOL0     H57079   5.462   6.675   3.996 -0.6933 -0.0370 -0.0662
  423MOL0     H57080   5.490   6.494   3.998 -0.6582  0.9789  3.6800
  423MOL0     H57081   5.665   6.656   3.892 -3.4253  3.2862  0.6918
  423MOL0     H57082   5.544   6.683   3.769  3.4694  0.7086 -1.7381
  423MOL0     H57083   5.721   6.522   3.714 -0.7260  0.5902  0.1575
  423MOL0     H57084   5.651   6.400   3.818 -1.5973 -2.9287 -2.8166
  423MOL0     H57085   4.767   6.583   3.822 -4.0762 -0.4738  1.8056
  423MOL0     H57086   4.544   6.567   3.719 -3.2152  2.2931  0.9834
  423MOL0     H57087   4.219   6.727   3.456  0.9087  3.7253  1.3486
  423MOL0     H57088   3.982   6.641   3.393 -2.1486  1.5995  0.0456
  423MOL0     H57089   2.110   6.742   3.317 -1.7254 -4.6323  0.0441
  423MOL0     H57090   1.931   6.883   3.379  0.6351 -0.2658 -2.0410
  423MOL0     H57091   1.614   7.005   3.564  3.5285 -1.1726  0.8400
  423MOL0     H57092   1.457   7.172   3.540  3.5846 -5.5605 -2.3636
  423MOL0     H57093   1.327   7.393   3.558 -2.0721  2.6869  1.1978
  423MOL0     H57094   1.489   7.473   3.502  1.1238 -0.6381  0.4442
  423MOL0     H57095   1.306   7.626   3.488 -0.5427 -0.6228 -1.1021
  423MOL0     H57096   1.423   7.669   3.609  1.0290 -0.2045 -3.5826
  423MOL0     H57097   1.267   7.634   3.779  0.3842  1.0320 -0.9704
  423MOL0     H57098   1.187   7.504   3.712 -1.9865  1.4147  1.0364
  423MOL0     H57099   1.175   7.800   3.650  0.1316 -0.3888 -3.3726
  423MOL0     H57100   1.086   7.690   3.552  0.2679 -0.8704 -0.1490
  423MOL0     H57101   0.869   7.672   3.925  1.0406  1.4963  2.1549
  423MOL0     H57102   1.630   7.401   3.864 -1.1959 -0.7378  1.0213
  423MOL0     H57103   1.821   7.332   3.972 -3.6512  0.7597  0.1810
  423MOL0     H57104   1.803   7.154   4.018  0.6642 -1.6201 -1.8814
  423MOL0     H57105   1.926   7.215   3.898  0.2528  0.9693  0.6967
  424MOL0     O57106   7.434  11.335   2.689 -0.7191  0.1532  0.0798
  424MOL0     C57107   7.331  11.310   2.751  0.0924  0.4594 -0.0723
  424MOL0     O57108   7.246  11.404   2.808  0.6036 -0.5042  0.3472
  424MOL0     C57109   7.284  11.532   2.815  0.8092  0.1524 -0.0656
  424MOL0     C57110   7.374  11.577   2.911 -0.7454  0.0897  0.4926
  424MOL0     C57111   7.407  11.712   2.923 -0.0521  0.0449  0.1953
  424MOL0     C57112   7.344  11.804   2.836  0.9836  0.4363 -0.3100
  424MOL0     O57113   7.363  11.941   2.857  1.1516  0.3297 -0.4034
  424MOL0     C57114   7.492  11.996   2.842 -0.4603  0.3582 -0.1107
  424MOL0     C57115   7.533  12.004   2.697  0.1662  0.1357  0.7999
  424MOL0     C57116   7.682  12.030   2.681  0.3342  0.0151  0.8184
  424MOL0     C57117   7.723  12.166   2.746 -0.4218 -0.1250  0.6540
  424MOL0     C57118   7.872  12.194   2.736  0.3270  0.3185 -0.1627
  424MOL0     C57119   7.916  12.177   2.594 -0.0802 -0.2129 -0.0317
  424MOL0     C57120   8.054  12.242   2.576 -1.6352  0.0487 -0.2731
  424MOL0     C57121   8.172  12.197   2.667  0.7767 -0.8901  0.3839
  424MOL0     N57122   8.203  12.053   2.664  0.0144  0.8689  0.0201
  424MOL0     C57123   8.256  11.992   2.547  1.0184  0.1114  0.6582
  424MOL0     C57124   8.277  11.859   2.580 -0.0687  0.1964 -0.5148
  424MOL0     C57125   8.332  11.744   2.497  0.6017  0.2279  0.5621
  424MOL0     C57126   8.478  11.724   2.530 -0.5453 -0.5874  0.1467
  424MOL0     C57127   8.518  11.612   2.434 -0.4309  0.0909 -0.5891
  424MOL0     C57128   8.662  11.581   2.446 -0.4542  0.4045  0.7125
  424MOL0     O57129   8.734  11.700   2.388  0.0920  0.6805 -0.7717
  424MOL0     C57130   8.871  11.697   2.372  0.5422 -0.2232 -0.7084
  424MOL0     C57131   8.954  11.594   2.399 -0.1892 -0.2666 -0.4869
  424MOL0     C57132   9.091  11.609   2.397  0.3577  0.1199  0.2281
  424MOL0     C57133   9.153  11.719   2.335  0.2057 -0.3294 -0.1379
  424MOL0     C57134   9.306  11.722   2.327  0.6069 -0.5859  0.6335
  424MOL0     O57135   9.347  11.852   2.311 -0.1701 -0.2736 -0.9073
  424MOL0     C57136   9.486  11.874   2.293 -0.5552  0.6378 -0.2681
  424MOL0     C57137   9.579  11.834   2.392 -0.4129 -0.0885 -0.0172
  424MOL0     C57138   9.717  11.867   2.385 -0.4198  1.0444 -0.1355
  424MOL0     C57139   9.761  11.941   2.266 -0.0630 -0.4011 -0.2227
  424MOL0     O57140   9.897  11.972   2.246  0.9910 -0.3276 -0.6401
  424MOL0     C57141   9.957  12.039   2.359 -0.6821 -1.3322  0.1326
  424MOL0     C57142  10.094  12.093   2.305 -0.8042 -0.8278 -0.0087
  424MOL0     C57143  10.216  11.998   2.308 -0.7461 -0.3129  0.5025
  424MOL0     C57144  10.349  12.079   2.334  0.0856 -0.4515  1.0368
  424MOL0     C57145  10.472  12.007   2.289 -0.4994 -0.5594  0.1298
  424MOL0     C57146  10.499  11.884   2.371 -0.2921  0.2646 -0.9987
  424MOL0     C57147  10.651  11.851   2.370  0.6238  0.4387  0.0125
  424MOL0     C57148  10.685  11.777   2.500  0.1745  0.1966  0.8097
  424MOL0    Cl57149  10.859  11.743   2.485  0.4423  0.3006  0.3102
  424MOL0     C57150   9.671  11.974   2.169  0.3883 -0.4237  0.1399
  424MOL0     C57151   9.539  11.931   2.179  0.1329 -0.0700  0.0083
  424MOL0     O57152   9.377  11.622   2.344  0.0055 -0.8644 -0.0842
  424MOL0     C57153   9.070  11.826   2.289 -0.6487  0.1400 -0.2634
  424MOL0     C57154   8.928  11.805   2.311  0.2838 -0.6484  0.3027
  424MOL0     N57155   8.256  11.847   2.721  0.0485  0.3197 -0.4008
  424MOL0     N57156   8.214  11.964   2.762  0.1994  0.3537  0.5042
  424MOL0     C57157   7.247  11.756   2.749 -0.3612 -0.5578  0.4973
  424MOL0     C57158   7.217  11.621   2.736  0.0090 -0.0541 -0.5090
  424MOL0     C57159   7.288  11.163   2.762  0.5003  0.0006  0.8196
  424MOL0     C57160   7.152  11.144   2.793  0.5199 -0.1947  0.0992
  424MOL0     C57161   7.101  11.021   2.810  0.0068 -0.2441  0.0938
  424MOL0     C57162   7.182  10.911   2.812 -0.4685  0.2999 -0.2209
  424MOL0     O57163   7.152  10.777   2.835  0.5621  0.2966  0.0399
  424MOL0     C57164   7.014  10.729   2.871 -0.7592  0.3956  0.4443
  424MOL0     C57165   6.918  10.743   2.754 -0.3875  0.6159  0.5696
  424MOL0     C57166   6.962  10.643   2.651  0.9178  0.1826  0.4373
  424MOL0     C57167   6.851  10.619   2.546  0.0835 -0.0536 -0.7906
  424MOL0     C57168   6.712  10.596   2.592  0.2773  1.0416 -0.1375
  424MOL0     C57169   6.607  10.575   2.646 -1.3951  0.2340 -0.6526
  424MOL0     C57170   7.320  10.928   2.782 -1.0430  0.7196 -0.0381
  424MOL0     C57171   7.372  11.058   2.760 -0.1868  0.2110  0.2262
  424MOL0     C57172   7.519  11.073   2.774 -0.0947 -0.2122  0.0559
  424MOL0     H57173   7.406  11.506   2.987 -5.5015 -0.7308  2.0869
  424MOL0     H57174   7.480  11.736   2.999  0.4948  1.4977 -0.7525
  424MOL0     H57175   7.505  12.093   2.892 -1.4202  1.3747 -1.7414
  424MOL0     H57176   7.564  11.929   2.889  0.5080 -0.9073 -3.1482
  424MOL0     H57177   7.486  12.087   2.644 -0.5895  0.3548  1.7801
  424MOL0     H57178   7.502  11.918   2.637  1.8424  1.3203 -1.9522
  424MOL0     H57179   7.701  12.014   2.574 -1.6230 -0.1468  0.4733
  424MOL0     H57180   7.737  11.951   2.732  2.0158 -0.5941 -1.7196
  424MOL0     H57181   7.675  12.251   2.697 -1.1023 -1.5128 -1.1762
  424MOL0     H57182   7.689  12.188   2.848 -0.8838  0.2185  0.4307
  424MOL0     H57183   7.899  12.295   2.767 -0.1355 -0.0610  1.6129
  424MOL0     H57184   7.916  12.119   2.802 -1.9541 -1.1596 -0.1960
  424MOL0     H57185   7.912  12.074   2.558 -1.3189 -1.1169  2.4120
  424MOL0     H57186   7.842  12.235   2.537 -0.8131  0.5468  1.6049
  424MOL0     H57187   8.036  12.349   2.578 -1.5062  0.0660  1.3402
  424MOL0     H57188   8.092  12.222   2.475 -2.1794  1.1753 -0.7124
  424MOL0     H57189   8.259  12.261   2.651 -0.9787  1.0340 -2.3946
  424MOL0     H57190   8.146  12.226   2.770 -0.9812 -0.4957 -0.1473
  424MOL0     H57191   8.268  12.029   2.445  2.8311 -1.6809  0.1797
  424MOL0     H57192   8.278  11.650   2.517  2.6111 -1.4274 -1.3056
  424MOL0     H57193   8.300  11.759   2.394 -3.2452  0.1751  1.5704
  424MOL0     H57194   8.535  11.815   2.512 -2.4619  1.3968  3.1921
  424MOL0     H57195   8.492  11.703   2.636 -1.4280 -2.6284 -0.0973
  424MOL0     H57196   8.500  11.639   2.330  2.3953 -2.9579 -2.0619
  424MOL0     H57197   8.472  11.519   2.470  2.6134 -1.3024  0.1263
  424MOL0     H57198   8.680  11.495   2.381 -0.2359  0.2076  1.0337
  424MOL0     H57199   8.686  11.561   2.551  0.6424 -0.5002  0.3168
  424MOL0     H57200   8.911  11.498   2.426  0.1322 -0.2790 -0.0103
  424MOL0     H57201   9.148  11.524   2.434 -1.2452 -1.9005 -1.6414
  424MOL0     H57202   9.546  11.770   2.473  1.1821  0.2517  0.9493
  424MOL0     H57203   9.790  11.835   2.459 -1.8453 -1.6708  0.2093
  424MOL0     H57204   9.894  12.125   2.383  1.4961  0.6059 -0.6929
  424MOL0     H57205   9.969  11.967   2.440 -0.9225 -0.0981  1.2989
  424MOL0     H57206  10.082  12.125   2.201 -2.1198 -0.7745  0.1349
  424MOL0     H57207  10.127  12.178   2.366  1.0024 -0.0091 -2.0192
  424MOL0     H57208  10.192  11.920   2.381  0.4438 -0.0343  1.2216
  424MOL0     H57209  10.223  11.939   2.217 -0.5434  0.9666 -0.3356
  424MOL0     H57210  10.353  12.095   2.442 -0.3427 -0.3884  1.0463
  424MOL0     H57211  10.333  12.179   2.292 -2.1514 -0.4751  1.6910
  424MOL0     H57212  10.546  12.085   2.308  0.0220 -1.6481  3.1144
  424MOL0     H57213  10.471  11.979   2.183  2.2137 -0.5252  0.0242
  424MOL0     H57214  10.456  11.905   2.469 -0.2099 -1.2936 -0.6064
  424MOL0     H57215  10.438  11.799   2.338  1.6470 -0.9406 -1.6788
  424MOL0     H57216  10.714  11.940   2.355 -0.6464  1.1906 -1.1294
  424MOL0     H57217  10.673  11.789   2.282  0.1884  3.8350 -2.7433
  424MOL0     H57218  10.668  11.834   2.592  2.3611 -1.6687  2.5005
  424MOL0     H57219  10.632  11.681   2.503  0.8814 -0.3222 -1.5480
  424MOL0     H57220   9.696  12.013   2.070 -2.8644  0.5088 -0.4319
  424MOL0     H57221   9.471  11.956   2.098  1.2531 -2.3495 -1.7446
  424MOL0     H57222   9.118  11.915   2.250 -2.8180  1.7158  0.4419
  424MOL0     H57223   8.856  11.880   2.280 -2.0401 -2.5618  0.8644
  424MOL0     H57224   7.194  11.824   2.682  4.2432  1.2708 -1.7678
  424MOL0     H57225   7.131  11.597   2.674 -0.6049 -3.8596  1.5100
  424MOL0     H57226   7.088  11.230   2.813  1.8697  1.1197 -1.0074
  424MOL0     H57227   6.999  10.999   2.839  0.2968 -2.0021 -0.0968
  424MOL0     H57228   6.969  10.783   2.955 -5.1001  0.8894 -1.9126
  424MOL0     H57229   7.008  10.624   2.900 -2.4296 -0.0232 -1.2443
  424MOL0     H57230   6.913  10.845   2.714  0.6991  1.0634  1.4985
  424MOL0     H57231   6.826  10.706   2.799  0.7991 -0.1234  2.5488
  424MOL0     H57232   6.977  10.544   2.694  0.4375 -1.3144 -2.5799
  424MOL0     H57233   7.055  10.683   2.611  1.1360  1.1447  1.8391
  424MOL0     H57234   6.850  10.705   2.479 -0.6426  1.7893  1.4199
  424MOL0     H57235   6.884  10.544   2.473  0.9004  0.0148 -0.5069
  424MOL0     H57236   6.525  10.540   2.706 -0.1889 -2.3105 -0.3425
  424MOL0     H57237   7.376  10.836   2.774 -3.3496 -0.7416 -0.2858
  424MOL0     H57238   7.545  11.149   2.847 -1.7962 -1.2056  1.8138
  424MOL0     H57239   7.574  10.980   2.794  0.8837 -0.0379 -1.6484
  424MOL0     H57240   7.550  11.110   2.676 -2.0187  0.2562 -0.4295
  425MOL0     O57241   5.065   7.771   2.195  0.3034 -0.0125 -0.9582
  425MOL0     C57242   5.016   7.821   2.090  0.6483  0.0773 -0.6403
  425MOL0     O57243   5.058   7.788   1.967 -0.0498 -0.3171  0.6723
  425MOL0     C57244   5.198   7.774   1.939  0.6847 -0.1092 -0.9676
  425MOL0     C57245   5.233   7.717   1.809 -0.0697 -0.3320 -0.7403
  425MOL0     C57246   5.361   7.697   1.773 -0.8865  0.2195 -0.7756
  425MOL0     C57247   5.469   7.727   1.867  0.6206 -0.3169 -0.2753
  425MOL0     O57248   5.608   7.707   1.842 -0.0469 -1.0277  0.0020
  425MOL0     C57249   5.657   7.588   1.783 -0.0885 -0.3110 -0.4532
  425MOL0     C57250   5.808   7.562   1.817 -0.1421 -0.2805  0.0681
  425MOL0     C57251   5.922   7.646   1.750  0.3266 -0.2958 -0.7555
  425MOL0     C57252   6.065   7.593   1.757  1.0414  0.4895  0.0687
  425MOL0     C57253   6.172   7.695   1.711  0.4150 -0.3894  0.5202
  425MOL0     C57254   6.189   7.788   1.839 -1.1652  0.0524  0.4179
  425MOL0     C57255   6.322   7.854   1.836  0.2151 -0.6236  0.0637
  425MOL0     C57256   6.308   7.970   1.728 -0.0778 -0.6894 -0.3147
  425MOL0     N57257   6.430   8.044   1.711  0.1111 -0.4832  0.3014
  425MOL0     C57258   6.515   8.069   1.809  0.2316 -0.3509 -0.5670
  425MOL0     C57259   6.641   8.092   1.757  0.1077 -0.7133 -0.8232
  425MOL0     C57260   6.764   8.118   1.843  0.5115 -0.0666 -1.2953
  425MOL0     C57261   6.848   7.988   1.877 -0.2130 -0.9456  0.2171
  425MOL0     C57262   6.919   7.927   1.752  0.7605  0.1504 -0.7903
  425MOL0     C57263   6.845   7.833   1.654  0.8773  0.5063  0.2559
  425MOL0     O57264   6.768   7.738   1.727  0.0162  0.9111 -0.1139
  425MOL0     C57265   6.671   7.661   1.663 -0.0100  0.0053  0.1759
  425MOL0     C57266   6.632   7.534   1.704 -0.4207  0.1798 -0.5785
  425MOL0     C57267   6.525   7.464   1.648 -0.8645  0.2820  0.4182
  425MOL0     C57268   6.454   7.515   1.536  0.2263  0.0283  0.1686
  425MOL0     C57269   6.335   7.440   1.486  0.6001 -0.5246  0.2651
  425MOL0     O57270   6.303   7.318   1.539 -0.2108  0.1313  1.1654
  425MOL0     C57271   6.176   7.271   1.525 -0.1489 -0.3872 -0.6870
  425MOL0     C57272   6.117   7.254   1.401  0.5404 -1.1254 -0.8488
  425MOL0     C57273   5.985   7.193   1.391 -0.1141 -0.3573  0.3121
  425MOL0     C57274   5.924   7.149   1.507  0.4719  0.7568 -0.7707
  425MOL0     O57275   5.799   7.089   1.532 -0.3999 -0.2197  0.2826
  425MOL0     C57276   5.718   7.065   1.410 -0.0290 -0.4944 -1.1130
  425MOL0     C57277   5.573   7.038   1.449  0.1017 -1.0568  0.1001
  425MOL0     C57278   5.504   7.172   1.455  0.4543 -0.2869 -0.2349
  425MOL0     C57279   5.390   7.152   1.558  0.2974  0.3468 -0.1881
  425MOL0     C57280   5.297   7.278   1.574  0.2636  0.0844 -0.0752
  425MOL0     C57281   5.220   7.306   1.451  0.1898  0.5250 -0.2112
  425MOL0     C57282   5.079   7.374   1.476  0.1544 -1.0553 -0.3555
  425MOL0     C57283   4.998   7.432   1.351  0.5073 -0.2101  0.2109
  425MOL0    Cl57284   4.854   7.509   1.416 -0.4050  0.6083  0.1016
  425MOL0     C57285   5.990   7.176   1.631  0.9378 -0.0021 -0.3645
  425MOL0     C57286   6.109   7.231   1.645 -1.0654 -0.9416 -0.0077
  425MOL0     O57287   6.268   7.502   1.406  0.4716 -0.0195  0.0178
  425MOL0     C57288   6.502   7.636   1.488 -0.1559  0.4887 -0.9319
  425MOL0     C57289   6.600   7.711   1.553  0.0721 -0.0649 -0.4946
  425MOL0     N57290   6.623   8.085   1.615  0.2452 -0.1037 -0.1414
  425MOL0     N57291   6.500   8.052   1.594 -0.7096  0.0022 -0.2187
  425MOL0     C57292   5.435   7.788   1.994 -0.0359  0.4914 -0.6488
  425MOL0     C57293   5.301   7.813   2.025  0.0096  0.1595  0.0756
  425MOL0     C57294   4.902   7.912   2.105  0.1559 -0.2984  0.4510
  425MOL0     C57295   4.809   7.901   2.214 -0.3580  0.1410 -0.1100
  425MOL0     C57296   4.696   7.976   2.211  0.7952 -0.0237  0.8564
  425MOL0     C57297   4.665   8.077   2.110 -0.6144 -0.1382 -0.2028
  425MOL0     O57298   4.545   8.152   2.136 -0.4340 -0.0116 -0.2451
  425MOL0     C57299   4.491   8.236   2.036 -0.3355  0.6044 -0.7171
  425MOL0     C57300   4.333   8.228   2.040 -0.5555 -0.2088 -0.3706
  425MOL0     C57301   4.270   8.369   2.065 -0.3740 -0.0587 -0.5013
  425MOL0     C57302   4.112   8.378   2.058 -0.8868  1.0129  0.3708
  425MOL0     C57303   4.043   8.302   2.166 -0.6522 -0.9305  0.3295
  425MOL0     C57304   3.991   8.253   2.266  0.5547 -0.0299  0.0479
  425MOL0     C57305   4.761   8.096   2.011  0.7303 -0.6041 -0.0023
  425MOL0     C57306   4.876   8.013   2.005  0.2699 -0.2188 -0.1346
  425MOL0     C57307   4.975   8.040   1.882  0.2602  0.4410 -1.1133
  425MOL0     H57308   5.153   7.679   1.746 -1.6174 -1.3935  1.6975
  425MOL0     H57309   5.391   7.659   1.676  1.3521  0.5844 -0.2836
  425MOL0     H57310   5.594   7.501   1.805 -0.3344  0.0545  0.3376
  425MOL0     H57311   5.645   7.593   1.675  3.0017 -4.7273 -1.2903
  425MOL0     H57312   5.830   7.455   1.809 -1.7348 -0.6096 -0.3858
  425MOL0     H57313   5.813   7.573   1.925  0.4134  3.5011 -0.1960
  425MOL0     H57314   5.932   7.731   1.819  3.1730 -1.5418  0.5083
  425MOL0     H57315   5.887   7.671   1.649  2.7824  1.0128 -1.3533
  425MOL0     H57316   6.070   7.554   1.859 -1.2627  1.9958  0.8431
  425MOL0     H57317   6.078   7.505   1.692  0.7910 -1.6970  2.7867
  425MOL0     H57318   6.263   7.645   1.676  1.0990  1.3344 -0.2775
  425MOL0     H57319   6.145   7.745   1.618  2.2390  0.0923  0.2029
  425MOL0     H57320   6.111   7.865   1.838 -1.8923 -0.6257 -2.0882
  425MOL0     H57321   6.174   7.727   1.928 -0.9803  1.0389  1.1450
  425MOL0     H57322   6.399   7.781   1.809  0.1105 -0.7100  0.0024
  425MOL0     H57323   6.342   7.901   1.933 -1.2865  3.5550 -1.4321
  425MOL0     H57324   6.263   7.932   1.635 -0.6064  3.5817 -2.0341
  425MOL0     H57325   6.234   8.047   1.750 -0.0824  0.7414 -4.4094
  425MOL0     H57326   6.476   8.070   1.910 -1.9949 -1.0827 -1.3651
  425MOL0     H57327   6.824   8.193   1.791 -2.2594  1.3525 -2.6839
  425MOL0     H57328   6.750   8.169   1.938 -0.1313 -0.9051 -0.9256
  425MOL0     H57329   6.927   8.020   1.944 -1.2927 -0.0636  1.1132
  425MOL0     H57330   6.791   7.909   1.927  0.3124 -0.0689  2.2563
  425MOL0     H57331   6.993   7.857   1.792 -1.8539 -2.2376  0.1301
  425MOL0     H57332   6.975   8.001   1.693  1.4007  0.8440  0.6358
  425MOL0     H57333   6.909   7.780   1.583 -2.0457  0.5340 -2.6157
  425MOL0     H57334   6.782   7.903   1.598 -1.2430 -0.3694  1.4198
  425MOL0     H57335   6.686   7.489   1.787 -4.3252 -1.5871  1.2636
  425MOL0     H57336   6.488   7.367   1.676  0.5581 -1.5211 -3.2476
  425MOL0     H57337   6.170   7.290   1.314 -0.4733  0.1961 -0.9477
  425MOL0     H57338   5.941   7.189   1.292  3.2070 -0.6280 -1.2887
  425MOL0     H57339   5.724   7.146   1.337  0.8756  0.6796  0.1975
  425MOL0     H57340   5.754   6.972   1.365 -0.8697 -0.2829 -2.2484
  425MOL0     H57341   5.520   6.988   1.367 -1.3076 -0.2560  0.4930
  425MOL0     H57342   5.562   6.976   1.539 -0.8811 -3.4915 -1.5835
  425MOL0     H57343   5.558   7.261   1.490 -0.6375 -0.8148  3.1794
  425MOL0     H57344   5.468   7.208   1.358 -1.9862  0.2170  0.7783
  425MOL0     H57345   5.429   7.123   1.656 -0.7353  0.4199  0.2569
  425MOL0     H57346   5.324   7.067   1.538  0.9762 -0.6910  1.7098
  425MOL0     H57347   5.365   7.358   1.605  0.5737 -1.0142  2.2811
  425MOL0     H57348   5.225   7.273   1.655 -0.4696  2.5734 -0.4919
  425MOL0     H57349   5.284   7.356   1.377  1.0837  0.4648  0.5050
  425MOL0     H57350   5.190   7.207   1.413  0.6011 -0.4825  1.9157
  425MOL0     H57351   5.090   7.458   1.545  1.6139 -0.0930 -1.6778
  425MOL0     H57352   5.014   7.311   1.536 -0.8383  1.7420  1.7300
  425MOL0     H57353   5.053   7.507   1.294 -1.3931  1.4935  0.5013
  425MOL0     H57354   4.974   7.347   1.286 -1.9966 -0.7885  1.7467
  425MOL0     H57355   5.933   7.150   1.719  0.0528  4.1527  0.4966
  425MOL0     H57356   6.157   7.243   1.742 -0.1005  0.3454 -0.6234
  425MOL0     H57357   6.460   7.685   1.401  0.9360  1.7086 -0.7983
  425MOL0     H57358   6.648   7.794   1.502  4.3676  0.1078  3.2144
  425MOL0     H57359   5.510   7.808   2.070  4.2501  0.0864 -4.3926
  425MOL0     H57360   5.271   7.867   2.114 -0.8387  0.7514 -0.5607
  425MOL0     H57361   4.822   7.827   2.292  1.2388 -0.5769 -0.9949
  425MOL0     H57362   4.627   7.969   2.294  1.7383 -1.0675  1.5789
  425MOL0     H57363   4.536   8.215   1.938  2.2310  0.0495  0.5063
  425MOL0     H57364   4.524   8.338   2.059  0.0329  0.3888 -0.2882
  425MOL0     H57365   4.301   8.144   2.102 -1.2790 -0.3525 -0.9273
  425MOL0     H57366   4.302   8.209   1.937 -0.8555 -1.5189 -0.0651
  425MOL0     H57367   4.302   8.435   1.984 -2.5607  0.3595 -1.0793
  425MOL0     H57368   4.304   8.407   2.162  0.2407 -4.8062  1.4291
  425MOL0     H57369   4.079   8.482   2.063 -2.2045  0.5896  1.0496
  425MOL0     H57370   4.082   8.344   1.959 -3.0877  2.0769  0.6143
  425MOL0     H57371   3.958   8.205   2.356  0.2387 -2.5160 -1.3111
  425MOL0     H57372   4.733   8.153   1.922  0.1582 -2.6530 -1.1899
  425MOL0     H57373   5.078   8.028   1.918 -1.0647 -0.3822  2.8733
  425MOL0     H57374   4.955   7.976   1.795  0.3760 -1.7192  0.3764
  425MOL0     H57375   4.966   8.145   1.855  0.6482  1.0661  1.0300
  426MOL0     O57376   6.089   1.072   4.875 -0.3030 -1.1267  0.0772
  426MOL0     C57377   6.019   0.990   4.927 -0.5312  0.3414 -0.9193
  426MOL0     O57378   6.067   0.895   5.017  0.0254 -0.6033  0.3166
  426MOL0     C57379   6.204   0.908   5.041  0.8682 -0.2852  0.3884
  426MOL0     C57380   6.291   0.818   4.986  0.2761  0.5574  0.1804
  426MOL0     C57381   6.429   0.811   5.017  0.1203  0.3094 -0.4287
  426MOL0     C57382   6.472   0.907   5.114  0.0267  0.2336  1.0734
  426MOL0     O57383   6.601   0.901   5.137 -0.2621 -0.0073 -0.4598
  426MOL0     C57384   6.674   1.005   5.209  0.0554  0.4528 -0.6530
  426MOL0     C57385   6.830   0.988   5.197 -0.0218 -0.2368 -0.4465
  426MOL0     C57386   6.905   1.107   5.268  1.2067  0.1410 -0.1686
  426MOL0     C57387   7.042   1.136   5.200  0.0003 -0.1106 -0.1137
  426MOL0     C57388   7.152   1.031   5.225  0.3631  0.2078 -0.2402
  426MOL0     C57389   7.140   0.917   5.118  1.2160  0.2688 -0.2953
  426MOL0     C57390   7.245   0.805   5.139 -0.0508 -0.1674  0.1119
  426MOL0     C57391   7.282   0.749   5.003  0.7338  0.2224  0.5181
  426MOL0     N57392   7.375   0.828   4.931  0.3334 -0.1291  0.1812
  426MOL0     C57393   7.515   0.837   4.941  0.3579  0.4912 -0.3730
  426MOL0     C57394   7.558   0.927   4.851 -0.2279  0.4679  0.6720
  426MOL0     C57395   7.704   0.938   4.812 -0.0128  0.0402 -0.4114
  426MOL0     C57396   7.739   1.000   4.677 -0.2444 -0.0514  0.5111
  426MOL0     C57397   7.884   0.967   4.648 -0.7141  0.2738  1.2917
  426MOL0     C57398   7.927   1.007   4.509 -0.4349  0.1333  0.6463
  426MOL0     O57399   8.059   0.958   4.481  0.3626  0.3032  0.1314
  426MOL0     C57400   8.120   0.957   4.356 -0.4328 -0.0874 -0.6676
  426MOL0     C57401   8.053   1.008   4.241 -0.0875 -0.8096  0.2790
  426MOL0     C57402   8.098   1.000   4.108 -0.0819  0.0534  0.0145
  426MOL0     C57403   8.232   0.956   4.088  0.8616  0.0691  0.3402
  426MOL0     C57404   8.296   0.963   3.962  0.6447  0.2300 -0.0077
  426MOL0     O57405   8.426   0.936   3.948  0.1731  0.6138  0.1689
  426MOL0     C57406   8.494   0.964   3.832 -0.0518 -0.3365 -0.6840
  426MOL0     C57407   8.551   0.866   3.764  0.3030  0.5638 -0.3289
  426MOL0     C57408   8.649   0.889   3.667 -0.1959  0.3868  0.9050
  426MOL0     C57409   8.686   1.021   3.631  1.7213 -0.7447  0.2678
  426MOL0     O57410   8.772   1.041   3.526 -0.2341 -0.3486 -0.3798
  426MOL0     C57411   8.840   1.165   3.531 -0.5226  0.5854 -0.3157
  426MOL0     C57412   8.967   1.142   3.445  0.8912 -0.7011  0.0646
  426MOL0     C57413   9.076   1.049   3.514  0.0910 -0.2826 -0.8210
  426MOL0     C57414   9.201   1.048   3.433 -0.4245  0.1548 -0.2487
  426MOL0     C57415   9.200   0.948   3.324  0.5974  0.0179  0.1546
  426MOL0     C57416   9.323   0.958   3.233  0.6881  0.1425  0.7838
  426MOL0     C57417   9.326   0.844   3.129 -0.2625  0.6338 -0.4223
  426MOL0     C57418   9.408   0.872   3.005  0.2607  0.4827  0.1928
  426MOL0    Cl57419   9.311   0.990   2.913 -0.2801 -0.0240  0.0936
  426MOL0     C57420   8.625   1.125   3.707 -0.0238 -0.8565  0.0462
  426MOL0     C57421   8.528   1.093   3.800 -0.6694 -0.3949 -0.7624
  426MOL0     O57422   8.223   0.998   3.862 -1.2755  0.2102  0.4467
  426MOL0     C57423   8.303   0.906   4.202 -0.1817  0.1499 -0.4407
  426MOL0     C57424   8.246   0.908   4.331  0.3719  0.7341  0.2225
  426MOL0     N57425   7.449   0.956   4.775  0.0506 -0.6346  0.3536
  426MOL0     N57426   7.340   0.901   4.817 -0.4301 -0.2136 -0.1266
  426MOL0     C57427   6.387   1.009   5.171 -0.0772  1.1647 -0.1164
  426MOL0     C57428   6.261   1.011   5.124  0.7304 -0.0798 -0.3106
  426MOL0     C57429   5.871   0.981   4.890  0.1591 -0.3237  0.1109
  426MOL0     C57430   5.788   0.910   4.974  0.5409  0.1284 -0.5368
  426MOL0     C57431   5.659   0.880   4.939  0.4486  0.8043  0.0607
  426MOL0     C57432   5.604   0.921   4.820  0.2372  0.1573  0.6215
  426MOL0     O57433   5.479   0.883   4.788 -0.2250 -0.8345 -1.0831
  426MOL0     C57434   5.452   0.863   4.658  1.1660 -0.5601 -0.0712
  426MOL0     C57435   5.361   0.743   4.652  0.4180 -0.2885  0.8524
  426MOL0     C57436   5.404   0.618   4.723  0.6222 -0.7838  0.2287
  426MOL0     C57437   5.319   0.580   4.845  0.5894 -0.1091 -0.6765
  426MOL0     C57438   5.342   0.676   4.960 -0.1957  0.2702  0.0487
  426MOL0     C57439   5.355   0.743   5.063 -0.3116  0.3230  0.4114
  426MOL0     C57440   5.686   1.015   4.742  0.6895 -1.6710 -0.4505
  426MOL0     C57441   5.821   1.037   4.770 -0.6660  0.0003  0.0115
  426MOL0     C57442   5.902   1.099   4.654  0.7045 -1.2176 -0.1794
  426MOL0     H57443   6.262   0.738   4.918 -0.1815  1.9957 -1.3872
  426MOL0     H57444   6.499   0.732   4.991  3.2879  2.3584  1.2618
  426MOL0     H57445   6.666   1.099   5.154  1.3920 -0.8403 -3.2584
  426MOL0     H57446   6.641   1.007   5.313  0.6332  0.9969 -0.4721
  426MOL0     H57447   6.852   0.992   5.089 -1.0798 -4.6715 -0.9939
  426MOL0     H57448   6.850   0.887   5.232 -0.0278  0.3354  1.3119
  426MOL0     H57449   6.914   1.081   5.373 -3.2122  3.4550  1.3702
  426MOL0     H57450   6.842   1.197   5.260  3.3456  1.5511 -2.8068
  426MOL0     H57451   7.029   1.135   5.092 -0.4335 -0.5844 -0.0581
  426MOL0     H57452   7.069   1.238   5.229 -1.3286 -0.7079  3.9212
  426MOL0     H57453   7.253   1.072   5.236  0.3300  0.5118 -1.0372
  426MOL0     H57454   7.133   0.987   5.324 -0.9330 -0.5774 -0.8245
  426MOL0     H57455   7.042   0.870   5.126  0.0772  1.8455 -3.3945
  426MOL0     H57456   7.162   0.957   5.019  1.8235 -0.9058 -0.6536
  426MOL0     H57457   7.219   0.739   5.222  1.3516  0.5120  1.1162
  426MOL0     H57458   7.339   0.838   5.185 -1.0004 -1.6034  3.3525
  426MOL0     H57459   7.317   0.646   5.015  1.0826  0.2126 -0.5092
  426MOL0     H57460   7.190   0.739   4.945  1.4658 -2.5165 -0.3201
  426MOL0     H57461   7.571   0.779   5.014 -2.5559 -0.7221  1.1053
  426MOL0     H57462   7.749   1.000   4.891  2.5175 -1.0615 -0.9014
  426MOL0     H57463   7.738   0.836   4.830  0.1126  0.2798  0.8523
  426MOL0     H57464   7.686   0.944   4.600  1.0381 -0.8844  0.1958
  426MOL0     H57465   7.707   1.105   4.676 -0.6708 -0.1553  1.7152
  426MOL0     H57466   7.890   0.858   4.658 -0.7612  0.3499  2.2161
  426MOL0     H57467   7.951   1.023   4.713 -1.1335  0.6072  1.4408
  426MOL0     H57468   7.930   1.111   4.476 -1.3632  0.0372  0.2020
  426MOL0     H57469   7.860   0.953   4.441  1.6593 -4.3078  1.7677
  426MOL0     H57470   7.958   1.057   4.263  0.0620 -0.3588 -0.0592
  426MOL0     H57471   8.033   1.036   4.029  0.0718 -3.3934 -1.8390
  426MOL0     H57472   8.507   0.772   3.797 -1.9952  2.0016  0.8878
  426MOL0     H57473   8.687   0.811   3.601 -2.3085 -0.0647  0.1196
  426MOL0     H57474   8.789   1.252   3.489 -0.1431 -0.5281 -3.3345
  426MOL0     H57475   8.880   1.183   3.632 -3.2199 -1.6778  1.3028
  426MOL0     H57476   8.950   1.096   3.347 -0.7807  1.5454 -0.7835
  426MOL0     H57477   9.010   1.240   3.421  1.3619 -1.1978 -1.1960
  426MOL0     H57478   9.084   1.077   3.619  2.5685 -0.2045 -0.9713
  426MOL0     H57479   9.031   0.949   3.517 -1.4089  0.3897  1.4385
  426MOL0     H57480   9.288   1.020   3.494 -0.3437 -0.3147 -0.5756
  426MOL0     H57481   9.222   1.146   3.388 -1.7322  0.6343  0.1352
  426MOL0     H57482   9.112   0.970   3.263 -0.0175  1.3078  1.4531
  426MOL0     H57483   9.184   0.848   3.365 -0.4547 -0.1531 -0.6206
  426MOL0     H57484   9.320   1.054   3.181 -0.2085 -0.8502 -1.0757
  426MOL0     H57485   9.406   0.951   3.304 -0.5868 -0.9423  2.2347
  426MOL0     H57486   9.224   0.826   3.094 -0.6686  0.4611  0.7959
  426MOL0     H57487   9.363   0.751   3.174 -0.5675 -0.5339 -2.4370
  426MOL0     H57488   9.509   0.907   3.027 -0.2242  2.0771 -0.0572
  426MOL0     H57489   9.433   0.779   2.952  3.5918 -0.9146  3.6483
  426MOL0     H57490   8.642   1.232   3.706  2.1062 -1.1543 -0.2138
  426MOL0     H57491   8.511   1.167   3.877  1.6806  0.4354 -0.9580
  426MOL0     H57492   8.402   0.863   4.193  0.5286  2.0980 -3.2438
  426MOL0     H57493   8.297   0.865   4.417 -1.0548  1.6614  1.5869
  426MOL0     H57494   6.427   1.070   5.252 -1.3016  1.3390  0.3739
  426MOL0     H57495   6.193   1.093   5.145 -0.4914 -1.1163 -0.0733
  426MOL0     H57496   5.826   0.867   5.066 -1.1217 -0.4319 -0.0854
  426MOL0     H57497   5.603   0.808   4.997  1.7753 -1.3895 -1.2646
  426MOL0     H57498   5.541   0.853   4.595 -1.4907 -0.3463 -4.2197
  426MOL0     H57499   5.402   0.954   4.625  0.4085 -0.8827  0.1547
  426MOL0     H57500   5.358   0.703   4.550 -0.5504 -0.3847  0.9081
  426MOL0     H57501   5.260   0.772   4.681 -0.3074  0.5421 -2.1763
  426MOL0     H57502   5.506   0.632   4.760 -0.8125  1.4889  3.8745
  426MOL0     H57503   5.399   0.540   4.647  3.8606  1.4824 -2.5944
  426MOL0     H57504   5.210   0.584   4.839 -0.0098 -1.6501  4.4155
  426MOL0     H57505   5.338   0.474   4.864 -0.9610 -0.9155 -3.1691
  426MOL0     H57506   5.370   0.807   5.147  0.3467  0.8304 -0.0782
  426MOL0     H57507   5.651   1.048   4.645  0.7000 -1.4650 -0.3855
  426MOL0     H57508   5.823   1.129   4.584 -0.6688 -1.1067  1.3647
  426MOL0     H57509   5.953   1.192   4.683 -3.8296  1.2602  0.9571
  426MOL0     H57510   5.978   1.033   4.612  2.1031  1.9158 -3.0854
  427MOL0     O57511   4.388   7.741   1.588  0.7127 -0.6718 -0.1004
  427MOL0     C57512   4.382   7.859   1.641 -0.0205  0.4487  0.7587
  427MOL0     O57513   4.490   7.936   1.682  0.1963 -0.6967 -0.2750
  427MOL0     C57514   4.613   7.884   1.648  0.2795 -0.0776 -0.6416
  427MOL0     C57515   4.655   7.910   1.516  0.3314 -0.2889  0.2853
  427MOL0     C57516   4.777   7.873   1.478 -0.5129 -0.1982 -0.1868
  427MOL0     C57517   4.872   7.816   1.571 -0.4860  0.9862  0.6722
  427MOL0     O57518   5.012   7.795   1.551 -0.2431  0.4696  0.4793
  427MOL0     C57519   5.062   7.854   1.429  1.1933 -0.1628 -0.1899
  427MOL0     C57520   5.210   7.860   1.425  0.1982 -0.1767  0.4233
  427MOL0     C57521   5.290   7.726   1.385 -0.4402  0.2767  0.1882
  427MOL0     C57522   5.430   7.756   1.388  0.1231  0.4057  0.1270
  427MOL0     C57523   5.516   7.630   1.353  0.3433 -0.8262  0.5830
  427MOL0     C57524   5.666   7.669   1.353 -0.6240  0.1148 -0.2554
  427MOL0     C57525   5.757   7.545   1.318 -0.2165 -0.1954  0.1488
  427MOL0     C57526   5.905   7.569   1.324  0.2214 -0.0438 -0.1550
  427MOL0     N57527   5.940   7.688   1.240 -0.0808  0.5170  0.7043
  427MOL0     C57528   5.980   7.679   1.104 -0.4786  0.1282 -0.6094
  427MOL0     C57529   6.008   7.804   1.067 -0.9456 -0.7914 -0.3144
  427MOL0     C57530   6.060   7.852   0.932  0.2275  0.8401  0.3988
  427MOL0     C57531   5.933   7.925   0.879 -0.7859  0.1783 -0.2172
  427MOL0     C57532   5.950   7.960   0.730 -0.7230  0.2379  0.7497
  427MOL0     C57533   6.052   8.065   0.710  0.2687 -0.0748 -0.5030
  427MOL0     O57534   6.087   8.081   0.580 -0.3030  0.6101  0.8412
  427MOL0     C57535   6.176   8.179   0.540  0.8255  0.7506 -0.0989
  427MOL0     C57536   6.289   8.227   0.615  0.3970 -0.4065  0.0361
  427MOL0     C57537   6.380   8.318   0.564 -1.6172  0.9096 -0.0956
  427MOL0     C57538   6.373   8.355   0.431 -0.3114  0.3286  0.3217
  427MOL0     C57539   6.468   8.452   0.378  0.3371 -0.0382  1.1092
  427MOL0     O57540   6.464   8.479   0.243 -0.3809  0.2446  0.3387
  427MOL0     C57541   6.556   8.556   0.173 -0.0979  0.0883 -0.0706
  427MOL0     C57542   6.565   8.522   0.035  0.0656 -0.3603  0.2357
  427MOL0     C57543   6.644   8.596  -0.053  0.0034 -0.1773  0.1869
  427MOL0     C57544   6.737   8.684  -0.007 -0.2713 -1.0468  1.1026
  427MOL0     O57545   6.828   8.745  -0.081  0.7906  0.3593 -0.4210
  427MOL0     C57546   6.916   8.654  -0.148 -1.0009 -0.5364  0.3546
  427MOL0     C57547   7.005   8.739  -0.244  0.1808 -0.2267 -0.4543
  427MOL0     C57548   7.061   8.868  -0.195  1.0031 -0.4451 -0.3789
  427MOL0     C57549   7.173   8.843  -0.092  0.2562 -0.4234 -0.3791
  427MOL0     C57550   7.222   8.986  -0.047 -0.3749 -0.2644  0.0230
  427MOL0     C57551   7.327   8.966   0.064 -0.0011  0.2945  0.0750
  427MOL0     C57552   7.359   9.110   0.119 -0.5677  0.2345 -0.4409
  427MOL0     C57553   7.496   9.102   0.196  0.0024  0.7333 -1.1780
  427MOL0    Cl57554   7.509   8.989   0.350  0.2935  0.2304 -0.2338
  427MOL0     C57555   6.746   8.703   0.130  0.4889  0.9114 -0.6486
  427MOL0     C57556   6.648   8.648   0.219 -0.6963 -0.6511  0.3240
  427MOL0     O57557   6.543   8.490   0.466  0.4455 -0.7990  0.2245
  427MOL0     C57558   6.267   8.298   0.353 -0.2769 -0.4917 -0.6609
  427MOL0     C57559   6.165   8.211   0.404 -0.9209  0.1002 -0.7712
  427MOL0     N57560   5.973   7.891   1.172 -1.0622 -0.4368  0.9186
  427MOL0     N57561   5.939   7.821   1.278  0.7090 -0.1017 -0.0535
  427MOL0     C57562   4.822   7.783   1.696  0.1226  0.0072 -1.0281
  427MOL0     C57563   4.691   7.826   1.741 -0.3320  0.4834  0.4839
  427MOL0     C57564   4.251   7.914   1.680 -0.0582  0.1662 -0.3229
  427MOL0     C57565   4.230   8.046   1.645 -0.5882  0.7229  0.0101
  427MOL0     C57566   4.109   8.115   1.670 -0.6608  0.1945  0.5264
  427MOL0     C57567   3.996   8.049   1.713 -0.4204  0.3322  0.0307
  427MOL0     O57568   3.887   8.130   1.738 -0.3653 -0.1522 -0.0746
  427MOL0     C57569   3.763   8.080   1.782 -0.5012  0.2155 -0.0892
  427MOL0     C57570   3.657   8.196   1.786 -0.3499 -0.8903 -0.4286
  427MOL0     C57571   3.660   8.297   1.667 -0.0791 -0.1149  0.4215
  427MOL0     C57572   3.565   8.424   1.692 -0.2093  0.7888 -0.9891
  427MOL0     C57573   3.419   8.392   1.674 -0.1744  0.7961  0.6563
  427MOL0     C57574   3.303   8.362   1.685 -0.9915  0.4403 -0.3810
  427MOL0     C57575   4.017   7.914   1.747  0.1963 -0.3852  0.6350
  427MOL0     C57576   4.140   7.845   1.721  0.5095  0.6040  0.3674
  427MOL0     C57577   4.151   7.709   1.767  0.1033 -0.2308 -0.1044
  427MOL0     H57578   4.587   7.949   1.441 -0.8276  1.3230  2.0870
  427MOL0     H57579   4.800   7.887   1.373  0.9345  0.4307  0.1971
  427MOL0     H57580   5.028   7.780   1.355 -1.0872 -1.1580  1.7296
  427MOL0     H57581   5.021   7.952   1.404 -3.2715 -1.4144  1.3681
  427MOL0     H57582   5.238   7.897   1.524  0.6020 -1.3376  0.7615
  427MOL0     H57583   5.234   7.932   1.347  1.0506 -2.6966 -1.7920
  427MOL0     H57584   5.257   7.683   1.290  3.8550 -0.5553 -1.1567
  427MOL0     H57585   5.280   7.646   1.459  0.4215 -1.7940 -1.8205
  427MOL0     H57586   5.447   7.838   1.318  3.7385  0.6667  1.1092
  427MOL0     H57587   5.455   7.783   1.491 -0.7265  0.5401  0.2981
  427MOL0     H57588   5.494   7.556   1.431 -0.9676 -1.1868 -0.1061
  427MOL0     H57589   5.498   7.592   1.253 -3.4638  0.0877  0.7712
  427MOL0     H57590   5.677   7.755   1.286 -3.5316 -0.8159 -2.0995
  427MOL0     H57591   5.699   7.694   1.454  1.4771  2.1404 -1.3427
  427MOL0     H57592   5.727   7.523   1.216 -0.0357 -1.9213  0.4414
  427MOL0     H57593   5.729   7.459   1.380 -2.0694  2.4541  3.3294
  427MOL0     H57594   5.937   7.586   1.428  1.5306  0.2917 -0.5926
  427MOL0     H57595   5.952   7.480   1.283  0.9140  0.4494 -0.4474
  427MOL0     H57596   5.984   7.588   1.045  0.5408 -1.8083  2.2061
  427MOL0     H57597   6.151   7.911   0.945  0.8587  0.1356 -0.7233
  427MOL0     H57598   6.078   7.762   0.873  2.4456 -0.0794  2.3026
  427MOL0     H57599   5.853   7.850   0.877 -0.8238  0.1337  1.5969
  427MOL0     H57600   5.917   8.013   0.942  0.8668 -1.0114  2.0074
  427MOL0     H57601   5.852   8.000   0.701 -1.7803 -0.3956  3.1880
  427MOL0     H57602   5.977   7.876   0.666 -1.8938  0.5825 -0.2492
  427MOL0     H57603   6.141   8.036   0.768 -2.1147 -1.3291  2.8460
  427MOL0     H57604   6.007   8.155   0.751  0.2363 -0.1952 -0.2736
  427MOL0     H57605   6.299   8.207   0.722  0.2317 -0.8247 -0.0250
  427MOL0     H57606   6.464   8.352   0.623 -0.6371  0.1711 -1.0252
  427MOL0     H57607   6.500   8.443  -0.004  2.7066 -2.3942 -0.3873
  427MOL0     H57608   6.631   8.557  -0.153  0.2009  1.0075 -0.3115
  427MOL0     H57609   6.988   8.602  -0.085  0.1915 -1.1483 -1.4232
  427MOL0     H57610   6.852   8.592  -0.212 -0.8645 -0.8316  0.5046
  427MOL0     H57611   7.090   8.678  -0.276  1.0916  0.7013  0.1299
  427MOL0     H57612   6.954   8.767  -0.337  0.0359  2.0194  0.2220
  427MOL0     H57613   7.096   8.921  -0.284  0.0627 -0.5673 -0.8351
  427MOL0     H57614   6.983   8.924  -0.142 -0.5336 -3.9374  1.4293
  427MOL0     H57615   7.248   8.775  -0.135 -1.4972 -2.2651 -0.6671
  427MOL0     H57616   7.136   8.793  -0.002 -0.6793  0.6174 -0.1668
  427MOL0     H57617   7.136   9.043  -0.011 -1.6832 -3.5159  2.5123
  427MOL0     H57618   7.265   9.041  -0.131 -0.9719 -0.8684 -0.6923
  427MOL0     H57619   7.275   8.901   0.134  1.3248  1.3464  2.1593
  427MOL0     H57620   7.417   8.917   0.026  2.7997  3.3766  2.1217
  427MOL0     H57621   7.280   9.146   0.186  0.9499  0.1050  1.5019
  427MOL0     H57622   7.366   9.185   0.040 -1.5102  2.9513  1.8758
  427MOL0     H57623   7.578   9.074   0.128 -2.9309 -0.2593 -4.6539
  427MOL0     H57624   7.513   9.204   0.232 -4.0128  1.4930 -0.9946
  427MOL0     H57625   6.830   8.762   0.164 -0.1683  1.2210  0.4968
  427MOL0     H57626   6.649   8.679   0.323 -1.8656 -0.6788  0.3504
  427MOL0     H57627   6.248   8.327   0.250 -0.6870  2.5400  0.1716
  427MOL0     H57628   6.078   8.171   0.353 -2.1319  2.8751 -1.0460
  427MOL0     H57629   4.888   7.726   1.760 -3.1401 -1.0877  1.5938
  427MOL0     H57630   4.661   7.802   1.843 -2.0517  0.3588 -0.0282
  427MOL0     H57631   4.312   8.098   1.597  1.2766 -1.9476  0.0559
  427MOL0     H57632   4.094   8.219   1.643 -0.8434 -0.2049 -1.0131
  427MOL0     H57633   3.766   8.038   1.883  2.3526  4.4811  1.8990
  427MOL0     H57634   3.730   8.001   1.713 -3.1422  0.3505  0.9128
  427MOL0     H57635   3.674   8.265   1.868 -4.0569 -1.4088  0.9702
  427MOL0     H57636   3.560   8.147   1.789  0.4387 -2.4973  2.7109
  427MOL0     H57637   3.624   8.256   1.572  0.8108  1.9670 -0.9030
  427MOL0     H57638   3.761   8.337   1.653  0.0065 -0.6913 -0.7481
  427MOL0     H57639   3.572   8.459   1.796 -1.8210 -0.9793 -0.2305
  427MOL0     H57640   3.582   8.508   1.624 -2.0987  2.2558  0.2376
  427MOL0     H57641   3.200   8.332   1.691 -0.6077 -0.7649  0.6957
  427MOL0     H57642   3.941   7.859   1.801 -0.2136 -0.7506 -0.3020
  427MOL0     H57643   4.231   7.707   1.842 -0.4963  0.5062  0.5739
  427MOL0     H57644   4.062   7.673   1.820  1.1397 -2.2600  0.3351
  427MOL0     H57645   4.185   7.648   1.683  4.2347  0.1177  1.0843
  428MOL0     O57646   0.600   2.362   2.259 -0.5328 -0.4025 -0.3349
  428MOL0     C57647   0.618   2.400   2.375  0.5978  0.3528  0.0339
  428MOL0     O57648   0.721   2.347   2.461 -0.3591  1.0193  0.1641
  428MOL0     C57649   0.810   2.258   2.419 -0.1811 -0.0766  0.3176
  428MOL0     C57650   0.866   2.242   2.288  0.3706 -0.0148 -0.8798
  428MOL0     C57651   0.939   2.129   2.266  0.6150 -0.5017  0.8666
  428MOL0     C57652   0.973   2.042   2.368 -0.3405  0.8756  0.2116
  428MOL0     O57653   1.040   1.925   2.354  0.2188 -0.7637  0.2276
  428MOL0     C57654   1.155   1.924   2.267  0.1212  1.0808 -0.7469
  428MOL0     C57655   1.132   1.824   2.153 -0.1720  0.5676 -0.3505
  428MOL0     C57656   1.029   1.863   2.044  0.4077  0.3343 -0.3476
  428MOL0     C57657   1.048   1.763   1.926  0.5118 -0.8111  0.9639
  428MOL0     C57658   1.157   1.805   1.831  0.9191  0.0929  0.4115
  428MOL0     C57659   1.186   1.700   1.713 -0.3803 -0.2126 -0.8890
  428MOL0     C57660   1.296   1.736   1.614  0.0780 -0.4683  0.0965
  428MOL0     C57661   1.355   1.608   1.546  0.2250 -0.1746  0.3416
  428MOL0     N57662   1.259   1.520   1.473 -0.3439 -0.3436 -0.5025
  428MOL0     C57663   1.208   1.402   1.528  1.1627  0.1311  0.1618
  428MOL0     C57664   1.113   1.367   1.441  0.3761  0.7872 -0.0086
  428MOL0     C57665   1.015   1.247   1.463  0.6697 -0.2332 -0.1230
  428MOL0     C57666   0.890   1.265   1.375 -0.0442  0.0580 -0.4191
  428MOL0     C57667   0.786   1.153   1.403  0.0779  0.0498  0.7073
  428MOL0     C57668   0.651   1.193   1.341  0.1613  0.0561 -1.0078
  428MOL0     O57669   0.564   1.081   1.376  0.4121  0.8734  0.1776
  428MOL0     C57670   0.433   1.087   1.340 -0.4478 -0.2654 -0.2552
  428MOL0     C57671   0.372   1.179   1.250 -0.3683 -0.3084  0.2917
  428MOL0     C57672   0.243   1.151   1.209  0.0604 -0.2769 -0.2892
  428MOL0     C57673   0.165   1.042   1.262 -0.0714 -0.5057  0.2117
  428MOL0     C57674   0.033   1.020   1.218 -0.3031  0.0771 -0.4801
  428MOL0     O57675  -0.024   1.112   1.144  0.0022  0.4282 -0.3187
  428MOL0     C57676  -0.162   1.098   1.130 -0.2530  0.1298  0.3236
  428MOL0     C57677  -0.230   1.002   1.049  0.3422  0.3617 -0.7934
  428MOL0     C57678  -0.366   1.012   1.032  0.6085 -0.8849  0.3210
  428MOL0     C57679  -0.442   1.098   1.113 -0.4065  0.5762 -0.0886
  428MOL0     O57680  -0.577   1.090   1.097  0.2464 -0.4474 -0.3377
  428MOL0     C57681  -0.663   1.165   1.181 -0.8333 -0.4700  0.2019
  428MOL0     C57682  -0.801   1.105   1.169 -0.0106 -0.2374  0.4783
  428MOL0     C57683  -0.797   0.958   1.215  1.2235  0.1493 -0.9227
  428MOL0     C57684  -0.942   0.891   1.191 -0.4005 -0.0705 -0.1743
  428MOL0     C57685  -0.972   0.773   1.277 -0.0642  0.5572  0.0071
  428MOL0     C57686  -0.902   0.642   1.241  0.4680  0.6905 -0.6459
  428MOL0     C57687  -0.916   0.592   1.093 -0.3934 -0.0427  0.5437
  428MOL0     C57688  -0.888   0.445   1.071  0.6466  0.3646  0.1364
  428MOL0    Cl57689  -0.716   0.399   1.085 -0.4808 -0.0606 -0.0669
  428MOL0     C57690  -0.373   1.187   1.200  0.5972  0.3458  0.0391
  428MOL0     C57691  -0.232   1.187   1.205 -0.3940 -1.4043 -1.2209
  428MOL0     O57692  -0.021   0.909   1.248 -0.8186  0.8170  0.0697
  428MOL0     C57693   0.231   0.952   1.357  0.1797 -0.5971  0.9410
  428MOL0     C57694   0.360   0.982   1.385 -0.4694  0.3112 -1.3366
  428MOL0     N57695   1.100   1.464   1.342  0.5051  0.5051  0.2666
  428MOL0     N57696   1.199   1.548   1.352 -0.3228  0.3474  0.3128
  428MOL0     C57697   0.934   2.061   2.499 -0.8253  0.7109  0.1626
  428MOL0     C57698   0.855   2.171   2.521 -0.4832 -0.6445 -0.3872
  428MOL0     C57699   0.518   2.501   2.425 -0.2184  0.1238  0.6992
  428MOL0     C57700   0.404   2.536   2.352  0.0194  0.3110  0.9007
  428MOL0     C57701   0.313   2.626   2.398  0.0652  0.8678 -0.1155
  428MOL0     C57702   0.326   2.693   2.521 -0.1347  1.1124  0.0762
  428MOL0     O57703   0.244   2.790   2.568  0.2187 -0.2357 -0.8097
  428MOL0     C57704   0.144   2.849   2.489  0.6472 -0.5069 -0.0011
  428MOL0     C57705   0.064   2.935   2.592 -0.3497 -0.2858  0.6855
  428MOL0     C57706   0.139   3.073   2.615  1.1113  0.8108 -0.0969
  428MOL0     C57707   0.127   3.164   2.501 -0.9488  0.1277  0.5981
  428MOL0     C57708  -0.016   3.188   2.476  0.6776 -0.1887 -0.3781
  428MOL0     C57709  -0.129   3.222   2.458 -0.1049 -0.9881 -0.5034
  428MOL0     C57710   0.433   2.655   2.600 -0.9075  0.2039 -0.2397
  428MOL0     C57711   0.528   2.554   2.558  0.3880 -0.6828  0.4312
  428MOL0     C57712   0.636   2.526   2.662 -0.1393  0.8551 -0.2268
  428MOL0     H57713   0.835   2.306   2.206  1.6729  0.3710 -1.0964
  428MOL0     H57714   0.959   2.104   2.162  0.6544 -1.8266  1.1770
  428MOL0     H57715   1.175   2.021   2.220  3.0612  0.3854 -1.1570
  428MOL0     H57716   1.242   1.903   2.331 -0.4456  2.7393  0.6482
  428MOL0     H57717   1.106   1.728   2.199  1.9227  0.6570  1.1611
  428MOL0     H57718   1.234   1.813   2.115  0.6901  2.6592  1.1542
  428MOL0     H57719   1.060   1.959   2.003  1.0461  0.6613  0.8564
  428MOL0     H57720   0.930   1.869   2.089 -0.0955  0.0109 -1.3919
  428MOL0     H57721   1.056   1.660   1.962 -1.6278 -0.0572  4.0381
  428MOL0     H57722   0.958   1.763   1.863  2.0754  0.1445 -1.3890
  428MOL0     H57723   1.131   1.895   1.775 -0.5075  0.0203  0.9134
  428MOL0     H57724   1.254   1.823   1.878  0.5779  2.8619  0.2095
  428MOL0     H57725   1.211   1.607   1.766  1.1322  1.3263  1.2618
  428MOL0     H57726   1.096   1.686   1.653 -2.5570 -1.0470  2.3249
  428MOL0     H57727   1.382   1.780   1.666 -1.0998  0.5294  1.2580
  428MOL0     H57728   1.256   1.818   1.554 -1.2984 -0.8305  0.4842
  428MOL0     H57729   1.433   1.631   1.472 -1.5882  1.9088 -1.0250
  428MOL0     H57730   1.411   1.555   1.624  1.4666 -0.1347 -0.4840
  428MOL0     H57731   1.234   1.346   1.617 -1.0356 -1.8952 -0.3643
  428MOL0     H57732   1.076   1.166   1.422  0.4763 -0.5520  0.2126
  428MOL0     H57733   0.999   1.243   1.572  1.6577  1.5599  0.1287
  428MOL0     H57734   0.845   1.359   1.408  0.1188 -0.0097  0.0097
  428MOL0     H57735   0.906   1.270   1.267  0.2297  3.7307 -0.3575
  428MOL0     H57736   0.779   1.155   1.512 -4.6678  2.4616  0.6235
  428MOL0     H57737   0.806   1.054   1.361 -2.0184 -0.7604  1.4664
  428MOL0     H57738   0.664   1.218   1.235  1.4027  1.3275 -0.5900
  428MOL0     H57739   0.612   1.280   1.394 -1.0928  0.4240 -2.4686
  428MOL0     H57740   0.431   1.260   1.209 -0.4344 -0.6165 -0.4214
  428MOL0     H57741   0.206   1.220   1.134 -0.8714  1.5912  1.7812
  428MOL0     H57742  -0.155   0.946   0.995  1.5228  0.1897  0.9291
  428MOL0     H57743  -0.420   0.944   0.968  0.2410  3.0394 -4.1256
  428MOL0     H57744  -0.637   1.147   1.285 -0.3443  2.9449  0.8001
  428MOL0     H57745  -0.645   1.272   1.165  2.5904 -0.6751  1.8566
  428MOL0     H57746  -0.878   1.160   1.224 -0.1249  0.8630 -0.7419
  428MOL0     H57747  -0.830   1.103   1.064  3.6843  2.2143 -0.7867
  428MOL0     H57748  -0.729   0.895   1.157 -0.1935 -3.8179  1.3410
  428MOL0     H57749  -0.764   0.953   1.319  2.9805 -1.9294 -1.5159
  428MOL0     H57750  -0.959   0.873   1.085  0.1204 -1.4340 -0.0376
  428MOL0     H57751  -1.016   0.968   1.217  0.8086  1.5446 -1.3047
  428MOL0     H57752  -1.081   0.766   1.268 -0.2011 -2.1811  2.3565
  428MOL0     H57753  -0.948   0.796   1.382 -1.8864  3.5644 -0.1075
  428MOL0     H57754  -0.799   0.672   1.261  0.2511  0.7260  0.4995
  428MOL0     H57755  -0.932   0.564   1.311 -1.6518  0.2930 -1.9253
  428MOL0     H57756  -0.847   0.646   1.028 -1.2864  2.8533  1.8236
  428MOL0     H57757  -1.013   0.617   1.048  0.2426 -1.8934 -2.1248
  428MOL0     H57758  -0.955   0.387   1.134  0.5045 -0.7688 -1.0177
  428MOL0     H57759  -0.930   0.420   0.973 -3.1448 -1.9324  2.1270
  428MOL0     H57760  -0.426   1.266   1.252 -2.1616 -2.2714  1.5192
  428MOL0     H57761  -0.173   1.253   1.269  0.7033 -3.4572 -0.0191
  428MOL0     H57762   0.169   0.889   1.420  1.5796 -0.0112  3.0122
  428MOL0     H57763   0.422   0.922   1.450  1.0420  0.3886 -2.6696
  428MOL0     H57764   0.965   1.988   2.574 -2.3230 -0.2449 -0.0891
  428MOL0     H57765   0.821   2.185   2.623  2.3276 -0.5988  0.6257
  428MOL0     H57766   0.368   2.485   2.263  1.3018  1.6716 -0.4687
  428MOL0     H57767   0.223   2.645   2.341  0.2169 -0.9851 -1.0884
  428MOL0     H57768   0.067   2.782   2.450 -1.2526  2.6093 -2.0742
  428MOL0     H57769   0.192   2.885   2.398  3.1926 -1.5234  0.8644
  428MOL0     H57770   0.052   2.877   2.684  1.2262 -3.2400 -0.8106
  428MOL0     H57771  -0.033   2.953   2.545 -0.1428 -2.4565 -0.7100
  428MOL0     H57772   0.245   3.052   2.636  1.0976  1.3370  0.5365
  428MOL0     H57773   0.105   3.111   2.712  1.0602  1.1866 -0.2647
  428MOL0     H57774   0.172   3.261   2.526  1.3431 -0.8125  0.3186
  428MOL0     H57775   0.180   3.125   2.414  3.3977  3.3257  1.4587
  428MOL0     H57776  -0.232   3.251   2.466  0.5855  1.6046  0.0701
  428MOL0     H57777   0.448   2.708   2.693  1.4260  0.2197 -0.5810
  428MOL0     H57778   0.725   2.578   2.627  0.1124  2.1875  2.1820
  428MOL0     H57779   0.614   2.571   2.759  0.8414  1.4491 -0.2625
  428MOL0     H57780   0.658   2.420   2.680  4.1669  1.2051 -2.2235
  429MOL0     O57781   1.260   7.732   6.466 -0.1544  0.8465  0.1142
  429MOL0     C57782   1.205   7.620   6.460 -0.1355  0.4499  0.3177
  429MOL0     O57783   1.267   7.498   6.447  0.4519 -0.0458 -0.3443
  429MOL0     C57784   1.399   7.489   6.397  0.4074  0.0022  1.1457
  429MOL0     C57785   1.442   7.531   6.268 -0.2006  0.1096 -1.3339
  429MOL0     C57786   1.574   7.518   6.230  0.1465 -0.0439  0.0795
  429MOL0     C57787   1.674   7.453   6.312  0.1622  0.3092 -0.8900
  429MOL0     O57788   1.811   7.440   6.279 -0.6175  0.6919  0.0801
  429MOL0     C57789   1.858   7.312   6.267 -0.5073  0.1775 -0.1177
  429MOL0     C57790   1.994   7.294   6.209 -0.1400  0.5340  0.1800
  429MOL0     C57791   1.991   7.342   6.066 -0.2484 -0.6247  0.7519
  429MOL0     C57792   2.104   7.293   5.974  0.3335 -0.4722  1.0703
  429MOL0     C57793   2.063   7.336   5.827 -0.9011 -0.3360  0.9252
  429MOL0     C57794   2.182   7.344   5.731 -0.1663  0.3086 -0.1612
  429MOL0     C57795   2.136   7.384   5.587 -0.1066 -1.1517 -0.0198
  429MOL0     C57796   2.082   7.524   5.573 -0.2721 -0.0537  0.7203
  429MOL0     N57797   2.166   7.625   5.637 -0.0235 -0.6200  0.4026
  429MOL0     C57798   2.290   7.671   5.595  0.6404 -0.6872  0.1937
  429MOL0     C57799   2.331   7.763   5.694 -0.1311  0.4706  0.0718
  429MOL0     C57800   2.463   7.836   5.693 -0.7488 -1.0225 -0.0721
  429MOL0     C57801   2.422   7.989   5.708 -0.4633 -0.5993  0.4361
  429MOL0     C57802   2.550   8.069   5.764  0.2068 -1.1332 -1.1935
  429MOL0     C57803   2.565   8.036   5.916  0.4729 -0.4795  0.0290
  429MOL0     O57804   2.621   8.152   5.980 -0.3506  0.3595 -0.9527
  429MOL0     C57805   2.760   8.168   5.992  0.7232  0.3642  0.2563
  429MOL0     C57806   2.800   8.288   6.051 -0.3818  0.9379 -0.4563
  429MOL0     C57807   2.926   8.330   6.049 -0.1904  0.1425  0.9451
  429MOL0     C57808   3.031   8.251   5.989  0.3648 -0.3217 -0.6748
  429MOL0     C57809   3.166   8.290   5.997 -0.6785  0.4031  0.3404
  429MOL0     O57810   3.202   8.361   6.110 -0.7379 -0.0809 -0.3282
  429MOL0     C57811   3.332   8.413   6.107  0.2118 -0.4296  0.3560
  429MOL0     C57812   3.381   8.447   6.234 -0.0620  0.0756  0.2983
  429MOL0     C57813   3.515   8.496   6.258  0.3210 -1.5979  0.3291
  429MOL0     C57814   3.585   8.537   6.148 -0.3310  0.3002 -0.0096
  429MOL0     O57815   3.712   8.590   6.154  0.4906  0.3164  0.4167
  429MOL0     C57816   3.776   8.613   6.284 -0.5603 -0.2936  0.0288
  429MOL0     C57817   3.918   8.675   6.263 -0.4644  0.0033  0.1350
  429MOL0     C57818   3.991   8.602   6.147 -0.5218 -0.1963 -0.7481
  429MOL0     C57819   4.143   8.605   6.157  0.1789 -0.2389 -0.6277
  429MOL0     C57820   4.225   8.568   6.038  0.0153  1.1081 -1.1327
  429MOL0     C57821   4.379   8.599   6.065  0.8550 -0.0459  0.0385
  429MOL0     C57822   4.428   8.532   6.187  0.0212  1.3992  0.0165
  429MOL0     C57823   4.572   8.478   6.166 -0.2113 -0.2651 -0.4738
  429MOL0    Cl57824   4.663   8.599   6.081  0.7507  0.3793 -0.1909
  429MOL0     C57825   3.530   8.506   6.021 -1.0461  0.8489  0.1584
  429MOL0     C57826   3.411   8.440   5.999  0.2367  0.2306 -0.0646
  429MOL0     O57827   3.244   8.232   5.927  0.3187  0.6346 -0.1562
  429MOL0     C57828   2.997   8.126   5.940  0.3454 -0.2094  0.2565
  429MOL0     C57829   2.863   8.084   5.938  0.2430 -0.5305 -0.3929
  429MOL0     N57830   2.230   7.763   5.791  0.2200  0.0865 -0.5133
  429MOL0     N57831   2.137   7.679   5.761  0.3260 -0.3090 -0.5058
  429MOL0     C57832   1.631   7.422   6.438  0.1628  0.0341  0.2340
  429MOL0     C57833   1.494   7.438   6.482 -0.8502  0.4307 -0.7553
  429MOL0     C57834   1.057   7.614   6.463  0.1216  0.3264  1.4740
  429MOL0     C57835   0.998   7.488   6.452 -0.2312  0.9116  0.4202
  429MOL0     C57836   0.862   7.467   6.450 -0.5501 -0.5807 -1.1644
  429MOL0     C57837   0.772   7.570   6.456  0.5254 -0.0270  0.1056
  429MOL0     O57838   0.640   7.535   6.471 -0.2635  0.5284 -0.7567
  429MOL0     C57839   0.528   7.625   6.465 -0.7766  0.1646 -0.1880
  429MOL0     C57840   0.417   7.579   6.549  0.2037  0.2966  0.1083
  429MOL0     C57841   0.444   7.523   6.687 -0.8858 -0.6435  0.1099
  429MOL0     C57842   0.532   7.611   6.782  0.4753 -0.5304  0.6119
  429MOL0     C57843   0.552   7.539   6.901 -0.4442 -0.3782  0.1532
  429MOL0     C57844   0.580   7.487   7.011  0.7384  0.0742  0.3090
  429MOL0     C57845   0.829   7.703   6.454 -0.7759  0.0367 -0.3482
  429MOL0     C57846   0.968   7.720   6.455 -0.4085 -0.4205 -0.1577
  429MOL0     C57847   1.019   7.867   6.454  0.7831 -0.9291 -0.3421
  429MOL0     H57848   1.374   7.567   6.191 -0.1649  0.0622 -1.3876
  429MOL0     H57849   1.607   7.547   6.131 -1.5745  3.4067  0.3616
  429MOL0     H57850   1.870   7.267   6.366 -0.0498  0.9459  0.1904
  429MOL0     H57851   1.778   7.247   6.231  2.0262 -4.0652  1.2521
  429MOL0     H57852   2.024   7.189   6.215 -1.4008  0.2317  2.4827
  429MOL0     H57853   2.067   7.356   6.261 -0.9169  2.6132 -1.0844
  429MOL0     H57854   1.978   7.450   6.066 -0.0190 -0.5962  0.9836
  429MOL0     H57855   1.895   7.309   6.024  0.2718  0.0018 -1.0064
  429MOL0     H57856   2.199   7.338   6.005 -0.8074  2.1602  1.0066
  429MOL0     H57857   2.120   7.185   5.973  3.6411 -0.1156  2.2164
  429MOL0     H57858   1.978   7.280   5.786 -3.7173  1.9978  3.0991
  429MOL0     H57859   2.027   7.439   5.831  2.9150  1.1465  0.6799
  429MOL0     H57860   2.245   7.421   5.776 -1.0474 -0.4590  2.5894
  429MOL0     H57861   2.230   7.247   5.719  0.9629  0.9683 -1.2911
  429MOL0     H57862   2.060   7.324   5.535 -3.4735  2.4150  0.2984
  429MOL0     H57863   2.228   7.379   5.528  0.2860  2.7361  0.0388
  429MOL0     H57864   2.078   7.548   5.466  2.4934  4.2553  1.3602
  429MOL0     H57865   1.980   7.521   5.611 -0.2700 -3.0294  0.7100
  429MOL0     H57866   2.327   7.646   5.496 -3.3926  1.9082 -2.2429
  429MOL0     H57867   2.530   7.813   5.776 -0.4712  0.4985  0.1635
  429MOL0     H57868   2.521   7.810   5.604 -1.7646 -2.2731 -0.3960
  429MOL0     H57869   2.390   8.011   5.606  2.6709 -0.1494 -0.5817
  429MOL0     H57870   2.338   8.005   5.776  1.2435 -3.5403  3.5615
  429MOL0     H57871   2.538   8.173   5.734 -0.9021 -0.8314  0.2341
  429MOL0     H57872   2.642   8.046   5.708  0.1728 -0.6767 -1.4379
  429MOL0     H57873   2.631   7.951   5.939  0.3133 -0.2891  1.2382
  429MOL0     H57874   2.465   8.023   5.960  2.3094  1.5814  5.6098
  429MOL0     H57875   2.726   8.342   6.109 -0.5821 -0.0335  0.2114
  429MOL0     H57876   2.944   8.420   6.106 -1.4112  0.3553  1.0336
  429MOL0     H57877   3.312   8.417   6.312 -0.1922  0.4736  0.3392
  429MOL0     H57878   3.555   8.500   6.359 -1.9571  1.1250  1.2681
  429MOL0     H57879   3.713   8.678   6.346 -0.7204 -0.7145  0.3066
  429MOL0     H57880   3.793   8.522   6.342  2.2441 -0.0687 -0.3010
  429MOL0     H57881   3.922   8.784   6.248 -3.6235  0.4527  1.7525
  429MOL0     H57882   3.979   8.652   6.351 -4.7487 -2.3869  2.7870
  429MOL0     H57883   3.957   8.498   6.141  0.4032 -0.6474  1.1560
  429MOL0     H57884   3.964   8.646   6.050  1.1399 -0.0217 -1.1580
  429MOL0     H57885   4.175   8.533   6.233  3.4722  1.1861 -0.4829
  429MOL0     H57886   4.177   8.704   6.190  0.9718 -1.5388  2.9383
  429MOL0     H57887   4.189   8.620   5.949  0.3519  0.0730 -1.9070
  429MOL0     H57888   4.203   8.461   6.030 -2.3615  1.2357  1.9829
  429MOL0     H57889   4.434   8.563   5.977 -1.5601 -2.4360 -0.6389
  429MOL0     H57890   4.376   8.707   6.077 -1.1099  0.5782 -4.1794
  429MOL0     H57891   4.371   8.440   6.201  0.0587  0.4876 -4.3869
  429MOL0     H57892   4.420   8.594   6.276  0.6165 -1.7393  2.4540
  429MOL0     H57893   4.618   8.458   6.263  0.7592  0.6347 -0.7325
  429MOL0     H57894   4.569   8.391   6.101 -0.7337  0.3975 -1.3547
  429MOL0     H57895   3.590   8.530   5.934 -0.5909  1.1129  0.5433
  429MOL0     H57896   3.374   8.425   5.898 -3.2064 -0.5310  1.1650
  429MOL0     H57897   3.067   8.051   5.905 -1.5749 -2.3917  0.8373
  429MOL0     H57898   2.849   7.990   5.886 -0.9207 -0.0066 -1.0633
  429MOL0     H57899   1.696   7.382   6.515 -2.0593 -1.1705  1.6064
  429MOL0     H57900   1.488   7.419   6.588  1.9779 -1.3613 -0.8011
  429MOL0     H57901   1.059   7.398   6.442 -0.6941  0.7150 -0.7996
  429MOL0     H57902   0.821   7.370   6.421 -1.1604 -0.0280 -2.2289
  429MOL0     H57903   0.503   7.631   6.359 -0.7548 -1.1382 -0.2811
  429MOL0     H57904   0.555   7.727   6.493  2.2023 -0.3001 -0.9800
  429MOL0     H57905   0.358   7.507   6.491 -0.1496  2.0125 -1.7818
  429MOL0     H57906   0.362   7.672   6.562 -1.8056 -0.2329 -3.3763
  429MOL0     H57907   0.486   7.425   6.661 -0.6432  0.2000 -3.2239
  429MOL0     H57908   0.350   7.499   6.737 -1.4600  0.1846 -0.5480
  429MOL0     H57909   0.632   7.624   6.740  0.4483  1.4322  1.0570
  429MOL0     H57910   0.482   7.706   6.803  1.5853  0.7961 -2.2453
  429MOL0     H57911   0.603   7.452   7.110  2.5714  0.0671 -0.0861
  429MOL0     H57912   0.764   7.788   6.472 -0.9355 -0.3508  1.0114
  429MOL0     H57913   1.016   7.904   6.557  0.0805  0.9665 -0.9918
  429MOL0     H57914   1.118   7.894   6.415  0.8606  3.0130  2.0456
  429MOL0     H57915   0.953   7.934   6.399 -0.5292 -0.4423  1.7192
  430MOL0     O57916   2.216   3.630   2.688  0.8191 -0.0809  0.8338
  430MOL0     C57917   2.226   3.529   2.616 -0.7572 -0.0159  0.4330
  430MOL0     O57918   2.345   3.476   2.581 -0.2565  0.5631 -0.6807
  430MOL0     C57919   2.462   3.538   2.616 -0.2739  0.2063  0.1993
  430MOL0     C57920   2.536   3.511   2.736  0.1797 -0.2455 -0.6046
  430MOL0     C57921   2.660   3.559   2.750 -0.1562 -0.0891 -0.2349
  430MOL0     C57922   2.712   3.652   2.659 -0.4097  0.0961 -0.5999
  430MOL0     O57923   2.819   3.728   2.678  0.4382 -0.2425  0.4179
  430MOL0     C57924   2.925   3.669   2.761  0.4169  0.1652 -0.4999
  430MOL0     C57925   3.047   3.767   2.759 -0.1623  0.3704  0.4301
  430MOL0     C57926   3.153   3.715   2.857 -0.1222 -1.1888  0.6640
  430MOL0     C57927   3.224   3.835   2.930  0.1867  0.1467 -0.1999
  430MOL0     C57928   3.333   3.784   3.023 -0.5115  0.0260 -1.0400
  430MOL0     C57929   3.445   3.726   2.938  0.6027  0.0536  0.1422
  430MOL0     C57930   3.572   3.710   3.029  0.4238 -0.0475  0.8628
  430MOL0     C57931   3.682   3.639   2.944  0.0704  0.6191 -0.0492
  430MOL0     N57932   3.805   3.615   3.030 -0.7144  0.3057  0.2324
  430MOL0     C57933   3.907   3.708   3.044 -0.0694  0.2612 -0.8323
  430MOL0     C57934   4.006   3.632   3.104  0.7645 -0.7023 -0.4171
  430MOL0     C57935   4.142   3.679   3.137 -0.0546 -0.2955  1.0182
  430MOL0     C57936   4.151   3.706   3.286  0.0591 -0.7044  0.6849
  430MOL0     C57937   4.291   3.761   3.326 -0.0218 -0.3919  0.3470
  430MOL0     C57938   4.303   3.797   3.475  1.0023 -0.1997 -0.4583
  430MOL0     O57939   4.307   3.670   3.540 -0.4493 -0.4518  0.4656
  430MOL0     C57940   4.419   3.619   3.592 -0.1607 -0.6121 -0.1096
  430MOL0     C57941   4.460   3.489   3.567 -0.2066  0.1339  0.3458
  430MOL0     C57942   4.572   3.432   3.631  0.2358 -0.5579  0.2622
  430MOL0     C57943   4.654   3.522   3.709  0.4932  0.7035 -0.0739
  430MOL0     C57944   4.773   3.470   3.763 -0.2195 -0.6384 -0.0108
  430MOL0     O57945   4.818   3.526   3.877 -0.1618  0.2508  0.5220
  430MOL0     C57946   4.907   3.439   3.940  0.9290  0.0650  0.7067
  430MOL0     C57947   4.856   3.353   4.029 -0.4188 -0.1882  0.0171
  430MOL0     C57948   4.944   3.273   4.103 -0.2722 -0.8692  0.1410
  430MOL0     C57949   5.085   3.276   4.076  0.6358  0.2931 -0.1323
  430MOL0     O57950   5.183   3.186   4.127  0.6567 -0.3644  0.2751
  430MOL0     C57951   5.139   3.079   4.212  0.3300  0.1595  0.2350
  430MOL0     C57952   5.256   2.991   4.243 -0.6852 -0.6899 -0.6851
  430MOL0     C57953   5.362   3.068   4.335  0.7287 -0.0515  0.1418
  430MOL0     C57954   5.484   2.978   4.371  0.9965  0.4324  0.6596
  430MOL0     C57955   5.572   3.058   4.465 -0.2823  0.8265 -1.1870
  430MOL0     C57956   5.715   3.004   4.475 -0.0947 -0.6407 -0.4028
  430MOL0     C57957   5.784   3.075   4.592 -0.0176  0.7009 -0.7928
  430MOL0     C57958   5.925   3.019   4.609  1.3445 -0.4969  0.2472
  430MOL0    Cl57959   6.004   3.118   4.738 -0.2715  0.0670  0.4876
  430MOL0     C57960   5.128   3.371   3.982 -0.6342 -0.5183 -0.2499
  430MOL0     C57961   5.034   3.453   3.919 -0.6032 -0.2537 -0.7505
  430MOL0     O57962   4.831   3.390   3.695  0.0336 -0.2181  0.0878
  430MOL0     C57963   4.610   3.649   3.741 -0.5168 -0.3967 -0.1477
  430MOL0     C57964   4.490   3.697   3.686 -0.5203 -1.0243  0.0452
  430MOL0     N57965   3.959   3.512   3.136 -0.1237  0.4893  0.4333
  430MOL0     N57966   3.841   3.497   3.090 -0.2766  0.2423  0.0149
  430MOL0     C57967   2.633   3.688   2.545  0.7850 -1.0361  0.3843
  430MOL0     C57968   2.506   3.629   2.527 -0.0030 -0.5091 -0.4594
  430MOL0     C57969   2.105   3.458   2.568 -1.0853  0.2110 -0.2165
  430MOL0     C57970   2.052   3.374   2.669  0.3089 -0.1334  0.6563
  430MOL0     C57971   1.932   3.301   2.638 -0.0766  0.0589 -0.4682
  430MOL0     C57972   1.875   3.307   2.511  0.1256  0.1027  0.2838
  430MOL0     O57973   1.763   3.241   2.510 -0.7313 -0.1119  0.2565
  430MOL0     C57974   1.727   3.196   2.383  0.0837 -0.1789  0.3360
  430MOL0     C57975   1.624   3.082   2.391 -0.2348  0.2800 -0.7843
  430MOL0     C57976   1.666   2.955   2.467  1.5029 -0.4588 -0.1238
  430MOL0     C57977   1.816   2.922   2.447  1.0121 -0.0819 -0.9425
  430MOL0     C57978   1.849   2.869   2.312  0.0949 -0.1905  0.1969
  430MOL0     C57979   1.866   2.815   2.202 -0.0066  0.3268 -0.0326
  430MOL0     C57980   1.934   3.385   2.407  0.8945 -0.0502  0.9479
  430MOL0     C57981   2.061   3.458   2.435 -0.1777  0.8366  0.1831
  430MOL0     C57982   2.116   3.537   2.319 -0.2069 -0.6359  0.1688
  430MOL0     H57983   2.494   3.440   2.807  1.0545  0.5168  0.7266
  430MOL0     H57984   2.714   3.525   2.838 -1.3047 -1.4987 -0.0356
  430MOL0     H57985   2.900   3.662   2.867 -0.8003 -0.6506 -0.8280
  430MOL0     H57986   2.959   3.571   2.725  0.7620  0.6165 -1.4596
  430MOL0     H57987   3.019   3.867   2.791  1.7213  1.2480 -0.5213
  430MOL0     H57988   3.097   3.767   2.662 -0.9910 -0.8644 -0.0376
  430MOL0     H57989   3.236   3.673   2.800 -1.6614 -0.0859 -2.6454
  430MOL0     H57990   3.114   3.631   2.914 -1.8404 -0.2979  0.8637
  430MOL0     H57991   3.272   3.901   2.858  0.2903  0.5786  0.2637
  430MOL0     H57992   3.152   3.897   2.984  0.1410 -0.4579  0.4493
  430MOL0     H57993   3.357   3.881   3.067 -2.7258  1.0525 -1.9629
  430MOL0     H57994   3.298   3.719   3.104 -1.7098  4.4316  2.3779
  430MOL0     H57995   3.417   3.634   2.887 -1.6717  0.7871 -0.0391
  430MOL0     H57996   3.465   3.795   2.856 -0.2490  0.8079  0.5503
  430MOL0     H57997   3.541   3.652   3.117  0.7914 -3.0941 -0.8703
  430MOL0     H57998   3.614   3.801   3.072  1.6717  0.5992 -1.5141
  430MOL0     H57999   3.636   3.544   2.917  0.5910  0.3141  0.1222
  430MOL0     H58000   3.712   3.690   2.852 -0.3286  3.7796  1.4462
  430MOL0     H58001   3.920   3.803   2.994  2.9305 -0.9875 -2.7424
  430MOL0     H58002   4.216   3.605   3.106  1.8984  1.9816 -0.0994
  430MOL0     H58003   4.160   3.761   3.067  0.0005 -0.9687  0.2185
  430MOL0     H58004   4.074   3.772   3.326  0.2805 -0.7411  1.1777
  430MOL0     H58005   4.140   3.612   3.341  1.2217 -1.5645 -0.5019
  430MOL0     H58006   4.310   3.845   3.258  0.7048  1.3166  2.5381
  430MOL0     H58007   4.365   3.688   3.292 -2.1811 -1.5821 -2.1735
  430MOL0     H58008   4.220   3.860   3.509  0.2890 -2.1783  1.8223
  430MOL0     H58009   4.394   3.852   3.500  0.6789  1.4414 -2.6360
  430MOL0     H58010   4.399   3.429   3.499 -0.0834  0.7967 -0.3647
  430MOL0     H58011   4.605   3.331   3.613 -1.7347 -0.9625 -1.5926
  430MOL0     H58012   4.751   3.333   4.045 -0.0214 -0.9773  1.9779
  430MOL0     H58013   4.901   3.201   4.172 -0.8317  0.1321  0.8622
  430MOL0     H58014   5.096   3.115   4.305  2.1822 -0.7229  1.4949
  430MOL0     H58015   5.071   3.022   4.147  1.2965  1.4204 -2.0222
  430MOL0     H58016   5.215   2.897   4.282 -0.5104 -0.2116  0.7197
  430MOL0     H58017   5.324   2.959   4.163  2.7927  0.7449  1.4720
  430MOL0     H58018   5.403   3.153   4.280  3.7774  0.2199  2.6034
  430MOL0     H58019   5.313   3.108   4.425  0.1100  1.1306 -0.6927
  430MOL0     H58020   5.543   2.953   4.282 -0.0416  3.7232 -1.1349
  430MOL0     H58021   5.438   2.891   4.418 -0.5725  0.4083 -0.8383
  430MOL0     H58022   5.514   3.064   4.557  1.0574  1.1702 -0.3455
  430MOL0     H58023   5.585   3.161   4.432  1.5603  0.5425 -1.4888
  430MOL0     H58024   5.714   2.895   4.488 -0.0945 -0.8547 -2.0632
  430MOL0     H58025   5.762   3.025   4.379 -0.8285  1.9795 -0.2494
  430MOL0     H58026   5.722   3.076   4.683  0.1240  1.6188 -0.6944
  430MOL0     H58027   5.789   3.180   4.563  3.2367  0.0541 -3.0117
  430MOL0     H58028   5.933   2.914   4.638  1.5718 -1.2198 -2.2349
  430MOL0     H58029   5.984   3.044   4.520  1.7514  4.0835  1.5189
  430MOL0     H58030   5.231   3.383   3.950 -0.7992  1.1869 -0.1924
  430MOL0     H58031   5.066   3.533   3.854  2.2787 -0.5009  0.2104
  430MOL0     H58032   4.660   3.708   3.817  2.6902 -3.2755  0.2172
  430MOL0     H58033   4.437   3.783   3.726  1.1053  0.8487 -1.6155
  430MOL0     H58034   2.680   3.752   2.471 -0.3900 -0.6101 -0.0168
  430MOL0     H58035   2.434   3.657   2.450 -1.9481  0.6997  1.6829
  430MOL0     H58036   2.106   3.373   2.763  2.0786 -2.2600 -0.2735
  430MOL0     H58037   1.885   3.225   2.700  0.3415 -0.4451 -0.7547
  430MOL0     H58038   1.814   3.165   2.325  0.8666 -0.9408  1.8334
  430MOL0     H58039   1.685   3.281   2.329  4.2861  4.1917  3.1391
  430MOL0     H58040   1.600   3.041   2.293 -0.9271 -1.9092  0.2250
  430MOL0     H58041   1.535   3.134   2.428  1.1988  1.4115  1.2715
  430MOL0     H58042   1.599   2.880   2.424  0.7525 -0.1387  0.4725
  430MOL0     H58043   1.633   2.962   2.571 -0.5613  0.2724 -0.7860
  430MOL0     H58044   1.878   3.012   2.459 -1.0789  1.7618 -2.9113
  430MOL0     H58045   1.849   2.853   2.525  2.2257 -0.0155 -1.3800
  430MOL0     H58046   1.886   2.786   2.101 -0.8254 -4.1098  0.8886
  430MOL0     H58047   1.899   3.404   2.306  3.5087  1.1017  0.1608
  430MOL0     H58048   2.224   3.551   2.329 -0.5937  1.9699  1.3339
  430MOL0     H58049   2.105   3.505   2.215  1.2358  2.8513 -1.2148
  430MOL0     H58050   2.067   3.634   2.321 -4.7701 -2.5917 -1.6871
  431MOL0     O58051   8.992   9.405   7.842  0.0836 -0.6536  0.1324
  431MOL0     C58052   9.044   9.339   7.758  0.4895  0.6892 -0.5362
  431MOL0     O58053   9.172   9.311   7.751 -0.6446 -0.6621 -0.2835
  431MOL0     C58054   9.248   9.339   7.869  0.5010 -0.6734 -0.6034
  431MOL0     C58055   9.298   9.463   7.899 -0.0133 -0.7872 -0.3372
  431MOL0     C58056   9.368   9.476   8.019  0.5103  0.1306 -0.6433
  431MOL0     C58057   9.392   9.371   8.101  0.1335 -0.0494 -0.0220
  431MOL0     O58058   9.466   9.407   8.211  0.6840  0.3333  0.3734
  431MOL0     C58059   9.452   9.330   8.331 -0.9447 -0.9552 -0.1604
  431MOL0     C58060   9.546   9.398   8.434  0.1660  0.9142 -0.0870
  431MOL0     C58061   9.589   9.308   8.552 -0.0670  0.2791  0.1832
  431MOL0     C58062   9.642   9.379   8.666 -0.2202  0.3768 -0.2528
  431MOL0     C58063   9.772   9.465   8.619 -0.1869  0.0146 -0.0053
  431MOL0     C58064   9.840   9.539   8.745 -0.1932 -0.6073  0.8052
  431MOL0     C58065   9.945   9.636   8.683 -0.0116  0.8475  0.0302
  431MOL0     C58066  10.053   9.682   8.782  0.7005  0.6015 -0.5064
  431MOL0     N58067  10.022   9.810   8.860 -0.1979  0.2998 -1.0314
  431MOL0     C58068   9.929   9.819   8.960 -0.0157  0.5035  0.7490
  431MOL0     C58069   9.965   9.929   9.029 -0.1754  0.7371 -0.5814
  431MOL0     C58070   9.875   9.971   9.144  0.5700 -0.0045  0.0056
  431MOL0     C58071   9.929   9.929   9.279  0.1250 -0.7804 -0.0956
  431MOL0     C58072   9.856   9.984   9.396  0.0466  0.4045 -0.2685
  431MOL0     C58073   9.713   9.987   9.402 -0.0979 -0.5938  0.4681
  431MOL0     O58074   9.665   9.851   9.381 -0.0421  0.3934 -0.2403
  431MOL0     C58075   9.541   9.824   9.434 -1.0514  0.6098 -1.0148
  431MOL0     C58076   9.496   9.687   9.422 -0.2922  0.1046 -0.6065
  431MOL0     C58077   9.368   9.648   9.461 -0.2369 -0.2153  0.1085
  431MOL0     C58078   9.279   9.732   9.526 -0.0967 -0.0708  0.7349
  431MOL0     C58079   9.138   9.691   9.550 -0.4803  0.6617  0.2118
  431MOL0     O58080   9.103   9.562   9.538  0.5391 -0.0719  0.2321
  431MOL0     C58081   8.977   9.541   9.483  0.2602  0.8038  0.3082
  431MOL0     C58082   8.969   9.475   9.357  0.2029  0.2629 -0.2289
  431MOL0     C58083   8.849   9.464   9.287  1.0291  0.1786 -0.8969
  431MOL0     C58084   8.725   9.498   9.362 -0.9264 -0.7637 -0.2999
  431MOL0     O58085   8.595   9.477   9.321  0.6034 -0.6519  0.1579
  431MOL0     C58086   8.565   9.398   9.205 -0.6190  0.4524 -0.4212
  431MOL0     C58087   8.419   9.375   9.181 -0.1460 -0.6536 -0.4112
  431MOL0     C58088   8.384   9.503   9.106 -0.3981 -0.7674 -0.5628
  431MOL0     C58089   8.244   9.478   9.064  0.6961  0.5171  0.2523
  431MOL0     C58090   8.177   9.593   8.984 -0.3400 -0.1934 -0.4319
  431MOL0     C58091   8.032   9.556   8.952  0.3374 -0.5543 -0.0795
  431MOL0     C58092   7.991   9.663   8.851  0.3025 -0.3039 -0.0773
  431MOL0     C58093   7.838   9.645   8.815 -0.5741 -0.1943  0.0325
  431MOL0    Cl58094   7.782   9.760   8.691 -0.2525 -0.2342  0.1415
  431MOL0     C58095   8.737   9.542   9.490  0.2291  0.0256  0.2878
  431MOL0     C58096   8.860   9.549   9.555 -0.2331 -0.4765 -0.5165
  431MOL0     O58097   9.060   9.788   9.581 -1.0724  0.2938 -0.6471
  431MOL0     C58098   9.328   9.863   9.538  0.4664 -1.1009  0.4790
  431MOL0     C58099   9.452   9.911   9.495  0.0702  0.8640 -0.6860
  431MOL0     N58100  10.071   9.990   8.973  0.3269  0.8704  0.3895
  431MOL0     N58101  10.104   9.920   8.865 -0.4931 -0.2884  0.2079
  431MOL0     C58102   9.331   9.248   8.076  0.0402  0.4397 -0.4614
  431MOL0     C58103   9.259   9.230   7.955 -0.7557 -0.4317 -0.8343
  431MOL0     C58104   8.977   9.285   7.637 -0.4671  0.4465  0.2975
  431MOL0     C58105   9.039   9.179   7.570  0.4882  0.0460  0.1011
  431MOL0     C58106   8.981   9.120   7.458  0.2027 -1.0404  0.0143
  431MOL0     C58107   8.861   9.157   7.406  0.0769 -1.0594  0.0644
  431MOL0     O58108   8.837   9.106   7.280  0.4848  0.1759 -0.0402
  431MOL0     C58109   8.711   9.145   7.223 -0.2162  0.1180  0.1264
  431MOL0     C58110   8.653   9.047   7.114  0.0903 -0.6905  0.0608
  431MOL0     C58111   8.516   9.081   7.069  0.8978 -0.5397  0.2834
  431MOL0     C58112   8.473   8.967   6.978  0.0927 -0.5674 -0.3781
  431MOL0     C58113   8.341   8.978   6.915 -0.1559  0.0384  0.7942
  431MOL0     C58114   8.226   8.975   6.882  0.6988  0.4264  0.5249
  431MOL0     C58115   8.798   9.273   7.475  1.2664  0.4244  0.0335
  431MOL0     C58116   8.851   9.324   7.596 -0.4499 -1.1709  1.0009
  431MOL0     C58117   8.756   9.423   7.673  1.2877  0.9550  1.1124
  431MOL0     H58118   9.294   9.550   7.834  0.9701  0.0295  0.6528
  431MOL0     H58119   9.402   9.572   8.058  0.0085  1.0122 -2.2606
  431MOL0     H58120   9.352   9.326   8.376 -0.3756  0.5157  1.3182
  431MOL0     H58121   9.491   9.232   8.301 -0.2393 -0.5701 -0.5318
  431MOL0     H58122   9.498   9.491   8.465 -2.9229 -0.0304 -1.5758
  431MOL0     H58123   9.634   9.427   8.376 -0.3504  3.1420  0.1383
  431MOL0     H58124   9.663   9.249   8.498 -1.5072  0.9593 -2.7159
  431MOL0     H58125   9.506   9.242   8.579 -0.3677 -0.4820 -2.3427
  431MOL0     H58126   9.569   9.441   8.719 -0.7853  0.0365 -0.6262
  431MOL0     H58127   9.671   9.300   8.736 -1.4822  1.3355  1.4509
  431MOL0     H58128   9.846   9.391   8.586  0.0491  0.3759 -0.3000
  431MOL0     H58129   9.742   9.534   8.540  0.5847  1.1174  0.6428
  431MOL0     H58130   9.766   9.599   8.799 -0.7035 -1.4796  1.1124
  431MOL0     H58131   9.885   9.473   8.820  1.1372  0.0028  0.5750
  431MOL0     H58132   9.901   9.720   8.629  1.6712  0.8816 -1.3766
  431MOL0     H58133  10.002   9.573   8.613 -0.3173  0.4765  0.1166
  431MOL0     H58134  10.084   9.608   8.856 -2.1897  0.2318  0.4876
  431MOL0     H58135  10.142   9.701   8.722  0.5774  1.2176 -0.4965
  431MOL0     H58136   9.843   9.754   8.974  1.0560 -0.6978  2.0843
  431MOL0     H58137   9.860  10.078   9.127  0.0939 -0.5093 -3.4358
  431MOL0     H58138   9.778   9.921   9.138  0.0195  1.0192  0.0101
  431MOL0     H58139   9.916   9.821   9.286 -3.7260 -0.3033  4.0861
  431MOL0     H58140  10.037   9.939   9.296  0.6179 -2.1178 -2.0520
  431MOL0     H58141   9.887  10.088   9.387  4.1073 -0.6647 -0.6514
  431MOL0     H58142   9.895   9.951   9.493  0.9733 -0.4242 -0.8975
  431MOL0     H58143   9.664  10.062   9.340 -2.1826 -4.0759 -2.5756
  431MOL0     H58144   9.703  10.014   9.507  0.1894  2.5614 -0.2366
  431MOL0     H58145   9.559   9.611   9.375 -0.4334  0.6372 -1.6807
  431MOL0     H58146   9.322   9.558   9.423 -1.1884  0.4570 -0.3756
  431MOL0     H58147   9.063   9.440   9.316 -0.7035 -0.5379 -1.7036
  431MOL0     H58148   8.840   9.415   9.190 -0.4042 -1.5486  0.0388
  431MOL0     H58149   8.619   9.436   9.118  1.2452 -1.1676 -0.0533
  431MOL0     H58150   8.614   9.300   9.215  0.8087  1.0361 -1.3996
  431MOL0     H58151   8.391   9.295   9.112  1.7160 -0.3907 -1.5336
  431MOL0     H58152   8.361   9.374   9.274 -2.0301  1.6737 -1.4537
  431MOL0     H58153   8.393   9.595   9.164 -0.7351 -1.5937  0.8384
  431MOL0     H58154   8.443   9.512   9.014  0.3410  0.5726  0.0209
  431MOL0     H58155   8.185   9.450   9.152  2.5669  1.7452  1.9506
  431MOL0     H58156   8.239   9.391   8.996 -1.5794  1.6908 -1.2282
  431MOL0     H58157   8.244   9.605   8.899  2.7850 -0.2584  1.8659
  431MOL0     H58158   8.187   9.678   9.051  3.8158  0.2151 -1.3572
  431MOL0     H58159   8.013   9.456   8.912 -1.7723 -0.2914  0.1763
  431MOL0     H58160   7.972   9.575   9.041 -2.1924 -4.4529 -0.6623
  431MOL0     H58161   8.049   9.655   8.759  0.4086  3.4711 -0.4972
  431MOL0     H58162   8.007   9.764   8.890  0.5351  0.6743 -2.5451
  431MOL0     H58163   7.825   9.541   8.786  1.7423 -0.8325  1.0148
  431MOL0     H58164   7.785   9.671   8.908 -0.8022 -0.7981  0.0757
  431MOL0     H58165   8.649   9.563   9.549  0.8731  0.1034  1.2380
  431MOL0     H58166   8.871   9.579   9.658  2.7142  1.0469 -1.1584
  431MOL0     H58167   9.259   9.940   9.570  0.9811 -0.7884  0.8503
  431MOL0     H58168   9.474  10.014   9.519 -0.2801  1.3902 -2.4501
  431MOL0     H58169   9.348   9.152   8.123 -0.9645  0.1634 -0.6410
  431MOL0     H58170   9.208   9.136   7.940 -0.3873 -0.9507  0.9364
  431MOL0     H58171   9.133   9.138   7.606 -0.6193 -2.5535  0.2665
  431MOL0     H58172   9.021   9.040   7.396 -0.9755 -0.4689 -1.5774
  431MOL0     H58173   8.727   9.244   7.180 -0.1870 -0.3070 -0.8655
  431MOL0     H58174   8.631   9.156   7.297 -2.4137 -1.9394 -1.7448
  431MOL0     H58175   8.671   8.942   7.138 -1.2385 -0.8559  0.3982
  431MOL0     H58176   8.709   9.069   7.022 -1.1869  1.5799 -0.2411
  431MOL0     H58177   8.526   9.176   7.017 -0.3985 -1.2229 -1.2980
  431MOL0     H58178   8.446   9.099   7.151 -1.4327 -1.0172 -1.4973
  431MOL0     H58179   8.542   8.944   6.897  0.8465 -0.7281  0.2963
  431MOL0     H58180   8.456   8.885   7.048 -2.8499  0.6686  0.5321
  431MOL0     H58181   8.124   8.984   6.848  0.8161 -3.4619 -1.4291
  431MOL0     H58182   8.712   9.320   7.429  2.4506  0.8171 -1.8549
  431MOL0     H58183   8.785   9.428   7.778  3.9457  1.4478  0.4183
  431MOL0     H58184   8.749   9.521   7.624  1.7664  1.1040  1.3468
  431MOL0     H58185   8.656   9.380   7.660  1.2239  1.0178  1.3944
  432MOL0     O58186   0.531  11.088   7.827 -0.0103  0.1147  0.5686
  432MOL0     C58187   0.430  11.107   7.758 -0.1752 -0.1081  0.1521
  432MOL0     O58188   0.434  11.137   7.617  0.2432  0.5490  0.1545
  432MOL0     C58189   0.549  11.140   7.540 -1.2002  0.5881  0.4906
  432MOL0     C58190   0.649  11.046   7.546  0.2488  0.5539 -0.0140
  432MOL0     C58191   0.766  11.062   7.463  0.6757 -0.0666 -0.1554
  432MOL0     C58192   0.783  11.175   7.383  0.2998  1.3039 -0.0219
  432MOL0     O58193   0.898  11.205   7.308  0.2472  0.2449  0.4660
  432MOL0     C58194   1.027  11.186   7.369 -0.2175 -0.3780  0.5418
  432MOL0     C58195   1.142  11.173   7.273 -0.3652 -0.2561  0.2405
  432MOL0     C58196   1.123  11.062   7.168 -0.4666 -0.0537  0.0336
  432MOL0     C58197   1.223  11.077   7.054  0.1991 -0.9305 -0.9205
  432MOL0     C58198   1.364  11.037   7.105  0.1581  0.0706  0.5301
  432MOL0     C58199   1.471  11.052   6.993  0.1593  1.3662 -0.0678
  432MOL0     C58200   1.617  11.055   7.043 -0.4104 -0.4413 -0.2335
  432MOL0     C58201   1.699  10.979   6.936  0.5832  0.2451  0.2498
  432MOL0     N58202   1.832  11.011   6.970 -0.1988  0.7388 -0.2333
  432MOL0     C58203   1.888  11.141   6.962 -0.0996 -0.4076 -0.3623
  432MOL0     C58204   2.017  11.127   7.012 -0.9154  0.7192  0.2449
  432MOL0     C58205   2.128  11.225   7.028  0.4268 -1.1092  0.6184
  432MOL0     C58206   2.159  11.243   7.175 -0.5167 -0.8055  0.1396
  432MOL0     C58207   2.261  11.354   7.208  1.2955  0.2209 -0.5747
  432MOL0     C58208   2.404  11.323   7.192  0.5896 -0.3640  0.3021
  432MOL0     O58209   2.444  11.353   7.056  0.3384 -1.3878  0.4097
  432MOL0     C58210   2.566  11.302   7.003  0.5091 -0.9755 -0.4880
  432MOL0     C58211   2.586  11.330   6.872  0.4818 -0.0854 -0.6534
  432MOL0     C58212   2.701  11.286   6.813 -0.2518 -0.4894 -0.1745
  432MOL0     C58213   2.803  11.223   6.890 -0.0765  0.0644  0.0970
  432MOL0     C58214   2.938  11.187   6.833 -0.4867 -0.4678  0.4538
  432MOL0     O58215   3.038  11.139   6.911 -0.2239 -0.7020 -0.6146
  432MOL0     C58216   3.162  11.137   6.847  0.6145  0.5195  0.5738
  432MOL0     C58217   3.202  11.040   6.750  0.4505 -0.0513  0.1755
  432MOL0     C58218   3.329  11.030   6.702 -0.5503 -0.5965 -0.2759
  432MOL0     C58219   3.428  11.123   6.752  0.3563  0.3964 -0.1240
  432MOL0     O58220   3.560  11.134   6.713  0.2687  0.4631 -0.6526
  432MOL0     C58221   3.619  11.044   6.611 -0.0002  0.8815  0.4444
  432MOL0     C58222   3.773  11.053   6.623  0.9218  0.1694  0.6917
  432MOL0     C58223   3.820  11.202   6.606  0.2011  0.0229 -0.4484
  432MOL0     C58224   3.959  11.232   6.667 -0.1321 -0.0905  0.2142
  432MOL0     C58225   4.022  11.363   6.619 -0.5040  0.7477 -0.1761
  432MOL0     C58226   4.170  11.371   6.619  0.5466 -0.2175  0.5726
  432MOL0     C58227   4.230  11.295   6.498 -0.2293 -0.9312  0.7412
  432MOL0     C58228   4.386  11.318   6.477  0.5291 -0.3305 -0.1154
  432MOL0    Cl58229   4.475  11.379   6.619 -0.0054  0.5107 -0.1493
  432MOL0     C58230   3.388  11.213   6.850  0.3940 -0.7331 -0.0203
  432MOL0     C58231   3.259  11.224   6.900 -0.2524  0.2742 -0.5551
  432MOL0     O58232   2.946  11.199   6.711  0.5134  0.1655  0.4147
  432MOL0     C58233   2.788  11.197   7.022  0.0628  0.5106  0.0617
  432MOL0     C58234   2.661  11.226   7.075  0.5171  0.5824 -0.5313
  432MOL0     N58235   2.031  10.990   7.037 -0.4488 -0.8627 -0.9824
  432MOL0     N58236   1.920  10.929   7.032  1.2757  0.3504 -0.0265
  432MOL0     C58237   0.680  11.264   7.371 -0.3722 -0.9310 -1.2018
  432MOL0     C58238   0.573  11.254   7.459 -0.1913 -0.3948  1.0559
  432MOL0     C58239   0.309  11.092   7.834 -0.4780  0.8376 -0.1536
  432MOL0     C58240   0.305  11.054   7.968 -0.1299  0.5985  0.0239
  432MOL0     C58241   0.186  11.035   8.039  0.0440  0.5796 -0.7477
  432MOL0     C58242   0.067  11.045   7.975  0.5895  1.0682 -1.3176
  432MOL0     O58243  -0.043  11.012   8.057  0.3714 -0.3059 -1.0015
  432MOL0     C58244  -0.182  11.033   8.023 -0.3641  0.7863 -0.3816
  432MOL0     C58245  -0.246  10.925   7.938  0.1840  0.0567 -0.0300
  432MOL0     C58246  -0.354  10.994   7.863  0.4992  0.3009  0.7630
  432MOL0     C58247  -0.442  10.893   7.782  0.3132  0.3448 -0.3236
  432MOL0     C58248  -0.572  10.942   7.739 -0.7601 -0.0845  0.4439
  432MOL0     C58249  -0.680  10.960   7.670 -0.4088  0.5163 -0.0733
  432MOL0     C58250   0.065  11.079   7.841  0.5062 -0.3319 -0.2209
  432MOL0     C58251   0.181  11.100   7.773 -0.4424  0.5680 -0.0395
  432MOL0     C58252   0.154  11.119   7.618 -0.2868  0.1293 -0.1844
  432MOL0     H58253   0.643  10.956   7.606  1.2807 -0.9269 -1.9961
  432MOL0     H58254   0.843  10.986   7.464  0.2829 -0.5155 -1.4265
  432MOL0     H58255   1.053  11.272   7.431 -0.2477  0.1859 -0.2128
  432MOL0     H58256   1.027  11.097   7.433 -1.5481  0.9574  2.5015
  432MOL0     H58257   1.232  11.151   7.331 -1.1654 -2.7253  0.6634
  432MOL0     H58258   1.160  11.268   7.222  0.6833 -0.5904 -0.0390
  432MOL0     H58259   1.023  11.068   7.125 -0.7919  0.7171  0.8782
  432MOL0     H58260   1.134  10.957   7.196 -2.0485  0.1869  1.7250
  432MOL0     H58261   1.193  11.003   6.978 -0.5230 -0.3111 -1.2544
  432MOL0     H58262   1.228  11.175   7.006 -2.8182  0.4630  1.2832
  432MOL0     H58263   1.396  11.104   7.186  0.4184  0.8492 -0.2101
  432MOL0     H58264   1.363  10.933   7.139 -0.8327 -0.2350 -0.3911
  432MOL0     H58265   1.464  10.977   6.913  1.3577  0.5949  0.5200
  432MOL0     H58266   1.457  11.149   6.944  1.7409  2.0594  0.7885
  432MOL0     H58267   1.632  10.998   7.135 -0.4391 -0.3913 -0.1981
  432MOL0     H58268   1.648  11.160   7.044  0.7416 -0.7148 -2.3203
  432MOL0     H58269   1.685  10.871   6.938 -0.3836  0.2674 -2.1824
  432MOL0     H58270   1.665  11.019   6.840 -0.8478 -0.9419  0.2416
  432MOL0     H58271   1.855  11.238   6.927 -1.5238  0.2141  2.4464
  432MOL0     H58272   2.218  11.182   6.983  0.5781 -2.8239  2.4167
  432MOL0     H58273   2.121  11.315   6.966  2.3087 -2.4109 -1.6469
  432MOL0     H58274   2.063  11.278   7.215 -0.0298  3.2665 -1.7270
  432MOL0     H58275   2.179  11.146   7.223 -0.2583 -0.5025  0.6582
  432MOL0     H58276   2.240  11.375   7.313 -3.7530  1.6897 -1.5830
  432MOL0     H58277   2.237  11.444   7.150 -1.5785  0.4493  0.7826
  432MOL0     H58278   2.422  11.222   7.227  0.6657  0.8929  4.4335
  432MOL0     H58279   2.472  11.385   7.252 -1.0313  0.8062  1.0218
  432MOL0     H58280   2.510  11.388   6.822 -2.3717 -0.4694  2.8352
  432MOL0     H58281   2.726  11.314   6.711  1.0140 -1.4650 -0.1622
  432MOL0     H58282   3.124  10.969   6.723  0.8888 -0.5050  0.0820
  432MOL0     H58283   3.356  10.947   6.637 -0.9465 -1.9704  1.2423
  432MOL0     H58284   3.584  10.943   6.635  0.6052  0.0621 -1.8557
  432MOL0     H58285   3.573  11.081   6.519  0.0642 -0.3076 -0.0867
  432MOL0     H58286   3.807  11.034   6.725 -1.8637  1.8396  2.0687
  432MOL0     H58287   3.838  11.005   6.550  0.8666  0.7925  0.2135
  432MOL0     H58288   3.824  11.219   6.498  0.7251  1.9644 -0.1654
  432MOL0     H58289   3.747  11.274   6.642 -0.6668 -2.3697  3.1555
  432MOL0     H58290   4.012  11.145   6.626 -1.9202  0.3182 -3.3059
  432MOL0     H58291   3.958  11.218   6.776 -0.4978 -2.6802 -0.0453
  432MOL0     H58292   3.993  11.446   6.685  1.4786  0.7823  0.7155
  432MOL0     H58293   3.986  11.398   6.522 -0.6136 -3.4141 -1.8440
  432MOL0     H58294   4.202  11.475   6.623 -1.7553  0.5128  2.8701
  432MOL0     H58295   4.205  11.318   6.708 -0.4210 -0.5483  0.7686
  432MOL0     H58296   4.187  11.321   6.400  0.2948 -1.1751  0.4452
  432MOL0     H58297   4.207  11.189   6.510  1.6650 -1.4056  0.5803
  432MOL0     H58298   4.423  11.221   6.442 -0.3810  0.9323 -5.6229
  432MOL0     H58299   4.406  11.379   6.388  0.3554 -0.1370 -0.0226
  432MOL0     H58300   3.466  11.273   6.896 -1.0311  1.7451 -0.6759
  432MOL0     H58301   3.233  11.290   6.982  0.7194 -2.5225  2.1803
  432MOL0     H58302   2.861  11.148   7.085  1.4648  0.6237 -1.4079
  432MOL0     H58303   2.636  11.198   7.177  1.9340  3.5700  0.7707
  432MOL0     H58304   0.703  11.357   7.321  3.7155 -0.7283  0.6360
  432MOL0     H58305   0.503  11.337   7.458  1.8128  1.4344 -1.0882
  432MOL0     H58306   0.396  11.041   8.025 -0.9140  0.1666  1.2354
  432MOL0     H58307   0.189  11.006   8.143 -0.9319 -1.0098 -1.1263
  432MOL0     H58308  -0.193  11.125   7.964 -0.2901  0.5603 -0.7494
  432MOL0     H58309  -0.229  11.043   8.121  1.4874  0.8679  0.5444
  432MOL0     H58310  -0.296  10.842   7.988 -2.4615 -0.1738 -2.8286
  432MOL0     H58311  -0.173  10.889   7.865  1.2089 -2.4735  2.0872
  432MOL0     H58312  -0.317  11.065   7.789  3.6744 -0.5446  1.3984
  432MOL0     H58313  -0.419  11.046   7.935 -2.8640 -0.7656 -1.2481
  432MOL0     H58314  -0.388  10.862   7.692 -1.5585 -0.7717 -1.1105
  432MOL0     H58315  -0.448  10.796   7.832  0.7983  1.1188  1.3495
  432MOL0     H58316  -0.768  10.975   7.611 -0.3579  1.4296  0.0544
  432MOL0     H58317  -0.031  11.091   7.793  1.6726  1.1307 -2.3307
  432MOL0     H58318   0.205  11.034   7.571 -2.6819 -1.2994 -0.3813
  432MOL0     H58319   0.049  11.109   7.588 -0.1813  0.1904 -0.5859
  432MOL0     H58320   0.184  11.219   7.585 -0.4492  0.9708  2.0555
  433MOL0     O58321   2.635  10.856   7.583 -0.0273 -0.2533 -0.0598
  433MOL0     C58322   2.601  10.846   7.464 -0.3424  0.0065 -0.7144
  433MOL0     O58323   2.683  10.846   7.356  0.1978  0.8574 -0.1063
  433MOL0     C58324   2.822  10.849   7.376 -0.5095  0.3820 -0.2492
  433MOL0     C58325   2.881  10.803   7.497 -0.3030  0.7363  0.2179
  433MOL0     C58326   3.018  10.796   7.510  0.7790 -0.2371  0.8968
  433MOL0     C58327   3.097  10.816   7.398  0.1954  0.0334 -0.5300
  433MOL0     O58328   3.234  10.797   7.400  0.4631 -0.9483 -0.0795
  433MOL0     C58329   3.304  10.861   7.506  1.2919  0.4519 -0.2405
  433MOL0     C58330   3.453  10.874   7.462 -0.0252  0.4983 -1.3058
  433MOL0     C58331   3.538  10.760   7.500  1.0617 -0.0109 -0.3855
  433MOL0     C58332   3.686  10.787   7.514  0.6608  0.2532  0.8803
  433MOL0     C58333   3.772  10.654   7.510  0.0250  0.0921 -0.6406
  433MOL0     C58334   3.725  10.549   7.399 -0.1534 -0.2878 -0.5728
  433MOL0     C58335   3.836  10.452   7.350 -0.1536 -0.2448  0.8493
  433MOL0     C58336   3.836  10.439   7.193 -0.1911  0.9297 -0.9084
  433MOL0     N58337   3.956  10.383   7.122 -0.6854 -0.1826 -0.0286
  433MOL0     C58338   4.072  10.348   7.184  1.4038  0.4333 -0.1113
  433MOL0     C58339   4.121  10.240   7.118 -0.1010 -0.3030  0.0280
  433MOL0     C58340   4.238  10.163   7.158  0.2733  0.9507 -1.2281
  433MOL0     C58341   4.285  10.063   7.063  0.1486  0.3597 -0.0798
  433MOL0     C58342   4.416   9.996   7.099  0.4294  0.0488  0.2336
  433MOL0     C58343   4.445   9.887   6.995 -0.2266 -0.6316  1.0829
  433MOL0     O58344   4.583   9.845   6.981 -0.0226 -0.4381 -0.1198
  433MOL0     C58345   4.650   9.810   7.097 -0.6609 -0.4909 -0.5142
  433MOL0     C58346   4.793   9.806   7.098 -0.3742 -0.3219 -0.0011
  433MOL0     C58347   4.867   9.743   7.199  0.2888 -0.4181 -0.2630
  433MOL0     C58348   4.794   9.689   7.305  0.0050  0.5519 -1.1057
  433MOL0     C58349   4.872   9.616   7.414  0.3679 -0.5452 -0.0132
  433MOL0     O58350   4.993   9.560   7.389 -0.5091 -0.4515  0.7607
  433MOL0     C58351   5.077   9.511   7.489  0.2536 -1.2339  0.2040
  433MOL0     C58352   5.171   9.421   7.445 -0.5580  0.1365  0.4551
  433MOL0     C58353   5.271   9.379   7.532 -0.4352  0.1011 -0.0608
  433MOL0     C58354   5.284   9.429   7.667 -0.7804 -0.8152  0.5602
  433MOL0     O58355   5.386   9.387   7.752  0.1422 -0.2716 -0.3353
  433MOL0     C58356   5.338   9.329   7.874 -0.5056 -0.1735 -0.3336
  433MOL0     C58357   5.458   9.292   7.952 -0.0328 -0.1781  0.5489
  433MOL0     C58358   5.527   9.172   7.884  0.9207 -0.1912 -0.4842
  433MOL0     C58359   5.609   9.096   7.995  0.4631  0.9843 -0.1362
  433MOL0     C58360   5.692   8.975   7.944 -0.2486  0.1709  0.0058
  433MOL0     C58361   5.616   8.884   7.847 -0.5390  0.7664 -0.5064
  433MOL0     C58362   5.681   8.736   7.863  0.8101 -0.3783 -0.1416
  433MOL0     C58363   5.614   8.641   7.770  0.0552  0.2624  0.1799
  433MOL0    Cl58364   5.440   8.632   7.832 -0.1806  0.1430 -0.1323
  433MOL0     C58365   5.189   9.531   7.703 -0.2723 -0.3118 -0.3342
  433MOL0     C58366   5.085   9.561   7.620  0.7272  0.2051  1.0769
  433MOL0     O58367   4.813   9.621   7.518 -0.2562 -0.3886 -0.3740
  433MOL0     C58368   4.655   9.686   7.304 -0.1384 -0.4071 -0.0663
  433MOL0     C58369   4.587   9.745   7.203 -0.6180  0.1083  0.3369
  433MOL0     N58370   4.049  10.229   7.000  0.5619  0.0827 -0.0584
  433MOL0     N58371   3.951  10.305   7.003 -0.6130 -0.3400  0.3820
  433MOL0     C58372   3.040  10.856   7.274 -0.5608 -0.1824 -0.5591
  433MOL0     C58373   2.901  10.876   7.263  0.4474  0.3373  0.2076
  433MOL0     C58374   2.457  10.821   7.427 -0.1049  0.6234  0.2125
  433MOL0     C58375   2.411  10.871   7.306 -0.4589  0.0899 -0.1924
  433MOL0     C58376   2.277  10.866   7.276 -0.3270  0.2626  0.4505
  433MOL0     C58377   2.186  10.794   7.348 -0.4302 -0.1913  1.0438
  433MOL0     O58378   2.064  10.766   7.284 -0.1168  1.0470  0.2477
  433MOL0     C58379   1.970  10.684   7.353 -0.0550  0.4396  0.8116
  433MOL0     C58380   1.896  10.760   7.465 -0.6801 -0.2532  0.9952
  433MOL0     C58381   1.810  10.881   7.417 -0.1088  0.4608  0.6551
  433MOL0     C58382   1.733  10.940   7.529  1.1048 -0.5191  0.8531
  433MOL0     C58383   1.645  11.039   7.463 -0.4665  0.2050 -0.0476
  433MOL0     C58384   1.584  11.131   7.414  1.3704  0.6886 -1.2849
  433MOL0     C58385   2.229  10.730   7.466  0.1273 -0.7331  0.5219
  433MOL0     C58386   2.361  10.749   7.504 -0.3117 -0.5226 -0.3264
  433MOL0     C58387   2.406  10.674   7.637 -0.1136 -0.1745  0.5425
  433MOL0     H58388   2.831  10.781   7.591 -0.3082  3.6175  0.9889
  433MOL0     H58389   3.064  10.770   7.605  5.1724 -0.1048 -0.9291
  433MOL0     H58390   3.265  10.961   7.529 -1.7707 -1.2350  2.9439
  433MOL0     H58391   3.299  10.806   7.601  1.0103  1.4349  0.3250
  433MOL0     H58392   3.498  10.961   7.512 -3.1791  1.4945  0.0870
  433MOL0     H58393   3.460  10.890   7.354  0.4940  0.6943 -1.2452
  433MOL0     H58394   3.511  10.684   7.426 -0.6010  1.0425 -0.9034
  433MOL0     H58395   3.503  10.721   7.596 -0.3614  2.2726  0.0982
  433MOL0     H58396   3.715  10.858   7.436 -2.5168  1.9271  1.0809
  433MOL0     H58397   3.707  10.838   7.608 -1.6153  1.3232  0.8815
  433MOL0     H58398   3.876  10.688   7.508  1.2388 -2.9971  1.8143
  433MOL0     H58399   3.780  10.609   7.609  2.1280 -2.2535 -1.7763
  433MOL0     H58400   3.643  10.487   7.437  0.2401 -3.6381 -4.4606
  433MOL0     H58401   3.682  10.601   7.314  1.1036  1.1203 -0.3740
  433MOL0     H58402   3.820  10.355   7.399 -1.5114 -0.3014  0.3357
  433MOL0     H58403   3.934  10.488   7.383  0.8783  0.0232 -2.2153
  433MOL0     H58404   3.754  10.373   7.163  0.4495 -0.5615  0.4462
  433MOL0     H58405   3.816  10.538   7.150 -3.3825  1.2347  0.9324
  433MOL0     H58406   4.106  10.376   7.283 -1.2979  0.4858  0.8655
  433MOL0     H58407   4.322  10.225   7.191 -0.8760  0.7326  2.5769
  433MOL0     H58408   4.195  10.111   7.244 -1.1340 -1.8104 -3.4447
  433MOL0     H58409   4.212   9.981   7.056  3.4007 -2.8292  0.2961
  433MOL0     H58410   4.296  10.113   6.966 -0.5705 -0.1984 -0.4639
  433MOL0     H58411   4.410   9.961   7.203  2.1844 -0.2867  0.2477
  433MOL0     H58412   4.500  10.066   7.098 -1.0887  1.9781 -1.6730
  433MOL0     H58413   4.395   9.909   6.900 -0.2386 -3.3879  0.3546
  433MOL0     H58414   4.391   9.795   7.019 -1.0783 -1.7759 -3.9462
  433MOL0     H58415   4.836   9.856   7.013 -2.5106  2.9443  0.6782
  433MOL0     H58416   4.975   9.733   7.199  0.8439  3.7696 -0.3768
  433MOL0     H58417   5.180   9.384   7.343  2.2998  0.2563  0.5874
  433MOL0     H58418   5.336   9.301   7.495 -1.3623 -0.7947  0.1767
  433MOL0     H58419   5.278   9.409   7.921 -0.4443 -0.5821  0.4505
  433MOL0     H58420   5.273   9.244   7.852 -2.6957  1.3255 -0.0134
  433MOL0     H58421   5.516   9.384   7.948 -0.1170  0.0194  2.7620
  433MOL0     H58422   5.429   9.264   8.054  1.6294  1.3738  1.5015
  433MOL0     H58423   5.448   9.107   7.845  0.5968  0.1541 -0.4138
  433MOL0     H58424   5.598   9.191   7.803  1.9434  3.0735  1.0100
  433MOL0     H58425   5.537   9.055   8.066  1.7478 -4.3689 -1.4545
  433MOL0     H58426   5.679   9.162   8.045  0.8889  0.8638 -0.5633
  433MOL0     H58427   5.737   8.910   8.020  1.4444  0.0993 -1.0005
  433MOL0     H58428   5.776   9.013   7.885 -1.8796  0.2988 -2.3369
  433MOL0     H58429   5.512   8.880   7.881 -0.2389 -1.3980  0.2694
  433MOL0     H58430   5.629   8.922   7.745 -0.9336  0.3959 -0.6983
  433MOL0     H58431   5.659   8.708   7.966  1.4116 -0.5088 -0.0472
  433MOL0     H58432   5.789   8.749   7.852  0.8508  2.7734  2.6144
  433MOL0     H58433   5.606   8.667   7.664  1.7187  0.7016  0.1359
  433MOL0     H58434   5.659   8.544   7.795 -2.7165 -1.3665 -0.6653
  433MOL0     H58435   5.190   9.581   7.799  0.3126 -0.6620 -0.1547
  433MOL0     H58436   5.000   9.613   7.663  0.4544  0.5790  0.1291
  433MOL0     H58437   4.603   9.645   7.389  2.6975  0.7903  2.4563
  433MOL0     H58438   4.479   9.742   7.203 -0.7275  2.3083 -0.1381
  433MOL0     H58439   3.102  10.876   7.187  1.2931  0.5372  0.8742
  433MOL0     H58440   2.854  10.914   7.173 -0.6555 -1.0982  0.1339
  433MOL0     H58441   2.473  10.915   7.228  0.5245 -1.2139 -0.1724
  433MOL0     H58442   2.241  10.921   7.190  0.6064  0.9540  0.4925
  433MOL0     H58443   2.012  10.591   7.391 -2.6710 -1.7490 -1.2670
  433MOL0     H58444   1.887  10.655   7.288 -0.2353  2.7892 -0.1310
  433MOL0     H58445   1.973  10.808   7.527 -0.4781  0.6727  0.0661
  433MOL0     H58446   1.838  10.688   7.522  0.6840 -0.4701  2.1798
  433MOL0     H58447   1.746  10.836   7.340  1.0895 -0.4006  0.1332
  433MOL0     H58448   1.876  10.956   7.374  0.0060  1.8801  3.1276
  433MOL0     H58449   1.678  10.862   7.583  2.4794 -3.1196 -1.2520
  433MOL0     H58450   1.802  10.993   7.596  0.7103  3.7748 -1.8211
  433MOL0     H58451   1.525  11.215   7.385 -3.1051 -0.6788  2.6167
  433MOL0     H58452   2.158  10.675   7.527 -0.6727  0.6320  0.8768
  433MOL0     H58453   2.473  10.590   7.616 -0.3784 -0.1722 -0.3660
  433MOL0     H58454   2.462  10.734   7.709 -1.1186 -2.6615  3.6661
  433MOL0     H58455   2.320  10.635   7.693 -0.4764 -4.0370 -2.3371
  434MOL0     O58456  10.720   0.539  10.205 -0.2845 -0.3322 -0.5371
  434MOL0     C58457  10.689   0.436  10.271 -0.2494 -0.5090  0.9628
  434MOL0     O58458  10.775   0.343  10.308 -0.3205 -0.3318  0.4495
  434MOL0     C58459  10.901   0.328  10.277  0.1498 -0.0851  0.7460
  434MOL0     C58460  10.984   0.433  10.223  0.2716  0.2201  0.0349
  434MOL0     C58461  11.124   0.410  10.209  0.2846  0.0584  1.5278
  434MOL0     C58462  11.184   0.293  10.251  0.0244  0.2901  0.8866
  434MOL0     O58463  11.318   0.305  10.233 -0.7411 -0.2350  0.2930
  434MOL0     C58464  11.406   0.190  10.262  0.4680  0.4408  0.8899
  434MOL0     C58465  11.436   0.139  10.406  0.3767  0.5889  0.6792
  434MOL0     C58466  11.554   0.038  10.407  1.0819 -0.0967  0.2841
  434MOL0     C58467  11.615   0.022  10.542  0.0886  1.2374 -1.2659
  434MOL0     C58468  11.728  -0.089  10.540 -1.3251  0.5721 -0.5260
  434MOL0     C58469  11.686  -0.241  10.546  1.1570 -1.4731 -0.5620
  434MOL0     C58470  11.815  -0.328  10.533  0.2684  0.3736  0.4405
  434MOL0     C58471  11.775  -0.468  10.499 -0.7680  0.1713 -0.1762
  434MOL0     N58472  11.891  -0.538  10.444 -0.2049  0.7512 -0.2493
  434MOL0     C58473  11.875  -0.637  10.341 -0.2087  0.0423  0.0084
  434MOL0     C58474  11.983  -0.712  10.350  0.5761 -0.8556  0.3504
  434MOL0     C58475  12.019  -0.823  10.265  0.4226  0.1403 -0.3391
  434MOL0     C58476  12.089  -0.922  10.358  0.0094 -0.0043  0.8516
  434MOL0     C58477  12.137  -1.036  10.266 -0.4999 -0.1360  0.5911
  434MOL0     C58478  12.262  -1.010  10.190  0.0947  0.1586  0.2208
  434MOL0     O58479  12.360  -0.946  10.273 -0.0697  0.3584  0.7158
  434MOL0     C58480  12.482  -0.904  10.217  0.2576  0.1784  0.2478
  434MOL0     C58481  12.533  -0.934  10.092  0.0775 -0.1692  0.7596
  434MOL0     C58482  12.646  -0.865  10.045 -0.9058  0.9431  0.6807
  434MOL0     C58483  12.721  -0.777  10.127 -0.0208 -0.0333  1.1127
  434MOL0     C58484  12.834  -0.698  10.065 -0.3936 -1.2087 -0.7481
  434MOL0     O58485  12.883  -0.731   9.940 -0.5785 -0.2976 -0.3405
  434MOL0     C58486  12.998  -0.668   9.908  1.1009 -0.6155  0.2900
  434MOL0     C58487  12.991  -0.575   9.803 -0.4158  0.6255  0.9784
  434MOL0     C58488  13.099  -0.489   9.764  0.1443  0.5313  0.1793
  434MOL0     C58489  13.222  -0.496   9.826 -0.2908  0.3523 -0.4205
  434MOL0     O58490  13.313  -0.411   9.771 -0.1899 -0.1744 -0.4553
  434MOL0     C58491  13.449  -0.440   9.802 -0.1150 -0.4438  0.2470
  434MOL0     C58492  13.533  -0.323   9.742 -0.5602  0.2625 -0.0724
  434MOL0     C58493  13.676  -0.342   9.801 -0.0007 -0.1286  0.4734
  434MOL0     C58494  13.703  -0.291   9.941 -0.1727  0.0674 -0.6852
  434MOL0     C58495  13.807  -0.359  10.024  0.2070 -0.3531  0.2088
  434MOL0     C58496  13.956  -0.339   9.966  0.4902 -0.1489  0.6828
  434MOL0     C58497  14.061  -0.392  10.064  1.0167  0.1416  0.0134
  434MOL0     C58498  14.183  -0.444  10.007 -0.7761 -0.1176 -0.1552
  434MOL0    Cl58499  14.298  -0.319   9.959 -0.1999  0.3295 -0.7032
  434MOL0     C58500  13.229  -0.584   9.937 -0.6897 -0.2791  0.4149
  434MOL0     C58501  13.119  -0.665   9.977  0.5059 -0.4700 -0.3469
  434MOL0     O58502  12.873  -0.603  10.137 -0.1908  0.3430 -0.0316
  434MOL0     C58503  12.680  -0.767  10.261 -0.5274  0.2192 -0.1360
  434MOL0     C58504  12.557  -0.822  10.299  0.2365 -0.3068 -1.0248
  434MOL0     N58505  12.055  -0.666  10.459 -0.5282  0.4224 -0.0603
  434MOL0     N58506  12.011  -0.562  10.516  0.5779  0.1030  0.1156
  434MOL0     C58507  11.105   0.185  10.296 -0.4382 -0.8405  0.8896
  434MOL0     C58508  10.959   0.205  10.298 -0.1028  0.2168 -1.0693
  434MOL0     C58509  10.545   0.418  10.305 -1.0330 -0.4654 -0.2158
  434MOL0     C58510  10.470   0.521  10.253  1.3910  0.6274 -0.4175
  434MOL0     C58511  10.337   0.515  10.273  0.2357 -0.6971  0.1923
  434MOL0     C58512  10.270   0.412  10.342  0.1410  0.4425 -0.5756
  434MOL0     O58513  10.128   0.414  10.362  0.2249  0.3085  0.2848
  434MOL0     C58514  10.029   0.493  10.288 -0.8816  0.3225 -0.3868
  434MOL0     C58515   9.963   0.600  10.377 -0.1653 -0.4131  0.5391
  434MOL0     C58516   9.890   0.546  10.505 -0.1426  0.4989 -0.1071
  434MOL0     C58517   9.986   0.521  10.617 -0.6242 -0.1832 -0.7021
  434MOL0     C58518   9.899   0.482  10.724  0.2165 -1.2914  0.0299
  434MOL0     C58519   9.829   0.449  10.813  0.5048  0.0484  0.0204
  434MOL0     C58520  10.348   0.322  10.407 -0.5229 -0.1726 -0.2675
  434MOL0     C58521  10.481   0.320  10.387 -0.2045  0.1012  0.8415
  434MOL0     C58522  10.556   0.205  10.459 -0.2948  0.2747 -0.3188
  434MOL0     H58523  10.947   0.530  10.190  1.9509  1.0266  0.3604
  434MOL0     H58524  11.197   0.470  10.155  0.9469 -3.2475 -1.5837
  434MOL0     H58525  11.377   0.099  10.208  4.7853 -0.1335 -0.8463
  434MOL0     H58526  11.495   0.231  10.214 -1.4752 -0.1233 -3.7254
  434MOL0     H58527  11.346   0.109  10.461 -0.9827  2.3486 -0.4957
  434MOL0     H58528  11.475   0.227  10.458  1.6256  3.5077 -4.4774
  434MOL0     H58529  11.631   0.067  10.336  0.8673  2.1521  0.8985
  434MOL0     H58530  11.515  -0.062  10.382  0.8455  0.0821 -0.0602
  434MOL0     H58531  11.660   0.119  10.565  2.0918 -0.0301  0.4551
  434MOL0     H58532  11.540  -0.004  10.617  1.6676 -1.0655 -0.3788
  434MOL0     H58533  11.793  -0.069  10.454 -3.7103  0.8437 -2.4063
  434MOL0     H58534  11.787  -0.079  10.631 -2.4150  0.9018  0.1590
  434MOL0     H58535  11.639  -0.271  10.640  0.7593 -1.0710 -0.6325
  434MOL0     H58536  11.618  -0.242  10.460  0.0744  3.9639 -0.1389
  434MOL0     H58537  11.863  -0.333  10.631  3.1641 -1.7094 -0.9167
  434MOL0     H58538  11.887  -0.277  10.469  2.2685 -0.6547  1.7670
  434MOL0     H58539  11.744  -0.526  10.587  3.0556 -3.1676 -0.7169
  434MOL0     H58540  11.695  -0.452  10.426 -0.9371  3.0348  0.5109
  434MOL0     H58541  11.801  -0.646  10.263 -0.6726 -0.9333  0.5305
  434MOL0     H58542  11.931  -0.865  10.215 -1.2886  1.5143  1.3943
  434MOL0     H58543  12.084  -0.778  10.188  1.7518 -0.2074  0.5393
  434MOL0     H58544  12.171  -0.874  10.412  0.4814  2.8157 -2.0552
  434MOL0     H58545  12.010  -0.962  10.423 -0.9825  0.3577 -0.0888
  434MOL0     H58546  12.058  -1.076  10.203  0.7318 -3.1826  0.7943
  434MOL0     H58547  12.164  -1.122  10.329  2.2542 -1.2701 -1.8862
  434MOL0     H58548  12.230  -0.952  10.103  0.6137  2.4539  1.5102
  434MOL0     H58549  12.301  -1.108  10.159  0.6742  0.2693  0.5994
  434MOL0     H58550  12.480  -1.006  10.031  0.3819  0.1016  0.1632
  434MOL0     H58551  12.680  -0.892   9.946 -0.8476  3.1662  0.0411
  434MOL0     H58552  12.903  -0.563   9.740  1.1068 -2.1833 -2.0001
  434MOL0     H58553  13.088  -0.427   9.676  2.3702 -0.1823 -0.6650
  434MOL0     H58554  13.460  -0.437   9.911  1.2461 -1.8168  0.1912
  434MOL0     H58555  13.470  -0.542   9.769  1.6941  0.3278 -1.1324
  434MOL0     H58556  13.533  -0.342   9.634 -3.0101 -2.6532  0.2935
  434MOL0     H58557  13.491  -0.223   9.758  1.2700  0.9132  0.8421
  434MOL0     H58558  13.703  -0.447   9.785  1.5712  0.3252 -0.1107
  434MOL0     H58559  13.747  -0.290   9.734  1.4932 -1.6144  0.8267
  434MOL0     H58560  13.613  -0.304  10.003  0.1606 -1.4363 -0.4708
  434MOL0     H58561  13.725  -0.185   9.930  1.6573 -0.2848 -0.6746
  434MOL0     H58562  13.792  -0.467  10.018  0.2774 -0.3393 -0.2643
  434MOL0     H58563  13.797  -0.322  10.126 -1.5299  3.1325 -1.0595
  434MOL0     H58564  13.972  -0.381   9.866  0.9739 -1.6062  1.3380
  434MOL0     H58565  13.978  -0.233   9.955  0.6977 -0.4266 -2.2714
  434MOL0     H58566  14.016  -0.467  10.129  0.4223  1.5205  1.2381
  434MOL0     H58567  14.086  -0.311  10.133  0.2469  1.6645 -1.4263
  434MOL0     H58568  14.238  -0.509  10.076  1.6640  1.4487 -0.5039
  434MOL0     H58569  14.155  -0.507   9.923 -2.6284 -2.6574  2.1810
  434MOL0     H58570  13.312  -0.597  10.006 -0.2595  2.8185  0.6196
  434MOL0     H58571  13.122  -0.718  10.071  0.5266  0.4506  0.1903
  434MOL0     H58572  12.745  -0.725  10.337 -0.3184  0.2017 -0.3074
  434MOL0     H58573  12.524  -0.818  10.402  0.2196 -3.9178 -0.7471
  434MOL0     H58574  11.158   0.091  10.306  3.0588  0.6641 -1.7172
  434MOL0     H58575  10.900   0.121  10.334 -1.5699  1.9221  0.7781
  434MOL0     H58576  10.504   0.616  10.214  0.4752  0.7396 -0.9733
  434MOL0     H58577  10.274   0.595  10.233 -1.8089 -2.3117  0.0210
  434MOL0     H58578   9.952   0.427  10.247 -1.6201  1.6034 -1.1337
  434MOL0     H58579  10.073   0.551  10.207  2.0736 -2.2853 -0.8207
  434MOL0     H58580   9.892   0.646  10.309  0.4960 -1.1030 -0.6455
  434MOL0     H58581  10.032   0.683  10.395 -0.4764 -0.0722  0.1529
  434MOL0     H58582   9.820   0.465  10.483  0.3370  0.0685 -0.0586
  434MOL0     H58583   9.830   0.635  10.528  1.4725  1.9649 -1.2407
  434MOL0     H58584  10.051   0.432  10.614 -0.8936 -0.5350  1.7773
  434MOL0     H58585  10.048   0.609  10.639 -1.0561 -0.4589  1.9613
  434MOL0     H58586   9.783   0.408  10.901  2.6487 -1.1473  0.6607
  434MOL0     H58587  10.291   0.249  10.463 -0.6010  0.0782 -0.0187
  434MOL0     H58588  10.497   0.130  10.513  1.1034 -1.1381 -0.6830
  434MOL0     H58589  10.601   0.151  10.376  1.9320  2.0722 -0.3667
  434MOL0     H58590  10.638   0.228  10.528 -0.5162  0.4397 -0.1077
  435MOL0     O58591   0.670   8.241  10.171 -0.4334 -0.5108  0.2495
  435MOL0     C58592   0.592   8.253  10.078 -0.1899  1.2256 -0.2738
  435MOL0     O58593   0.616   8.269   9.948  0.3440 -0.6131  0.8367
  435MOL0     C58594   0.751   8.273   9.897 -0.0513  0.7975 -0.5673
  435MOL0     C58595   0.861   8.308   9.963 -0.6840  0.0506 -0.2692
  435MOL0     C58596   0.986   8.305   9.903  0.6654  1.2366  0.0003
  435MOL0     C58597   1.002   8.270   9.767 -0.3318  0.3030 -0.7148
  435MOL0     O58598   1.124   8.268   9.698  0.2242  0.0685 -0.6293
  435MOL0     C58599   1.240   8.329   9.754  0.8621 -0.2099  0.0193
  435MOL0     C58600   1.365   8.285   9.677  0.5489 -0.8222  1.3533
  435MOL0     C58601   1.367   8.306   9.531  0.3962 -0.6239  0.5077
  435MOL0     C58602   1.510   8.272   9.483  0.5007  0.4828  0.6355
  435MOL0     C58603   1.536   8.334   9.352  0.3804  0.6164 -0.0824
  435MOL0     C58604   1.674   8.306   9.294 -0.2066 -0.0537  0.0538
  435MOL0     C58605   1.695   8.388   9.170 -0.2305 -0.3306 -0.7080
  435MOL0     C58606   1.622   8.323   9.050 -0.7128 -0.0833 -0.2822
  435MOL0     N58607   1.646   8.185   9.019 -0.1470 -0.5608 -0.0444
  435MOL0     C58608   1.753   8.152   8.945 -0.2702 -0.2078  0.5689
  435MOL0     C58609   1.725   8.023   8.913  0.0675 -0.7050  0.3418
  435MOL0     C58610   1.810   7.925   8.825 -0.4363  0.5174  0.4928
  435MOL0     C58611   1.741   7.895   8.687  0.3231  0.0695  0.3464
  435MOL0     C58612   1.819   7.817   8.580 -0.0738  0.2890 -0.4271
  435MOL0     C58613   1.912   7.701   8.627  0.7833  0.8335  0.4678
  435MOL0     O58614   2.031   7.751   8.692  0.4317 -0.4545  0.1293
  435MOL0     C58615   2.104   7.668   8.768 -0.1206 -0.1467  0.3131
  435MOL0     C58616   2.058   7.617   8.884 -0.1156 -1.1057  0.7064
  435MOL0     C58617   2.133   7.546   8.969 -0.5458  0.2932 -0.2446
  435MOL0     C58618   2.269   7.523   8.940  0.9400  0.4644  0.6784
  435MOL0     C58619   2.356   7.457   9.033 -0.8379  0.3553 -0.7650
  435MOL0     O58620   2.490   7.469   9.011 -0.5178  1.1054 -0.3745
  435MOL0     C58621   2.589   7.456   9.109 -0.1034  0.6819 -0.5366
  435MOL0     C58622   2.716   7.426   9.061  0.8409 -0.3501  0.1602
  435MOL0     C58623   2.824   7.412   9.137  1.2005 -0.8007 -0.4778
  435MOL0     C58624   2.806   7.430   9.276  0.0905 -0.4349 -0.4857
  435MOL0     O58625   2.900   7.430   9.373  0.1014  0.1720 -0.0562
  435MOL0     C58626   3.025   7.492   9.343  0.4327  0.1709 -0.8104
  435MOL0     C58627   3.083   7.545   9.472 -0.7730 -0.1390 -0.0920
  435MOL0     C58628   3.236   7.580   9.457 -0.0217 -0.5739  0.9018
  435MOL0     C58629   3.310   7.606   9.579 -0.1651  0.3938 -0.1137
  435MOL0     C58630   3.270   7.736   9.648 -0.1265 -1.2294  0.8786
  435MOL0     C58631   3.337   7.768   9.783  0.8077  0.2647  0.4034
  435MOL0     C58632   3.489   7.777   9.767 -0.7066  0.2582 -0.2585
  435MOL0     C58633   3.556   7.815   9.907  1.4407 -0.6198  0.4989
  435MOL0    Cl58634   3.735   7.808   9.872 -0.0368 -0.2429  0.0201
  435MOL0     C58635   2.685   7.457   9.330  0.2894  0.0761 -0.0044
  435MOL0     C58636   2.576   7.471   9.248  0.2755 -1.0710 -0.3999
  435MOL0     O58637   2.305   7.400   9.127 -0.0972 -0.4741  0.5263
  435MOL0     C58638   2.315   7.566   8.810 -0.3518  0.3102 -0.6854
  435MOL0     C58639   2.233   7.644   8.719  0.5555  0.2273 -1.0782
  435MOL0     N58640   1.605   7.985   8.960  0.3870  0.4448  0.0232
  435MOL0     N58641   1.550   8.082   9.031  0.0329  0.3357 -0.4209
  435MOL0     C58642   0.890   8.238   9.692  0.0102  0.9130  0.6034
  435MOL0     C58643   0.761   8.248   9.757 -0.1081  0.0944  0.0873
  435MOL0     C58644   0.443   8.258  10.111  0.4322  1.1724  0.2583
  435MOL0     C58645   0.354   8.286   9.995  0.7081 -0.3896 -0.3575
  435MOL0     C58646   0.217   8.303  10.015 -0.1996 -0.3789  0.1852
  435MOL0     C58647   0.163   8.300  10.142 -0.0761  0.4444 -1.3722
  435MOL0     O58648   0.029   8.321  10.161  0.6629 -0.4304 -0.6361
  435MOL0     C58649  -0.028   8.394  10.271 -0.5212 -0.1848  0.2802
  435MOL0     C58650  -0.013   8.544  10.263  0.0076  0.0523 -0.8247
  435MOL0     C58651  -0.084   8.622  10.144 -0.3656  0.7838 -0.3999
  435MOL0     C58652  -0.207   8.703  10.181 -0.2074 -1.0678 -0.9187
  435MOL0     C58653  -0.326   8.632  10.216 -0.1742  0.5216  0.5010
  435MOL0     C58654  -0.431   8.577  10.221  0.9645 -0.1586 -0.7713
  435MOL0     C58655   0.248   8.259  10.252 -0.2634 -0.8887 -0.1495
  435MOL0     C58656   0.378   8.232  10.237 -0.4708  0.8942  0.6085
  435MOL0     C58657   0.455   8.182  10.355  0.1960  0.2230 -0.4794
  435MOL0     H58658   0.871   8.347  10.064  0.6566 -1.3885  0.1828
  435MOL0     H58659   1.073   8.330   9.963  2.3914 -1.3368 -1.2371
  435MOL0     H58660   1.244   8.438   9.753 -0.4649 -0.1074 -2.8693
  435MOL0     H58661   1.258   8.293   9.856  0.7406  1.6599  0.7371
  435MOL0     H58662   1.372   8.177   9.689 -1.5107 -1.7095 -3.3382
  435MOL0     H58663   1.439   8.348   9.728 -0.4514  0.8817  0.8085
  435MOL0     H58664   1.331   8.408   9.514  0.0878 -0.8644 -0.3613
  435MOL0     H58665   1.299   8.237   9.481  0.1239  0.2813 -0.4154
  435MOL0     H58666   1.587   8.310   9.551  1.4605 -0.8635  0.3394
  435MOL0     H58667   1.526   8.164   9.481  0.3154  0.4455  0.9850
  435MOL0     H58668   1.460   8.306   9.278 -0.6466 -0.4743  1.3274
  435MOL0     H58669   1.518   8.442   9.360  1.7715  1.0774 -2.3139
  435MOL0     H58670   1.749   8.329   9.370 -1.6699  3.5412  0.5819
  435MOL0     H58671   1.675   8.199   9.270 -2.5539 -0.4487  1.4979
  435MOL0     H58672   1.803   8.382   9.155 -0.4115 -4.8739 -1.5446
  435MOL0     H58673   1.659   8.488   9.199 -1.4532 -0.4769 -1.6280
  435MOL0     H58674   1.517   8.354   9.059 -0.1350  1.6662  1.1868
  435MOL0     H58675   1.662   8.374   8.961  1.3716 -2.2816 -0.7085
  435MOL0     H58676   1.844   8.202   8.913 -0.7796  0.6383  0.4159
  435MOL0     H58677   1.911   7.961   8.804  0.7612 -3.0143 -0.4389
  435MOL0     H58678   1.821   7.830   8.879  0.0185 -0.3370 -1.0606
  435MOL0     H58679   1.652   7.833   8.699  0.0097  0.4366 -0.0625
  435MOL0     H58680   1.701   7.992   8.656  0.0209 -0.6039 -1.4895
  435MOL0     H58681   1.884   7.886   8.526 -0.0654 -0.3065 -1.2003
  435MOL0     H58682   1.744   7.783   8.509 -2.3753  1.5727  1.2714
  435MOL0     H58683   1.942   7.644   8.538 -0.4854 -3.5110  2.5591
  435MOL0     H58684   1.868   7.629   8.697 -0.5883  0.2966 -0.8900
  435MOL0     H58685   1.951   7.626   8.899  0.0396 -1.6336  2.2638
  435MOL0     H58686   2.087   7.493   9.052  0.9756 -0.3600  0.2004
  435MOL0     H58687   2.732   7.412   8.955 -0.6062  2.3579 -0.5065
  435MOL0     H58688   2.923   7.392   9.097  1.1053 -0.4571 -0.8793
  435MOL0     H58689   3.091   7.421   9.292 -0.5973  0.2928 -2.3637
  435MOL0     H58690   3.022   7.574   9.272 -1.5701 -0.3270 -1.3635
  435MOL0     H58691   3.022   7.628   9.508 -1.9922 -0.3868 -1.5297
  435MOL0     H58692   3.081   7.464   9.546 -0.8012 -0.5003 -0.4808
  435MOL0     H58693   3.281   7.491   9.411  2.0668  0.7371  0.2860
  435MOL0     H58694   3.249   7.654   9.378 -1.7837 -0.6752  0.4737
  435MOL0     H58695   3.416   7.615   9.555 -0.1415  2.5777  0.5758
  435MOL0     H58696   3.284   7.532   9.656  1.0700 -0.2025 -0.2440
  435MOL0     H58697   3.162   7.753   9.662 -0.2922 -0.5466 -0.9760
  435MOL0     H58698   3.300   7.811   9.575  2.6627 -1.4409  1.6930
  435MOL0     H58699   3.292   7.856   9.829 -0.2880 -0.1236  0.1043
  435MOL0     H58700   3.315   7.679   9.843  1.7197 -0.2332  0.0323
  435MOL0     H58701   3.514   7.863   9.705 -2.2516  1.0646  0.1958
  435MOL0     H58702   3.539   7.688   9.727  2.0833  1.7667 -0.4033
  435MOL0     H58703   3.534   7.916   9.943  3.1806 -0.7219  1.9947
  435MOL0     H58704   3.518   7.751   9.986 -0.9954  0.4806  0.3231
  435MOL0     H58705   2.653   7.453   9.434 -0.2815 -1.6461 -0.2222
  435MOL0     H58706   2.480   7.500   9.289  0.9904 -1.8367  1.9664
  435MOL0     H58707   2.422   7.561   8.794 -0.2592 -0.5764  0.1098
  435MOL0     H58708   2.264   7.677   8.620  3.8487 -2.1491 -1.0272
  435MOL0     H58709   0.898   8.215   9.586  1.8196  0.8328  0.7255
  435MOL0     H58710   0.681   8.225   9.686 -0.0492  0.8830 -0.2466
  435MOL0     H58711   0.393   8.289   9.894 -0.6356 -2.1236 -0.9808
  435MOL0     H58712   0.154   8.323   9.929 -0.4141 -2.5244 -0.1900
  435MOL0     H58713   0.020   8.359  10.363  0.4426 -2.4310 -1.0116
  435MOL0     H58714  -0.135   8.369  10.266 -0.1029 -2.1664  0.3987
  435MOL0     H58715   0.092   8.567  10.245 -0.6384  4.0583 -0.3711
  435MOL0     H58716  -0.036   8.577  10.365 -1.9954 -1.3048 -0.7729
  435MOL0     H58717  -0.098   8.551  10.062  4.0061  0.0966 -0.8262
  435MOL0     H58718  -0.013   8.695  10.102  1.5761 -1.1679 -0.7131
  435MOL0     H58719  -0.184   8.767  10.266  1.2478 -2.4002 -0.2587
  435MOL0     H58720  -0.220   8.764  10.091  3.0287 -1.6164 -1.8931
  435MOL0     H58721  -0.523   8.523  10.227  1.2945 -0.5446  3.1929
  435MOL0     H58722   0.215   8.250  10.355  3.8406 -3.4389  1.1928
  435MOL0     H58723   0.496   8.083  10.335 -2.5164 -0.8995 -0.8945
  435MOL0     H58724   0.528   8.255  10.392 -0.2728 -0.4257  1.9056
  435MOL0     H58725   0.393   8.159  10.442  0.0500 -1.0235 -0.9074
  436MOL0     O58726   1.011   0.395   5.743 -0.5196  0.2652 -0.4819
  436MOL0     C58727   0.939   0.437   5.656  0.3653  0.8424 -0.6560
  436MOL0     O58728   0.937   0.572   5.621  0.4227 -0.1941  0.6608
  436MOL0     C58729   1.034   0.647   5.682 -0.1807 -0.5821 -0.5563
  436MOL0     C58730   1.015   0.715   5.799 -0.2274 -0.0278 -0.6513
  436MOL0     C58731   1.124   0.781   5.865 -0.1511  0.3167 -0.1518
  436MOL0     C58732   1.252   0.786   5.815 -0.2032 -0.0105 -0.2306
  436MOL0     O58733   1.346   0.847   5.888 -0.1841 -0.3912 -0.3699
  436MOL0     C58734   1.468   0.892   5.833 -0.1238 -0.6892 -0.1739
  436MOL0     C58735   1.569   0.928   5.945 -0.0746  0.4260  1.0713
  436MOL0     C58736   1.668   1.031   5.903  0.0343 -0.1253  0.1868
  436MOL0     C58737   1.778   0.976   5.811  0.4490 -0.2144  0.7536
  436MOL0     C58738   1.901   1.076   5.819  0.4981 -0.7598  0.2812
  436MOL0     C58739   2.019   1.044   5.728  0.1471  0.0840  0.0863
  436MOL0     C58740   2.145   1.128   5.775 -0.1052  0.1215  0.4457
  436MOL0     C58741   2.127   1.273   5.798  0.5899 -0.6883 -0.9451
  436MOL0     N58742   2.240   1.338   5.866  0.3459 -0.0548 -0.1744
  436MOL0     C58743   2.243   1.358   5.999  0.7532 -0.0810  0.4201
  436MOL0     C58744   2.367   1.372   6.032 -0.5881  0.7787 -0.2483
  436MOL0     C58745   2.422   1.383   6.167 -0.0224  0.4703 -0.2419
  436MOL0     C58746   2.436   1.241   6.233 -0.7268 -0.1850 -0.1900
  436MOL0     C58747   2.499   1.248   6.369 -0.1221 -0.3079  0.3194
  436MOL0     C58748   2.531   1.110   6.426  0.0888  0.1326  0.6663
  436MOL0     O58749   2.625   1.125   6.537  0.9712 -0.0082  0.3792
  436MOL0     C58750   2.741   1.048   6.541 -0.2181  0.6136 -0.0207
  436MOL0     C58751   2.856   1.106   6.602  0.8482 -0.4735 -0.0404
  436MOL0     C58752   2.976   1.034   6.622  0.9776 -0.0610  0.5729
  436MOL0     C58753   2.988   0.909   6.555  0.1482  0.2259 -0.1750
  436MOL0     C58754   3.125   0.841   6.539  1.0640  0.0442  0.9810
  436MOL0     O58755   3.127   0.728   6.455  0.3119  0.8876 -0.4940
  436MOL0     C58756   3.238   0.652   6.428  0.1807  0.3726 -0.4066
  436MOL0     C58757   3.365   0.704   6.398  0.0739 -0.3725  0.2163
  436MOL0     C58758   3.479   0.625   6.377 -1.1199 -0.3218 -0.5803
  436MOL0     C58759   3.466   0.490   6.401 -0.0830 -0.1857  0.5429
  436MOL0     O58760   3.563   0.397   6.388  0.1816 -0.2354  0.4859
  436MOL0     C58761   3.659   0.410   6.278 -0.8832  0.1140 -0.3733
  436MOL0     C58762   3.581   0.381   6.144 -0.0509 -0.6928 -0.3362
  436MOL0     C58763   3.665   0.323   6.024  0.2729 -0.0561  0.3152
  436MOL0     C58764   3.814   0.356   6.046 -0.3206 -0.1684  0.2240
  436MOL0     C58765   3.901   0.337   5.915 -0.1167 -0.9317 -0.6152
  436MOL0     C58766   3.891   0.203   5.850 -0.4915 -1.2722  1.2224
  436MOL0     C58767   4.027   0.178   5.778  0.0044 -0.0298 -0.3763
  436MOL0     C58768   4.002   0.069   5.663  0.0797 -0.5748  0.1051
  436MOL0    Cl58769   3.905  -0.073   5.722 -0.2459  0.4365  0.1190
  436MOL0     C58770   3.341   0.435   6.436 -0.7318 -0.3389 -0.3736
  436MOL0     C58771   3.226   0.515   6.455 -0.7619  0.0937  0.6103
  436MOL0     O58772   3.222   0.879   6.602  0.2019  0.5354  0.4047
  436MOL0     C58773   2.877   0.849   6.501 -0.2083 -0.5694  0.2144
  436MOL0     C58774   2.752   0.921   6.494 -0.7712  0.9221 -0.5613
  436MOL0     N58775   2.443   1.358   5.909 -0.3328 -0.2884 -0.0705
  436MOL0     N58776   2.366   1.338   5.812  0.2655  0.3165  1.0220
  436MOL0     C58777   1.275   0.712   5.694  0.6131  0.4070  0.5290
  436MOL0     C58778   1.164   0.647   5.627  0.6969 -0.7426  0.4274
  436MOL0     C58779   0.848   0.350   5.580 -0.4359  0.8555  0.1087
  436MOL0     C58780   0.790   0.244   5.649 -0.1499  0.5014  0.3932
  436MOL0     C58781   0.680   0.177   5.598  0.4851  0.3341 -0.7200
  436MOL0     C58782   0.627   0.212   5.470  0.7585  0.9835 -0.7845
  436MOL0     O58783   0.508   0.147   5.438  0.2115 -0.2951 -0.3111
  436MOL0     C58784   0.489   0.097   5.307  0.0958  0.7867  0.6075
  436MOL0     C58785   0.414  -0.038   5.315  0.1941  0.2463 -0.0613
  436MOL0     C58786   0.493  -0.132   5.406  0.0386  0.5580  0.8130
  436MOL0     C58787   0.424  -0.269   5.421  0.4042  0.7994 -0.7882
  436MOL0     C58788   0.508  -0.352   5.514  0.0341  0.4159  0.1137
  436MOL0     C58789   0.575  -0.413   5.593  0.0293 -0.8970 -1.0439
  436MOL0     C58790   0.686   0.311   5.398 -0.5185 -1.0950 -0.3957
  436MOL0     C58791   0.801   0.379   5.447 -0.2659  0.4094  0.0504
  436MOL0     C58792   0.868   0.488   5.363 -1.0713  0.5610  0.2749
  436MOL0     H58793   0.920   0.705   5.850  0.4988 -0.2805  0.7245
  436MOL0     H58794   1.103   0.836   5.956 -2.5192 -1.2974  0.3885
  436MOL0     H58795   1.507   0.813   5.769  0.8390  0.1608 -0.6659
  436MOL0     H58796   1.454   0.977   5.765  2.3190 -1.5951 -1.9469
  436MOL0     H58797   1.622   0.843   5.988 -1.0441  0.3363  2.1463
  436MOL0     H58798   1.511   0.974   6.026 -0.1653  0.1281  1.1771
  436MOL0     H58799   1.724   1.054   5.995 -0.2097 -0.6090  0.4619
  436MOL0     H58800   1.630   1.129   5.871 -1.5488 -0.8367 -0.2189
  436MOL0     H58801   1.814   0.879   5.845  0.0566 -0.2292  1.1470
  436MOL0     H58802   1.735   0.983   5.711  0.6635  1.2048  0.7302
  436MOL0     H58803   1.860   1.174   5.791 -0.3504 -1.0151  0.6016
  436MOL0     H58804   1.929   1.078   5.924  1.4116  1.3271  0.0480
  436MOL0     H58805   2.052   0.940   5.738 -0.5150  0.0502  2.7387
  436MOL0     H58806   1.996   1.063   5.623  1.7798 -1.0794 -0.5309
  436MOL0     H58807   2.209   1.133   5.686  1.2654  2.5139  1.4642
  436MOL0     H58808   2.192   1.085   5.864 -0.9293 -0.4337  0.6248
  436MOL0     H58809   2.116   1.326   5.703  0.2992 -2.0518 -1.7033
  436MOL0     H58810   2.041   1.280   5.865  1.2044 -2.0353  0.0300
  436MOL0     H58811   2.154   1.365   6.060 -0.5156  4.4172 -1.5127
  436MOL0     H58812   2.517   1.436   6.170 -1.3453  2.9696  1.5449
  436MOL0     H58813   2.352   1.434   6.234 -0.0636 -1.7628  1.5399
  436MOL0     H58814   2.339   1.189   6.239 -0.7791  0.0705  1.6721
  436MOL0     H58815   2.491   1.164   6.178  0.7491  1.7375 -1.5223
  436MOL0     H58816   2.438   1.304   6.441  0.5976  1.3376 -0.3043
  436MOL0     H58817   2.594   1.302   6.361  0.5174 -0.9764  2.5719
  436MOL0     H58818   2.570   1.046   6.346 -1.8164 -0.8143  0.4291
  436MOL0     H58819   2.438   1.058   6.450  0.1824 -0.2439  0.2414
  436MOL0     H58820   2.861   1.196   6.662  2.4752 -1.8224  2.0073
  436MOL0     H58821   3.053   1.074   6.686  0.6462  0.4009  0.6870
  436MOL0     H58822   3.371   0.811   6.378 -1.1880 -0.4141 -0.5100
  436MOL0     H58823   3.576   0.664   6.348 -1.1607  0.4552  0.2697
  436MOL0     H58824   3.726   0.497   6.275  0.3551 -0.8051 -0.2974
  436MOL0     H58825   3.719   0.320   6.294 -0.1285  1.1374  3.4964
  436MOL0     H58826   3.499   0.314   6.173 -3.0831  2.3682 -1.1406
  436MOL0     H58827   3.526   0.468   6.107  0.5728 -0.6703 -1.2211
  436MOL0     H58828   3.657   0.214   6.024 -1.9084  0.0597  0.1000
  436MOL0     H58829   3.635   0.354   5.924 -0.6360  0.2895  0.6736
  436MOL0     H58830   3.849   0.302   6.135 -1.3436 -3.3165 -1.1289
  436MOL0     H58831   3.823   0.463   6.065 -1.1012 -0.6831  4.7264
  436MOL0     H58832   4.008   0.345   5.938  0.0890 -3.9634 -0.0915
  436MOL0     H58833   3.876   0.414   5.842  1.0937 -1.8463 -2.0337
  436MOL0     H58834   3.865   0.129   5.927 -0.1752 -1.4790  1.1339
  436MOL0     H58835   3.808   0.205   5.779 -0.1108 -0.0476  0.7939
  436MOL0     H58836   4.096   0.136   5.852 -0.7707 -1.3395 -0.3656
  436MOL0     H58837   4.075   0.266   5.735 -1.5639  0.6578 -0.7872
  436MOL0     H58838   3.964   0.117   5.572  1.3012  0.5365  0.1397
  436MOL0     H58839   4.096   0.024   5.631  0.4794  1.7651 -2.3884
  436MOL0     H58840   3.333   0.328   6.450 -2.2628 -0.5530 -2.4533
  436MOL0     H58841   3.126   0.479   6.471 -1.3584  1.4579  0.1558
  436MOL0     H58842   2.876   0.749   6.459 -2.3937 -0.3032 -0.4913
  436MOL0     H58843   2.671   0.858   6.459  1.1988 -2.8957  1.1019
  436MOL0     H58844   1.370   0.692   5.645  1.3346  0.8121  1.7462
  436MOL0     H58845   1.173   0.586   5.538 -0.3803 -2.3508  1.3635
  436MOL0     H58846   0.805   0.221   5.754 -1.8956 -0.7424  0.4183
  436MOL0     H58847   0.637   0.095   5.654  1.9625  2.9491  5.0009
  436MOL0     H58848   0.588   0.079   5.265 -0.9306 -3.2380 -0.5100
  436MOL0     H58849   0.440   0.165   5.237  1.0574  1.2142  0.3311
  436MOL0     H58850   0.384  -0.075   5.217 -2.4772 -1.6434  1.3379
  436MOL0     H58851   0.326  -0.021   5.378 -0.5990 -0.6152 -0.8997
  436MOL0     H58852   0.515  -0.098   5.507  1.5672 -2.4839  1.6376
  436MOL0     H58853   0.582  -0.144   5.343 -2.0051  1.8096 -2.5931
  436MOL0     H58854   0.328  -0.257   5.472  0.8889 -0.1661  0.4181
  436MOL0     H58855   0.413  -0.318   5.324  2.3358  1.2902 -1.3028
  436MOL0     H58856   0.630  -0.457   5.674 -1.5862  0.5830  0.9627
  436MOL0     H58857   0.643   0.351   5.307 -1.8486  2.2843  1.5307
  436MOL0     H58858   0.846   0.478   5.257  0.0554  2.9619 -0.2569
  436MOL0     H58859   0.826   0.586   5.388  0.5468  0.7246  2.6909
  436MOL0     H58860   0.976   0.491   5.380 -0.5437 -1.4335 -2.2962
  437MOL0     O58861   1.758   7.452   8.842  0.1801 -0.0370  0.4446
  437MOL0     C58862   1.659   7.453   8.921 -0.2490 -0.3388  0.3450
  437MOL0     O58863   1.661   7.396   9.038  0.6382 -0.1284 -0.1992
  437MOL0     C58864   1.762   7.309   9.065 -0.2076 -0.2235 -0.7012
  437MOL0     C58865   1.764   7.178   9.010  0.1595 -0.2933 -0.3526
  437MOL0     C58866   1.854   7.078   9.068 -0.4708  0.0663  0.0102
  437MOL0     C58867   1.950   7.113   9.160 -0.0809 -0.5838  0.8889
  437MOL0     O58868   2.046   7.015   9.198  0.2442 -0.2235 -0.0000
  437MOL0     C58869   2.166   7.074   9.255 -0.6225  0.1859 -0.0891
  437MOL0     C58870   2.280   6.974   9.233 -0.0552  0.4216 -0.0683
  437MOL0     C58871   2.380   6.986   9.352  0.0576  0.1447 -1.1664
  437MOL0     C58872   2.477   7.097   9.339  1.5640  0.3824  0.2460
  437MOL0     C58873   2.574   7.121   9.449 -0.2283  0.3567  0.2944
  437MOL0     C58874   2.669   6.997   9.459  0.1455 -0.5965 -0.0098
  437MOL0     C58875   2.797   7.014   9.548 -0.1503  0.0932  0.7059
  437MOL0     C58876   2.849   7.156   9.549 -0.6266 -0.6033  0.4710
  437MOL0     N58877   2.975   7.167   9.623  0.1412 -0.4437 -0.2772
  437MOL0     C58878   2.978   7.156   9.760 -0.4655  0.2201 -0.1264
  437MOL0     C58879   3.104   7.145   9.794 -0.2085  0.5033  0.3656
  437MOL0     C58880   3.148   7.113   9.933 -0.6499 -0.1089  0.2088
  437MOL0     C58881   3.044   7.151  10.041 -0.4248 -0.2181  0.2457
  437MOL0     C58882   3.108   7.153  10.176  0.3224  0.5644 -1.4698
  437MOL0     C58883   3.003   7.154  10.288  0.8364 -0.1264  0.1986
  437MOL0     O58884   2.947   7.285  10.308  0.0195 -0.1610  0.2762
  437MOL0     C58885   2.809   7.312  10.296  0.1634 -0.4614 -0.1653
  437MOL0     C58886   2.731   7.243  10.200 -0.6703  1.0119  0.7826
  437MOL0     C58887   2.589   7.247  10.209 -0.3699  1.3497  0.0098
  437MOL0     C58888   2.523   7.330  10.298  0.8404 -0.7503  0.1952
  437MOL0     C58889   2.374   7.318  10.312 -0.1333 -0.6573  0.0982
  437MOL0     O58890   2.328   7.363  10.427 -0.1196  0.0622 -0.1579
  437MOL0     C58891   2.195   7.343  10.467 -0.3393  0.5694  0.5605
  437MOL0     C58892   2.111   7.230  10.444 -0.3342  0.3309 -0.1204
  437MOL0     C58893   1.973   7.233  10.482 -0.1782 -0.3605 -0.2345
  437MOL0     C58894   1.928   7.346  10.546 -0.4973 -0.7714  0.8602
  437MOL0     O58895   1.794   7.358  10.581  0.2485  0.0305  0.2756
  437MOL0     C58896   1.756   7.433  10.701 -0.2617 -0.4312 -0.7043
  437MOL0     C58897   1.607   7.418  10.728 -0.7123  0.6647  0.1467
  437MOL0     C58898   1.569   7.265  10.730  1.1430 -0.0191 -0.6831
  437MOL0     C58899   1.411   7.261  10.746  0.2098  0.0952  0.1279
  437MOL0     C58900   1.347   7.123  10.737  0.3220 -0.7222  0.0018
  437MOL0     C58901   1.211   7.115  10.819  0.5457  0.2507 -0.2349
  437MOL0     C58902   1.113   7.233  10.776 -0.2708  0.1096  0.4941
  437MOL0     C58903   0.977   7.207  10.842 -0.0650 -0.0946  1.2346
  437MOL0    Cl58904   0.845   7.284  10.744 -0.1997  0.0715 -0.0288
  437MOL0     C58905   2.023   7.450  10.581  0.7792  0.6104 -0.2780
  437MOL0     C58906   2.152   7.448  10.549 -0.0629  0.5419 -0.5625
  437MOL0     O58907   2.303   7.273  10.227  0.0218 -0.0234  0.4850
  437MOL0     C58908   2.602   7.420  10.373  0.1638  0.3284 -0.8464
  437MOL0     C58909   2.743   7.407  10.377  0.8527  0.1790 -0.1821
  437MOL0     N58910   3.182   7.146   9.685 -0.5476 -0.0356  0.3851
  437MOL0     N58911   3.104   7.151   9.583  0.4554 -0.6083 -0.2107
  437MOL0     C58912   1.946   7.245   9.214  0.6746 -0.6032  0.7292
  437MOL0     C58913   1.857   7.347   9.162  0.9406 -0.7645 -0.9119
  437MOL0     C58914   1.547   7.542   8.890 -0.0730  0.2623 -0.4880
  437MOL0     C58915   1.538   7.572   8.754  0.4526 -0.5122 -0.4825
  437MOL0     C58916   1.436   7.654   8.714 -0.8523  0.2853 -0.4353
  437MOL0     C58917   1.346   7.711   8.800 -0.0463 -0.3335  0.2051
  437MOL0     O58918   1.251   7.778   8.728 -0.2343  0.0984 -0.2728
  437MOL0     C58919   1.156   7.851   8.811  0.3136  0.5631 -0.9431
  437MOL0     C58920   1.054   7.757   8.865 -0.8139  0.3714 -0.0072
  437MOL0     C58921   0.939   7.709   8.774 -1.3434  0.2647  0.3394
  437MOL0     C58922   0.826   7.637   8.848  0.1543 -0.8108  0.5559
  437MOL0     C58923   0.709   7.713   8.867  0.3568  0.2934  0.8744
  437MOL0     C58924   0.607   7.769   8.905  0.4378 -1.5929  0.0898
  437MOL0     C58925   1.359   7.695   8.937 -0.2756  1.1792 -0.0386
  437MOL0     C58926   1.456   7.609   8.983 -0.2176  0.2519  0.2155
  437MOL0     C58927   1.466   7.593   9.133 -0.4505  0.0827  0.2794
  437MOL0     H58928   1.699   7.148   8.929  0.2200 -3.0694  0.5484
  437MOL0     H58929   1.859   6.984   9.015  1.6864  1.2644 -2.1292
  437MOL0     H58930   2.193   7.169   9.209 -0.0072  0.1238  0.1368
  437MOL0     H58931   2.159   7.091   9.363  2.0146 -1.2369  0.3919
  437MOL0     H58932   2.332   6.981   9.137 -0.2399  1.3327 -0.1051
  437MOL0     H58933   2.224   6.880   9.240 -1.9709  1.4742 -0.4342
  437MOL0     H58934   2.432   6.890   9.354  1.2964  0.7460 -2.3646
  437MOL0     H58935   2.338   7.003   9.452  1.7969 -2.7185  0.1839
  437MOL0     H58936   2.537   7.084   9.248 -2.4651  0.2932 -2.6629
  437MOL0     H58937   2.425   7.191   9.315 -0.5107 -0.9864 -0.8611
  437MOL0     H58938   2.637   7.206   9.424  1.1701 -0.9044 -0.6419
  437MOL0     H58939   2.520   7.130   9.544 -2.6495 -0.6767 -0.8811
  437MOL0     H58940   2.619   6.907   9.497 -3.2101  0.1495 -2.2400
  437MOL0     H58941   2.695   6.970   9.356 -0.2250 -0.9383 -0.0167
  437MOL0     H58942   2.877   6.960   9.497 -0.4293  0.8239 -0.5330
  437MOL0     H58943   2.773   6.968   9.645 -1.1449 -1.4595 -0.2254
  437MOL0     H58944   2.852   7.200   9.449 -0.4344  0.8745  1.1000
  437MOL0     H58945   2.773   7.219   9.595 -0.7993 -1.1887  1.0077
  437MOL0     H58946   2.891   7.150   9.823  0.2486 -2.9090  0.7312
  437MOL0     H58947   3.172   7.007   9.945 -0.3229  0.2831  5.2193
  437MOL0     H58948   3.242   7.162   9.956 -0.1101 -0.1481 -1.7037
  437MOL0     H58949   3.013   7.253  10.021  0.8747  0.7878  2.8585
  437MOL0     H58950   2.959   7.085  10.024  1.8579 -2.4755 -4.0855
  437MOL0     H58951   3.173   7.241  10.184  1.3283 -0.3064  0.7215
  437MOL0     H58952   3.173   7.068  10.199 -1.9938 -0.9396 -0.0354
  437MOL0     H58953   3.037   7.113  10.383 -1.5500  1.6215  1.9214
  437MOL0     H58954   2.927   7.081  10.258 -0.4673  0.5723  1.6561
  437MOL0     H58955   2.764   7.167  10.130  1.1416  2.2405  0.2474
  437MOL0     H58956   2.529   7.185  10.143 -0.0758  3.1731 -2.0453
  437MOL0     H58957   2.142   7.139  10.395  2.2188  1.0101  0.0517
  437MOL0     H58958   1.903   7.150  10.468 -0.1184 -0.6724  1.1556
  437MOL0     H58959   1.818   7.402  10.786  1.0688  3.4317 -0.0546
  437MOL0     H58960   1.774   7.541  10.693 -0.8102 -0.3842 -1.3820
  437MOL0     H58961   1.576   7.456  10.826 -1.8833  1.6123 -0.5539
  437MOL0     H58962   1.558   7.475  10.648  1.0371  0.4105 -1.1698
  437MOL0     H58963   1.607   7.209  10.645  1.3706  1.0620 -1.3198
  437MOL0     H58964   1.611   7.209  10.814  0.4199 -0.4121 -0.5765
  437MOL0     H58965   1.369   7.317  10.662 -3.5127 -2.4804  0.0090
  437MOL0     H58966   1.377   7.319  10.832  2.1208  2.9679 -0.9094
  437MOL0     H58967   1.414   7.042  10.768 -1.3863 -1.8458  1.0002
  437MOL0     H58968   1.322   7.120  10.631 -0.8337  0.6329  0.2024
  437MOL0     H58969   1.161   7.019  10.800 -2.7706  1.4624  1.4884
  437MOL0     H58970   1.233   7.130  10.925  1.0573  0.0235 -0.3053
  437MOL0     H58971   1.110   7.256  10.669 -4.1005  0.4695  0.5254
  437MOL0     H58972   1.156   7.324  10.818  2.1361 -0.2217 -1.1026
  437MOL0     H58973   0.968   7.098  10.837 -1.1474  0.0310 -0.5702
  437MOL0     H58974   0.974   7.232  10.948  0.9230 -0.0825  1.2743
  437MOL0     H58975   1.994   7.531  10.648 -3.4595 -0.2210 -0.8463
  437MOL0     H58976   2.208   7.534  10.584 -0.8774  1.2418 -0.9226
  437MOL0     H58977   2.553   7.484  10.445  0.0705  0.4266 -0.9986
  437MOL0     H58978   2.802   7.460  10.452  1.2429 -2.8272  1.8137
  437MOL0     H58979   2.009   7.278   9.296  0.6240 -2.6235  1.6273
  437MOL0     H58980   1.844   7.444   9.208  0.1362 -0.2983 -2.0624
  437MOL0     H58981   1.606   7.532   8.680  2.4495  0.6207  0.6496
  437MOL0     H58982   1.439   7.682   8.609 -2.5371 -0.5897 -0.7520
  437MOL0     H58983   1.118   7.936   8.755 -0.4162  2.7565  2.5463
  437MOL0     H58984   1.189   7.904   8.902 -0.5716 -3.2634  1.8891
  437MOL0     H58985   1.008   7.806   8.951 -1.0272  0.0983  0.0375
  437MOL0     H58986   1.093   7.659   8.895 -3.5472 -1.2368 -1.2109
  437MOL0     H58987   0.984   7.634   8.708  0.2990 -0.7941  2.5282
  437MOL0     H58988   0.899   7.783   8.705 -4.1749 -1.7334 -0.3604
  437MOL0     H58989   0.795   7.557   8.781  0.6708  1.6257 -2.8252
  437MOL0     H58990   0.851   7.601   8.949 -0.6081  2.1631  1.8895
  437MOL0     H58991   0.506   7.801   8.925  0.8930  0.7305 -0.9991
  437MOL0     H58992   1.292   7.734   9.013  1.5464  0.0963  2.2453
  437MOL0     H58993   1.433   7.685   9.182  1.4124  2.0324 -1.8672
  437MOL0     H58994   1.413   7.506   9.172 -4.0805  1.0380 -2.0033
  437MOL0     H58995   1.573   7.582   9.153 -0.9151  0.9440  3.8954
  438MOL0     O58996   3.484   4.143   0.172  0.1109 -0.1131 -0.3240
  438MOL0     C58997   3.428   4.214   0.094  0.1996  0.3389 -0.6014
  438MOL0     O58998   3.300   4.234   0.090  0.4105 -0.4858 -0.4214
  438MOL0     C58999   3.208   4.147   0.155  0.8980 -0.8976  0.5791
  438MOL0     C59000   3.149   4.184   0.268 -0.2139  0.0430 -0.9778
  438MOL0     C59001   3.061   4.087   0.332 -0.0433 -0.4327 -0.2992
  438MOL0     C59002   3.027   3.959   0.273  0.0833 -0.3430  0.1765
  438MOL0     O59003   2.936   3.888   0.352 -0.2360 -0.5058  0.1495
  438MOL0     C59004   2.941   3.754   0.337 -0.1287  0.7145  0.4856
  438MOL0     C59005   2.842   3.684   0.437 -0.7015 -0.5903  0.0849
  438MOL0     C59006   2.912   3.661   0.568  0.5817 -0.1216  0.0940
  438MOL0     C59007   2.932   3.781   0.652 -0.1437 -0.5611  1.0879
  438MOL0     C59008   2.948   3.741   0.796  0.5948 -0.0864  0.1260
  438MOL0     C59009   2.978   3.867   0.883 -0.4077  0.2912 -0.5171
  438MOL0     C59010   2.957   3.843   1.033  0.3842  0.1153 -0.7548
  438MOL0     C59011   3.050   3.730   1.084  0.2699  0.2096  0.3231
  438MOL0     N59012   3.005   3.684   1.219  0.4033  0.6907  0.1527
  438MOL0     C59013   3.005   3.759   1.332  0.3735 -0.8343  0.1155
  438MOL0     C59014   2.945   3.687   1.429 -0.8264  0.1560  1.1705
  438MOL0     C59015   2.905   3.745   1.564 -0.3649 -0.0891  1.2537
  438MOL0     C59016   2.971   3.672   1.687 -0.8811 -0.0312 -0.6387
  438MOL0     C59017   3.089   3.736   1.746  0.8514 -0.0994  0.0411
  438MOL0     C59018   3.213   3.739   1.652 -0.6789  0.0408  1.1685
  438MOL0     O59019   3.340   3.747   1.727 -0.1239  0.1902  0.2220
  438MOL0     C59020   3.452   3.801   1.669  0.3028  0.4935  1.0409
  438MOL0     C59021   3.474   3.766   1.536 -0.5510  0.6779 -0.1819
  438MOL0     C59022   3.585   3.826   1.464  0.6793  0.7882 -0.2542
  438MOL0     C59023   3.672   3.915   1.532 -0.4773  1.3016 -0.2076
  438MOL0     C59024   3.781   3.984   1.463  0.0662  0.3110 -0.0596
  438MOL0     O59025   3.863   4.067   1.533 -1.0600 -0.2574 -0.2971
  438MOL0     C59026   3.953   4.145   1.462  0.2569  0.5479  0.2313
  438MOL0     C59027   3.923   4.223   1.352 -0.2480 -0.2456 -0.4451
  438MOL0     C59028   4.014   4.305   1.289  0.3099 -0.2469  1.0847
  438MOL0     C59029   4.147   4.313   1.331  1.0640  0.9934 -0.7569
  438MOL0     O59030   4.246   4.386   1.274 -0.1453 -0.7158  0.3943
  438MOL0     C59031   4.235   4.447   1.144  0.3873 -0.3639  0.0255
  438MOL0     C59032   4.167   4.577   1.172  0.4718 -0.6709 -0.2817
  438MOL0     C59033   4.243   4.696   1.224 -0.5741  0.5152  0.0013
  438MOL0     C59034   4.279   4.674   1.372 -0.1851 -0.2854 -0.6053
  438MOL0     C59035   4.373   4.783   1.420  0.4811 -0.1114 -0.0132
  438MOL0     C59036   4.461   4.733   1.538  0.0491 -0.5683 -0.4763
  438MOL0     C59037   4.389   4.711   1.666  0.9615 -0.1178  0.3677
  438MOL0     C59038   4.329   4.575   1.691  0.8746  0.5335  0.3604
  438MOL0    Cl59039   4.206   4.561   1.818  0.2621  0.0887  0.2829
  438MOL0     C59040   4.175   4.228   1.444 -0.8308 -0.3387  0.2473
  438MOL0     C59041   4.083   4.154   1.507 -0.1460  0.6418 -0.5089
  438MOL0     O59042   3.794   3.958   1.346 -0.6847 -0.1918 -0.3245
  438MOL0     C59043   3.653   3.939   1.668 -0.1423  0.3013 -0.0852
  438MOL0     C59044   3.546   3.879   1.739  0.2940  0.0025  0.1536
  438MOL0     N59045   2.899   3.568   1.368  0.5874 -0.0475  0.5099
  438MOL0     N59046   2.938   3.567   1.246 -0.1664 -0.4518  0.2911
  438MOL0     C59047   3.105   3.923   0.165 -0.1534  0.1353 -0.0482
  438MOL0     C59048   3.194   4.016   0.105  0.3545 -0.4525  0.4721
  438MOL0     C59049   3.507   4.273  -0.013  0.0981 -1.0592  0.1193
  438MOL0     C59050   3.429   4.333  -0.118 -0.2301  0.1460  0.6178
  438MOL0     C59051   3.491   4.364  -0.239 -0.0869 -0.0490  0.4311
  438MOL0     C59052   3.623   4.334  -0.263  0.3184  0.7004  0.1322
  438MOL0     O59053   3.687   4.352  -0.383 -0.0789 -0.4578  0.5593
  438MOL0     C59054   3.610   4.397  -0.498 -0.5189 -0.0659 -0.3673
  438MOL0     C59055   3.583   4.550  -0.487 -0.7261  0.2516 -0.0890
  438MOL0     C59056   3.703   4.634  -0.518  0.5507  0.8393  0.7304
  438MOL0     C59057   3.827   4.620  -0.429 -0.3714  0.1521  0.6645
  438MOL0     C59058   3.910   4.731  -0.488  0.4481  0.5609  0.1505
  438MOL0     C59059   3.977   4.826  -0.518  0.5498 -0.0612 -0.0073
  438MOL0     C59060   3.701   4.289  -0.154  0.4582 -0.9072  0.5407
  438MOL0     C59061   3.645   4.258  -0.033 -1.0865 -0.0331 -0.9714
  438MOL0     C59062   3.740   4.176   0.063  0.3804 -0.0122  0.1245
  438MOL0     H59063   3.143   4.280   0.319 -2.3580 -0.8043  0.5042
  438MOL0     H59064   3.017   4.113   0.428  1.9223 -0.2696  0.5996
  438MOL0     H59065   2.900   3.736   0.237  0.7786  1.4124 -0.0267
  438MOL0     H59066   3.046   3.725   0.342 -0.6022 -1.6770 -1.5212
  438MOL0     H59067   2.826   3.586   0.391 -0.8228  0.1013 -1.4150
  438MOL0     H59068   2.753   3.746   0.448 -0.5483 -0.8468  3.6814
  438MOL0     H59069   3.010   3.611   0.567  1.3379  0.9182  4.4828
  438MOL0     H59070   2.850   3.588   0.620 -1.6900  0.9246 -0.9873
  438MOL0     H59071   3.028   3.822   0.619 -0.9369  1.6330  1.3122
  438MOL0     H59072   2.860   3.862   0.637  0.2750 -0.4119 -0.2511
  438MOL0     H59073   2.848   3.709   0.827 -0.6897  2.5508 -1.0114
  438MOL0     H59074   3.024   3.662   0.800  3.7226  2.5947 -1.7637
  438MOL0     H59075   3.085   3.890   0.874 -0.3002  0.4087  0.8719
  438MOL0     H59076   2.926   3.957   0.851  2.1972  1.3760 -2.0311
  438MOL0     H59077   2.853   3.819   1.056  0.3268 -0.3424 -1.4450
  438MOL0     H59078   2.976   3.935   1.089 -1.9768 -1.0405  2.1963
  438MOL0     H59079   3.051   3.640   1.022  2.4532 -0.6271  1.4603
  438MOL0     H59080   3.158   3.750   1.085  1.2310 -3.8993 -1.1488
  438MOL0     H59081   3.049   3.858   1.341 -0.5444 -0.2635 -1.2526
  438MOL0     H59082   2.922   3.852   1.575 -0.1017 -0.3875  4.7749
  438MOL0     H59083   2.799   3.721   1.572 -0.7685  1.6617  1.4556
  438MOL0     H59084   2.889   3.659   1.758 -3.0709  0.4112 -2.9458
  438MOL0     H59085   3.004   3.573   1.653 -4.2524 -1.5915  0.2800
  438MOL0     H59086   3.104   3.685   1.842  0.9965 -1.2454 -0.5715
  438MOL0     H59087   3.055   3.839   1.762 -1.2163 -0.5890 -0.9420
  438MOL0     H59088   3.204   3.827   1.587  0.5069 -1.4005 -1.0880
  438MOL0     H59089   3.222   3.651   1.588  3.2241 -0.5945  2.3200
  438MOL0     H59090   3.415   3.694   1.480  0.8885  0.0649 -0.9587
  438MOL0     H59091   3.601   3.793   1.362  6.4971  0.3313  0.4148
  438MOL0     H59092   3.831   4.222   1.293 -0.8537 -1.6724  0.4600
  438MOL0     H59093   3.965   4.363   1.211 -1.2963  0.3904  2.4845
  438MOL0     H59094   4.336   4.458   1.102 -0.1087 -1.1905 -1.4575
  438MOL0     H59095   4.180   4.386   1.072 -0.1447 -0.4187  0.4750
  438MOL0     H59096   4.121   4.611   1.079  1.9059  2.3635  0.0056
  438MOL0     H59097   4.084   4.565   1.244  1.8190  1.0277  1.6681
  438MOL0     H59098   4.333   4.712   1.165 -0.8424  1.5025 -0.1561
  438MOL0     H59099   4.181   4.786   1.223 -1.6316 -0.1657  1.2124
  438MOL0     H59100   4.334   4.580   1.381 -0.2373 -0.5694 -2.7128
  438MOL0     H59101   4.191   4.667   1.437 -0.4882 -2.8664 -1.1589
  438MOL0     H59102   4.309   4.868   1.446 -2.7716 -2.2203 -0.4480
  438MOL0     H59103   4.437   4.823   1.341 -1.8743  0.9558 -1.5220
  438MOL0     H59104   4.516   4.641   1.515  0.3909 -0.9628  1.6843
  438MOL0     H59105   4.532   4.814   1.560  0.5308 -1.1022 -0.0426
  438MOL0     H59106   4.309   4.785   1.656  1.9057  0.6856 -2.1652
  438MOL0     H59107   4.449   4.743   1.752  0.6114  1.3710  0.0888
  438MOL0     H59108   4.283   4.540   1.598  2.4116  0.8469 -0.5454
  438MOL0     H59109   4.408   4.505   1.719 -0.2678 -0.0378  2.3395
  438MOL0     H59110   4.276   4.231   1.483 -0.8553 -0.5152  0.3245
  438MOL0     H59111   4.112   4.097   1.594 -1.4882  0.6283 -0.0430
  438MOL0     H59112   3.715   4.013   1.718 -0.1600  0.8701 -0.8929
  438MOL0     H59113   3.536   3.893   1.846  3.2380  3.3679  0.1597
  438MOL0     H59114   3.076   3.824   0.131 -2.0589  1.6284 -3.3051
  438MOL0     H59115   3.261   3.980   0.027  1.3165  3.5390 -0.8050
  438MOL0     H59116   3.321   4.344  -0.108 -0.6206 -1.3835 -1.2974
  438MOL0     H59117   3.425   4.412  -0.311  1.0816 -1.8425 -1.9698
  438MOL0     H59118   3.519   4.337  -0.501 -0.9298  0.3960  1.6649
  438MOL0     H59119   3.663   4.380  -0.592 -1.2802  0.1488 -0.8502
  438MOL0     H59120   3.550   4.582  -0.388  2.6560  0.5433  1.0546
  438MOL0     H59121   3.503   4.565  -0.561 -0.4785 -2.0279 -0.9054
  438MOL0     H59122   3.658   4.734  -0.517 -2.3004 -0.1999 -2.5940
  438MOL0     H59123   3.735   4.615  -0.621 -1.1627  1.1588  0.0957
  438MOL0     H59124   3.802   4.636  -0.323 -0.3427  0.9947  0.5502
  438MOL0     H59125   3.875   4.522  -0.437  1.1010  0.9321 -0.4273
  438MOL0     H59126   4.025   4.913  -0.559  0.9614  0.8315  2.2384
  438MOL0     H59127   3.804   4.257  -0.166  0.5022 -0.2094 -1.3113
  438MOL0     H59128   3.840   4.199   0.025 -0.8720  1.3847 -2.6448
  438MOL0     H59129   3.729   4.211   0.166 -3.2534 -2.7518  0.8697
  438MOL0     H59130   3.727   4.067   0.066 -1.1185  0.1682  0.8787
  439MOL0     O59131   1.210  10.487   6.261 -0.1325  0.0419  0.3274
  439MOL0     C59132   1.230  10.404   6.171 -0.3313 -1.2886  0.4319
  439MOL0     O59133   1.354  10.381   6.104  0.0861  0.1003  0.1766
  439MOL0     C59134   1.472  10.422   6.155 -0.1630  0.0759  0.6787
  439MOL0     C59135   1.528  10.354   6.262 -0.4158  0.7823 -1.2764
  439MOL0     C59136   1.643  10.406   6.321 -0.0755  0.7058  0.3910
  439MOL0     C59137   1.711  10.505   6.258 -0.6343  0.6409 -0.5525
  439MOL0     O59138   1.844  10.526   6.302  0.6542 -0.1200 -0.1891
  439MOL0     C59139   1.901  10.660   6.267 -0.0361  0.8784 -0.5569
  439MOL0     C59140   2.042  10.669   6.307 -0.1627  0.5571  0.9041
  439MOL0     C59141   2.139  10.605   6.215  0.6869  0.3499  0.2675
  439MOL0     C59142   2.281  10.656   6.250  0.0858  0.7522  0.7548
  439MOL0     C59143   2.388  10.577   6.166 -0.3163  0.5554  0.8170
  439MOL0     C59144   2.532  10.617   6.194 -1.1618 -0.4028 -0.1707
  439MOL0     C59145   2.564  10.749   6.116  0.0494 -0.1113  0.2272
  439MOL0     C59146   2.716  10.785   6.124 -0.1701 -0.5485  0.1083
  439MOL0     N59147   2.745  10.888   6.033  0.4032  0.2013 -0.3300
  439MOL0     C59148   2.733  11.019   6.066  0.2391  0.3791 -1.3507
  439MOL0     C59149   2.776  11.089   5.956  0.4750  0.1252  0.0081
  439MOL0     C59150   2.827  11.230   5.975  0.5033  0.3952  1.0428
  439MOL0     C59151   2.883  11.287   5.842  0.1644 -0.4808  0.4919
  439MOL0     C59152   2.772  11.326   5.733  0.1881  0.1528 -0.3243
  439MOL0     C59153   2.834  11.371   5.600 -0.8175 -0.0488 -0.1506
  439MOL0     O59154   2.884  11.509   5.622  0.1982  0.0514  0.1114
  439MOL0     C59155   2.950  11.563   5.518  0.3421 -0.1771 -0.0907
  439MOL0     C59156   2.934  11.520   5.383 -0.0315 -0.5130  0.4959
  439MOL0     C59157   3.011  11.582   5.282 -0.2882 -0.3002  0.1577
  439MOL0     C59158   3.105  11.681   5.309 -0.1925 -0.0419 -0.0485
  439MOL0     C59159   3.187  11.752   5.212 -0.7048 -0.3699  0.6889
  439MOL0     O59160   3.190  11.705   5.082  0.7129 -0.4462 -0.6225
  439MOL0     C59161   3.283  11.766   4.993 -0.2568 -0.3395  0.2246
  439MOL0     C59162   3.245  11.888   4.931  0.9282 -0.1641 -0.0109
  439MOL0     C59163   3.319  11.955   4.839 -0.2383  0.6249  0.8925
  439MOL0     C59164   3.443  11.905   4.802 -1.0258 -0.1381  0.3973
  439MOL0     O59165   3.536  11.955   4.708  0.4877  0.7312 -1.0723
  439MOL0     C59166   3.567  12.093   4.721 -0.7883  0.2407 -0.1131
  439MOL0     C59167   3.722  12.098   4.768  0.3010  0.2567 -0.4513
  439MOL0     C59168   3.822  12.029   4.682  0.4302 -0.3801 -0.0935
  439MOL0     C59169   3.966  12.068   4.728 -0.3607  0.1877 -0.6009
  439MOL0     C59170   4.080  11.986   4.661 -0.0061 -0.0567 -0.1052
  439MOL0     C59171   4.125  12.052   4.536 -0.3004  0.2804 -0.3374
  439MOL0     C59172   4.228  12.161   4.569 -0.5997 -0.4041  0.2635
  439MOL0     C59173   4.221  12.258   4.448  0.0352  0.3903  0.2268
  439MOL0    Cl59174   4.356  12.388   4.455 -0.0021  0.4336 -0.4742
  439MOL0     C59175   3.493  11.785   4.855  0.5108 -0.2134 -0.6955
  439MOL0     C59176   3.403  11.713   4.950 -0.4959  0.4107 -0.3452
  439MOL0     O59177   3.244  11.855   5.251  0.6239  0.0000 -0.6713
  439MOL0     C59178   3.144  11.702   5.447 -0.0726  0.7228 -0.0686
  439MOL0     C59179   3.060  11.643   5.548 -0.4904  1.3835  0.2407
  439MOL0     N59180   2.784  10.995   5.850  1.0237 -0.3632  0.5217
  439MOL0     N59181   2.778  10.875   5.905  0.1660  0.5468  0.4867
  439MOL0     C59182   1.662  10.570   6.148 -0.9374 -0.2971  0.5081
  439MOL0     C59183   1.546  10.529   6.091 -0.4361 -1.0984  0.2301
  439MOL0     C59184   1.111  10.336   6.111  0.0879  0.2695 -1.3472
  439MOL0     C59185   0.990  10.408   6.120  0.3321  0.0710  0.2749
  439MOL0     C59186   0.868  10.358   6.071 -0.1731  0.6590  0.0620
  439MOL0     C59187   0.869  10.245   5.998 -0.4104 -0.5739  0.1437
  439MOL0     O59188   0.755  10.205   5.937  0.3988 -0.5747 -0.2719
  439MOL0     C59189   0.747  10.127   5.815 -0.1467 -0.2364  0.8857
  439MOL0     C59190   0.610  10.123   5.761  0.9982  0.5696 -0.1526
  439MOL0     C59191   0.513  10.053   5.858  0.5428  0.5367 -0.1123
  439MOL0     C59192   0.383  10.021   5.790  0.4921  0.4854  0.3113
  439MOL0     C59193   0.323   9.907   5.868  0.3369  0.6845 -0.0208
  439MOL0     C59194   0.284   9.805   5.918  0.4259 -0.0200  0.4895
  439MOL0     C59195   0.987  10.172   6.000  0.6913 -0.1480 -0.2742
  439MOL0     C59196   1.112  10.211   6.054  0.6324 -0.4037  1.3384
  439MOL0     C59197   1.238  10.123   6.050  0.1933 -0.0119  0.1937
  439MOL0     H59198   1.492  10.267   6.313 -2.5183  0.8181 -2.5940
  439MOL0     H59199   1.694  10.354   6.402  1.5289  2.5955  0.6671
  439MOL0     H59200   1.896  10.688   6.161  1.1908  0.8304 -0.6406
  439MOL0     H59201   1.849  10.734   6.328 -0.3037  0.4545 -0.2673
  439MOL0     H59202   2.061  10.620   6.402  0.6540 -1.5872 -0.3011
  439MOL0     H59203   2.064  10.776   6.317 -4.4306  1.8865 -1.3333
  439MOL0     H59204   2.119  10.637   6.112 -0.5519 -2.2108 -0.3535
  439MOL0     H59205   2.113  10.500   6.224 -0.1625  0.6919  2.9673
  439MOL0     H59206   2.288  10.765   6.247 -2.1731  0.9495  0.9682
  439MOL0     H59207   2.300  10.638   6.356  0.2798 -1.8069  0.3494
  439MOL0     H59208   2.378  10.469   6.185 -2.2080  0.4235 -0.6546
  439MOL0     H59209   2.358  10.582   6.061 -2.0716 -3.3067  0.9522
  439MOL0     H59210   2.527  10.627   6.303  2.7676 -1.3919  0.2551
  439MOL0     H59211   2.620  10.553   6.182  0.9778  1.9085  1.9169
  439MOL0     H59212   2.494  10.830   6.140  0.1955 -0.2053  0.9893
  439MOL0     H59213   2.547  10.728   6.010 -0.4637 -1.6683  0.5984
  439MOL0     H59214   2.722  10.822   6.227 -1.1871  2.1566 -0.7231
  439MOL0     H59215   2.787  10.703   6.108  1.0019 -0.4325  3.7332
  439MOL0     H59216   2.712  11.054   6.166  2.0291 -0.7935 -0.5152
  439MOL0     H59217   2.747  11.294   6.013  2.4042  2.9288  1.0885
  439MOL0     H59218   2.895  11.223   6.061 -0.8267 -1.1120  2.0112
  439MOL0     H59219   2.939  11.380   5.854 -2.6799  1.4222  0.0429
  439MOL0     H59220   2.965  11.225   5.804  0.8163  2.2038 -3.0369
  439MOL0     H59221   2.697  11.396   5.770 -1.4372 -1.7505  0.1150
  439MOL0     H59222   2.711  11.237   5.713  2.0110 -0.6809 -2.6710
  439MOL0     H59223   2.758  11.369   5.521  2.1415 -0.6134 -3.2006
  439MOL0     H59224   2.911  11.307   5.557 -2.2015 -0.0496 -2.8720
  439MOL0     H59225   2.869  11.444   5.341 -0.7421  0.4290 -0.1419
  439MOL0     H59226   3.000  11.552   5.179 -1.6625 -2.8172  0.9482
  439MOL0     H59227   3.163  11.943   4.976  0.0137 -3.6938  3.0885
  439MOL0     H59228   3.278  12.047   4.798 -0.9908  0.1456  0.5451
  439MOL0     H59229   3.572  12.133   4.619  3.3440  2.7329  0.8519
  439MOL0     H59230   3.496  12.142   4.788  1.1538  2.8392  0.2206
  439MOL0     H59231   3.747  12.202   4.787 -2.9437  1.3386 -1.5109
  439MOL0     H59232   3.709  12.060   4.870 -4.6256 -0.3322 -1.0123
  439MOL0     H59233   3.795  11.925   4.702  0.8542  0.0324  3.3195
  439MOL0     H59234   3.810  12.058   4.578 -0.5500 -0.0980  0.0847
  439MOL0     H59235   3.972  12.053   4.836  1.4129  1.3876 -0.5039
  439MOL0     H59236   3.991  12.171   4.703  2.1915  0.6093  2.9404
  439MOL0     H59237   4.041  11.885   4.649 -4.1272  0.8289  3.3434
  439MOL0     H59238   4.171  11.979   4.722  2.6770  2.0159 -3.4761
  439MOL0     H59239   4.179  11.984   4.471  0.6434  0.2485  0.4548
  439MOL0     H59240   4.033  12.083   4.486 -0.6015 -0.1089 -0.0302
  439MOL0     H59241   4.326  12.114   4.579 -0.7051 -1.0289 -1.4109
  439MOL0     H59242   4.215  12.219   4.661  2.8462  1.8753 -0.5255
  439MOL0     H59243   4.235  12.201   4.356  0.2117  1.9415 -0.7466
  439MOL0     H59244   4.123  12.306   4.436 -0.4812 -0.9865 -1.5609
  439MOL0     H59245   3.585  11.738   4.819  1.3582  2.3406 -2.1094
  439MOL0     H59246   3.423  11.614   4.988 -1.0946  0.3263 -0.2391
  439MOL0     H59247   3.231  11.761   5.473  0.6660 -0.5501  0.4495
  439MOL0     H59248   3.079  11.669   5.652  1.5956 -1.6105  0.7089
  439MOL0     H59249   1.708  10.653   6.094  1.8276 -2.2336 -0.3256
  439MOL0     H59250   1.511  10.576   6.000  1.7135 -0.4927 -0.3404
  439MOL0     H59251   0.992  10.509   6.159  0.4596  0.6340 -1.1336
  439MOL0     H59252   0.772  10.408   6.073 -0.4483  0.2267 -1.3861
  439MOL0     H59253   0.783  10.024   5.825  4.2964  1.1003  0.7673
  439MOL0     H59254   0.825  10.173   5.754 -1.0858 -1.9618 -1.7651
  439MOL0     H59255   0.618  10.071   5.665  1.2241  2.2782 -1.0957
  439MOL0     H59256   0.574  10.223   5.734 -2.1136  0.3830  2.5709
  439MOL0     H59257   0.496  10.110   5.950 -2.1093 -1.7386  0.9526
  439MOL0     H59258   0.563   9.959   5.883 -0.5748  0.3772  1.7348
  439MOL0     H59259   0.319  10.109   5.806  1.8452  0.9342  4.4655
  439MOL0     H59260   0.397   9.999   5.684 -1.3481  0.2738  0.0718
  439MOL0     H59261   0.245   9.718   5.966  3.8655 -2.2685 -0.4449
  439MOL0     H59262   0.995  10.079   5.945 -1.5959  0.1096 -1.1308
  439MOL0     H59263   1.291  10.131   6.145  0.5405 -0.5630  0.0469
  439MOL0     H59264   1.214  10.021   6.020 -0.3932  0.0953  0.2701
  439MOL0     H59265   1.295  10.159   5.965 -1.1253 -0.5658 -0.9728
  440MOL0     O59266   5.896   9.445   0.351  0.3839  0.0215  0.1837
  440MOL0     C59267   5.980   9.356   0.359 -0.7096 -0.2084 -0.4528
  440MOL0     O59268   5.996   9.253   0.280 -0.1830 -0.2587  0.2845
  440MOL0     C59269   5.903   9.218   0.183  0.7071  0.5756 -0.6874
  440MOL0     C59270   5.841   9.308   0.097  0.4084  0.0396 -1.1041
  440MOL0     C59271   5.732   9.261   0.035 -0.4124  0.9499  0.0284
  440MOL0     C59272   5.675   9.133   0.050  1.0084 -0.0871 -0.0960
  440MOL0     O59273   5.550   9.117  -0.012  0.1318  0.2430  0.7351
  440MOL0     C59274   5.445   9.037   0.061 -0.2455  0.5856 -0.2915
  440MOL0     C59275   5.297   9.057   0.026  0.6982 -0.3511  0.6672
  440MOL0     C59276   5.251   9.194   0.089  0.4738 -0.6352  0.1380
  440MOL0     C59277   5.110   9.233   0.040  0.3420 -0.9612  0.3839
  440MOL0     C59278   5.072   9.384   0.055  0.0424  0.8266  0.2609
  440MOL0     C59279   5.077   9.422   0.204 -0.0932 -0.1218  0.1596
  440MOL0     C59280   4.992   9.541   0.244  0.4179  0.0131  0.4673
  440MOL0     C59281   4.985   9.576   0.397  0.3089  0.9151  1.2277
  440MOL0     N59282   4.927   9.471   0.478 -0.9182 -0.4418 -0.3817
  440MOL0     C59283   5.002   9.412   0.583  0.3276  0.4901 -0.1507
  440MOL0     C59284   4.906   9.336   0.643  0.2047  0.7956 -0.5585
  440MOL0     C59285   4.930   9.264   0.770  0.6150  1.1692 -0.6277
  440MOL0     C59286   5.035   9.141   0.751  0.5788 -0.2912 -0.6718
  440MOL0     C59287   5.013   9.034   0.858  0.0850 -0.2266 -0.2853
  440MOL0     C59288   5.092   8.906   0.837 -0.7943  0.1437  0.2762
  440MOL0     O59289   5.235   8.930   0.807  0.0934 -0.4046  0.0980
  440MOL0     C59290   5.324   8.933   0.910 -0.2428 -0.7135  0.7172
  440MOL0     C59291   5.296   8.921   1.048 -0.3019 -1.0984  0.0190
  440MOL0     C59292   5.401   8.925   1.138 -0.0933  0.2082  0.9651
  440MOL0     C59293   5.539   8.935   1.094  0.4953 -0.7208  1.1365
  440MOL0     C59294   5.647   8.927   1.186 -0.3226 -1.1446  0.7577
  440MOL0     O59295   5.761   8.908   1.116  0.4262  0.1882  0.5332
  440MOL0     C59296   5.876   8.907   1.188 -0.1810  0.0944  0.0331
  440MOL0     C59297   5.965   9.004   1.142  0.3737 -1.1616  0.1100
  440MOL0     C59298   6.094   9.027   1.213 -0.1381 -0.4524  0.0571
  440MOL0     C59299   6.122   8.937   1.325  0.2476 -0.6172  0.6405
  440MOL0     O59300   6.246   8.940   1.380  0.1165  0.6143 -0.4498
  440MOL0     C59301   6.286   9.075   1.404 -0.0787  0.7092  0.4959
  440MOL0     C59302   6.399   9.076   1.510  0.0045  0.2106  0.3069
  440MOL0     C59303   6.521   9.003   1.464 -0.5404  0.9318 -0.2889
  440MOL0     C59304   6.656   9.048   1.515  1.0084 -0.2913 -0.0259
  440MOL0     C59305   6.721   9.166   1.430 -0.4281 -0.5183 -0.1270
  440MOL0     C59306   6.861   9.200   1.476  0.1229 -0.5400  0.1949
  440MOL0     C59307   6.881   9.277   1.604  0.1097  0.0092  0.0244
  440MOL0     C59308   6.771   9.385   1.627  0.1627  0.1469  0.2451
  440MOL0    Cl59309   6.763   9.526   1.505 -0.3628 -0.3008  0.1864
  440MOL0     C59310   6.029   8.837   1.357  0.4787  0.3096 -0.8930
  440MOL0     C59311   5.905   8.819   1.292  0.8101 -0.1311  0.3886
  440MOL0     O59312   5.633   8.961   1.302 -0.9343  0.4906 -0.3223
  440MOL0     C59313   5.565   8.946   0.956 -0.0974  0.2352  0.5565
  440MOL0     C59314   5.454   8.943   0.870 -0.6041  0.7993 -0.3123
  440MOL0     N59315   4.781   9.349   0.578 -0.3032 -0.5725  0.1017
  440MOL0     N59316   4.795   9.433   0.485 -1.1373 -0.0326  0.1117
  440MOL0     C59317   5.745   9.050   0.137 -0.5829  0.6189 -0.3415
  440MOL0     C59318   5.858   9.089   0.198  0.0381  0.0291  0.5043
  440MOL0     C59319   6.095   9.371   0.457 -0.4298 -0.2409 -0.0165
  440MOL0     C59320   6.205   9.283   0.457  0.0868  0.3285  1.4826
  440MOL0     C59321   6.317   9.297   0.542  0.2387  0.5197  0.5434
  440MOL0     C59322   6.318   9.391   0.646  0.7830  0.3927 -0.5940
  440MOL0     O59323   6.409   9.392   0.760 -0.3490  0.0847  0.3644
  440MOL0     C59324   6.420   9.262   0.820  0.5308  0.3094  0.0420
  440MOL0     C59325   6.460   9.262   0.966 -0.3931 -0.2798  0.8663
  440MOL0     C59326   6.573   9.354   1.015  0.4237 -0.0217 -0.7831
  440MOL0     C59327   6.701   9.321   0.940  0.3990 -0.6774  0.1683
  440MOL0     C59328   6.755   9.190   0.979  0.1411 -1.0060 -0.3697
  440MOL0     C59329   6.776   9.079   1.003 -0.0784 -0.2605 -0.3147
  440MOL0     C59330   6.209   9.475   0.654 -0.2713  0.1259  0.6634
  440MOL0     C59331   6.096   9.462   0.568 -0.0340 -0.5760 -0.6108
  440MOL0     C59332   5.974   9.541   0.603  0.3691 -0.9216  0.4029
  440MOL0     H59333   5.864   9.414   0.084  0.8343  0.3063  1.3439
  440MOL0     H59334   5.673   9.324  -0.031  0.8901  0.3631 -1.7704
  440MOL0     H59335   5.463   8.929   0.057 -0.6874  0.5275 -0.8667
  440MOL0     H59336   5.450   9.056   0.169 -0.9359  2.4613 -0.5613
  440MOL0     H59337   5.223   8.988   0.067 -4.6762  3.3392 -1.7211
  440MOL0     H59338   5.283   9.056  -0.082  0.1782  0.5560  0.7176
  440MOL0     H59339   5.324   9.270   0.057  0.8377 -1.7784 -1.9207
  440MOL0     H59340   5.253   9.193   0.198  2.5834  1.0471  0.1909
  440MOL0     H59341   5.115   9.210  -0.067  2.1436 -0.6930  0.3816
  440MOL0     H59342   5.026   9.180   0.087 -1.8987  1.5762 -0.5275
  440MOL0     H59343   5.160   9.427   0.007  1.1945 -2.2477 -0.5985
  440MOL0     H59344   4.991   9.432  -0.001  0.2153  0.5863 -0.1995
  440MOL0     H59345   5.028   9.339   0.257  2.4674 -1.1859  1.0086
  440MOL0     H59346   5.184   9.425   0.224  0.7546 -2.2189 -3.2616
  440MOL0     H59347   4.887   9.527   0.217 -0.0297  1.1880  1.5118
  440MOL0     H59348   5.023   9.629   0.187 -1.0192  0.9035  1.0139
  440MOL0     H59349   5.084   9.612   0.425  0.9756 -0.6635  0.9468
  440MOL0     H59350   4.927   9.669   0.405 -0.4788  0.7277 -1.4408
  440MOL0     H59351   5.109   9.427   0.598  0.5002  2.4408 -2.5938
  440MOL0     H59352   4.977   9.333   0.841  1.9070 -2.0883  1.9566
  440MOL0     H59353   4.841   9.219   0.815  0.7957  0.9857 -0.4492
  440MOL0     H59354   5.018   9.099   0.651 -0.2811  1.3978 -1.2670
  440MOL0     H59355   5.136   9.180   0.762  0.2624 -0.1200  2.9614
  440MOL0     H59356   4.911   8.995   0.854 -1.1450  2.0305  3.3956
  440MOL0     H59357   5.029   9.080   0.956  0.7029  0.2354 -0.5933
  440MOL0     H59358   5.063   8.870   0.737  0.7729 -2.7783  0.7427
  440MOL0     H59359   5.079   8.833   0.917 -0.7573  0.8547  0.9346
  440MOL0     H59360   5.200   8.939   1.095  1.1653  1.0068  2.5122
  440MOL0     H59361   5.367   8.934   1.241 -1.9852  1.7720  0.2805
  440MOL0     H59362   5.945   9.062   1.052  0.0979  2.3742  2.2450
  440MOL0     H59363   6.163   9.106   1.185 -0.3210  0.4228  1.8709
  440MOL0     H59364   6.313   9.119   1.307 -0.3023  0.2658  0.2249
  440MOL0     H59365   6.210   9.144   1.443  0.7477  3.0976 -1.7749
  440MOL0     H59366   6.428   9.181   1.524  0.8962  0.0226 -0.0842
  440MOL0     H59367   6.362   9.029   1.602  0.8635 -3.1645 -0.9203
  440MOL0     H59368   6.515   8.899   1.499 -0.7783  1.6032  1.8153
  440MOL0     H59369   6.530   8.998   1.356  0.8281  0.2068 -0.1636
  440MOL0     H59370   6.727   8.966   1.524  1.9374  0.5415  0.5172
  440MOL0     H59371   6.641   9.084   1.617 -1.6214 -1.6652  0.1445
  440MOL0     H59372   6.660   9.256   1.426  0.2582 -0.0857 -1.9319
  440MOL0     H59373   6.730   9.127   1.328  2.3973 -1.9906  0.5808
  440MOL0     H59374   6.914   9.105   1.485  0.8463 -0.0507  1.3599
  440MOL0     H59375   6.906   9.260   1.397  0.5981  2.2295  2.3854
  440MOL0     H59376   6.979   9.327   1.607 -1.2027  2.9084 -1.2042
  440MOL0     H59377   6.867   9.205   1.685  1.6130 -3.0093 -2.2235
  440MOL0     H59378   6.673   9.337   1.635  0.6222 -0.5444  2.8199
  440MOL0     H59379   6.793   9.426   1.726  2.5059  2.1149 -0.9745
  440MOL0     H59380   6.055   8.781   1.446 -1.0687  1.6606  0.4761
  440MOL0     H59381   5.826   8.747   1.307 -0.6010  1.3667  0.4748
  440MOL0     H59382   5.662   8.953   0.907 -0.6082  0.0311 -0.5313
  440MOL0     H59383   5.475   8.932   0.765  0.5172 -0.8966  0.0575
  440MOL0     H59384   5.714   8.954   0.176  1.1055  1.3703  3.3731
  440MOL0     H59385   5.917   9.021   0.258  0.3016  1.2069  1.6091
  440MOL0     H59386   6.206   9.210   0.377 -1.6767  2.2657 -0.4525
  440MOL0     H59387   6.398   9.225   0.531  0.9402  1.5652 -1.5772
  440MOL0     H59388   6.493   9.203   0.764 -1.5587 -0.1310 -2.3850
  440MOL0     H59389   6.323   9.212   0.814 -0.0283  1.3731 -0.1436
  440MOL0     H59390   6.480   9.160   1.001 -1.9860 -0.0927  2.4910
  440MOL0     H59391   6.370   9.289   1.023 -0.8208 -0.3981  0.2514
  440MOL0     H59392   6.580   9.341   1.124 -1.5840 -1.1280 -0.7294
  440MOL0     H59393   6.547   9.459   0.999  0.9997  0.0994 -0.9244
  440MOL0     H59394   6.678   9.314   0.833  0.3981  0.4653  0.0872
  440MOL0     H59395   6.772   9.403   0.953 -0.6459  0.2431  0.1873
  440MOL0     H59396   6.786   8.973   1.020 -0.7304  0.0175  2.2164
  440MOL0     H59397   6.201   9.547   0.735  1.6127 -0.7221  1.6596
  440MOL0     H59398   5.941   9.600   0.518 -1.0131 -2.3185 -0.0766
  440MOL0     H59399   5.888   9.478   0.630 -0.1950  0.2323  1.3956
  440MOL0     H59400   5.996   9.598   0.694 -1.3672 -3.2990  2.4792
  441MOL0     O59401   7.820   0.983   7.813 -0.3530  0.5330  0.2755
  441MOL0     C59402   7.771   1.054   7.896 -1.2771  0.5364  0.6243
  441MOL0     O59403   7.832   1.174   7.948 -0.1626 -0.3332  0.4618
  441MOL0     C59404   7.956   1.207   7.903  0.3462  0.6283 -0.1757
  441MOL0     C59405   8.060   1.200   8.003 -0.0033 -1.3104  0.2476
  441MOL0     C59406   8.189   1.249   7.967  0.2606  0.7040  0.0692
  441MOL0     C59407   8.209   1.291   7.834  0.1150  0.3936 -0.6725
  441MOL0     O59408   8.324   1.358   7.791 -0.6567  0.0426 -0.4988
  441MOL0     C59409   8.435   1.271   7.792 -0.2964  0.7716 -0.4457
  441MOL0     C59410   8.564   1.346   7.791  0.5485  0.0421  0.5740
  441MOL0     C59411   8.603   1.417   7.657  0.2593  0.0844 -0.1430
  441MOL0     C59412   8.745   1.446   7.625 -0.5523 -0.3747  0.5056
  441MOL0     C59413   8.765   1.517   7.494 -0.2650  0.3120 -0.2193
  441MOL0     C59414   8.918   1.569   7.477 -0.2168  0.0745  0.0675
  441MOL0     C59415   8.952   1.620   7.340  0.1080 -0.3309 -0.2606
  441MOL0     C59416   9.101   1.635   7.322  0.1313  0.1017 -0.4713
  441MOL0     N59417   9.119   1.743   7.216  0.0460  0.3442 -0.1917
  441MOL0     C59418   9.176   1.865   7.245  0.0545 -0.6484 -0.0118
  441MOL0     C59419   9.172   1.939   7.128  0.5695  0.0923 -0.6784
  441MOL0     C59420   9.221   2.078   7.109  1.0324 -0.3882 -0.1361
  441MOL0     C59421   9.370   2.075   7.078 -0.8353  0.8762 -0.1467
  441MOL0     C59422   9.439   2.208   7.084 -0.4370  0.7207 -0.4407
  441MOL0     C59423   9.375   2.309   6.993  0.3445  0.2092  0.4454
  441MOL0     O59424   9.479   2.413   6.962 -0.1315  0.5155 -0.2264
  441MOL0     C59425   9.430   2.525   6.909  0.0972 -0.3616  0.4507
  441MOL0     C59426   9.309   2.540   6.849  0.3553  1.0035 -0.4350
  441MOL0     C59427   9.266   2.660   6.815  0.5889 -0.1805 -0.1531
  441MOL0     C59428   9.357   2.775   6.811  0.0496 -0.4127 -0.5611
  441MOL0     C59429   9.342   2.911   6.747 -0.1392 -0.8337 -0.5212
  441MOL0     O59430   9.217   2.928   6.699 -0.1409 -0.2287 -0.5425
  441MOL0     C59431   9.189   3.053   6.655 -0.4206  1.3526 -0.0949
  441MOL0     C59432   9.232   3.183   6.687 -0.2412 -0.4288  0.0091
  441MOL0     C59433   9.180   3.301   6.622  0.7737  0.0098 -0.2107
  441MOL0     C59434   9.075   3.288   6.532 -0.6867  0.1501 -0.1479
  441MOL0     O59435   9.033   3.398   6.466  0.0626 -0.1417 -0.4225
  441MOL0     C59436   8.947   3.482   6.536 -0.2277  0.1478  0.1700
  441MOL0     C59437   8.931   3.601   6.452 -0.0359 -0.6235  0.4337
  441MOL0     C59438   8.861   3.710   6.524  0.4019  0.4930  0.1721
  441MOL0     C59439   8.726   3.671   6.591  0.4940 -0.8388 -0.2631
  441MOL0     C59440   8.663   3.790   6.669 -1.5454  0.1759 -0.9043
  441MOL0     C59441   8.517   3.765   6.710  1.0477  0.0022 -0.6083
  441MOL0     C59442   8.446   3.877   6.791  0.0962  0.1930  0.7992
  441MOL0     C59443   8.322   3.823   6.862  0.9201 -0.1623  0.4287
  441MOL0    Cl59444   8.365   3.703   6.989  0.0402  0.0420 -0.2809
  441MOL0     C59445   9.023   3.167   6.507 -0.3338 -0.4140  0.5961
  441MOL0     C59446   9.080   3.054   6.568  0.5819  0.9048 -0.0203
  441MOL0     O59447   9.443   2.980   6.728  1.0177 -0.3577 -0.2192
  441MOL0     C59448   9.492   2.750   6.867  0.9867 -0.9112  0.1730
  441MOL0     C59449   9.520   2.628   6.918 -0.9703 -0.5315  0.0906
  441MOL0     N59450   9.116   1.855   7.035 -0.0365 -0.1257 -0.0126
  441MOL0     N59451   9.084   1.749   7.087 -0.2092  1.0884  0.1689
  441MOL0     C59452   8.109   1.297   7.745  0.3668  0.7290  0.5615
  441MOL0     C59453   7.980   1.255   7.781  0.3322  0.1047  0.5427
  441MOL0     C59454   7.645   1.019   7.965  0.6058 -0.2642 -0.9434
  441MOL0     C59455   7.592   1.112   8.053  0.4014 -0.1602 -0.3025
  441MOL0     C59456   7.474   1.083   8.127  0.0297  0.2431  0.2725
  441MOL0     C59457   7.405   0.964   8.112  0.3593 -0.1342 -0.0222
  441MOL0     O59458   7.287   0.934   8.175  0.5754  0.2330  0.6925
  441MOL0     C59459   7.235   1.024   8.283 -0.1132  0.1482  0.0855
  441MOL0     C59460   7.095   0.987   8.325 -0.7647 -0.2557 -0.2718
  441MOL0     C59461   6.980   1.026   8.239 -0.5139 -0.6018  0.7673
  441MOL0     C59462   6.849   0.994   8.324 -1.2431 -1.5297  0.3388
  441MOL0     C59463   6.737   0.986   8.235 -0.2966 -0.4443 -0.0596
  441MOL0     C59464   6.642   0.990   8.160 -0.6467 -0.1093 -0.2177
  441MOL0     C59465   7.457   0.871   8.029  0.1982 -0.0059  0.1556
  441MOL0     C59466   7.570   0.894   7.953  0.5595 -0.5926  0.7473
  441MOL0     C59467   7.606   0.787   7.849  0.2932  1.2622 -0.2829
  441MOL0     H59468   8.037   1.153   8.098 -3.1047 -2.1215 -0.7897
  441MOL0     H59469   8.271   1.249   8.038  1.8975  2.5863 -1.7115
  441MOL0     H59470   8.438   1.201   7.876  1.9022 -3.5373 -3.6805
  441MOL0     H59471   8.435   1.197   7.711  1.1000 -2.8497  2.5383
  441MOL0     H59472   8.645   1.277   7.819 -0.1049 -0.3187  1.6277
  441MOL0     H59473   8.555   1.429   7.861  2.1747  0.9758 -0.2645
  441MOL0     H59474   8.548   1.511   7.664  0.4036  0.2174 -0.7677
  441MOL0     H59475   8.564   1.355   7.576 -0.0692  0.4353 -0.2598
  441MOL0     H59476   8.777   1.519   7.700 -1.3585 -0.8413  1.3294
  441MOL0     H59477   8.806   1.357   7.643  0.9100  0.9090  2.2146
  441MOL0     H59478   8.734   1.456   7.409 -3.5754 -0.7257  1.5703
  441MOL0     H59479   8.709   1.611   7.489 -0.4953  0.1905  0.0587
  441MOL0     H59480   8.939   1.653   7.544 -0.0131  2.2035 -2.5186
  441MOL0     H59481   8.987   1.486   7.498 -3.2723 -3.1779 -1.8009
  441MOL0     H59482   8.916   1.723   7.332 -2.1447 -0.8702  1.7528
  441MOL0     H59483   8.909   1.557   7.262 -0.5722  1.8091 -1.7081
  441MOL0     H59484   9.156   1.646   7.416  0.7295 -1.9930 -0.5272
  441MOL0     H59485   9.136   1.537   7.288 -0.8492 -0.2796 -0.4244
  441MOL0     H59486   9.229   1.901   7.332  0.4802  0.1785 -0.6026
  441MOL0     H59487   9.166   2.123   7.027  0.3189 -2.7512 -1.0350
  441MOL0     H59488   9.208   2.141   7.198  3.0087 -0.7538  0.4656
  441MOL0     H59489   9.420   2.016   7.156  1.1720  1.5515 -0.8574
  441MOL0     H59490   9.383   2.026   6.981  1.1272 -1.2765  1.1083
  441MOL0     H59491   9.547   2.198   7.065  0.4743  0.7873  3.7296
  441MOL0     H59492   9.432   2.253   7.183  1.3734  0.7337 -0.2787
  441MOL0     H59493   9.286   2.350   7.043 -0.7263  1.7669 -2.5303
  441MOL0     H59494   9.341   2.262   6.900 -0.3004  3.2846 -0.9713
  441MOL0     H59495   9.239   2.457   6.851  1.8393 -0.3411 -1.7955
  441MOL0     H59496   9.167   2.673   6.772  1.5347  1.8195 -1.9301
  441MOL0     H59497   9.316   3.192   6.756  0.9039 -0.2010 -1.3621
  441MOL0     H59498   9.212   3.400   6.651 -0.3713 -0.0497  1.3983
  441MOL0     H59499   8.849   3.436   6.549 -0.6925  1.3146  0.9950
  441MOL0     H59500   8.985   3.515   6.633 -2.3482  1.3593  0.6634
  441MOL0     H59501   9.032   3.638   6.428  0.2107 -0.3663  1.7610
  441MOL0     H59502   8.880   3.566   6.362 -1.1661  0.3069  0.6982
  441MOL0     H59503   8.929   3.746   6.602 -1.8878  0.8135  2.1402
  441MOL0     H59504   8.841   3.795   6.458 -3.0758 -2.1800 -2.6547
  441MOL0     H59505   8.711   3.577   6.645 -1.6261 -0.3422  0.1397
  441MOL0     H59506   8.659   3.670   6.504  1.3469 -2.3363 -0.9252
  441MOL0     H59507   8.661   3.881   6.608 -0.1622  0.2433 -0.8815
  441MOL0     H59508   8.727   3.808   6.757  2.6757  2.0129 -4.0064
  441MOL0     H59509   8.450   3.761   6.623  0.7451  3.9478 -0.6979
  441MOL0     H59510   8.524   3.671   6.766  3.9845  0.8031  0.5023
  441MOL0     H59511   8.407   3.954   6.724 -0.2633 -2.6659 -2.5800
  441MOL0     H59512   8.524   3.913   6.858  0.1642  0.6768  0.4669
  441MOL0     H59513   8.259   3.898   6.909  0.2082  0.0418 -0.7948
  441MOL0     H59514   8.261   3.774   6.785 -0.6257 -2.0132  2.7026
  441MOL0     H59515   8.929   3.154   6.457 -0.5588 -1.6161  1.2897
  441MOL0     H59516   9.038   2.956   6.548  1.4834  0.5992 -0.4824
  441MOL0     H59517   9.570   2.826   6.860  2.9096 -2.9116 -4.1941
  441MOL0     H59518   9.622   2.619   6.953  0.6362  2.5350 -3.1630
  441MOL0     H59519   8.125   1.327   7.642 -1.5835 -0.3505 -0.1043
  441MOL0     H59520   7.895   1.255   7.714 -0.1324 -0.0903  1.1248
  441MOL0     H59521   7.636   1.210   8.069  1.2396 -0.7773  1.3342
  441MOL0     H59522   7.447   1.151   8.208  2.8003 -1.1881  2.5814
  441MOL0     H59523   7.223   1.125   8.244 -2.8037 -1.1214 -2.8194
  441MOL0     H59524   7.295   1.026   8.375 -2.0667  1.1339  1.3940
  441MOL0     H59525   7.096   1.019   8.429  1.5019 -1.7355  0.2444
  441MOL0     H59526   7.092   0.878   8.333 -1.8772 -0.3136 -1.2284
  441MOL0     H59527   6.986   0.964   8.150 -1.3358  1.0525 -0.4912
  441MOL0     H59528   6.985   1.131   8.208  0.1057 -1.3724 -2.0029
  441MOL0     H59529   6.864   0.896   8.370 -1.7560 -1.1942  1.2510
  441MOL0     H59530   6.845   1.066   8.406  4.1168  1.6765 -1.7229
  441MOL0     H59531   6.559   1.000   8.092  0.1845  0.2257 -1.2179
  441MOL0     H59532   7.401   0.778   8.017  2.1806 -1.0791 -1.2581
  441MOL0     H59533   7.604   0.834   7.750 -2.8408 -0.9181 -1.4125
  441MOL0     H59534   7.697   0.727   7.860 -0.5496 -0.6115 -2.4979
  441MOL0     H59535   7.524   0.715   7.839 -0.6267  2.4871 -2.1343
  442MOL0     O59536  10.330   1.383   1.259  0.2956 -0.1498 -0.1490
  442MOL0     C59537  10.275   1.487   1.222  0.4186 -0.9718  0.3675
  442MOL0     O59538  10.339   1.603   1.218  0.6759  0.1054  0.9592
  442MOL0     C59539  10.468   1.608   1.260 -0.7502  1.0503 -0.5097
  442MOL0     C59540  10.571   1.577   1.172 -0.1872 -0.7862 -0.3080
  442MOL0     C59541  10.705   1.601   1.202  0.3189  0.7990  0.4039
  442MOL0     C59542  10.740   1.627   1.337  0.3012 -0.6004  0.0174
  442MOL0     O59543  10.870   1.623   1.386 -0.1756 -0.3481 -0.6083
  442MOL0     C59544  10.967   1.623   1.291 -0.8377 -0.3628 -0.3913
  442MOL0     C59545  11.099   1.613   1.357 -0.1973 -0.1614  0.0537
  442MOL0     C59546  11.142   1.704   1.453  0.0683 -0.1311 -0.6655
  442MOL0     C59547  11.282   1.680   1.493 -0.6221 -0.2596 -1.1606
  442MOL0     C59548  11.380   1.717   1.388 -0.3460 -0.7947  0.1203
  442MOL0     C59549  11.514   1.739   1.456 -0.6689 -0.4879 -0.4525
  442MOL0     C59550  11.624   1.763   1.344  0.3960 -0.2030  0.8328
  442MOL0     C59551  11.648   1.643   1.244  0.0245 -0.2109 -0.2166
  442MOL0     N59552  11.785   1.635   1.198  0.3401 -0.4910 -0.4090
  442MOL0     C59553  11.851   1.718   1.107  0.7091  1.3284 -0.9780
  442MOL0     C59554  11.971   1.658   1.089 -0.4326 -0.2039 -0.4000
  442MOL0     C59555  12.083   1.711   1.012  0.2331  0.5653 -0.2271
  442MOL0     C59556  12.201   1.727   1.109 -0.0464  0.9662  0.3062
  442MOL0     C59557  12.328   1.786   1.036 -0.5571 -0.5911 -0.7664
  442MOL0     C59558  12.397   1.671   0.963  0.3379  0.6865  0.3931
  442MOL0     O59559  12.526   1.723   0.915  0.1794  0.8535  0.1410
  442MOL0     C59560  12.605   1.644   0.832  0.4678 -0.2185 -0.0095
  442MOL0     C59561  12.579   1.509   0.788  0.4548 -1.2183  0.4813
  442MOL0     C59562  12.665   1.457   0.688 -0.6055  0.1880 -0.0873
  442MOL0     C59563  12.776   1.532   0.633 -0.2190  0.2809  0.1306
  442MOL0     C59564  12.871   1.480   0.536 -0.8355 -0.3438  0.5648
  442MOL0     O59565  12.826   1.369   0.463 -0.2196 -0.4863  0.0042
  442MOL0     C59566  12.922   1.317   0.367  0.4053  0.6308 -0.3803
  442MOL0     C59567  13.046   1.269   0.411  0.6403 -0.1808  0.0394
  442MOL0     C59568  13.134   1.204   0.322 -0.0421 -0.2336  0.0549
  442MOL0     C59569  13.103   1.174   0.193 -0.3073  0.0270 -0.7016
  442MOL0     O59570  13.192   1.105   0.114 -0.2046 -0.2783 -0.4797
  442MOL0     C59571  13.155   1.084  -0.025 -0.4368 -0.3318  0.5605
  442MOL0     C59572  13.271   1.041  -0.110  0.5609  0.2200 -0.3360
  442MOL0     C59573  13.361   0.941  -0.038  0.4662 -0.7921 -0.2370
  442MOL0     C59574  13.498   0.922  -0.099 -1.1517 -0.4791 -0.1152
  442MOL0     C59575  13.495   0.805  -0.205  0.2142  0.2597 -1.3965
  442MOL0     C59576  13.494   0.838  -0.359  0.2921 -0.5501 -0.5596
  442MOL0     C59577  13.565   0.959  -0.408 -0.5279 -0.1442 -0.2670
  442MOL0     C59578  13.713   0.939  -0.400 -0.3565 -0.4921 -0.4612
  442MOL0    Cl59579  13.788   1.091  -0.475 -0.7034  0.1703 -0.4362
  442MOL0     C59580  12.974   1.212   0.149 -0.7705  0.1159  0.3438
  442MOL0     C59581  12.888   1.283   0.237 -0.6445  0.5915  0.3263
  442MOL0     O59582  12.982   1.544   0.519  0.3010  0.8114 -0.0444
  442MOL0     C59583  12.804   1.654   0.688  0.4770 -0.4628 -0.6819
  442MOL0     C59584  12.714   1.714   0.771  0.0390 -0.6813  0.4195
  442MOL0     N59585  11.969   1.537   1.151  0.4814  0.0735 -1.1171
  442MOL0     N59586  11.857   1.524   1.216  0.6020 -0.3331 -0.2766
  442MOL0     C59587  10.632   1.651   1.426 -0.4852 -0.1603  0.1942
  442MOL0     C59588  10.498   1.636   1.393  0.3517  0.1117 -0.0707
  442MOL0     C59589  10.133   1.477   1.187  0.5417 -0.3225  0.1543
  442MOL0     C59590  10.076   1.586   1.125  0.3074  0.0588 -0.1510
  442MOL0     C59591   9.941   1.590   1.073 -0.6423  0.2169 -0.3060
  442MOL0     C59592   9.864   1.468   1.089 -0.2809 -0.2970  1.0945
  442MOL0     O59593   9.747   1.452   1.021 -0.1987  0.4246  0.0821
  442MOL0     C59594   9.748   1.454   0.881  0.2358  0.5170 -0.4052
  442MOL0     C59595   9.622   1.387   0.826  0.5250  0.2146  0.1666
  442MOL0     C59596   9.600   1.246   0.853  0.0768  0.5032 -0.4324
  442MOL0     C59597   9.719   1.150   0.871  0.1067  0.1004  0.7572
  442MOL0     C59598   9.771   1.114   0.739  0.1285  0.3103  0.3692
  442MOL0     C59599   9.822   1.094   0.628 -0.0965 -0.7461  0.1391
  442MOL0     C59600   9.918   1.365   1.171  0.9539  0.4806  0.6875
  442MOL0     C59601  10.045   1.370   1.223 -0.7718  0.6201 -0.7615
  442MOL0     C59602  10.080   1.258   1.315 -0.7418  1.0206  0.1408
  442MOL0     H59603  10.551   1.556   1.068  0.1138 -1.9735 -0.1392
  442MOL0     H59604  10.783   1.585   1.128  0.2756  1.4687  0.2050
  442MOL0     H59605  10.957   1.530   1.234 -1.7461 -1.7238  1.8599
  442MOL0     H59606  10.965   1.715   1.231 -0.0754 -0.3928 -0.4797
  442MOL0     H59607  11.166   1.620   1.271 -1.2179 -1.0229 -0.8516
  442MOL0     H59608  11.106   1.513   1.401 -1.5564 -1.1905 -1.9314
  442MOL0     H59609  11.079   1.680   1.539  0.3890  0.9729 -0.0985
  442MOL0     H59610  11.121   1.803   1.412  0.7065 -0.0968 -0.9166
  442MOL0     H59611  11.302   1.744   1.580  2.7342  0.4540 -2.2959
  442MOL0     H59612  11.290   1.576   1.526  1.2886  0.9398  2.7649
  442MOL0     H59613  11.385   1.642   1.309 -4.9834 -0.1985 -1.0134
  442MOL0     H59614  11.366   1.813   1.338 -0.3992 -0.6264  0.4565
  442MOL0     H59615  11.523   1.821   1.527  3.2136 -0.2365 -1.0145
  442MOL0     H59616  11.547   1.649   1.510 -3.1563 -0.1367  1.9196
  442MOL0     H59617  11.719   1.782   1.395 -0.4352  3.1126  1.3728
  442MOL0     H59618  11.589   1.848   1.284 -1.6974 -1.1782  0.5941
  442MOL0     H59619  11.624   1.547   1.292 -1.2909 -0.1578 -0.7229
  442MOL0     H59620  11.583   1.664   1.158  0.0107  2.5607  0.3828
  442MOL0     H59621  11.823   1.815   1.068  0.8053  1.3671 -0.9510
  442MOL0     H59622  12.110   1.648   0.926 -0.2734  2.3841 -1.7831
  442MOL0     H59623  12.059   1.807   0.965 -0.8528 -0.4099 -1.7775
  442MOL0     H59624  12.177   1.796   1.190  0.5615  0.0631  1.2851
  442MOL0     H59625  12.216   1.629   1.156 -1.2940  1.2215  1.3056
  442MOL0     H59626  12.400   1.819   1.111 -0.6913 -1.1524 -0.3821
  442MOL0     H59627  12.302   1.871   0.972 -1.9241  0.9426  1.6872
  442MOL0     H59628  12.336   1.635   0.879 -0.4813  1.3418  0.6991
  442MOL0     H59629  12.403   1.586   1.032 -1.5696  0.5078  0.3769
  442MOL0     H59630  12.512   1.440   0.839  0.2639 -1.0922  0.4055
  442MOL0     H59631  12.645   1.358   0.649 -1.2599 -0.3884  1.5998
  442MOL0     H59632  13.076   1.288   0.513 -0.2343  0.0400  0.2702
  442MOL0     H59633  13.223   1.155   0.359 -1.6655 -1.9705  1.8776
  442MOL0     H59634  13.070   1.017  -0.038 -1.0392  0.9498 -3.4717
  442MOL0     H59635  13.123   1.177  -0.073 -0.0821  0.4051  1.7088
  442MOL0     H59636  13.232   0.997  -0.202  1.0054 -2.9713  0.8771
  442MOL0     H59637  13.329   1.128  -0.142 -1.7837  2.2044  0.5223
  442MOL0     H59638  13.376   0.962   0.068  0.9800 -1.9492 -0.0605
  442MOL0     H59639  13.313   0.843  -0.035  1.6932 -1.4281  2.9242
  442MOL0     H59640  13.564   0.886  -0.019  1.3796 -2.1611 -2.7409
  442MOL0     H59641  13.541   1.010  -0.146 -4.1177  1.4149  0.4325
  442MOL0     H59642  13.422   0.733  -0.166  1.3261  0.4083  1.1557
  442MOL0     H59643  13.593   0.758  -0.195 -0.2277 -0.9001 -2.2692
  442MOL0     H59644  13.532   0.749  -0.410  0.5742 -2.1502  2.2714
  442MOL0     H59645  13.387   0.850  -0.380 -0.2108 -0.2033  1.8882
  442MOL0     H59646  13.534   1.053  -0.361 -2.4435 -0.4180 -0.8948
  442MOL0     H59647  13.543   0.968  -0.515  2.4908 -0.3627 -1.0156
  442MOL0     H59648  13.751   0.923  -0.299 -0.2444 -2.3552 -0.7692
  442MOL0     H59649  13.735   0.849  -0.458 -1.0749 -1.5884  0.9141
  442MOL0     H59650  12.925   1.194   0.054 -2.9721  3.1294  0.7237
  442MOL0     H59651  12.787   1.305   0.203 -1.1992 -2.1402 -0.1107
  442MOL0     H59652  12.886   1.709   0.642 -0.2573  0.6883 -0.6599
  442MOL0     H59653  12.725   1.816   0.807  0.6215 -0.3564 -0.6516
  442MOL0     H59654  10.658   1.684   1.527  0.8665 -1.0545  0.1582
  442MOL0     H59655  10.419   1.669   1.460 -1.7319 -1.4441 -1.6416
  442MOL0     H59656  10.133   1.678   1.128 -1.3710  1.1219  0.8183
  442MOL0     H59657   9.899   1.672   1.016  2.3699  4.1522  2.5862
  442MOL0     H59658   9.830   1.392   0.843 -0.1883 -1.1229  1.1998
  442MOL0     H59659   9.762   1.558   0.849  1.5117  0.4462 -0.1406
  442MOL0     H59660   9.633   1.398   0.718  3.9499 -1.8971  0.1317
  442MOL0     H59661   9.542   1.451   0.864  0.1292  1.7656 -2.9936
  442MOL0     H59662   9.554   1.208   0.761  2.9952  0.4036 -1.9671
  442MOL0     H59663   9.534   1.237   0.940 -0.1786  1.2193 -0.5429
  442MOL0     H59664   9.793   1.191   0.941  0.5500  0.6729 -0.0319
  442MOL0     H59665   9.689   1.058   0.922  0.5955 -0.5027 -0.0164
  442MOL0     H59666   9.857   1.075   0.529  0.5302  1.3975 -0.1129
  442MOL0     H59667   9.844   1.291   1.200  0.6974  1.0619  1.5302
  442MOL0     H59668  10.149   1.183   1.276  0.0263  2.3300 -1.1256
  442MOL0     H59669  10.125   1.302   1.404  0.5008 -0.6439  0.3946
  442MOL0     H59670   9.988   1.203   1.335  1.0727 -2.3026  0.1767
  443MOL0     O59671   3.279   1.382   7.628 -0.0086 -0.6063 -0.9332
  443MOL0     C59672   3.324   1.311   7.717 -0.0114  0.8367 -0.5998
  443MOL0     O59673   3.253   1.258   7.822 -0.8399  0.3661 -0.3914
  443MOL0     C59674   3.124   1.256   7.799 -0.2255  0.0139 -0.1765
  443MOL0     C59675   3.062   1.130   7.795  0.3988 -0.5212  0.3697
  443MOL0     C59676   2.921   1.123   7.794  0.4358  0.1403  0.1821
  443MOL0     C59677   2.839   1.239   7.806  0.6645  0.3481  0.8041
  443MOL0     O59678   2.702   1.249   7.812 -0.5783 -0.6471  0.7618
  443MOL0     C59679   2.635   1.135   7.764  0.0625 -0.2148 -0.0745
  443MOL0     C59680   2.483   1.164   7.766 -0.9319 -0.4719 -0.4254
  443MOL0     C59681   2.435   1.307   7.789  0.0399 -0.2255  0.6793
  443MOL0     C59682   2.283   1.313   7.833 -0.2787 -0.7290 -0.7794
  443MOL0     C59683   2.196   1.395   7.745 -0.4919 -1.0573 -0.4835
  443MOL0     C59684   2.049   1.413   7.806 -0.5249 -0.1650 -0.0176
  443MOL0     C59685   1.952   1.467   7.707  0.9538  0.6736 -0.1475
  443MOL0     C59686   1.977   1.605   7.647 -0.3568 -0.0316 -0.7290
  443MOL0     N59687   2.074   1.610   7.531  0.3203  0.2949 -0.7945
  443MOL0     C59688   2.040   1.574   7.407 -0.1298 -0.8495 -0.3066
  443MOL0     C59689   2.149   1.606   7.326  0.4642 -0.7235 -0.4278
  443MOL0     C59690   2.180   1.594   7.183 -0.2985  0.2645  0.1898
  443MOL0     C59691   2.144   1.735   7.122  0.1035 -0.3798  0.5695
  443MOL0     C59692   2.139   1.740   6.968  0.7554  0.5405  0.3690
  443MOL0     C59693   2.027   1.649   6.906 -0.0969  0.7459 -0.6613
  443MOL0     O59694   1.899   1.681   6.968 -0.5202  0.3351 -0.2742
  443MOL0     C59695   1.807   1.750   6.897 -0.9860 -0.1314  0.0608
  443MOL0     C59696   1.670   1.735   6.928  1.0439 -0.4386  0.6428
  443MOL0     C59697   1.569   1.817   6.865  0.7467  0.8755  0.9699
  443MOL0     C59698   1.602   1.888   6.754 -0.9253  1.0306  0.4323
  443MOL0     C59699   1.505   1.955   6.673  0.6272  0.1648 -0.1442
  443MOL0     O59700   1.543   2.016   6.561  0.0889 -0.0153  0.0655
  443MOL0     C59701   1.497   2.126   6.506  0.4316 -0.3528 -0.6738
  443MOL0     C59702   1.363   2.163   6.500  0.1642 -1.1750 -0.2516
  443MOL0     C59703   1.322   2.276   6.425  0.5365 -0.1066 -0.3068
  443MOL0     C59704   1.421   2.363   6.370 -0.3455 -0.2366 -0.4733
  443MOL0     O59705   1.405   2.479   6.300 -0.2368 -0.8382 -0.7835
  443MOL0     C59706   1.275   2.531   6.271 -0.5806 -0.3950 -0.3728
  443MOL0     C59707   1.226   2.449   6.151  1.2482  0.5944  0.3174
  443MOL0     C59708   1.108   2.512   6.063  0.1612 -0.1213 -0.3626
  443MOL0     C59709   1.005   2.421   6.016  0.1751 -0.2485  0.0798
  443MOL0     C59710   0.931   2.474   5.893  0.2347 -0.4465 -0.5691
  443MOL0     C59711   0.799   2.394   5.872 -0.7129 -1.6486  0.0558
  443MOL0     C59712   0.722   2.461   5.751 -0.1642 -0.1873 -0.2234
  443MOL0     C59713   0.602   2.389   5.724  0.3117 -0.3180  0.6512
  443MOL0    Cl59714   0.644   2.236   5.629 -0.1493  0.3409  0.1825
  443MOL0     C59715   1.559   2.323   6.387  0.3259 -1.1609 -0.4402
  443MOL0     C59716   1.596   2.208   6.451  1.4880  0.6121 -0.2575
  443MOL0     O59717   1.391   1.970   6.726  0.8686 -0.5154  0.0888
  443MOL0     C59718   1.746   1.892   6.715 -0.4995  0.2059  0.1805
  443MOL0     C59719   1.840   1.830   6.791 -0.1277  0.3327  0.4963
  443MOL0     N59720   2.245   1.660   7.414  0.3199  0.4637  0.6368
  443MOL0     N59721   2.201   1.661   7.535  0.8245  0.8413 -0.0641
  443MOL0     C59722   2.905   1.366   7.798  0.2857 -0.4220  0.4609
  443MOL0     C59723   3.044   1.372   7.797 -0.1233 -0.4839 -0.2327
  443MOL0     C59724   3.474   1.285   7.716 -0.4987  0.2729 -0.6399
  443MOL0     C59725   3.551   1.400   7.706  0.5067 -0.1577 -0.5313
  443MOL0     C59726   3.686   1.398   7.717 -0.7262  0.3875 -0.0331
  443MOL0     C59727   3.752   1.273   7.724 -0.4010  1.0499 -0.5429
  443MOL0     O59728   3.891   1.272   7.749 -0.1529 -0.9044 -0.8347
  443MOL0     C59729   3.983   1.316   7.650 -0.1958  0.7265 -0.3075
  443MOL0     C59730   4.065   1.430   7.707  0.0989  0.3333 -0.5131
  443MOL0     C59731   4.153   1.500   7.601  0.1499  0.2013 -0.3217
  443MOL0     C59732   4.282   1.409   7.590 -0.4809  0.3616 -1.0897
  443MOL0     C59733   4.271   1.286   7.513 -0.4315 -0.2710 -0.1169
  443MOL0     C59734   4.264   1.175   7.466 -1.0884  0.0800  0.5475
  443MOL0     C59735   3.676   1.159   7.748  0.1390  0.1742 -0.4724
  443MOL0     C59736   3.536   1.160   7.735  0.4070  0.6472  0.2000
  443MOL0     C59737   3.459   1.029   7.751  0.1221 -0.9086 -1.2897
  443MOL0     H59738   3.119   1.037   7.794 -1.8966 -2.0445  1.5150
  443MOL0     H59739   2.878   1.023   7.797  1.6278 -0.3548  1.3496
  443MOL0     H59740   2.670   1.114   7.662 -2.8813  1.1628 -1.4955
  443MOL0     H59741   2.649   1.051   7.833 -0.7770 -0.6969 -0.4820
  443MOL0     H59742   2.438   1.096   7.840 -2.7581  0.6737 -0.4221
  443MOL0     H59743   2.467   1.121   7.667  0.7164  1.0896 -1.4064
  443MOL0     H59744   2.445   1.358   7.692  2.3714 -3.6347 -1.1095
  443MOL0     H59745   2.500   1.357   7.861  1.0954 -1.0337  0.3278
  443MOL0     H59746   2.240   1.213   7.844  0.6388 -1.1939 -1.2807
  443MOL0     H59747   2.285   1.351   7.936  0.3275 -0.5069 -0.8645
  443MOL0     H59748   2.245   1.491   7.728  1.7260 -2.0096  0.2458
  443MOL0     H59749   2.190   1.346   7.647 -0.7822 -0.1718 -0.9204
  443MOL0     H59750   2.011   1.316   7.841  2.4293 -2.2349 -2.0272
  443MOL0     H59751   2.051   1.482   7.891 -2.0771 -1.9567  1.5934
  443MOL0     H59752   1.854   1.483   7.752  0.3441  1.9487 -1.8417
  443MOL0     H59753   1.950   1.391   7.629  1.6488 -0.4615  0.9060
  443MOL0     H59754   1.882   1.641   7.608 -0.1536 -0.1918 -1.3808
  443MOL0     H59755   2.000   1.674   7.729  2.1048 -2.3276  0.6916
  443MOL0     H59756   1.968   1.508   7.361 -0.1081  0.6479 -2.6412
  443MOL0     H59757   2.283   1.562   7.169 -0.6440 -0.8370  0.0592
  443MOL0     H59758   2.123   1.512   7.138 -1.6725  1.0447  0.4346
  443MOL0     H59759   2.052   1.781   7.157  0.8368  0.1838  1.8251
  443MOL0     H59760   2.227   1.802   7.144 -0.7540  1.5091 -1.5675
  443MOL0     H59761   2.232   1.720   6.915 -1.3076  1.0094 -3.7938
  443MOL0     H59762   2.109   1.840   6.935  0.9464 -0.1493 -2.0221
  443MOL0     H59763   2.053   1.545   6.929 -1.6321 -0.2638 -3.1194
  443MOL0     H59764   2.033   1.657   6.797  1.3586 -1.3102 -0.7982
  443MOL0     H59765   1.646   1.666   7.008  1.6380 -1.1664  0.2166
  443MOL0     H59766   1.474   1.820   6.917  1.0289  1.9608  1.4662
  443MOL0     H59767   1.286   2.095   6.535 -0.5977 -1.6797 -2.7302
  443MOL0     H59768   1.220   2.307   6.406  0.4986  0.5141  0.8378
  443MOL0     H59769   1.211   2.527   6.359  2.6739  1.1167  2.3187
  443MOL0     H59770   1.288   2.632   6.228 -1.7457 -0.2682 -0.4664
  443MOL0     H59771   1.311   2.438   6.083  3.1905  0.0829  2.7127
  443MOL0     H59772   1.210   2.345   6.181 -1.5158  0.6021 -0.8246
  443MOL0     H59773   1.064   2.579   6.136  0.8846 -2.3594  2.3283
  443MOL0     H59774   1.149   2.571   5.981 -0.4740 -0.0804 -0.6503
  443MOL0     H59775   0.940   2.413   6.104 -0.4466  1.9461 -0.1196
  443MOL0     H59776   1.043   2.321   5.991 -0.8825 -0.3323 -1.2944
  443MOL0     H59777   0.999   2.471   5.808  0.2591  0.6068 -0.6034
  443MOL0     H59778   0.916   2.578   5.924  0.0753 -1.2697  2.5233
  443MOL0     H59779   0.830   2.294   5.842 -1.2529 -2.4411  2.0331
  443MOL0     H59780   0.744   2.393   5.966 -0.1245  0.3141  0.4803
  443MOL0     H59781   0.778   2.454   5.657 -0.1682 -1.0753 -0.1693
  443MOL0     H59782   0.690   2.562   5.776 -2.5345 -1.1505  0.9559
  443MOL0     H59783   0.551   2.351   5.814 -1.8713 -1.1613 -0.8466
  443MOL0     H59784   0.520   2.444   5.677 -2.2003 -3.4647  0.9695
  443MOL0     H59785   1.625   2.386   6.329  0.4277 -1.9604 -1.2169
  443MOL0     H59786   1.693   2.161   6.454  0.8455 -0.7486 -0.0765
  443MOL0     H59787   1.783   1.942   6.626 -1.5249 -0.0033 -0.3826
  443MOL0     H59788   1.945   1.837   6.767  0.0425 -2.3181  0.1826
  443MOL0     H59789   2.859   1.463   7.810  2.4808  1.2123 -2.8193
  443MOL0     H59790   3.105   1.461   7.806 -0.2635 -0.4391  0.3180
  443MOL0     H59791   3.509   1.499   7.716 -0.5981 -0.6831  0.2572
  443MOL0     H59792   3.738   1.493   7.726  0.3639 -0.1606 -0.3596
  443MOL0     H59793   3.936   1.360   7.561  0.1330 -1.3931 -1.5934
  443MOL0     H59794   4.037   1.225   7.622 -3.7785 -1.4724 -0.7312
  443MOL0     H59795   4.118   1.398   7.798  0.5621 -0.6887 -1.1206
  443MOL0     H59796   3.993   1.505   7.740  0.2791  1.1175 -1.8469
  443MOL0     H59797   4.179   1.597   7.645 -1.3744  0.5034 -0.0413
  443MOL0     H59798   4.114   1.517   7.501 -0.0232 -1.7923 -0.6207
  443MOL0     H59799   4.373   1.453   7.547  1.1373 -1.8377 -0.1525
  443MOL0     H59800   4.315   1.378   7.690 -1.3785 -1.5788 -1.3601
  443MOL0     H59801   4.248   1.081   7.416  2.1953  1.2891 -3.3525
  443MOL0     H59802   3.715   1.070   7.796 -2.4279  0.0292  1.6028
  443MOL0     H59803   3.510   0.957   7.686 -0.3366  0.0548 -2.7456
  443MOL0     H59804   3.449   1.004   7.858 -0.7069 -1.1583 -1.4172
  443MOL0     H59805   3.355   1.027   7.718 -0.4543  2.3256  0.0378
  444MOL0     O59806  10.293   0.670   6.206 -0.6496 -0.1422 -0.4111
  444MOL0     C59807  10.223   0.703   6.114 -0.5057  0.3567  0.0715
  444MOL0     O59808  10.264   0.731   5.981 -0.2696 -0.4602 -0.3377
  444MOL0     C59809  10.403   0.738   5.966 -0.4539  0.3535  0.7716
  444MOL0     C59810  10.489   0.617   5.945  0.3350  0.3076 -0.0197
  444MOL0     C59811  10.618   0.627   5.885  0.1737  0.0889  0.9205
  444MOL0     C59812  10.664   0.749   5.856  0.6338 -0.6101 -0.8079
  444MOL0     O59813  10.793   0.762   5.818  0.6899  0.7359  0.3774
  444MOL0     C59814  10.859   0.865   5.876 -0.1481 -0.2133  0.6351
  444MOL0     C59815  10.976   0.918   5.782 -0.6652  0.4746 -0.3397
  444MOL0     C59816  11.111   0.865   5.835 -0.8267 -0.4190 -0.4840
  444MOL0     C59817  11.217   0.955   5.783 -0.2174 -0.2971  0.5030
  444MOL0     C59818  11.354   0.897   5.799  0.2574  0.3147  0.8176
  444MOL0     C59819  11.461   0.973   5.710  0.3251  0.0852 -0.3880
  444MOL0     C59820  11.484   0.904   5.579 -0.4338  0.5765 -0.1289
  444MOL0     C59821  11.596   0.968   5.498 -0.4608  0.0906 -0.0074
  444MOL0     N59822  11.731   0.947   5.544  0.4276 -0.5113 -0.7627
  444MOL0     C59823  11.823   0.861   5.480  0.3270  0.0074  1.0505
  444MOL0     C59824  11.937   0.888   5.543  0.3900 -0.1025  0.1785
  444MOL0     C59825  12.064   0.836   5.488  0.5032 -0.2098  0.9513
  444MOL0     C59826  12.164   0.950   5.456 -0.1618  0.1813 -0.7563
  444MOL0     C59827  12.285   0.899   5.374 -0.2379 -0.1317  0.3082
  444MOL0     C59828  12.383   1.014   5.375 -0.4764 -0.4717 -0.1441
  444MOL0     O59829  12.505   0.976   5.305 -0.0325  0.0503 -0.1181
  444MOL0     C59830  12.627   1.029   5.340 -0.0773  0.2446  0.7755
  444MOL0     C59831  12.661   1.155   5.302  0.1632 -0.4246  0.5677
  444MOL0     C59832  12.782   1.215   5.342 -0.9314 -0.3916  0.1801
  444MOL0     C59833  12.886   1.133   5.390  0.1255 -0.5616 -0.5463
  444MOL0     C59834  13.026   1.178   5.423 -0.1088  0.4541  0.0873
  444MOL0     O59835  13.065   1.297   5.372 -0.2415  0.4894  0.2363
  444MOL0     C59836  13.198   1.318   5.365 -0.5233  0.9809 -0.0736
  444MOL0     C59837  13.300   1.294   5.465 -0.5438 -0.3825  0.1978
  444MOL0     C59838  13.436   1.293   5.431  1.5346 -0.7089 -0.1772
  444MOL0     C59839  13.474   1.318   5.305  0.2252  0.1159  0.0155
  444MOL0     O59840  13.613   1.328   5.262  0.4863  0.1714  0.1467
  444MOL0     C59841  13.716   1.345   5.357 -0.2805 -0.1797 -0.9334
  444MOL0     C59842  13.837   1.372   5.277  0.2875  0.0568  0.3624
  444MOL0     C59843  13.958   1.428   5.345  0.0446 -0.8523 -0.0954
  444MOL0     C59844  14.084   1.429   5.260  0.0817  0.7067  0.2010
  444MOL0     C59845  14.210   1.499   5.296  0.3713  0.6861  0.0264
  444MOL0     C59846  14.204   1.648   5.253 -0.4067  0.2243 -0.3880
  444MOL0     C59847  14.310   1.732   5.313 -0.3364 -0.5007  0.7248
  444MOL0     C59848  14.448   1.667   5.308  0.4432  0.8103 -0.1589
  444MOL0    Cl59849  14.564   1.801   5.328  0.4188  0.0098  0.0389
  444MOL0     C59850  13.379   1.335   5.210 -0.4658 -1.5555 -0.1580
  444MOL0     C59851  13.243   1.333   5.237  0.2066  0.3126  0.9862
  444MOL0     O59852  13.104   1.098   5.479  0.3335  0.1995  0.2091
  444MOL0     C59853  12.847   1.003   5.423 -0.5615  0.7572 -0.4800
  444MOL0     C59854  12.722   0.942   5.400  0.4029 -0.0466 -0.1220
  444MOL0     N59855  11.917   0.993   5.630  0.0954 -0.0932  0.7798
  444MOL0     N59856  11.796   1.034   5.628 -0.5415  0.3035  0.2138
  444MOL0     C59857  10.579   0.866   5.864 -0.4531 -0.4789  0.1764
  444MOL0     C59858  10.454   0.861   5.916  0.2742  0.7994  0.4318
  444MOL0     C59859  10.075   0.701   6.141  0.2378 -0.5151  0.9443
  444MOL0     C59860  10.002   0.794   6.060  0.0499  0.6924  0.4640
  444MOL0     C59861   9.861   0.790   6.055 -0.4940  0.0408 -0.1587
  444MOL0     C59862   9.790   0.705   6.138 -0.4133 -0.7569 -0.3239
  444MOL0     O59863   9.654   0.715   6.145  0.7506  0.2594 -0.7895
  444MOL0     C59864   9.575   0.655   6.253 -0.7444 -0.2661  0.3029
  444MOL0     C59865   9.439   0.719   6.247  0.4227 -0.4503  0.2421
  444MOL0     C59866   9.343   0.687   6.370  0.8601  0.4802  0.1191
  444MOL0     C59867   9.259   0.552   6.358 -0.0054  1.1327 -0.1543
  444MOL0     C59868   9.204   0.522   6.491  0.3468  0.6461 -1.0258
  444MOL0     C59869   9.162   0.515   6.611 -0.2177  1.0914 -0.7670
  444MOL0     C59870   9.863   0.619   6.223 -0.1124  0.6512  0.2080
  444MOL0     C59871  10.005   0.615   6.226 -0.2663  0.5144 -0.1481
  444MOL0     C59872  10.073   0.519   6.325  0.3587  0.0537  0.2701
  444MOL0     H59873  10.448   0.519   5.966 -1.6203  0.8132 -1.2322
  444MOL0     H59874  10.680   0.539   5.870  0.7770  0.8182 -1.2154
  444MOL0     H59875  10.797   0.951   5.901  0.1344  0.3259 -0.4753
  444MOL0     H59876  10.898   0.829   5.972  1.2338  0.5207  0.3680
  444MOL0     H59877  10.987   1.025   5.803  3.5580  0.6157 -2.1856
  444MOL0     H59878  10.956   0.893   5.678  1.1429  0.0882 -0.6316
  444MOL0     H59879  11.124   0.765   5.792 -0.0845 -0.9266  0.8813
  444MOL0     H59880  11.109   0.849   5.943  0.3483 -3.2822 -0.8073
  444MOL0     H59881  11.202   0.967   5.675  1.0660 -1.9420  0.0940
  444MOL0     H59882  11.220   1.051   5.835 -2.5965  0.1764 -0.1532
  444MOL0     H59883  11.386   0.900   5.904 -4.4188 -1.2855  2.5432
  444MOL0     H59884  11.360   0.790   5.775 -1.0164  0.2582  0.6977
  444MOL0     H59885  11.439   1.080   5.707 -1.1408 -0.0971  1.6000
  444MOL0     H59886  11.557   0.969   5.761  0.3755  2.6649 -0.1596
  444MOL0     H59887  11.392   0.895   5.520 -0.5915 -2.5864  0.3972
  444MOL0     H59888  11.506   0.799   5.602 -1.3644  0.3748 -0.0849
  444MOL0     H59889  11.581   0.965   5.390  0.3020  2.8825 -0.2834
  444MOL0     H59890  11.580   1.073   5.526  0.2841 -0.1408  1.3386
  444MOL0     H59891  11.810   0.801   5.391 -3.1809 -0.6088  1.8193
  444MOL0     H59892  12.105   0.759   5.553 -1.2078 -2.1081 -0.0957
  444MOL0     H59893  12.041   0.775   5.400  3.1213  2.5828 -1.9490
  444MOL0     H59894  12.118   1.038   5.410  0.3358  0.9348  0.1322
  444MOL0     H59895  12.206   0.987   5.550  2.3958  0.4595 -1.9093
  444MOL0     H59896  12.264   0.883   5.267 -0.9179 -1.2551  0.5978
  444MOL0     H59897  12.333   0.816   5.426 -3.3729 -2.6577 -0.4690
  444MOL0     H59898  12.418   1.030   5.477 -0.4691  0.3735 -0.2758
  444MOL0     H59899  12.337   1.095   5.317  0.3647  0.2432  0.1713
  444MOL0     H59900  12.600   1.226   5.247  1.6450  0.3229 -0.1560
  444MOL0     H59901  12.804   1.318   5.316 -0.1981 -0.5741  0.0652
  444MOL0     H59902  13.276   1.278   5.570  0.6351  2.0039  0.9176
  444MOL0     H59903  13.511   1.283   5.509  0.6740  0.4148  0.8387
  444MOL0     H59904  13.700   1.446   5.395  1.7047 -0.4990  0.9250
  444MOL0     H59905  13.724   1.261   5.427 -0.4935  0.8713  0.3918
  444MOL0     H59906  13.868   1.275   5.238 -0.0761 -0.8424  2.2238
  444MOL0     H59907  13.810   1.438   5.195  1.1897  2.3276  1.7896
  444MOL0     H59908  13.943   1.530   5.379  0.4907 -0.7340 -0.2400
  444MOL0     H59909  13.967   1.370   5.438 -0.7288 -0.5088  0.1982
  444MOL0     H59910  14.053   1.467   5.162  1.1913 -0.2299 -0.5362
  444MOL0     H59911  14.107   1.324   5.243  1.5172  1.0574 -0.1824
  444MOL0     H59912  14.298   1.445   5.259  0.9774  1.2967  0.5488
  444MOL0     H59913  14.213   1.506   5.405 -1.3465  1.9030  0.0354
  444MOL0     H59914  14.203   1.666   5.146  2.4483  0.8320 -0.3856
  444MOL0     H59915  14.106   1.688   5.282  0.4846  2.0269  0.2769
  444MOL0     H59916  14.286   1.748   5.419  2.7856 -0.5353  1.5473
  444MOL0     H59917  14.323   1.828   5.261  0.2807 -0.1382  1.5127
  444MOL0     H59918  14.452   1.604   5.397  2.4888 -1.3673 -1.6426
  444MOL0     H59919  14.476   1.604   5.223 -0.6420  0.0218  0.0559
  444MOL0     H59920  13.412   1.355   5.109  1.2453 -0.7895  0.5136
  444MOL0     H59921  13.167   1.338   5.160 -0.2028  1.0749  1.4172
  444MOL0     H59922  12.930   0.940   5.452 -1.1882  0.3538  0.5085
  444MOL0     H59923  12.703   0.836   5.411  1.8920 -0.1170  2.6167
  444MOL0     H59924  10.608   0.968   5.842 -0.1097 -0.1811  1.8672
  444MOL0     H59925  10.392   0.950   5.909  0.1220  0.5723 -3.1324
  444MOL0     H59926  10.061   0.844   5.984 -0.5145 -0.4098 -0.7450
  444MOL0     H59927   9.798   0.841   5.984  0.2015  0.7829 -0.2571
  444MOL0     H59928   9.616   0.695   6.347 -1.3582  1.2243 -0.0347
  444MOL0     H59929   9.568   0.546   6.254  3.5455 -0.7498  1.0867
  444MOL0     H59930   9.391   0.672   6.161 -1.2248  1.6957 -0.1091
  444MOL0     H59931   9.437   0.827   6.228  1.1418 -0.4856 -0.0749
  444MOL0     H59932   9.274   0.771   6.378  0.5560  0.0301  2.9772
  444MOL0     H59933   9.411   0.689   6.455  2.2788  0.2316 -0.9608
  444MOL0     H59934   9.175   0.557   6.288  0.4707 -1.5297 -1.0455
  444MOL0     H59935   9.336   0.486   6.317 -0.0381 -0.0316  1.5307
  444MOL0     H59936   9.120   0.506   6.709 -0.2123 -0.7872 -0.9004
  444MOL0     H59937   9.802   0.557   6.289 -1.6427  0.6579 -1.1446
  444MOL0     H59938  10.092   0.584   6.410 -1.3538  0.9581  0.0187
  444MOL0     H59939  10.017   0.430   6.356 -1.3678  0.1948 -2.1128
  444MOL0     H59940  10.166   0.479   6.284  0.5242 -0.3035  0.9854
  445MOL0     O59941  11.132  11.373   8.284 -0.5789  0.5447  0.1719
  445MOL0     C59942  11.172  11.481   8.320 -0.5164 -0.2634  1.3190
  445MOL0     O59943  11.095  11.579   8.373  0.8738 -0.0868  0.2872
  445MOL0     C59944  10.966  11.606   8.317  0.7157  0.1546 -0.4503
  445MOL0     C59945  10.851  11.524   8.340 -0.5063 -0.1554  0.8666
  445MOL0     C59946  10.738  11.542   8.268  0.2031  0.0370 -0.7191
  445MOL0     C59947  10.728  11.642   8.177  0.5599  0.7327 -0.1569
  445MOL0     O59948  10.612  11.663   8.109 -0.0095  0.3062 -0.0353
  445MOL0     C59949  10.520  11.561   8.088 -0.1276 -0.3693  0.1340
  445MOL0     C59950  10.405  11.619   8.000 -0.2026  0.2984 -0.1063
  445MOL0     C59951  10.463  11.664   7.862 -0.0270  0.4111  0.2267
  445MOL0     C59952  10.368  11.750   7.792  0.8400 -0.8649 -0.5586
  445MOL0     C59953  10.347  11.713   7.648  0.2022 -0.5691  0.2883
  445MOL0     C59954  10.256  11.814   7.593  0.3579  0.3098  0.3372
  445MOL0     C59955  10.228  11.809   7.439  0.3928  0.0329 -0.5607
  445MOL0     C59956  10.130  11.701   7.421 -0.8032  0.0847  0.8912
  445MOL0     N59957   9.990  11.737   7.433  0.5094 -0.0436 -0.6446
  445MOL0     C59958   9.893  11.643   7.411  0.1536  0.2353 -0.0888
  445MOL0     C59959   9.777  11.713   7.423 -0.7751 -0.7925 -0.0304
  445MOL0     C59960   9.638  11.659   7.432  0.6757 -0.4020  0.9549
  445MOL0     C59961   9.574  11.669   7.571 -0.4201  0.5928  0.2423
  445MOL0     C59962   9.439  11.600   7.582  1.2925 -0.4435  0.8601
  445MOL0     C59963   9.329  11.676   7.497  0.4743 -0.5518  0.1416
  445MOL0     O59964   9.312  11.642   7.357  0.0190 -0.0735  0.0939
  445MOL0     C59965   9.217  11.555   7.325  0.8718  0.5857 -0.3170
  445MOL0     C59966   9.155  11.458   7.410  0.4029  0.3105 -0.2294
  445MOL0     C59967   9.045  11.379   7.367  0.2001 -0.1201  0.5229
  445MOL0     C59968   9.003  11.382   7.235  0.0989  0.1004  0.4018
  445MOL0     C59969   8.887  11.302   7.182  0.8386 -0.9107 -0.3052
  445MOL0     O59970   8.866  11.188   7.260 -0.3799  0.5257 -0.4131
  445MOL0     C59971   8.755  11.107   7.233  0.0756  0.8977 -0.6470
  445MOL0     C59972   8.626  11.162   7.248 -0.2600  0.4232 -0.2333
  445MOL0     C59973   8.521  11.089   7.209  0.0417  0.2929  0.0569
  445MOL0     C59974   8.536  10.955   7.160  0.2163 -0.0675  0.1831
  445MOL0     O59975   8.428  10.874   7.129 -0.1656 -0.7084  0.5229
  445MOL0     C59976   8.304  10.889   7.208 -0.1083  1.4009 -0.1052
  445MOL0     C59977   8.246  10.755   7.264 -0.8163 -0.0477  0.3291
  445MOL0     C59978   8.171  10.660   7.171  0.4552 -0.4124 -0.5262
  445MOL0     C59979   8.107  10.545   7.247 -0.1085 -0.1297 -0.5284
  445MOL0     C59980   8.022  10.451   7.161  0.3412  0.1563  0.1357
  445MOL0     C59981   7.971  10.334   7.249  0.2828  0.4630 -0.4165
  445MOL0     C59982   7.919  10.225   7.159  0.1737 -0.0823  0.0950
  445MOL0     C59983   7.818  10.141   7.222  0.0109 -0.0965 -0.1986
  445MOL0    Cl59984   7.874  10.063   7.381 -0.0769 -0.1444  0.0974
  445MOL0     C59985   8.668  10.904   7.143  0.4792 -0.0495 -0.4717
  445MOL0     C59986   8.781  10.979   7.192  0.9794  0.0879  0.8398
  445MOL0     O59987   8.822  11.331   7.081 -0.5298  0.6745 -0.9807
  445MOL0     C59988   9.072  11.470   7.149 -0.4396 -0.2598  0.0291
  445MOL0     C59989   9.180  11.550   7.192  0.5964  0.2452 -0.2285
  445MOL0     N59990   9.809  11.848   7.443 -0.6136 -0.0836 -0.0350
  445MOL0     N59991   9.938  11.862   7.460 -0.1596  0.1099  0.7245
  445MOL0     C59992  10.833  11.719   8.145  0.1864 -0.6816  0.4309
  445MOL0     C59993  10.951  11.705   8.224 -0.2824 -0.0161  0.6697
  445MOL0     C59994  11.315  11.507   8.318 -0.3345  0.0322 -0.2705
  445MOL0     C59995  11.359  11.635   8.352 -0.3809 -0.3267 -0.0001
  445MOL0     C59996  11.493  11.669   8.333 -0.3659 -0.8042  0.2650
  445MOL0     C59997  11.590  11.579   8.303  0.2214  0.3870  0.2797
  445MOL0     O59998  11.726  11.603   8.296 -0.4447 -0.0336  0.3878
  445MOL0     C59999  11.778  11.704   8.380  0.2094  0.3548 -0.4698
  445MOL0     C60000  11.929  11.710   8.359  0.2938  0.0120  0.8870
  445MOL0     C60001  12.003  11.810   8.442 -0.2866  0.2153  0.4885
  445MOL0     C60002  12.081  11.761   8.556 -0.0602  0.1728 -1.0722
  445MOL0     C60003  11.995  11.716   8.671 -0.5435  0.5011 -0.3326
  445MOL0     C60004  11.918  11.671   8.756 -0.5866  0.1578 -0.7140
  445MOL0     C60005  11.548  11.443   8.287 -0.3596 -0.3741 -0.0447
  445MOL0     C60006  11.414  11.404   8.305  0.3527 -0.9301  1.0052
  445MOL0     C60007  11.387  11.258   8.295  0.1135 -0.4558  0.2404
  445MOL0     H60008  10.859  11.434   8.399 -0.6356  0.0977  1.2726
  445MOL0     H60009  10.652  11.478   8.288 -1.8494  2.4286 -1.4313
  445MOL0     H60010  10.569  11.477   8.037  0.3283 -0.1693  0.2417
  445MOL0     H60011  10.477  11.518   8.179  1.7525  1.6883  2.1194
  445MOL0     H60012  10.357  11.695   8.062 -0.8464 -0.5456  0.4595
  445MOL0     H60013  10.331  11.539   7.991 -0.3477  0.3866  0.2548
  445MOL0     H60014  10.499  11.574   7.812  1.7052 -0.3235  2.6129
  445MOL0     H60015  10.544  11.731   7.889 -1.7178  2.2199  1.0782
  445MOL0     H60016  10.272  11.752   7.844  0.4516  5.1841 -0.7505
  445MOL0     H60017  10.400  11.855   7.798  0.8765 -0.8637 -0.7895
  445MOL0     H60018  10.440  11.708   7.590 -0.4280 -0.1608 -0.7808
  445MOL0     H60019  10.302  11.614   7.641 -0.2658 -0.5136  2.0038
  445MOL0     H60020  10.156  11.790   7.630 -1.2393 -0.6615 -4.0153
  445MOL0     H60021  10.289  11.917   7.610 -0.6061  1.9343 -5.4890
  445MOL0     H60022  10.320  11.777   7.389 -0.1647 -1.1489 -0.8662
  445MOL0     H60023  10.201  11.909   7.404  1.0570  0.5593  0.3714
  445MOL0     H60024  10.146  11.662   7.320  0.8077  2.5361  0.1041
  445MOL0     H60025  10.152  11.623   7.494  3.5877  1.4659  1.3586
  445MOL0     H60026   9.892  11.534   7.413  1.7591  0.2054  1.2678
  445MOL0     H60027   9.577  11.716   7.361  1.1739  0.5135  1.2565
  445MOL0     H60028   9.637  11.554   7.401 -0.6396 -0.1432  0.0043
  445MOL0     H60029   9.649  11.635   7.643  0.3851  0.2515 -0.7318
  445MOL0     H60030   9.554  11.775   7.584  0.8240  0.8101  0.4492
  445MOL0     H60031   9.396  11.609   7.682  0.6496  3.1042  0.3996
  445MOL0     H60032   9.444  11.495   7.551  0.8460  0.5559 -3.1558
  445MOL0     H60033   9.353  11.782   7.513 -3.2575  0.2387  1.5684
  445MOL0     H60034   9.233  11.672   7.548 -1.0440 -0.1996 -2.4938
  445MOL0     H60035   9.181  11.464   7.516  1.9595  2.9956 -0.6598
  445MOL0     H60036   8.991  11.319   7.441  0.8660  1.1676  2.1144
  445MOL0     H60037   8.630  11.266   7.278 -0.8524  1.1522 -2.4667
  445MOL0     H60038   8.427  11.141   7.222 -0.2083 -0.2991  0.6941
  445MOL0     H60039   8.324  10.951   7.296  3.2157 -0.5464  0.7045
  445MOL0     H60040   8.230  10.955   7.163  0.4300  1.0692 -1.5252
  445MOL0     H60041   8.318  10.701   7.325 -2.0738 -0.2633  1.6799
  445MOL0     H60042   8.167  10.793   7.330 -2.2711 -1.9330 -0.2210
  445MOL0     H60043   8.090  10.715   7.121 -0.6217  1.6325  3.0865
  445MOL0     H60044   8.249  10.632   7.100  2.4131  1.8002  0.6117
  445MOL0     H60045   8.051  10.577   7.336  2.4007 -0.7996  1.4207
  445MOL0     H60046   8.191  10.490   7.290 -0.3877  0.8329  1.3537
  445MOL0     H60047   8.072  10.408   7.074 -0.9575  0.2246 -0.6743
  445MOL0     H60048   7.938  10.501   7.111  0.3268  0.2108  0.2121
  445MOL0     H60049   8.049  10.292   7.313  0.7342 -2.8592 -2.8611
  445MOL0     H60050   7.892  10.376   7.312  0.5349  1.2493 -0.6048
  445MOL0     H60051   8.005  10.163   7.133  0.5494 -0.2095  1.5546
  445MOL0     H60052   7.874  10.274   7.073  3.0780  2.0500 -0.3691
  445MOL0     H60053   7.724  10.191   7.244 -2.4408 -3.3258 -2.3420
  445MOL0     H60054   7.794  10.057   7.156  0.8704  0.0775 -0.7540
  445MOL0     H60055   8.670  10.803   7.105 -1.3984  0.5405 -2.3474
  445MOL0     H60056   8.884  10.946   7.188  1.5555  1.3362  3.2803
  445MOL0     H60057   9.045  11.456   7.045  2.0272 -1.0645 -0.5554
  445MOL0     H60058   9.232  11.597   7.109  1.2202  0.6994  0.4168
  445MOL0     H60059  10.822  11.792   8.066 -0.3256 -1.2680 -0.0535
  445MOL0     H60060  11.032  11.772   8.199 -1.2571  1.1023  0.4253
  445MOL0     H60061  11.291  11.718   8.371 -0.1718  0.3064 -1.8687
  445MOL0     H60062  11.514  11.776   8.335 -1.2256 -0.6223 -0.1200
  445MOL0     H60063  11.760  11.673   8.483  0.8406 -2.1919 -1.0530
  445MOL0     H60064  11.730  11.795   8.343  0.6433  1.0969  0.7415
  445MOL0     H60065  11.957  11.720   8.253  0.3999  1.1042  1.0100
  445MOL0     H60066  11.959  11.609   8.390 -0.2750 -0.8362 -1.1470
  445MOL0     H60067  11.936  11.893   8.469 -2.7446 -1.4967 -0.0408
  445MOL0     H60068  12.079  11.856   8.378 -0.4061  0.7562  0.7306
  445MOL0     H60069  12.150  11.680   8.529 -0.8209 -1.9313  2.5313
  445MOL0     H60070  12.133  11.843   8.607 -0.2734  1.1165 -2.3374
  445MOL0     H60071  11.837  11.640   8.818 -1.9912  0.4987 -2.3022
  445MOL0     H60072  11.624  11.368   8.270  0.4537 -0.3470  2.8523
  445MOL0     H60073  11.354  11.217   8.199  1.2630 -1.0910  0.0999
  445MOL0     H60074  11.475  11.197   8.318  0.3198 -0.4109 -0.4004
  445MOL0     H60075  11.317  11.233   8.375 -1.1175 -1.3839 -1.0939
  446MOL0     O60076   1.510   0.046   6.584 -0.2595 -0.4773  0.3364
  446MOL0     C60077   1.540  -0.071   6.590 -0.4677  0.3477 -0.2810
  446MOL0     O60078   1.663  -0.118   6.622 -0.5378  0.4456 -0.0271
  446MOL0     C60079   1.758  -0.034   6.669  0.3399  0.1605 -0.4419
  446MOL0     C60080   1.740   0.071   6.761 -0.6395 -0.2061 -0.1162
  446MOL0     C60081   1.854   0.135   6.823 -0.0466  0.2923 -0.1852
  446MOL0     C60082   1.984   0.096   6.798 -1.3919  0.6457  0.0681
  446MOL0     O60083   2.085   0.152   6.864 -0.8701  0.2145 -0.4570
  446MOL0     C60084   2.205   0.160   6.781  0.7723  0.3532 -0.6115
  446MOL0     C60085   2.318   0.215   6.873  0.5201  0.1137  0.7935
  446MOL0     C60086   2.288   0.359   6.905  0.4863  0.0293 -1.7788
  446MOL0     C60087   2.391   0.422   7.006  0.5069 -0.9429  0.0823
  446MOL0     C60088   2.397   0.351   7.140  0.0514  0.1224  0.1067
  446MOL0     C60089   2.500   0.420   7.225  0.7072 -0.5942  0.0801
  446MOL0     C60090   2.530   0.343   7.351 -0.2714  0.8515 -0.4180
  446MOL0     C60091   2.629   0.417   7.441  0.4945 -0.2987 -0.2557
  446MOL0     N60092   2.759   0.459   7.396 -0.6158 -0.9286  1.4394
  446MOL0     C60093   2.873   0.379   7.401  0.9082 -0.3281 -0.0590
  446MOL0     C60094   2.964   0.461   7.337 -0.1460  0.2286  0.1417
  446MOL0     C60095   3.106   0.432   7.298  0.6814  0.3565  1.1979
  446MOL0     C60096   3.190   0.360   7.406  0.3510  1.0917  0.9948
  446MOL0     C60097   3.285   0.256   7.339 -1.0705 -0.2034  0.8781
  446MOL0     C60098   3.394   0.323   7.255 -0.9939 -0.0165 -0.5403
  446MOL0     O60099   3.476   0.403   7.346  0.1000  0.6908 -0.3106
  446MOL0     C60100   3.605   0.367   7.369  0.0348 -0.3879 -1.1192
  446MOL0     C60101   3.654   0.245   7.345 -0.5706  1.2377  0.5551
  446MOL0     C60102   3.796   0.215   7.377 -0.0247 -0.0712 -0.0829
  446MOL0     C60103   3.868   0.309   7.450 -0.2447 -0.1713  0.2952
  446MOL0     C60104   4.005   0.274   7.479  0.9802  0.0075  0.0409
  446MOL0     O60105   4.070   0.162   7.430  0.5114 -0.5753  0.7201
  446MOL0     C60106   4.208   0.143   7.444 -0.4370 -0.3872  0.0562
  446MOL0     C60107   4.245   0.011   7.436 -0.2651 -0.6393 -0.5501
  446MOL0     C60108   4.380  -0.026   7.446 -0.2791 -0.4333  0.3516
  446MOL0     C60109   4.486   0.066   7.466 -0.1819  0.9298 -0.2744
  446MOL0     O60110   4.609   0.010   7.485 -0.5369  0.1486  0.4345
  446MOL0     C60111   4.724   0.081   7.436 -0.6792 -0.0927  0.1249
  446MOL0     C60112   4.836  -0.016   7.430 -0.4922  0.5543  0.4069
  446MOL0     C60113   4.969   0.062   7.405  0.1919 -0.0082 -0.5455
  446MOL0     C60114   5.103  -0.013   7.426  0.0025  0.7077  0.6596
  446MOL0     C60115   5.231   0.067   7.428  0.8446 -0.5787  0.0887
  446MOL0     C60116   5.236   0.150   7.557 -0.0421 -0.5298 -0.6347
  446MOL0     C60117   5.370   0.238   7.552  0.2841  0.4546  0.0854
  446MOL0     C60118   5.435   0.259   7.684  0.3720  0.3933  0.3177
  446MOL0    Cl60119   5.532   0.120   7.733 -0.4851 -0.2154  0.1195
  446MOL0     C60120   4.451   0.204   7.478 -0.3671 -0.0409 -0.0675
  446MOL0     C60121   4.312   0.235   7.459 -0.1096  0.2793 -0.4500
  446MOL0     O60122   4.052   0.352   7.552 -0.1979 -0.8751  0.1453
  446MOL0     C60123   3.818   0.437   7.475 -0.1713 -0.7773  0.5735
  446MOL0     C60124   3.681   0.461   7.448  0.0412 -0.1494  0.8728
  446MOL0     N60125   2.915   0.585   7.305 -0.1673  0.6688  0.2048
  446MOL0     N60126   2.786   0.585   7.339 -0.7417 -0.0299  0.1016
  446MOL0     C60127   2.002  -0.028   6.716 -0.8057  0.4472  1.1067
  446MOL0     C60128   1.890  -0.083   6.642 -0.7552 -0.5237  0.2205
  446MOL0     C60129   1.440  -0.175   6.537  0.7010  0.0270 -0.2980
  446MOL0     C60130   1.498  -0.277   6.458  0.1326 -0.3423  0.1889
  446MOL0     C60131   1.416  -0.356   6.378  0.2190 -0.2641  0.3143
  446MOL0     C60132   1.273  -0.347   6.381 -0.2858  0.0051 -0.1209
  446MOL0     O60133   1.193  -0.432   6.309 -0.5480  0.2346 -0.4729
  446MOL0     C60134   1.238  -0.527   6.211 -0.3384 -0.4743 -0.3623
  446MOL0     C60135   1.276  -0.464   6.080 -0.0594  0.4507  0.3386
  446MOL0     C60136   1.329  -0.552   5.964  0.2601 -0.1908 -0.5408
  446MOL0     C60137   1.443  -0.478   5.890  0.4501  0.0475 -0.4039
  446MOL0     C60138   1.562  -0.472   5.977 -0.5805  0.4533  0.3339
  446MOL0     C60139   1.657  -0.464   6.048  0.5364  0.4002  0.0007
  446MOL0     C60140   1.213  -0.250   6.467  0.4568  0.3692  0.8074
  446MOL0     C60141   1.301  -0.162   6.539  0.1013  0.3434  0.2638
  446MOL0     C60142   1.224  -0.069   6.627  0.0927 -0.5181 -0.0664
  446MOL0     H60143   1.645   0.118   6.784 -1.8213 -1.8057 -1.5538
  446MOL0     H60144   1.847   0.214   6.897 -0.0872 -0.8490  1.0741
  446MOL0     H60145   2.239   0.058   6.763  2.6068  0.4731  1.7782
  446MOL0     H60146   2.184   0.209   6.685 -1.0431 -0.3530 -0.6044
  446MOL0     H60147   2.409   0.212   6.813  2.1158  0.5197  3.0640
  446MOL0     H60148   2.325   0.146   6.957  0.0249 -1.6373 -0.5559
  446MOL0     H60149   2.189   0.360   6.952  1.1204 -1.3584 -0.3364
  446MOL0     H60150   2.263   0.410   6.811 -3.7499  0.0129 -0.8567
  446MOL0     H60151   2.492   0.412   6.965  0.1984 -0.6664 -0.7822
  446MOL0     H60152   2.370   0.528   7.022  0.2784 -1.2470  2.0258
  446MOL0     H60153   2.300   0.346   7.189 -0.0266 -2.2095 -0.1676
  446MOL0     H60154   2.431   0.248   7.122  0.3042  0.1970  0.1490
  446MOL0     H60155   2.587   0.434   7.161  0.1134  1.0928 -0.4023
  446MOL0     H60156   2.460   0.513   7.265  2.0988  0.3105 -0.5621
  446MOL0     H60157   2.568   0.246   7.318  3.6497  1.5063  1.5326
  446MOL0     H60158   2.439   0.328   7.410 -1.3006 -2.8787 -2.6542
  446MOL0     H60159   2.569   0.499   7.484 -0.8196 -1.2391 -0.2205
  446MOL0     H60160   2.636   0.349   7.526 -4.5752 -2.8934 -1.5290
  446MOL0     H60161   2.889   0.278   7.439 -1.6449 -0.3685  1.1081
  446MOL0     H60162   3.099   0.373   7.206 -1.9785 -2.5162  3.0192
  446MOL0     H60163   3.162   0.518   7.261 -1.2898  1.7062  1.1716
  446MOL0     H60164   3.248   0.427   7.470  0.4139 -0.3033  2.4688
  446MOL0     H60165   3.124   0.300   7.470 -0.7896  2.6075  1.3106
  446MOL0     H60166   3.230   0.185   7.276  0.2047 -0.0444 -0.4441
  446MOL0     H60167   3.332   0.197   7.418  0.8809 -2.4708 -1.7566
  446MOL0     H60168   3.349   0.385   7.177  0.9868 -0.0888 -1.8285
  446MOL0     H60169   3.442   0.255   7.184 -2.4121 -2.3396  0.6141
  446MOL0     H60170   3.601   0.157   7.311 -1.9317  1.8550  0.9912
  446MOL0     H60171   3.828   0.113   7.364  0.1176 -0.0206 -0.1269
  446MOL0     H60172   4.164  -0.058   7.415  0.3443 -1.2274 -0.9954
  446MOL0     H60173   4.398  -0.133   7.452  1.5817 -0.1382  0.6075
  446MOL0     H60174   4.713   0.125   7.336  1.8007  1.4405  0.4337
  446MOL0     H60175   4.747   0.165   7.502 -1.3439  0.3076 -0.1570
  446MOL0     H60176   4.839  -0.081   7.519  0.9672 -2.8353 -1.8892
  446MOL0     H60177   4.822  -0.089   7.350 -1.9174  0.4074  0.7637
  446MOL0     H60178   4.970   0.125   7.315 -2.3851  1.3907  0.2873
  446MOL0     H60179   4.966   0.132   7.489  2.8539 -0.2800 -0.1525
  446MOL0     H60180   5.125  -0.083   7.344 -0.8015  2.0160 -0.7242
  446MOL0     H60181   5.099  -0.067   7.521  0.9223  3.1041  2.1464
  446MOL0     H60182   5.226   0.132   7.340  1.3362  0.3406  0.7199
  446MOL0     H60183   5.320   0.006   7.408  2.0967  0.3454  2.3629
  446MOL0     H60184   5.156   0.221   7.579  2.8867  2.1277  2.9381
  446MOL0     H60185   5.225   0.089   7.648 -1.3575 -0.8978 -1.0256
  446MOL0     H60186   5.342   0.332   7.503  1.7045 -0.7719 -3.3789
  446MOL0     H60187   5.452   0.201   7.490  1.1549  1.7396  0.4113
  446MOL0     H60188   5.504   0.343   7.675 -0.1152  0.7446 -0.1721
  446MOL0     H60189   5.365   0.280   7.765  0.5086 -0.6278  0.7214
  446MOL0     H60190   4.522   0.276   7.517 -0.1439 -0.9447  1.2821
  446MOL0     H60191   4.275   0.337   7.459  0.4316  0.4872  0.4465
  446MOL0     H60192   3.868   0.519   7.525 -1.2826  1.2320 -1.4217
  446MOL0     H60193   3.627   0.552   7.474  0.7651  0.8794 -1.0250
  446MOL0     H60194   2.096  -0.079   6.695 -0.9258  0.9750 -0.9327
  446MOL0     H60195   1.905  -0.169   6.577  0.9519  0.1652 -0.3606
  446MOL0     H60196   1.606  -0.282   6.455  0.0921 -1.4025  0.1301
  446MOL0     H60197   1.452  -0.427   6.304  1.6917  1.5126 -0.7630
  446MOL0     H60198   1.148  -0.588   6.193 -1.7800  2.1914 -3.3004
  446MOL0     H60199   1.325  -0.584   6.244  0.4474  0.8318 -0.1551
  446MOL0     H60200   1.356  -0.399   6.115  0.3351  0.5623 -0.7552
  446MOL0     H60201   1.197  -0.400   6.040 -1.4216 -2.1781 -1.4896
  446MOL0     H60202   1.252  -0.587   5.894 -0.3715 -2.4477  1.1778
  446MOL0     H60203   1.370  -0.644   6.006  2.8671  1.3411  0.4897
  446MOL0     H60204   1.472  -0.542   5.805  3.4439 -3.7921  3.0397
  446MOL0     H60205   1.417  -0.375   5.868 -2.7012 -0.1156  1.9163
  446MOL0     H60206   1.740  -0.461   6.115  2.1978  0.9791 -1.9913
  446MOL0     H60207   1.105  -0.249   6.475  0.4937  0.8522  1.3026
  446MOL0     H60208   1.269  -0.041   6.723 -3.0448  1.6802  0.8879
  446MOL0     H60209   1.203   0.019   6.567 -1.7170 -1.4295 -0.8315
  446MOL0     H60210   1.128  -0.107   6.661 -0.9046  0.7840 -1.3455
  447MOL0     O60211   3.286   0.941   9.765 -0.3699  0.5439 -1.2501
  447MOL0     C60212   3.213   0.895   9.856 -0.4645 -0.9829  0.6264
  447MOL0     O60213   3.251   0.829   9.963 -0.9428  0.0813  0.0992
  447MOL0     C60214   3.381   0.778   9.967  0.4642 -0.4723  0.0190
  447MOL0     C60215   3.442   0.705   9.865 -0.3904 -0.3029 -1.0757
  447MOL0     C60216   3.568   0.653   9.881 -0.0811 -1.1043  0.1095
  447MOL0     C60217   3.641   0.667   9.999 -0.1880 -0.1924  0.6903
  447MOL0     O60218   3.767   0.603   9.995  0.0675 -0.0488  0.0821
  447MOL0     C60219   3.832   0.561  10.113  0.0110 -0.5893 -0.9182
  447MOL0     C60220   3.949   0.469  10.089  0.9001  0.3852  0.1876
  447MOL0     C60221   4.011   0.431  10.220 -0.6048  0.5976  0.6271
  447MOL0     C60222   4.107   0.308  10.202 -0.4822  0.3923  0.4027
  447MOL0     C60223   4.192   0.296  10.325  0.0336  0.0082 -0.6179
  447MOL0     C60224   4.256   0.154  10.331 -0.5773 -0.0375 -0.0820
  447MOL0     C60225   4.361   0.162  10.443  0.6111 -0.7761 -0.5236
  447MOL0     C60226   4.403   0.027  10.501 -0.1040 -0.3800 -0.5594
  447MOL0     N60227   4.542   0.002  10.508  0.2920  0.9798  0.0792
  447MOL0     C60228   4.625   0.078  10.595  0.2294 -0.0989  0.8565
  447MOL0     C60229   4.750   0.033  10.554  0.5764 -0.2918 -0.7267
  447MOL0     C60230   4.887   0.089  10.579 -0.3744  0.0745  0.0926
  447MOL0     C60231   4.967   0.021  10.684  0.2169 -0.8370 -0.2571
  447MOL0     C60232   5.033  -0.108  10.638 -0.2718 -0.1282  0.5850
  447MOL0     C60233   5.155  -0.152  10.718  0.2135 -0.0323 -0.8747
  447MOL0     O60234   5.105  -0.188  10.852 -0.1956 -0.2754  0.1930
  447MOL0     C60235   5.181  -0.252  10.942 -0.7067 -1.1993  0.7114
  447MOL0     C60236   5.300  -0.324  10.905 -0.6664 -1.1416 -0.1166
  447MOL0     C60237   5.390  -0.367  11.011 -0.0801  0.5315  0.6086
  447MOL0     C60238   5.357  -0.343  11.139 -0.1390 -0.4759 -0.8831
  447MOL0     C60239   5.457  -0.372  11.260  0.5135  0.2503  1.4062
  447MOL0     O60240   5.411  -0.392  11.380 -0.0753 -0.1887 -0.1847
  447MOL0     C60241   5.500  -0.416  11.490  0.3132 -0.2584  0.4504
  447MOL0     C60242   5.463  -0.526  11.566  0.0381  0.0393  1.0452
  447MOL0     C60243   5.518  -0.545  11.693 -0.0742 -0.3289  0.3013
  447MOL0     C60244   5.631  -0.474  11.724  1.0132  0.1848  0.4672
  447MOL0     O60245   5.702  -0.506  11.834  0.5439  0.4297 -0.5788
  447MOL0     C60246   5.836  -0.545  11.812 -0.5954  0.4959  0.6177
  447MOL0     C60247   5.899  -0.601  11.944  0.5359  0.0914 -0.1259
  447MOL0     C60248   6.045  -0.557  11.947  0.5081  1.0840 -0.5197
  447MOL0     C60249   6.075  -0.411  11.985  0.4909 -0.2501 -0.3712
  447MOL0     C60250   6.136  -0.422  12.124  0.0613 -0.3109  0.2615
  447MOL0     C60251   6.285  -0.446  12.128  0.4983  0.2196 -0.0014
  447MOL0     C60252   6.329  -0.436  12.282  0.2206 -0.4636  1.2430
  447MOL0     C60253   6.298  -0.570  12.347 -0.9848  0.1442  0.2404
  447MOL0    Cl60254   6.326  -0.579  12.530  0.3406  0.0640 -0.0354
  447MOL0     C60255   5.672  -0.358  11.649  1.0665  1.0203 -0.6095
  447MOL0     C60256   5.591  -0.327  11.538  0.1127  0.2909  0.0404
  447MOL0     O60257   5.572  -0.377  11.230 -0.3287  0.3640  0.2136
  447MOL0     C60258   5.242  -0.274  11.180 -0.2821 -0.0636 -0.2609
  447MOL0     C60259   5.148  -0.233  11.077 -0.3535  0.2055  0.3191
  447MOL0     N60260   4.735  -0.064  10.458 -0.1047  0.0670 -0.2353
  447MOL0     N60261   4.610  -0.085  10.429 -0.3683  1.1348 -0.5675
  447MOL0     C60262   3.569   0.733  10.106 -0.7907  0.6384  0.4734
  447MOL0     C60263   3.447   0.789  10.089  0.3935  0.2742  0.2693
  447MOL0     C60264   3.070   0.902   9.831 -0.4645 -0.1565 -0.2836
  447MOL0     C60265   2.989   0.795   9.852  0.6910  0.2995 -0.7007
  447MOL0     C60266   2.854   0.799   9.835 -0.2288 -0.7663  0.5161
  447MOL0     C60267   2.794   0.917   9.796  0.6281 -1.0138 -0.4099
  447MOL0     O60268   2.667   0.935   9.762 -0.5261 -0.1480  0.0300
  447MOL0     C60269   2.591   0.826   9.711  0.3872 -0.1564  0.2565
  447MOL0     C60270   2.493   0.757   9.806  0.5416 -0.4895  0.0956
  447MOL0     C60271   2.370   0.843   9.842  1.0779 -0.1728  0.3799
  447MOL0     C60272   2.403   0.988   9.872  0.3117 -0.4679 -0.3238
  447MOL0     C60273   2.266   1.036   9.900  0.7175  0.6320 -0.7074
  447MOL0     C60274   2.151   1.077   9.899 -0.0483  0.4952  0.5156
  447MOL0     C60275   2.871   1.033   9.787  0.2518 -0.1943 -0.1789
  447MOL0     C60276   3.009   1.027   9.802 -0.6337 -0.7277 -0.6189
  447MOL0     C60277   3.073   1.156   9.790 -0.8082  0.7856 -0.1512
  447MOL0     H60278   3.389   0.688   9.772  0.4095 -3.0951 -1.1248
  447MOL0     H60279   3.608   0.587   9.805 -1.5133  0.4464 -2.1022
  447MOL0     H60280   3.874   0.652  10.157 -1.4578 -0.2459 -0.1418
  447MOL0     H60281   3.751   0.526  10.178  0.0971  0.8172 -0.0096
  447MOL0     H60282   4.009   0.529  10.020 -2.6996  1.6473 -2.1237
  447MOL0     H60283   3.922   0.391  10.018 -2.0667  2.4049 -1.1278
  447MOL0     H60284   3.941   0.417  10.302  0.8399  0.1991  1.8485
  447MOL0     H60285   4.076   0.512  10.255 -0.9557 -0.3071  3.5687
  447MOL0     H60286   4.040   0.222  10.201  0.1877 -0.2396  2.9248
  447MOL0     H60287   4.168   0.320  10.111 -0.9706  1.0528  0.1598
  447MOL0     H60288   4.264   0.378  10.329  0.5021 -0.3664  4.1220
  447MOL0     H60289   4.139   0.309  10.419  1.2921 -1.9060  0.4131
  447MOL0     H60290   4.179   0.079  10.353 -0.9714  0.5043  0.4088
  447MOL0     H60291   4.303   0.130  10.235  1.7000 -1.4837  1.2869
  447MOL0     H60292   4.315   0.216  10.526  0.0531  0.1655 -1.4154
  447MOL0     H60293   4.445   0.216  10.398  2.5808 -1.9447  1.5626
  447MOL0     H60294   4.358   0.015  10.600  2.0976 -2.3474  0.3070
  447MOL0     H60295   4.368  -0.046  10.427  0.8989 -1.5294  0.0631
  447MOL0     H60296   4.595   0.161  10.658  1.0765 -1.8566  3.7183
  447MOL0     H60297   4.948   0.078  10.489  0.9665  1.8711  0.7165
  447MOL0     H60298   4.874   0.198  10.587 -0.0090  0.3589 -2.3231
  447MOL0     H60299   5.035   0.097  10.722 -3.7917  3.4677 -0.7361
  447MOL0     H60300   4.902  -0.003  10.768 -1.3646 -1.1947 -1.5286
  447MOL0     H60301   5.070  -0.104  10.535 -0.1929 -2.9869  0.4223
  447MOL0     H60302   4.960  -0.189  10.629  0.0908 -0.2839 -1.4146
  447MOL0     H60303   5.237  -0.080  10.728  0.0940 -0.0953  0.7478
  447MOL0     H60304   5.197  -0.243  10.674  0.9516 -0.5560  0.8337
  447MOL0     H60305   5.326  -0.335  10.800  2.0594 -3.9895  0.6745
  447MOL0     H60306   5.491  -0.402  10.993 -0.4330  0.4335 -1.2978
  447MOL0     H60307   5.379  -0.584  11.528 -0.7351  1.7940 -0.0932
  447MOL0     H60308   5.478  -0.625  11.754  2.3830  1.4270  4.6415
  447MOL0     H60309   5.854  -0.616  11.731  1.3527 -0.2756  1.6627
  447MOL0     H60310   5.894  -0.456  11.787  1.0241 -0.3092  1.3976
  447MOL0     H60311   5.841  -0.571  12.032  0.4944 -1.2078  0.3197
  447MOL0     H60312   5.900  -0.710  11.959  3.0341  0.4366  3.5732
  447MOL0     H60313   6.098  -0.632  12.006 -0.3318  0.8575 -0.0368
  447MOL0     H60314   6.086  -0.580  11.848  2.2441  0.5442  0.2930
  447MOL0     H60315   5.979  -0.361  11.973  1.1923  2.0968  2.6555
  447MOL0     H60316   6.139  -0.365  11.910 -0.9450 -1.1811 -2.2608
  447MOL0     H60317   6.078  -0.487  12.189 -1.7814  1.7926  0.8343
  447MOL0     H60318   6.109  -0.331  12.178 -0.9646  2.5193 -4.4216
  447MOL0     H60319   6.307  -0.550  12.103  0.6920  0.3550 -0.4066
  447MOL0     H60320   6.332  -0.365  12.071  1.3283  2.5740  3.6634
  447MOL0     H60321   6.280  -0.353  12.333 -0.0297  0.5251 -0.5277
  447MOL0     H60322   6.433  -0.400  12.288 -0.4953  2.3122 -0.7709
  447MOL0     H60323   6.192  -0.582  12.325 -1.1290  1.2308  0.2656
  447MOL0     H60324   6.349  -0.655  12.303  1.6547  1.6068  0.2841
  447MOL0     H60325   5.762  -0.303  11.671  1.5794 -0.2603  0.6558
  447MOL0     H60326   5.609  -0.236  11.481 -1.3665  0.7880  0.3096
  447MOL0     H60327   5.217  -0.247  11.282 -2.6204  1.2049 -1.0998
  447MOL0     H60328   5.055  -0.179  11.089  0.1835  1.7351 -1.7941
  447MOL0     H60329   3.622   0.738  10.201  0.5974 -1.8714 -0.0817
  447MOL0     H60330   3.411   0.848  10.173  0.6647  0.0708  0.5327
  447MOL0     H60331   3.043   0.703   9.873 -0.3906 -0.0283  0.8202
  447MOL0     H60332   2.795   0.710   9.850 -1.3429  0.1013  1.4274
  447MOL0     H60333   2.660   0.753   9.667  2.2797  1.1863  0.8891
  447MOL0     H60334   2.524   0.872   9.638  1.3807  4.1626  1.7692
  447MOL0     H60335   2.545   0.746   9.902  0.3280  1.2864  0.4312
  447MOL0     H60336   2.462   0.658   9.770  0.3363  0.0029 -1.1229
  447MOL0     H60337   2.319   0.799   9.928  0.1624  0.0799 -0.0279
  447MOL0     H60338   2.293   0.848   9.764 -0.1968  0.6354  1.6326
  447MOL0     H60339   2.461   1.006   9.963  0.0773  2.8420 -0.6929
  447MOL0     H60340   2.444   1.043   9.786  3.6993  2.5104  2.8339
  447MOL0     H60341   2.055   1.125   9.897 -0.5175 -0.4350 -0.1601
  447MOL0     H60342   2.820   1.120   9.747  1.6167 -0.6688 -3.1699
  447MOL0     H60343   3.179   1.150   9.766 -1.0946  3.9000 -2.8899
  447MOL0     H60344   3.033   1.217   9.708  1.7721 -0.0893 -2.1865
  447MOL0     H60345   3.069   1.214   9.883  4.8752  2.3077 -0.5107
  448MOL0     O60346   7.509   7.566   6.756 -0.0157 -1.1502 -0.1228
  448MOL0     C60347   7.462   7.453   6.776 -0.9276 -0.8057 -0.8823
  448MOL0     O60348   7.524   7.366   6.848  0.1257  0.7325  0.7625
  448MOL0     C60349   7.626   7.397   6.933  0.6675 -0.1907 -0.0086
  448MOL0     C60350   7.594   7.471   7.048  0.7407  0.2837 -0.1389
  448MOL0     C60351   7.698   7.504   7.141  0.0846 -0.2356 -0.7155
  448MOL0     C60352   7.834   7.479   7.104  1.2225 -0.1597  0.3173
  448MOL0     O60353   7.942   7.515   7.177 -0.2667  0.4903  0.3105
  448MOL0     C60354   7.926   7.591   7.300 -0.4155 -0.3977 -0.8775
  448MOL0     C60355   8.052   7.602   7.387  0.4991 -0.8239 -0.2998
  448MOL0     C60356   8.180   7.614   7.307  0.5874 -0.1316  0.1116
  448MOL0     C60357   8.295   7.626   7.417  0.5121  1.0157  0.9929
  448MOL0     C60358   8.429   7.615   7.347  0.0937  0.3569  0.3979
  448MOL0     C60359   8.530   7.624   7.458 -0.3056  0.2759 -0.0326
  448MOL0     C60360   8.677   7.620   7.394 -0.1546 -0.9668 -0.2140
  448MOL0     C60361   8.788   7.633   7.505  1.0832  0.3095 -0.8476
  448MOL0     N60362   8.776   7.758   7.585 -0.0011 -0.3000  1.0152
  448MOL0     C60363   8.790   7.882   7.527  0.0990 -0.5755 -0.7106
  448MOL0     C60364   8.744   7.972   7.622  0.5751  0.9158  0.7609
  448MOL0     C60365   8.724   8.120   7.617 -0.5741  0.8398  0.3883
  448MOL0     C60366   8.572   8.156   7.618  0.1439  0.0648 -0.1403
  448MOL0     C60367   8.500   8.089   7.490 -0.4200 -0.0650  0.5615
  448MOL0     C60368   8.574   8.120   7.352 -0.0144  0.5607  0.0046
  448MOL0     O60369   8.516   8.060   7.239 -0.2683 -0.2272 -0.3629
  448MOL0     C60370   8.387   8.084   7.205  0.7005 -0.1582 -1.6016
  448MOL0     C60371   8.335   8.209   7.192 -0.1913 -0.2269 -0.0906
  448MOL0     C60372   8.197   8.226   7.166 -0.6517 -0.0485  0.4474
  448MOL0     C60373   8.115   8.112   7.133 -0.1033  0.4400  0.9057
  448MOL0     C60374   7.971   8.125   7.107 -0.4281  0.8406  0.3776
  448MOL0     O60375   7.909   8.012   7.064 -0.1315 -0.5524  0.4712
  448MOL0     C60376   7.774   7.991   7.045 -0.4671 -0.6636  0.4014
  448MOL0     C60377   7.671   8.064   7.114 -0.1448  0.3368 -0.4651
  448MOL0     C60378   7.541   8.033   7.115 -0.0166 -0.1521  0.1487
  448MOL0     C60379   7.504   7.941   7.020 -0.1460  0.0104  0.4926
  448MOL0     O60380   7.366   7.916   7.012 -0.6674  0.0499  0.0023
  448MOL0     C60381   7.330   7.775   7.015 -0.3025  0.0461 -0.1444
  448MOL0     C60382   7.183   7.762   6.973 -0.3105  0.3063  0.5146
  448MOL0     C60383   7.088   7.869   7.019  0.3679 -1.0812 -0.0671
  448MOL0     C60384   6.939   7.827   7.016  0.0007 -0.4365  0.5019
  448MOL0     C60385   6.902   7.763   6.876 -0.1943  0.6294 -0.4473
  448MOL0     C60386   6.886   7.607   6.875 -0.7387  0.2252  0.7791
  448MOL0     C60387   6.764   7.545   6.953  0.7564 -0.3603 -0.3077
  448MOL0     C60388   6.787   7.402   6.996 -0.0824  0.3898  0.0634
  448MOL0    Cl60389   6.638   7.341   7.053 -0.2980 -0.1098 -0.0441
  448MOL0     C60390   7.599   7.869   6.949 -0.2891 -0.6555 -0.0643
  448MOL0     C60391   7.732   7.889   6.963  0.1582 -0.2409 -0.0473
  448MOL0     O60392   7.923   8.229   7.138 -0.3015 -0.0616  0.5570
  448MOL0     C60393   8.177   7.986   7.153  0.2886 -1.1748  0.1138
  448MOL0     C60394   8.312   7.973   7.189  1.4043 -0.2958  0.4917
  448MOL0     N60395   8.701   7.900   7.732  0.9456  0.5103  0.3074
  448MOL0     N60396   8.720   7.773   7.708 -0.0260  0.4370 -0.2579
  448MOL0     C60397   7.852   7.411   6.982  0.8574 -0.5240  0.4195
  448MOL0     C60398   7.750   7.370   6.888 -0.3375  0.0549 -0.6525
  448MOL0     C60399   7.349   7.420   6.694  0.9597 -0.4347  0.1668
  448MOL0     C60400   7.286   7.522   6.616 -0.2070  0.6371 -0.2767
  448MOL0     C60401   7.169   7.510   6.546  0.2178  0.3959  0.1903
  448MOL0     C60402   7.100   7.387   6.539 -0.5189  0.6115 -0.7563
  448MOL0     O60403   6.969   7.392   6.494  0.3790 -0.4286  0.6334
  448MOL0     C60404   6.896   7.272   6.499  0.4664 -0.3022  0.3328
  448MOL0     C60405   6.754   7.290   6.422 -0.2223  0.7475  0.0650
  448MOL0     C60406   6.653   7.172   6.440  0.5631  0.5351  0.0973
  448MOL0     C60407   6.516   7.200   6.380 -0.1439  0.7545  0.2369
  448MOL0     C60408   6.456   7.320   6.441  0.0660  0.3984  0.0866
  448MOL0     C60409   6.387   7.413   6.485  0.1297 -0.3790 -0.4541
  448MOL0     C60410   7.168   7.280   6.604 -0.7491 -0.1344 -1.3604
  448MOL0     C60411   7.298   7.288   6.670  0.4782 -0.0750 -0.3808
  448MOL0     C60412   7.357   7.157   6.732 -0.2272  0.1282  0.8350
  448MOL0     H60413   7.490   7.477   7.077  0.8757 -1.1553  0.7370
  448MOL0     H60414   7.673   7.543   7.239 -1.4928 -3.1792  0.1923
  448MOL0     H60415   7.893   7.695   7.291 -1.2304 -0.4720  0.8604
  448MOL0     H60416   7.854   7.543   7.368 -1.1838  1.9809  0.1010
  448MOL0     H60417   8.060   7.520   7.459 -1.7660  0.0422  1.0710
  448MOL0     H60418   8.049   7.692   7.449 -0.0606  0.7211 -2.4757
  448MOL0     H60419   8.178   7.708   7.250  3.0720  0.6512  1.1969
  448MOL0     H60420   8.187   7.523   7.246 -2.3412  0.6128 -1.5541
  448MOL0     H60421   8.287   7.728   7.455 -1.4705  3.9891 -5.8997
  448MOL0     H60422   8.279   7.546   7.490  1.7869 -2.3554 -2.1045
  448MOL0     H60423   8.443   7.519   7.296 -1.1907 -1.2860  2.9447
  448MOL0     H60424   8.448   7.700   7.280  2.4700  2.1909  3.1364
  448MOL0     H60425   8.507   7.716   7.512  0.5555  1.1038 -1.0347
  448MOL0     H60426   8.526   7.531   7.517 -0.4314 -0.2694 -0.8765
  448MOL0     H60427   8.691   7.704   7.327  3.8043 -3.1400 -2.5209
  448MOL0     H60428   8.703   7.529   7.339 -0.1382 -1.5684  0.7631
  448MOL0     H60429   8.773   7.558   7.584  0.2994  1.0897 -0.2189
  448MOL0     H60430   8.888   7.631   7.461  1.0612 -1.0449 -0.8839
  448MOL0     H60431   8.840   7.913   7.435  3.6688  0.5946  1.4092
  448MOL0     H60432   8.767   8.168   7.705 -1.1320  0.0386  1.1129
  448MOL0     H60433   8.769   8.152   7.523 -0.1702 -1.1944 -0.1668
  448MOL0     H60434   8.516   8.119   7.705 -0.0778  3.6560  1.4152
  448MOL0     H60435   8.540   8.261   7.623  0.1461  0.2650 -2.9276
  448MOL0     H60436   8.400   8.134   7.487  0.9290  3.5142  2.6320
  448MOL0     H60437   8.476   7.983   7.506 -0.2898 -0.4320 -1.3932
  448MOL0     H60438   8.672   8.072   7.348 -1.3124 -2.3212 -3.2486
  448MOL0     H60439   8.561   8.228   7.342 -0.5383  0.6213  1.1603
  448MOL0     H60440   8.395   8.297   7.209  1.5149 -0.6401 -3.1321
  448MOL0     H60441   8.157   8.325   7.150 -2.1879 -0.8458 -0.8865
  448MOL0     H60442   7.699   8.151   7.173 -1.1839 -0.5961  1.5018
  448MOL0     H60443   7.462   8.084   7.169  0.8829 -0.5597  1.9557
  448MOL0     H60444   7.396   7.721   6.947 -0.0725 -2.1120  1.6711
  448MOL0     H60445   7.342   7.743   7.119  1.1447  0.9180 -0.0031
  448MOL0     H60446   7.187   7.760   6.864 -0.1610  0.9318  0.5023
  448MOL0     H60447   7.150   7.665   7.011 -2.2685  1.7036  2.6817
  448MOL0     H60448   7.113   7.891   7.123  2.2221 -0.7829 -0.5463
  448MOL0     H60449   7.096   7.960   6.960  1.4686 -0.4365  1.0235
  448MOL0     H60450   6.874   7.913   7.034 -0.7297 -1.1347  1.3656
  448MOL0     H60451   6.900   7.763   7.096 -3.0051  0.5626 -0.0339
  448MOL0     H60452   6.977   7.794   6.803  0.2715  1.5739  0.4236
  448MOL0     H60453   6.808   7.809   6.843 -1.5314  0.5327  2.8602
  448MOL0     H60454   6.886   7.569   6.772 -0.0446  0.5571  0.6499
  448MOL0     H60455   6.981   7.567   6.911 -0.1783 -1.2306 -2.0307
  448MOL0     H60456   6.681   7.550   6.883 -0.0113 -2.2503  0.4137
  448MOL0     H60457   6.734   7.590   7.049 -0.2179 -2.7467  0.5641
  448MOL0     H60458   6.826   7.349   6.909  0.6884  2.5629 -0.9897
  448MOL0     H60459   6.865   7.393   7.072  2.0346  0.8032 -1.9472
  448MOL0     H60460   7.576   7.793   6.875  2.0755  0.9360 -2.6550
  448MOL0     H60461   7.817   7.854   6.907  2.4073  1.8642  1.7928
  448MOL0     H60462   8.122   7.898   7.122 -1.5864 -0.5113  1.3628
  448MOL0     H60463   8.351   7.875   7.211  0.4924 -0.4661  1.4541
  448MOL0     H60464   7.956   7.384   6.973  1.8602  2.2166  2.3776
  448MOL0     H60465   7.779   7.325   6.793  1.5085  0.7697 -0.4821
  448MOL0     H60466   7.332   7.619   6.624  1.1060 -0.0246  0.5682
  448MOL0     H60467   7.121   7.595   6.499 -0.9796  0.3143  1.2048
  448MOL0     H60468   6.866   7.244   6.600  0.3143  1.5350  0.8250
  448MOL0     H60469   6.953   7.191   6.452  1.9373  0.6907  0.3178
  448MOL0     H60470   6.767   7.313   6.316 -1.4459  3.4347  0.4063
  448MOL0     H60471   6.713   7.384   6.462 -1.3193  1.4772 -2.5420
  448MOL0     H60472   6.634   7.155   6.547 -2.3899  0.1196 -0.4324
  448MOL0     H60473   6.691   7.083   6.391 -1.5513  0.2901 -1.1963
  448MOL0     H60474   6.528   7.203   6.272  2.7300  0.2339  0.4683
  448MOL0     H60475   6.446   7.119   6.403 -0.7736  0.2171 -3.0643
  448MOL0     H60476   6.333   7.503   6.507 -0.4319  0.1903 -3.6624
  448MOL0     H60477   7.116   7.185   6.592  1.3788 -1.6782  0.7972
  448MOL0     H60478   7.307   7.070   6.689 -0.3339  0.4963  0.2043
  448MOL0     H60479   7.460   7.161   6.696 -0.2970 -0.5389  0.5518
  448MOL0     H60480   7.351   7.159   6.841  1.3620  1.1489  0.9392
  449MOL0     O60481   4.727   5.460   1.973 -0.9030 -0.5523 -0.0191
  449MOL0     C60482   4.705   5.387   2.068  0.8102  0.1227 -1.0453
  449MOL0     O60483   4.790   5.346   2.160 -0.1369  0.1590 -0.1145
  449MOL0     C60484   4.908   5.410   2.187 -1.1869  0.6665  0.3118
  449MOL0     C60485   4.969   5.420   2.317  0.4138  0.8979  0.6681
  449MOL0     C60486   5.077   5.491   2.353 -0.1019 -0.4512 -0.2595
  449MOL0     C60487   5.142   5.562   2.257 -0.6587  0.4424 -0.1768
  449MOL0     O60488   5.255   5.636   2.283  0.6285  0.2134 -0.4552
  449MOL0     C60489   5.230   5.745   2.368  0.1449  0.7212 -0.7239
  449MOL0     C60490   5.345   5.848   2.346 -0.1941  0.0124 -0.2507
  449MOL0     C60491   5.488   5.778   2.340  0.7417  0.8631 -0.3025
  449MOL0     C60492   5.598   5.884   2.366  0.2823  1.2974  0.1213
  449MOL0     C60493   5.644   5.952   2.236  0.4199 -0.2155 -0.3702
  449MOL0     C60494   5.756   6.044   2.276 -0.9199 -0.0276  0.3230
  449MOL0     C60495   5.845   6.102   2.164 -0.6399  0.9682 -0.1404
  449MOL0     C60496   5.975   6.176   2.204 -0.7186 -0.5440  0.7540
  449MOL0     N60497   6.101   6.089   2.207 -0.3280 -0.8396 -0.7555
  449MOL0     C60498   6.211   6.102   2.119 -0.0228  0.5765  0.0969
  449MOL0     C60499   6.292   5.997   2.147 -0.5055 -0.3395  0.0597
  449MOL0     C60500   6.426   5.970   2.092 -0.7339  0.5009  1.1308
  449MOL0     C60501   6.525   6.090   2.097  0.2663  0.6005 -0.3705
  449MOL0     C60502   6.668   6.032   2.099  1.1025 -0.4490 -0.6446
  449MOL0     C60503   6.768   6.151   2.092  0.2214 -0.6918  1.1108
  449MOL0     O60504   6.893   6.091   2.111  0.0880 -0.9115  0.4591
  449MOL0     C60505   6.990   6.177   2.153 -0.5640 -0.6974 -0.3971
  449MOL0     C60506   7.100   6.129   2.229  0.8561 -0.0652 -0.6854
  449MOL0     C60507   7.206   6.210   2.270  0.3608  0.0203 -0.4584
  449MOL0     C60508   7.212   6.345   2.226  0.0197 -0.5179  0.4676
  449MOL0     C60509   7.321   6.437   2.267 -0.5193 -0.5276 -0.6770
  449MOL0     O60510   7.420   6.384   2.353 -0.5736 -0.5387  0.2597
  449MOL0     C60511   7.529   6.459   2.399  1.0721 -0.0818 -0.4757
  449MOL0     C60512   7.588   6.408   2.521  0.0878 -0.7792  1.2955
  449MOL0     C60513   7.695   6.477   2.576  0.1874  0.2051  0.4942
  449MOL0     C60514   7.755   6.593   2.513  0.1039  0.3968 -0.2903
  449MOL0     O60515   7.869   6.649   2.557  0.2341  0.0662 -0.3600
  449MOL0     C60516   7.898   6.648   2.704  1.1394  0.4022  0.2241
  449MOL0     C60517   8.009   6.730   2.751  0.4040  0.3459 -0.6394
  449MOL0     C60518   8.150   6.680   2.724 -0.3385  0.1542 -0.7468
  449MOL0     C60519   8.198   6.553   2.782  0.4729  0.2780  0.3022
  449MOL0     C60520   8.345   6.543   2.787 -0.6941 -0.0787 -0.0416
  449MOL0     C60521   8.395   6.395   2.809  0.4290 -0.2422  0.6810
  449MOL0     C60522   8.391   6.349   2.958  0.2241  0.2235 -0.0485
  449MOL0     C60523   8.438   6.206   2.974  0.1207 -0.2298 -0.9534
  449MOL0    Cl60524   8.305   6.101   2.928 -0.5039  0.3662 -0.2231
  449MOL0     C60525   7.705   6.632   2.391  0.1368 -1.0797  0.2088
  449MOL0     C60526   7.588   6.571   2.335 -0.1191 -0.3707  0.0838
  449MOL0     O60527   7.306   6.555   2.235  0.2262  0.0814  0.1901
  449MOL0     C60528   7.111   6.389   2.134  0.6403  0.4615  0.2838
  449MOL0     C60529   7.004   6.308   2.096 -0.1482  0.1554 -0.1787
  449MOL0     N60530   6.235   5.922   2.250  0.0378 -0.4817 -0.0631
  449MOL0     N60531   6.117   5.976   2.282 -0.5078  0.3924  0.7154
  449MOL0     C60532   5.111   5.537   2.131  1.0432  0.5269  0.2083
  449MOL0     C60533   4.990   5.466   2.093 -0.0982  0.4227  0.6852
  449MOL0     C60534   4.569   5.316   2.081 -0.3835 -0.1988  0.4070
  449MOL0     C60535   4.544   5.244   2.200  0.1899  0.2178  1.0572
  449MOL0     C60536   4.426   5.168   2.216 -0.4401 -0.1940 -0.4078
  449MOL0     C60537   4.326   5.159   2.118  0.1033  0.0218  0.0969
  449MOL0     O60538   4.219   5.088   2.147  0.5854 -0.1085  0.0809
  449MOL0     C60539   4.186   4.985   2.051 -0.4533  0.3816  0.6032
  449MOL0     C60540   4.311   4.901   1.996 -0.9656 -0.5643  1.1659
  449MOL0     C60541   4.378   4.821   2.108  0.1362  0.3806 -0.1259
  449MOL0     C60542   4.502   4.746   2.063 -0.5563 -0.3523  0.2394
  449MOL0     C60543   4.583   4.700   2.176  0.4976 -0.5736  0.0593
  449MOL0     C60544   4.658   4.665   2.273  0.7951  0.6719 -0.0197
  449MOL0     C60545   4.346   5.231   1.999 -0.0320  0.3115 -0.2105
  449MOL0     C60546   4.466   5.314   1.984 -0.3446 -0.2857 -0.7816
  449MOL0     C60547   4.480   5.403   1.856  0.2740 -0.0068 -0.1561
  449MOL0     H60548   4.893   5.385   2.388 -0.2878  1.1313  0.0461
  449MOL0     H60549   5.097   5.509   2.458  0.5505  0.0740 -0.4659
  449MOL0     H60550   5.138   5.793   2.334 -1.5722 -1.1209  1.0014
  449MOL0     H60551   5.198   5.712   2.468 -1.2559 -2.5973 -2.1233
  449MOL0     H60552   5.340   5.922   2.426  1.8170  0.1301 -0.1877
  449MOL0     H60553   5.328   5.895   2.248 -0.1522  1.3046  0.3423
  449MOL0     H60554   5.494   5.727   2.243 -2.7386  0.8764 -0.6593
  449MOL0     H60555   5.492   5.695   2.411  1.4165  1.5225  0.4446
  449MOL0     H60556   5.571   5.960   2.440  1.6642 -0.9137  3.1145
  449MOL0     H60557   5.683   5.828   2.406 -2.3725 -2.7837  0.7378
  449MOL0     H60558   5.674   5.881   2.158 -0.8369 -1.7668  0.5072
  449MOL0     H60559   5.568   6.019   2.195  2.4828  2.7506  0.3456
  449MOL0     H60560   5.705   6.125   2.328  1.2367  0.5538  1.6756
  449MOL0     H60561   5.821   5.986   2.343 -1.4435 -1.1377 -0.1021
  449MOL0     H60562   5.787   6.173   2.105 -4.0892  1.1750  3.1051
  449MOL0     H60563   5.878   6.022   2.097  0.3392  0.8944  0.4167
  449MOL0     H60564   5.996   6.253   2.128 -1.0089 -2.1656 -1.0488
  449MOL0     H60565   5.956   6.218   2.303 -1.3073  0.2244  0.3308
  449MOL0     H60566   6.233   6.185   2.052 -1.0587  0.0348 -0.9364
  449MOL0     H60567   6.462   5.879   2.141 -1.3132 -0.5196 -0.3015
  449MOL0     H60568   6.419   5.940   1.988  1.6726 -0.7041  1.2476
  449MOL0     H60569   6.521   6.159   2.013  1.6824  0.7375 -0.3526
  449MOL0     H60570   6.500   6.143   2.189 -2.7266 -3.7402  1.6780
  449MOL0     H60571   6.672   5.979   2.003  1.9684  1.0625 -1.4855
  449MOL0     H60572   6.693   5.962   2.179  2.7497  0.9370  0.0997
  449MOL0     H60573   6.737   6.211   2.178 -1.9454 -0.9277  0.5610
  449MOL0     H60574   6.759   6.205   1.998 -1.3488 -0.9025  1.1120
  449MOL0     H60575   7.092   6.024   2.255  1.2143  0.1861  0.4800
  449MOL0     H60576   7.281   6.177   2.341 -0.6731 -2.9716 -0.6352
  449MOL0     H60577   7.547   6.318   2.567  0.5082 -0.2078  2.8327
  449MOL0     H60578   7.731   6.446   2.673 -3.1579  1.4554  2.2867
  449MOL0     H60579   7.810   6.675   2.764  1.8984 -0.7368  1.9163
  449MOL0     H60580   7.919   6.544   2.728  1.6616  0.9790  2.4673
  449MOL0     H60581   7.986   6.828   2.708  0.1589  1.7848  2.5157
  449MOL0     H60582   8.004   6.731   2.860  1.0977  0.5290 -0.6024
  449MOL0     H60583   8.175   6.669   2.618 -0.7898 -1.1274 -0.7369
  449MOL0     H60584   8.214   6.762   2.757 -0.3651  0.1145 -0.5932
  449MOL0     H60585   8.148   6.484   2.712 -2.7134  1.9236  0.7748
  449MOL0     H60586   8.167   6.527   2.883  2.6757 -1.4037  0.6214
  449MOL0     H60587   8.384   6.616   2.859 -1.8941  1.6838 -1.0801
  449MOL0     H60588   8.389   6.566   2.689  1.9313  3.1149  1.6817
  449MOL0     H60589   8.326   6.337   2.748  1.1014 -0.1374 -0.1977
  449MOL0     H60590   8.495   6.382   2.766  0.5281  2.2550 -0.0184
  449MOL0     H60591   8.294   6.365   3.006  0.6626 -1.3826  1.4836
  449MOL0     H60592   8.469   6.408   3.007 -0.5365  0.5317  0.8263
  449MOL0     H60593   8.526   6.178   2.915  2.7403 -0.6264  2.8170
  449MOL0     H60594   8.454   6.191   3.081  1.2022 -1.6577 -1.2950
  449MOL0     H60595   7.737   6.717   2.331 -1.5104 -2.3564 -2.6979
  449MOL0     H60596   7.547   6.598   2.239  0.6369 -2.1173 -0.7761
  449MOL0     H60597   7.117   6.489   2.091 -0.5066 -0.3896 -2.0397
  449MOL0     H60598   6.923   6.345   2.033  0.3899 -0.4374 -1.2401
  449MOL0     H60599   5.185   5.567   2.056 -0.0842  0.8287 -0.8265
  449MOL0     H60600   4.978   5.446   1.987 -0.8744  1.3499  0.5889
  449MOL0     H60601   4.613   5.265   2.281 -1.8308  2.6046  2.3015
  449MOL0     H60602   4.405   5.121   2.312  1.0565 -0.4297 -0.1635
  449MOL0     H60603   4.135   5.029   1.964  0.8958  0.4154 -0.1909
  449MOL0     H60604   4.107   4.922   2.093 -0.8716 -2.4622 -3.7907
  449MOL0     H60605   4.388   4.955   1.941 -0.5655 -2.6107 -0.4144
  449MOL0     H60606   4.274   4.838   1.915 -0.8172 -0.3088  0.8979
  449MOL0     H60607   4.304   4.750   2.146  0.0948 -0.4209 -1.6528
  449MOL0     H60608   4.406   4.889   2.189  0.5132 -0.6384  0.6178
  449MOL0     H60609   4.463   4.659   2.009  0.9633  0.2576 -1.9829
  449MOL0     H60610   4.562   4.807   1.995 -0.6109 -0.0590  0.4497
  449MOL0     H60611   4.724   4.641   2.353  1.8146  0.7037 -0.8346
  449MOL0     H60612   4.263   5.232   1.930  1.2193 -0.1380 -1.7627
  449MOL0     H60613   4.496   5.509   1.878 -0.8459 -0.3773  2.9327
  449MOL0     H60614   4.569   5.365   1.806 -1.4743 -0.1318 -3.4102
  449MOL0     H60615   4.393   5.395   1.790 -0.6336 -0.1601  1.0116
  450MOL0     O60616   8.387   3.728   8.896 -0.4499 -0.1396  0.1357
  450MOL0     C60617   8.271   3.700   8.865 -0.2245 -0.2834 -0.6372
  450MOL0     O60618   8.226   3.576   8.856  0.2989 -0.1710  0.2272
  450MOL0     C60619   8.302   3.469   8.890 -0.3860  0.0724 -0.5715
  450MOL0     C60620   8.279   3.355   8.817  0.2802  0.2648 -0.1033
  450MOL0     C60621   8.351   3.229   8.830  0.5903  0.1681  0.7173
  450MOL0     C60622   8.451   3.222   8.919 -0.3808 -0.5940  0.1586
  450MOL0     O60623   8.502   3.100   8.935 -0.0038  0.0132 -0.7163
  450MOL0     C60624   8.577   3.076   9.052 -0.1822  0.3650  0.0926
  450MOL0     C60625   8.586   2.928   9.062 -0.7321  0.1614  0.5516
  450MOL0     C60626   8.669   2.870   8.941 -0.3117  0.4740  1.0963
  450MOL0     C60627   8.716   2.731   8.973  0.1422 -1.5407  0.1015
  450MOL0     C60628   8.787   2.676   8.847 -0.0209  0.6456 -0.5416
  450MOL0     C60629   8.927   2.733   8.838  0.1246 -0.2140 -0.4099
  450MOL0     C60630   9.006   2.703   8.716 -0.0883  0.1097 -0.3873
  450MOL0     C60631   9.146   2.771   8.734  0.5228 -0.5935  0.1713
  450MOL0     N60632   9.229   2.756   8.615  0.4577 -0.2024  0.2869
  450MOL0     C60633   9.336   2.678   8.612 -0.0335 -1.0070 -0.6606
  450MOL0     C60634   9.375   2.696   8.481 -0.2652 -0.0352  0.1759
  450MOL0     C60635   9.500   2.627   8.430  0.2443 -0.4763 -0.3765
  450MOL0     C60636   9.473   2.535   8.308 -0.6355 -1.2248 -0.0662
  450MOL0     C60637   9.615   2.513   8.244  1.1462 -0.5577 -0.2281
  450MOL0     C60638   9.718   2.442   8.337 -0.0182 -0.2604 -0.3733
  450MOL0     O60639   9.821   2.408   8.244 -0.2048 -0.4272  0.6475
  450MOL0     C60640   9.947   2.381   8.283 -0.6918  0.2137 -0.0036
  450MOL0     C60641  10.022   2.302   8.198  0.3865  0.2636 -0.2483
  450MOL0     C60642  10.150   2.256   8.235 -0.5080  0.1574 -0.8310
  450MOL0     C60643  10.206   2.298   8.363 -0.3963 -0.3533 -0.3190
  450MOL0     C60644  10.344   2.257   8.405 -0.7612  0.5908  0.0579
  450MOL0     O60645  10.425   2.226   8.296 -0.1007  0.4814  0.1181
  450MOL0     C60646  10.547   2.164   8.318  0.6228 -0.2068  0.1064
  450MOL0     C60647  10.653   2.224   8.259 -0.4487  0.8594  0.3693
  450MOL0     C60648  10.777   2.157   8.265  0.2525 -0.6106  0.6627
  450MOL0     C60649  10.799   2.042   8.341 -0.4151  0.7485  0.2944
  450MOL0     O60650  10.915   1.972   8.358  0.3599  0.3011  0.0313
  450MOL0     C60651  11.029   2.048   8.414  0.4818 -0.1874 -0.2367
  450MOL0     C60652  11.127   1.953   8.476  0.3929  0.8789 -0.8228
  450MOL0     C60653  11.229   1.892   8.384 -0.1147 -0.0623  0.0640
  450MOL0     C60654  11.303   1.782   8.469  0.2914 -0.7180 -0.9330
  450MOL0     C60655  11.435   1.731   8.422  0.2595  0.4131 -0.6947
  450MOL0     C60656  11.563   1.821   8.457 -0.7230  0.1173  0.4188
  450MOL0     C60657  11.589   1.822   8.609  0.5153  0.3620  0.6277
  450MOL0     C60658  11.717   1.887   8.633  0.1436  0.1609  0.4053
  450MOL0    Cl60659  11.850   1.800   8.551  0.4377 -0.4385  0.0790
  450MOL0     C60660  10.689   1.995   8.418 -0.0909 -0.9353 -0.6986
  450MOL0     C60661  10.561   2.047   8.396 -0.5668  0.3567  0.5197
  450MOL0     O60662  10.367   2.239   8.527  0.5546 -0.1982 -0.9517
  450MOL0     C60663  10.126   2.379   8.448  0.1173 -0.4852 -0.3416
  450MOL0     C60664   9.997   2.420   8.409 -0.8663  0.2942 -0.5730
  450MOL0     N60665   9.309   2.792   8.417  0.1905  0.4565  0.1308
  450MOL0     N60666   9.214   2.820   8.498 -0.6340  0.2157  0.1309
  450MOL0     C60667   8.477   3.336   8.997 -1.2085 -0.1813 -0.6779
  450MOL0     C60668   8.408   3.460   8.984 -0.0452  0.0131 -0.2709
  450MOL0     C60669   8.176   3.800   8.850 -0.1541 -0.2322 -0.2381
  450MOL0     C60670   8.134   3.854   8.977 -0.2120  0.5836 -0.4316
  450MOL0     C60671   8.025   3.944   8.980  1.3236 -0.1263  0.4724
  450MOL0     C60672   7.970   4.001   8.865  0.2061  0.4153  0.2532
  450MOL0     O60673   7.860   4.087   8.858 -0.1199  0.5763  0.4958
  450MOL0     C60674   7.733   4.025   8.891 -0.7240  0.2378 -0.4838
  450MOL0     C60675   7.667   3.933   8.795  0.2050  0.7960 -0.4864
  450MOL0     C60676   7.607   3.804   8.853 -0.3423 -0.1889 -0.0732
  450MOL0     C60677   7.471   3.832   8.926 -0.1826 -0.9016  0.4891
  450MOL0     C60678   7.441   3.714   9.004  0.2018  0.2845  0.0937
  450MOL0     C60679   7.402   3.617   9.052 -1.0946 -0.1355  0.0400
  450MOL0     C60680   8.016   3.949   8.739  0.1483  0.0029 -0.0701
  450MOL0     C60681   8.113   3.845   8.730 -0.3840 -0.6674  0.0383
  450MOL0     C60682   8.155   3.800   8.591  0.4940  0.0509 -0.0292
  450MOL0     H60683   8.194   3.356   8.750  0.1183  0.9401  0.1053
  450MOL0     H60684   8.334   3.131   8.787 -0.4608  1.0553 -0.9779
  450MOL0     H60685   8.675   3.124   9.038  0.7004 -1.9642 -2.7148
  450MOL0     H60686   8.514   3.108   9.136  1.1649 -1.3781  1.8517
  450MOL0     H60687   8.488   2.880   9.072 -0.5182 -0.1055  1.4583
  450MOL0     H60688   8.635   2.904   9.156 -0.2097 -0.3001  0.1680
  450MOL0     H60689   8.747   2.940   8.914 -0.8854  0.4765 -0.6571
  450MOL0     H60690   8.603   2.860   8.854 -0.3854  0.4830  1.1505
  450MOL0     H60691   8.782   2.722   9.060  1.2018 -2.5806 -0.7558
  450MOL0     H60692   8.632   2.666   8.998  0.5910 -0.9683  3.6754
  450MOL0     H60693   8.815   2.574   8.875 -1.5449  0.8124  1.9246
  450MOL0     H60694   8.743   2.697   8.749  0.8354  0.0203 -1.0788
  450MOL0     H60695   8.923   2.842   8.846 -2.4723 -0.2062 -1.0239
  450MOL0     H60696   8.982   2.699   8.927  1.0861  1.1208 -0.4687
  450MOL0     H60697   8.971   2.732   8.616  3.0133  1.5452 -1.1913
  450MOL0     H60698   9.029   2.596   8.717  3.7578  0.6996 -3.4103
  450MOL0     H60699   9.131   2.878   8.751 -0.1540 -0.6511 -0.0394
  450MOL0     H60700   9.193   2.734   8.825 -0.0724 -2.2818 -0.1623
  450MOL0     H60701   9.377   2.609   8.685  3.7071  1.4170 -0.1574
  450MOL0     H60702   9.567   2.711   8.409 -0.0236  0.4658  2.1502
  450MOL0     H60703   9.535   2.566   8.514 -0.3311  2.5269  2.2399
  450MOL0     H60704   9.425   2.447   8.352  2.3384 -2.3743  1.1981
  450MOL0     H60705   9.414   2.578   8.227  1.2434  0.6636 -0.5136
  450MOL0     H60706   9.655   2.607   8.206 -0.9743  0.2821 -0.5068
  450MOL0     H60707   9.591   2.441   8.166  0.5044  1.2620 -1.7798
  450MOL0     H60708   9.693   2.347   8.386 -0.6702 -1.7584 -3.3669
  450MOL0     H60709   9.749   2.519   8.408  3.5413  1.7184 -3.7241
  450MOL0     H60710   9.970   2.276   8.106 -0.4052  2.0751 -0.3585
  450MOL0     H60711  10.200   2.194   8.161 -0.9999 -2.6618  1.0260
  450MOL0     H60712  10.641   2.314   8.199 -4.5937  0.4810  0.3623
  450MOL0     H60713  10.862   2.202   8.214  0.3851 -3.5439 -2.0048
  450MOL0     H60714  11.084   2.109   8.341  1.2083  0.2010  0.6188
  450MOL0     H60715  11.000   2.113   8.497 -1.5271  1.1284 -1.8606
  450MOL0     H60716  11.193   2.007   8.544  0.2007 -1.3000  1.2724
  450MOL0     H60717  11.072   1.881   8.538  0.7655  2.6029  1.6281
  450MOL0     H60718  11.180   1.851   8.295  1.1587  0.7756 -1.0805
  450MOL0     H60719  11.299   1.968   8.346 -0.7183  1.1374  1.2503
  450MOL0     H60720  11.232   1.699   8.472 -2.0159  1.1947  1.4549
  450MOL0     H60721  11.302   1.805   8.576 -1.3156  1.9189 -1.4375
  450MOL0     H60722  11.412   1.715   8.316 -2.0313  2.3484 -0.5702
  450MOL0     H60723  11.452   1.632   8.465 -0.4891  1.7407  2.9885
  450MOL0     H60724  11.652   1.787   8.404 -0.7129 -0.2279  0.6533
  450MOL0     H60725  11.550   1.923   8.421 -1.3728 -0.6138 -1.5466
  450MOL0     H60726  11.595   1.717   8.637  0.2816 -0.7636 -2.9664
  450MOL0     H60727  11.506   1.863   8.666 -0.4053 -0.7420  0.1066
  450MOL0     H60728  11.725   1.988   8.590  0.0500 -1.0478 -2.6887
  450MOL0     H60729  11.738   1.880   8.741 -1.8215 -1.4864  0.7349
  450MOL0     H60730  10.701   1.917   8.491  0.5713  0.2677  0.5306
  450MOL0     H60731  10.476   1.995   8.438  0.1994 -1.5474 -0.1807
  450MOL0     H60732  10.176   2.404   8.541 -1.0690 -0.5236  0.3311
  450MOL0     H60733   9.937   2.479   8.477 -2.6635  1.9177 -3.3308
  450MOL0     H60734   8.551   3.335   9.076 -2.0191 -0.7176  0.0963
  450MOL0     H60735   8.442   3.543   9.045  1.4405 -1.7243  1.3664
  450MOL0     H60736   8.176   3.811   9.067  1.3877  1.7317 -0.5706
  450MOL0     H60737   7.972   3.975   9.069 -0.6377  1.2571 -1.0883
  450MOL0     H60738   7.666   4.107   8.917  0.1838  1.0595 -0.6568
  450MOL0     H60739   7.731   3.973   8.986 -5.7084 -3.1825 -2.0754
  450MOL0     H60740   7.732   3.905   8.711  2.0053 -2.6802  1.8105
  450MOL0     H60741   7.592   3.989   8.738  0.4037  1.0018 -0.5510
  450MOL0     H60742   7.675   3.763   8.928 -0.5945  0.4649  0.5119
  450MOL0     H60743   7.590   3.734   8.770  3.2760  1.4301 -2.4340
  450MOL0     H60744   7.474   3.922   8.987 -1.7927 -1.1092  0.9312
  450MOL0     H60745   7.390   3.845   8.853  3.3364 -0.6136 -3.7649
  450MOL0     H60746   7.372   3.533   9.112  3.2105 -1.5057  0.5866
  450MOL0     H60747   7.966   3.989   8.652 -1.2090  0.1709  0.7481
  450MOL0     H60748   8.125   3.695   8.577  0.5602 -0.0046  0.2253
  450MOL0     H60749   8.108   3.863   8.516  1.7203 -0.2815 -1.0997
  450MOL0     H60750   8.264   3.803   8.581  0.4550  0.4444 -0.3123
  451MOL0     O60751   5.738   7.764   8.459 -0.1499  0.2163 -0.3602
  451MOL0     C60752   5.693   7.880   8.477 -0.3637 -0.2994 -0.4711
  451MOL0     O60753   5.753   7.983   8.545 -0.4273 -0.2891 -0.0146
  451MOL0     C60754   5.867   7.945   8.617  0.6773  0.3675 -0.5576
  451MOL0     C60755   5.847   7.949   8.753  0.4864  0.4281 -0.5757
  451MOL0     C60756   5.954   7.914   8.841 -0.5886 -0.1930 -0.5352
  451MOL0     C60757   6.083   7.898   8.781 -0.4439  0.1842 -0.0251
  451MOL0     O60758   6.199   7.837   8.829  0.5186 -0.5523  0.3948
  451MOL0     C60759   6.170   7.717   8.908 -0.3771  0.1694  0.6999
  451MOL0     C60760   6.288   7.691   8.996 -0.2865 -0.2089 -0.7447
  451MOL0     C60761   6.283   7.551   9.059 -0.3234 -0.1582 -0.1299
  451MOL0     C60762   6.427   7.509   9.106  0.2222 -0.0952  0.4432
  451MOL0     C60763   6.483   7.587   9.224 -0.5196 -0.0480 -0.1931
  451MOL0     C60764   6.603   7.521   9.276  1.0461 -0.1117 -0.1236
  451MOL0     C60765   6.721   7.507   9.179  0.0113  0.7235 -0.3853
  451MOL0     C60766   6.838   7.438   9.252 -0.6597 -0.4613  0.0995
  451MOL0     N60767   6.949   7.405   9.159  0.7148  0.0012 -0.2225
  451MOL0     C60768   7.033   7.498   9.105 -0.4338  0.1274  0.1279
  451MOL0     C60769   7.106   7.434   9.016  0.1287  0.3789  0.0953
  451MOL0     C60770   7.201   7.486   8.921  0.0306 -0.5448  0.3422
  451MOL0     C60771   7.342   7.434   8.936 -0.1520  0.6743  0.1680
  451MOL0     C60772   7.415   7.470   9.063 -0.3814 -0.1585 -0.4054
  451MOL0     C60773   7.435   7.624   9.091 -0.6431 -0.1394 -0.1307
  451MOL0     O60774   7.513   7.671   8.979  0.2616 -0.7264  0.6914
  451MOL0     C60775   7.583   7.789   8.991  0.5571  0.7986 -0.2881
  451MOL0     C60776   7.679   7.812   8.893  0.1868 -0.7523  0.3388
  451MOL0     C60777   7.736   7.935   8.887 -0.4707 -0.4857  0.2679
  451MOL0     C60778   7.692   8.040   8.961  1.3994 -0.0154 -1.1973
  451MOL0     C60779   7.752   8.179   8.951 -0.4564  0.8337 -0.2374
  451MOL0     O60780   7.821   8.203   8.833  0.3970 -0.9491 -0.0467
  451MOL0     C60781   7.896   8.316   8.814  0.5402  0.2189  0.4300
  451MOL0     C60782   7.848   8.448   8.838  0.5589 -0.0291 -0.1297
  451MOL0     C60783   7.926   8.560   8.810 -0.1267  0.0976 -0.1523
  451MOL0     C60784   8.066   8.541   8.776 -0.4876 -0.7543  0.0875
  451MOL0     O60785   8.144   8.637   8.729 -0.7685 -0.0176  0.8693
  451MOL0     C60786   8.086   8.758   8.698 -0.7253  0.6860 -0.2703
  451MOL0     C60787   8.181   8.865   8.646 -1.2350  0.3125  0.8263
  451MOL0     C60788   8.250   8.821   8.517  0.5836  0.7340  1.1925
  451MOL0     C60789   8.301   8.924   8.421 -0.5001 -0.0904 -0.6097
  451MOL0     C60790   8.432   8.991   8.480 -0.5416  0.0818 -0.1470
  451MOL0     C60791   8.468   9.124   8.425  0.5657 -0.4930 -0.2169
  451MOL0     C60792   8.488   9.134   8.270  0.1390 -0.3854  0.6021
  451MOL0     C60793   8.615   9.074   8.217  0.1550  1.1981  1.4119
  451MOL0    Cl60794   8.760   9.115   8.324  0.6511  0.2557  0.2285
  451MOL0     C60795   8.116   8.414   8.762 -0.3574  0.8419 -0.4873
  451MOL0     C60796   8.032   8.301   8.789  0.1216 -0.4243 -0.4508
  451MOL0     O60797   7.748   8.251   9.052  0.4797  0.2985  0.3642
  451MOL0     C60798   7.615   8.010   9.067  0.0657 -1.2903 -0.1884
  451MOL0     C60799   7.559   7.887   9.079  0.0524  0.1630  0.0760
  451MOL0     N60800   7.084   7.294   9.034  0.0388 -0.2311  0.0602
  451MOL0     N60801   6.988   7.285   9.119  0.8026 -0.3375 -0.5597
  451MOL0     C60802   6.100   7.903   8.647 -0.3560 -0.2429 -0.5374
  451MOL0     C60803   5.991   7.928   8.562 -0.5517  0.9795 -0.0787
  451MOL0     C60804   5.558   7.912   8.427  0.5781  0.0920 -0.4792
  451MOL0     C60805   5.451   7.895   8.518 -1.1203  0.4104 -0.7646
  451MOL0     C60806   5.323   7.898   8.474  0.0346 -1.1317  0.5526
  451MOL0     C60807   5.294   7.908   8.336  0.0213 -0.5186  0.2193
  451MOL0     O60808   5.168   7.900   8.293 -0.1471  0.3488 -0.7440
  451MOL0     C60809   5.112   8.018   8.231 -0.1172 -0.5402 -0.4256
  451MOL0     C60810   4.960   8.015   8.238 -0.5397  0.1146 -0.3727
  451MOL0     C60811   4.912   7.889   8.174  0.3020 -0.0955 -0.1324
  451MOL0     C60812   4.808   7.909   8.064  0.0710 -0.0414 -0.9826
  451MOL0     C60813   4.779   7.780   8.000  0.6185  0.4069  0.3351
  451MOL0     C60814   4.764   7.671   7.960 -0.5808  0.7827  0.9442
  451MOL0     C60815   5.400   7.911   8.247  0.1445 -0.1844 -0.4090
  451MOL0     C60816   5.539   7.925   8.287  0.2781  0.5395  0.7642
  451MOL0     C60817   5.647   7.940   8.182 -0.0816  0.4556  0.3245
  451MOL0     H60818   5.750   7.963   8.800  1.4983  0.8341  1.4945
  451MOL0     H60819   5.939   7.906   8.948  0.0826 -0.3122 -0.4481
  451MOL0     H60820   6.076   7.721   8.965  0.3604 -0.6273  2.0387
  451MOL0     H60821   6.152   7.636   8.837 -3.4894  0.7043  0.7253
  451MOL0     H60822   6.283   7.772   9.070 -0.8778 -0.4898 -0.4666
  451MOL0     H60823   6.383   7.710   8.945 -1.1043 -1.3022 -2.7862
  451MOL0     H60824   6.244   7.476   8.989 -0.0810  1.5834 -2.2040
  451MOL0     H60825   6.215   7.552   9.144  0.1365 -0.6811  0.2516
  451MOL0     H60826   6.426   7.400   9.118  0.4544 -0.3835 -1.8197
  451MOL0     H60827   6.492   7.526   9.020 -2.2472 -3.2796 -2.3015
  451MOL0     H60828   6.511   7.691   9.202 -1.1731  0.6808  2.1860
  451MOL0     H60829   6.408   7.600   9.302 -0.1453 -0.6841  0.2727
  451MOL0     H60830   6.642   7.567   9.368  2.1232 -1.9642  0.3964
  451MOL0     H60831   6.578   7.418   9.300 -1.1498  0.1686 -0.9878
  451MOL0     H60832   6.756   7.604   9.144 -1.1507  1.2219 -0.1909
  451MOL0     H60833   6.692   7.442   9.095  1.4750  0.2913 -0.5830
  451MOL0     H60834   6.872   7.509   9.329 -2.7590  0.3341  0.3710
  451MOL0     H60835   6.795   7.349   9.299  0.1937 -1.1361 -0.3672
  451MOL0     H60836   7.018   7.604   9.123 -5.8096  0.0579 -1.9751
  451MOL0     H60837   7.159   7.470   8.821  0.1076  2.2834 -0.2260
  451MOL0     H60838   7.186   7.594   8.928 -3.7467 -0.9871  1.0734
  451MOL0     H60839   7.331   7.325   8.942 -0.3325  0.7728  2.1037
  451MOL0     H60840   7.394   7.459   8.843  0.2629  2.4309  0.8361
  451MOL0     H60841   7.518   7.431   9.060  0.2506  1.3615  0.5604
  451MOL0     H60842   7.370   7.433   9.155  1.0700  0.2518  0.5064
  451MOL0     H60843   7.486   7.638   9.187 -1.4376 -1.7589  0.5610
  451MOL0     H60844   7.343   7.681   9.101 -0.5395 -0.2919  2.2514
  451MOL0     H60845   7.696   7.738   8.816 -0.9851 -1.2232  0.5060
  451MOL0     H60846   7.801   7.952   8.802 -0.4023 -1.1879  0.1746
  451MOL0     H60847   7.749   8.479   8.872  0.6061  0.2638 -0.2516
  451MOL0     H60848   7.871   8.652   8.826 -2.1791 -1.0392 -0.3212
  451MOL0     H60849   8.018   8.743   8.613  1.3198 -2.5748 -1.4882
  451MOL0     H60850   8.029   8.807   8.778 -3.7487 -2.0964 -0.5269
  451MOL0     H60851   8.146   8.968   8.630  1.4378  1.5448  2.3407
  451MOL0     H60852   8.259   8.896   8.716  2.0542  1.1924 -2.8736
  451MOL0     H60853   8.326   8.752   8.555 -1.9230 -2.0628  1.4566
  451MOL0     H60854   8.183   8.765   8.451  3.6044 -1.0905 -0.6164
  451MOL0     H60855   8.231   9.005   8.402  0.4946  0.4920 -1.9320
  451MOL0     H60856   8.330   8.880   8.325  0.0320 -0.7107 -0.1766
  451MOL0     H60857   8.514   8.922   8.460  0.1733  1.4442 -2.3780
  451MOL0     H60858   8.421   9.008   8.587 -1.9832  0.0743 -0.2620
  451MOL0     H60859   8.390   9.195   8.455  2.3419  1.9625 -1.1070
  451MOL0     H60860   8.559   9.162   8.474  0.3762  2.4376 -1.9276
  451MOL0     H60861   8.485   9.240   8.245  0.3902 -0.7473 -1.0932
  451MOL0     H60862   8.397   9.089   8.227 -2.8147  1.7996  3.9672
  451MOL0     H60863   8.599   8.966   8.220 -2.5574  1.5409  1.6206
  451MOL0     H60864   8.628   9.104   8.112 -1.7088 -0.1147  0.7530
  451MOL0     H60865   8.220   8.392   8.740 -0.7052  1.2657 -2.7627
  451MOL0     H60866   8.088   8.208   8.787  0.4719 -0.2476  0.5040
  451MOL0     H60867   7.576   8.089   9.131  0.1461 -0.9142 -0.5992
  451MOL0     H60868   7.489   7.870   9.160 -0.2005 -0.1960 -0.2166
  451MOL0     H60869   6.196   7.883   8.600 -0.1002  0.9790 -0.5568
  451MOL0     H60870   5.995   7.909   8.455  2.5899  0.3261  0.0523
  451MOL0     H60871   5.480   7.866   8.618 -0.1753 -1.3025 -1.4868
  451MOL0     H60872   5.237   7.881   8.537 -1.8526  1.2190 -1.2034
  451MOL0     H60873   5.149   8.014   8.128  0.2094  0.3050 -0.3480
  451MOL0     H60874   5.153   8.109   8.277  1.1615 -2.0461  1.6225
  451MOL0     H60875   4.926   8.110   8.196  0.6200  1.1218  0.8759
  451MOL0     H60876   4.926   8.008   8.342 -1.6017 -1.1156 -0.7834
  451MOL0     H60877   4.876   7.822   8.252  0.1903  0.1499  0.0287
  451MOL0     H60878   4.994   7.833   8.130  2.1122  1.0856  1.5628
  451MOL0     H60879   4.718   7.952   8.108 -0.2050 -1.0867 -0.4900
  451MOL0     H60880   4.847   7.982   7.992 -0.3132  2.4896  1.2208
  451MOL0     H60881   4.757   7.571   7.923 -0.5904  0.7624  1.0017
  451MOL0     H60882   5.364   7.922   8.145 -3.4813  1.3319  0.9065
  451MOL0     H60883   5.663   7.846   8.129 -1.1305  0.2348  0.3840
  451MOL0     H60884   5.625   8.024   8.116 -0.7962  0.9519  1.1685
  451MOL0     H60885   5.741   7.979   8.223 -0.2561  1.9642 -0.6485
  452MOL0     O60886   1.726   5.767   8.048 -0.6703  0.2475  1.3678
  452MOL0     C60887   1.759   5.842   7.953 -1.3439  0.3425  0.1260
  452MOL0     O60888   1.679   5.938   7.907  0.5492 -0.3432 -0.3391
  452MOL0     C60889   1.572   5.991   7.975 -0.1517 -0.0423  0.3918
  452MOL0     C60890   1.491   5.947   8.079  1.5755 -0.5017 -0.2761
  452MOL0     C60891   1.393   6.024   8.142  0.2538 -0.1329 -0.3765
  452MOL0     C60892   1.366   6.155   8.102 -0.1081 -0.3464  0.2105
  452MOL0     O60893   1.260   6.210   8.181  0.1843  0.0331  0.4203
  452MOL0     C60894   1.281   6.351   8.198  0.4275  0.3448  0.8352
  452MOL0     C60895   1.182   6.405   8.296 -0.2614 -0.9788  0.1806
  452MOL0     C60896   1.164   6.322   8.421  0.5525  0.1169 -0.2513
  452MOL0     C60897   1.036   6.369   8.500 -0.1265 -0.0897 -0.3563
  452MOL0     C60898   1.002   6.276   8.615  0.8857  0.5083 -0.1548
  452MOL0     C60899   0.979   6.125   8.579  0.3357  0.2288 -0.4413
  452MOL0     C60900   0.921   6.042   8.698  0.7214  0.4185  0.1119
  452MOL0     C60901   0.983   6.082   8.827  0.0375 -0.3933  0.4138
  452MOL0     N60902   1.126   6.054   8.844 -0.3475  0.9853 -0.1777
  452MOL0     C60903   1.159   5.919   8.849  0.1459  0.3205  0.3078
  452MOL0     C60904   1.289   5.926   8.882  0.2063  0.0364 -0.0655
  452MOL0     C60905   1.372   5.806   8.915  0.3708 -0.7747 -0.0884
  452MOL0     C60906   1.408   5.726   8.782  0.0749  0.9871 -0.4680
  452MOL0     C60907   1.475   5.807   8.662 -0.5960 -0.6847  0.7027
  452MOL0     C60908   1.487   5.721   8.528 -0.0924 -0.1900  1.3821
  452MOL0     O60909   1.376   5.637   8.488  0.0260 -0.0262  0.8838
  452MOL0     C60910   1.262   5.680   8.438  0.8690  0.3537 -0.0469
  452MOL0     C60911   1.233   5.814   8.417  0.6290 -0.3121  0.1720
  452MOL0     C60912   1.123   5.849   8.336 -0.0873 -0.4668 -0.3400
  452MOL0     C60913   1.028   5.761   8.286  0.0402 -0.4946 -0.6706
  452MOL0     C60914   0.932   5.803   8.182 -0.1492 -0.4463  0.2436
  452MOL0     O60915   0.919   5.941   8.171  0.3419 -0.9176 -0.1737
  452MOL0     C60916   0.809   6.008   8.108  0.1856 -0.6561 -0.7325
  452MOL0     C60917   0.691   5.966   8.056  0.1489 -0.2079  0.1791
  452MOL0     C60918   0.596   6.045   8.008  0.0092 -0.3358  0.0630
  452MOL0     C60919   0.619   6.189   7.996  0.8225 -1.0407 -0.8333
  452MOL0     O60920   0.532   6.284   7.944 -0.6392 -0.5621 -0.6440
  452MOL0     C60921   0.404   6.248   7.919  0.1081  0.6494  0.3314
  452MOL0     C60922   0.315   6.360   7.893  0.3594  0.4602 -0.1933
  452MOL0     C60923   0.351   6.442   7.764 -0.3357  0.6378 -1.3161
  452MOL0     C60924   0.333   6.352   7.637 -0.0794 -0.7331  0.7220
  452MOL0     C60925   0.350   6.436   7.503  0.2260 -0.6213  0.3529
  452MOL0     C60926   0.487   6.512   7.495 -0.4740  0.4009  1.1032
  452MOL0     C60927   0.534   6.538   7.351  0.3750 -0.0405  0.6220
  452MOL0     C60928   0.662   6.624   7.340  0.6787  0.2230  0.8331
  452MOL0    Cl60929   0.822   6.540   7.379  0.0362 -0.0842 -0.5592
  452MOL0     C60930   0.741   6.243   8.040 -0.0677  1.0560 -0.7342
  452MOL0     C60931   0.840   6.153   8.094  0.1500 -0.3272  0.3946
  452MOL0     O60932   0.860   5.718   8.141 -0.6005 -0.0851  0.9932
  452MOL0     C60933   1.054   5.624   8.315 -0.5966  0.2261 -0.0437
  452MOL0     C60934   1.165   5.585   8.398  0.0142 -0.3763 -0.7069
  452MOL0     N60935   1.339   6.057   8.889  0.5018  0.0102  0.6718
  452MOL0     N60936   1.231   6.130   8.876  0.2622  0.5321  0.1211
  452MOL0     C60937   1.445   6.208   7.996  0.3143 -0.1058 -0.9787
  452MOL0     C60938   1.541   6.123   7.928 -0.6002  0.4240 -0.8325
  452MOL0     C60939   1.874   5.802   7.870  1.3598 -0.6144 -0.3508
  452MOL0     C60940   1.875   5.860   7.737  0.5817 -0.2420 -0.4617
  452MOL0     C60941   1.986   5.843   7.659 -0.0986  0.0609 -0.1555
  452MOL0     C60942   2.095   5.771   7.698 -0.9455 -0.6772 -0.2020
  452MOL0     O60943   2.209   5.760   7.628  0.4592 -0.1243  0.2617
  452MOL0     C60944   2.207   5.729   7.485  0.6013 -1.2360  0.0112
  452MOL0     C60945   2.154   5.587   7.455  0.0202  0.1148 -0.1670
  452MOL0     C60946   2.194   5.520   7.327  0.1170  0.1329  1.1425
  452MOL0     C60947   2.165   5.371   7.314 -0.3971 -0.3516 -0.3462
  452MOL0     C60948   2.235   5.317   7.201  0.3784 -0.1197  0.7509
  452MOL0     C60949   2.311   5.283   7.105  0.7048  0.1455  0.1153
  452MOL0     C60950   2.101   5.726   7.823  0.2478  0.1140 -1.3327
  452MOL0     C60951   1.991   5.733   7.914  0.4203  0.8023  1.2274
  452MOL0     C60952   2.012   5.668   8.048 -0.3900 -0.1322 -0.1384
  452MOL0     H60953   1.494   5.842   8.104  2.0330 -0.5289 -0.4403
  452MOL0     H60954   1.349   5.976   8.229  2.6270 -0.6537  0.6017
  452MOL0     H60955   1.379   6.360   8.245  0.3783  1.2641  0.7700
  452MOL0     H60956   1.283   6.410   8.107  0.9190  2.6490  2.2703
  452MOL0     H60957   1.095   6.404   8.230  2.2143 -2.6087 -3.4052
  452MOL0     H60958   1.210   6.508   8.322  0.8932 -0.8773 -1.2932
  452MOL0     H60959   1.257   6.343   8.475  1.5734  1.2600 -2.3099
  452MOL0     H60960   1.156   6.216   8.398 -0.1255 -0.8255  3.6461
  452MOL0     H60961   1.046   6.469   8.542 -2.4045 -0.3750  1.0526
  452MOL0     H60962   0.954   6.366   8.426 -0.5306  4.6509 -0.3927
  452MOL0     H60963   1.076   6.283   8.695 -0.3366  1.6345  0.9189
  452MOL0     H60964   0.904   6.302   8.655 -0.3762 -1.6939 -1.5679
  452MOL0     H60965   0.903   6.115   8.500 -2.2387  0.4539  1.8408
  452MOL0     H60966   1.076   6.080   8.556  1.0669  0.3400  2.1819
  452MOL0     H60967   0.941   5.937   8.676  0.1560  0.7983 -2.5544
  452MOL0     H60968   0.813   6.055   8.710  0.6769  0.0646  0.0997
  452MOL0     H60969   0.963   6.187   8.849 -1.8293 -1.0814  2.3238
  452MOL0     H60970   0.939   6.019   8.905 -0.8677 -1.2805 -0.7706
  452MOL0     H60971   1.100   5.829   8.836 -1.5698  1.7318 -3.1933
  452MOL0     H60972   1.464   5.846   8.958  0.5220  1.3639 -2.2204
  452MOL0     H60973   1.319   5.754   8.995 -0.0680  1.6141  1.2579
  452MOL0     H60974   1.485   5.656   8.817 -0.8016  0.2241  0.0107
  452MOL0     H60975   1.320   5.671   8.748 -1.3523  1.6122  1.9861
  452MOL0     H60976   1.575   5.831   8.697 -1.0318 -0.5400  1.9028
  452MOL0     H60977   1.414   5.897   8.650  0.0441 -0.1868  1.1517
  452MOL0     H60978   1.574   5.660   8.552 -1.3514 -2.1697  1.1647
  452MOL0     H60979   1.515   5.787   8.446 -0.7340 -2.9301 -1.2255
  452MOL0     H60980   1.298   5.893   8.453  1.2103  1.5539 -4.2517
  452MOL0     H60981   1.135   5.955   8.319  2.3414 -0.4264  1.1717
  452MOL0     H60982   0.663   5.861   8.054 -2.6757  0.4718  0.1649
  452MOL0     H60983   0.506   5.990   7.981  0.0461 -0.2377 -0.2725
  452MOL0     H60984   0.401   6.171   7.841  1.7095  0.8075  0.0876
  452MOL0     H60985   0.369   6.210   8.016 -1.4258  1.4215  0.1114
  452MOL0     H60986   0.213   6.325   7.879  1.0002 -0.2737 -4.5412
  452MOL0     H60987   0.317   6.431   7.976  1.8644  3.1082 -2.3450
  452MOL0     H60988   0.285   6.528   7.754  1.0991  1.9561  0.0839
  452MOL0     H60989   0.454   6.477   7.775 -1.1295  2.4429  1.7947
  452MOL0     H60990   0.237   6.299   7.642 -2.3083  2.8173 -0.4885
  452MOL0     H60991   0.409   6.274   7.631  3.1456  2.2864 -3.2014
  452MOL0     H60992   0.267   6.507   7.499  1.8893  1.5126  1.3527
  452MOL0     H60993   0.329   6.379   7.412 -1.4113 -1.7786  1.4035
  452MOL0     H60994   0.471   6.604   7.553 -2.3961  0.5088  0.4761
  452MOL0     H60995   0.564   6.450   7.540  0.1228 -0.4805 -1.0114
  452MOL0     H60996   0.454   6.575   7.285  1.9034 -1.4793 -2.2055
  452MOL0     H60997   0.568   6.441   7.316 -0.1794  1.2309 -4.0747
  452MOL0     H60998   0.649   6.673   7.243 -2.2343  1.8986  1.9495
  452MOL0     H60999   0.645   6.706   7.411  2.9052  1.2844  0.2495
  452MOL0     H61000   0.779   6.345   8.039  1.0549  0.7206  1.3181
  452MOL0     H61001   0.940   6.187   8.121  0.3008  1.0822 -1.6633
  452MOL0     H61002   0.991   5.544   8.278 -0.4553  1.2346 -2.7056
  452MOL0     H61003   1.190   5.481   8.420 -1.3261 -0.6555 -0.3902
  452MOL0     H61004   1.426   6.312   7.974 -2.9203  0.3926  3.0020
  452MOL0     H61005   1.607   6.169   7.855  2.5438  0.2203  1.6897
  452MOL0     H61006   1.799   5.925   7.695 -0.6837 -0.5975  1.1956
  452MOL0     H61007   1.984   5.889   7.560 -0.8397  2.4222  0.8702
  452MOL0     H61008   2.313   5.726   7.459  1.0017 -0.3720  1.4094
  452MOL0     H61009   2.140   5.796   7.430  1.7598  1.0692  1.2786
  452MOL0     H61010   2.045   5.598   7.460  0.1446  1.2417  0.2769
  452MOL0     H61011   2.195   5.515   7.527 -1.5452 -0.8764 -0.2137
  452MOL0     H61012   2.298   5.548   7.308  0.3566 -0.0670  2.1162
  452MOL0     H61013   2.139   5.563   7.243  0.4529 -1.8720 -0.1725
  452MOL0     H61014   2.218   5.318   7.394  0.5598  0.6032 -0.3354
  452MOL0     H61015   2.058   5.357   7.294 -0.1815 -1.0972 -1.0373
  452MOL0     H61016   2.379   5.253   7.028 -2.4017  2.3780 -3.8793
  452MOL0     H61017   2.183   5.671   7.868  0.0208  1.7934  1.3578
  452MOL0     H61018   1.995   5.560   8.041  0.9925 -0.2721 -4.3810
  452MOL0     H61019   2.116   5.682   8.078 -0.5177 -1.2258  0.8819
  452MOL0     H61020   1.952   5.719   8.124  2.4474  0.2335  2.0208
  453MOL0     O61021   2.349   0.734   6.452  0.7187  0.3855  0.5517
  453MOL0     C61022   2.417   0.654   6.514  0.2851  0.6942  0.3623
  453MOL0     O61023   2.410   0.619   6.653  0.8194 -0.3220  0.6289
  453MOL0     C61024   2.298   0.664   6.720  0.1941 -0.5880 -0.3732
  453MOL0     C61025   2.311   0.727   6.849  0.7610  0.5113  0.6788
  453MOL0     C61026   2.203   0.784   6.913 -0.9271 -0.1526 -0.1054
  453MOL0     C61027   2.078   0.771   6.858  0.2501 -0.2018  0.6610
  453MOL0     O61028   1.964   0.814   6.912  0.3755  0.6330 -0.5497
  453MOL0     C61029   1.979   0.891   7.032 -0.2008 -0.1337 -0.5213
  453MOL0     C61030   1.850   0.962   7.078 -0.5241  0.0433 -0.5944
  453MOL0     C61031   1.740   0.863   7.130 -0.0098 -0.0270  0.4202
  453MOL0     C61032   1.601   0.915   7.109 -0.0630 -0.3531  0.5640
  453MOL0     C61033   1.501   0.809   7.145  0.5550  0.9486  1.2041
  453MOL0     C61034   1.357   0.854   7.103  0.1695 -0.9524  0.4627
  453MOL0     C61035   1.259   0.745   7.105 -0.3661 -0.5365 -0.7714
  453MOL0     C61036   1.122   0.802   7.100  0.4035 -0.3900  0.7062
  453MOL0     N61037   1.022   0.695   7.075 -0.7159  0.9072  0.0904
  453MOL0     C61038   0.897   0.724   7.013  0.4045  0.4753 -0.3201
  453MOL0     C61039   0.815   0.631   7.064  0.4965  0.0518 -0.4134
  453MOL0     C61040   0.667   0.615   7.044 -0.1135  0.6240 -0.0057
  453MOL0     C61041   0.578   0.694   7.147 -1.2427 -0.1289  0.0963
  453MOL0     C61042   0.429   0.680   7.115  0.4420 -0.8722  1.1236
  453MOL0     C61043   0.383   0.642   6.972  0.6836 -0.4055  0.2023
  453MOL0     O61044   0.245   0.593   6.976  0.1025 -0.4333  0.5912
  453MOL0     C61045   0.150   0.665   6.906 -0.4646 -0.1727  0.1454
  453MOL0     C61046   0.032   0.589   6.865  0.4415 -0.7952 -0.5326
  453MOL0     C61047  -0.079   0.648   6.809  0.3829  0.3894  0.3774
  453MOL0     C61048  -0.079   0.789   6.796  0.1917  0.0612  0.4084
  453MOL0     C61049  -0.198   0.853   6.733  0.3585 -0.0368 -0.9458
  453MOL0     O61050  -0.186   0.991   6.722 -0.5943 -0.0245 -0.1352
  453MOL0     C61051  -0.289   1.074   6.686 -0.9010  1.2368  0.9256
  453MOL0     C61052  -0.354   1.147   6.784 -0.7231 -0.1350  0.1844
  453MOL0     C61053  -0.447   1.243   6.746 -0.5025 -0.2654 -0.4462
  453MOL0     C61054  -0.467   1.273   6.606  1.0334 -0.1185  0.1276
  453MOL0     O61055  -0.561   1.367   6.571 -0.2511  0.4540 -0.2938
  453MOL0     C61056  -0.685   1.305   6.544  0.4533 -0.7003 -0.3427
  453MOL0     C61057  -0.784   1.426   6.553 -0.1809  0.7005  0.2000
  453MOL0     C61058  -0.793   1.486   6.702  0.6005 -0.6769  1.4441
  453MOL0     C61059  -0.884   1.615   6.707 -0.0437  0.2124 -0.1631
  453MOL0     C61060  -0.953   1.626   6.841 -0.6650 -0.1161  0.2317
  453MOL0     C61061  -1.012   1.762   6.845 -0.5601 -0.5372  0.2283
  453MOL0     C61062  -1.091   1.773   6.979  1.0269 -0.1665  0.3206
  453MOL0     C61063  -1.024   1.845   7.096  0.0088  0.0909 -0.0829
  453MOL0    Cl61064  -1.030   2.019   7.080 -0.1028  0.1135 -0.0223
  453MOL0     C61065  -0.389   1.200   6.514  0.5760 -0.1037 -0.3709
  453MOL0     C61066  -0.300   1.105   6.550 -0.1938  0.1681 -0.7688
  453MOL0     O61067  -0.302   0.790   6.701  0.6918 -0.4905 -0.3559
  453MOL0     C61068   0.032   0.860   6.839  0.8245 -1.3672 -0.0378
  453MOL0     C61069   0.151   0.804   6.884 -0.4391  0.9176  0.0864
  453MOL0     N61070   0.891   0.539   7.142  0.9183 -0.4607  0.4990
  453MOL0     N61071   1.011   0.585   7.155 -0.6452 -0.3202 -0.9778
  453MOL0     C61072   2.063   0.692   6.745  0.6802  0.2322 -0.3461
  453MOL0     C61073   2.164   0.652   6.666  0.0986 -0.5768 -0.9548
  453MOL0     C61074   2.522   0.593   6.429 -1.5022 -0.6613 -0.3921
  453MOL0     C61075   2.536   0.623   6.288 -0.0317  0.4835 -0.4496
  453MOL0     C61076   2.645   0.586   6.211  0.1753 -0.4668 -0.2023
  453MOL0     C61077   2.744   0.500   6.262  0.4384 -0.1643 -0.2451
  453MOL0     O61078   2.853   0.450   6.199 -0.2829  0.4597  0.9150
  453MOL0     C61079   2.881   0.481   6.060  0.0659 -0.6815  0.2024
  453MOL0     C61080   3.022   0.443   6.023 -0.5245  0.3134  1.2909
  453MOL0     C61081   3.111   0.535   6.094 -0.7979 -0.1382  0.0572
  453MOL0     C61082   3.256   0.508   6.079 -0.1434  0.1455  0.8926
  453MOL0     C61083   3.314   0.546   5.936  0.2470 -0.4665 -1.3711
  453MOL0     C61084   3.346   0.568   5.822 -0.4987  0.3151  0.8552
  453MOL0     C61085   2.726   0.462   6.393 -0.6151 -0.4681  0.3873
  453MOL0     C61086   2.622   0.510   6.476  0.7077  0.1764  0.3190
  453MOL0     C61087   2.626   0.450   6.619  0.3959  0.3499 -0.6299
  453MOL0     H61088   2.413   0.723   6.886  0.0800 -3.1050  2.6195
  453MOL0     H61089   2.218   0.830   7.010  0.7250 -0.2557 -0.2753
  453MOL0     H61090   2.009   0.820   7.110 -2.1072 -1.6843 -1.1271
  453MOL0     H61091   2.052   0.971   7.015  0.8838 -1.3476 -1.8377
  453MOL0     H61092   1.807   1.008   6.989  1.6501  0.8531 -1.2954
  453MOL0     H61093   1.870   1.038   7.154 -1.2477 -1.8686  1.6178
  453MOL0     H61094   1.757   0.852   7.238  0.2971 -1.9761  0.2096
  453MOL0     H61095   1.753   0.761   7.093 -3.0984 -0.5714  0.5257
  453MOL0     H61096   1.582   1.001   7.173  2.9417 -0.0604  1.2328
  453MOL0     H61097   1.588   0.942   7.004 -1.2105  1.3595  1.1234
  453MOL0     H61098   1.520   0.714   7.095  0.7530  0.8455  1.4720
  453MOL0     H61099   1.501   0.782   7.251 -2.7815 -2.2829  0.5814
  453MOL0     H61100   1.326   0.941   7.161  2.8565  1.2465 -1.1260
  453MOL0     H61101   1.359   0.892   7.001 -1.0564  0.8896  1.0752
  453MOL0     H61102   1.264   0.688   7.197 -2.3381  1.6160  0.8108
  453MOL0     H61103   1.270   0.679   7.018 -1.5749 -2.3056  0.3535
  453MOL0     H61104   1.088   0.837   7.198 -1.0537 -0.0926  0.1223
  453MOL0     H61105   1.103   0.887   7.033 -2.7007 -1.2448  0.3367
  453MOL0     H61106   0.862   0.804   6.948 -0.4536 -0.7850 -1.4469
  453MOL0     H61107   0.647   0.639   6.939  2.4901 -0.1601 -0.7513
  453MOL0     H61108   0.638   0.510   7.052  1.3294  0.1754 -0.3511
  453MOL0     H61109   0.597   0.664   7.250 -2.7931 -0.1525  0.4081
  453MOL0     H61110   0.612   0.798   7.144  1.6521 -1.0004 -0.1701
  453MOL0     H61111   0.376   0.771   7.145 -0.3294 -0.9984  0.1530
  453MOL0     H61112   0.398   0.603   7.186 -2.0768  1.3605  2.6360
  453MOL0     H61113   0.445   0.562   6.931 -2.7851 -2.1754 -2.0047
  453MOL0     H61114   0.397   0.722   6.899 -1.2527 -0.3769 -0.1893
  453MOL0     H61115   0.021   0.484   6.886 -3.0828 -0.9142 -2.2640
  453MOL0     H61116  -0.164   0.584   6.787  0.0732  0.5856  0.9569
  453MOL0     H61117  -0.341   1.103   6.882  0.3658  1.1360  0.6451
  453MOL0     H61118  -0.511   1.282   6.824  2.2044  2.1462  0.7751
  453MOL0     H61119  -0.711   1.253   6.451 -5.0776 -2.6686  1.8446
  453MOL0     H61120  -0.700   1.234   6.627  0.2557  0.5986  0.7643
  453MOL0     H61121  -0.745   1.503   6.485 -2.5818  1.7584 -0.0633
  453MOL0     H61122  -0.879   1.385   6.518  0.8699 -1.6373 -0.0683
  453MOL0     H61123  -0.837   1.407   6.764 -0.6049 -0.0927  1.3622
  453MOL0     H61124  -0.698   1.520   6.743 -0.2939  1.9560  1.4927
  453MOL0     H61125  -0.961   1.605   6.630  0.3241  0.2251 -0.5376
  453MOL0     H61126  -0.829   1.701   6.668  0.2831 -1.3902 -3.6265
  453MOL0     H61127  -0.872   1.607   6.911  1.0757  0.0286 -1.6553
  453MOL0     H61128  -1.028   1.546   6.841 -0.5991 -0.1871 -0.7186
  453MOL0     H61129  -0.935   1.839   6.836 -0.7481 -0.3982 -0.2395
  453MOL0     H61130  -1.086   1.755   6.764 -2.1240 -0.9044  1.6291
  453MOL0     H61131  -1.129   1.671   6.993 -1.8498  0.2845 -2.7446
  453MOL0     H61132  -1.187   1.823   6.967 -0.1072 -2.0830  0.8679
  453MOL0     H61133  -1.067   1.820   7.193  0.3150 -0.4404 -0.0784
  453MOL0     H61134  -0.919   1.817   7.109 -0.0238  0.6950  1.7726
  453MOL0     H61135  -0.397   1.231   6.410  2.9501  1.8245 -0.0598
  453MOL0     H61136  -0.220   1.058   6.495  0.0333  0.3425 -0.5901
  453MOL0     H61137   0.034   0.968   6.834  2.1664 -1.1923  2.4486
  453MOL0     H61138   0.237   0.865   6.912  1.3610 -1.7178  0.6890
  453MOL0     H61139   1.969   0.666   6.698  1.1055  0.2082 -1.2151
  453MOL0     H61140   2.144   0.599   6.574  0.3445 -2.5971  0.1003
  453MOL0     H61141   2.465   0.686   6.237  0.0889 -0.8070 -2.3129
  453MOL0     H61142   2.666   0.620   6.110  0.6212 -1.4924 -0.4665
  453MOL0     H61143   2.871   0.589   6.042 -3.6050 -0.8767  0.2349
  453MOL0     H61144   2.812   0.427   5.994 -0.6535 -0.7331  0.9786
  453MOL0     H61145   3.036   0.446   5.914  2.5868 -6.0113  1.0786
  453MOL0     H61146   3.046   0.339   6.046  0.5376 -0.5044 -2.6500
  453MOL0     H61147   3.081   0.538   6.200 -0.4950  2.8508  0.1342
  453MOL0     H61148   3.087   0.630   6.045 -1.7022 -0.8844 -0.9832
  453MOL0     H61149   3.309   0.556   6.162  1.6881  0.8757 -0.6165
  453MOL0     H61150   3.274   0.401   6.093  1.4394  0.1487 -0.6874
  453MOL0     H61151   3.363   0.593   5.719 -1.1605 -0.0510  0.6522
  453MOL0     H61152   2.807   0.400   6.430 -1.1409 -2.2461 -1.2786
  453MOL0     H61153   2.526   0.415   6.645  0.1374  1.5504  0.0786
  453MOL0     H61154   2.702   0.373   6.632  1.7134  1.6936 -0.0772
  453MOL0     H61155   2.655   0.532   6.685  0.8078 -0.5571  0.3366
  454MOL0     O61156   7.350   1.628   4.138 -0.1995 -0.2037  0.3291
  454MOL0     C61157   7.315   1.513   4.091 -0.5523 -0.8146 -0.7241
  454MOL0     O61158   7.395   1.397   4.091 -0.4553 -0.6396  0.4233
  454MOL0     C61159   7.522   1.407   4.146  0.1022 -0.1320 -0.5552
  454MOL0     C61160   7.562   1.461   4.271 -0.3505  0.0263 -0.2460
  454MOL0     C61161   7.694   1.458   4.312 -0.0417  0.6496 -0.3901
  454MOL0     C61162   7.793   1.401   4.242 -0.7019 -0.7984  0.1467
  454MOL0     O61163   7.919   1.392   4.301 -0.8199 -0.9843  0.1994
  454MOL0     C61164   8.035   1.363   4.211 -0.0582  0.2421 -0.5777
  454MOL0     C61165   8.068   1.483   4.120  0.3006  0.0289 -0.6725
  454MOL0     C61166   8.161   1.447   4.001  0.3651  0.2943  0.1025
  454MOL0     C61167   8.301   1.379   4.033 -0.3270 -0.4486  0.6053
  454MOL0     C61168   8.383   1.471   4.125 -0.5055 -0.5409  0.0412
  454MOL0     C61169   8.520   1.423   4.146 -0.5995  0.7960 -0.2802
  454MOL0     C61170   8.539   1.304   4.233  0.4547 -0.6666  0.3431
  454MOL0     C61171   8.676   1.255   4.220 -0.1337  0.1659  0.4513
  454MOL0     N61172   8.681   1.129   4.155  0.1268  0.2033 -0.5732
  454MOL0     C61173   8.771   1.099   4.058 -0.0629 -0.3176 -0.4095
  454MOL0     C61174   8.775   0.975   4.031  0.8467 -0.0153 -0.5660
  454MOL0     C61175   8.862   0.910   3.932  0.0897 -1.1345 -0.1034
  454MOL0     C61176   9.009   0.971   3.944  0.1626  0.1427  0.3140
  454MOL0     C61177   9.111   0.894   3.853  0.9973  0.2502  1.2203
  454MOL0     C61178   9.222   0.845   3.938 -0.3871  0.1926 -0.5126
  454MOL0     O61179   9.294   0.948   4.000  0.4758 -0.1540 -0.8430
  454MOL0     C61180   9.433   0.951   3.994  0.2097 -0.2885 -0.2805
  454MOL0     C61181   9.485   1.064   4.050 -0.5039  0.0052 -0.3543
  454MOL0     C61182   9.627   1.069   4.067  0.7596  0.4191 -0.7049
  454MOL0     C61183   9.709   0.960   4.049 -0.1019 -0.4759  0.1341
  454MOL0     C61184   9.849   0.964   4.079 -0.1975 -0.1931  0.3242
  454MOL0     O61185   9.901   1.089   4.111  0.4742 -0.1584  0.3431
  454MOL0     C61186  10.031   1.118   4.131 -0.4193 -0.1731  0.1062
  454MOL0     C61187  10.141   1.036   4.106 -0.2040  0.2890  0.3637
  454MOL0     C61188  10.274   1.090   4.134 -0.4869  0.1572  0.4748
  454MOL0     C61189  10.289   1.222   4.184 -0.0107  0.7280  0.7359
  454MOL0     O61190  10.403   1.282   4.221 -0.1139 -0.4822  0.0936
  454MOL0     C61191  10.531   1.228   4.192  0.4844  1.3954  0.0458
  454MOL0     C61192  10.563   1.108   4.285  0.1732 -0.3127 -0.0645
  454MOL0     C61193  10.688   1.026   4.224 -0.3906  0.4459  0.1302
  454MOL0     C61194  10.816   1.112   4.194  0.1377 -0.0103 -0.6470
  454MOL0     C61195  10.951   1.040   4.172 -0.2305  0.4909  0.4787
  454MOL0     C61196  11.011   0.996   4.299  0.2519  0.3897  0.3004
  454MOL0     C61197  11.158   0.957   4.275 -0.1683 -0.1790 -0.3221
  454MOL0     C61198  11.179   0.867   4.156  0.1475 -0.4959  0.3067
  454MOL0    Cl61199  11.345   0.799   4.121 -0.2607 -0.1146 -0.3803
  454MOL0     C61200  10.172   1.290   4.206  0.4566  0.2153 -0.0894
  454MOL0     C61201  10.049   1.246   4.174 -0.5056  0.4761  0.7441
  454MOL0     O61202   9.909   0.859   4.083 -0.1955  0.1056 -0.2489
  454MOL0     C61203   9.652   0.850   3.979 -0.9605 -0.1358  0.5137
  454MOL0     C61204   9.513   0.838   3.959  0.0800  0.2694 -0.1403
  454MOL0     N61205   8.675   0.915   4.110  0.1771  0.0274  0.4821
  454MOL0     N61206   8.634   1.008   4.195  0.5877 -0.0072 -0.6136
  454MOL0     C61207   7.761   1.346   4.114  0.2207 -0.4420  0.4925
  454MOL0     C61208   7.624   1.353   4.072 -0.7871 -0.4521  0.2393
  454MOL0     C61209   7.172   1.493   4.065 -0.4146 -0.2712  0.4126
  454MOL0     C61210   7.110   1.376   4.124  0.3323  0.3138 -0.0892
  454MOL0     C61211   6.974   1.350   4.120  0.0169  0.2405  0.9756
  454MOL0     C61212   6.893   1.442   4.050 -0.6065 -0.8957  0.2143
  454MOL0     O61213   6.762   1.423   4.029  0.3636 -0.0299  0.4162
  454MOL0     C61214   6.680   1.409   4.146  0.1280 -0.7852 -0.0019
  454MOL0     C61215   6.620   1.548   4.190 -0.1441 -0.4145 -1.0121
  454MOL0     C61216   6.567   1.644   4.085  0.1457  0.2737 -0.4890
  454MOL0     C61217   6.451   1.580   3.998 -0.1698 -0.3645 -0.8015
  454MOL0     C61218   6.340   1.539   4.089 -0.4939  0.3633  1.0148
  454MOL0     C61219   6.264   1.504   4.172 -0.2858 -0.2498 -1.3821
  454MOL0     C61220   6.948   1.554   3.994 -0.8448 -0.5977 -0.0637
  454MOL0     C61221   7.086   1.585   3.997  0.1328  0.2552  0.3421
  454MOL0     C61222   7.137   1.720   3.945 -0.2562  0.1510  0.6096
  454MOL0     H61223   7.484   1.485   4.343  0.8716  0.1943  1.0701
  454MOL0     H61224   7.709   1.490   4.415  1.0325 -0.5767 -0.1401
  454MOL0     H61225   8.127   1.338   4.264 -0.6242 -2.3882 -0.7069
  454MOL0     H61226   8.017   1.266   4.162 -0.1401 -0.9388  1.6756
  454MOL0     H61227   8.107   1.571   4.172  0.4804  0.2986 -1.2474
  454MOL0     H61228   7.977   1.518   4.069  1.5240  2.1054 -1.5743
  454MOL0     H61229   8.188   1.533   3.940  2.3161 -1.7800 -2.1276
  454MOL0     H61230   8.106   1.387   3.927  1.0028  2.9066 -2.6597
  454MOL0     H61231   8.276   1.293   4.096  0.3771  1.2579  3.4176
  454MOL0     H61232   8.349   1.346   3.940 -0.4916 -2.1511  1.1001
  454MOL0     H61233   8.381   1.575   4.092  0.0040 -0.8265 -0.9223
  454MOL0     H61234   8.340   1.477   4.225  0.6286  1.0060  0.4670
  454MOL0     H61235   8.546   1.387   4.046 -0.2422 -2.3786  0.8221
  454MOL0     H61236   8.595   1.501   4.162  0.1014 -0.4118  3.4704
  454MOL0     H61237   8.471   1.220   4.213  0.3332 -0.7128  0.9069
  454MOL0     H61238   8.536   1.333   4.339 -2.5531 -2.5650  0.9057
  454MOL0     H61239   8.728   1.324   4.153 -2.6683 -0.0333 -1.9133
  454MOL0     H61240   8.733   1.244   4.312  1.6814  0.8199 -0.5351
  454MOL0     H61241   8.828   1.174   4.005 -2.2035  3.3296  1.9820
  454MOL0     H61242   8.869   0.803   3.948  1.0510 -1.3400 -1.6495
  454MOL0     H61243   8.815   0.934   3.836  0.9461  2.1291  0.1640
  454MOL0     H61244   9.017   1.075   3.912 -0.6121 -0.1021 -0.7243
  454MOL0     H61245   9.025   0.961   4.052 -2.9061  1.6628  1.0103
  454MOL0     H61246   9.147   0.963   3.777 -2.3598  0.4719 -0.3611
  454MOL0     H61247   9.068   0.807   3.802  0.6003  1.5141 -0.6945
  454MOL0     H61248   9.292   0.791   3.873  1.4829 -2.9366  3.6143
  454MOL0     H61249   9.195   0.772   4.015 -4.4208  1.3168 -0.6609
  454MOL0     H61250   9.402   1.130   4.073 -1.6622 -0.8999 -1.7322
  454MOL0     H61251   9.652   1.171   4.094 -0.5758  0.4875  0.3933
  454MOL0     H61252  10.131   0.936   4.065  0.7865  0.3225  0.0149
  454MOL0     H61253  10.369   1.039   4.118 -0.1198  0.6680  0.9898
  454MOL0     H61254  10.537   1.188   4.090 -0.5639 -2.5904  1.3549
  454MOL0     H61255  10.606   1.306   4.194  2.6498 -0.2349 -4.2495
  454MOL0     H61256  10.595   1.144   4.383  0.6397 -1.2382  0.1349
  454MOL0     H61257  10.479   1.041   4.305 -0.6194  0.9011  0.7911
  454MOL0     H61258  10.717   0.939   4.283  1.2203  1.0703  0.3063
  454MOL0     H61259  10.660   0.992   4.124  1.1591 -4.7697  1.1994
  454MOL0     H61260  10.836   1.183   4.276  2.6417 -2.0339  0.6617
  454MOL0     H61261  10.783   1.169   4.107  1.9815  2.1922 -0.0171
  454MOL0     H61262  11.018   1.107   4.117  0.5560 -0.3824  0.3523
  454MOL0     H61263  10.940   0.946   4.119  1.4926 -0.8780  2.3593
  454MOL0     H61264  11.001   1.078   4.371 -2.1493  1.1619 -0.7812
  454MOL0     H61265  10.962   0.906   4.338  1.0295 -0.5459 -0.8236
  454MOL0     H61266  11.177   0.897   4.365  1.8800  2.0654  0.8498
  454MOL0     H61267  11.224   1.042   4.294  2.5744 -1.6995 -2.4720
  454MOL0     H61268  11.102   0.790   4.161 -1.6556  0.9831 -2.1751
  454MOL0     H61269  11.158   0.923   4.064  3.7727  0.0651 -0.3479
  454MOL0     H61270  10.168   1.393   4.239 -1.4626  0.5668 -1.2352
  454MOL0     H61271   9.962   1.310   4.168 -0.8378 -0.0875 -1.2944
  454MOL0     H61272   9.714   0.764   3.954 -2.0811 -1.4300  1.9449
  454MOL0     H61273   9.473   0.740   3.938 -0.0281  0.0513  1.0249
  454MOL0     H61274   7.830   1.294   4.049 -0.7528  0.2192 -1.1283
  454MOL0     H61275   7.601   1.297   3.982  0.9452  0.8060 -1.0569
  454MOL0     H61276   7.168   1.299   4.174 -1.4424 -0.4847  0.7905
  454MOL0     H61277   6.939   1.253   4.155 -1.7101  0.7255  0.6933
  454MOL0     H61278   6.724   1.359   4.233 -0.4567 -1.5923 -0.1628
  454MOL0     H61279   6.597   1.343   4.121  0.8328 -1.5006 -0.4850
  454MOL0     H61280   6.700   1.599   4.244 -1.4516  4.2998 -3.0213
  454MOL0     H61281   6.545   1.537   4.269  3.2193 -0.3832  2.4827
  454MOL0     H61282   6.636   1.703   4.022 -1.6331  1.4621 -1.4136
  454MOL0     H61283   6.516   1.725   4.138 -2.6458 -1.1671 -0.8185
  454MOL0     H61284   6.410   1.645   3.920 -0.3204 -1.0124 -1.2758
  454MOL0     H61285   6.493   1.495   3.944  2.2419 -0.1590  0.6106
  454MOL0     H61286   6.197   1.468   4.248  0.0703 -0.4228 -1.1434
  454MOL0     H61287   6.874   1.619   3.947 -0.5711  0.3741  0.8260
  454MOL0     H61288   7.225   1.718   3.881  0.8719  0.3267  2.0934
  454MOL0     H61289   7.056   1.781   3.903 -1.4546 -0.8264  1.4025
  454MOL0     H61290   7.154   1.773   4.039 -1.6274 -0.7402  1.4032
  455MOL0     O61291   4.932  10.587   3.449  0.3694 -0.6645  0.1619
  455MOL0     C61292   5.024  10.650   3.504  0.5801 -0.9810  1.2313
  455MOL0     O61293   5.024  10.694   3.635 -0.1506  0.5281  0.0577
  455MOL0     C61294   4.922  10.633   3.709  0.0075  0.7714 -0.5723
  455MOL0     C61295   4.942  10.517   3.782 -0.5025 -0.4346 -0.4482
  455MOL0     C61296   4.832  10.468   3.850 -0.2021  0.3271 -0.2913
  455MOL0     C61297   4.700  10.512   3.839  0.5868  0.1359  0.6821
  455MOL0     O61298   4.604  10.448   3.907 -0.2565  0.8019 -0.1696
  455MOL0     C61299   4.469  10.461   3.855 -0.6645 -0.4281 -0.1249
  455MOL0     C61300   4.388  10.362   3.935 -0.3784 -0.1325 -0.7026
  455MOL0     C61301   4.252  10.368   3.864 -0.0221  0.2879 -0.4653
  455MOL0     C61302   4.170  10.253   3.912 -0.1145  0.0645 -0.6381
  455MOL0     C61303   4.019  10.252   3.884  0.6005 -0.2532 -0.2956
  455MOL0     C61304   3.971  10.250   3.740 -0.0027 -0.5914  0.2716
  455MOL0     C61305   4.008  10.111   3.672 -0.2677 -0.1706  0.6814
  455MOL0     C61306   3.915   9.998   3.697  0.0102  0.0390  0.1668
  455MOL0     N61307   3.924   9.927   3.826 -0.0891  0.6063  0.1383
  455MOL0     C61308   4.037   9.929   3.913  0.3100  0.1640 -0.6952
  455MOL0     C61309   3.999   9.858   4.031 -0.2961  0.3758  0.7002
  455MOL0     C61310   4.086   9.835   4.158  0.1745  0.9365  0.8242
  455MOL0     C61311   4.085   9.936   4.281  0.3460 -0.0157 -0.0996
  455MOL0     C61312   3.960  10.013   4.294 -0.2507  0.7851  0.7164
  455MOL0     C61313   3.835   9.922   4.337 -0.2085  0.5506 -0.8704
  455MOL0     O61314   3.866   9.877   4.473 -0.2057 -0.5536  0.2075
  455MOL0     C61315   3.774   9.795   4.530 -0.1009  0.2129 -0.2639
  455MOL0     C61316   3.798   9.748   4.658  0.0459 -1.2641  0.2046
  455MOL0     C61317   3.726   9.645   4.717 -0.6933 -0.4346 -0.4561
  455MOL0     C61318   3.621   9.581   4.649  0.5615  1.0049  0.9087
  455MOL0     C61319   3.566   9.461   4.699  0.6561 -0.2635 -0.4892
  455MOL0     O61320   3.438   9.439   4.654 -0.1058  0.5382 -0.0475
  455MOL0     C61321   3.369   9.340   4.724 -0.8713  0.4410 -0.3187
  455MOL0     C61322   3.390   9.288   4.853 -0.0052  0.2333  0.3707
  455MOL0     C61323   3.301   9.201   4.918 -0.3849  0.0139  0.2367
  455MOL0     C61324   3.196   9.152   4.843 -0.2090  0.2327  0.0487
  455MOL0     O61325   3.112   9.071   4.910  0.2371  0.5233 -0.5315
  455MOL0     C61326   3.086   8.944   4.850 -0.3122 -0.9641  0.0927
  455MOL0     C61327   3.039   8.847   4.953 -0.3437 -0.0540  0.0623
  455MOL0     C61328   3.016   8.708   4.893  0.6916  0.4233 -0.7743
  455MOL0     C61329   3.157   8.640   4.866 -0.2187 -0.7484  0.1132
  455MOL0     C61330   3.145   8.540   4.754  0.4827  0.1953 -0.4816
  455MOL0     C61331   3.116   8.601   4.608 -0.1543 -0.8837 -0.9139
  455MOL0     C61332   3.101   8.490   4.502  0.1337  0.0925  0.1817
  455MOL0     C61333   3.061   8.555   4.374 -0.6845  0.0063  0.5124
  455MOL0    Cl61334   3.196   8.646   4.326 -0.0338 -0.1460 -0.0873
  455MOL0     C61335   3.178   9.189   4.713  0.0639 -0.2716  0.0127
  455MOL0     C61336   3.264   9.284   4.656 -0.1797  1.0287  0.3924
  455MOL0     O61337   3.640   9.396   4.774  0.1256 -0.0192  0.5695
  455MOL0     C61338   3.587   9.624   4.521 -0.4625 -0.1006  0.5269
  455MOL0     C61339   3.664   9.738   4.467 -0.5141 -0.3276  0.8987
  455MOL0     N61340   3.882   9.798   3.999  1.2718 -0.3101  0.8644
  455MOL0     N61341   3.836   9.843   3.881 -0.1435 -0.2667 -0.2757
  455MOL0     C61342   4.676  10.627   3.759 -0.4515  0.0796  0.1744
  455MOL0     C61343   4.790  10.686   3.696 -0.4879  0.2346  0.6358
  455MOL0     C61344   5.125  10.703   3.412 -0.2281  0.5510 -0.3775
  455MOL0     C61345   5.200  10.819   3.463 -0.6943  0.2165  0.2535
  455MOL0     C61346   5.305  10.872   3.392  0.3145 -0.5081  0.5816
  455MOL0     C61347   5.345  10.823   3.272 -0.2848  0.2900 -0.4126
  455MOL0     O61348   5.438  10.888   3.205  0.2773  0.2534 -0.8352
  455MOL0     C61349   5.483  10.859   3.075 -0.5818  1.3192 -0.0930
  455MOL0     C61350   5.625  10.924   3.053 -0.2601 -0.2567  0.4537
  455MOL0     C61351   5.629  11.030   2.948  0.0818 -0.8711  0.0698
  455MOL0     C61352   5.531  11.140   3.003 -0.5407 -1.0122  0.1887
  455MOL0     C61353   5.527  11.258   2.915  0.2920 -0.2953 -0.6087
  455MOL0     C61354   5.505  11.355   2.843 -0.1652  0.2854 -0.7637
  455MOL0     C61355   5.263  10.716   3.218 -0.1063 -0.5235  0.3211
  455MOL0     C61356   5.163  10.652   3.288  0.4123  0.4079  0.4485
  455MOL0     C61357   5.095  10.529   3.230 -0.6478 -0.3700  0.2478
  455MOL0     H61358   5.040  10.475   3.800 -0.5863 -1.2362 -1.7392
  455MOL0     H61359   4.844  10.379   3.911  1.1209 -1.6339 -3.1667
  455MOL0     H61360   4.440  10.564   3.879 -0.0077 -0.2588 -0.0622
  455MOL0     H61361   4.469  10.436   3.748  4.9847 -6.9835  0.7028
  455MOL0     H61362   4.390  10.399   4.037  0.0021  3.0369 -1.7589
  455MOL0     H61363   4.428  10.260   3.941  1.4142  0.6085  0.9629
  455MOL0     H61364   4.269  10.350   3.758  4.5520  0.1369  0.0613
  455MOL0     H61365   4.203  10.461   3.894  0.5148  0.0829  1.1681
  455MOL0     H61366   4.214  10.165   3.863  0.5428  0.0463 -0.0325
  455MOL0     H61367   4.179  10.240   4.021 -1.6122 -1.5702 -0.6702
  455MOL0     H61368   3.974  10.165   3.932  1.2301 -1.3657 -1.6181
  455MOL0     H61369   3.968  10.335   3.933  0.4941  0.1818 -1.1237
  455MOL0     H61370   3.862  10.264   3.740  0.1658  1.7917  2.9012
  455MOL0     H61371   4.011  10.341   3.694 -0.5486 -0.3871  0.1944
  455MOL0     H61372   4.108  10.077   3.699 -1.1261 -3.2459  0.4207
  455MOL0     H61373   4.006  10.125   3.563 -0.0233 -0.2791  0.6638
  455MOL0     H61374   3.812  10.033   3.689 -1.6448 -4.0727  1.2837
  455MOL0     H61375   3.930   9.919   3.624 -2.7203 -1.0843  0.7004
  455MOL0     H61376   4.135   9.972   3.899 -0.2542  1.4737 -0.7445
  455MOL0     H61377   4.058   9.733   4.185  1.1170  1.0491  2.3330
  455MOL0     H61378   4.193   9.823   4.137 -0.1598 -0.1090 -0.4918
  455MOL0     H61379   4.099   9.896   4.382 -1.7554  5.6765  2.8880
  455MOL0     H61380   4.161  10.012   4.265 -0.1255  0.9270  1.8423
  455MOL0     H61381   3.947  10.065   4.199  3.5991 -0.0127 -0.4076
  455MOL0     H61382   3.958  10.096   4.365  3.0642  0.2160  1.6746
  455MOL0     H61383   3.824   9.841   4.264  1.2364 -0.3571 -0.1108
  455MOL0     H61384   3.746   9.986   4.341  0.2377  1.2109 -1.2651
  455MOL0     H61385   3.870   9.799   4.721 -2.3985  0.3703  1.8273
  455MOL0     H61386   3.758   9.618   4.817  0.8809  0.7499 -0.5959
  455MOL0     H61387   3.466   9.337   4.914 -0.1247  0.4600  0.3396
  455MOL0     H61388   3.309   9.177   5.023 -2.9926 -0.2248  0.4360
  455MOL0     H61389   3.019   8.957   4.765  0.3099  1.4193 -0.1073
  455MOL0     H61390   3.184   8.908   4.816 -0.2738 -2.6307  1.7785
  455MOL0     H61391   3.115   8.836   5.031 -1.3155  3.0853  1.5928
  455MOL0     H61392   2.946   8.888   4.993 -1.5952  0.0116 -2.6635
  455MOL0     H61393   2.974   8.642   4.969  1.4962 -1.9705 -2.2956
  455MOL0     H61394   2.956   8.715   4.802 -0.2663  1.3568 -0.0909
  455MOL0     H61395   3.207   8.609   4.958  1.0909  0.9182  0.0231
  455MOL0     H61396   3.218   8.724   4.831  2.7396 -2.0282  1.7972
  455MOL0     H61397   3.057   8.478   4.774 -0.1262  1.4404  0.9782
  455MOL0     H61398   3.228   8.469   4.755  2.7043  2.6236  1.0505
  455MOL0     H61399   3.029   8.669   4.608  1.6358  1.7676  2.4770
  455MOL0     H61400   3.208   8.660   4.600 -0.9679  0.7068  0.5851
  455MOL0     H61401   3.028   8.414   4.533 -1.1823  2.0084  2.0722
  455MOL0     H61402   3.200   8.445   4.490  2.1026  3.9766  0.5108
  455MOL0     H61403   3.041   8.483   4.293 -2.8417  0.9204  0.1654
  455MOL0     H61404   2.966   8.608   4.389  0.5952  2.6463 -0.2455
  455MOL0     H61405   3.098   9.143   4.656 -0.1444 -3.7170  2.7378
  455MOL0     H61406   3.234   9.317   4.557  0.4087  1.6232  0.4020
  455MOL0     H61407   3.519   9.560   4.466 -0.0335 -0.9235  0.9484
  455MOL0     H61408   3.637   9.772   4.367  0.1803 -4.4688 -0.9278
  455MOL0     H61409   4.581  10.679   3.755 -0.1370  0.8286  1.7272
  455MOL0     H61410   4.765  10.769   3.631  0.0438 -1.1853 -1.4842
  455MOL0     H61411   5.175  10.876   3.552  0.3487 -0.0043  0.6941
  455MOL0     H61412   5.353  10.961   3.431  1.0371  0.3169 -2.0027
  455MOL0     H61413   5.410  10.881   2.997  0.1209  1.3123 -0.7685
  455MOL0     H61414   5.492  10.750   3.082 -0.3604  1.3495  0.1343
  455MOL0     H61415   5.689  10.844   3.014  0.2839  0.4255 -0.0542
  455MOL0     H61416   5.673  10.948   3.148  0.2623 -0.5858  0.2745
  455MOL0     H61417   5.586  11.011   2.849 -0.2463  3.2450 -0.7672
  455MOL0     H61418   5.730  11.067   2.932 -0.6182  1.7866  1.1894
  455MOL0     H61419   5.427  11.106   3.004 -0.2156 -2.0618  1.3340
  455MOL0     H61420   5.563  11.167   3.104  2.9596 -1.9776 -0.5312
  455MOL0     H61421   5.459  11.434   2.787 -1.4109 -0.3881 -0.7238
  455MOL0     H61422   5.282  10.678   3.118 -0.8925  2.4147 -1.0599
  455MOL0     H61423   5.140  10.529   3.131  0.3933 -0.2720  0.7032
  455MOL0     H61424   5.138  10.446   3.287  3.0647  1.7799  0.8693
  455MOL0     H61425   4.986  10.532   3.226 -0.6347  0.3669  0.2654
  456MOL0     O61426   1.977   4.356   2.074 -0.3484  0.5375 -0.1592
  456MOL0     C61427   2.036   4.448   2.018 -0.2275  0.0330  0.2578
  456MOL0     O61428   2.170   4.476   2.040  0.4088 -0.3487  0.6081
  456MOL0     C61429   2.230   4.402   2.137  0.3450  0.3363 -0.9738
  456MOL0     C61430   2.199   4.434   2.269 -0.4735 -0.2758 -0.3372
  456MOL0     C61431   2.243   4.352   2.372 -0.0632 -0.2005 -0.3332
  456MOL0     C61432   2.331   4.242   2.347 -0.1332 -0.0369  0.9149
  456MOL0     O61433   2.392   4.166   2.440 -0.4102  0.0125  0.4497
  456MOL0     C61434   2.289   4.108   2.518  1.1881 -0.3563  0.2775
  456MOL0     C61435   2.342   3.981   2.590 -0.0680 -0.4232 -0.5766
  456MOL0     C61436   2.428   4.019   2.702  0.6498  0.0282 -0.8119
  456MOL0     C61437   2.421   3.920   2.820  0.2612  0.9873  0.3244
  456MOL0     C61438   2.518   3.957   2.926 -1.9949 -1.1979  0.0231
  456MOL0     C61439   2.667   3.911   2.891  0.3078 -0.0731 -0.7181
  456MOL0     C61440   2.760   3.956   3.008  0.0148 -0.4795  0.0840
  456MOL0     C61441   2.797   4.106   3.011  0.8711 -0.1766  0.3729
  456MOL0     N61442   2.901   4.125   3.109  0.7490 -0.4173  0.5315
  456MOL0     C61443   2.899   4.141   3.245 -0.5570 -0.4919 -0.2629
  456MOL0     C61444   3.030   4.154   3.283  0.2858 -0.1836 -0.5641
  456MOL0     C61445   3.073   4.193   3.428  0.2054  0.7860 -0.0351
  456MOL0     C61446   3.064   4.344   3.433 -0.5979  0.2394  0.5307
  456MOL0     C61447   3.171   4.409   3.335 -0.1357  0.2573  0.2796
  456MOL0     C61448   3.168   4.560   3.364 -0.0924 -0.1121 -0.6676
  456MOL0     O61449   3.236   4.598   3.482  0.4662 -0.0545 -0.5784
  456MOL0     C61450   3.357   4.651   3.446  0.3968  0.1331 -0.1082
  456MOL0     C61451   3.467   4.569   3.431 -0.5771  0.0498 -0.4983
  456MOL0     C61452   3.593   4.627   3.404 -0.0298  0.4391 -0.0899
  456MOL0     C61453   3.602   4.766   3.398  0.1570 -0.2115 -1.0035
  456MOL0     C61454   3.734   4.831   3.375  0.2755  0.6290 -0.3851
  456MOL0     O61455   3.831   4.774   3.306  0.2524 -0.6092 -0.4669
  456MOL0     C61456   3.966   4.809   3.318  0.0068  0.1730 -0.5189
  456MOL0     C61457   4.021   4.867   3.429  0.6723 -0.2478 -0.2937
  456MOL0     C61458   4.155   4.901   3.435 -0.5095  0.1641 -0.1246
  456MOL0     C61459   4.237   4.875   3.319 -0.1678 -0.2145 -0.6074
  456MOL0     O61460   4.359   4.931   3.295  0.0159 -0.5376 -0.4564
  456MOL0     C61461   4.434   4.987   3.404  0.3938  0.0308  0.2278
  456MOL0     C61462   4.545   5.086   3.358  0.2629 -0.7185 -0.0444
  456MOL0     C61463   4.650   5.084   3.473 -1.1309  0.3118  1.2472
  456MOL0     C61464   4.767   4.995   3.443 -0.1649  0.5716  0.1656
  456MOL0     C61465   4.834   4.942   3.566 -0.1841 -0.0087 -0.2565
  456MOL0     C61466   4.965   5.021   3.617  0.3305 -0.0416  0.3359
  456MOL0     C61467   5.008   4.994   3.763  0.0712  0.2985  0.2245
  456MOL0     C61468   5.030   4.835   3.790 -0.3498 -0.1693  0.5378
  456MOL0    Cl61469   5.116   4.789   3.938 -0.5235 -0.6010 -0.2378
  456MOL0     C61470   4.178   4.809   3.216  0.4880  0.0474  0.5941
  456MOL0     C61471   4.040   4.771   3.209  0.0432 -0.5441 -0.4032
  456MOL0     O61472   3.744   4.943   3.431  0.5033 -0.5004  0.4070
  456MOL0     C61473   3.490   4.846   3.402 -0.1254 -0.3700 -0.4116
  456MOL0     C61474   3.366   4.786   3.431  0.1753 -0.2082  0.3071
  456MOL0     N61475   3.116   4.138   3.179  0.0512  0.5230  0.4510
  456MOL0     N61476   3.033   4.138   3.074  0.3281  0.2227  0.6576
  456MOL0     C61477   2.360   4.213   2.212 -0.1382 -0.4800  0.2185
  456MOL0     C61478   2.315   4.288   2.106 -0.0495  0.2368 -0.5435
  456MOL0     C61479   1.967   4.519   1.903 -0.8460  1.0823 -0.1099
  456MOL0     C61480   2.049   4.581   1.814  0.4526 -0.0830 -0.3373
  456MOL0     C61481   1.999   4.669   1.713 -1.3807 -0.3983 -0.3237
  456MOL0     C61482   1.860   4.688   1.701 -0.3483 -0.0984 -0.0358
  456MOL0     O61483   1.809   4.753   1.595  0.2264  0.0415  0.2911
  456MOL0     C61484   1.882   4.824   1.482  0.3293 -1.0242 -0.1948
  456MOL0     C61485   1.771   4.864   1.382 -0.6935 -0.1798 -0.4673
  456MOL0     C61486   1.668   4.960   1.441  0.5715 -0.7032 -0.2820
  456MOL0     C61487   1.561   5.010   1.339 -1.1347 -0.3542  0.6251
  456MOL0     C61488   1.480   5.104   1.411  0.3158 -0.2821 -0.3630
  456MOL0     C61489   1.404   5.182   1.462 -0.0279  0.8363  0.7500
  456MOL0     C61490   1.776   4.623   1.784 -0.1532  0.3078 -0.3950
  456MOL0     C61491   1.825   4.533   1.886  0.1649 -1.1315 -0.5455
  456MOL0     C61492   1.722   4.479   1.982  0.2526  0.3279  0.4434
  456MOL0     H61493   2.140   4.520   2.296 -2.7589 -1.7685 -0.2897
  456MOL0     H61494   2.226   4.385   2.474 -1.2616  0.8183 -0.8404
  456MOL0     H61495   2.251   4.170   2.599 -0.8080 -2.2546  0.8953
  456MOL0     H61496   2.199   4.083   2.461  0.9857 -1.1075  0.9111
  456MOL0     H61497   2.397   3.916   2.520  0.3716 -0.8324  0.1288
  456MOL0     H61498   2.259   3.917   2.622 -1.2235  0.2907 -2.0239
  456MOL0     H61499   2.397   4.118   2.735  1.9649  0.8631 -1.9509
  456MOL0     H61500   2.535   4.034   2.683  0.9459  0.7437  1.1141
  456MOL0     H61501   2.322   3.908   2.865  0.6139  0.3194  0.9387
  456MOL0     H61502   2.442   3.817   2.790  0.3079  0.8877  0.6874
  456MOL0     H61503   2.512   4.066   2.929  3.1975 -0.6253 -0.5957
  456MOL0     H61504   2.499   3.937   3.031 -0.4493 -1.7269  0.2244
  456MOL0     H61505   2.668   3.802   2.891  0.7408 -0.1367 -3.3988
  456MOL0     H61506   2.696   3.949   2.793  0.9422 -0.1925 -0.5803
  456MOL0     H61507   2.854   3.902   3.004  1.4021  1.8035  0.1410
  456MOL0     H61508   2.723   3.916   3.103  0.8764 -0.9605  0.2235
  456MOL0     H61509   2.838   4.136   2.914  2.2299 -1.4095  0.5256
  456MOL0     H61510   2.696   4.144   3.030 -0.8597 -2.6008 -2.7714
  456MOL0     H61511   2.818   4.145   3.316 -0.9269 -4.7577 -0.1915
  456MOL0     H61512   3.008   4.148   3.504  0.7754  0.8034  0.4729
  456MOL0     H61513   3.172   4.158   3.459 -0.0938 -1.7654 -1.6850
  456MOL0     H61514   2.962   4.377   3.416 -0.2690  0.6579 -0.6787
  456MOL0     H61515   3.098   4.370   3.534 -0.1111 -0.5908  0.5947
  456MOL0     H61516   3.123   4.388   3.239 -2.2314  5.2992 -0.0552
  456MOL0     H61517   3.267   4.359   3.351 -0.3147  0.3715  1.9446
  456MOL0     H61518   3.066   4.589   3.388  0.5606 -0.4658  3.3454
  456MOL0     H61519   3.193   4.617   3.274 -2.3076  2.1337  0.0384
  456MOL0     H61520   3.465   4.461   3.433 -3.0336  0.0114  2.3729
  456MOL0     H61521   3.680   4.563   3.418 -0.2826  0.3100  0.9264
  456MOL0     H61522   3.964   4.899   3.516  0.6107 -0.8001 -0.1251
  456MOL0     H61523   4.195   4.944   3.525 -1.7403 -0.5295  0.7821
  456MOL0     H61524   4.375   5.046   3.474 -0.3438  1.3855 -1.4528
  456MOL0     H61525   4.470   4.901   3.461 -1.8216 -1.3610 -0.3351
  456MOL0     H61526   4.570   5.059   3.255 -2.3914  0.2715 -1.0336
  456MOL0     H61527   4.502   5.186   3.350  4.8280  1.4241 -1.0872
  456MOL0     H61528   4.684   5.188   3.478  0.1418 -0.1226  2.2651
  456MOL0     H61529   4.605   5.045   3.565 -2.4773  0.1743  0.5539
  456MOL0     H61530   4.845   5.037   3.379  1.5511 -3.5358 -0.7241
  456MOL0     H61531   4.722   4.903   3.405 -1.3383  1.1068  0.2096
  456MOL0     H61532   4.854   4.836   3.547 -2.3372 -0.3020 -1.1974
  456MOL0     H61533   4.774   4.936   3.658  3.2756 -0.9010  2.1602
  456MOL0     H61534   5.050   5.000   3.552  0.4308  1.2865  0.0275
  456MOL0     H61535   4.946   5.123   3.585 -1.1528 -1.0824 -2.4154
  456MOL0     H61536   4.940   5.027   3.842  1.5682  0.0955  1.6568
  456MOL0     H61537   5.102   5.048   3.775 -0.0726  0.1390  2.4278
  456MOL0     H61538   4.927   4.800   3.796 -1.7556  3.0322 -1.8227
  456MOL0     H61539   5.080   4.786   3.706 -0.6376 -0.4981  0.5576
  456MOL0     H61540   4.243   4.798   3.130 -0.8787  0.7583 -0.5841
  456MOL0     H61541   3.999   4.732   3.116  1.1917 -0.4852 -0.9574
  456MOL0     H61542   3.493   4.955   3.398 -1.0213 -0.1244  2.7806
  456MOL0     H61543   3.277   4.845   3.448  0.4899  1.0945 -2.0677
  456MOL0     H61544   2.423   4.128   2.189  0.3972  0.0854 -0.4440
  456MOL0     H61545   2.320   4.260   2.002 -0.5960  2.0182 -1.0708
  456MOL0     H61546   2.153   4.551   1.822 -0.0983 -1.6112  2.2866
  456MOL0     H61547   2.070   4.707   1.640 -1.3851  0.4644  0.1039
  456MOL0     H61548   1.946   4.757   1.424 -0.5824 -1.0540 -1.1784
  456MOL0     H61549   1.939   4.910   1.519 -2.3094 -0.0951  2.1093
  456MOL0     H61550   1.713   4.777   1.349 -0.7947  0.4330 -1.9781
  456MOL0     H61551   1.809   4.895   1.284 -1.4906 -1.4650 -1.2215
  456MOL0     H61552   1.713   5.052   1.478 -0.3341  1.3400 -3.7915
  456MOL0     H61553   1.618   4.908   1.524  4.0955 -2.6246  0.8382
  456MOL0     H61554   1.612   5.071   1.264  0.1202 -1.3017  0.6604
  456MOL0     H61555   1.501   4.927   1.300  0.3307 -0.3358 -1.8674
  456MOL0     H61556   1.327   5.252   1.490 -1.5663 -0.9287  1.1858
  456MOL0     H61557   1.670   4.632   1.762  0.5230  3.6664 -3.1543
  456MOL0     H61558   1.744   4.373   1.994  1.3524  0.2288 -1.8961
  456MOL0     H61559   1.713   4.526   2.081 -1.5029 -0.6217  0.7684
  456MOL0     H61560   1.622   4.492   1.941  0.2936 -0.5350  0.0659
  457MOL0     O61561   9.140   8.268   0.969  0.0198  0.4241 -0.8219
  457MOL0     C61562   9.190   8.236   0.859  0.2192 -0.5434 -0.0813
  457MOL0     O61563   9.188   8.116   0.801 -0.3236 -0.5514  0.2961
  457MOL0     C61564   9.108   8.022   0.854 -0.0831  0.0457 -0.6637
  457MOL0     C61565   9.001   7.969   0.775  0.2727  0.4789 -0.0603
  457MOL0     C61566   8.922   7.863   0.818  0.7473 -0.3856 -1.2350
  457MOL0     C61567   8.950   7.798   0.938  0.6030  1.1555  0.0438
  457MOL0     O61568   8.873   7.689   0.987 -0.2411  0.4560 -0.3040
  457MOL0     C61569   8.831   7.595   0.885  0.1966  0.0251 -0.4772
  457MOL0     C61570   8.940   7.495   0.860 -1.0389  0.4929 -0.7578
  457MOL0     C61571   8.978   7.404   0.974  0.0275  0.6554  0.1450
  457MOL0     C61572   9.126   7.411   1.016  1.1047 -0.2385 -0.9267
  457MOL0     C61573   9.146   7.358   1.160 -0.1002 -1.6528 -0.0623
  457MOL0     C61574   9.135   7.204   1.166  0.8730 -0.3070 -0.3661
  457MOL0     C61575   9.080   7.153   1.301  0.2195 -0.1040 -0.3640
  457MOL0     C61576   9.058   7.003   1.309  0.1945  0.5192 -0.0883
  457MOL0     N61577   9.146   6.934   1.401  0.7292 -0.8894 -0.0343
  457MOL0     C61578   9.135   6.935   1.540  0.0741  0.0419 -1.5884
  457MOL0     C61579   9.241   6.862   1.590 -0.4948  0.3218  0.4176
  457MOL0     C61580   9.282   6.846   1.725 -0.8382  1.6546 -0.7084
  457MOL0     C61581   9.251   6.700   1.774  0.5357 -0.5134 -0.0010
  457MOL0     C61582   9.279   6.665   1.923 -0.1397 -0.0813 -0.1016
  457MOL0     C61583   9.221   6.525   1.951  0.0136  0.4232  1.1397
  457MOL0     O61584   9.280   6.421   1.857  0.3491 -0.1687  0.7470
  457MOL0     C61585   9.402   6.369   1.879 -0.9485 -0.2110 -1.6411
  457MOL0     C61586   9.497   6.360   1.771  0.1793  1.2517  0.4080
  457MOL0     C61587   9.630   6.311   1.788  0.7176 -0.6381  0.3435
  457MOL0     C61588   9.676   6.277   1.916 -0.4561 -0.6532 -0.7043
  457MOL0     C61589   9.814   6.225   1.941 -0.5447 -0.5364  1.7344
  457MOL0     O61590   9.833   6.147   2.047 -0.1086  0.4630  0.4009
  457MOL0     C61591   9.940   6.063   2.067 -0.0210 -0.2184  0.3758
  457MOL0     C61592   9.947   6.014   2.198  0.2269  0.6687  0.6082
  457MOL0     C61593  10.034   5.913   2.239  0.0493  0.8717  0.4532
  457MOL0     C61594  10.114   5.852   2.141  0.3540  0.6249  0.5768
  457MOL0     O61595  10.215   5.767   2.182 -0.6536 -0.2918 -1.0819
  457MOL0     C61596  10.348   5.792   2.136 -0.3424 -0.7026  0.2716
  457MOL0     C61597  10.457   5.724   2.227 -0.1453  0.2632  0.0063
  457MOL0     C61598  10.457   5.784   2.364  1.1222  0.8793 -0.5620
  457MOL0     C61599  10.529   5.705   2.472 -0.0248 -0.7098  0.6093
  457MOL0     C61600  10.683   5.731   2.477 -0.3411 -0.8723 -0.7043
  457MOL0     C61601  10.732   5.645   2.589  0.4287 -0.4381  0.2084
  457MOL0     C61602  10.867   5.666   2.637 -1.1201 -0.4461  0.7884
  457MOL0     C61603  10.976   5.599   2.551 -0.6105 -0.5774  0.1791
  457MOL0    Cl61604  11.003   5.434   2.611 -0.1749 -0.1570 -0.1227
  457MOL0     C61605  10.114   5.898   2.007 -1.0675 -0.2339 -0.7662
  457MOL0     C61606  10.020   5.997   1.974 -0.3832 -0.3002  0.3787
  457MOL0     O61607   9.894   6.235   1.844  0.3723  0.1892 -0.4433
  457MOL0     C61608   9.591   6.291   2.022 -0.0367 -0.2457 -1.3555
  457MOL0     C61609   9.452   6.333   2.001 -0.1126 -0.6943  0.2047
  457MOL0     N61610   9.304   6.806   1.482  0.7771 -0.2578  0.2079
  457MOL0     N61611   9.255   6.861   1.368  0.4779 -0.7154 -0.3133
  457MOL0     C61612   9.058   7.841   1.010  0.0616 -0.4175  0.5644
  457MOL0     C61613   9.142   7.952   0.970 -0.2372 -0.1589  0.5852
  457MOL0     C61614   9.288   8.326   0.799  0.2563 -0.1856  0.5320
  457MOL0     C61615   9.389   8.393   0.869 -0.4970 -0.5486 -0.0321
  457MOL0     C61616   9.479   8.491   0.807 -0.8048  0.5722 -0.4109
  457MOL0     C61617   9.448   8.517   0.666  1.0489 -0.1164  0.1684
  457MOL0     O61618   9.526   8.594   0.593 -0.0376 -0.4544  0.0259
  457MOL0     C61619   9.665   8.601   0.636  0.1408  0.0700 -0.4097
  457MOL0     C61620   9.758   8.670   0.535  0.3159 -0.5428  0.0620
  457MOL0     C61621   9.754   8.601   0.393  0.6522 -0.4321 -0.7835
  457MOL0     C61622   9.779   8.448   0.391  0.8619 -0.4540  0.4102
  457MOL0     C61623   9.903   8.413   0.470 -0.1584 -1.1263 -0.3236
  457MOL0     C61624   9.989   8.374   0.547  0.2963 -0.6967  0.8397
  457MOL0     C61625   9.338   8.465   0.601 -0.9382 -0.5849 -0.5386
  457MOL0     C61626   9.264   8.364   0.663  0.3889 -0.0052 -0.5191
  457MOL0     C61627   9.144   8.311   0.585  0.4228  0.0437 -0.0164
  457MOL0     H61628   8.975   8.021   0.683 -0.0492 -1.9040 -1.4004
  457MOL0     H61629   8.836   7.835   0.758 -0.1783  1.4696 -0.8486
  457MOL0     H61630   8.740   7.538   0.906 -1.0908  2.6262  1.6294
  457MOL0     H61631   8.801   7.643   0.792 -0.2324 -1.2727 -1.0279
  457MOL0     H61632   9.025   7.556   0.828  0.4122  0.0438  1.9805
  457MOL0     H61633   8.917   7.424   0.779  0.1601 -4.9157  3.0773
  457MOL0     H61634   8.945   7.304   0.946 -0.4180  0.1791  2.1721
  457MOL0     H61635   8.906   7.428   1.053 -0.1158 -1.4241  0.7008
  457MOL0     H61636   9.192   7.349   0.955  3.8549 -1.0366  2.5004
  457MOL0     H61637   9.156   7.514   0.999  0.0421  0.1877 -0.3330
  457MOL0     H61638   9.244   7.396   1.189 -1.7097  1.9416  1.2932
  457MOL0     H61639   9.069   7.411   1.216  0.5492 -1.3634  0.5653
  457MOL0     H61640   9.074   7.157   1.089  0.6472  0.8119 -0.8877
  457MOL0     H61641   9.234   7.159   1.156  1.0677  0.5129 -2.8161
  457MOL0     H61642   8.986   7.209   1.307 -0.3509 -0.2959 -4.4786
  457MOL0     H61643   9.141   7.189   1.384 -0.9738 -3.1117  1.9915
  457MOL0     H61644   8.957   6.983   1.348  0.2826  3.2044  1.7756
  457MOL0     H61645   9.069   6.957   1.210  2.1294 -3.0896  1.6383
  457MOL0     H61646   9.049   6.975   1.592  2.3531  0.4110  2.3235
  457MOL0     H61647   9.384   6.880   1.744 -0.1510 -0.4479 -0.3659
  457MOL0     H61648   9.221   6.907   1.793  0.6361 -0.6794  3.0235
  457MOL0     H61649   9.143   6.691   1.767  0.6868 -3.0252  0.0310
  457MOL0     H61650   9.303   6.632   1.706  2.4509  1.4178 -0.5657
  457MOL0     H61651   9.230   6.733   1.993 -0.0761  1.4859 -1.5132
  457MOL0     H61652   9.387   6.663   1.943  0.1937  1.4094 -1.4786
  457MOL0     H61653   9.113   6.532   1.935 -0.2351 -2.1716  1.1259
  457MOL0     H61654   9.223   6.478   2.050 -0.0825  0.4978  1.1766
  457MOL0     H61655   9.458   6.375   1.671 -3.0812  0.9546  1.5136
  457MOL0     H61656   9.700   6.296   1.707  0.7205 -2.6517  0.6501
  457MOL0     H61657   9.874   6.052   2.268 -2.4316 -1.0687 -1.0506
  457MOL0     H61658  10.054   5.881   2.341 -1.5292 -0.7538  0.2994
  457MOL0     H61659  10.359   5.731   2.046  0.9340  1.0492 -0.8110
  457MOL0     H61660  10.369   5.894   2.103 -1.2578  0.8349  3.9478
  457MOL0     H61661  10.434   5.617   2.238  1.1601 -0.0186  0.1937
  457MOL0     H61662  10.554   5.749   2.184 -1.3109  4.1130 -0.7503
  457MOL0     H61663  10.501   5.884   2.355  1.8299  0.4436 -2.2552
  457MOL0     H61664  10.360   5.806   2.409  1.9620  1.2599  1.1463
  457MOL0     H61665  10.518   5.597   2.458  0.7250 -1.1080  2.7547
  457MOL0     H61666  10.485   5.728   2.569  0.7823  1.7799  0.4626
  457MOL0     H61667  10.705   5.832   2.512  0.2923 -0.3528 -2.5238
  457MOL0     H61668  10.724   5.706   2.379 -0.6097  0.2514 -1.1124
  457MOL0     H61669  10.682   5.675   2.681 -1.2243  0.5429 -0.9608
  457MOL0     H61670  10.709   5.539   2.574  2.0723 -0.5957 -1.6902
  457MOL0     H61671  10.874   5.619   2.736 -1.4868 -0.2189  0.9233
  457MOL0     H61672  10.886   5.773   2.650  0.5743 -0.7405  0.9785
  457MOL0     H61673  10.952   5.600   2.444 -3.8321 -2.0230  0.7840
  457MOL0     H61674  11.067   5.656   2.572 -0.3959  0.0508 -2.1673
  457MOL0     H61675  10.171   5.835   1.939  1.7643  1.1173  0.2162
  457MOL0     H61676  10.021   6.010   1.866 -0.5872 -1.2145  0.2560
  457MOL0     H61677   9.616   6.274   2.127 -2.2427  0.5116 -0.6455
  457MOL0     H61678   9.379   6.328   2.081  1.8875  1.2615  2.3049
  457MOL0     H61679   9.075   7.786   1.102 -4.1531 -2.5452  0.2932
  457MOL0     H61680   9.239   7.967   1.015 -0.4577 -1.7158  1.6578
  457MOL0     H61681   9.407   8.378   0.975  2.8446 -2.0331 -0.6904
  457MOL0     H61682   9.557   8.539   0.866 -1.3706 -1.1546  1.8724
  457MOL0     H61683   9.698   8.499   0.655 -1.3232 -0.2562  0.5111
  457MOL0     H61684   9.669   8.660   0.728 -0.9420 -0.1934 -0.1826
  457MOL0     H61685   9.857   8.660   0.578 -0.2035  1.6681  1.9589
  457MOL0     H61686   9.730   8.775   0.518  3.6240  0.0957 -2.4247
  457MOL0     H61687   9.830   8.645   0.329 -0.3479  0.4162 -1.4243
  457MOL0     H61688   9.651   8.621   0.361 -0.2345  1.1741  2.6019
  457MOL0     H61689   9.689   8.398   0.426  2.3881 -1.8573  2.5799
  457MOL0     H61690   9.792   8.422   0.286 -1.6266 -1.1883  0.2254
  457MOL0     H61691  10.048   8.341   0.630  0.8244  1.3891  1.3634
  457MOL0     H61692   9.315   8.493   0.499  1.4194 -0.9190 -1.2139
  457MOL0     H61693   9.105   8.373   0.504  1.6662  3.3960  1.7662
  457MOL0     H61694   9.172   8.211   0.551  0.1900 -0.0618  0.1047
  457MOL0     H61695   9.059   8.307   0.653 -0.2823  0.4954 -0.8676
  458MOL0     O61696   5.317   1.884   9.381  0.2616  0.0614 -0.0426
  458MOL0     C61697   5.246   1.878   9.481 -0.3296 -1.3802  0.8151
  458MOL0     O61698   5.286   1.920   9.603  0.3859  0.2751 -0.6137
  458MOL0     C61699   5.411   1.976   9.627 -0.5635  0.7477  0.7725
  458MOL0     C61700   5.497   1.917   9.716 -0.8093 -0.3879 -0.4513
  458MOL0     C61701   5.634   1.965   9.734 -0.1827  0.7489 -0.2751
  458MOL0     C61702   5.672   2.080   9.670  0.3609  0.6766 -0.1663
  458MOL0     O61703   5.777   2.157   9.697 -0.6955 -0.1729  0.2131
  458MOL0     C61704   5.888   2.089   9.758  0.2283  0.6284 -1.0612
  458MOL0     C61705   6.019   2.171   9.735  0.6688 -0.2605  0.5302
  458MOL0     C61706   6.146   2.109   9.770  0.2620  0.4320  0.1323
  458MOL0     C61707   6.264   2.145   9.689 -0.7700 -0.3234  0.1872
  458MOL0     C61708   6.355   2.027   9.657 -0.1872 -0.3289  0.8145
  458MOL0     C61709   6.484   2.070   9.587 -0.7403  1.0209  0.1272
  458MOL0     C61710   6.587   2.076   9.701 -0.0107  0.5229  0.5345
  458MOL0     C61711   6.718   2.142   9.648 -0.4280 -0.3175 -0.1268
  458MOL0     N61712   6.781   2.038   9.582 -0.2375  1.0705  0.4012
  458MOL0     C61713   6.768   2.009   9.448  0.3750  0.0179 -0.6825
  458MOL0     C61714   6.860   1.917   9.417  0.1447  0.3122 -0.3322
  458MOL0     C61715   6.907   1.860   9.292 -0.7518 -0.0594  0.5401
  458MOL0     C61716   7.012   1.753   9.308  0.3146  0.2837  1.0799
  458MOL0     C61717   7.066   1.705   9.166 -0.1421 -0.0420 -0.3682
  458MOL0     C61718   7.198   1.626   9.186 -0.3155  1.1481 -0.1857
  458MOL0     O61719   7.297   1.710   9.243  0.0132 -0.7018  0.4542
  458MOL0     C61720   7.433   1.677   9.226  0.6356  0.0949  0.2188
  458MOL0     C61721   7.501   1.646   9.346 -0.2494  0.1191  0.4962
  458MOL0     C61722   7.644   1.626   9.339  0.3950  0.5786 -0.2896
  458MOL0     C61723   7.716   1.627   9.212  0.1312  0.5204 -0.3504
  458MOL0     C61724   7.854   1.584   9.205 -0.7350 -0.9300 -0.2666
  458MOL0     O61725   7.919   1.538   9.321 -0.0048  0.2668 -0.4026
  458MOL0     C61726   8.053   1.504   9.321  0.2334  0.3611  0.0254
  458MOL0     C61727   8.165   1.579   9.270 -0.2219  0.3335 -0.3811
  458MOL0     C61728   8.292   1.534   9.298 -0.6053  0.5238 -0.0761
  458MOL0     C61729   8.325   1.419   9.374  0.4649 -0.4625  0.1893
  458MOL0     O61730   8.458   1.382   9.396 -0.3048  0.1208 -0.1788
  458MOL0     C61731   8.545   1.380   9.275 -0.8025  0.2764  0.2663
  458MOL0     C61732   8.676   1.296   9.298 -0.0238  0.3674 -0.5747
  458MOL0     C61733   8.759   1.291   9.170  0.7680  0.1011 -0.7985
  458MOL0     C61734   8.886   1.222   9.205  0.4165  0.5404  0.3372
  458MOL0     C61735   8.969   1.211   9.086  0.2659  0.1948 -0.1575
  458MOL0     C61736   9.098   1.118   9.095 -0.8919  0.3108 -0.7656
  458MOL0     C61737   9.204   1.149   8.984  0.0002 -0.1074  0.0413
  458MOL0     C61738   9.225   1.032   8.884  0.1376 -0.0979  0.1151
  458MOL0    Cl61739   9.364   1.071   8.770 -0.2472  0.2391  0.2752
  458MOL0     C61740   8.220   1.346   9.426  0.6082  0.0747  0.3649
  458MOL0     C61741   8.087   1.400   9.396  0.6163  0.4813  0.6142
  458MOL0     O61742   7.906   1.581   9.089 -0.0748 -0.0303 -0.2165
  458MOL0     C61743   7.640   1.662   9.102  0.3621  0.2509  0.3036
  458MOL0     C61744   7.497   1.689   9.103 -0.6040  0.4153  0.2296
  458MOL0     N61745   6.918   1.876   9.543 -0.1134 -0.0620 -0.2213
  458MOL0     N61746   6.879   1.951   9.639  0.5358 -0.1090 -0.0312
  458MOL0     C61747   5.585   2.134   9.577 -0.5133  0.2517 -0.3285
  458MOL0     C61748   5.459   2.080   9.547  1.3795 -0.4252 -0.4533
  458MOL0     C61749   5.124   1.796   9.476  0.2285  0.7046 -0.4574
  458MOL0     C61750   5.033   1.804   9.585 -0.5174  0.8206 -0.9885
  458MOL0     C61751   4.932   1.719   9.604  0.2118 -0.3704  0.4599
  458MOL0     C61752   4.902   1.628   9.503 -0.0761 -0.5681  0.3752
  458MOL0     O61753   4.809   1.526   9.514 -0.2960  0.6265  0.1280
  458MOL0     C61754   4.770   1.485   9.652  0.6448  0.1352 -0.1743
  458MOL0     C61755   4.882   1.444   9.746  0.2257  0.7793 -0.4009
  458MOL0     C61756   4.915   1.298   9.703 -0.6431  0.5214 -1.1377
  458MOL0     C61757   5.060   1.281   9.752  0.4779  0.0506 -0.5245
  458MOL0     C61758   5.163   1.326   9.653 -0.7101  0.1250 -0.6680
  458MOL0     C61759   5.233   1.362   9.559  0.7334  0.2345  0.9970
  458MOL0     C61760   4.975   1.635   9.386  0.3709 -0.2012 -0.5414
  458MOL0     C61761   5.090   1.710   9.373 -0.2022 -0.8339 -0.1124
  458MOL0     C61762   5.156   1.702   9.236 -0.9371 -0.0825  0.4880
  458MOL0     H61763   5.468   1.834   9.780  2.4022 -1.7778 -0.6358
  458MOL0     H61764   5.693   1.925   9.816  0.1733  1.0495 -0.3872
  458MOL0     H61765   5.866   2.090   9.865  0.9519 -1.7840 -0.8404
  458MOL0     H61766   5.902   1.987   9.723 -0.4990  0.0463  0.2493
  458MOL0     H61767   6.012   2.271   9.778 -1.5519 -1.0678  2.2054
  458MOL0     H61768   6.038   2.182   9.627 -1.1178  0.9723  0.3038
  458MOL0     H61769   6.135   2.001   9.754  0.2884  0.5138 -0.4888
  458MOL0     H61770   6.169   2.123   9.876 -0.1199  2.2947  0.0071
  458MOL0     H61771   6.220   2.184   9.596  0.1362  0.6682  0.1650
  458MOL0     H61772   6.321   2.227   9.733 -1.5407 -0.4933  1.5354
  458MOL0     H61773   6.373   1.970   9.749 -0.5125  0.5084  1.4018
  458MOL0     H61774   6.292   1.956   9.602 -1.4840  0.4411  1.2776
  458MOL0     H61775   6.515   2.004   9.506  0.9968  3.2464 -1.1458
  458MOL0     H61776   6.467   2.163   9.531 -0.2913  1.1799  0.2442
  458MOL0     H61777   6.607   1.976   9.740  6.1793 -0.2073 -3.0881
  458MOL0     H61778   6.552   2.148   9.776 -2.1656  1.2490 -1.0845
  458MOL0     H61779   6.701   2.227   9.582  0.8732  0.4077  0.4483
  458MOL0     H61780   6.790   2.166   9.726 -0.4248  1.6849 -0.6881
  458MOL0     H61781   6.707   2.055   9.370 -0.1783 -0.9115 -0.8174
  458MOL0     H61782   6.823   1.819   9.234  0.8621 -3.4207  0.3103
  458MOL0     H61783   6.949   1.937   9.227  0.3787 -1.4323 -0.4337
  458MOL0     H61784   7.096   1.792   9.366  2.1414 -2.1879  0.2669
  458MOL0     H61785   6.981   1.665   9.365  2.5111 -1.9552 -0.9511
  458MOL0     H61786   7.088   1.796   9.109 -1.8580  1.1465  0.7403
  458MOL0     H61787   6.999   1.640   9.110 -2.6479  1.5989  0.5341
  458MOL0     H61788   7.233   1.594   9.087 -1.5180 -2.2839  0.3493
  458MOL0     H61789   7.186   1.534   9.245 -2.0550  1.0184 -0.7020
  458MOL0     H61790   7.448   1.632   9.440 -0.8869 -1.3952 -0.0580
  458MOL0     H61791   7.688   1.613   9.438  0.8195 -0.1831 -0.5692
  458MOL0     H61792   8.149   1.668   9.209  1.5242  0.8347 -0.1645
  458MOL0     H61793   8.373   1.601   9.268 -1.5699  0.6991 -2.4446
  458MOL0     H61794   8.487   1.335   9.194 -0.4729 -1.6574  1.0613
  458MOL0     H61795   8.576   1.481   9.245 -0.1498 -0.3347 -1.2269
  458MOL0     H61796   8.738   1.348   9.370 -2.0030  1.5437  0.3528
  458MOL0     H61797   8.644   1.202   9.345 -2.2225  1.4160  0.1283
  458MOL0     H61798   8.719   1.231   9.087 -0.7269  0.9177 -0.7067
  458MOL0     H61799   8.776   1.387   9.120 -0.5422  0.6383 -0.2497
  458MOL0     H61800   8.864   1.123   9.245  3.6555  0.0534  1.1967
  458MOL0     H61801   8.953   1.275   9.273  2.9792 -2.3705  0.2713
  458MOL0     H61802   9.005   1.312   9.064 -0.2231  1.1404  2.8992
  458MOL0     H61803   8.914   1.172   9.000  1.4268 -2.7031  0.2984
  458MOL0     H61804   9.146   1.133   9.192 -2.2507 -1.4188  0.2333
  458MOL0     H61805   9.078   1.011   9.094 -0.2765  0.1967 -1.2445
  458MOL0     H61806   9.292   1.176   9.043  1.2202 -1.1196 -1.2419
  458MOL0     H61807   9.177   1.245   8.937  2.6639  2.2449  2.8597
  458MOL0     H61808   9.228   0.934   8.932  0.3294 -0.6901 -1.0804
  458MOL0     H61809   9.139   1.043   8.817  1.5539  1.1469 -1.6062
  458MOL0     H61810   8.243   1.267   9.496  2.6454 -0.3825 -0.7506
  458MOL0     H61811   8.015   1.340   9.451  0.7453 -0.4951 -0.2597
  458MOL0     H61812   7.679   1.658   9.000 -1.7084  0.6213 -0.5455
  458MOL0     H61813   7.446   1.693   9.008 -1.8144 -2.8951  0.6078
  458MOL0     H61814   5.605   2.222   9.517 -2.6060  1.3293  0.4357
  458MOL0     H61815   5.389   2.121   9.475 -0.9717 -0.3277  1.6981
  458MOL0     H61816   5.048   1.878   9.663 -1.1061  0.2531 -0.3263
  458MOL0     H61817   4.865   1.729   9.689  1.2636  0.3470  1.2267
  458MOL0     H61818   4.700   1.402   9.643 -0.3526  1.1781 -3.9354
  458MOL0     H61819   4.714   1.564   9.703  2.5393  0.3293  1.7564
  458MOL0     H61820   4.857   1.439   9.852  3.5495 -2.0276  0.4675
  458MOL0     H61821   4.965   1.515   9.735 -3.1172  4.8525 -1.9771
  458MOL0     H61822   4.899   1.274   9.598 -1.1094 -2.1826 -0.5378
  458MOL0     H61823   4.841   1.233   9.751  0.5123 -0.5428 -0.7187
  458MOL0     H61824   5.074   1.327   9.850  0.3380  1.1858 -1.0214
  458MOL0     H61825   5.070   1.174   9.772 -1.8595 -0.2811 -0.7870
  458MOL0     H61826   5.292   1.405   9.481  0.4714  2.7372  2.0716
  458MOL0     H61827   4.946   1.568   9.306 -1.1169  2.5504 -2.4674
  458MOL0     H61828   5.166   1.804   9.197 -0.3148 -0.8949 -1.6038
  458MOL0     H61829   5.256   1.661   9.251 -1.7107 -1.2054  3.2124
  458MOL0     H61830   5.096   1.639   9.170 -0.3258 -1.3389  1.1141
  459MOL0     O61831   9.418   7.620   2.066 -0.7776  0.4865  0.8134
  459MOL0     C61832   9.397   7.739   2.041 -1.2216  0.3557  1.0272
  459MOL0     O61833   9.437   7.800   1.923 -0.5385 -0.8767  0.6201
  459MOL0     C61834   9.516   7.747   1.823  0.7795 -0.7271 -0.3708
  459MOL0     C61835   9.632   7.675   1.861 -0.7956  0.1861 -0.0636
  459MOL0     C61836   9.692   7.582   1.770  0.0671 -0.2567  0.1088
  459MOL0     C61837   9.649   7.574   1.640  0.1339 -0.5412  1.2982
  459MOL0     O61838   9.706   7.481   1.558 -0.2194  0.3064 -0.4379
  459MOL0     C61839   9.665   7.470   1.416  0.0314  0.0696 -0.7581
  459MOL0     C61840   9.742   7.369   1.339  1.6201 -0.4482  0.1008
  459MOL0     C61841   9.719   7.374   1.187 -0.1955 -0.6395 -0.4341
  459MOL0     C61842   9.589   7.282   1.163 -0.3404  0.3499 -2.2228
  459MOL0     C61843   9.571   7.244   1.015 -0.1346 -0.2146  0.5792
  459MOL0     C61844   9.541   7.369   0.940  1.0568 -0.9316  0.8035
  459MOL0     C61845   9.491   7.337   0.793  0.0698  0.4109 -0.5468
  459MOL0     C61846   9.393   7.444   0.735 -0.0912  0.0635  0.8576
  459MOL0     N61847   9.461   7.578   0.729  0.2751 -0.0218  0.2835
  459MOL0     C61848   9.399   7.696   0.746  0.0266  0.3929  0.5959
  459MOL0     C61849   9.496   7.791   0.723 -0.5007  0.2401  0.6629
  459MOL0     C61850   9.480   7.944   0.725 -0.8067  0.2040  0.6553
  459MOL0     C61851   9.460   8.021   0.596 -0.1313 -0.3843 -0.2524
  459MOL0     C61852   9.559   8.138   0.579 -0.7815  0.1676 -0.1871
  459MOL0     C61853   9.690   8.096   0.513  0.4813  0.7120 -0.1471
  459MOL0     O61854   9.755   7.991   0.582  0.2526  0.1935 -0.3513
  459MOL0     C61855   9.878   7.951   0.535 -0.4115  0.8150  0.3863
  459MOL0     C61856   9.922   7.826   0.563 -0.6153  0.6063 -0.3107
  459MOL0     C61857  10.047   7.766   0.518  0.5680  0.1475 -0.2433
  459MOL0     C61858  10.128   7.839   0.431  1.1228 -1.2090  0.5775
  459MOL0     C61859  10.245   7.785   0.375 -0.2131 -0.2182  0.3016
  459MOL0     O61860  10.315   7.877   0.307  0.3562 -0.3835  0.3648
  459MOL0     C61861  10.400   7.829   0.210  0.4649 -0.2347  0.9145
  459MOL0     C61862  10.365   7.804   0.074 -0.9584  0.3785 -0.2293
  459MOL0     C61863  10.459   7.758  -0.022  0.2828  0.4646  0.5623
  459MOL0     C61864  10.594   7.748   0.013  0.4969  0.0065 -0.5744
  459MOL0     O61865  10.679   7.714  -0.092  0.4593 -0.1494  0.5846
  459MOL0     C61866  10.821   7.751  -0.097  0.3141  1.1335  0.5759
  459MOL0     C61867  10.867   7.762  -0.245 -0.0159 -0.5148  0.9998
  459MOL0     C61868  11.019   7.760  -0.267 -0.6282 -0.5484  0.3224
  459MOL0     C61869  11.056   7.735  -0.418  0.4899 -0.5847 -0.3699
  459MOL0     C61870  11.200   7.766  -0.434  0.7050 -0.5322  0.1169
  459MOL0     C61871  11.233   7.761  -0.583  0.3453  0.4822 -0.3791
  459MOL0     C61872  11.376   7.806  -0.600 -0.8772 -0.1399  0.5148
  459MOL0     C61873  11.434   7.795  -0.739  1.1975  0.2623  0.5506
  459MOL0    Cl61874  11.572   7.894  -0.778  0.2325 -0.2027  0.1461
  459MOL0     C61875  10.636   7.790   0.140  1.0066 -0.0640 -0.3155
  459MOL0     C61876  10.539   7.824   0.237  0.1256 -0.5836 -0.4637
  459MOL0     O61877  10.269   7.666   0.376  0.4919  0.2218 -0.2940
  459MOL0     C61878  10.080   7.965   0.399 -0.7679 -0.6003 -0.8586
  459MOL0     C61879   9.956   8.015   0.439 -0.1624  0.1732  0.6926
  459MOL0     N61880   9.613   7.717   0.703 -0.2309  0.2085 -0.0150
  459MOL0     N61881   9.589   7.592   0.711 -1.0931  0.2230 -0.4627
  459MOL0     C61882   9.553   7.658   1.600  0.3229  0.0440  0.2996
  459MOL0     C61883   9.481   7.743   1.685  0.8688  0.0782 -0.4227
  459MOL0     C61884   9.308   7.809   2.132  0.6595 -0.2920 -0.0683
  459MOL0     C61885   9.313   7.772   2.266  0.4456 -0.0726 -0.3736
  459MOL0     C61886   9.220   7.830   2.368  0.4606 -0.5669  0.2785
  459MOL0     C61887   9.139   7.934   2.327 -0.0956  0.5383  0.4570
  459MOL0     O61888   9.068   7.997   2.431  0.3082 -0.0450 -0.3759
  459MOL0     C61889   8.960   8.086   2.388 -0.1743 -0.2239 -0.0924
  459MOL0     C61890   8.839   8.004   2.330  0.1366  0.5597  0.1245
  459MOL0     C61891   8.714   8.098   2.328 -0.6039  0.0217  0.1123
  459MOL0     C61892   8.600   8.023   2.255 -0.3359 -0.2191 -0.5177
  459MOL0     C61893   8.483   8.121   2.249 -0.6300 -0.5504  0.0593
  459MOL0     C61894   8.394   8.199   2.264 -0.8857 -0.5413  0.3600
  459MOL0     C61895   9.143   7.966   2.192 -0.3317 -0.4137  1.1273
  459MOL0     C61896   9.222   7.914   2.096  0.3921 -0.2088  0.4226
  459MOL0     C61897   9.213   7.985   1.960  1.1528  1.2340 -0.3879
  459MOL0     H61898   9.667   7.671   1.963 -1.5594  1.6051  0.2832
  459MOL0     H61899   9.764   7.508   1.802  0.6743  0.9780  1.7672
  459MOL0     H61900   9.560   7.445   1.404  0.0107 -0.1394 -0.2155
  459MOL0     H61901   9.682   7.564   1.364 -1.7949  1.0960  0.4134
  459MOL0     H61902   9.708   7.272   1.377 -2.0747  0.1047 -1.3859
  459MOL0     H61903   9.848   7.372   1.364  1.2808 -1.2332  1.7590
  459MOL0     H61904   9.808   7.336   1.136  0.7382 -0.3740  0.9310
  459MOL0     H61905   9.713   7.481   1.164  1.4429 -0.4557 -0.1746
  459MOL0     H61906   9.585   7.189   1.221 -2.0212  0.0715 -2.7430
  459MOL0     H61907   9.502   7.329   1.209  0.2557 -1.4731  1.1582
  459MOL0     H61908   9.658   7.199   0.967 -1.0552 -1.6572  0.1846
  459MOL0     H61909   9.485   7.177   1.013  0.2041 -0.6441 -0.2254
  459MOL0     H61910   9.463   7.424   0.993  1.1023 -0.2464  0.1714
  459MOL0     H61911   9.633   7.425   0.927 -1.4152  3.1798 -1.1437
  459MOL0     H61912   9.447   7.237   0.789  0.1985  0.2146  1.6575
  459MOL0     H61913   9.577   7.331   0.725  0.8370  1.1541  0.3128
  459MOL0     H61914   9.372   7.417   0.631 -2.2623 -1.8357  1.7110
  459MOL0     H61915   9.293   7.454   0.777 -0.8510 -0.0695 -0.8223
  459MOL0     H61916   9.295   7.715   0.772  0.7863  1.8974  2.8020
  459MOL0     H61917   9.394   7.971   0.785  0.2022  0.0051  2.2455
  459MOL0     H61918   9.568   7.985   0.776 -0.5764  0.9775 -0.3220
  459MOL0     H61919   9.471   7.951   0.512  1.4641 -1.6561  0.9387
  459MOL0     H61920   9.357   8.055   0.593  0.0350  0.0715 -1.0057
  459MOL0     H61921   9.591   8.184   0.673 -0.4843 -0.4381  0.0117
  459MOL0     H61922   9.520   8.222   0.521 -0.1850  1.7116  1.5281
  459MOL0     H61923   9.758   8.182   0.512  1.8217 -0.2954  0.9242
  459MOL0     H61924   9.680   8.051   0.414  0.9455 -0.8993  0.5060
  459MOL0     H61925   9.873   7.775   0.646  2.8772  0.2081  1.7329
  459MOL0     H61926  10.081   7.669   0.552 -1.0984 -1.2782 -2.3648
  459MOL0     H61927  10.260   7.808   0.046 -0.7360 -0.2651 -1.2290
  459MOL0     H61928  10.435   7.749  -0.128 -1.6069 -0.0708  1.0017
  459MOL0     H61929  10.850   7.839  -0.039 -0.5314  1.5111  0.4312
  459MOL0     H61930  10.885   7.676  -0.048  3.5507  0.4441 -4.0483
  459MOL0     H61931  10.831   7.677  -0.303 -0.6875  0.8178 -0.6357
  459MOL0     H61932  10.825   7.851  -0.292  0.0410 -1.5283 -1.1030
  459MOL0     H61933  11.044   7.861  -0.234 -1.0985 -0.7900  1.4741
  459MOL0     H61934  11.075   7.690  -0.205  1.2026 -1.2703 -2.0096
  459MOL0     H61935  10.997   7.786  -0.495 -0.3134 -0.0449  0.5994
  459MOL0     H61936  11.034   7.630  -0.439 -2.8855 -0.2112  0.7489
  459MOL0     H61937  11.263   7.694  -0.380  0.2997 -2.4897 -1.8946
  459MOL0     H61938  11.222   7.869  -0.403 -0.7273 -0.1030 -0.2429
  459MOL0     H61939  11.233   7.657  -0.618  2.4912 -0.1427  1.2454
  459MOL0     H61940  11.163   7.829  -0.633 -1.6250 -0.4994  0.8872
  459MOL0     H61941  11.438   7.742  -0.537 -2.9490 -0.5034  2.2868
  459MOL0     H61942  11.368   7.911  -0.569  0.4176  0.3810 -0.7788
  459MOL0     H61943  11.454   7.688  -0.753 -1.5704 -0.1572 -0.9100
  459MOL0     H61944  11.358   7.808  -0.816  1.3490 -1.7437  0.0020
  459MOL0     H61945  10.742   7.799   0.160  1.7825  1.0608 -4.2051
  459MOL0     H61946  10.577   7.859   0.332 -0.3710  1.8347 -1.0845
  459MOL0     H61947  10.141   8.028   0.334  1.6308 -2.1201 -0.2026
  459MOL0     H61948   9.918   8.100   0.384  0.3220 -0.8055 -1.2434
  459MOL0     H61949   9.507   7.643   1.502 -1.2384  2.1120  0.6335
  459MOL0     H61950   9.393   7.791   1.641  0.7888 -1.1487 -1.6588
  459MOL0     H61951   9.381   7.696   2.302 -0.6870 -0.4186  1.1229
  459MOL0     H61952   9.216   7.801   2.472  1.6471 -1.5294  0.0764
  459MOL0     H61953   8.996   8.163   2.319  1.0570 -0.1086  0.6635
  459MOL0     H61954   8.922   8.139   2.476 -1.5686 -3.9659  1.8086
  459MOL0     H61955   8.820   7.912   2.385  1.6596  0.3144  0.2975
  459MOL0     H61956   8.869   7.963   2.233  1.0690 -0.1798  0.7126
  459MOL0     H61957   8.749   8.194   2.288  4.4381 -0.1722  3.2050
  459MOL0     H61958   8.684   8.125   2.430  2.5090  1.7021  0.7177
  459MOL0     H61959   8.646   8.001   2.158  0.5969  1.3033 -0.4632
  459MOL0     H61960   8.579   7.933   2.313  1.6910  1.0839  2.5006
  459MOL0     H61961   8.321   8.275   2.282 -0.5760 -0.2866  0.5408
  459MOL0     H61962   9.082   8.048   2.157 -0.2193 -0.9275 -0.3350
  459MOL0     H61963   9.307   8.041   1.950  1.1559  1.9538  2.6128
  459MOL0     H61964   9.218   7.910   1.881 -0.4709  0.5225  0.1524
  459MOL0     H61965   9.129   8.053   1.943 -0.1812 -0.1821  0.4119
  460MOL0     O61966   5.481   3.623   7.005 -0.0938 -0.6260  0.2322
  460MOL0     C61967   5.403   3.658   7.088 -0.2020  0.3975 -0.3906
  460MOL0     O61968   5.436   3.697   7.215 -0.1286  0.8402 -0.4496
  460MOL0     C61969   5.566   3.729   7.233 -0.9662  0.0809  0.7389
  460MOL0     C61970   5.645   3.810   7.149 -0.3156 -0.3879 -0.0724
  460MOL0     C61971   5.779   3.828   7.170  0.3039 -1.4839 -0.7534
  460MOL0     C61972   5.835   3.785   7.297  0.2967 -0.3064  0.4017
  460MOL0     O61973   5.968   3.797   7.306 -0.1889 -0.1140 -0.7141
  460MOL0     C61974   6.026   3.769   7.431  0.4098 -0.1545 -0.9155
  460MOL0     C61975   6.178   3.768   7.420  0.5400 -0.0022 -0.1098
  460MOL0     C61976   6.237   3.754   7.559  0.1504 -0.7869 -0.1367
  460MOL0     C61977   6.223   3.885   7.639 -0.1484  0.1105  0.3150
  460MOL0     C61978   6.271   4.015   7.580 -0.6135 -0.5464  0.5187
  460MOL0     C61979   6.423   4.018   7.555  0.5546  0.2532  0.3113
  460MOL0     C61980   6.470   4.150   7.492  0.1930  0.6943 -1.1473
  460MOL0     C61981   6.468   4.152   7.347 -0.0389 -0.4405  1.0615
  460MOL0     N61982   6.468   4.293   7.298 -0.4902  1.2148 -0.0444
  460MOL0     C61983   6.383   4.370   7.236 -0.6293 -0.0724 -1.0357
  460MOL0     C61984   6.453   4.483   7.215  0.8403 -0.2678  0.3263
  460MOL0     C61985   6.393   4.594   7.143 -1.2500  0.2381  0.8809
  460MOL0     C61986   6.281   4.676   7.217 -0.1520 -0.0510  0.1447
  460MOL0     C61987   6.194   4.757   7.126 -0.2599 -1.1066  1.0835
  460MOL0     C61988   6.094   4.671   7.049  0.5954 -0.4154  0.3930
  460MOL0     O61989   5.985   4.754   7.025 -0.0704  0.2173 -0.1018
  460MOL0     C61990   5.880   4.706   6.939 -0.0391  0.4495  0.3858
  460MOL0     C61991   5.873   4.572   6.881  0.3844 -0.7982 -0.3878
  460MOL0     C61992   5.752   4.533   6.813  0.1371  0.6109  0.4706
  460MOL0     C61993   5.646   4.622   6.798  1.2234  0.5158  0.4173
  460MOL0     C61994   5.525   4.574   6.725  0.2369 -0.0831 -0.7334
  460MOL0     O61995   5.538   4.461   6.649 -0.7367 -0.6886 -0.0114
  460MOL0     C61996   5.436   4.425   6.567  0.0912  0.0748 -0.4765
  460MOL0     C61997   5.372   4.304   6.604 -0.4836  0.1639 -0.4983
  460MOL0     C61998   5.253   4.264   6.530  0.3033  0.3985 -0.0326
  460MOL0     C61999   5.214   4.328   6.408  0.1679  0.3546 -0.6019
  460MOL0     O62000   5.108   4.298   6.320  1.2576 -0.2989  0.3460
  460MOL0     C62001   5.012   4.207   6.375 -0.3738 -0.1729 -0.0474
  460MOL0     C62002   4.907   4.179   6.272 -0.0439 -0.5690  0.5619
  460MOL0     C62003   4.802   4.296   6.263 -0.2272  0.5433 -0.4046
  460MOL0     C62004   4.712   4.284   6.384  0.3771  0.9383 -0.0366
  460MOL0     C62005   4.624   4.416   6.406 -0.0711  0.1381 -0.1570
  460MOL0     C62006   4.691   4.496   6.516 -0.5593 -0.1236  0.1329
  460MOL0     C62007   4.824   4.561   6.478  0.1510  0.1365  0.2945
  460MOL0     C62008   4.831   4.654   6.355 -0.1284  0.1690  0.3481
  460MOL0    Cl62009   4.987   4.734   6.349 -0.0764 -0.1200 -0.1344
  460MOL0     C62010   5.295   4.442   6.379  0.5234  0.5517  0.2735
  460MOL0     C62011   5.392   4.493   6.459  0.0771 -0.0377  0.3756
  460MOL0     O62012   5.422   4.639   6.740 -1.1516  0.3923  0.3458
  460MOL0     C62013   5.655   4.743   6.860  0.0283 -0.1727 -0.2402
  460MOL0     C62014   5.772   4.790   6.921 -0.7929  0.8844  0.1846
  460MOL0     N62015   6.580   4.473   7.253 -0.0876  0.2278 -0.3221
  460MOL0     N62016   6.590   4.356   7.296  0.3277  0.3104  0.0309
  460MOL0     C62017   5.751   3.721   7.386 -0.0984  0.7587  0.1651
  460MOL0     C62018   5.620   3.686   7.354 -0.2993  0.4104  0.4903
  460MOL0     C62019   5.263   3.681   7.046 -0.6161 -0.0322  0.6161
  460MOL0     C62020   5.185   3.775   7.111 -0.2182 -0.7390  0.0504
  460MOL0     C62021   5.058   3.810   7.058 -1.0154 -0.1097  0.6252
  460MOL0     C62022   5.003   3.741   6.942 -0.3478  0.0657  1.0189
  460MOL0     O62023   4.883   3.774   6.877 -0.3937  0.0528  0.6028
  460MOL0     C62024   4.792   3.865   6.938  0.0053 -0.2710 -0.2824
  460MOL0     C62025   4.694   3.916   6.832 -0.2621  0.4254  0.3572
  460MOL0     C62026   4.762   3.977   6.710 -0.5937  0.3417  0.8423
  460MOL0     C62027   4.812   4.112   6.754 -0.4878  0.7287 -0.9792
  460MOL0     C62028   4.955   4.105   6.774  0.0772 -0.0755 -0.5240
  460MOL0     C62029   5.071   4.105   6.799 -0.1586  0.2944 -0.7267
  460MOL0     C62030   5.071   3.624   6.890  0.4605 -0.6945 -0.8588
  460MOL0     C62031   5.198   3.597   6.943 -0.5315 -0.1292 -0.0336
  460MOL0     C62032   5.274   3.481   6.900  0.4536  0.6158 -0.1747
  460MOL0     H62033   5.602   3.853   7.059 -3.3681 -2.0549  0.4634
  460MOL0     H62034   5.840   3.875   7.093 -0.2278 -0.7117 -0.7067
  460MOL0     H62035   5.993   3.845   7.503  0.5768  3.3411 -4.2284
  460MOL0     H62036   6.000   3.668   7.464 -0.1983 -0.7461 -3.0766
  460MOL0     H62037   6.206   3.856   7.361  2.6484  0.1214  0.9899
  460MOL0     H62038   6.207   3.686   7.354  0.2320 -0.3183  0.1389
  460MOL0     H62039   6.342   3.721   7.561  1.3859  2.6407 -1.4091
  460MOL0     H62040   6.183   3.678   7.616 -2.7954 -0.6502 -2.5325
  460MOL0     H62041   6.118   3.903   7.661  0.0200  2.2476 -0.3610
  460MOL0     H62042   6.264   3.865   7.739  2.2595  1.4994 -0.3073
  460MOL0     H62043   6.225   4.037   7.483  2.0083 -1.0238 -0.9466
  460MOL0     H62044   6.244   4.091   7.653 -0.7809 -1.2174  1.1600
  460MOL0     H62045   6.470   3.996   7.652 -1.9746 -2.6818  1.0030
  460MOL0     H62046   6.449   3.939   7.485 -1.6388  1.9192 -2.6075
  460MOL0     H62047   6.569   4.174   7.531 -0.7210 -0.1216  1.9369
  460MOL0     H62048   6.405   4.232   7.525 -0.1899 -0.9338  2.6374
  460MOL0     H62049   6.547   4.091   7.304 -0.0943  0.0630  0.2244
  460MOL0     H62050   6.370   4.119   7.311  0.0734  1.2356 -1.0370
  460MOL0     H62051   6.282   4.341   7.211 -0.9872  0.2771 -0.0212
  460MOL0     H62052   6.478   4.658   7.121  0.1963 -2.1702 -1.1274
  460MOL0     H62053   6.356   4.561   7.046 -1.0897  3.0678 -0.2119
  460MOL0     H62054   6.229   4.622   7.296 -0.5867  0.0920 -0.0388
  460MOL0     H62055   6.336   4.752   7.273  0.5315  0.5843 -1.3191
  460MOL0     H62056   6.256   4.807   7.051 -0.4617 -3.6318 -0.8779
  460MOL0     H62057   6.142   4.839   7.177  0.6478  0.5410 -0.5128
  460MOL0     H62058   6.051   4.589   7.108  3.0512 -1.2264  1.1503
  460MOL0     H62059   6.139   4.629   6.959 -2.7546 -0.3344 -1.4943
  460MOL0     H62060   5.962   4.510   6.885  1.6744  0.8680 -1.7680
  460MOL0     H62061   5.756   4.441   6.757 -1.9615 -0.0497  1.3252
  460MOL0     H62062   5.401   4.255   6.696  0.8417  0.6452 -0.6379
  460MOL0     H62063   5.198   4.177   6.566  0.0989  1.1797  1.6519
  460MOL0     H62064   5.058   4.110   6.393  3.1089  1.7155  2.2548
  460MOL0     H62065   4.964   4.245   6.466 -0.6105  0.5974 -0.4802
  460MOL0     H62066   4.956   4.174   6.174  0.5246  1.1756  0.7243
  460MOL0     H62067   4.852   4.085   6.278 -2.8473  0.9664  0.4639
  460MOL0     H62068   4.852   4.393   6.265  2.0421 -0.5470 -0.7928
  460MOL0     H62069   4.743   4.293   6.171  1.0938 -2.4671 -1.2813
  460MOL0     H62070   4.764   4.253   6.475  1.1906  2.3982  0.0325
  460MOL0     H62071   4.634   4.219   6.344  0.8319  2.3413 -3.5506
  460MOL0     H62072   4.521   4.391   6.432 -0.3296  1.9868  0.7610
  460MOL0     H62073   4.617   4.474   6.313 -0.6296  0.5942  0.1644
  460MOL0     H62074   4.613   4.570   6.538 -2.5186 -2.3296  1.0204
  460MOL0     H62075   4.709   4.438   6.607  0.4681  0.1539  0.1148
  460MOL0     H62076   4.903   4.485   6.479 -0.0703 -0.1218  1.9773
  460MOL0     H62077   4.860   4.620   6.563  1.3998 -2.0815  1.4239
  460MOL0     H62078   4.815   4.601   6.261  0.1125  1.2144 -0.2877
  460MOL0     H62079   4.743   4.719   6.365 -0.7379 -0.2056 -1.9530
  460MOL0     H62080   5.269   4.494   6.287  0.8234  2.4004  1.1902
  460MOL0     H62081   5.451   4.582   6.437 -0.2563 -0.0213 -0.4469
  460MOL0     H62082   5.577   4.818   6.861  0.3525  0.1636  0.2499
  460MOL0     H62083   5.772   4.894   6.953  0.4202  0.7307  0.7430
  460MOL0     H62084   5.779   3.701   7.489 -0.8492  0.8647  0.4001
  460MOL0     H62085   5.575   3.622   7.430  1.5282 -0.5460  0.8196
  460MOL0     H62086   5.233   3.821   7.196  0.8154 -1.0564 -0.3296
  460MOL0     H62087   5.016   3.892   7.115 -1.0504  1.2030 -1.2119
  460MOL0     H62088   4.844   3.940   6.998 -2.1746  1.6161 -0.5945
  460MOL0     H62089   4.737   3.821   7.022 -1.1602  0.4766 -0.6347
  460MOL0     H62090   4.626   3.991   6.873 -1.4161  0.2688 -1.1980
  460MOL0     H62091   4.647   3.826   6.792 -1.3036  0.1466  2.1087
  460MOL0     H62092   4.683   3.997   6.638 -0.1749 -1.5522 -0.2036
  460MOL0     H62093   4.849   3.917   6.681  1.6916  3.8344 -0.1283
  460MOL0     H62094   4.797   4.191   6.679 -0.4682  0.4857 -1.2387
  460MOL0     H62095   4.760   4.134   6.848  0.1311 -2.0699  0.1141
  460MOL0     H62096   5.177   4.122   6.811  0.1739 -1.0043 -1.5626
  460MOL0     H62097   5.039   3.559   6.809 -0.2279 -2.0508  0.4650
  460MOL0     H62098   5.206   3.414   6.846  0.5089  0.8642 -0.5605
  460MOL0     H62099   5.349   3.509   6.825 -1.3301 -0.7286 -2.6233
  460MOL0     H62100   5.311   3.422   6.984 -3.4984 -0.1502  1.2394
  461MOL0     O62101   0.344   9.501   9.363  0.9160  0.6428 -0.5195
  461MOL0     C62102   0.355   9.414   9.271  0.0257 -0.4876  0.0256
  461MOL0     O62103   0.294   9.291   9.262  0.7154  0.2193  0.4264
  461MOL0     C62104   0.207   9.248   9.362 -1.1157  0.1933 -0.8031
  461MOL0     C62105   0.089   9.191   9.330  0.2322  0.0866  0.5618
  461MOL0     C62106   0.012   9.129   9.428  0.0101  0.4252  0.0824
  461MOL0     C62107   0.035   9.155   9.560  0.4769 -0.4302  0.7859
  461MOL0     O62108  -0.051   9.105   9.655  0.5822  0.2139  0.3711
  461MOL0     C62109   0.002   9.033   9.767 -0.2804  0.8165 -0.5219
  461MOL0     C62110  -0.071   9.069   9.886 -0.2701 -0.5358  0.2812
  461MOL0     C62111  -0.033   8.988  10.005 -0.5141 -0.0403  0.5844
  461MOL0     C62112  -0.073   9.050  10.139  0.4645  0.3117 -1.1332
  461MOL0     C62113   0.003   8.999  10.261 -0.6254 -0.0027  0.0760
  461MOL0     C62114   0.148   9.044  10.256  0.3053 -0.6467  1.0732
  461MOL0     C62115   0.159   9.188  10.257  0.2190 -0.1858  0.1887
  461MOL0     C62116   0.294   9.220  10.292 -1.5325 -0.2438  0.2294
  461MOL0     N62117   0.399   9.166  10.201 -0.3947 -0.6533  0.0621
  461MOL0     C62118   0.434   9.206  10.066 -0.1099 -0.3521  0.7742
  461MOL0     C62119   0.514   9.118  10.017 -0.3664  0.0603  0.4852
  461MOL0     C62120   0.588   9.121   9.888  0.6484  0.0475  0.0139
  461MOL0     C62121   0.498   9.100   9.767  0.6888 -0.3028  0.0573
  461MOL0     C62122   0.582   9.066   9.653 -0.6894  0.2240 -0.0265
  461MOL0     C62123   0.505   9.061   9.528 -0.6284 -0.7031  1.0787
  461MOL0     O62124   0.562   8.988   9.420  0.4501  0.4445  0.1089
  461MOL0     C62125   0.666   9.057   9.360 -0.3046 -0.5283 -0.6135
  461MOL0     C62126   0.794   9.013   9.381 -0.5206 -0.8584 -0.6200
  461MOL0     C62127   0.905   9.070   9.317 -0.1317 -0.1272 -0.7103
  461MOL0     C62128   0.891   9.191   9.246  0.1210  0.1643 -0.9160
  461MOL0     C62129   1.010   9.256   9.183  0.7636 -0.1023 -0.5941
  461MOL0     O62130   1.112   9.169   9.162 -0.1520 -0.5735  0.3525
  461MOL0     C62131   1.231   9.206   9.095  0.3080  0.1612 -1.5275
  461MOL0     C62132   1.248   9.317   9.016  0.6416  0.3018  0.8010
  461MOL0     C62133   1.369   9.329   8.931  0.0695 -0.2154 -0.4010
  461MOL0     C62134   1.477   9.237   8.948  0.4455 -0.3630 -0.0392
  461MOL0     O62135   1.599   9.248   8.887 -0.7787 -0.2718  0.0977
  461MOL0     C62136   1.652   9.375   8.844 -0.2220  0.4031 -0.2437
  461MOL0     C62137   1.628   9.419   8.706 -0.2867  0.7295  0.5854
  461MOL0     C62138   1.671   9.320   8.592  0.3460 -1.2456  0.3836
  461MOL0     C62139   1.677   9.383   8.450 -1.1090  0.1803 -0.3011
  461MOL0     C62140   1.749   9.290   8.348 -0.1458 -0.3458  0.3166
  461MOL0     C62141   1.716   9.146   8.354  0.2731 -0.0431 -0.5682
  461MOL0     C62142   1.709   9.064   8.218 -0.7200  0.7416  0.0936
  461MOL0     C62143   1.845   9.042   8.152  1.6017 -0.1543 -0.1746
  461MOL0    Cl62144   1.978   9.006   8.251 -0.4825  0.4033 -0.3782
  461MOL0     C62145   1.446   9.132   9.035 -0.7109  0.2331 -0.1366
  461MOL0     C62146   1.328   9.114   9.105  0.8858  0.6818  0.4093
  461MOL0     O62147   1.001   9.364   9.143  0.0152  0.2517  0.5718
  461MOL0     C62148   0.760   9.228   9.220  0.4591 -0.1283  0.9462
  461MOL0     C62149   0.650   9.167   9.280 -1.3318  0.9487 -0.1021
  461MOL0     N62150   0.539   9.024  10.120  0.3260 -0.0446  0.2449
  461MOL0     N62151   0.466   9.054  10.224  0.0925 -1.0990  0.4339
  461MOL0     C62152   0.147   9.230   9.588 -0.8652 -0.5989 -0.5949
  461MOL0     C62153   0.231   9.272   9.493 -0.3802 -1.1548 -0.0694
  461MOL0     C62154   0.453   9.455   9.157 -0.0672 -0.4814  0.4675
  461MOL0     C62155   0.418   9.424   9.022 -0.0679 -0.3998  0.9917
  461MOL0     C62156   0.508   9.449   8.914  0.0061  0.5440  0.1652
  461MOL0     C62157   0.641   9.489   8.934 -0.2075  0.6316  0.4112
  461MOL0     O62158   0.720   9.508   8.818  0.0680 -0.7272 -0.3000
  461MOL0     C62159   0.868   9.497   8.841 -0.3266  0.2616 -0.3452
  461MOL0     C62160   0.954   9.481   8.724 -0.6663 -0.3552  0.1845
  461MOL0     C62161   0.979   9.610   8.656  0.7318 -0.2408  0.6289
  461MOL0     C62162   0.994   9.605   8.502 -0.6037  0.8919 -0.0073
  461MOL0     C62163   1.126   9.532   8.460  0.0978  0.2511 -0.3180
  461MOL0     C62164   1.236   9.485   8.438  0.0016  1.0174  0.0835
  461MOL0     C62165   0.675   9.518   9.071 -0.0670  0.5910  0.0018
  461MOL0     C62166   0.587   9.510   9.172  0.4063 -0.0149 -1.2933
  461MOL0     C62167   0.639   9.538   9.316  0.5459 -0.2189  0.4357
  461MOL0     H62168   0.046   9.178   9.232  2.0540  1.2811 -0.4593
  461MOL0     H62169  -0.067   9.059   9.403 -0.5886  1.8303 -2.2260
  461MOL0     H62170  -0.003   8.928   9.737 -0.0010  1.2696 -2.2775
  461MOL0     H62171   0.106   9.065   9.774 -0.6591  2.4340 -1.7010
  461MOL0     H62172  -0.178   9.053   9.873 -1.0963  2.4934  2.3787
  461MOL0     H62173  -0.068   9.178   9.899 -0.5930 -0.2335 -1.7911
  461MOL0     H62174   0.076   8.976  10.010 -0.5123  0.2120  1.4433
  461MOL0     H62175  -0.071   8.886   9.994  0.5853 -0.2576 -1.5331
  461MOL0     H62176  -0.070   9.159  10.135  0.6603  0.4661  1.5348
  461MOL0     H62177  -0.175   9.015  10.161  0.5408  1.2434  0.9616
  461MOL0     H62178  -0.044   9.049  10.347 -1.5660 -0.8127  0.0483
  461MOL0     H62179  -0.001   8.892  10.284  1.6439  0.1440  1.4749
  461MOL0     H62180   0.175   9.003  10.354  0.4253  0.8352  1.6851
  461MOL0     H62181   0.209   8.996  10.179 -0.4820 -0.7156  0.4808
  461MOL0     H62182   0.091   9.238  10.326  0.6568  0.9097 -0.1464
  461MOL0     H62183   0.127   9.237  10.165 -1.7753 -2.8309 -0.6470
  461MOL0     H62184   0.305   9.327  10.309 -3.4757  0.1369 -0.6824
  461MOL0     H62185   0.313   9.170  10.388 -0.2980 -0.0967  0.0777
  461MOL0     H62186   0.411   9.305  10.026 -4.7845 -0.2484  3.0312
  461MOL0     H62187   0.641   9.217   9.887  2.6339 -0.9349 -3.1045
  461MOL0     H62188   0.666   9.046   9.881 -1.0563 -1.7252 -1.1148
  461MOL0     H62189   0.426   9.019   9.783 -0.9587  1.1938  0.6500
  461MOL0     H62190   0.437   9.186   9.736  0.9996  0.3135  1.1032
  461MOL0     H62191   0.624   8.968   9.675 -1.2199 -0.5279 -2.1223
  461MOL0     H62192   0.670   9.130   9.650  0.6571 -1.4335  1.8199
  461MOL0     H62193   0.484   9.164   9.498 -2.9101 -1.3949  0.0406
  461MOL0     H62194   0.401   9.029   9.539 -1.5411  0.5204 -2.5931
  461MOL0     H62195   0.822   8.943   9.459  1.5252  2.0524  1.4924
  461MOL0     H62196   1.001   9.032   9.352 -1.6279 -1.6386  2.1394
  461MOL0     H62197   1.175   9.397   9.007 -1.0473 -1.1896  0.5221
  461MOL0     H62198   1.399   9.412   8.868  0.6899  0.6121  0.9680
  461MOL0     H62199   1.615   9.455   8.909  0.1709 -0.2310  0.7796
  461MOL0     H62200   1.759   9.354   8.855 -0.3916 -1.4371 -1.6475
  461MOL0     H62201   1.528   9.457   8.683 -0.2350 -0.6157 -2.2754
  461MOL0     H62202   1.680   9.515   8.698 -4.9828  3.7899  2.3714
  461MOL0     H62203   1.771   9.279   8.612  2.8423  3.6496 -0.4955
  461MOL0     H62204   1.599   9.238   8.600 -1.0899 -0.1624 -0.8277
  461MOL0     H62205   1.731   9.477   8.463 -2.6820  1.0543  0.1715
  461MOL0     H62206   1.584   9.414   8.401 -0.3697 -0.6530 -2.3613
  461MOL0     H62207   1.856   9.303   8.367  0.1651 -1.2321 -0.7183
  461MOL0     H62208   1.726   9.320   8.245 -0.1475 -0.0832  0.3935
  461MOL0     H62209   1.790   9.099   8.419  3.9161 -0.0512 -4.3156
  461MOL0     H62210   1.615   9.139   8.395  0.9523 -1.5838  0.9722
  461MOL0     H62211   1.633   9.106   8.152 -3.6361 -1.1698  2.0338
  461MOL0     H62212   1.682   8.960   8.238  2.9449 -0.3111  0.3856
  461MOL0     H62213   1.836   8.976   8.065  0.2027  1.2463 -1.1520
  461MOL0     H62214   1.872   9.139   8.109 -0.1359 -0.5658 -2.4005
  461MOL0     H62215   1.520   9.057   9.059 -0.4142  1.3871  2.9168
  461MOL0     H62216   1.309   9.020   9.156 -1.9222  1.9227  1.8445
  461MOL0     H62217   0.759   9.301   9.140  1.2356 -1.5583 -0.4365
  461MOL0     H62218   0.552   9.207   9.256 -1.0050  0.0946 -3.3182
  461MOL0     H62219   0.178   9.249   9.690  2.3533 -2.6820 -1.0236
  461MOL0     H62220   0.325   9.319   9.521 -0.7728 -1.3341  1.7077
  461MOL0     H62221   0.319   9.403   8.983  0.8393 -0.5998 -1.4178
  461MOL0     H62222   0.472   9.416   8.817 -1.0016  0.2524  0.6317
  461MOL0     H62223   0.879   9.413   8.910 -2.2720 -0.8805 -1.3494
  461MOL0     H62224   0.906   9.584   8.896  2.0510  1.5589 -3.7105
  461MOL0     H62225   0.913   9.413   8.649  1.3406 -0.5969 -0.7737
  461MOL0     H62226   1.042   9.435   8.770  0.3891  1.5569  0.2209
  461MOL0     H62227   1.069   9.664   8.687  0.4997  0.1522  0.6250
  461MOL0     H62228   0.900   9.683   8.675  1.8755  1.3448 -0.4107
  461MOL0     H62229   0.911   9.552   8.454 -0.0282  1.3483 -1.5637
  461MOL0     H62230   0.985   9.704   8.456 -1.4084 -0.0516 -2.0064
  461MOL0     H62231   1.323   9.440   8.395  0.1470  0.1426  1.2626
  461MOL0     H62232   0.773   9.563   9.087 -0.3158  0.4904  2.0537
  461MOL0     H62233   0.665   9.444   9.366  3.0068  0.6007  0.8723
  461MOL0     H62234   0.729   9.599   9.304  0.2376 -0.3310 -3.6867
  461MOL0     H62235   0.566   9.594   9.375  0.6383  2.0153 -1.4442
  462MOL0     O62236   0.158   0.734  10.559 -0.2669  0.4295 -0.8988
  462MOL0     C62237   0.106   0.635  10.599  0.2539  0.2187  0.7729
  462MOL0     O62238   0.166   0.513  10.629  0.7670 -0.2236  0.4075
  462MOL0     C62239   0.299   0.504  10.603 -1.4650 -0.5657 -0.2566
  462MOL0     C62240   0.393   0.583  10.680  0.7607 -0.3402  0.5911
  462MOL0     C62241   0.527   0.578  10.642  0.0149  0.7218 -0.3842
  462MOL0     C62242   0.575   0.484  10.539  0.1948 -0.2622 -0.1851
  462MOL0     O62243   0.706   0.487  10.480 -0.2900 -0.0032 -0.0865
  462MOL0     C62244   0.823   0.554  10.529  0.0147 -0.3124 -0.4759
  462MOL0     C62245   0.947   0.470  10.481 -0.6766 -0.2348  0.4265
  462MOL0     C62246   1.082   0.523  10.539  0.3717 -0.0804  0.1402
  462MOL0     C62247   1.195   0.445  10.476 -0.2681  0.6290 -0.0889
  462MOL0     C62248   1.330   0.497  10.548  0.7973 -0.0119  0.1682
  462MOL0     C62249   1.446   0.394  10.526 -0.1189 -0.6491 -0.1049
  462MOL0     C62250   1.490   0.358  10.383 -0.2867  0.1269 -0.2330
  462MOL0     C62251   1.496   0.478  10.278  0.1772  0.3758 -1.0367
  462MOL0     N62252   1.621   0.545  10.300 -1.2298 -0.8689 -0.4309
  462MOL0     C62253   1.750   0.503  10.299 -0.2358  1.1237  0.2788
  462MOL0     C62254   1.835   0.605  10.329  0.8110 -0.1437 -0.2480
  462MOL0     C62255   1.982   0.594  10.322 -0.0601  0.7002  0.5032
  462MOL0     C62256   2.022   0.639  10.186 -0.1697  0.1395  0.4287
  462MOL0     C62257   2.177   0.635  10.174 -0.7461  0.3573 -0.3034
  462MOL0     C62258   2.261   0.732  10.256  0.7587 -0.6360 -0.0626
  462MOL0     O62259   2.392   0.763  10.222 -0.1946  0.1530 -0.2442
  462MOL0     C62260   2.494   0.677  10.258  0.3349 -1.3549 -0.3826
  462MOL0     C62261   2.475   0.542  10.308  0.1045 -0.1078  0.6148
  462MOL0     C62262   2.591   0.456  10.324 -0.1886 -0.1032  0.9688
  462MOL0     C62263   2.719   0.512  10.320 -0.1561 -0.2966 -0.4287
  462MOL0     C62264   2.834   0.434  10.373 -0.0905  0.5217  0.2931
  462MOL0     O62265   2.833   0.386  10.495  0.7489 -0.7400 -0.9471
  462MOL0     C62266   2.931   0.306  10.528 -0.6767  0.8259 -0.7025
  462MOL0     C62267   3.071   0.320  10.501  0.3295 -0.1012 -0.6480
  462MOL0     C62268   3.162   0.219  10.544 -1.0062  0.2308  0.6016
  462MOL0     C62269   3.121   0.102  10.602 -0.4115  0.4211 -0.2481
  462MOL0     O62270   3.222   0.015  10.642 -0.5457 -0.2091  0.3487
  462MOL0     C62271   3.185  -0.116  10.677  0.1535  0.3754  0.4046
  462MOL0     C62272   3.306  -0.211  10.689  0.0056 -0.2593  0.6412
  462MOL0     C62273   3.428  -0.134  10.740 -0.7545  0.4594  0.6013
  462MOL0     C62274   3.547  -0.227  10.778  0.0774  0.1589  0.1721
  462MOL0     C62275   3.667  -0.156  10.850 -0.1719  0.0063  1.0050
  462MOL0     C62276   3.785  -0.259  10.878  0.5140  0.6419  1.3418
  462MOL0     C62277   3.897  -0.196  10.961  0.2192 -0.2228 -0.2368
  462MOL0     C62278   4.007  -0.289  11.001 -0.6412  0.3013  0.8825
  462MOL0    Cl62279   4.133  -0.194  11.097  0.2408  0.0446  0.2085
  462MOL0     C62280   2.985   0.091  10.621 -0.3694  1.0393  0.1918
  462MOL0     C62281   2.894   0.190  10.579  0.5662  0.3271  0.0420
  462MOL0     O62282   2.924   0.414  10.286  0.4301 -0.0226  0.4356
  462MOL0     C62283   2.739   0.635  10.270 -0.4060 -0.2183  0.2189
  462MOL0     C62284   2.629   0.718  10.238  0.3798 -0.0455 -0.2303
  462MOL0     N62285   1.756   0.711  10.363 -0.4783  0.7774  0.4568
  462MOL0     N62286   1.631   0.675  10.350 -0.4598  0.1679 -0.6083
  462MOL0     C62287   0.479   0.418  10.466  0.9517  1.1013  0.5664
  462MOL0     C62288   0.341   0.424  10.496  0.2332  0.5208  0.5459
  462MOL0     C62289  -0.040   0.628  10.610  0.5573 -0.4793  0.4871
  462MOL0     C62290  -0.107   0.506  10.610  0.0914  0.4271  0.1317
  462MOL0     C62291  -0.251   0.499  10.612 -0.3319  1.2155  0.4244
  462MOL0     C62292  -0.328   0.603  10.579 -0.3290  0.0307 -0.8426
  462MOL0     O62293  -0.452   0.575  10.537  0.3283  0.6002  1.5082
  462MOL0     C62294  -0.542   0.683  10.554  0.1390 -0.2044  0.1138
  462MOL0     C62295  -0.667   0.624  10.621  0.5757 -0.8494  0.3283
  462MOL0     C62296  -0.792   0.698  10.585 -0.2316  0.1152  0.8416
  462MOL0     C62297  -0.921   0.648  10.653 -0.6827  0.0165  0.6068
  462MOL0     C62298  -1.022   0.755  10.626 -0.8444  0.2176  0.3387
  462MOL0     C62299  -1.121   0.824  10.615  0.0063  0.1364 -0.4936
  462MOL0     C62300  -0.267   0.724  10.594  0.5643  0.4508 -0.3183
  462MOL0     C62301  -0.129   0.739  10.618  0.6804 -0.1416 -0.8024
  462MOL0     C62302  -0.084   0.885  10.634 -0.0126 -0.1943 -0.0007
  462MOL0     H62303   0.364   0.653  10.757 -1.8849 -0.6134 -0.0578
  462MOL0     H62304   0.601   0.643  10.688  1.4850 -0.3518 -1.1190
  462MOL0     H62305   0.826   0.660  10.500  2.3889 -0.6128 -1.6213
  462MOL0     H62306   0.825   0.551  10.638  1.5550  0.9200 -0.4218
  462MOL0     H62307   0.945   0.462  10.372 -0.2932 -0.6813  0.4508
  462MOL0     H62308   0.932   0.368  10.516  0.7033  0.9681  5.2947
  462MOL0     H62309   1.074   0.515  10.648 -1.6321 -3.0479 -0.1146
  462MOL0     H62310   1.095   0.630  10.516 -0.9483 -0.4401 -2.6837
  462MOL0     H62311   1.187   0.339  10.502 -0.1913  0.1004 -2.0767
  462MOL0     H62312   1.199   0.442  10.367 -0.3344 -1.3546 -0.0709
  462MOL0     H62313   1.353   0.594  10.504 -1.2937  0.9599  1.1035
  462MOL0     H62314   1.318   0.508  10.656 -1.2184  0.7760 -0.0906
  462MOL0     H62315   1.534   0.438  10.574  0.3157 -1.5380 -0.0493
  462MOL0     H62316   1.420   0.304  10.583  0.9948 -1.4133 -0.7507
  462MOL0     H62317   1.408   0.294  10.350 -1.1468  0.9390  0.2687
  462MOL0     H62318   1.588   0.309  10.389 -0.9157 -1.1029  0.5833
  462MOL0     H62319   1.487   0.431  10.180  0.4554  0.3713 -1.0592
  462MOL0     H62320   1.414   0.550  10.295  0.4323  0.2703  0.9588
  462MOL0     H62321   1.778   0.405  10.262  2.2496  0.4900  3.4350
  462MOL0     H62322   2.038   0.655  10.393  3.9265 -0.8650 -1.0446
  462MOL0     H62323   2.012   0.490  10.335  0.1441  0.8658  1.4109
  462MOL0     H62324   1.988   0.577  10.103  1.8272 -1.0816  0.4503
  462MOL0     H62325   1.980   0.738  10.169 -1.3575 -0.3958  0.1304
  462MOL0     H62326   2.192   0.659  10.069  0.6446  1.4037  0.0991
  462MOL0     H62327   2.210   0.533  10.195 -0.3137  0.8243  1.4673
  462MOL0     H62328   2.259   0.702  10.361  0.3730 -4.7184 -1.0698
  462MOL0     H62329   2.222   0.834  10.255  1.3214 -0.4187 -0.7581
  462MOL0     H62330   2.372   0.510  10.321 -0.3085  1.2232  0.7667
  462MOL0     H62331   2.580   0.354  10.361  1.7086 -0.8080 -0.2314
  462MOL0     H62332   3.105   0.407  10.445 -1.6653  2.9036  2.4301
  462MOL0     H62333   3.267   0.238  10.524 -0.8057 -1.4147 -0.0802
  462MOL0     H62334   3.140  -0.109  10.776  2.4848 -0.2113  1.5791
  462MOL0     H62335   3.116  -0.153  10.600  1.8761 -0.8479 -0.6118
  462MOL0     H62336   3.284  -0.302  10.744  1.9585  0.0829  2.0949
  462MOL0     H62337   3.326  -0.253  10.590 -1.0527 -3.6255  1.7416
  462MOL0     H62338   3.466  -0.080  10.652  2.4209  0.0088  1.5707
  462MOL0     H62339   3.409  -0.061  10.819  1.5808 -0.1543  1.8126
  462MOL0     H62340   3.586  -0.283  10.693  0.4836 -1.0723  1.1306
  462MOL0     H62341   3.497  -0.297  10.847  1.4468  0.6961  1.7917
  462MOL0     H62342   3.637  -0.124  10.950  1.3523 -1.2700  1.9232
  462MOL0     H62343   3.699  -0.070  10.791 -3.5187  1.1748  0.6572
  462MOL0     H62344   3.738  -0.339  10.936 -0.8333 -1.1705 -1.9693
  462MOL0     H62345   3.817  -0.302  10.783 -0.3689  1.5753  0.5938
  462MOL0     H62346   3.851  -0.145  11.047  0.6945  0.1937 -0.2238
  462MOL0     H62347   3.935  -0.109  10.906 -2.3352  1.3320  0.2716
  462MOL0     H62348   3.964  -0.365  11.067 -1.7752  1.0257  1.0001
  462MOL0     H62349   4.056  -0.338  10.916 -0.4584 -0.9902  1.6948
  462MOL0     H62350   2.953  -0.003  10.665 -0.9145  1.9793  1.8402
  462MOL0     H62351   2.791   0.170  10.606  0.7097  0.6558  0.8753
  462MOL0     H62352   2.843   0.663  10.256 -0.0434  1.1518  4.2261
  462MOL0     H62353   2.645   0.814  10.190  1.1843 -0.7484 -1.4211
  462MOL0     H62354   0.508   0.359  10.380 -0.5174  1.5100 -0.2372
  462MOL0     H62355   0.271   0.365  10.440 -2.7758  2.2872  2.1824
  462MOL0     H62356  -0.072   0.404  10.612 -4.0223 -1.1702  0.2207
  462MOL0     H62357  -0.299   0.402  10.604 -2.5441  2.3545 -1.1554
  462MOL0     H62358  -0.564   0.722  10.453  2.1722  1.1419  0.1311
  462MOL0     H62359  -0.509   0.773  10.608 -0.4157 -0.1686  0.3961
  462MOL0     H62360  -0.653   0.633  10.729  0.6778  0.5328  0.2258
  462MOL0     H62361  -0.677   0.518  10.595 -1.6122 -0.4512 -0.6945
  462MOL0     H62362  -0.800   0.698  10.476 -0.2891  1.1980  0.8314
  462MOL0     H62363  -0.780   0.800  10.622  0.8647  0.3608 -0.1319
  462MOL0     H62364  -0.948   0.549  10.617 -0.8224 -0.6495  2.4200
  462MOL0     H62365  -0.900   0.638  10.760  2.4682 -1.0892 -0.0010
  462MOL0     H62366  -1.212   0.880  10.617 -0.0968 -0.0418  0.3751
  462MOL0     H62367  -0.313   0.818  10.565  1.8883  2.0287  2.3236
  462MOL0     H62368  -0.021   0.913  10.549  4.0550 -0.3634  2.6889
  462MOL0     H62369  -0.169   0.953  10.634 -0.2231 -0.2665 -3.2994
  462MOL0     H62370  -0.016   0.899  10.718  2.5319 -2.0819 -1.5746
  463MOL0     O62371   3.652   2.675   4.286  0.8557 -0.6748  0.4892
  463MOL0     C62372   3.630   2.566   4.232  0.3754  0.2031  0.5525
  463MOL0     O62373   3.717   2.458   4.230  0.0414  0.1744  0.1797
  463MOL0     C62374   3.850   2.481   4.267 -0.4785  0.0433 -0.2248
  463MOL0     C62375   3.878   2.541   4.387 -0.7015 -1.2493  0.3777
  463MOL0     C62376   4.018   2.561   4.421  0.1177 -1.4948 -0.6148
  463MOL0     C62377   4.121   2.543   4.320  0.2159 -0.1158 -0.1070
  463MOL0     O62378   4.255   2.567   4.350 -0.2300  0.5125 -0.7782
  463MOL0     C62379   4.287   2.625   4.477 -0.3603  0.8238 -0.4038
  463MOL0     C62380   4.438   2.661   4.507 -0.1410  0.5650  0.7272
  463MOL0     C62381   4.506   2.560   4.430 -0.5156  0.9596 -0.6021
  463MOL0     C62382   4.655   2.544   4.459 -0.8563 -0.5151  0.3500
  463MOL0     C62383   4.726   2.454   4.359  0.2285  0.0248  0.1779
  463MOL0     C62384   4.880   2.479   4.367 -0.1893  0.0784  0.3579
  463MOL0     C62385   4.945   2.402   4.482  0.2139 -0.1064 -0.4719
  463MOL0     C62386   5.092   2.434   4.505 -0.5276 -0.1229 -0.1101
  463MOL0     N62387   5.181   2.377   4.408  0.0986  0.3077 -0.3293
  463MOL0     C62388   5.226   2.243   4.412  0.2675 -0.0266  0.1194
  463MOL0     C62389   5.324   2.238   4.318  0.2539  1.5511  0.1678
  463MOL0     C62390   5.431   2.134   4.304 -0.6550 -0.2244 -0.2404
  463MOL0     C62391   5.564   2.189   4.344 -0.8692 -0.1451 -1.0160
  463MOL0     C62392   5.677   2.091   4.307  0.3620  0.0882  0.4703
  463MOL0     C62393   5.814   2.159   4.326 -0.8897 -0.1133  0.6905
  463MOL0     O62394   5.836   2.172   4.466 -0.5348  0.0542 -0.4127
  463MOL0     C62395   5.965   2.193   4.516  0.2735  0.0950 -0.3594
  463MOL0     C62396   6.083   2.189   4.439 -0.3380  0.6826 -0.3248
  463MOL0     C62397   6.201   2.212   4.497  0.4589 -0.2091  0.0910
  463MOL0     C62398   6.214   2.253   4.630  0.1817 -0.3909 -1.0518
  463MOL0     C62399   6.343   2.280   4.682 -0.7371 -0.7446  0.6398
  463MOL0     O62400   6.445   2.324   4.597  0.7992  0.4530 -0.1633
  463MOL0     C62401   6.565   2.359   4.643  0.0064 -0.1591 -0.9635
  463MOL0     C62402   6.597   2.487   4.681 -0.1482  0.4380  0.2163
  463MOL0     C62403   6.727   2.515   4.730  0.1536  0.1710  0.7918
  463MOL0     C62404   6.818   2.408   4.744 -0.0849  0.1783  0.1113
  463MOL0     O62405   6.954   2.419   4.795 -0.1926  0.9369  0.0976
  463MOL0     C62406   7.009   2.546   4.807  0.1855 -0.4982  0.2201
  463MOL0     C62407   7.163   2.516   4.802 -0.7763 -0.3837 -0.6131
  463MOL0     C62408   7.239   2.652   4.809 -0.1185 -0.6990  0.4824
  463MOL0     C62409   7.398   2.636   4.799 -0.3363  0.2158 -0.1037
  463MOL0     C62410   7.482   2.770   4.796  0.8116 -0.5356 -1.0378
  463MOL0     C62411   7.635   2.745   4.773 -0.1420  0.3826  0.5557
  463MOL0     C62412   7.677   2.753   4.618 -0.4433  0.2135 -0.7050
  463MOL0     C62413   7.830   2.738   4.603  0.3195  0.7472 -0.3284
  463MOL0    Cl62414   7.862   2.726   4.428 -0.4402 -0.1355 -0.5507
  463MOL0     C62415   6.773   2.284   4.701  0.0736 -1.1207  0.1555
  463MOL0     C62416   6.652   2.258   4.655 -0.3742  0.5387 -0.2999
  463MOL0     O62417   6.362   2.269   4.804  0.5260 -0.5816  0.4014
  463MOL0     C62418   6.099   2.250   4.706  0.1898 -0.5158 -1.2214
  463MOL0     C62419   5.978   2.216   4.652  0.0893  0.3446  0.0008
  463MOL0     N62420   5.315   2.360   4.249 -0.4643  0.3668 -0.5902
  463MOL0     N62421   5.224   2.432   4.294  0.1631  0.1700  0.4112
  463MOL0     C62422   4.091   2.478   4.201 -0.1549 -0.1565  0.1873
  463MOL0     C62423   3.958   2.452   4.177 -0.5509 -0.4286 -0.7164
  463MOL0     C62424   3.490   2.525   4.195 -0.0580 -0.2729  0.0550
  463MOL0     C62425   3.373   2.583   4.245 -0.5516 -0.5312 -0.0747
  463MOL0     C62426   3.244   2.557   4.204 -0.9527  0.5992 -0.2189
  463MOL0     C62427   3.231   2.472   4.093 -0.9681  1.2319 -0.8208
  463MOL0     O62428   3.113   2.453   4.017  0.2813  0.7575  0.0480
  463MOL0     C62429   2.990   2.496   4.083  0.1377 -0.7695  0.4893
  463MOL0     C62430   2.863   2.452   4.002 -0.0169 -0.6391  0.2546
  463MOL0     C62431   2.736   2.473   4.085 -1.1165 -0.1770 -0.2129
  463MOL0     C62432   2.604   2.456   4.008 -0.0851 -0.1021  0.5537
  463MOL0     C62433   2.546   2.322   3.992 -0.3404 -0.1694  0.3222
  463MOL0     C62434   2.500   2.204   3.987 -0.2544 -0.6559 -0.1328
  463MOL0     C62435   3.346   2.415   4.039 -0.0992 -1.4962  0.4682
  463MOL0     C62436   3.468   2.451   4.076 -0.8301  0.6192 -0.3551
  463MOL0     C62437   3.583   2.410   3.981  1.1425 -0.5383 -0.2187
  463MOL0     H62438   3.803   2.557   4.464  1.6705 -0.0271  2.6070
  463MOL0     H62439   4.037   2.588   4.524  1.5456 -1.3407 -0.8964
  463MOL0     H62440   4.236   2.719   4.499 -0.2758  0.1106  3.5331
  463MOL0     H62441   4.253   2.543   4.540  2.7981 -2.2784 -2.4067
  463MOL0     H62442   4.466   2.667   4.613 -0.8274  0.4674  0.9204
  463MOL0     H62443   4.452   2.763   4.471  1.4926 -0.3339 -1.3683
  463MOL0     H62444   4.495   2.596   4.327 -1.2875  0.9428 -0.5315
  463MOL0     H62445   4.465   2.458   4.434  0.5877  0.4858 -1.0244
  463MOL0     H62446   4.693   2.646   4.448 -1.2887 -0.3501  0.3787
  463MOL0     H62447   4.673   2.512   4.562 -1.5575 -1.5657  0.1595
  463MOL0     H62448   4.706   2.349   4.385  2.0987 -0.4190 -0.0922
  463MOL0     H62449   4.690   2.468   4.257  0.7172 -1.3459 -0.2094
  463MOL0     H62450   4.937   2.439   4.282  0.9397  0.6062  0.8399
  463MOL0     H62451   4.899   2.587   4.365 -1.6431  0.3716 -2.2395
  463MOL0     H62452   4.935   2.297   4.451 -0.0332 -0.8189  1.8143
  463MOL0     H62453   4.886   2.420   4.572 -2.6398  4.1541 -2.8583
  463MOL0     H62454   5.112   2.541   4.519 -1.2277 -0.1649  1.3830
  463MOL0     H62455   5.117   2.402   4.607 -2.8610 -3.8581 -0.5567
  463MOL0     H62456   5.194   2.167   4.482 -3.5277  1.2899  0.0253
  463MOL0     H62457   5.413   2.052   4.374 -2.1847 -0.3314 -0.7262
  463MOL0     H62458   5.429   2.091   4.204 -1.8508 -3.4983  1.0485
  463MOL0     H62459   5.573   2.283   4.290 -0.1575  0.3771 -0.0090
  463MOL0     H62460   5.569   2.215   4.450 -1.7732 -0.6666 -0.8353
  463MOL0     H62461   5.687   2.056   4.204  0.3664 -0.7286  0.7372
  463MOL0     H62462   5.680   1.996   4.361 -2.5740 -1.0901 -1.2331
  463MOL0     H62463   5.819   2.249   4.263 -0.7198 -2.4240 -2.9183
  463MOL0     H62464   5.895   2.097   4.287  0.3851 -0.3419  3.4656
  463MOL0     H62465   6.087   2.147   4.339  0.5425  1.5788 -0.6826
  463MOL0     H62466   6.292   2.213   4.438 -0.7481  0.9705 -1.8354
  463MOL0     H62467   6.511   2.551   4.662  0.1951  0.8673  0.0856
  463MOL0     H62468   6.760   2.614   4.760  0.9158  0.4503 -0.8529
  463MOL0     H62469   6.996   2.601   4.713  0.0764 -0.9373 -0.0224
  463MOL0     H62470   6.976   2.613   4.887  4.0922  1.0773  0.7257
  463MOL0     H62471   7.197   2.463   4.891  3.2104  1.0229 -1.1105
  463MOL0     H62472   7.193   2.461   4.712  1.4875 -0.7242  0.2944
  463MOL0     H62473   7.208   2.727   4.736  2.6012 -1.4613 -1.6180
  463MOL0     H62474   7.213   2.694   4.907 -1.3872  0.4563 -0.3214
  463MOL0     H62475   7.422   2.588   4.704 -1.7457 -0.5127 -0.1193
  463MOL0     H62476   7.436   2.571   4.878 -1.7780 -0.2903  0.2102
  463MOL0     H62477   7.470   2.818   4.893 -1.0233  0.5964 -1.7663
  463MOL0     H62478   7.441   2.839   4.722  1.6472  0.0963 -0.9192
  463MOL0     H62479   7.694   2.825   4.819  1.3564 -0.7713  0.7392
  463MOL0     H62480   7.656   2.646   4.816 -0.8295  0.6507  1.5212
  463MOL0     H62481   7.643   2.848   4.576  2.3937  2.1832  1.1363
  463MOL0     H62482   7.629   2.674   4.559  2.1524 -4.2234  2.4886
  463MOL0     H62483   7.870   2.829   4.648 -0.5867  1.0598 -0.1337
  463MOL0     H62484   7.859   2.648   4.659  0.7691  2.2117  1.8949
  463MOL0     H62485   6.845   2.202   4.709  0.5521 -0.8264 -0.9938
  463MOL0     H62486   6.640   2.153   4.632 -1.8296  1.2713 -3.5130
  463MOL0     H62487   6.103   2.286   4.809 -1.2811 -1.3265 -0.8506
  463MOL0     H62488   5.888   2.213   4.713  1.0037  1.3713  1.4606
  463MOL0     H62489   4.163   2.457   4.122  0.2245  0.2429  0.4254
  463MOL0     H62490   3.925   2.406   4.085  0.0933 -1.1092 -0.6165
  463MOL0     H62491   3.385   2.658   4.324 -2.0092 -3.7552  3.5334
  463MOL0     H62492   3.154   2.601   4.247 -1.6175 -1.6791  0.9099
  463MOL0     H62493   2.977   2.603   4.064 -0.7424 -1.2580 -2.0805
  463MOL0     H62494   2.974   2.444   4.178  2.4590 -2.3850  0.0675
  463MOL0     H62495   2.868   2.343   3.986 -3.5971 -1.1528  1.6425
  463MOL0     H62496   2.857   2.494   3.901 -2.3007  3.3396  1.7969
  463MOL0     H62497   2.731   2.580   4.107 -4.0417 -0.5966  1.7566
  463MOL0     H62498   2.740   2.412   4.176  0.7066  0.1693 -0.0314
  463MOL0     H62499   2.532   2.523   4.056  0.2020  1.9735 -1.6751
  463MOL0     H62500   2.614   2.499   3.908 -2.8549  1.0022  0.6719
  463MOL0     H62501   2.460   2.106   3.999  0.1415 -0.4586  4.5397
  463MOL0     H62502   3.329   2.355   3.949 -1.7650 -1.9990  1.0719
  463MOL0     H62503   3.602   2.306   4.008 -1.6824 -0.6701  1.6860
  463MOL0     H62504   3.554   2.423   3.876 -0.0733  1.9624  0.3458
  463MOL0     H62505   3.669   2.477   3.990 -1.2864  2.7966 -0.0394
  464MOL0     O62506   5.247   0.658   9.110 -0.2870 -0.2029  0.7504
  464MOL0     C62507   5.327   0.573   9.136  0.4601 -0.0459  0.7238
  464MOL0     O62508   5.458   0.585   9.106  1.1953 -0.0699  0.1588
  464MOL0     C62509   5.511   0.697   9.048  0.1543 -0.3079 -0.4005
  464MOL0     C62510   5.460   0.768   8.933 -0.1276  0.8171 -0.5119
  464MOL0     C62511   5.509   0.885   8.887 -0.1691 -0.0098 -0.0188
  464MOL0     C62512   5.624   0.943   8.940 -0.3259  0.6624 -0.9669
  464MOL0     O62513   5.688   1.062   8.909 -0.0645 -0.1396  0.2105
  464MOL0     C62514   5.615   1.134   8.811 -0.0605  0.9208  0.9852
  464MOL0     C62515   5.697   1.251   8.770 -0.3804 -0.7433  0.1281
  464MOL0     C62516   5.676   1.296   8.627  0.0096 -0.5108 -0.1649
  464MOL0     C62517   5.722   1.439   8.606  0.1964 -0.4973  0.2864
  464MOL0     C62518   5.674   1.486   8.466  0.7257  0.8792 -0.1316
  464MOL0     C62519   5.778   1.447   8.350  0.0056  0.0960  0.4370
  464MOL0     C62520   5.919   1.504   8.367  0.4984 -0.4520  0.2830
  464MOL0     C62521   5.916   1.654   8.347 -0.1132  0.0134 -0.5138
  464MOL0     N62522   6.049   1.708   8.368 -1.0284  0.4467 -0.5156
  464MOL0     C62523   6.162   1.716   8.281  0.5256  0.5792 -1.3311
  464MOL0     C62524   6.245   1.806   8.332  0.0075 -0.4146 -0.2809
  464MOL0     C62525   6.374   1.852   8.275 -0.1509  0.7444  0.0042
  464MOL0     C62526   6.480   1.736   8.250  0.5948  0.0210 -0.5616
  464MOL0     C62527   6.555   1.707   8.375  1.0022 -0.6662 -0.2657
  464MOL0     C62528   6.676   1.618   8.352  0.7480  0.0756 -0.5397
  464MOL0     O62529   6.774   1.648   8.448 -0.7652  0.2662  0.4782
  464MOL0     C62530   6.888   1.575   8.432 -0.3282  0.0297 -0.1237
  464MOL0     C62531   7.001   1.658   8.461  0.0300  0.4801 -1.1300
  464MOL0     C62532   7.128   1.605   8.452 -0.2793  0.2482  0.1182
  464MOL0     C62533   7.155   1.473   8.413  0.3844  0.7734  0.7858
  464MOL0     C62534   7.287   1.414   8.427 -0.6303  0.2140 -0.2837
  464MOL0     O62535   7.402   1.489   8.384 -0.7688 -0.7092 -0.0369
  464MOL0     C62536   7.528   1.437   8.366 -0.1015  0.9929  0.1709
  464MOL0     C62537   7.615   1.524   8.293 -0.8232 -0.9895 -0.3802
  464MOL0     C62538   7.752   1.493   8.278 -0.1978 -0.1690  0.7098
  464MOL0     C62539   7.801   1.369   8.320 -0.7233 -0.0068 -0.7871
  464MOL0     O62540   7.934   1.342   8.297  0.6463 -0.1903  0.2691
  464MOL0     C62541   8.031   1.393   8.392 -0.6092  0.0623  0.3244
  464MOL0     C62542   8.160   1.318   8.390  0.8570 -0.0847 -0.0752
  464MOL0     C62543   8.259   1.349   8.504 -0.1625  0.6686 -0.3303
  464MOL0     C62544   8.400   1.306   8.464 -0.5723 -0.4265 -0.1919
  464MOL0     C62545   8.480   1.401   8.373  0.8940  0.4566  0.1628
  464MOL0     C62546   8.599   1.328   8.309 -0.2349 -0.2735  0.7017
  464MOL0     C62547   8.709   1.409   8.239  0.2648  0.2173 -0.0561
  464MOL0     C62548   8.771   1.323   8.121  0.1201 -0.1500  0.1447
  464MOL0    Cl62549   8.883   1.428   8.031 -0.0983  0.3222  0.0531
  464MOL0     C62550   7.715   1.283   8.390 -0.1740  0.0593  0.2985
  464MOL0     C62551   7.582   1.309   8.410  0.2249 -1.2078  0.0623
  464MOL0     O62552   7.298   1.295   8.465  0.0634 -0.7191  0.1465
  464MOL0     C62553   7.044   1.393   8.372  1.3361  0.4940 -1.7429
  464MOL0     C62554   6.913   1.446   8.389 -0.7609  0.0104  0.0809
  464MOL0     N62555   6.184   1.854   8.451 -0.6694 -0.2272  0.3795
  464MOL0     N62556   6.075   1.788   8.476 -0.3008  0.0436 -0.2047
  464MOL0     C62557   5.685   0.870   9.044  0.1893 -0.2820  0.2008
  464MOL0     C62558   5.630   0.752   9.089 -0.1850  0.3895 -0.8033
  464MOL0     C62559   5.289   0.442   9.184  0.4821 -0.4336  0.1507
  464MOL0     C62560   5.376   0.337   9.155  0.6142  0.4873  0.2559
  464MOL0     C62561   5.356   0.212   9.202 -0.2251 -0.2586 -0.1082
  464MOL0     C62562   5.238   0.189   9.278 -1.2669 -0.7303 -0.6400
  464MOL0     O62563   5.202   0.076   9.334  0.3984  0.7820 -0.1648
  464MOL0     C62564   5.278  -0.046   9.315 -0.6174 -0.3563  0.0798
  464MOL0     C62565   5.260  -0.108   9.176  0.0622 -0.9231 -0.5600
  464MOL0     C62566   5.110  -0.138   9.145 -0.5383 -1.2015 -1.2706
  464MOL0     C62567   5.111  -0.225   9.019 -0.9505 -0.4433  0.4162
  464MOL0     C62568   5.141  -0.134   8.903 -0.8998  0.3414  0.6923
  464MOL0     C62569   5.174  -0.051   8.814  0.6814 -0.6968  0.2208
  464MOL0     C62570   5.150   0.299   9.299 -0.5755 -0.6121 -0.1662
  464MOL0     C62571   5.173   0.427   9.260 -0.0002 -0.9344 -0.4594
  464MOL0     C62572   5.074   0.533   9.297  0.5511  0.3362 -0.0249
  464MOL0     H62573   5.368   0.729   8.891 -0.2249 -0.3388  0.6935
  464MOL0     H62574   5.453   0.939   8.810  2.1776  1.2783 -0.9538
  464MOL0     H62575   5.588   1.071   8.726 -3.3265 -0.1143  2.5949
  464MOL0     H62576   5.518   1.159   8.855 -1.4266 -0.4008 -1.1049
  464MOL0     H62577   5.803   1.228   8.784  0.5483  1.7848 -1.9034
  464MOL0     H62578   5.671   1.328   8.844 -0.0222 -1.4584  1.0143
  464MOL0     H62579   5.569   1.306   8.611  0.4664  1.2823 -2.7829
  464MOL0     H62580   5.722   1.226   8.557  1.2965  0.6426 -0.5341
  464MOL0     H62581   5.670   1.509   8.671 -0.5590 -0.4082 -0.3906
  464MOL0     H62582   5.829   1.451   8.626 -0.0850 -0.0763  1.5968
  464MOL0     H62583   5.578   1.442   8.437  0.5717  1.3434 -0.3304
  464MOL0     H62584   5.655   1.594   8.471 -0.8345  0.6375 -0.3717
  464MOL0     H62585   5.781   1.339   8.331  0.9592  0.1264  0.3625
  464MOL0     H62586   5.732   1.488   8.260 -0.8075  0.0271  0.8119
  464MOL0     H62587   5.975   1.451   8.290  1.0190 -0.4198  0.6350
  464MOL0     H62588   5.963   1.479   8.464  1.9371 -1.0950 -0.5131
  464MOL0     H62589   5.877   1.693   8.253  2.3095  0.0046 -1.6089
  464MOL0     H62590   5.855   1.699   8.426 -1.2136  0.6577 -1.6922
  464MOL0     H62591   6.185   1.662   8.189  3.5831  1.6288 -1.3242
  464MOL0     H62592   6.360   1.905   8.180 -1.4209 -1.1109 -0.9014
  464MOL0     H62593   6.417   1.920   8.349 -5.0649  1.4792  2.6064
  464MOL0     H62594   6.433   1.641   8.223  0.6862 -0.3775  0.6351
  464MOL0     H62595   6.545   1.777   8.172  2.0686  0.2595  0.7473
  464MOL0     H62596   6.492   1.670   8.457  1.8048 -1.9947 -0.2149
  464MOL0     H62597   6.602   1.803   8.401  2.6171 -1.7568  1.0509
  464MOL0     H62598   6.720   1.640   8.253  0.8831  2.7305  0.0243
  464MOL0     H62599   6.644   1.515   8.369  2.0633 -0.1421  0.8059
  464MOL0     H62600   7.001   1.764   8.483  1.7316  0.0206  1.7400
  464MOL0     H62601   7.219   1.658   8.477  0.6970  0.2924 -3.0168
  464MOL0     H62602   7.572   1.618   8.260  2.6129  0.8964  0.0754
  464MOL0     H62603   7.824   1.556   8.226  0.2130 -0.0012  1.4633
  464MOL0     H62604   8.050   1.493   8.350 -0.9347 -0.0095 -0.0033
  464MOL0     H62605   7.995   1.404   8.495  0.4073 -0.5024  0.7495
  464MOL0     H62606   8.141   1.211   8.379  3.5218 -0.4802 -1.5563
  464MOL0     H62607   8.203   1.350   8.295  4.5241 -2.5948  0.5448
  464MOL0     H62608   8.246   1.456   8.524 -1.2973  0.4495  0.2331
  464MOL0     H62609   8.226   1.291   8.591 -0.4447  0.9893 -0.2201
  464MOL0     H62610   8.386   1.217   8.402 -0.5629  0.4287 -1.4577
  464MOL0     H62611   8.450   1.272   8.556 -2.0318 -0.1433  0.7479
  464MOL0     H62612   8.515   1.492   8.423  0.3028  0.9416 -0.2894
  464MOL0     H62613   8.413   1.437   8.295  0.4820  2.1736  1.2437
  464MOL0     H62614   8.655   1.265   8.379  1.8757  1.5174  0.7119
  464MOL0     H62615   8.544   1.252   8.251 -3.6265  1.2144  1.7118
  464MOL0     H62616   8.794   1.442   8.300 -0.2656  2.6494 -0.5332
  464MOL0     H62617   8.657   1.498   8.201 -0.4930 -1.3433 -2.9569
  464MOL0     H62618   8.816   1.230   8.156 -1.1008 -0.4099  1.0869
  464MOL0     H62619   8.688   1.305   8.052 -0.8043 -0.8782  1.4263
  464MOL0     H62620   7.765   1.199   8.436 -1.3098 -1.9038 -1.8286
  464MOL0     H62621   7.528   1.235   8.469  0.2574 -0.9284  0.4445
  464MOL0     H62622   7.041   1.286   8.358 -1.6881  0.6259 -3.0714
  464MOL0     H62623   6.829   1.390   8.351 -0.2141 -1.2473  0.6742
  464MOL0     H62624   5.768   0.917   9.097 -0.9745  0.6517  1.2720
  464MOL0     H62625   5.677   0.709   9.177 -0.2770  1.1107 -0.3884
  464MOL0     H62626   5.460   0.353   9.090 -0.8875  5.0184 -0.8933
  464MOL0     H62627   5.434   0.136   9.197 -1.0360 -1.3950  2.6088
  464MOL0     H62628   5.249  -0.119   9.391 -3.0064  0.0985 -0.3320
  464MOL0     H62629   5.385  -0.027   9.331 -1.1829  1.1240  2.6292
  464MOL0     H62630   5.326  -0.193   9.156  1.4177  0.6168 -3.1892
  464MOL0     H62631   5.304  -0.029   9.115  2.2650 -0.6353  1.2232
  464MOL0     H62632   5.063  -0.044   9.114  0.9797  0.3598  0.9151
  464MOL0     H62633   5.069  -0.190   9.233 -0.9066 -2.1938 -2.0043
  464MOL0     H62634   5.188  -0.303   9.027 -2.2023 -2.2076 -2.7593
  464MOL0     H62635   5.014  -0.272   8.999  0.8070 -3.9788 -0.7124
  464MOL0     H62636   5.203   0.019   8.738 -0.3224 -1.4509 -0.8824
  464MOL0     H62637   5.059   0.268   9.350  1.1453 -2.3962  2.0720
  464MOL0     H62638   4.987   0.487   9.345  2.9396 -3.2311  1.3703
  464MOL0     H62639   5.116   0.607   9.366  0.3926 -1.0623  1.6692
  464MOL0     H62640   5.051   0.579   9.201  0.4324  0.1768 -0.0731
  465MOL0     O62641   7.879   0.858   5.547 -0.3553  0.2640  0.0954
  465MOL0     C62642   7.837   0.972   5.577 -0.3614 -0.4796  0.5897
  465MOL0     O62643   7.881   1.088   5.517 -0.2673  0.3762 -0.0596
  465MOL0     C62644   7.995   1.082   5.450  0.4737  1.0641  0.0925
  465MOL0     C62645   8.110   1.158   5.481  0.1296  0.7571 -0.7899
  465MOL0     C62646   8.219   1.156   5.398 -0.2489  0.2422 -0.7772
  465MOL0     C62647   8.228   1.084   5.285 -0.5688 -0.0234  0.8492
  465MOL0     O62648   8.347   1.077   5.223 -0.8387  0.0795 -1.2835
  465MOL0     C62649   8.379   0.963   5.145  0.4362  0.5721  0.4950
  465MOL0     C62650   8.532   0.961   5.113  1.0823  0.2456 -0.3869
  465MOL0     C62651   8.594   0.823   5.155  0.5262  0.5550 -0.4480
  465MOL0     C62652   8.554   0.695   5.077  0.4187 -0.3331 -0.1964
  465MOL0     C62653   8.634   0.570   5.123  0.5107 -0.7178 -0.7779
  465MOL0     C62654   8.582   0.466   5.037 -1.0188  0.4197  0.6058
  465MOL0     C62655   8.668   0.347   5.071 -0.0740 -0.9205  0.3488
  465MOL0     C62656   8.599   0.215   5.012  0.1239 -0.3901 -0.6188
  465MOL0     N62657   8.703   0.113   4.995 -0.3459  0.5432 -0.5249
  465MOL0     C62658   8.787   0.054   5.089 -0.4336 -0.8551  0.0979
  465MOL0     C62659   8.854  -0.035   5.015 -0.7860  0.3596 -0.4066
  465MOL0     C62660   8.954  -0.118   5.086 -0.6750 -0.8882  0.4195
  465MOL0     C62661   9.098  -0.061   5.111  0.1868 -0.3632  0.4435
  465MOL0     C62662   9.106   0.014   5.242 -0.1051 -0.2515  0.7728
  465MOL0     C62663   9.251   0.046   5.266 -0.0891 -0.4845 -0.4587
  465MOL0     O62664   9.287   0.158   5.177 -0.2375 -0.2395 -0.7590
  465MOL0     C62665   9.414   0.205   5.185  0.3835  0.0096  0.3607
  465MOL0     C62666   9.440   0.323   5.116  0.2941 -0.3460 -0.4293
  465MOL0     C62667   9.565   0.390   5.121  0.8065 -0.1692  0.8154
  465MOL0     C62668   9.669   0.329   5.188  0.7324 -0.6658 -0.1899
  465MOL0     C62669   9.797   0.398   5.186  0.0722 -0.3158 -0.2991
  465MOL0     O62670   9.826   0.487   5.086 -0.2711 -0.1446 -0.3030
  465MOL0     C62671   9.944   0.550   5.072 -1.4686 -0.4744  0.6696
  465MOL0     C62672   9.959   0.636   4.963  0.8712  0.6297 -0.5933
  465MOL0     C62673  10.075   0.706   4.931 -0.4551 -0.8556  0.2966
  465MOL0     C62674  10.180   0.700   5.029 -0.2034 -0.3144  0.5295
  465MOL0     O62675  10.288   0.777   5.015  0.0532  0.4103 -0.0231
  465MOL0     C62676  10.270   0.920   5.025  0.1443  0.1955 -0.0331
  465MOL0     C62677  10.353   0.995   5.130 -0.5974 -0.2218  0.4558
  465MOL0     C62678  10.480   1.043   5.058 -0.3369  0.2379  0.2079
  465MOL0     C62679  10.555   1.149   5.146 -0.2325 -0.1761  0.2763
  465MOL0     C62680  10.694   1.188   5.090  0.4275 -0.3775 -1.3961
  465MOL0     C62681  10.762   1.298   5.176 -0.5700  0.0212 -0.3462
  465MOL0     C62682  10.885   1.354   5.110  0.0634 -0.5344 -1.1958
  465MOL0     C62683  10.945   1.472   5.185  0.6656 -0.3913  0.3240
  465MOL0    Cl62684  11.122   1.481   5.160 -0.0140  0.4500 -0.1448
  465MOL0     C62685  10.169   0.613   5.142 -0.0589 -0.2158  0.3430
  465MOL0     C62686  10.053   0.544   5.164  0.9431  0.1432 -0.4998
  465MOL0     O62687   9.871   0.355   5.276  0.4634  0.1902 -1.0692
  465MOL0     C62688   9.637   0.211   5.266  0.9298 -0.7353 -0.4969
  465MOL0     C62689   9.508   0.148   5.271 -0.5594 -0.4470 -0.6023
  465MOL0     N62690   8.811  -0.046   4.887 -0.5198 -0.2676  0.4308
  465MOL0     N62691   8.723   0.046   4.876 -1.1278  0.2604  0.5606
  465MOL0     C62692   8.112   1.015   5.242  0.1958 -0.5508 -0.5282
  465MOL0     C62693   7.996   1.012   5.331  1.6333 -0.1947  0.8501
  465MOL0     C62694   7.726   0.965   5.658 -0.1709 -0.8246 -0.0497
  465MOL0     C62695   7.632   1.066   5.648  0.0643 -0.0345 -0.0021
  465MOL0     C62696   7.520   1.078   5.734  0.4002 -0.2782 -1.0611
  465MOL0     C62697   7.503   0.990   5.845  1.3802 -0.9996  0.6401
  465MOL0     O62698   7.388   1.018   5.919  0.4021  0.5767  0.6605
  465MOL0     C62699   7.366   0.932   6.030  0.9327  0.0729  0.5683
  465MOL0     C62700   7.229   0.952   6.091 -0.3478  0.1283 -0.1833
  465MOL0     C62701   7.127   0.917   5.978  0.4809  0.7219  0.0412
  465MOL0     C62702   7.071   1.044   5.905  0.4462  0.8809 -0.4074
  465MOL0     C62703   6.972   0.991   5.808  0.4141  0.4181 -0.3201
  465MOL0     C62704   6.897   0.929   5.739 -0.2460 -0.2015  0.2953
  465MOL0     C62705   7.598   0.897   5.860 -0.5086  0.3851 -0.3361
  465MOL0     C62706   7.709   0.885   5.773 -0.4231 -0.7102  0.3774
  465MOL0     C62707   7.816   0.779   5.810 -0.7431 -0.4541 -0.0419
  465MOL0     H62708   8.120   1.229   5.563 -1.8287  0.0941  0.0912
  465MOL0     H62709   8.303   1.225   5.403  2.1008 -2.5494  1.9194
  465MOL0     H62710   8.341   0.876   5.200  1.6406 -0.2426  0.0851
  465MOL0     H62711   8.329   0.975   5.048  0.0357  0.9383  0.7436
  465MOL0     H62712   8.587   1.034   5.174  2.1437 -0.0165 -0.9903
  465MOL0     H62713   8.556   0.985   5.009  0.3092  1.0011 -0.4005
  465MOL0     H62714   8.559   0.812   5.258  0.3729  0.3663 -0.5189
  465MOL0     H62715   8.703   0.833   5.154  0.4834  1.9204  1.5647
  465MOL0     H62716   8.448   0.678   5.096  0.4076  1.8562  2.3766
  465MOL0     H62717   8.575   0.725   4.974 -2.6673 -1.2446 -1.2025
  465MOL0     H62718   8.741   0.587   5.106 -0.1207  2.5403 -2.1807
  465MOL0     H62719   8.610   0.542   5.226 -0.0512  1.6014 -0.2336
  465MOL0     H62720   8.473   0.458   5.051 -1.1512  0.7266 -0.2172
  465MOL0     H62721   8.593   0.495   4.932  3.8673  1.7099  1.2388
  465MOL0     H62722   8.677   0.331   5.178 -1.0497 -3.3514  0.1455
  465MOL0     H62723   8.763   0.367   5.021 -0.9400  4.9731  0.3954
  465MOL0     H62724   8.539   0.177   5.096  1.4348  0.9178  0.9791
  465MOL0     H62725   8.537   0.238   4.925 -0.0115 -0.4190 -0.5309
  465MOL0     H62726   8.793   0.083   5.193  2.0238 -2.4962  0.5128
  465MOL0     H62727   8.907  -0.149   5.180  0.2973  2.4659  2.1864
  465MOL0     H62728   8.973  -0.202   5.019  0.9038  0.7898 -1.3559
  465MOL0     H62729   9.178  -0.134   5.095 -0.8733 -2.1326  2.6633
  465MOL0     H62730   9.117   0.020   5.040  2.8271  0.9244  2.4664
  465MOL0     H62731   9.076  -0.053   5.323  1.6607 -2.5708 -0.3548
  465MOL0     H62732   9.050   0.107   5.243 -0.5021 -0.3883 -1.8772
  465MOL0     H62733   9.320  -0.038   5.253 -0.4089 -0.8234  0.0272
  465MOL0     H62734   9.262   0.085   5.367 -1.6618 -1.9576  0.3247
  465MOL0     H62735   9.357   0.369   5.063  0.8587  0.3064 -0.7584
  465MOL0     H62736   9.577   0.484   5.068  2.1158 -0.4983  0.4784
  465MOL0     H62737   9.883   0.639   4.886 -0.8813  0.4361  1.0332
  465MOL0     H62738  10.098   0.771   4.848  2.7101  0.8880  2.3263
  465MOL0     H62739  10.306   0.962   4.930 -1.6675  1.1907 -0.3350
  465MOL0     H62740  10.164   0.945   5.034 -1.4500 -5.1115 -0.6987
  465MOL0     H62741  10.291   1.082   5.154  1.4935  2.4283 -2.7707
  465MOL0     H62742  10.379   0.942   5.222 -0.5692  2.1106  1.8630
  465MOL0     H62743  10.538   0.951   5.049 -1.5240 -0.4534 -0.6339
  465MOL0     H62744  10.460   1.102   4.968  3.6019 -0.5859 -1.4160
  465MOL0     H62745  10.560   1.101   5.244 -3.0102 -3.9234 -1.1332
  465MOL0     H62746  10.498   1.242   5.150 -1.0560 -0.5208 -1.9135
  465MOL0     H62747  10.685   1.218   4.985 -0.2274  1.1436 -0.9327
  465MOL0     H62748  10.763   1.103   5.096 -0.0073 -0.6502  1.1732
  465MOL0     H62749  10.683   1.373   5.174 -1.2015 -0.6327 -0.6428
  465MOL0     H62750  10.786   1.263   5.277 -0.3015  2.0374  0.3247
  465MOL0     H62751  10.861   1.387   5.009  0.7407  0.9666 -0.8911
  465MOL0     H62752  10.961   1.278   5.089  1.4430 -0.3492  2.4221
  465MOL0     H62753  10.899   1.566   5.153 -0.6508 -0.1888  2.6083
  465MOL0     H62754  10.928   1.471   5.293  0.0123 -1.9010  0.2414
  465MOL0     H62755  10.241   0.615   5.223  1.2612  1.9540 -0.7773
  465MOL0     H62756  10.059   0.473   5.246  1.7384 -0.7463 -1.2987
  465MOL0     H62757   9.712   0.173   5.335  0.1044 -0.4106  0.6006
  465MOL0     H62758   9.499   0.059   5.332  0.6076  0.6558  1.2474
  465MOL0     H62759   8.105   0.961   5.148 -3.1035 -2.9710  0.9070
  465MOL0     H62760   7.910   0.952   5.305 -0.3878  3.1076 -0.7133
  465MOL0     H62761   7.640   1.130   5.561  0.4801  0.7449  0.5965
  465MOL0     H62762   7.460   1.163   5.702  1.7072  1.6626  1.2591
  465MOL0     H62763   7.438   0.965   6.105  3.3052  0.4033 -1.7210
  465MOL0     H62764   7.390   0.829   6.003 -0.5673 -0.3081  0.5813
  465MOL0     H62765   7.212   1.055   6.124 -2.1453  0.5927 -2.3441
  465MOL0     H62766   7.211   0.886   6.176 -0.9373 -0.2411 -0.5932
  465MOL0     H62767   7.040   0.876   6.030  1.7049  1.4068  2.8129
  465MOL0     H62768   7.168   0.844   5.907  1.5740  1.9725 -0.6628
  465MOL0     H62769   7.021   1.108   5.978 -3.5898 -2.2073 -0.0664
  465MOL0     H62770   7.147   1.098   5.848  1.9783 -1.1159 -0.3721
  465MOL0     H62771   6.842   0.866   5.672 -1.0307  1.5054 -0.7280
  465MOL0     H62772   7.599   0.831   5.947  1.7033 -0.2257 -0.7742
  465MOL0     H62773   7.826   0.698   5.737  0.1343 -3.3689  3.0988
  465MOL0     H62774   7.907   0.841   5.811 -2.0574  1.5810  0.5393
  465MOL0     H62775   7.809   0.739   5.911  0.6028 -1.2669 -0.2495
  466MOL0     O62776   7.345   7.550  10.974 -0.2011  0.7412 -0.1363
  466MOL0     C62777   7.348   7.510  10.855 -0.3135  0.3762  0.1108
  466MOL0     O62778   7.453   7.515  10.779 -0.5157 -0.1219 -0.1468
  466MOL0     C62779   7.568   7.580  10.808 -0.5770 -0.1029 -0.7867
  466MOL0     C62780   7.563   7.721  10.806  0.4694  0.2286  0.1397
  466MOL0     C62781   7.679   7.794  10.828  0.4392  1.5768 -0.0218
  466MOL0     C62782   7.801   7.725  10.866 -0.4153 -0.2175  0.1625
  466MOL0     O62783   7.916   7.779  10.919  0.1606  0.5243 -0.6454
  466MOL0     C62784   7.915   7.921  10.946 -0.2977 -0.8839  0.1468
  466MOL0     C62785   8.034   7.970  11.028 -0.5500 -0.0503 -0.1762
  466MOL0     C62786   8.162   7.944  10.958 -0.6218  0.1861  0.5625
  466MOL0     C62787   8.278   7.970  11.048 -0.9867 -0.8457  0.9005
  466MOL0     C62788   8.408   8.014  10.973  0.5436 -0.0258  0.2104
  466MOL0     C62789   8.416   8.167  10.959 -0.2761  0.0872  0.2089
  466MOL0     C62790   8.555   8.205  10.901  0.4015  1.1680  0.8528
  466MOL0     C62791   8.655   8.229  11.015 -0.1090 -0.9796 -0.1532
  466MOL0     N62792   8.770   8.320  10.985 -0.1440  0.4168  0.9286
  466MOL0     C62793   8.895   8.282  10.934 -0.3161  0.7085  0.3736
  466MOL0     C62794   8.970   8.393  10.922  0.0359  0.8295 -0.1051
  466MOL0     C62795   9.115   8.389  10.874  0.5584 -1.0499  0.3125
  466MOL0     C62796   9.209   8.278  10.928  0.0938 -0.6032 -0.5889
  466MOL0     C62797   9.357   8.281  10.885  0.4064  0.0971 -0.2217
  466MOL0     C62798   9.440   8.400  10.924 -0.6736  0.3271  0.0894
  466MOL0     O62799   9.585   8.391  10.905  0.7431 -0.4693  0.0587
  466MOL0     C62800   9.660   8.354  11.018 -0.8198 -0.1392  0.1195
  466MOL0     C62801   9.797   8.385  11.019  0.2747  0.0326  0.2498
  466MOL0     C62802   9.889   8.336  11.119 -0.2443 -1.1257  1.3221
  466MOL0     C62803   9.840   8.268  11.230 -0.2010 -0.6145 -0.2690
  466MOL0     C62804   9.928   8.231  11.346 -0.3724 -0.0156 -0.0327
  466MOL0     O62805  10.049   8.296  11.337  0.0925  0.8199 -0.3689
  466MOL0     C62806  10.125   8.293  11.445  0.5511 -0.3999  0.0179
  466MOL0     C62807  10.231   8.196  11.460 -0.2201  0.0549  0.4600
  466MOL0     C62808  10.312   8.198  11.574 -0.5299  0.0017  1.1144
  466MOL0     C62809  10.284   8.288  11.675  0.0659  0.4347 -0.5646
  466MOL0     O62810  10.347   8.281  11.803  0.1672  0.2829 -0.3788
  466MOL0     C62811  10.408   8.167  11.850  0.0949 -0.1439 -0.8038
  466MOL0     C62812  10.477   8.201  11.990 -0.2797  0.5061  0.3016
  466MOL0     C62813  10.523   8.065  12.048 -0.3798 -0.6996  0.3360
  466MOL0     C62814  10.659   8.015  11.990  0.8141  0.0302 -0.7266
  466MOL0     C62815  10.717   7.883  12.060  0.5318 -0.1996  1.2222
  466MOL0     C62816  10.836   7.822  11.985  0.9456  0.6296 -0.4124
  466MOL0     C62817  10.878   7.692  12.051  0.1329  0.3929 -0.9093
  466MOL0     C62818  10.982   7.600  11.962  0.4315 -0.0726  0.7751
  466MOL0    Cl62819  11.063   7.481  12.062  0.0075 -0.0229 -0.4174
  466MOL0     C62820  10.187   8.388  11.658  0.1780 -0.5996  0.3320
  466MOL0     C62821  10.112   8.385  11.548 -0.2076 -0.1344 -0.5735
  466MOL0     O62822   9.894   8.160  11.440 -0.4069  0.2666 -0.3806
  466MOL0     C62823   9.701   8.249  11.234 -0.3539 -0.1260  0.1876
  466MOL0     C62824   9.612   8.282  11.125  0.3805 -0.1929 -1.2222
  466MOL0     N62825   8.879   8.499  10.952  0.5512  0.0559  0.0744
  466MOL0     N62826   8.765   8.451  10.982  0.8101 -0.4105 -0.1245
  466MOL0     C62827   7.799   7.594  10.865 -0.6020  1.1377  0.4576
  466MOL0     C62828   7.688   7.517  10.846 -0.1533  0.1626  1.1532
  466MOL0     C62829   7.219   7.450  10.797 -0.5308  0.0880 -0.6701
  466MOL0     C62830   7.212   7.439  10.653 -0.2074 -0.2396  0.0441
  466MOL0     C62831   7.102   7.385  10.591  0.1213 -0.8188  0.3830
  466MOL0     C62832   6.985   7.365  10.668 -0.5957 -0.2027  0.1631
  466MOL0     O62833   6.867   7.331  10.611 -0.0145 -0.3282  0.3223
  466MOL0     C62834   6.823   7.196  10.654 -0.1929  0.4087 -0.4222
  466MOL0     C62835   6.832   7.097  10.540  0.4601  0.2459  0.9841
  466MOL0     C62836   6.724   7.142  10.444  0.5454 -0.2880  0.1486
  466MOL0     C62837   6.733   7.059  10.309  0.4118 -0.4891 -0.1306
  466MOL0     C62838   6.618   7.089  10.227 -0.4878 -0.2098 -0.9560
  466MOL0     C62839   6.537   7.112  10.145 -0.6680 -0.0836  0.2326
  466MOL0     C62840   6.990   7.383  10.806 -0.9167  0.3009 -0.1565
  466MOL0     C62841   7.104   7.421  10.872 -0.1164 -0.5627  0.0432
  466MOL0     C62842   7.093   7.446  11.018 -0.5414 -0.0341  0.1475
  466MOL0     H62843   7.471   7.772  10.780 -0.5869 -0.1795  2.7626
  466MOL0     H62844   7.691   7.902  10.825 -0.1746  1.6531 -3.4610
  466MOL0     H62845   7.915   7.978  10.853  0.8281  0.7404  1.0799
  466MOL0     H62846   7.821   7.952  10.991  0.2219  0.1946  0.5181
  466MOL0     H62847   8.024   7.925  11.127 -0.0369 -2.9059 -1.3253
  466MOL0     H62848   8.040   8.077  11.052 -1.6253 -0.5653  2.7693
  466MOL0     H62849   8.163   8.009  10.871  0.8007 -0.5359  0.0055
  466MOL0     H62850   8.160   7.840  10.923 -1.9354  0.1598  0.6414
  466MOL0     H62851   8.247   8.051  11.115 -1.3772  1.7793 -2.1966
  466MOL0     H62852   8.304   7.878  11.101 -1.1555 -0.9715  0.7624
  466MOL0     H62853   8.491   7.980  11.036  0.1707  2.2133  2.0118
  466MOL0     H62854   8.411   7.968  10.873  0.4779 -0.3656  0.3626
  466MOL0     H62855   8.331   8.193  10.895 -2.1615 -2.0840  1.6569
  466MOL0     H62856   8.385   8.227  11.045 -0.8206  0.9822 -0.5852
  466MOL0     H62857   8.534   8.289  10.835 -1.5345 -0.0439 -0.1792
  466MOL0     H62858   8.590   8.128  10.832 -1.0035 -0.1228  1.5126
  466MOL0     H62859   8.609   8.277  11.102  0.2758 -0.0198 -0.4691
  466MOL0     H62860   8.686   8.128  11.040 -0.5678 -1.3740 -1.1227
  466MOL0     H62861   8.925   8.179  10.917 -0.2732  1.0519 -2.0399
  466MOL0     H62862   9.096   8.370  10.768 -1.7037 -3.8270  1.0816
  466MOL0     H62863   9.157   8.489  10.885 -0.2830 -0.5684 -0.7106
  466MOL0     H62864   9.200   8.282  11.037  1.5915 -0.3093 -0.4451
  466MOL0     H62865   9.167   8.181  10.899  1.3614 -1.5819  0.7020
  466MOL0     H62866   9.361   8.275  10.776  0.9150  1.9366 -0.3352
  466MOL0     H62867   9.409   8.191  10.920  0.8217  0.5233  0.2735
  466MOL0     H62868   9.417   8.445  11.021  2.8093  0.7531  0.8576
  466MOL0     H62869   9.416   8.482  10.856  0.7055  0.0043 -0.8165
  466MOL0     H62870   9.837   8.439  10.934  2.5211 -0.6754  0.7968
  466MOL0     H62871   9.994   8.356  11.103 -0.6347 -0.3250 -0.5041
  466MOL0     H62872  10.242   8.109  11.396  0.0453 -2.9777  4.2619
  466MOL0     H62873  10.403   8.139  11.585  1.0020  2.3274  1.6189
  466MOL0     H62874  10.353   8.073  11.858  0.7692 -0.4356  0.7756
  466MOL0     H62875  10.485   8.142  11.777  0.0920  0.0461 -0.8729
  466MOL0     H62876  10.563   8.268  11.977 -1.3140  2.0314  0.9635
  466MOL0     H62877  10.402   8.244  12.057 -0.8252 -1.2452  0.8518
  466MOL0     H62878  10.537   8.087  12.155 -1.8488  2.3534  0.0144
  466MOL0     H62879  10.440   7.996  12.032 -0.1732 -0.8369 -0.1575
  466MOL0     H62880  10.737   8.091  11.993  1.7044 -0.9084  0.7904
  466MOL0     H62881  10.639   7.989  11.885  1.4845 -0.9051 -0.6365
  466MOL0     H62882  10.643   7.806  12.080 -1.5864  1.4223  0.0269
  466MOL0     H62883  10.744   7.916  12.161  1.3565 -0.2411  1.0282
  466MOL0     H62884  10.802   7.806  11.883 -2.3324  2.9841  0.1443
  466MOL0     H62885  10.925   7.886  11.979  2.4806 -0.9681  2.6158
  466MOL0     H62886  10.792   7.628  12.076 -1.4211  3.3068  2.0581
  466MOL0     H62887  10.930   7.712  12.145  0.3310 -2.1179 -0.4362
  466MOL0     H62888  10.927   7.542  11.887 -0.1100 -1.3491  2.1246
  466MOL0     H62889  11.055   7.660  11.906  0.3713  0.2396  1.0278
  466MOL0     H62890  10.169   8.454  11.743  0.0708  0.6926 -0.6518
  466MOL0     H62891  10.025   8.448  11.531  0.5794  0.9706 -0.5758
  466MOL0     H62892   9.654   8.193  11.314 -3.4514 -2.4842 -2.9467
  466MOL0     H62893   9.507   8.254  11.129  0.9912 -2.5395  0.9231
  466MOL0     H62894   7.885   7.534  10.895 -2.6405 -1.3789  1.7602
  466MOL0     H62895   7.684   7.410  10.862  3.7844 -0.7473 -2.1505
  466MOL0     H62896   7.301   7.473  10.602 -0.9631  1.5767 -0.1341
  466MOL0     H62897   7.106   7.371  10.484  1.1213 -0.9209  0.4167
  466MOL0     H62898   6.723   7.199  10.697  0.8336 -1.3354  2.3713
  466MOL0     H62899   6.890   7.161  10.733  0.6129  0.3393 -1.1146
  466MOL0     H62900   6.804   6.997  10.576  0.0131  0.1538  0.3974
  466MOL0     H62901   6.932   7.090  10.495  0.1786  0.2910  0.3361
  466MOL0     H62902   6.736   7.249  10.423  2.9631 -0.5097  0.1421
  466MOL0     H62903   6.624   7.146  10.487 -0.2215 -0.7290 -1.4887
  466MOL0     H62904   6.823   7.078  10.250  0.0088 -0.2708 -0.6785
  466MOL0     H62905   6.731   6.950  10.317 -0.9478 -0.5057 -0.6076
  466MOL0     H62906   6.463   7.160  10.083 -1.0622 -0.5832  0.3113
  466MOL0     H62907   6.908   7.371  10.876 -0.7751  4.0564  0.8765
  466MOL0     H62908   7.172   7.398  11.077  0.6231  3.1016  1.3861
  466MOL0     H62909   7.100   7.554  11.037  0.1788 -0.0380 -0.0689
  466MOL0     H62910   6.991   7.421  11.048 -0.9179  0.7467 -0.4465
  467MOL0     O62911   0.058  10.417   4.462  0.2945  0.7827  0.6413
  467MOL0     C62912  -0.013  10.316   4.492  0.1260  0.0142 -0.3573
  467MOL0     O62913   0.032  10.205   4.569  0.4102  0.2142  0.1878
  467MOL0     C62914   0.164  10.203   4.602 -0.1575  0.1483 -0.6862
  467MOL0     C62915   0.190  10.191   4.744  0.4417 -0.4271 -0.5651
  467MOL0     C62916   0.320  10.227   4.792 -0.4579 -0.1366  0.3555
  467MOL0     C62917   0.424  10.247   4.697 -0.1954 -0.6664 -0.8463
  467MOL0     O62918   0.547  10.255   4.759 -0.3554 -0.3824 -0.3088
  467MOL0     C62919   0.656  10.190   4.692 -0.4051  0.2120  0.2831
  467MOL0     C62920   0.744  10.108   4.792  0.0313  0.6995  0.4155
  467MOL0     C62921   0.808  10.198   4.896 -0.1636  0.4698 -0.3782
  467MOL0     C62922   0.952  10.256   4.860  0.4169 -0.1349 -0.2223
  467MOL0     C62923   1.003  10.361   4.961 -0.0393 -0.3046 -0.4961
  467MOL0     C62924   1.145  10.401   4.943  0.2550  0.6006  0.6155
  467MOL0     C62925   1.174  10.518   5.020 -0.6001 -0.5481 -0.0285
  467MOL0     C62926   1.146  10.656   4.957 -0.7344  1.2145  0.3170
  467MOL0     N62927   1.222  10.770   5.015 -0.6074  0.3341 -0.4801
  467MOL0     C62928   1.192  10.846   5.129  1.1222 -0.0002  0.4737
  467MOL0     C62929   1.295  10.929   5.136 -0.5563  0.1743 -0.6891
  467MOL0     C62930   1.311  11.044   5.239 -0.2595 -0.3386  0.6122
  467MOL0     C62931   1.438  11.036   5.318  0.0793 -0.4549  0.9186
  467MOL0     C62932   1.571  11.051   5.255 -0.1315 -0.7974  0.9360
  467MOL0     C62933   1.679  11.114   5.336 -0.1870 -0.1407 -0.3687
  467MOL0     O62934   1.652  11.260   5.331  0.6307  0.2208  0.4079
  467MOL0     C62935   1.758  11.344   5.340  0.2258  0.4884  0.4774
  467MOL0     C62936   1.720  11.476   5.376 -0.8887  0.3260  0.6370
  467MOL0     C62937   1.823  11.569   5.399  0.7856 -0.3306  0.0993
  467MOL0     C62938   1.956  11.535   5.382  0.4708  0.1316  0.4177
  467MOL0     C62939   2.064  11.636   5.408  0.3935 -1.0939  0.5995
  467MOL0     O62940   2.029  11.765   5.454  0.2165  0.7501 -0.3085
  467MOL0     C62941   2.121  11.870   5.447 -0.6248 -0.4586  0.7777
  467MOL0     C62942   2.135  11.930   5.565  0.7782 -0.1175 -0.4610
  467MOL0     C62943   2.228  12.029   5.582 -0.8213  0.3469 -0.1292
  467MOL0     C62944   2.301  12.080   5.472  0.0343  1.2278  0.3093
  467MOL0     O62945   2.396  12.172   5.483 -0.3392 -0.2277  0.4335
  467MOL0     C62946   2.376  12.263   5.593 -0.0479 -0.6680  0.7496
  467MOL0     C62947   2.473  12.379   5.596 -0.0517 -0.0718  0.2170
  467MOL0     C62948   2.619  12.345   5.560 -0.5806 -0.0164  0.7894
  467MOL0     C62949   2.706  12.471   5.534  1.0413 -0.4458  0.2224
  467MOL0     C62950   2.852  12.440   5.529  0.5436  0.3140  0.2036
  467MOL0     C62951   2.920  12.561   5.460 -0.6803  0.7572  0.0622
  467MOL0     C62952   3.070  12.526   5.429  0.3813 -0.6525  0.1331
  467MOL0     C62953   3.120  12.655   5.368  0.6291 -0.9918  0.0035
  467MOL0    Cl62954   3.292  12.623   5.308  0.2306  0.0992 -0.1261
  467MOL0     C62955   2.281  12.025   5.345 -0.0375 -0.3159 -0.3081
  467MOL0     C62956   2.194  11.912   5.336 -0.7136 -0.1596  0.3637
  467MOL0     O62957   2.172  11.608   5.358 -0.0753 -0.2563  0.1944
  467MOL0     C62958   1.996  11.402   5.345 -0.0181 -0.8364 -0.5192
  467MOL0     C62959   1.894  11.306   5.343 -0.2543 -0.8561  0.1325
  467MOL0     N62960   1.386  10.906   5.029  0.6310  0.6762  0.1084
  467MOL0     N62961   1.342  10.814   4.958  0.4438  0.1498  0.3098
  467MOL0     C62962   0.398  10.237   4.560 -0.0760  0.3972 -0.0871
  467MOL0     C62963   0.268  10.225   4.511 -0.0056 -0.4345 -0.1399
  467MOL0     C62964  -0.150  10.318   4.439 -0.2896 -0.8575 -0.2167
  467MOL0     C62965  -0.215  10.192   4.437 -0.4923  0.0250 -0.3652
  467MOL0     C62966  -0.342  10.171   4.375  0.4683  0.3050  0.2644
  467MOL0     C62967  -0.416  10.282   4.335 -0.5320 -0.0325 -0.3319
  467MOL0     O62968  -0.537  10.278   4.274  0.6844 -0.5702 -0.1826
  467MOL0     C62969  -0.602  10.148   4.257  0.0976  0.6750 -0.0185
  467MOL0     C62970  -0.748  10.157   4.209  0.4596  0.5312  0.4835
  467MOL0     C62971  -0.771  10.222   4.074  0.1544 -0.8853 -0.1504
  467MOL0     C62972  -0.777  10.130   3.950 -0.6189  0.0191 -0.7951
  467MOL0     C62973  -0.889  10.163   3.861  0.4292  0.0088 -0.9699
  467MOL0     C62974  -0.974  10.193   3.788  0.2857  0.3537  0.4332
  467MOL0     C62975  -0.350  10.404   4.341  0.9555 -0.4550 -0.0673
  467MOL0     C62976  -0.223  10.425   4.390  0.1919 -1.0669 -0.2252
  467MOL0     C62977  -0.176  10.565   4.386  0.2007 -0.7880  0.0541
  467MOL0     H62978   0.103  10.168   4.804  1.5489 -0.5042  1.0669
  467MOL0     H62979   0.330  10.240   4.899  3.8445 -2.1877  0.4228
  467MOL0     H62980   0.622  10.127   4.610  0.3058  0.6043 -0.3277
  467MOL0     H62981   0.716  10.271   4.651  0.7448  0.1578  1.7802
  467MOL0     H62982   0.826  10.057   4.741  0.8764  1.2366  1.1955
  467MOL0     H62983   0.688  10.025   4.837 -2.1776  0.9595 -1.6578
  467MOL0     H62984   0.822  10.153   4.995 -0.6931  1.2973  0.0911
  467MOL0     H62985   0.748  10.290   4.902 -2.3484 -0.9894  2.1510
  467MOL0     H62986   1.021  10.171   4.855 -0.9093 -1.2894  0.2534
  467MOL0     H62987   0.954  10.300   4.760 -1.7979 -3.4138 -1.8890
  467MOL0     H62988   0.938  10.447   4.942  0.5573  0.5941  1.3483
  467MOL0     H62989   0.988  10.333   5.065  0.5809  0.0180 -0.3192
  467MOL0     H62990   1.210  10.316   4.969  0.7725  0.5319 -0.8073
  467MOL0     H62991   1.174  10.429   4.841  1.7303  1.7815  1.3207
  467MOL0     H62992   1.283  10.519   5.032 -0.3682  1.4562 -1.7990
  467MOL0     H62993   1.141  10.504   5.124  0.0338  0.2427  0.2906
  467MOL0     H62994   1.173  10.643   4.852 -2.1883  1.0806 -0.0650
  467MOL0     H62995   1.038  10.678   4.955 -0.7397  1.1811  0.2458
  467MOL0     H62996   1.105  10.854   5.193 -0.7674  0.2896 -1.9868
  467MOL0     H62997   1.321  11.135   5.180 -1.5072  0.3290  1.3874
  467MOL0     H62998   1.225  11.048   5.306 -0.6406  2.2998  0.0843
  467MOL0     H62999   1.439  11.110   5.399 -1.7797  0.6059  0.0348
  467MOL0     H63000   1.439  10.939   5.367 -0.6347 -1.8779 -1.7020
  467MOL0     H63001   1.564  11.110   5.163  0.4285 -2.0303  0.0647
  467MOL0     H63002   1.603  10.954   5.216  0.0292  0.2547 -1.8030
  467MOL0     H63003   1.777  11.091   5.292 -0.7167 -0.8098 -1.2255
  467MOL0     H63004   1.681  11.069   5.436  0.4902 -3.2268 -1.6500
  467MOL0     H63005   1.613  11.494   5.375 -1.2282 -1.5049  0.4408
  467MOL0     H63006   1.786  11.667   5.426  2.5320  0.1507  0.8392
  467MOL0     H63007   2.099  11.893   5.661 -0.4644  0.8010 -0.5449
  467MOL0     H63008   2.237  12.063   5.685 -1.2262 -2.8557  1.0814
  467MOL0     H63009   2.277  12.309   5.593 -0.2594 -0.8302  4.1914
  467MOL0     H63010   2.388  12.207   5.686  1.1606  1.4346  1.9423
  467MOL0     H63011   2.428  12.451   5.528  2.3070  2.0171  0.7311
  467MOL0     H63012   2.471  12.429   5.693 -1.8318 -0.6196  0.4988
  467MOL0     H63013   2.663  12.288   5.642  1.4495 -0.9407 -0.8681
  467MOL0     H63014   2.631  12.292   5.465 -0.2720  1.8898 -0.2756
  467MOL0     H63015   2.699  12.546   5.614 -0.4561  1.5848 -1.6767
  467MOL0     H63016   2.680  12.525   5.442  0.6091  0.5173  0.8864
  467MOL0     H63017   2.875  12.345   5.479  1.1646  0.0652  0.9375
  467MOL0     H63018   2.884  12.432   5.633 -1.0990 -0.4361  0.6757
  467MOL0     H63019   2.865  12.578   5.367 -0.4422  1.2780  0.0143
  467MOL0     H63020   2.915  12.652   5.519  1.7663  1.8146 -1.2016
  467MOL0     H63021   3.076  12.436   5.367  1.4800 -0.3135 -0.2646
  467MOL0     H63022   3.113  12.498   5.526 -1.8601  0.0667  1.4085
  467MOL0     H63023   3.075  12.687   5.273  3.0087  0.0168 -0.8558
  467MOL0     H63024   3.118  12.735   5.443  2.9959  0.1040 -1.0136
  467MOL0     H63025   2.336  12.060   5.258 -0.3232  0.3974 -0.2079
  467MOL0     H63026   2.170  11.857   5.246  0.3931  0.0900 -0.0989
  467MOL0     H63027   2.100  11.372   5.340  0.8650  1.9734 -0.6675
  467MOL0     H63028   1.939  11.208   5.350 -0.1843 -0.7182  2.3085
  467MOL0     H63029   0.481  10.256   4.493 -0.4053 -0.1569 -0.6664
  467MOL0     H63030   0.246  10.230   4.405  0.7095 -0.5026 -0.2934
  467MOL0     H63031  -0.167  10.102   4.474 -2.6013  0.2851  3.5711
  467MOL0     H63032  -0.387  10.073   4.362 -0.4865  1.0023 -2.1135
  467MOL0     H63033  -0.600  10.098   4.354 -1.6893  1.4880  0.4991
  467MOL0     H63034  -0.544  10.083   4.192  2.4365 -1.2467  3.6614
  467MOL0     H63035  -0.803  10.219   4.282  0.0861 -0.1853  0.8188
  467MOL0     H63036  -0.791  10.057   4.207 -0.3861  0.8912 -1.2177
  467MOL0     H63037  -0.700  10.306   4.070 -1.3045  0.5870  2.1991
  467MOL0     H63038  -0.856  10.291   4.082  1.9611  1.8621 -2.4902
  467MOL0     H63039  -0.681  10.137   3.898  1.2412 -1.7658  2.1462
  467MOL0     H63040  -0.786  10.029   3.991  0.8083  0.2596  0.2046
  467MOL0     H63041  -1.046  10.210   3.710 -1.7982 -0.2708  2.1356
  467MOL0     H63042  -0.417  10.480   4.302  2.3945 -0.0224 -1.8242
  467MOL0     H63043  -0.230  10.634   4.320  4.2106 -0.4619 -3.3165
  467MOL0     H63044  -0.175  10.606   4.487  1.1653  0.6275 -0.4942
  467MOL0     H63045  -0.077  10.576   4.341  0.3770  6.1500  0.9880
  468MOL0     O63046   7.564   4.523   4.391  0.8767 -0.3381 -0.4715
  468MOL0     C63047   7.575   4.412   4.334 -1.1818  0.2651 -0.2222
  468MOL0     O63048   7.693   4.352   4.297 -0.2327 -0.4204 -0.0147
  468MOL0     C63049   7.802   4.427   4.264 -0.4981  0.4002 -0.0389
  468MOL0     C63050   7.926   4.360   4.275  0.4822  0.2339  0.2207
  468MOL0     C63051   8.045   4.417   4.244 -0.1844  0.5867  0.1824
  468MOL0     C63052   8.049   4.548   4.192  0.5332  0.3501  0.2868
  468MOL0     O63053   8.160   4.622   4.154  0.1401  0.1127 -0.2514
  468MOL0     C63054   8.285   4.544   4.134  0.5189 -0.8880 -0.5866
  468MOL0     C63055   8.386   4.651   4.082 -0.8426  0.4673 -0.7225
  468MOL0     C63056   8.492   4.595   3.986  0.0892  0.3822  0.8839
  468MOL0     C63057   8.583   4.697   3.923 -0.6074 -0.1099  0.1274
  468MOL0     C63058   8.652   4.658   3.788  0.5519  0.2483 -0.2748
  468MOL0     C63059   8.683   4.514   3.776 -1.8074 -0.5831  0.0240
  468MOL0     C63060   8.783   4.493   3.650  0.7218  0.5185  0.3929
  468MOL0     C63061   8.878   4.375   3.680  0.2410  0.0573  0.5819
  468MOL0     N63062   8.962   4.350   3.559  0.8673  1.1352  0.7690
  468MOL0     C63063   9.079   4.412   3.526 -0.1753 -0.0999  0.2808
  468MOL0     C63064   9.114   4.366   3.399 -0.1431  0.6633 -0.1328
  468MOL0     C63065   9.246   4.386   3.336  0.3207  0.3167 -0.0150
  468MOL0     C63066   9.333   4.262   3.354 -1.0080  0.4760 -0.2059
  468MOL0     C63067   9.371   4.221   3.497 -0.8812 -0.4635  0.4549
  468MOL0     C63068   9.438   4.075   3.493  0.6242 -1.0752  0.0508
  468MOL0     O63069   9.494   4.054   3.621  0.1096  0.0985  0.1685
  468MOL0     C63070   9.622   4.105   3.644 -0.0032 -1.0168 -0.6912
  468MOL0     C63071   9.701   4.155   3.552  0.0981  0.3099  1.0032
  468MOL0     C63072   9.821   4.219   3.591  0.1161 -0.3800 -0.0514
  468MOL0     C63073   9.871   4.212   3.720  0.4715  0.3402 -0.1146
  468MOL0     C63074   9.990   4.290   3.763  0.6689  0.0201 -0.4683
  468MOL0     O63075  10.008   4.306   3.893  0.6362 -0.0014  0.5093
  468MOL0     C63076  10.116   4.358   3.956  0.0884  0.4091  0.6779
  468MOL0     C63077  10.097   4.357   4.096 -1.1332  0.1469  0.5842
  468MOL0     C63078  10.205   4.388   4.178 -0.4423 -0.3255 -1.4306
  468MOL0     C63079  10.327   4.426   4.129  0.1363 -1.2624 -0.5812
  468MOL0     O63080  10.430   4.456   4.210 -0.0203 -0.3277 -0.1766
  468MOL0     C63081  10.464   4.361   4.305  0.1410  0.3059  0.0323
  468MOL0     C63082  10.583   4.411   4.392  0.7862  0.1064 -0.5711
  468MOL0     C63083  10.717   4.439   4.323 -0.2167 -0.0504  0.3446
  468MOL0     C63084  10.719   4.557   4.233  0.1190  0.1121  0.6314
  468MOL0     C63085  10.864   4.590   4.216 -1.2338  0.0959  0.5410
  468MOL0     C63086  10.897   4.682   4.096  0.4728  0.2949 -0.3712
  468MOL0     C63087  11.037   4.676   4.039 -0.0006 -0.7126  0.5301
  468MOL0     C63088  11.036   4.771   3.924 -0.8624 -0.7411  0.8667
  468MOL0    Cl63089  10.931   4.715   3.778 -0.3259 -0.1680  0.0542
  468MOL0     C63090  10.352   4.428   3.995  0.2349  0.9175  0.5980
  468MOL0     C63091  10.245   4.393   3.906 -0.0389  0.3639 -0.1569
  468MOL0     O63092  10.064   4.327   3.673  0.4256  0.8857 -0.2403
  468MOL0     C63093   9.792   4.137   3.818 -1.2715 -0.6838 -0.0118
  468MOL0     C63094   9.670   4.087   3.770 -0.1730  0.5588 -1.3911
  468MOL0     N63095   9.023   4.265   3.371 -0.6297  0.4136 -0.0968
  468MOL0     N63096   8.929   4.263   3.459 -0.4332  0.1324  0.4045
  468MOL0     C63097   7.926   4.617   4.179 -0.2840  1.0768 -0.7469
  468MOL0     C63098   7.803   4.557   4.218 -0.5331 -0.0604 -1.3574
  468MOL0     C63099   7.450   4.337   4.303  0.3008 -0.3770 -0.8129
  468MOL0     C63100   7.365   4.397   4.215  0.5623 -0.7347 -0.4191
  468MOL0     C63101   7.255   4.310   4.178  0.1031 -0.6170  0.1385
  468MOL0     C63102   7.227   4.188   4.234 -0.5732  0.1574 -0.7916
  468MOL0     O63103   7.119   4.120   4.175 -0.2275 -0.5390 -0.5734
  468MOL0     C63104   7.056   4.026   4.259 -1.5791 -0.1141  0.8398
  468MOL0     C63105   6.912   4.045   4.236  0.0629 -0.3630  0.9471
  468MOL0     C63106   6.869   4.033   4.085 -0.5964 -0.6149 -0.1191
  468MOL0     C63107   6.856   4.170   4.014  0.5327  0.3894 -0.5104
  468MOL0     C63108   6.807   4.153   3.883  0.0670  0.2758 -0.3766
  468MOL0     C63109   6.764   4.162   3.770 -0.0739  0.0846  0.1815
  468MOL0     C63110   7.311   4.152   4.339  0.3502  0.7686 -0.4471
  468MOL0     C63111   7.426   4.221   4.369 -0.4290 -1.3181 -0.0258
  468MOL0     C63112   7.511   4.166   4.485  0.1056  0.0964  0.9365
  468MOL0     H63113   7.925   4.256   4.305 -5.5502  0.2474  1.4584
  468MOL0     H63114   8.129   4.349   4.247 -1.2159 -0.7282  0.5404
  468MOL0     H63115   8.306   4.509   4.236  1.8093  3.2500  0.7931
  468MOL0     H63116   8.284   4.460   4.065  2.3666  0.4118 -2.3234
  468MOL0     H63117   8.434   4.701   4.166 -1.8826 -1.1789  0.9392
  468MOL0     H63118   8.325   4.729   4.036 -1.6327 -0.7262 -1.7773
  468MOL0     H63119   8.439   4.547   3.903 -0.7668  3.9913 -0.9053
  468MOL0     H63120   8.556   4.521   4.035  0.0537 -0.9260 -0.9643
  468MOL0     H63121   8.520   4.776   3.881 -1.2050 -1.4842 -1.7169
  468MOL0     H63122   8.661   4.729   3.992  0.4427 -3.5490  0.7340
  468MOL0     H63123   8.587   4.677   3.702  0.4285 -1.8434 -0.6792
  468MOL0     H63124   8.747   4.713   3.789  1.3467 -1.0903  0.6160
  468MOL0     H63125   8.742   4.484   3.863  0.2360 -3.0388 -2.0162
  468MOL0     H63126   8.593   4.453   3.767 -2.7399  0.8379 -0.6461
  468MOL0     H63127   8.844   4.580   3.622  0.0624  1.4220  1.6295
  468MOL0     H63128   8.716   4.460   3.570 -1.0594 -1.7735  2.6569
  468MOL0     H63129   8.946   4.397   3.763  0.8105  0.0723  0.1126
  468MOL0     H63130   8.810   4.290   3.694 -0.6710  0.6203 -0.2804
  468MOL0     H63131   9.124   4.488   3.589 -0.6543  1.5782 -1.3213
  468MOL0     H63132   9.234   4.405   3.229  2.9853 -1.5130 -0.7573
  468MOL0     H63133   9.280   4.479   3.382  0.1825 -1.0629  3.1104
  468MOL0     H63134   9.284   4.177   3.305  0.4989 -1.2831  1.1926
  468MOL0     H63135   9.428   4.264   3.300 -0.6516 -0.7259  0.3394
  468MOL0     H63136   9.289   4.218   3.569  0.8092 -0.6504  2.4561
  468MOL0     H63137   9.448   4.286   3.539 -3.1460  1.6927  1.5093
  468MOL0     H63138   9.500   4.048   3.407  5.2790 -0.0512  2.7292
  468MOL0     H63139   9.350   4.011   3.492  1.0552 -1.7098  0.9442
  468MOL0     H63140   9.682   4.165   3.446  1.6348 -2.6577  0.3272
  468MOL0     H63141   9.871   4.283   3.519  1.4428 -0.0889  1.0841
  468MOL0     H63142  10.004   4.323   4.140 -0.0429 -2.9830  0.6851
  468MOL0     H63143  10.183   4.401   4.284  0.5183  0.7842 -1.3456
  468MOL0     H63144  10.387   4.319   4.369 -1.3617  1.5417 -0.8968
  468MOL0     H63145  10.506   4.275   4.252  1.1124 -0.0811  1.3736
  468MOL0     H63146  10.542   4.494   4.451 -0.0907  0.3528 -1.5011
  468MOL0     H63147  10.601   4.330   4.463  1.7957  0.5508 -0.3028
  468MOL0     H63148  10.794   4.454   4.399  0.6966  2.0122 -0.8830
  468MOL0     H63149  10.737   4.351   4.261 -1.5616 -0.6557  0.7357
  468MOL0     H63150  10.662   4.643   4.269  0.6260  0.6436  0.1707
  468MOL0     H63151  10.679   4.532   4.134  0.3970  3.5256 -0.4391
  468MOL0     H63152  10.910   4.492   4.203 -2.4749 -1.2864  4.9327
  468MOL0     H63153  10.912   4.639   4.301 -1.7191  2.1647 -0.3027
  468MOL0     H63154  10.823   4.663   4.018  0.2772 -2.3619  0.3785
  468MOL0     H63155  10.876   4.784   4.131  1.7972  1.9367 -3.8594
  468MOL0     H63156  11.050   4.579   3.990  2.5238  0.0907 -0.5874
  468MOL0     H63157  11.108   4.693   4.120 -0.5030  0.8033  0.6890
  468MOL0     H63158  11.013   4.873   3.955  0.3526  0.8080 -2.7826
  468MOL0     H63159  11.138   4.781   3.884 -1.9027  3.0969 -1.2728
  468MOL0     H63160  10.453   4.443   3.959  0.5027  0.3722  1.0982
  468MOL0     H63161  10.268   4.399   3.800  0.4879  0.5961 -0.0315
  468MOL0     H63162   9.821   4.137   3.922 -0.4813  1.2696 -0.1888
  468MOL0     H63163   9.615   4.041   3.851  1.0500  0.3964 -0.6201
  468MOL0     H63164   7.944   4.720   4.151  1.0190  1.9693  2.7469
  468MOL0     H63165   7.709   4.610   4.206 -0.1874  1.6150  2.0433
  468MOL0     H63166   7.384   4.499   4.184 -0.7452  0.0326  1.1650
  468MOL0     H63167   7.188   4.344   4.099  1.3849  1.0125 -0.3134
  468MOL0     H63168   7.074   4.045   4.365  1.4376 -2.1317  0.8211
  468MOL0     H63169   7.091   3.925   4.238 -2.8245 -0.3368 -0.2521
  468MOL0     H63170   6.891   4.149   4.264  1.3807  0.7125 -1.7471
  468MOL0     H63171   6.851   3.975   4.295  0.4931 -0.1152  1.6961
  468MOL0     H63172   6.770   3.986   4.085 -2.6460  3.2309  0.1168
  468MOL0     H63173   6.944   3.974   4.032  0.1906 -1.0090  1.3748
  468MOL0     H63174   6.780   4.233   4.061 -0.7545  0.9872 -3.2038
  468MOL0     H63175   6.950   4.225   4.020 -0.2523  1.8943 -1.4063
  468MOL0     H63176   6.735   4.168   3.667 -1.5820  0.0167  0.5863
  468MOL0     H63177   7.290   4.068   4.405  2.0037  0.9777  0.3933
  468MOL0     H63178   7.609   4.213   4.495  1.1340 -2.1470  2.4320
  468MOL0     H63179   7.468   4.171   4.585 -0.7284 -1.4569  0.6883
  468MOL0     H63180   7.514   4.058   4.464  0.5252  0.2894 -0.0563
  469MOL0     O63181   3.450   5.715   5.329 -0.0765 -0.0040  0.1113
  469MOL0     C63182   3.486   5.681   5.218 -0.6435 -0.0484  0.2740
  469MOL0     O63183   3.602   5.716   5.163 -0.7994  0.5009  0.6750
  469MOL0     C63184   3.695   5.801   5.211  0.1096 -0.7985 -0.6881
  469MOL0     C63185   3.693   5.878   5.323  0.4297 -0.3893  0.4834
  469MOL0     C63186   3.804   5.939   5.374  0.7200 -1.0359 -0.5769
  469MOL0     C63187   3.928   5.933   5.307  0.4637 -0.0109 -0.3328
  469MOL0     O63188   4.040   5.988   5.358 -0.0354  0.0192 -0.3423
  469MOL0     C63189   4.174   5.943   5.314 -0.8975  0.6057 -0.0059
  469MOL0     C63190   4.285   5.995   5.413 -0.3977  0.0489  0.1529
  469MOL0     C63191   4.419   5.925   5.392 -0.6045  0.2004 -0.4059
  469MOL0     C63192   4.534   6.000   5.459 -0.8188 -0.6802 -0.0121
  469MOL0     C63193   4.672   5.928   5.443  1.0057  0.2517 -0.8121
  469MOL0     C63194   4.767   5.989   5.550  0.1649 -0.8115 -0.6088
  469MOL0     C63195   4.901   5.927   5.568  0.7671  0.1787  0.0639
  469MOL0     C63196   4.888   5.802   5.650  0.2937  0.5715  0.2691
  469MOL0     N63197   5.006   5.716   5.636  0.8854  0.4051 -0.6396
  469MOL0     C63198   5.141   5.748   5.649 -0.2146 -0.3124 -0.4231
  469MOL0     C63199   5.205   5.633   5.670 -0.2704  0.5901  0.4042
  469MOL0     C63200   5.354   5.604   5.679 -0.4543  0.4456  0.5326
  469MOL0     C63201   5.431   5.604   5.550  0.6018 -0.5295  0.4698
  469MOL0     C63202   5.570   5.527   5.569 -0.2167 -0.2685  0.3541
  469MOL0     C63203   5.685   5.589   5.489 -0.7479  0.0518  0.7655
  469MOL0     O63204   5.711   5.721   5.524  0.5892  0.5580 -0.2446
  469MOL0     C63205   5.838   5.767   5.505  0.6413 -0.2709 -0.2593
  469MOL0     C63206   5.915   5.720   5.404 -0.8988  0.0137  0.4943
  469MOL0     C63207   6.045   5.781   5.386 -0.2584 -0.5123 -0.4428
  469MOL0     C63208   6.083   5.892   5.463 -0.1385  0.4244  1.1113
  469MOL0     C63209   6.217   5.940   5.446  0.8241 -0.3754 -0.2267
  469MOL0     O63210   6.228   6.070   5.478 -0.5203 -1.4679  0.2314
  469MOL0     C63211   6.357   6.120   5.465 -1.1474 -0.1069  0.5677
  469MOL0     C63212   6.425   6.175   5.574  0.9323  0.0270  0.1433
  469MOL0     C63213   6.553   6.227   5.571  0.4020 -0.0437 -0.3352
  469MOL0     C63214   6.611   6.228   5.446  0.3181 -0.5261  0.6366
  469MOL0     O63215   6.741   6.276   5.423  0.7529  0.2642 -0.5071
  469MOL0     C63216   6.834   6.261   5.540 -0.0458 -0.6191 -0.2647
  469MOL0     C63217   6.985   6.281   5.496 -0.7060  0.2835 -0.2843
  469MOL0     C63218   7.039   6.176   5.394  0.1861  0.4980 -0.4165
  469MOL0     C63219   7.028   6.029   5.435  0.1492 -0.1175 -0.4293
  469MOL0     C63220   7.138   5.951   5.361  0.2274  0.7003 -0.0670
  469MOL0     C63221   7.139   5.806   5.416  1.2957 -0.3553 -0.3578
  469MOL0     C63222   7.246   5.712   5.357 -0.2680  0.0975 -0.7270
  469MOL0     C63223   7.177   5.606   5.272 -0.4021 -0.5877  0.5268
  469MOL0    Cl63224   7.096   5.487   5.374  0.3004 -0.2961  0.5914
  469MOL0     C63225   6.546   6.186   5.328 -0.1223  0.2093  0.0267
  469MOL0     C63226   6.417   6.137   5.339  0.1628  0.7026 -0.5820
  469MOL0     O63227   6.308   5.868   5.414 -0.2877 -0.5593 -0.0981
  469MOL0     C63228   5.992   5.949   5.557  0.5321 -0.2084  0.8391
  469MOL0     C63229   5.865   5.889   5.571 -0.4286 -0.1941 -0.2929
  469MOL0     N63230   5.109   5.532   5.660 -0.1858  0.0546  0.1507
  469MOL0     N63231   4.990   5.576   5.648 -0.3558  0.0174  0.2889
  469MOL0     C63232   3.937   5.865   5.185  0.2526  1.0399 -0.5859
  469MOL0     C63233   3.819   5.797   5.143 -0.2372 -0.0498  0.4401
  469MOL0     C63234   3.407   5.578   5.144 -1.1350 -0.6502  0.6624
  469MOL0     C63235   3.295   5.516   5.208  0.0024  0.0010 -0.2217
  469MOL0     C63236   3.201   5.428   5.147 -0.3236 -0.3926 -0.1243
  469MOL0     C63237   3.232   5.379   5.020 -0.1677 -0.0203  0.3046
  469MOL0     O63238   3.167   5.283   4.963  0.2050  0.1435 -0.4290
  469MOL0     C63239   3.032   5.241   5.011 -0.3733 -0.2558 -0.2082
  469MOL0     C63240   2.924   5.351   5.004  0.3532  1.5622  0.4852
  469MOL0     C63241   2.891   5.388   4.857 -0.2354  0.1472 -0.1019
  469MOL0     C63242   2.900   5.278   4.748  0.7968 -0.5218  0.4426
  469MOL0     C63243   2.768   5.206   4.759 -0.1357  0.0467  0.0491
  469MOL0     C63244   2.659   5.154   4.770  0.3944 -0.2815  0.5178
  469MOL0     C63245   3.348   5.435   4.956  0.6620  0.3347  0.2511
  469MOL0     C63246   3.424   5.532   5.010 -0.0960  0.3194 -0.1115
  469MOL0     C63247   3.519   5.596   4.919  0.2143  0.3082  0.0405
  469MOL0     H63248   3.606   5.872   5.388  0.3394 -1.1698  0.3008
  469MOL0     H63249   3.809   5.994   5.468  1.0226 -1.6192 -0.2451
  469MOL0     H63250   4.177   5.833   5.313  2.4831  0.5248 -3.3242
  469MOL0     H63251   4.187   5.989   5.215 -1.5472 -1.6032 -1.2021
  469MOL0     H63252   4.251   5.980   5.516  0.1704  0.7254  0.4440
  469MOL0     H63253   4.297   6.099   5.382 -2.0877  0.1864 -0.1722
  469MOL0     H63254   4.451   5.923   5.288  2.4792 -1.7848  0.4478
  469MOL0     H63255   4.420   5.818   5.417  0.5215  0.0617 -0.9836
  469MOL0     H63256   4.545   6.107   5.437  2.3800 -0.7221  0.8539
  469MOL0     H63257   4.521   6.001   5.568  2.4631  2.5649  0.5425
  469MOL0     H63258   4.660   5.823   5.470  1.8481  0.5538  0.8999
  469MOL0     H63259   4.717   5.935   5.343  0.8772 -0.4006 -0.9172
  469MOL0     H63260   4.799   6.090   5.520  2.3818 -1.0100  0.9050
  469MOL0     H63261   4.708   6.009   5.640 -0.4443  0.0734 -1.1769
  469MOL0     H63262   4.967   5.991   5.627  1.1166 -0.6598  0.6012
  469MOL0     H63263   4.946   5.908   5.471  1.8783 -2.5393  1.0215
  469MOL0     H63264   4.868   5.822   5.756 -0.9175 -2.0459  0.6273
  469MOL0     H63265   4.800   5.740   5.628  2.3769 -1.4813 -3.0131
  469MOL0     H63266   5.187   5.846   5.651 -1.4979  0.3229 -0.9993
  469MOL0     H63267   5.398   5.674   5.749  0.8132 -1.0208  1.2725
  469MOL0     H63268   5.353   5.502   5.719  2.6175  0.6104  1.2402
  469MOL0     H63269   5.381   5.551   5.468  1.1970 -0.7956  0.2673
  469MOL0     H63270   5.447   5.708   5.520 -0.1659 -0.9933 -1.8042
  469MOL0     H63271   5.550   5.426   5.530  1.2729 -0.2519 -0.5321
  469MOL0     H63272   5.602   5.523   5.674 -0.6971  2.4603  0.6570
  469MOL0     H63273   5.668   5.589   5.381  0.7374  0.1258  0.5122
  469MOL0     H63274   5.773   5.525   5.502 -0.6464  0.0936  0.3043
  469MOL0     H63275   5.900   5.630   5.346  0.3998  0.5864 -0.8015
  469MOL0     H63276   6.124   5.736   5.327  1.6904  0.0654  1.5936
  469MOL0     H63277   6.373   6.162   5.669 -6.2056 -1.0673 -3.2589
  469MOL0     H63278   6.602   6.269   5.658 -0.4525  0.2969 -0.0078
  469MOL0     H63279   6.818   6.346   5.606 -1.8608  0.0359 -1.4851
  469MOL0     H63280   6.805   6.180   5.607 -1.6360  3.1305  4.0676
  469MOL0     H63281   6.986   6.376   5.442  0.2282 -1.3621 -3.4007
  469MOL0     H63282   7.050   6.283   5.584  1.6803  1.0323 -1.9518
  469MOL0     H63283   6.990   6.180   5.296 -2.2603 -1.0877  0.6559
  469MOL0     H63284   7.145   6.199   5.382 -0.0293  1.1820 -1.0249
  469MOL0     H63285   6.931   5.984   5.409  1.3957 -1.2581 -3.5247
  469MOL0     H63286   7.036   6.025   5.544 -0.5835  2.5860 -0.1854
  469MOL0     H63287   7.236   6.000   5.360  0.1186  0.9201 -0.0444
  469MOL0     H63288   7.100   5.941   5.260 -0.5302  0.1645  0.2634
  469MOL0     H63289   7.155   5.816   5.524 -2.2985 -1.5841  0.4385
  469MOL0     H63290   7.038   5.764   5.407  1.7771 -1.6778  0.1954
  469MOL0     H63291   7.309   5.673   5.438 -0.0993  1.9009  0.0487
  469MOL0     H63292   7.311   5.768   5.289  1.1144 -1.4705 -0.7697
  469MOL0     H63293   7.111   5.663   5.207  0.5909  2.2558  1.8454
  469MOL0     H63294   7.255   5.551   5.218 -1.5510  0.1069 -1.9986
  469MOL0     H63295   6.610   6.195   5.242  0.7426 -0.7437  0.5491
  469MOL0     H63296   6.362   6.102   5.252 -0.6930  0.8167 -0.1018
  469MOL0     H63297   6.011   6.048   5.595 -1.0158  0.1852  0.6266
  469MOL0     H63298   5.791   5.921   5.643 -1.8491 -2.0777 -0.8464
  469MOL0     H63299   4.030   5.846   5.131  0.7952 -0.2492  0.7489
  469MOL0     H63300   3.817   5.737   5.053 -1.3796 -0.6946  0.8717
  469MOL0     H63301   3.270   5.544   5.310  0.6407  3.0636 -0.8204
  469MOL0     H63302   3.128   5.384   5.213 -0.3569  0.7995  0.6651
  469MOL0     H63303   3.035   5.208   5.115 -0.1515  0.4374  0.0105
  469MOL0     H63304   3.008   5.153   4.950 -1.5450 -1.3438  1.7369
  469MOL0     H63305   2.947   5.444   5.056  0.3103  1.6914  0.2768
  469MOL0     H63306   2.832   5.315   5.053  1.1056 -0.5890  0.4277
  469MOL0     H63307   2.966   5.466   4.837 -1.4240  1.1545 -0.7803
  469MOL0     H63308   2.797   5.442   4.844 -0.2677  0.4357  1.1799
  469MOL0     H63309   2.894   5.333   4.653  2.3518 -1.0128  0.0221
  469MOL0     H63310   2.992   5.219   4.749  2.6222  2.0969 -0.8261
  469MOL0     H63311   2.557   5.121   4.764  0.6520 -1.0421  0.2312
  469MOL0     H63312   3.374   5.386   4.863  1.2983  0.6023  0.2859
  469MOL0     H63313   3.615   5.593   4.971 -1.4016  0.1798  3.2616
  469MOL0     H63314   3.530   5.545   4.822  3.6079 -0.6670  0.8021
  469MOL0     H63315   3.478   5.695   4.896  0.9259  0.4855 -0.4922
  470MOL0     O63316   7.286   2.107   5.236  0.2515  0.8729 -0.4115
  470MOL0     C63317   7.216   2.073   5.137 -0.2995  0.1489  0.2512
  470MOL0     O63318   7.268   2.022   5.025 -0.6331 -0.7004 -0.4805
  470MOL0     C63319   7.402   1.989   5.022 -0.6160  0.8570 -0.9670
  470MOL0     C63320   7.511   2.072   5.049  0.0360  0.0148  0.1781
  470MOL0     C63321   7.642   2.028   5.040 -0.4047  0.9006  0.8031
  470MOL0     C63322   7.664   1.894   4.998 -0.6718 -0.3518  0.1125
  470MOL0     O63323   7.789   1.834   4.991 -0.2033  0.6273 -0.3078
  470MOL0     C63324   7.913   1.908   5.008  0.1566 -0.8336 -0.6139
  470MOL0     C63325   8.032   1.805   4.995 -0.1915  0.2210  0.5909
  470MOL0     C63326   8.168   1.876   5.009  0.2140  0.0619 -0.8275
  470MOL0     C63327   8.284   1.783   4.991 -0.2154  0.6659 -0.5037
  470MOL0     C63328   8.419   1.851   5.015  0.2696  0.3149  0.8303
  470MOL0     C63329   8.528   1.756   4.967  0.9290  0.4027 -0.3412
  470MOL0     C63330   8.659   1.827   4.991 -0.1233  0.3439 -0.0598
  470MOL0     C63331   8.772   1.720   5.003 -0.0688 -0.3847 -0.3847
  470MOL0     N63332   8.903   1.776   5.038 -0.1094  0.6344  0.2317
  470MOL0     C63333   8.964   1.760   5.153 -1.2027 -0.0674  0.3735
  470MOL0     C63334   9.088   1.813   5.129 -0.5424 -0.5746 -0.3021
  470MOL0     C63335   9.191   1.833   5.237  0.1381  0.1746  0.1503
  470MOL0     C63336   9.319   1.744   5.208  0.9962 -0.4896 -0.7370
  470MOL0     C63337   9.409   1.808   5.120 -0.0100 -0.6996  1.1455
  470MOL0     C63338   9.556   1.779   5.159 -0.4352 -0.9197 -0.6294
  470MOL0     O63339   9.654   1.811   5.053  0.6591 -0.4794 -0.3272
  470MOL0     C63340   9.792   1.789   5.073 -0.1323 -0.2028  0.4843
  470MOL0     C63341   9.840   1.766   5.200  0.3151  0.1067 -0.0529
  470MOL0     C63342   9.975   1.754   5.216 -0.5341  0.6774  0.6456
  470MOL0     C63343  10.059   1.767   5.101  1.1255 -0.2805  0.4100
  470MOL0     C63344  10.204   1.783   5.121 -0.0099  0.8339  0.7013
  470MOL0     O63345  10.249   1.802   5.246  0.3708  0.4820  0.2093
  470MOL0     C63346  10.387   1.787   5.280 -1.8403 -0.0377 -0.5455
  470MOL0     C63347  10.449   1.882   5.363  0.2679 -0.1506 -0.9519
  470MOL0     C63348  10.581   1.856   5.404  0.8179 -0.1045 -0.5418
  470MOL0     C63349  10.651   1.752   5.353 -0.7242  0.1606 -0.2876
  470MOL0     O63350  10.782   1.712   5.386 -0.0944  0.4443  0.0017
  470MOL0     C63351  10.863   1.796   5.470  0.2882  0.0838  0.1157
  470MOL0     C63352  11.015   1.764   5.454 -0.0584  0.2582  0.0080
  470MOL0     C63353  11.112   1.823   5.567 -0.8188 -0.6895 -1.2323
  470MOL0     C63354  11.084   1.966   5.601  0.0723  0.2112  0.6186
  470MOL0     C63355  11.202   2.019   5.680 -0.3491  0.2497 -0.5283
  470MOL0     C63356  11.302   2.072   5.574  0.1326 -0.8628 -0.3519
  470MOL0     C63357  11.430   2.128   5.635  0.7671  0.7361  0.2040
  470MOL0     C63358  11.559   2.124   5.551 -0.2928  0.2394  0.0926
  470MOL0    Cl63359  11.683   2.187   5.660  0.4445 -0.1498  0.2028
  470MOL0     C63360  10.589   1.661   5.262 -0.9586 -0.3674 -0.0335
  470MOL0     C63361  10.459   1.672   5.231 -0.8411 -0.8417 -0.4042
  470MOL0     O63362  10.276   1.775   5.017 -0.2042 -0.4523 -1.2971
  470MOL0     C63363  10.010   1.785   4.975 -0.2574  0.1691 -0.2181
  470MOL0     C63364   9.873   1.797   4.962 -0.9822 -0.5458  0.0723
  470MOL0     N63365   9.102   1.849   4.998 -0.6190  0.5679 -0.7601
  470MOL0     N63366   8.978   1.837   4.947 -0.6876  0.6890  0.3070
  470MOL0     C63367   7.560   1.818   4.958  0.8273  0.1416  0.2138
  470MOL0     C63368   7.429   1.858   4.980  0.1933 -0.2711  0.4612
  470MOL0     C63369   7.065   2.089   5.149 -0.8710 -0.1475 -0.3637
  470MOL0     C63370   6.997   2.134   5.036 -0.2862 -0.2111 -0.0120
  470MOL0     C63371   6.861   2.156   5.033  0.0593  0.3173  0.5068
  470MOL0     C63372   6.791   2.133   5.153  0.2877  0.1639  0.7746
  470MOL0     O63373   6.658   2.157   5.162 -0.0825  0.3402  0.1192
  470MOL0     C63374   6.591   2.225   5.055  0.1432 -0.3158 -0.4552
  470MOL0     C63375   6.611   2.380   5.048 -0.4921  0.7117  0.6042
  470MOL0     C63376   6.554   2.444   5.170  0.2402  0.0300 -0.9577
  470MOL0     C63377   6.520   2.585   5.159  0.6063  0.0959  0.1401
  470MOL0     C63378   6.638   2.658   5.119  1.5026 -0.3178 -1.0793
  470MOL0     C63379   6.735   2.710   5.080 -0.1371  0.0087 -0.7089
  470MOL0     C63380   6.859   2.089   5.265 -0.0112  0.6023 -0.3398
  470MOL0     C63381   6.995   2.064   5.269 -0.2695 -0.9618 -0.4509
  470MOL0     C63382   7.046   2.017   5.405 -0.4667 -0.3862 -0.4813
  470MOL0     H63383   7.489   2.175   5.074  3.0544  0.7795  0.0387
  470MOL0     H63384   7.726   2.095   5.056  1.6251 -1.4721  0.7852
  470MOL0     H63385   7.917   1.984   4.930  2.6936 -1.8590 -1.5827
  470MOL0     H63386   7.914   1.952   5.108  2.7514  0.3890 -1.1051
  470MOL0     H63387   8.016   1.763   4.896 -0.4268  0.7767  0.3905
  470MOL0     H63388   8.019   1.731   5.074 -0.8286 -0.5516 -0.2230
  470MOL0     H63389   8.166   1.920   5.110  2.1666  1.4476 -1.3352
  470MOL0     H63390   8.169   1.956   4.934  1.2799 -1.0734 -2.0788
  470MOL0     H63391   8.271   1.699   5.060  1.3485  2.2779  1.9084
  470MOL0     H63392   8.283   1.749   4.887  0.0468  0.1443 -0.3404
  470MOL0     H63393   8.427   1.950   4.969  1.8416  0.0927  0.5911
  470MOL0     H63394   8.434   1.870   5.122 -1.3789  0.6510  1.0345
  470MOL0     H63395   8.521   1.663   5.023 -1.9806 -0.0303 -1.2673
  470MOL0     H63396   8.530   1.732   4.860  2.7447 -0.5258 -0.1440
  470MOL0     H63397   8.663   1.886   5.083  0.7127 -1.2690  0.9920
  470MOL0     H63398   8.685   1.883   4.901 -1.4499 -3.4012 -3.0201
  470MOL0     H63399   8.748   1.640   5.074 -2.0430  1.1393  0.7594
  470MOL0     H63400   8.770   1.672   4.905 -0.0902 -1.2333  0.0155
  470MOL0     H63401   8.935   1.719   5.249  0.5583  1.4484  1.6416
  470MOL0     H63402   9.219   1.938   5.253 -0.4755  0.0297  2.6729
  470MOL0     H63403   9.140   1.797   5.327 -1.6838  0.7936 -0.5835
  470MOL0     H63404   9.367   1.725   5.305 -0.9892  3.1043  1.1317
  470MOL0     H63405   9.287   1.650   5.161  1.4311 -0.1214 -1.8048
  470MOL0     H63406   9.386   1.914   5.107 -2.0122 -1.3687 -1.6451
  470MOL0     H63407   9.385   1.771   5.020  1.1197  1.8186 -0.1408
  470MOL0     H63408   9.575   1.681   5.202  0.0772 -0.1440  1.0107
  470MOL0     H63409   9.584   1.854   5.234  0.1472 -2.2300  0.5094
  470MOL0     H63410   9.783   1.772   5.293  2.2045  1.9173  1.0905
  470MOL0     H63411  10.011   1.732   5.316  1.9474 -2.9733 -0.8334
  470MOL0     H63412  10.391   1.966   5.399 -0.7971 -1.6841  1.1360
  470MOL0     H63413  10.623   1.918   5.483 -0.2915  1.2416 -0.9779
  470MOL0     H63414  10.849   1.899   5.436  2.0318 -0.1333 -1.3931
  470MOL0     H63415  10.829   1.789   5.573 -0.0052  2.4061  0.2380
  470MOL0     H63416  11.041   1.658   5.462 -0.0290  0.2862  0.2968
  470MOL0     H63417  11.057   1.802   5.361  3.5133 -0.9142  0.9583
  470MOL0     H63418  11.109   1.757   5.654 -1.3955 -0.4779 -1.0894
  470MOL0     H63419  11.215   1.817   5.532 -0.7148 -0.0685 -1.0346
  470MOL0     H63420  10.991   1.968   5.659 -0.9726 -0.9717 -0.9344
  470MOL0     H63421  11.068   2.023   5.510  3.1276  0.9433  0.4483
  470MOL0     H63422  11.253   1.941   5.737  0.1330  1.0396  0.1417
  470MOL0     H63423  11.178   2.094   5.757  4.2035 -0.8111  2.3211
  470MOL0     H63424  11.321   2.001   5.493  0.6054 -0.3165 -0.7221
  470MOL0     H63425  11.258   2.159   5.525  2.0050 -1.3755 -3.1419
  470MOL0     H63426  11.458   2.076   5.727 -0.2895  0.5098  0.4049
  470MOL0     H63427  11.419   2.235   5.653 -1.0102  0.3511  1.6377
  470MOL0     H63428  11.590   2.024   5.521  2.7739  0.5780  1.7640
  470MOL0     H63429  11.541   2.191   5.466 -2.9025 -1.1988 -0.5958
  470MOL0     H63430  10.655   1.584   5.223  3.3697  2.6205  0.6384
  470MOL0     H63431  10.408   1.599   5.169  1.0528 -1.4914 -1.2597
  470MOL0     H63432  10.085   1.796   4.897 -0.1507  1.8032  0.0814
  470MOL0     H63433   9.838   1.818   4.861  2.0780  1.0321 -0.7626
  470MOL0     H63434   7.594   1.722   4.920 -1.0328 -0.1630 -0.7672
  470MOL0     H63435   7.345   1.794   4.956  0.0168  0.6006 -1.3235
  470MOL0     H63436   7.050   2.155   4.943 -0.8544 -0.5526 -0.4145
  470MOL0     H63437   6.827   2.199   4.939  0.6491  0.2031  0.2422
  470MOL0     H63438   6.483   2.213   5.060 -0.0630  1.3885 -0.0816
  470MOL0     H63439   6.625   2.178   4.963  0.4484 -0.0598 -0.4781
  470MOL0     H63440   6.570   2.433   4.962 -1.1993 -0.6892  0.0487
  470MOL0     H63441   6.718   2.403   5.043 -0.8618  2.3262 -0.8703
  470MOL0     H63442   6.622   2.441   5.256  1.7423  1.1935 -2.0468
  470MOL0     H63443   6.454   2.407   5.194 -0.1509  1.8937  0.5181
  470MOL0     H63444   6.446   2.603   5.080  1.9088 -2.3815 -1.7765
  470MOL0     H63445   6.491   2.630   5.254 -0.8379  1.7442 -1.0113
  470MOL0     H63446   6.833   2.733   5.043 -1.2396  3.2602 -1.9253
  470MOL0     H63447   6.814   2.076   5.363 -0.3025 -0.9043 -0.6374
  470MOL0     H63448   6.995   2.075   5.482  0.6134 -0.0134 -0.0307
  470MOL0     H63449   7.020   1.912   5.423 -2.2325 -0.3211 -2.2907
  470MOL0     H63450   7.154   2.027   5.415 -0.8157  1.4826  2.9905
  471MOL0     O63451   0.587   7.764   0.407 -0.7779 -0.0093 -0.1916
  471MOL0     C63452   0.555   7.749   0.290 -0.3685 -0.5689 -0.6984
  471MOL0     O63453   0.633   7.692   0.199 -0.6769 -0.9168 -0.1177
  471MOL0     C63454   0.762   7.646   0.222 -0.1992 -0.2023 -0.5321
  471MOL0     C63455   0.866   7.727   0.261  0.2812  0.4595 -0.1960
  471MOL0     C63456   0.994   7.673   0.290  0.3570  0.0903  0.2928
  471MOL0     C63457   1.020   7.540   0.272 -0.3771  0.6529 -0.6012
  471MOL0     O63458   1.148   7.508   0.313  0.5106  0.1220 -0.3489
  471MOL0     C63459   1.210   7.404   0.241 -0.7297 -0.4930 -1.4187
  471MOL0     C63460   1.339   7.369   0.327  0.8220 -0.6673 -0.4370
  471MOL0     C63461   1.435   7.274   0.246  0.7552  0.4891 -0.4045
  471MOL0     C63462   1.404   7.127   0.274  0.3885  0.0020  0.7305
  471MOL0     C63463   1.495   7.025   0.198  0.6000  0.2694  0.2066
  471MOL0     C63464   1.627   7.002   0.267  0.2263  0.1709  0.4221
  471MOL0     C63465   1.718   6.899   0.190 -0.4920  0.8712  0.7582
  471MOL0     C63466   1.853   6.908   0.257 -0.2817 -0.8715 -0.5553
  471MOL0     N63467   1.968   6.925   0.163  0.0404 -0.0482  0.5397
  471MOL0     C63468   2.014   6.835   0.063  0.2994  0.2577 -0.7568
  471MOL0     C63469   2.100   6.917  -0.006 -0.5436 -0.0325  0.0712
  471MOL0     C63470   2.187   6.869  -0.116  0.2552  0.3129  0.3656
  471MOL0     C63471   2.305   6.799  -0.054  0.1064 -0.8591  0.4013
  471MOL0     C63472   2.404   6.743  -0.151  0.2457  0.3247  0.3161
  471MOL0     C63473   2.527   6.670  -0.089  0.3233 -0.5638 -0.4980
  471MOL0     O63474   2.633   6.747  -0.037  0.6732  1.0887  0.6806
  471MOL0     C63475   2.731   6.794  -0.122  0.5015  0.1215 -0.0809
  471MOL0     C63476   2.714   6.799  -0.261 -0.0342  0.5674 -0.1179
  471MOL0     C63477   2.804   6.861  -0.347 -0.8853  0.2028 -0.3535
  471MOL0     C63478   2.915   6.928  -0.287 -0.4977 -0.3458  0.1310
  471MOL0     C63479   3.028   6.982  -0.375  0.4047  0.0473 -0.8610
  471MOL0     O63480   3.141   7.020  -0.319 -0.0996  0.4034  0.2227
  471MOL0     C63481   3.208   7.137  -0.360  0.2289  0.6510 -0.4503
  471MOL0     C63482   3.334   7.157  -0.317 -0.5666 -0.4672  0.5259
  471MOL0     C63483   3.400   7.287  -0.329 -0.4300  0.0792 -0.4160
  471MOL0     C63484   3.361   7.387  -0.419 -0.5754 -1.2600  0.2356
  471MOL0     O63485   3.420   7.510  -0.432 -0.1356  0.0966  0.3611
  471MOL0     C63486   3.564   7.517  -0.444  0.2039 -1.0319  0.1723
  471MOL0     C63487   3.600   7.473  -0.588  0.5505 -0.0323 -1.4833
  471MOL0     C63488   3.746   7.468  -0.599 -0.5917  0.5126  0.1266
  471MOL0     C63489   3.782   7.377  -0.709  0.3025  0.5741 -0.8287
  471MOL0     C63490   3.940   7.388  -0.733 -0.7783  0.1046  0.6244
  471MOL0     C63491   4.023   7.338  -0.614  0.6768  0.0474 -0.2984
  471MOL0     C63492   4.157   7.280  -0.657  0.8572 -0.4789 -0.4818
  471MOL0     C63493   4.257   7.252  -0.545  0.1467  0.2685 -0.5761
  471MOL0    Cl63494   4.273   7.405  -0.442  0.1186 -0.0192  0.0398
  471MOL0     C63495   3.231   7.364  -0.476 -0.2464  0.8479  0.1425
  471MOL0     C63496   3.165   7.235  -0.449  0.8109  0.4518  0.7672
  471MOL0     O63497   2.999   6.993  -0.496  0.1021 -0.3710  0.0192
  471MOL0     C63498   2.927   6.933  -0.153 -0.8468  0.2417  0.2985
  471MOL0     C63499   2.834   6.873  -0.072 -0.1643  0.1987 -0.5281
  471MOL0     N63500   2.084   7.049   0.036  0.3538 -0.5462  0.3049
  471MOL0     N63501   2.016   7.055   0.144  0.6635  0.3758  1.0086
  471MOL0     C63502   0.916   7.456   0.222 -0.1028  0.7605 -0.0282
  471MOL0     C63503   0.795   7.517   0.193  0.2902  0.3904 -0.3657
  471MOL0     C63504   0.437   7.815   0.245  0.2480 -1.7443 -0.0284
  471MOL0     C63505   0.391   7.936   0.307 -0.1737  0.0076 -1.1407
  471MOL0     C63506   0.278   8.000   0.266  0.2274 -0.8361 -0.4999
  471MOL0     C63507   0.203   7.960   0.164 -0.1673 -0.3253  0.1428
  471MOL0     O63508   0.089   8.029   0.114  0.4092 -0.3952 -0.6940
  471MOL0     C63509   0.050   8.158   0.169  0.2678  0.4415 -0.0696
  471MOL0     C63510  -0.030   8.222   0.062  0.4011 -0.1871  0.7036
  471MOL0     C63511   0.033   8.227  -0.078  0.1498  0.3724 -0.3379
  471MOL0     C63512   0.167   8.307  -0.092  0.0495  0.0974  1.1663
  471MOL0     C63513   0.155   8.435  -0.036 -0.3252 -0.0014 -0.5870
  471MOL0     C63514   0.170   8.555  -0.013 -0.6519  0.4629 -0.5682
  471MOL0     C63515   0.234   7.835   0.107 -0.1813  0.1357 -0.3607
  471MOL0     C63516   0.351   7.759   0.149  0.1087  0.6701  0.2540
  471MOL0     C63517   0.371   7.624   0.078 -0.3684  0.6942 -0.8437
  471MOL0     H63518   0.828   7.826   0.285 -1.4632 -0.4996  1.2598
  471MOL0     H63519   1.079   7.729   0.327  0.0244 -1.3346  3.6314
  471MOL0     H63520   1.134   7.326   0.250 -1.3594  0.3672  2.1792
  471MOL0     H63521   1.233   7.414   0.134  3.4394  3.7544 -0.4682
  471MOL0     H63522   1.311   7.330   0.426 -1.5797  0.6009 -0.5453
  471MOL0     H63523   1.400   7.458   0.345  1.8120 -1.6384  1.3314
  471MOL0     H63524   1.539   7.299   0.267  0.6580  1.7341 -1.2566
  471MOL0     H63525   1.430   7.300   0.139  0.7509  2.4644  0.0402
  471MOL0     H63526   1.420   7.104   0.380  0.0781  1.7752  1.1967
  471MOL0     H63527   1.301   7.098   0.252 -0.7403  2.8062  1.7527
  471MOL0     H63528   1.441   6.930   0.190  0.0418  0.3902  2.0568
  471MOL0     H63529   1.507   7.057   0.094  1.7620 -2.1858 -0.4937
  471MOL0     H63530   1.679   7.097   0.284  0.7861 -0.0074 -0.2467
  471MOL0     H63531   1.615   6.967   0.370  0.4758 -1.1541  0.0154
  471MOL0     H63532   1.733   6.935   0.088 -0.2597  0.8910  0.7974
  471MOL0     H63533   1.685   6.795   0.190 -1.2677  0.9253  4.8160
  471MOL0     H63534   1.867   7.001   0.314  1.9290 -1.4853 -0.0042
  471MOL0     H63535   1.860   6.825   0.328  2.8262 -0.1083  0.2235
  471MOL0     H63536   1.982   6.734   0.040  1.0673  0.2754 -2.0305
  471MOL0     H63537   2.127   6.817  -0.190  1.1385  1.1031 -0.9536
  471MOL0     H63538   2.225   6.955  -0.173  3.1123 -1.9772 -1.4665
  471MOL0     H63539   2.352   6.872   0.013 -0.7567  0.1411 -0.0566
  471MOL0     H63540   2.268   6.715   0.006  2.0764 -1.1734  1.2622
  471MOL0     H63541   2.439   6.833  -0.202  3.4714 -1.5434 -1.0962
  471MOL0     H63542   2.353   6.684  -0.227 -1.6581  0.4917  1.4151
  471MOL0     H63543   2.563   6.600  -0.165  1.5830 -2.5911  1.8154
  471MOL0     H63544   2.478   6.602  -0.019 -1.8240  2.2400  0.9270
  471MOL0     H63545   2.629   6.744  -0.299 -1.2964  1.0807  1.8187
  471MOL0     H63546   2.783   6.856  -0.454 -2.3038  2.9972 -0.2773
  471MOL0     H63547   3.366   7.075  -0.253 -1.4793  1.0678  3.1466
  471MOL0     H63548   3.478   7.297  -0.253 -1.0126  0.2856  0.1642
  471MOL0     H63549   3.596   7.621  -0.435 -2.0518 -0.4014  2.0926
  471MOL0     H63550   3.608   7.459  -0.362  0.4621  1.9169  2.2943
  471MOL0     H63551   3.542   7.382  -0.609  0.9853 -0.0487 -2.6560
  471MOL0     H63552   3.554   7.554  -0.645  0.4365  2.9489  2.3888
  471MOL0     H63553   3.779   7.565  -0.636 -2.1208 -0.1475 -3.3609
  471MOL0     H63554   3.791   7.439  -0.503 -1.1072  0.7454  0.4404
  471MOL0     H63555   3.725   7.401  -0.800 -4.5320  0.6978  1.9060
  471MOL0     H63556   3.754   7.272  -0.697  1.9642  0.1444 -0.4790
  471MOL0     H63557   3.976   7.490  -0.744  0.6170 -0.1237  2.6267
  471MOL0     H63558   3.960   7.332  -0.825 -1.6575 -1.4377  1.3391
  471MOL0     H63559   4.034   7.419  -0.542 -0.2335 -1.6757  1.9312
  471MOL0     H63560   3.975   7.258  -0.555 -1.8957  2.5953  1.3328
  471MOL0     H63561   4.205   7.345  -0.731  1.2902  0.8761  0.9286
  471MOL0     H63562   4.135   7.189  -0.714 -3.2719  2.0926 -3.5700
  471MOL0     H63563   4.225   7.164  -0.488  3.6275  0.1108  1.4011
  471MOL0     H63564   4.354   7.219  -0.583  0.1785  0.6419 -0.8197
  471MOL0     H63565   3.183   7.439  -0.537  0.9672  1.1861 -0.4154
  471MOL0     H63566   3.071   7.229  -0.502  1.4990 -0.7578 -0.3813
  471MOL0     H63567   3.015   6.971  -0.102  0.3559 -0.0658 -1.4646
  471MOL0     H63568   2.836   6.879   0.036  1.6324  0.4975 -0.5378
  471MOL0     H63569   0.919   7.351   0.194 -2.0182  0.7815 -0.4976
  471MOL0     H63570   0.720   7.444   0.161  1.6124 -1.2484  0.1101
  471MOL0     H63571   0.427   7.976   0.401 -3.1565  0.3040 -0.0287
  471MOL0     H63572   0.249   8.085   0.326 -3.4538  0.1435 -3.2930
  471MOL0     H63573   0.132   8.228   0.186  1.3611 -0.6790 -0.5555
  471MOL0     H63574  -0.019   8.158   0.255  1.0129  3.1090  0.6205
  471MOL0     H63575  -0.053   8.323   0.096 -0.7842 -0.2132  0.0369
  471MOL0     H63576  -0.128   8.172   0.060 -0.0508  0.7062 -0.5328
  471MOL0     H63577  -0.048   8.259  -0.144 -1.2516 -0.6831  0.7994
  471MOL0     H63578   0.055   8.125  -0.112 -2.8953 -1.9796  3.8249
  471MOL0     H63579   0.244   8.247  -0.043 -0.3048 -0.7662  0.6892
  471MOL0     H63580   0.190   8.308  -0.199 -0.9207 -1.4377  0.9201
  471MOL0     H63581   0.177   8.661  -0.005  2.5334  0.3129 -0.1797
  471MOL0     H63582   0.164   7.810   0.028  0.2160  0.3342 -0.7819
  471MOL0     H63583   0.457   7.627   0.011  0.8912 -1.1486  0.5984
  471MOL0     H63584   0.401   7.542   0.144 -0.1687  0.3407 -1.3668
  471MOL0     H63585   0.286   7.592   0.017  0.9614 -1.0620 -1.8971
  472MOL0     O63586   8.717   7.613  10.342  0.0610 -0.5640  0.1623
  472MOL0     C63587   8.697   7.541  10.242  0.7544 -0.5079  0.3242
  472MOL0     O63588   8.783   7.452  10.194 -0.4967 -0.1115 -0.8158
  472MOL0     C63589   8.892   7.443  10.274  0.1957 -0.1046 -0.8210
  472MOL0     C63590   8.906   7.342  10.367  0.5263  0.0361 -0.3537
  472MOL0     C63591   9.019   7.329  10.441 -0.3945 -0.3652 -0.2801
  472MOL0     C63592   9.124   7.422  10.427  0.2165  0.4046 -0.2151
  472MOL0     O63593   9.238   7.386  10.508  0.9238  0.4907  1.0794
  472MOL0     C63594   9.347   7.480  10.486  0.0330  0.2040 -0.0665
  472MOL0     C63595   9.452   7.452  10.589 -0.1228 -0.0058  0.1208
  472MOL0     C63596   9.590   7.490  10.536 -0.4082  0.3839  0.4217
  472MOL0     C63597   9.689   7.522  10.653 -0.2963 -0.6598 -0.0869
  472MOL0     C63598   9.826   7.558  10.602  0.2459 -0.5640 -0.0064
  472MOL0     C63599   9.926   7.565  10.717  0.0404 -0.8620 -0.2953
  472MOL0     C63600  10.050   7.638  10.672  0.8744 -0.6119  0.3667
  472MOL0     C63601  10.162   7.602  10.770  0.5388  1.1483  0.0651
  472MOL0     N63602  10.306   7.643  10.733  0.3850 -0.2014  0.0623
  472MOL0     C63603  10.409   7.615  10.813  0.8420 -0.5390 -0.9219
  472MOL0     C63604  10.512   7.696  10.764  0.3809  0.1625  0.0069
  472MOL0     C63605  10.647   7.681  10.825 -0.3136 -0.8307  0.1122
  472MOL0     C63606  10.744   7.598  10.745  0.6266 -0.3438  0.1472
  472MOL0     C63607  10.687   7.454  10.711  0.3190 -0.8549  1.1626
  472MOL0     C63608  10.808   7.365  10.680  0.0408 -0.6553 -0.3490
  472MOL0     O63609  10.887   7.342  10.803  0.3472  0.5392  0.0198
  472MOL0     C63610  11.021   7.302  10.804  0.1108  0.1305 -0.2993
  472MOL0     C63611  11.073   7.231  10.696  0.6493 -0.2328 -0.0501
  472MOL0     C63612  11.205   7.189  10.709 -0.3059  0.2600 -0.6680
  472MOL0     C63613  11.286   7.217  10.824  0.5806  0.3450  0.8750
  472MOL0     C63614  11.417   7.160  10.834 -0.1482 -0.6613  0.4814
  472MOL0     O63615  11.472   7.128  10.707 -0.0289 -0.0298  0.3325
  472MOL0     C63616  11.605   7.086  10.707 -0.4492 -0.0647  0.2802
  472MOL0     C63617  11.635   6.960  10.658  0.2423  0.2996 -0.1170
  472MOL0     C63618  11.763   6.919  10.652 -0.0305  0.4262  0.1291
  472MOL0     C63619  11.873   7.006  10.686 -0.1450  0.1748 -0.2833
  472MOL0     O63620  12.003   6.973  10.671 -0.3575 -0.3182  0.6296
  472MOL0     C63621  12.033   6.919  10.543  0.1460 -0.0261  0.2082
  472MOL0     C63622  12.012   7.006  10.424 -0.3797  0.5811  0.7189
  472MOL0     C63623  12.078   7.140  10.415 -0.5700  0.0135 -0.1352
  472MOL0     C63624  12.068   7.190  10.274  0.1893 -1.0193  0.4430
  472MOL0     C63625  12.110   7.339  10.265 -0.7046  0.3838 -0.0628
  472MOL0     C63626  12.151   7.379  10.125 -0.0735 -0.1324 -0.0683
  472MOL0     C63627  12.032   7.367  10.023 -0.4661  0.2545  0.0086
  472MOL0     C63628  11.900   7.433  10.039 -0.6685  0.1408 -0.6019
  472MOL0    Cl63629  11.783   7.365  10.159  0.3197  0.0618  0.4438
  472MOL0     C63630  11.836   7.139  10.736 -0.1971  0.2343 -0.4927
  472MOL0     C63631  11.705   7.172  10.749 -0.1801 -0.1593 -0.8771
  472MOL0     O63632  11.471   7.154  10.937  0.0012  0.3981 -0.0138
  472MOL0     C63633  11.230   7.294  10.924 -0.6755 -0.1504 -0.2463
  472MOL0     C63634  11.098   7.333  10.916 -0.6154 -0.0767 -0.5791
  472MOL0     N63635  10.459   7.768  10.655  0.1032 -0.0763  0.4835
  472MOL0     N63636  10.339   7.730  10.632 -0.4280  0.4845 -0.2367
  472MOL0     C63637   9.109   7.519  10.323 -0.4560  0.0917 -0.9863
  472MOL0     C63638   8.993   7.525  10.248  0.3948 -0.4564 -0.6478
  472MOL0     C63639   8.570   7.545  10.163  0.1421  0.8532  0.3030
  472MOL0     C63640   8.556   7.458  10.047  0.2961  1.0244  0.2833
  472MOL0     C63641   8.431   7.454   9.977 -0.4098 -0.1051 -1.4250
  472MOL0     C63642   8.330   7.538  10.014 -0.1091  0.4665  0.5899
  472MOL0     O63643   8.211   7.553   9.937 -0.1921 -0.1807 -0.4789
  472MOL0     C63644   8.178   7.457   9.837 -0.8606  0.0095 -0.6427
  472MOL0     C63645   8.064   7.487   9.741  0.4172 -0.1195  0.1639
  472MOL0     C63646   7.961   7.573   9.822  0.0174  0.4295 -0.3121
  472MOL0     C63647   7.839   7.596   9.745  0.6293 -0.0578  0.1460
  472MOL0     C63648   7.728   7.663   9.815  0.1245 -0.5514 -0.2737
  472MOL0     C63649   7.648   7.710   9.896 -0.0490 -0.0776  0.2404
  472MOL0     C63650   8.341   7.625  10.125  0.1537 -0.5301  0.0347
  472MOL0     C63651   8.462   7.636  10.192 -0.3195 -0.0026  0.0179
  472MOL0     C63652   8.463   7.742  10.306 -0.3204  0.0108  0.4308
  472MOL0     H63653   8.826   7.271  10.390  1.3910 -0.5180  1.1045
  472MOL0     H63654   9.032   7.242  10.505  1.4818 -0.7543 -1.1348
  472MOL0     H63655   9.390   7.472  10.386  0.0071  2.3357 -0.2960
  472MOL0     H63656   9.325   7.587  10.493 -0.1812  0.2392 -1.1324
  472MOL0     H63657   9.461   7.344  10.606 -0.2122  0.1324  1.1549
  472MOL0     H63658   9.421   7.495  10.685  0.0762  1.6214 -0.5204
  472MOL0     H63659   9.584   7.574  10.467 -1.2672 -1.2152 -1.5558
  472MOL0     H63660   9.633   7.405  10.482  0.6770  0.2283  1.4811
  472MOL0     H63661   9.657   7.593  10.729 -1.3761 -1.6901  0.4520
  472MOL0     H63662   9.709   7.430  10.709  0.5598  0.2432  1.1579
  472MOL0     H63663   9.858   7.492  10.521  0.1551 -0.1887 -0.3537
  472MOL0     H63664   9.814   7.658  10.560  1.3491  0.7229  2.5255
  472MOL0     H63665   9.878   7.627  10.792  0.2379  1.6607 -2.1409
  472MOL0     H63666   9.950   7.462  10.745  2.6710 -1.0342 -2.6828
  472MOL0     H63667  10.036   7.746  10.658 -0.8363 -1.0251 -1.6072
  472MOL0     H63668  10.065   7.607  10.568  0.0487 -1.9378  0.6181
  472MOL0     H63669  10.135   7.623  10.873  4.8113  0.9695  1.4332
  472MOL0     H63670  10.157   7.493  10.774 -0.7287  1.2113  0.6796
  472MOL0     H63671  10.415   7.544  10.895 -2.1582  0.1075 -0.0070
  472MOL0     H63672  10.685   7.782  10.847 -4.2235  0.3784  2.3809
  472MOL0     H63673  10.629   7.646  10.927  0.4391  1.7235  1.2146
  472MOL0     H63674  10.762   7.642  10.647 -2.2115  0.7525  0.0147
  472MOL0     H63675  10.837   7.593  10.802  1.0866 -0.7669 -0.6244
  472MOL0     H63676  10.628   7.466  10.619  0.2901  0.4520  1.3269
  472MOL0     H63677  10.616   7.421  10.787  1.9153 -0.3144  2.9706
  472MOL0     H63678  10.886   7.403  10.613 -1.5384 -0.3814 -2.1072
  472MOL0     H63679  10.780   7.270  10.633  0.5157  0.3122 -2.7201
  472MOL0     H63680  11.006   7.196  10.618 -2.8862 -0.0103  2.6515
  472MOL0     H63681  11.253   7.133  10.630 -0.4629 -1.2838  0.2928
  472MOL0     H63682  11.550   6.900  10.626 -1.6585  1.4669  2.3569
  472MOL0     H63683  11.781   6.816  10.623 -4.3107 -0.0790 -1.4246
  472MOL0     H63684  12.136   6.881  10.548 -0.5907 -2.2406 -0.5289
  472MOL0     H63685  11.965   6.837  10.521 -2.0406  1.5108  0.8892
  472MOL0     H63686  12.054   6.946  10.343  1.0565  2.4017  0.0532
  472MOL0     H63687  11.906   7.022  10.401  0.4112  0.2921 -4.0886
  472MOL0     H63688  12.024   7.210  10.479  0.4917 -0.2440  1.0763
  472MOL0     H63689  12.183   7.140  10.443 -0.2993 -0.5447 -1.1031
  472MOL0     H63690  11.964   7.183  10.239  0.1894 -0.5611  0.3455
  472MOL0     H63691  12.142   7.140  10.210 -0.3050  0.1051 -1.0712
  472MOL0     H63692  12.196   7.362  10.329 -1.1160  1.3758  0.1407
  472MOL0     H63693  12.021   7.392  10.299 -3.1400 -2.6275 -1.2468
  472MOL0     H63694  12.184   7.483  10.116 -1.0599  0.0999 -1.4851
  472MOL0     H63695  12.235   7.320  10.089  0.3637  1.6828 -2.2406
  472MOL0     H63696  12.020   7.260  10.005 -0.3002  0.2491 -0.0730
  472MOL0     H63697  12.077   7.398   9.928 -4.5892  2.5428 -1.4431
  472MOL0     H63698  11.917   7.540  10.055 -0.2601  0.1291 -0.9527
  472MOL0     H63699  11.842   7.412   9.948 -0.6185 -4.0651  0.1619
  472MOL0     H63700  11.912   7.203  10.778  0.2806  0.4004 -1.5765
  472MOL0     H63701  11.673   7.271  10.781  0.7598 -0.0499 -0.2255
  472MOL0     H63702  11.287   7.319  11.012 -0.3766  1.6734 -0.9031
  472MOL0     H63703  11.051   7.381  11.001  3.4934  1.0811  1.2826
  472MOL0     H63704   9.189   7.590  10.303  0.1647 -1.0660 -2.8462
  472MOL0     H63705   8.980   7.597  10.168  0.0122 -1.2812 -1.3375
  472MOL0     H63706   8.642   7.400  10.013  0.3869  1.1990  0.2088
  472MOL0     H63707   8.417   7.379   9.900  0.7462 -0.8429 -0.9653
  472MOL0     H63708   8.152   7.360   9.882  2.3605 -0.4870  0.3744
  472MOL0     H63709   8.267   7.449   9.775  0.7560 -0.3044  1.5901
  472MOL0     H63710   8.020   7.388   9.723  1.7659 -0.9598  1.3167
  472MOL0     H63711   8.105   7.531   9.650  1.4671 -0.7838  0.3098
  472MOL0     H63712   8.012   7.667   9.844  0.2893 -0.2613  2.2777
  472MOL0     H63713   7.944   7.529   9.920  0.6471  1.2864  0.1903
  472MOL0     H63714   7.874   7.656   9.661  0.9047 -0.4616 -0.0309
  472MOL0     H63715   7.808   7.502   9.699  1.2702  0.9635 -2.5241
  472MOL0     H63716   7.577   7.738   9.971 -0.5056  1.5694 -0.7607
  472MOL0     H63717   8.258   7.689  10.155 -3.0446 -2.5551 -3.5962
  472MOL0     H63718   8.462   7.696  10.405 -0.4056  0.4781  0.6512
  472MOL0     H63719   8.554   7.803  10.299 -1.5860  2.3219  2.4889
  472MOL0     H63720   8.372   7.803  10.301  0.0938  0.6750  0.7962
  473MOL0     O63721   7.414   3.495   5.500 -0.6634 -0.1884 -0.9350
  473MOL0     C63722   7.294   3.482   5.499 -0.8200  0.6186  0.4890
  473MOL0     O63723   7.231   3.385   5.432  0.6244  0.2725 -0.0033
  473MOL0     C63724   7.282   3.256   5.425  0.0349 -0.3104 -0.6083
  473MOL0     C63725   7.315   3.208   5.297  0.3929 -0.6460  0.3462
  473MOL0     C63726   7.367   3.079   5.281  0.0926 -0.0667  0.5972
  473MOL0     C63727   7.414   3.007   5.387  0.1878  0.1033  0.2624
  473MOL0     O63728   7.478   2.887   5.379 -0.1751  0.6414 -0.1281
  473MOL0     C63729   7.481   2.815   5.254 -0.0007  0.0090 -0.5592
  473MOL0     C63730   7.332   2.772   5.201  0.3187  0.1204 -0.2504
  473MOL0     C63731   7.252   2.676   5.296  0.1196  0.3686  0.3322
  473MOL0     C63732   7.120   2.615   5.244  0.7543 -0.1129  0.2608
  473MOL0     C63733   7.062   2.518   5.350 -0.0136 -0.5752  0.6582
  473MOL0     C63734   6.933   2.452   5.305 -0.0962  0.4038  0.4682
  473MOL0     C63735   6.876   2.380   5.430 -0.3198 -0.9673 -0.1898
  473MOL0     C63736   6.820   2.473   5.541 -0.2440  0.6208 -0.1242
  473MOL0     N63737   6.770   2.391   5.651 -0.0609  0.2191 -0.4230
  473MOL0     C63738   6.648   2.332   5.660  0.0290 -0.7164  0.0936
  473MOL0     C63739   6.640   2.305   5.798  0.4064 -0.0626  0.2443
  473MOL0     C63740   6.517   2.248   5.861 -0.0417 -0.3115 -0.1061
  473MOL0     C63741   6.511   2.091   5.864  0.0679  0.3621 -0.0962
  473MOL0     C63742   6.631   2.037   5.950 -0.0250 -0.1620 -1.1055
  473MOL0     C63743   6.621   2.081   6.086  0.2325 -0.1865 -0.3550
  473MOL0     O63744   6.682   2.199   6.122  0.3175  0.0475 -0.4812
  473MOL0     C63745   6.751   2.207   6.238  0.8464  0.3975 -0.6865
  473MOL0     C63746   6.701   2.149   6.350 -0.0882 -0.6823 -0.5279
  473MOL0     C63747   6.768   2.157   6.469  0.3870 -0.2707  0.2656
  473MOL0     C63748   6.898   2.214   6.469  0.1478  0.3576  0.0275
  473MOL0     C63749   6.976   2.222   6.594 -0.4931 -1.8633 -0.3157
  473MOL0     O63750   7.088   2.291   6.591 -0.3533  0.3040  0.1142
  473MOL0     C63751   7.170   2.342   6.691  0.3041 -0.4181  0.3262
  473MOL0     C63752   7.147   2.317   6.823 -0.4767  0.2603 -0.4008
  473MOL0     C63753   7.239   2.350   6.925 -0.3348 -0.0829  0.0035
  473MOL0     C63754   7.361   2.419   6.890 -0.2284 -1.4453 -0.6351
  473MOL0     O63755   7.454   2.450   6.988 -0.0053  0.7565 -0.3498
  473MOL0     C63756   7.584   2.392   6.965 -0.2917 -0.4613 -0.2409
  473MOL0     C63757   7.667   2.436   7.088 -0.0463  0.6462  0.4446
  473MOL0     C63758   7.620   2.373   7.222  0.4574 -0.2266  0.1022
  473MOL0     C63759   7.734   2.346   7.322 -0.4112 -0.4534 -0.7916
  473MOL0     C63760   7.666   2.303   7.449 -1.3647 -0.0204 -0.3041
  473MOL0     C63761   7.764   2.296   7.568  0.3383 -0.2956  0.5187
  473MOL0     C63762   7.861   2.172   7.571  0.4086  0.4740  0.4092
  473MOL0     C63763   7.996   2.185   7.634  0.5213 -0.4125 -0.3308
  473MOL0    Cl63764   8.092   2.292   7.535  0.1719 -0.0486  0.1524
  473MOL0     C63765   7.384   2.445   6.759 -0.6221  0.2228 -0.5454
  473MOL0     C63766   7.286   2.408   6.665  0.5406  0.1598 -0.1648
  473MOL0     O63767   6.923   2.194   6.699  0.2115  0.4205 -0.1378
  473MOL0     C63768   6.949   2.281   6.353  0.4139  0.2546 -0.1087
  473MOL0     C63769   6.876   2.274   6.237 -0.2044 -0.0068 -0.0697
  473MOL0     N63770   6.760   2.353   5.855  0.4330  0.7830 -0.6221
  473MOL0     N63771   6.839   2.393   5.764  0.2854 -0.6480  0.1454
  473MOL0     C63772   7.378   3.052   5.513 -0.2689 -0.2110  0.3708
  473MOL0     C63773   7.305   3.166   5.535  0.1839 -0.1289  0.7523
  473MOL0     C63774   7.206   3.593   5.556  0.9059  0.6024 -0.0397
  473MOL0     C63775   7.065   3.580   5.576 -0.3262 -0.4630  0.1019
  473MOL0     C63776   6.978   3.677   5.631  0.3744  0.7094 -0.6259
  473MOL0     C63777   7.027   3.802   5.665  0.0399  0.5620  0.0712
  473MOL0     O63778   6.943   3.893   5.727  0.0606 -0.4795  0.4749
  473MOL0     C63779   6.976   4.020   5.787 -0.1093  0.8429  0.2012
  473MOL0     C63780   6.868   4.087   5.857 -0.5815  0.4008  0.0251
  473MOL0     C63781   6.734   4.058   5.792 -0.2554  0.3718 -0.1239
  473MOL0     C63782   6.630   4.125   5.882  0.7464 -0.2124 -0.7857
  473MOL0     C63783   6.492   4.144   5.817 -0.4655 -0.2703  0.8830
  473MOL0     C63784   6.404   4.169   5.747  0.3777 -0.5126 -0.1039
  473MOL0     C63785   7.163   3.824   5.641 -0.1937  0.4332 -0.0652
  473MOL0     C63786   7.253   3.721   5.588 -0.9305 -1.1977  0.1314
  473MOL0     C63787   7.400   3.763   5.573 -0.3803 -0.1761 -0.0845
  473MOL0     H63788   7.293   3.277   5.216 -1.7938  0.5299  1.8374
  473MOL0     H63789   7.398   3.058   5.179  1.1330 -1.4739  1.1594
  473MOL0     H63790   7.525   2.882   5.179 -0.5828  0.0500 -0.8710
  473MOL0     H63791   7.539   2.723   5.262 -0.8630 -0.3737  3.3197
  473MOL0     H63792   7.351   2.727   5.103  0.8085 -0.7909  0.2540
  473MOL0     H63793   7.279   2.863   5.172 -0.8736 -1.3531 -3.0631
  473MOL0     H63794   7.225   2.733   5.386 -1.7877 -0.7083  0.4988
  473MOL0     H63795   7.316   2.595   5.333 -0.6324 -0.0911  0.6562
  473MOL0     H63796   7.051   2.698   5.227 -0.3215 -1.1065 -0.3728
  473MOL0     H63797   7.128   2.563   5.148 -0.8381 -0.5978  0.3587
  473MOL0     H63798   7.137   2.443   5.379  1.1548  0.8256  1.3782
  473MOL0     H63799   7.039   2.581   5.437 -2.1353 -3.0530  2.0553
  473MOL0     H63800   6.860   2.527   5.274 -1.3788 -0.3765  1.5056
  473MOL0     H63801   6.956   2.393   5.216  2.0408  1.5429  0.2048
  473MOL0     H63802   6.943   2.308   5.479 -3.6336 -4.5357 -0.4033
  473MOL0     H63803   6.793   2.321   5.389 -1.1270  0.5973 -0.8871
  473MOL0     H63804   6.897   2.543   5.578 -0.7549  2.5923 -2.4916
  473MOL0     H63805   6.736   2.525   5.494  0.2169  0.0459 -1.6444
  473MOL0     H63806   6.585   2.303   5.576 -0.1736  0.0657 -0.0317
  473MOL0     H63807   6.518   2.295   5.960  0.8931 -1.0872  0.2646
  473MOL0     H63808   6.431   2.284   5.804 -1.5640 -2.5012  0.6882
  473MOL0     H63809   6.413   2.064   5.902 -0.0312  1.2803  0.3398
  473MOL0     H63810   6.528   2.045   5.766  0.3841 -3.3348  1.5217
  473MOL0     H63811   6.726   2.078   5.913 -0.2012  1.7694  0.4032
  473MOL0     H63812   6.632   1.928   5.941  2.1664 -0.3923  0.9763
  473MOL0     H63813   6.660   1.994   6.140 -0.9187 -1.3868 -1.3635
  473MOL0     H63814   6.516   2.093   6.116  0.1245 -1.6740 -0.0464
  473MOL0     H63815   6.603   2.102   6.351  0.8679 -2.9554  2.5186
  473MOL0     H63816   6.726   2.112   6.559 -0.4886 -2.8834 -1.3452
  473MOL0     H63817   7.065   2.263   6.868  0.5832  0.5516  2.0662
  473MOL0     H63818   7.218   2.322   7.028 -2.8367  1.3235 -0.0274
  473MOL0     H63819   7.597   2.284   6.953  3.3917 -0.3785  1.5717
  473MOL0     H63820   7.622   2.444   6.876  0.5604 -1.5812 -0.5655
  473MOL0     H63821   7.771   2.406   7.072 -0.4639  0.1099 -1.6098
  473MOL0     H63822   7.664   2.545   7.097  1.4534  0.6676  0.9424
  473MOL0     H63823   7.568   2.451   7.278  1.4805 -1.1190  2.4118
  473MOL0     H63824   7.550   2.289   7.214  0.2743 -0.0837  0.2051
  473MOL0     H63825   7.778   2.446   7.322  2.4291 -1.5976 -0.8896
  473MOL0     H63826   7.812   2.275   7.291  1.7769  1.7928 -0.7499
  473MOL0     H63827   7.639   2.198   7.431  2.7841 -1.9817  3.1360
  473MOL0     H63828   7.574   2.357   7.472 -1.6520 -0.4675 -0.3745
  473MOL0     H63829   7.819   2.390   7.571 -2.4322  1.4588 -0.4481
  473MOL0     H63830   7.709   2.283   7.661  3.6123 -0.4551  2.5787
  473MOL0     H63831   7.883   2.151   7.466  0.2190 -3.1300  0.9654
  473MOL0     H63832   7.813   2.087   7.621  0.1471 -0.6589 -1.6522
  473MOL0     H63833   7.977   2.240   7.727  0.5067  2.7324 -2.0427
  473MOL0     H63834   8.037   2.085   7.653  4.9001  0.9191 -1.5739
  473MOL0     H63835   7.477   2.493   6.731 -0.0781 -0.8623 -0.6936
  473MOL0     H63836   7.302   2.431   6.560  0.8233  3.6337  0.5019
  473MOL0     H63837   7.033   2.348   6.342 -0.9025  1.9093 -0.6317
  473MOL0     H63838   6.914   2.318   6.146  2.1875  3.9255  2.4998
  473MOL0     H63839   7.426   2.992   5.589  1.6871  0.8184  0.0130
  473MOL0     H63840   7.271   3.193   5.635  1.3214  1.5891  0.7122
  473MOL0     H63841   7.013   3.486   5.560 -3.5845  0.5596  3.4724
  473MOL0     H63842   6.874   3.656   5.654  0.5377  2.5871  2.3958
  473MOL0     H63843   7.014   4.085   5.708 -0.1851  0.1091 -0.4602
  473MOL0     H63844   7.055   3.999   5.860  0.1083 -1.0775 -0.5139
  473MOL0     H63845   6.877   4.195   5.842  3.4728  0.1347 -0.5677
  473MOL0     H63846   6.865   4.063   5.964 -1.3283 -2.5991 -0.5550
  473MOL0     H63847   6.711   3.952   5.778 -1.8855  0.8319 -1.2398
  473MOL0     H63848   6.729   4.103   5.692  3.0316 -1.9157 -1.4811
  473MOL0     H63849   6.618   4.069   5.975 -0.7743 -1.9134 -1.9321
  473MOL0     H63850   6.656   4.227   5.912  1.4194 -0.4175 -0.6621
  473MOL0     H63851   6.336   4.201   5.671  0.8948 -0.0497 -0.3824
  473MOL0     H63852   7.214   3.915   5.670 -1.4083  1.1540 -0.1022
  473MOL0     H63853   7.455   3.713   5.653 -1.0081 -1.0668 -0.1935
  473MOL0     H63854   7.431   3.739   5.471 -0.1788  0.9805 -0.3023
  473MOL0     H63855   7.408   3.872   5.569  1.5014 -0.2953 -0.3260
  474MOL0     O63856   3.089   0.050   2.864  0.0550  0.2075  0.0308
  474MOL0     C63857   3.139  -0.021   2.778  0.8941 -0.2592 -0.2615
  474MOL0     O63858   3.164   0.020   2.643  0.0907  1.0896 -0.2364
  474MOL0     C63859   3.082   0.119   2.605 -0.7595 -0.9499  0.0111
  474MOL0     C63860   3.138   0.241   2.560  0.1633  0.2660 -0.4691
  474MOL0     C63861   3.045   0.335   2.522 -1.0557  0.4432 -0.8963
  474MOL0     C63862   2.908   0.324   2.518 -0.4825 -0.3433  0.3545
  474MOL0     O63863   2.823   0.429   2.480  0.3418 -0.3974  0.0456
  474MOL0     C63864   2.876   0.560   2.516  0.5161  0.9705 -0.4407
  474MOL0     C63865   2.778   0.674   2.535  1.0171  0.6109 -0.9191
  474MOL0     C63866   2.690   0.691   2.405 -0.9523  0.3587  0.5888
  474MOL0     C63867   2.562   0.762   2.436  0.0838  0.1671 -0.9508
  474MOL0     C63868   2.510   0.828   2.315 -0.9078 -0.1822 -0.5581
  474MOL0     C63869   2.458   0.736   2.213 -0.3484  0.3386  1.1496
  474MOL0     C63870   2.416   0.783   2.069  0.3744 -0.7966 -0.4517
  474MOL0     C63871   2.466   0.693   1.953 -0.6352  0.0163  0.4100
  474MOL0     N63872   2.614   0.703   1.931 -0.3562  0.8117 -0.0378
  474MOL0     C63873   2.701   0.619   1.977 -0.2567  0.0217 -0.8744
  474MOL0     C63874   2.827   0.679   1.945 -0.8436 -0.0387  0.1879
  474MOL0     C63875   2.969   0.631   1.965 -0.5526 -0.1647 -0.9446
  474MOL0     C63876   3.076   0.740   1.977  0.6666 -0.5345  0.2686
  474MOL0     C63877   3.209   0.680   2.018  0.2875  0.5752 -0.6299
  474MOL0     C63878   3.322   0.775   2.001  0.4674 -0.0945 -0.5990
  474MOL0     O63879   3.440   0.697   2.033  0.1215 -0.2802  0.4155
  474MOL0     C63880   3.552   0.740   2.103 -0.9336 -0.3782  0.7218
  474MOL0     C63881   3.675   0.679   2.078 -0.3007  0.4198 -0.1010
  474MOL0     C63882   3.798   0.739   2.118 -0.3712 -0.4501  0.6388
  474MOL0     C63883   3.792   0.856   2.189 -0.7161 -0.5753  0.1622
  474MOL0     C63884   3.917   0.922   2.229 -0.2382 -0.8019 -0.2588
  474MOL0     O63885   4.043   0.861   2.203 -0.7585  0.9458  0.8703
  474MOL0     C63886   4.162   0.918   2.239 -0.2378 -0.2056 -0.3462
  474MOL0     C63887   4.276   0.883   2.155  0.9519 -0.8547 -0.0926
  474MOL0     C63888   4.406   0.931   2.178  0.3588  0.1593  0.1950
  474MOL0     C63889   4.436   1.001   2.298 -0.1904 -0.4551 -0.4728
  474MOL0     O63890   4.566   1.064   2.326 -0.0021  0.9500  0.4184
  474MOL0     C63891   4.594   1.107   2.462 -0.4137 -0.6047  0.8318
  474MOL0     C63892   4.748   1.123   2.471  0.6377  0.2777 -1.0290
  474MOL0     C63893   4.809   0.977   2.468  1.0144 -0.1350 -0.6710
  474MOL0     C63894   4.955   0.984   2.479 -0.2437  0.7679  0.3654
  474MOL0     C63895   4.990   1.025   2.616 -0.8185 -0.2672 -1.0873
  474MOL0     C63896   5.135   1.004   2.667 -0.2562 -0.9087 -1.0157
  474MOL0     C63897   5.234   1.122   2.650 -0.8050  0.0130 -0.5046
  474MOL0     C63898   5.378   1.070   2.644 -0.4931  0.0877  0.3851
  474MOL0    Cl63899   5.422   0.946   2.765  0.2138 -0.3488  0.1106
  474MOL0     C63900   4.325   1.018   2.386  0.3803  0.3978 -0.2321
  474MOL0     C63901   4.193   0.986   2.365  1.4702  0.7866 -0.4628
  474MOL0     O63902   3.911   1.037   2.277 -0.0455 -0.0862 -0.3016
  474MOL0     C63903   3.663   0.911   2.225  0.1810  0.0476 -1.4266
  474MOL0     C63904   3.549   0.852   2.180  0.1229 -0.1288 -0.1344
  474MOL0     N63905   2.802   0.791   1.877  0.0463 -0.4068 -1.0945
  474MOL0     N63906   2.679   0.805   1.861  0.4922  0.6063 -0.4779
  474MOL0     C63907   2.859   0.200   2.552  0.6012  0.1152 -0.4589
  474MOL0     C63908   2.940   0.101   2.605  0.1649 -0.1695  0.0708
  474MOL0     C63909   3.186  -0.143   2.828 -0.4368  0.0376  0.4436
  474MOL0     C63910   3.236  -0.140   2.961  0.0728 -0.0574  0.6895
  474MOL0     C63911   3.297  -0.256   3.008  0.3105 -0.4213 -0.3405
  474MOL0     C63912   3.304  -0.372   2.936 -0.2275 -0.0424  0.1138
  474MOL0     O63913   3.358  -0.477   3.000  0.5631  0.3952 -0.5756
  474MOL0     C63914   3.321  -0.518   3.133 -0.5380  0.2024 -0.9129
  474MOL0     C63915   3.181  -0.568   3.131  0.3054  0.0931  0.2168
  474MOL0     C63916   3.088  -0.497   3.228  0.0477 -0.2310  0.2621
  474MOL0     C63917   2.957  -0.571   3.253  0.3507 -0.8378 -0.4017
  474MOL0     C63918   2.978  -0.679   3.350  0.7631  0.4376 -0.0641
  474MOL0     C63919   2.997  -0.765   3.429 -0.2549  0.0855  0.4184
  474MOL0     C63920   3.268  -0.366   2.808  0.6978 -0.5678 -0.0404
  474MOL0     C63921   3.201  -0.262   2.749  0.2618  0.2207 -0.3498
  474MOL0     C63922   3.168  -0.270   2.608 -0.1031 -0.5869 -0.4085
  474MOL0     H63923   3.246   0.256   2.555  0.4216 -1.4214 -0.3237
  474MOL0     H63924   3.092   0.428   2.490  0.6174 -0.3701 -0.8994
  474MOL0     H63925   2.912   0.545   2.618  1.7258 -1.0455 -1.1091
  474MOL0     H63926   2.960   0.594   2.454  3.3320  0.2524  2.6739
  474MOL0     H63927   2.822   0.772   2.558  0.1263  0.4802  1.6755
  474MOL0     H63928   2.715   0.650   2.621  0.4696  0.7252 -1.2810
  474MOL0     H63929   2.657   0.593   2.368  1.1186  0.3560 -1.4281
  474MOL0     H63930   2.747   0.756   2.338 -1.6498  3.4846  2.8008
  474MOL0     H63931   2.488   0.698   2.484 -2.2165  0.9465 -3.2275
  474MOL0     H63932   2.582   0.835   2.515  1.3250  0.0519 -1.1301
  474MOL0     H63933   2.433   0.900   2.345 -0.1733  0.8773 -1.1378
  474MOL0     H63934   2.594   0.886   2.276  1.1846 -4.1933 -2.6604
  474MOL0     H63935   2.536   0.662   2.197 -1.9526 -0.8291 -2.2149
  474MOL0     H63936   2.374   0.680   2.257 -0.9848  0.7215  0.4362
  474MOL0     H63937   2.441   0.887   2.045 -1.5773  0.2153  1.5284
  474MOL0     H63938   2.306   0.785   2.070  0.3176  1.4005 -2.6380
  474MOL0     H63939   2.432   0.589   1.959 -2.4471  0.6261  1.6402
  474MOL0     H63940   2.423   0.740   1.864  0.5022 -0.9207 -0.6810
  474MOL0     H63941   2.680   0.521   2.019 -0.6071 -0.6272 -2.5131
  474MOL0     H63942   2.962   0.559   2.047 -0.9824 -1.2525 -1.9028
  474MOL0     H63943   3.008   0.561   1.890  2.2289 -1.0918  1.1870
  474MOL0     H63944   3.082   0.797   1.883  1.4059  0.0458  0.6567
  474MOL0     H63945   3.053   0.808   2.059  4.8482 -1.9190  2.8705
  474MOL0     H63946   3.210   0.584   1.965 -3.5608  1.4121 -2.5341
  474MOL0     H63947   3.213   0.663   2.126 -0.0765  1.9279 -0.3948
  474MOL0     H63948   3.297   0.848   2.079 -0.1988 -2.2316  1.2931
  474MOL0     H63949   3.344   0.829   1.908  1.3650  1.2658  0.3650
  474MOL0     H63950   3.679   0.577   2.040  1.5304 -0.8538  3.0681
  474MOL0     H63951   3.897   0.706   2.088 -0.9979 -1.0700 -0.8357
  474MOL0     H63952   4.256   0.829   2.063  0.5902  1.1528 -1.2547
  474MOL0     H63953   4.468   0.919   2.089 -0.2456  1.6451 -0.4533
  474MOL0     H63954   4.543   1.202   2.481 -0.3957 -0.5713  0.7174
  474MOL0     H63955   4.556   1.037   2.537 -0.1964  0.4879  1.9966
  474MOL0     H63956   4.780   1.171   2.378 -3.5934  1.5146 -2.0785
  474MOL0     H63957   4.767   1.190   2.556 -2.7245 -1.3137  1.1912
  474MOL0     H63958   4.766   0.924   2.553 -0.2650  2.8512  0.6990
  474MOL0     H63959   4.783   0.919   2.379 -2.2553 -1.2227  0.8598
  474MOL0     H63960   4.991   1.055   2.404  0.5356  1.2204  1.1337
  474MOL0     H63961   5.002   0.888   2.458  1.6015  1.8565 -0.7593
  474MOL0     H63962   4.938   0.960   2.687 -1.0181  1.1685  0.1282
  474MOL0     H63963   4.966   1.131   2.632  1.8796  0.7094 -2.6783
  474MOL0     H63964   5.134   0.967   2.770  2.7080 -1.8824 -1.2480
  474MOL0     H63965   5.177   0.918   2.614  0.5634 -0.1825 -1.5818
  474MOL0     H63966   5.213   1.195   2.729 -3.9838  1.5042 -2.5237
  474MOL0     H63967   5.214   1.168   2.552  0.2822  4.4477  1.0953
  474MOL0     H63968   5.391   1.025   2.546  2.1656  2.8493 -0.6755
  474MOL0     H63969   5.438   1.161   2.660 -0.4021 -0.0393  0.7834
  474MOL0     H63970   4.324   1.082   2.474  0.5395 -0.9189  0.7609
  474MOL0     H63971   4.117   1.009   2.439  3.5228 -2.8131  3.2031
  474MOL0     H63972   3.661   0.996   2.293  2.2928  0.5527 -1.9085
  474MOL0     H63973   3.454   0.892   2.213 -0.2904 -0.8150 -0.4773
  474MOL0     H63974   2.755   0.178   2.530  1.4934 -1.4029 -3.7460
  474MOL0     H63975   2.900   0.003   2.627  0.3626 -0.1584  0.4934
  474MOL0     H63976   3.239  -0.047   3.017 -1.9005  0.9418 -0.7557
  474MOL0     H63977   3.329  -0.247   3.111 -1.5002 -1.5425  0.3694
  474MOL0     H63978   3.348  -0.448   3.213 -0.4418 -2.3227  1.4299
  474MOL0     H63979   3.385  -0.601   3.165  0.7787  2.0718  1.6918
  474MOL0     H63980   3.185  -0.673   3.161  1.2226  0.5800  1.9210
  474MOL0     H63981   3.151  -0.583   3.027  1.8681 -5.1337  0.2010
  474MOL0     H63982   3.044  -0.405   3.188 -1.0853 -0.7997  0.1549
  474MOL0     H63983   3.134  -0.480   3.325  0.1172 -1.0149  0.3774
  474MOL0     H63984   2.891  -0.495   3.296  1.7633 -0.0182  0.3967
  474MOL0     H63985   2.918  -0.604   3.156  1.6200 -0.2627 -1.1243
  474MOL0     H63986   3.010  -0.838   3.506 -1.2051 -0.2054  0.3234
  474MOL0     H63987   3.293  -0.457   2.754  1.2013 -1.2618  1.3307
  474MOL0     H63988   3.233  -0.206   2.547 -2.0660  2.1365  0.1411
  474MOL0     H63989   3.170  -0.375   2.578 -0.1737 -1.1828  1.5714
  474MOL0     H63990   3.065  -0.235   2.594  0.2518 -0.2960 -2.6331
  475MOL0     O63991   4.545   1.992   6.800 -0.0569  0.1317 -0.0934
  475MOL0     C63992   4.513   1.935   6.697 -0.1778 -0.0140 -0.0951
  475MOL0     O63993   4.389   1.899   6.652  0.3767 -0.0452 -0.5513
  475MOL0     C63994   4.279   1.909   6.731  0.1385 -0.0965  0.6633
  475MOL0     C63995   4.246   2.035   6.783 -0.0746  0.1836  0.3708
  475MOL0     C63996   4.134   2.053   6.859 -1.1774  0.3736 -0.1870
  475MOL0     C63997   4.043   1.945   6.876 -0.4491  0.2002  0.6657
  475MOL0     O63998   3.939   1.974   6.954  0.5869  0.5223  0.7810
  475MOL0     C63999   3.833   1.885   6.977 -0.2555  0.1746  0.1740
  475MOL0     C64000   3.720   1.968   7.038  0.7953  0.3600 -0.3063
  475MOL0     C64001   3.587   1.899   7.013  0.4178  0.3455 -0.0780
  475MOL0     C64002   3.467   1.970   7.084 -0.7343  0.7075 -0.0414
  475MOL0     C64003   3.337   1.897   7.062  0.2720  0.4745  0.7382
  475MOL0     C64004   3.221   1.984   7.105 -0.6745  0.6677 -0.3835
  475MOL0     C64005   3.089   1.914   7.083  0.0076  0.5096  0.0892
  475MOL0     C64006   3.077   1.791   7.176 -0.6748 -0.4520  0.3320
  475MOL0     N64007   2.949   1.718   7.166  0.4463  0.3711 -0.6820
  475MOL0     C64008   2.855   1.708   7.265 -0.0012  0.2222  0.1182
  475MOL0     C64009   2.753   1.636   7.215  0.5823 -0.5657  0.1871
  475MOL0     C64010   2.617   1.613   7.277  0.8192  0.6034 -0.4812
  475MOL0     C64011   2.614   1.514   7.396 -0.0596  0.5506 -0.8579
  475MOL0     C64012   2.664   1.376   7.344 -0.0958  0.6043 -0.4869
  475MOL0     C64013   2.647   1.282   7.461 -0.4287  0.4161 -0.0738
  475MOL0     O64014   2.676   1.155   7.408  0.2065  0.3768 -0.2703
  475MOL0     C64015   2.805   1.117   7.398 -0.8396  1.6645 -0.4555
  475MOL0     C64016   2.834   0.988   7.366 -0.7254  0.3085 -0.6884
  475MOL0     C64017   2.966   0.943   7.359 -0.4445 -0.0860  0.0816
  475MOL0     C64018   3.075   1.020   7.389  0.4472  0.5154 -0.5229
  475MOL0     C64019   3.213   0.964   7.376 -0.0391  0.1921 -0.3484
  475MOL0     O64020   3.306   1.042   7.420  0.3090 -0.5039 -0.8561
  475MOL0     C64021   3.435   1.009   7.401 -0.2138  0.3582  0.3054
  475MOL0     C64022   3.524   1.110   7.381  1.1356  1.1579 -0.1399
  475MOL0     C64023   3.660   1.090   7.357  0.0295 -0.2819  0.2318
  475MOL0     C64024   3.715   0.964   7.355  0.5734  0.1204 -0.1672
  475MOL0     O64025   3.846   0.964   7.312  0.3566  0.1861 -0.7170
  475MOL0     C64026   3.925   0.861   7.374  0.3564  0.0240  0.5512
  475MOL0     C64027   3.965   0.903   7.506  0.5009  0.1113  0.5131
  475MOL0     C64028   4.067   0.800   7.554  0.2042 -0.3335 -0.3355
  475MOL0     C64029   4.108   0.834   7.701 -0.0285 -0.0417  0.3773
  475MOL0     C64030   4.165   0.703   7.752 -0.1066 -1.2122  0.0904
  475MOL0     C64031   4.276   0.642   7.659 -0.2504 -0.7683 -0.1338
  475MOL0     C64032   4.366   0.525   7.711  0.1627 -0.3171 -0.0343
  475MOL0     C64033   4.479   0.594   7.797 -0.0242  0.3064  0.1148
  475MOL0    Cl64034   4.590   0.465   7.890  0.0591 -0.0824  0.1248
  475MOL0     C64035   3.635   0.856   7.393  0.1005 -0.1680  0.3004
  475MOL0     C64036   3.498   0.874   7.416 -0.5470  0.6114 -0.0162
  475MOL0     O64037   3.229   0.856   7.321  0.5117  0.1852 -0.1384
  475MOL0     C64038   3.058   1.151   7.424  0.1780  0.5081 -0.0654
  475MOL0     C64039   2.921   1.198   7.427 -1.5261 -0.0846  0.5702
  475MOL0     N64040   2.774   1.620   7.076 -0.3790  0.5658 -0.8597
  475MOL0     N64041   2.897   1.662   7.056 -0.2288 -0.1160 -0.0061
  475MOL0     C64042   4.069   1.817   6.810 -0.7190  0.2088 -1.0647
  475MOL0     C64043   4.188   1.801   6.750 -0.7397 -0.1199 -0.4144
  475MOL0     C64044   4.623   1.899   6.611 -1.5597 -0.8050 -0.7990
  475MOL0     C64045   4.633   1.772   6.554  0.6534 -0.2983 -0.3948
  475MOL0     C64046   4.751   1.737   6.487  0.9295 -0.0541  0.3138
  475MOL0     C64047   4.859   1.823   6.480 -0.2496  0.0041  0.7110
  475MOL0     O64048   4.980   1.777   6.427  0.2858 -0.1990  0.4067
  475MOL0     C64049   5.024   1.636   6.456 -0.6245 -0.3353  0.4846
  475MOL0     C64050   5.045   1.567   6.319  0.0455 -0.2922  0.3004
  475MOL0     C64051   5.148   1.645   6.230  0.6202  0.1707  0.1452
  475MOL0     C64052   5.291   1.619   6.270  0.6011  0.5956 -0.0054
  475MOL0     C64053   5.384   1.699   6.199 -0.6251  0.9814  0.0900
  475MOL0     C64054   5.467   1.771   6.154 -0.4690  0.1219 -0.1280
  475MOL0     C64055   4.838   1.962   6.523  0.6473  0.9845 -0.3506
  475MOL0     C64056   4.719   1.998   6.591 -0.5539  0.5502 -0.3720
  475MOL0     C64057   4.708   2.142   6.630  0.2833  0.8155 -0.7136
  475MOL0     H64058   4.307   2.124   6.769  0.9992 -0.6978 -0.8866
  475MOL0     H64059   4.114   2.153   6.895 -2.0448  2.4418 -5.4451
  475MOL0     H64060   3.813   1.850   6.875  0.7251  2.4135 -0.8547
  475MOL0     H64061   3.866   1.803   7.042 -2.6679 -2.6515 -1.8789
  475MOL0     H64062   3.713   2.059   6.979 -3.5827  0.1130 -0.4798
  475MOL0     H64063   3.739   1.991   7.143  0.5460 -1.6888  0.2399
  475MOL0     H64064   3.596   1.799   7.057 -1.5390  1.3298  2.9316
  475MOL0     H64065   3.572   1.885   6.906 -4.1267 -0.0974  0.4410
  475MOL0     H64066   3.486   1.990   7.190 -0.1601 -1.7361  0.3830
  475MOL0     H64067   3.450   2.064   7.031 -1.2556 -0.7450 -2.6255
  475MOL0     H64068   3.331   1.881   6.954  3.5879  0.2317  0.5012
  475MOL0     H64069   3.343   1.811   7.129 -1.1934  0.4225  0.8413
  475MOL0     H64070   3.229   2.015   7.209  2.1322  0.5670 -0.4966
  475MOL0     H64071   3.229   2.078   7.049  0.5305  1.0695  0.4209
  475MOL0     H64072   3.080   1.884   6.978 -1.7208  2.5542 -0.4255
  475MOL0     H64073   3.002   1.977   7.103  0.5989  1.2167  0.5204
  475MOL0     H64074   3.157   1.725   7.143 -0.9002 -0.7076  0.2983
  475MOL0     H64075   3.108   1.819   7.277 -0.9617  0.8348  0.0824
  475MOL0     H64076   2.866   1.746   7.367  1.4159  1.1800 -0.3574
  475MOL0     H64077   2.582   1.708   7.319 -1.4314 -0.4678  0.2303
  475MOL0     H64078   2.536   1.595   7.205 -0.8403  4.4514  0.1694
  475MOL0     H64079   2.671   1.560   7.477 -3.1096 -1.3803  2.7618
  475MOL0     H64080   2.512   1.496   7.433  0.1894 -1.5059 -1.0693
  475MOL0     H64081   2.769   1.390   7.319 -0.0415 -0.5742 -0.9598
  475MOL0     H64082   2.604   1.345   7.258 -0.9510  2.0789 -0.4738
  475MOL0     H64083   2.548   1.273   7.506 -1.7273  1.1545 -2.5551
  475MOL0     H64084   2.706   1.312   7.548  1.1823 -0.8163 -0.6784
  475MOL0     H64085   2.751   0.921   7.348 -0.9118 -0.1072  1.4892
  475MOL0     H64086   2.977   0.839   7.329 -0.7158 -0.4273  1.1444
  475MOL0     H64087   3.485   1.210   7.368 -1.0249  0.5870  1.4372
  475MOL0     H64088   3.720   1.178   7.335 -2.6942  1.5438 -0.4572
  475MOL0     H64089   3.876   0.763   7.379  3.5073 -1.7544 -0.7269
  475MOL0     H64090   4.011   0.849   7.309 -0.8332  0.7439 -1.2249
  475MOL0     H64091   4.014   1.001   7.498  1.7235 -0.5849 -1.1525
  475MOL0     H64092   3.877   0.899   7.571  0.5499  0.7864  0.6276
  475MOL0     H64093   4.021   0.700   7.553 -0.1674 -0.1614 -0.7905
  475MOL0     H64094   4.145   0.801   7.477 -0.5168  3.7064 -1.1876
  475MOL0     H64095   4.024   0.856   7.768  1.0874 -0.7454  2.0843
  475MOL0     H64096   4.182   0.915   7.699  0.3426 -0.3623  0.8209
  475MOL0     H64097   4.087   0.628   7.766 -1.6665 -0.1879 -2.5298
  475MOL0     H64098   4.206   0.729   7.851 -0.6924 -0.3166  0.1107
  475MOL0     H64099   4.238   0.600   7.565 -0.7716 -1.3579  0.3306
  475MOL0     H64100   4.341   0.729   7.647 -0.3807  0.0382  3.6600
  475MOL0     H64101   4.420   0.479   7.627  0.3726  0.5461 -0.3893
  475MOL0     H64102   4.304   0.447   7.755  0.8136 -0.9461 -0.1990
  475MOL0     H64103   4.543   0.655   7.733 -1.2658 -0.7523 -2.2877
  475MOL0     H64104   4.431   0.654   7.875 -1.1465  1.3824 -1.3492
  475MOL0     H64105   3.668   0.752   7.391  2.1205  0.3731  1.9532
  475MOL0     H64106   3.439   0.785   7.435 -1.4118  1.0777 -0.4253
  475MOL0     H64107   3.144   1.216   7.437  0.2752  1.2846 -3.4985
  475MOL0     H64108   2.918   1.302   7.458  1.8874  0.1671  0.4393
  475MOL0     H64109   4.009   1.726   6.807  0.4232 -0.7399  1.7558
  475MOL0     H64110   4.211   1.712   6.692  3.5578  0.6396 -0.2648
  475MOL0     H64111   4.563   1.690   6.563  0.8716 -0.3213  1.5495
  475MOL0     H64112   4.758   1.637   6.445 -0.5277 -0.2008  0.3807
  475MOL0     H64113   4.950   1.591   6.522 -1.8011 -1.7402 -1.6674
  475MOL0     H64114   5.118   1.633   6.512 -0.8680 -0.5075  0.8913
  475MOL0     H64115   4.944   1.561   6.278 -0.0219  0.0296  0.4187
  475MOL0     H64116   5.080   1.466   6.341  3.0133 -0.1503 -2.9641
  475MOL0     H64117   5.118   1.751   6.232  2.5350  0.7427  2.1235
  475MOL0     H64118   5.145   1.625   6.123  3.5414  2.5639 -0.5088
  475MOL0     H64119   5.299   1.628   6.379 -2.7273 -1.3240  0.5408
  475MOL0     H64120   5.317   1.515   6.250 -0.0877  0.3595  0.2864
  475MOL0     H64121   5.512   1.853   6.102  1.2966 -1.2642 -0.8986
  475MOL0     H64122   4.917   2.036   6.521 -0.3387  2.3287  3.3947
  475MOL0     H64123   4.735   2.204   6.545  0.9268 -0.2022 -1.2775
  475MOL0     H64124   4.602   2.168   6.640  0.0655  0.4640 -1.9555
  475MOL0     H64125   4.769   2.175   6.715  0.2746  3.5034 -1.6706
  476MOL0     O64126   5.572   2.152   5.596  0.6175  0.1759 -0.3364
  476MOL0     C64127   5.669   2.183   5.667 -0.0197 -0.6814  0.8554
  476MOL0     O64128   5.759   2.275   5.645  0.2486 -0.7200  0.0995
  476MOL0     C64129   5.723   2.376   5.563  0.9268 -0.3974  0.1126
  476MOL0     C64130   5.742   2.384   5.428 -0.6629  0.1162  0.4413
  476MOL0     C64131   5.695   2.484   5.350  0.0087  0.3034 -0.7129
  476MOL0     C64132   5.630   2.589   5.404 -0.2440  1.2568 -0.4565
  476MOL0     O64133   5.594   2.691   5.324 -0.1643 -0.4679 -0.4049
  476MOL0     C64134   5.458   2.702   5.277 -0.0827  0.5669  0.7091
  476MOL0     C64135   5.426   2.595   5.157 -0.1435  0.1515 -0.2991
  476MOL0     C64136   5.368   2.459   5.194 -0.6760  0.3623 -0.7321
  476MOL0     C64137   5.258   2.472   5.314  0.8486  0.1570  0.6316
  476MOL0     C64138   5.221   2.328   5.344 -0.4409 -0.5242  0.7368
  476MOL0     C64139   5.304   2.264   5.448 -0.8203  0.2870 -0.7588
  476MOL0     C64140   5.257   2.118   5.479 -0.5806 -0.6664 -0.7660
  476MOL0     C64141   5.245   2.011   5.360 -0.0549 -0.7978  0.0697
  476MOL0     N64142   5.366   1.976   5.284 -0.8644  0.4476 -0.7147
  476MOL0     C64143   5.463   1.889   5.331 -0.1523 -0.5340 -0.5769
  476MOL0     C64144   5.557   1.886   5.236 -0.1575 -0.6454  0.2729
  476MOL0     C64145   5.686   1.814   5.258  0.1214 -0.1397 -0.4334
  476MOL0     C64146   5.816   1.890   5.233 -0.4147  1.1803 -0.2985
  476MOL0     C64147   5.834   2.021   5.326 -0.2116 -0.1238 -0.0883
  476MOL0     C64148   5.889   1.977   5.464 -0.5135  0.7616  0.4393
  476MOL0     O64149   6.024   1.934   5.461 -0.5484 -0.3596 -0.1052
  476MOL0     C64150   6.066   1.887   5.585 -0.3076  0.1906 -0.1976
  476MOL0     C64151   6.087   1.749   5.614  0.8707  0.1439 -0.8939
  476MOL0     C64152   6.120   1.708   5.751 -0.1441 -0.0363  0.5146
  476MOL0     C64153   6.153   1.807   5.843  0.3485  0.2430  0.1760
  476MOL0     C64154   6.193   1.770   5.985 -0.3043 -0.6661  0.5977
  476MOL0     O64155   6.242   1.880   6.054  0.4596  1.2713  0.5946
  476MOL0     C64156   6.312   1.862   6.165  0.2858  0.0533 -0.2952
  476MOL0     C64157   6.282   1.950   6.276 -0.7920  0.0231 -0.6020
  476MOL0     C64158   6.346   1.943   6.405  0.1633  0.0773  0.5503
  476MOL0     C64159   6.447   1.849   6.418  0.0929 -0.6063  0.6005
  476MOL0     O64160   6.524   1.833   6.532  0.3949  1.1581  0.2195
  476MOL0     C64161   6.480   1.719   6.610 -0.7972 -0.7968  0.1243
  476MOL0     C64162   6.569   1.706   6.724  0.4022  0.9064 -0.6820
  476MOL0     C64163   6.706   1.648   6.689  0.2294  0.0509  0.3213
  476MOL0     C64164   6.812   1.654   6.795 -0.2952 -0.9926  0.0498
  476MOL0     C64165   6.872   1.796   6.791  0.3353 -0.4043 -0.4428
  476MOL0     C64166   7.004   1.821   6.869 -0.3009 -0.4451 -0.6059
  476MOL0     C64167   7.085   1.946   6.821 -0.2976  0.3511 -0.2423
  476MOL0     C64168   7.236   1.946   6.870 -0.8569 -0.1834 -0.2965
  476MOL0    Cl64169   7.229   1.949   7.050  0.0383 -0.3318 -0.0292
  476MOL0     C64170   6.487   1.773   6.312 -0.1547 -0.4968 -0.1819
  476MOL0     C64171   6.418   1.769   6.190  0.0084 -0.6201  0.4636
  476MOL0     O64172   6.196   1.652   6.020 -0.0057 -0.3298 -0.3400
  476MOL0     C64173   6.128   1.942   5.808  0.2132 -1.0682 -0.1534
  476MOL0     C64174   6.094   1.977   5.682  0.2249 -0.0424 -0.6329
  476MOL0     N64175   5.513   1.959   5.129  0.0046  0.3556  0.4066
  476MOL0     N64176   5.389   2.001   5.155 -0.7548 -0.3267  0.1042
  476MOL0     C64177   5.599   2.590   5.535  0.1461  0.5220  0.3233
  476MOL0     C64178   5.643   2.481   5.614 -0.2337  0.7948 -0.6132
  476MOL0     C64179   5.702   2.098   5.781  0.1690  0.4721 -1.5539
  476MOL0     C64180   5.801   2.146   5.872 -0.0198  0.2648  0.3951
  476MOL0     C64181   5.833   2.079   5.988  0.6223 -0.1609 -0.4623
  476MOL0     C64182   5.794   1.947   6.008  0.2588  1.0556  0.5072
  476MOL0     O64183   5.825   1.874   6.118 -0.0983 -0.0927 -0.2642
  476MOL0     C64184   5.929   1.914   6.210  0.6126 -0.0767 -0.1651
  476MOL0     C64185   5.869   1.987   6.334  0.4638  0.4861 -0.4496
  476MOL0     C64186   5.766   1.901   6.419  0.1323  0.4430 -0.1092
  476MOL0     C64187   5.807   1.758   6.461  0.8516  0.7693  0.0593
  476MOL0     C64188   5.938   1.755   6.535 -0.2474 -0.6757  0.5918
  476MOL0     C64189   6.041   1.770   6.605 -0.6080  0.3136  0.0161
  476MOL0     C64190   5.702   1.891   5.911  0.1080 -0.6242  0.2162
  476MOL0     C64191   5.657   1.967   5.798  0.3129 -0.2085 -0.7226
  476MOL0     C64192   5.558   1.900   5.704  0.4996 -0.4107 -0.0836
  476MOL0     H64193   5.803   2.310   5.377  3.4293  1.6063  2.6934
  476MOL0     H64194   5.732   2.495   5.249 -0.1347  4.1903 -0.5115
  476MOL0     H64195   5.393   2.711   5.365  0.6503  0.7442  1.2446
  476MOL0     H64196   5.457   2.797   5.222  0.5587 -0.4765 -1.1712
  476MOL0     H64197   5.516   2.569   5.100  0.6631 -0.0110  1.0107
  476MOL0     H64198   5.351   2.635   5.088 -0.0329 -1.3868 -1.3530
  476MOL0     H64199   5.451   2.395   5.225  0.4259  1.2524 -1.7482
  476MOL0     H64200   5.339   2.401   5.106 -1.1590  0.3839 -0.5909
  476MOL0     H64201   5.298   2.538   5.390  2.6772  2.3438 -2.0263
  476MOL0     H64202   5.166   2.514   5.271  0.3854  1.0962  2.4841
  476MOL0     H64203   5.119   2.337   5.381 -1.4046 -0.4323 -1.7553
  476MOL0     H64204   5.230   2.269   5.251 -1.6312  0.9788 -0.3805
  476MOL0     H64205   5.408   2.263   5.414 -0.0818 -0.6804  1.3692
  476MOL0     H64206   5.294   2.335   5.530  2.5646  2.4148 -1.9664
  476MOL0     H64207   5.163   2.126   5.534  0.6832  0.0348  1.3730
  476MOL0     H64208   5.326   2.073   5.550 -0.3733  0.9094  0.0630
  476MOL0     H64209   5.208   1.918   5.403  0.1947 -1.1398 -0.4401
  476MOL0     H64210   5.186   2.061   5.283 -1.0903 -0.5296  1.0196
  476MOL0     H64211   5.465   1.851   5.432 -0.8957 -0.3992 -0.5108
  476MOL0     H64212   5.693   1.765   5.355  5.2353 -0.9537 -0.9042
  476MOL0     H64213   5.683   1.730   5.188  2.7332 -1.6081  1.0480
  476MOL0     H64214   5.894   1.816   5.256  0.1865  1.9654  0.2211
  476MOL0     H64215   5.821   1.899   5.124  0.2337 -1.1002 -0.5152
  476MOL0     H64216   5.741   2.077   5.319 -2.1632 -3.1623 -0.1878
  476MOL0     H64217   5.916   2.087   5.295  1.0806  0.0357  3.2354
  476MOL0     H64218   5.819   1.911   5.516 -1.8899  1.4087 -0.5344
  476MOL0     H64219   5.877   2.071   5.519 -1.2480  1.1731 -0.4049
  476MOL0     H64220   6.080   1.678   5.532 -0.9077 -2.4698  1.3443
  476MOL0     H64221   6.123   1.603   5.778  1.3602 -0.0589  0.3613
  476MOL0     H64222   6.212   2.032   6.263  1.0002  1.8069  0.3448
  476MOL0     H64223   6.310   2.009   6.483 -1.2688  0.7903 -0.6559
  476MOL0     H64224   6.382   1.753   6.644 -0.8494 -1.8041  1.0237
  476MOL0     H64225   6.483   1.622   6.560 -0.8676 -1.5266  1.4893
  476MOL0     H64226   6.576   1.802   6.776 -1.2296  0.4936  0.3737
  476MOL0     H64227   6.529   1.643   6.804  2.0796  2.6195  1.6126
  476MOL0     H64228   6.688   1.541   6.675  0.6347 -0.7440  4.6041
  476MOL0     H64229   6.741   1.690   6.594 -1.6434  0.1485 -0.3684
  476MOL0     H64230   6.896   1.587   6.772  0.7378  0.0577  0.6651
  476MOL0     H64231   6.777   1.638   6.897  1.0149  1.8513  1.0345
  476MOL0     H64232   6.799   1.869   6.827  0.5875  0.3188 -1.3751
  476MOL0     H64233   6.894   1.818   6.687 -0.0254  2.2720 -0.0209
  476MOL0     H64234   6.977   1.825   6.974 -1.0860 -0.9437 -0.7809
  476MOL0     H64235   7.073   1.736   6.878  0.0533  0.0494  2.4591
  476MOL0     H64236   7.032   2.039   6.844 -3.3390 -1.2528 -0.2362
  476MOL0     H64237   7.100   1.931   6.714  0.3211 -0.2682 -0.0725
  476MOL0     H64238   7.288   1.853   6.843  0.4463  0.8670 -1.5732
  476MOL0     H64239   7.290   2.023   6.815  1.8205 -2.9323 -1.8468
  476MOL0     H64240   6.575   1.710   6.325  2.1511  1.9873 -2.4827
  476MOL0     H64241   6.452   1.699   6.114 -0.2583 -0.7590  0.4723
  476MOL0     H64242   6.135   2.015   5.888 -0.0312 -0.4497 -0.6868
  476MOL0     H64243   6.078   2.084   5.669 -0.0393 -0.2067 -1.7560
  476MOL0     H64244   5.549   2.674   5.583 -0.0938 -0.6357  2.2170
  476MOL0     H64245   5.621   2.496   5.719 -0.6378 -0.1905 -0.5379
  476MOL0     H64246   5.858   2.238   5.857  0.4669 -0.1787 -0.5613
  476MOL0     H64247   5.910   2.120   6.052  0.3391 -1.1157  0.5395
  476MOL0     H64248   6.000   1.979   6.158  0.1347 -1.9063 -3.3837
  476MOL0     H64249   6.001   1.836   6.237 -0.9059 -1.5310 -0.2034
  476MOL0     H64250   5.833   2.089   6.317  0.3775  1.0380  2.4746
  476MOL0     H64251   5.955   2.009   6.399  0.3595  1.0176 -0.4850
  476MOL0     H64252   5.668   1.892   6.372 -1.2821 -0.2519  2.7400
  476MOL0     H64253   5.744   1.954   6.513  0.6320 -0.6662  0.6537
  476MOL0     H64254   5.733   1.710   6.525  0.6099 -1.4528 -1.7617
  476MOL0     H64255   5.813   1.691   6.374 -1.4338 -2.0858  1.9090
  476MOL0     H64256   6.120   1.784   6.676 -0.9520  2.5655  0.0254
  476MOL0     H64257   5.658   1.795   5.936 -1.2237 -0.0142  0.2847
  476MOL0     H64258   5.464   1.955   5.705 -0.6300 -2.2834  0.6760
  476MOL0     H64259   5.605   1.895   5.605 -0.1349  0.0870 -0.4137
  476MOL0     H64260   5.531   1.800   5.741  0.4076 -0.4293 -0.2027
  477MOL0     O64261   5.292   8.421   9.382  0.5830  1.0133  0.8087
  477MOL0     C64262   5.394   8.389   9.320 -0.2868 -0.2336  0.3646
  477MOL0     O64263   5.388   8.328   9.195 -0.8177 -0.3701 -0.2450
  477MOL0     C64264   5.286   8.373   9.113 -0.2528 -0.4887 -0.4536
  477MOL0     C64265   5.301   8.465   9.007  0.1838  0.2316  1.1435
  477MOL0     C64266   5.191   8.519   8.941  0.0968  0.7392 -0.5662
  477MOL0     C64267   5.061   8.476   8.971  0.1549  0.2233  0.5784
  477MOL0     O64268   4.959   8.520   8.892 -0.1020 -0.5779  0.4142
  477MOL0     C64269   4.825   8.488   8.929  0.5373 -0.4702 -0.2297
  477MOL0     C64270   4.725   8.538   8.830  0.6725  0.1776 -0.4919
  477MOL0     C64271   4.721   8.697   8.835 -0.6903  0.0875  0.5212
  477MOL0     C64272   4.589   8.752   8.773 -0.1167  0.0601  0.3772
  477MOL0     C64273   4.576   8.903   8.787 -0.0186 -0.1885 -0.0327
  477MOL0     C64274   4.606   8.961   8.922  0.1662 -1.0349  0.0425
  477MOL0     C64275   4.485   9.050   8.975  0.8920 -0.8140 -0.9846
  477MOL0     C64276   4.479   9.184   8.909 -0.5613 -0.2735 -0.3681
  477MOL0     N64277   4.598   9.267   8.939 -0.2013 -0.3183 -0.0924
  477MOL0     C64278   4.606   9.378   9.024 -0.4430 -0.4045 -0.0613
  477MOL0     C64279   4.734   9.425   9.023 -0.2091  0.0219 -1.1820
  477MOL0     C64280   4.793   9.536   9.111  0.7115 -0.4433 -0.8602
  477MOL0     C64281   4.883   9.483   9.219 -0.3310 -0.0119 -0.3452
  477MOL0     C64282   5.000   9.402   9.164 -0.6459  0.3727  0.2855
  477MOL0     C64283   5.117   9.485   9.106  0.2341 -0.2204 -0.2340
  477MOL0     O64284   5.230   9.402   9.085  0.5292  0.0853  0.0314
  477MOL0     C64285   5.336   9.463   9.027  0.0616  0.1897 -0.1130
  477MOL0     C64286   5.451   9.386   9.018  0.3762  0.9462 -0.0418
  477MOL0     C64287   5.568   9.439   8.958 -0.7075  0.3360  0.0732
  477MOL0     C64288   5.569   9.576   8.918  0.4079  0.3496  0.3339
  477MOL0     C64289   5.698   9.636   8.871  1.1877  1.2717  0.7060
  477MOL0     O64290   5.802   9.549   8.870  0.3326  0.0821 -0.8681
  477MOL0     C64291   5.922   9.596   8.823 -0.5514 -0.4004 -0.2535
  477MOL0     C64292   6.000   9.659   8.926  1.2402  0.0299 -0.1284
  477MOL0     C64293   6.138   9.684   8.885 -0.1044 -0.3319 -0.4957
  477MOL0     C64294   6.186   9.676   8.748 -0.5303 -0.7560  0.0476
  477MOL0     O64295   6.303   9.743   8.721  0.0172  0.3794 -0.3598
  477MOL0     C64296   6.378   9.700   8.603  0.6125  1.0742 -0.1047
  477MOL0     C64297   6.527   9.734   8.617  0.2704 -0.0815  0.0501
  477MOL0     C64298   6.589   9.686   8.490  0.4557  0.1037 -0.1084
  477MOL0     C64299   6.726   9.745   8.462  1.4837  0.0010  0.4359
  477MOL0     C64300   6.738   9.768   8.311 -0.2828  0.0797  0.4140
  477MOL0     C64301   6.876   9.816   8.265  0.8676 -0.2759 -0.1436
  477MOL0     C64302   6.871   9.862   8.116 -0.8938 -0.1824  0.8404
  477MOL0     C64303   6.999   9.853   8.052  0.6725 -0.5317 -1.4643
  477MOL0    Cl64304   6.973   9.893   7.888  0.1266 -0.3088  0.0485
  477MOL0     C64305   6.094   9.630   8.652 -0.5416 -0.5159  0.4121
  477MOL0     C64306   5.967   9.581   8.692 -0.6690  0.9061 -0.5196
  477MOL0     O64307   5.710   9.754   8.850  0.2995 -0.7096 -0.5555
  477MOL0     C64308   5.455   9.662   8.945 -0.4924 -0.8430  0.3196
  477MOL0     C64309   5.339   9.600   8.995 -1.5854 -0.7577 -0.0676
  477MOL0     N64310   4.805   9.353   8.928 -0.8853 -0.2521  0.5678
  477MOL0     N64311   4.717   9.263   8.883 -0.1165  0.4516 -0.1257
  477MOL0     C64312   5.044   8.387   9.080 -0.0332  0.7163 -0.2296
  477MOL0     C64313   5.156   8.323   9.143  0.6140  0.4255 -0.6313
  477MOL0     C64314   5.525   8.417   9.384 -0.1744 -0.1956  0.1194
  477MOL0     C64315   5.633   8.350   9.340 -0.9069  0.2170  0.1043
  477MOL0     C64316   5.762   8.349   9.411  0.8673  0.3290  1.4806
  477MOL0     C64317   5.784   8.414   9.529  0.9168 -0.6928 -0.5900
  477MOL0     O64318   5.904   8.409   9.598  0.4353  0.1576 -0.5128
  477MOL0     C64319   5.980   8.289   9.586 -0.5006  0.7038  0.9227
  477MOL0     C64320   6.105   8.299   9.665  0.9685  0.0769  0.2225
  477MOL0     C64321   6.215   8.380   9.588 -0.9971  0.1151 -0.2039
  477MOL0     C64322   6.346   8.395   9.659 -1.0044 -0.4468 -0.3901
  477MOL0     C64323   6.443   8.280   9.646  0.3316 -0.0537  0.2881
  477MOL0     C64324   6.515   8.182   9.650  0.5435 -0.6872 -0.0692
  477MOL0     C64325   5.673   8.492   9.576 -0.0079  0.6295 -0.5017
  477MOL0     C64326   5.557   8.503   9.496  0.2029  0.5404  0.7967
  477MOL0     C64327   5.444   8.589   9.555 -0.4984  0.4481  0.5538
  477MOL0     H64328   5.402   8.501   8.986 -0.3530  0.7340 -0.7791
  477MOL0     H64329   5.213   8.594   8.867 -1.2187 -0.6161 -2.4225
  477MOL0     H64330   4.823   8.378   8.936  2.2181 -0.5128  0.0029
  477MOL0     H64331   4.807   8.544   9.022 -1.5002  0.1144 -0.9184
  477MOL0     H64332   4.625   8.502   8.855  0.1991  2.5349  1.3512
  477MOL0     H64333   4.737   8.507   8.726 -3.5111 -0.3219 -1.0153
  477MOL0     H64334   4.806   8.731   8.774 -0.8670 -1.7071 -0.7881
  477MOL0     H64335   4.736   8.733   8.937  2.9031 -0.6944  0.4078
  477MOL0     H64336   4.595   8.731   8.666 -1.4290 -1.4366  0.5668
  477MOL0     H64337   4.500   8.705   8.815 -0.5161  0.2193 -0.2697
  477MOL0     H64338   4.636   8.939   8.703 -1.2637  0.3022 -0.7348
  477MOL0     H64339   4.473   8.930   8.763 -0.3293 -0.3839  1.0400
  477MOL0     H64340   4.627   8.899   9.009  0.3733  3.0996  3.2730
  477MOL0     H64341   4.700   9.015   8.909  0.6090 -2.4940 -4.7271
  477MOL0     H64342   4.497   9.068   9.082  1.7892  0.9821 -1.3335
  477MOL0     H64343   4.391   9.004   8.944  1.8594 -1.8393 -2.5507
  477MOL0     H64344   4.471   9.167   8.801  1.4149  3.6431 -1.3116
  477MOL0     H64345   4.386   9.230   8.943  0.1330  1.2676 -0.4868
  477MOL0     H64346   4.520   9.408   9.084 -0.4934 -1.0414  0.1954
  477MOL0     H64347   4.853   9.603   9.049  2.2522 -2.0146 -1.1527
  477MOL0     H64348   4.712   9.596   9.154 -0.4404 -1.3348 -1.7308
  477MOL0     H64349   4.916   9.565   9.283 -2.3814 -0.3601  1.2636
  477MOL0     H64350   4.827   9.411   9.280  1.4496  0.0370  1.4410
  477MOL0     H64351   4.965   9.322   9.099 -2.2676  2.4286 -1.5319
  477MOL0     H64352   5.036   9.349   9.253  1.8969  0.9699 -0.3006
  477MOL0     H64353   5.159   9.559   9.175  0.9820  1.3346 -2.2602
  477MOL0     H64354   5.084   9.532   9.013  0.0117  1.1597  0.5132
  477MOL0     H64355   5.468   9.281   9.038  3.6151  0.3664 -4.3813
  477MOL0     H64356   5.661   9.384   8.948 -0.1222  1.6595 -2.2525
  477MOL0     H64357   5.968   9.663   9.030  1.3692 -2.2677  0.0586
  477MOL0     H64358   6.208   9.731   8.953  0.3309 -0.5812 -0.7672
  477MOL0     H64359   6.374   9.591   8.602 -1.2655  1.1142 -1.6033
  477MOL0     H64360   6.331   9.732   8.509 -3.3728  1.7350  1.9334
  477MOL0     H64361   6.545   9.839   8.644  1.3973  0.2897 -1.8975
  477MOL0     H64362   6.566   9.669   8.696 -0.7542 -2.0781 -1.0143
  477MOL0     H64363   6.602   9.578   8.477  0.0989  0.2759 -2.2039
  477MOL0     H64364   6.512   9.708   8.415  0.3380  0.8544  0.2230
  477MOL0     H64365   6.812   9.680   8.483  0.0963 -1.8181  0.6762
  477MOL0     H64366   6.742   9.839   8.516  2.4383 -0.2548  0.6152
  477MOL0     H64367   6.661   9.842   8.288  2.4069  3.8035  2.3116
  477MOL0     H64368   6.718   9.667   8.275  0.4045 -0.2961  1.0468
  477MOL0     H64369   6.908   9.903   8.323  0.7075  1.1084 -1.9990
  477MOL0     H64370   6.958   9.746   8.282 -0.1670 -1.0473  1.8950
  477MOL0     H64371   6.846   9.968   8.105  1.1691  0.2109 -0.5300
  477MOL0     H64372   6.798   9.805   8.058 -0.1893 -0.7596  0.4987
  477MOL0     H64373   7.073   9.913   8.106 -0.6483  0.4615 -0.6926
  477MOL0     H64374   7.027   9.748   8.048  1.9061 -0.2135 -1.5522
  477MOL0     H64375   6.119   9.636   8.546 -1.2785  1.2545  0.3146
  477MOL0     H64376   5.893   9.531   8.631 -1.6343  0.4596  0.9730
  477MOL0     H64377   5.452   9.767   8.919 -1.2325  0.5228  5.0387
  477MOL0     H64378   5.258   9.670   9.014 -3.4438 -2.5926 -0.8240
  477MOL0     H64379   4.942   8.362   9.106 -0.0896 -0.3843 -1.3763
  477MOL0     H64380   5.130   8.255   9.223 -2.1199  2.5096  0.4060
  477MOL0     H64381   5.619   8.285   9.254 -4.2009  1.6413 -0.5996
  477MOL0     H64382   5.841   8.296   9.360 -0.3153 -1.5407  1.4653
  477MOL0     H64383   6.017   8.276   9.484 -0.0979  2.0464  0.8728
  477MOL0     H64384   5.917   8.210   9.627  0.5476 -0.7095 -0.1130
  477MOL0     H64385   6.146   8.201   9.691 -0.1475 -0.8094 -1.2635
  477MOL0     H64386   6.092   8.355   9.758  0.0631 -3.7980  2.6181
  477MOL0     H64387   6.167   8.478   9.579 -1.6136 -0.2414 -0.9564
  477MOL0     H64388   6.232   8.343   9.486 -0.9623 -0.5002  0.0197
  477MOL0     H64389   6.402   8.481   9.620 -2.4207  0.3227 -0.8033
  477MOL0     H64390   6.334   8.414   9.766  1.2640  1.3313 -0.3672
  477MOL0     H64391   6.572   8.094   9.673 -0.2231 -0.7359  1.8351
  477MOL0     H64392   5.697   8.534   9.673 -3.2212 -1.5875  1.4216
  477MOL0     H64393   5.374   8.522   9.605  0.1365 -1.4397 -0.9378
  477MOL0     H64394   5.492   8.655   9.627  3.0178 -1.2913  0.0792
  477MOL0     H64395   5.395   8.645   9.474 -0.9583  2.1138  1.9374
  478MOL0     O64396   5.310   7.260   4.672 -0.6496  0.0176  0.8264
  478MOL0     C64397   5.221   7.214   4.607 -0.4285 -0.0117 -0.7335
  478MOL0     O64398   5.226   7.109   4.524 -0.5988 -0.3452 -0.0154
  478MOL0     C64399   5.349   7.068   4.463  0.0495 -0.0042 -0.5366
  478MOL0     C64400   5.335   6.968   4.366 -1.1175 -0.2002 -0.9825
  478MOL0     C64401   5.446   6.907   4.300  0.0439 -0.3737  0.0999
  478MOL0     C64402   5.576   6.949   4.330 -0.6460 -0.0741  0.4639
  478MOL0     O64403   5.675   6.890   4.255 -0.0996 -0.5987 -0.6562
  478MOL0     C64404   5.802   6.886   4.328 -0.4904 -0.6960 -0.4930
  478MOL0     C64405   5.893   6.806   4.232  0.5822 -0.0914 -1.0845
  478MOL0     C64406   6.030   6.805   4.287 -0.5800 -0.7321  0.8833
  478MOL0     C64407   6.138   6.738   4.197 -0.4535  0.8769 -0.8994
  478MOL0     C64408   6.278   6.744   4.254  0.8146 -0.1169  0.2869
  478MOL0     C64409   6.380   6.718   4.160 -1.3498 -0.7601  0.4061
  478MOL0     C64410   6.513   6.795   4.203  0.5424 -0.7679  0.0487
  478MOL0     C64411   6.509   6.959   4.179  0.4739  0.0312  0.0717
  478MOL0     N64412   6.626   7.012   4.247  0.3438  0.3441  0.8621
  478MOL0     C64413   6.764   6.973   4.230  0.7003 -0.5043  0.3002
  478MOL0     C64414   6.833   7.068   4.303  0.5853  1.0929 -0.1862
  478MOL0     C64415   6.983   7.072   4.330  0.7511  0.3609  0.1068
  478MOL0     C64416   7.039   7.194   4.267 -0.4304 -0.1392 -0.4520
  478MOL0     C64417   7.024   7.315   4.352  0.0463  0.0448 -0.1985
  478MOL0     C64418   7.096   7.435   4.305  0.4824  0.0308 -0.2707
  478MOL0     O64419   7.227   7.405   4.266 -0.3376 -0.1723  0.3552
  478MOL0     C64420   7.343   7.424   4.338  0.1308  0.0565 -0.2445
  478MOL0     C64421   7.460   7.470   4.278 -0.6614  0.6224  0.5479
  478MOL0     C64422   7.575   7.506   4.354  0.7511 -0.6670  0.5479
  478MOL0     C64423   7.587   7.484   4.494  0.0187  0.0182 -0.4802
  478MOL0     C64424   7.699   7.521   4.576  0.9720 -0.1500 -0.1555
  478MOL0     O64425   7.814   7.554   4.513 -0.4251 -0.3545 -0.1993
  478MOL0     C64426   7.923   7.613   4.582 -0.3116  0.4981  1.2317
  478MOL0     C64427   7.902   7.723   4.673  0.4243  0.2347  0.0243
  478MOL0     C64428   8.018   7.777   4.725 -0.3631  0.6899 -1.0202
  478MOL0     C64429   8.150   7.704   4.713  0.6124  0.2743 -0.8009
  478MOL0     O64430   8.262   7.759   4.765  0.2557 -0.9503  0.4103
  478MOL0     C64431   8.261   7.782   4.908  0.3420 -0.6799  1.1215
  478MOL0     C64432   8.381   7.863   4.959  0.6783  0.1269 -0.1056
  478MOL0     C64433   8.514   7.781   4.958  0.8017 -0.4077  0.3643
  478MOL0     C64434   8.634   7.860   5.020 -0.6014 -0.1686  0.8886
  478MOL0     C64435   8.768   7.783   4.997  0.1476  1.5502  0.2781
  478MOL0     C64436   8.784   7.647   5.059  0.3854 -0.3734  0.4165
  478MOL0     C64437   8.922   7.596   5.030 -0.1713  0.5414  0.4883
  478MOL0     C64438   8.944   7.469   5.110  0.4229 -0.5204  0.5941
  478MOL0    Cl64439   9.121   7.420   5.091 -0.0264  0.0987 -0.0873
  478MOL0     C64440   8.160   7.601   4.622  0.2666  0.0864 -0.2694
  478MOL0     C64441   8.045   7.547   4.561 -0.7171  1.3030 -0.6068
  478MOL0     O64442   7.686   7.519   4.700 -0.4037 -0.0483 -0.9595
  478MOL0     C64443   7.469   7.431   4.562 -0.2760 -0.4621 -0.7371
  478MOL0     C64444   7.352   7.408   4.482  0.5727 -0.3322 -0.6061
  478MOL0     N64445   6.733   7.169   4.339 -0.5286  0.1043 -0.2452
  478MOL0     N64446   6.611   7.138   4.303  0.2988  0.3385 -0.4354
  478MOL0     C64447   5.599   7.043   4.434 -0.1399  0.0783 -0.6218
  478MOL0     C64448   5.484   7.101   4.498 -1.3347  0.6270 -0.1509
  478MOL0     C64449   5.085   7.264   4.635  0.1869  0.3481  0.0665
  478MOL0     C64450   4.981   7.168   4.638  0.5820  0.0807 -0.0854
  478MOL0     C64451   4.844   7.203   4.664  0.0317 -0.0649 -0.2401
  478MOL0     C64452   4.804   7.338   4.691 -1.4804 -0.1652  0.2418
  478MOL0     O64453   4.672   7.360   4.709  0.0248  0.1831  0.2090
  478MOL0     C64454   4.617   7.497   4.723 -0.9176 -1.3624 -0.7770
  478MOL0     C64455   4.464   7.492   4.694 -0.1141  0.3558 -0.4806
  478MOL0     C64456   4.371   7.490   4.818  0.0852 -0.5345 -0.3052
  478MOL0     C64457   4.227   7.520   4.781  0.5905  0.5715 -0.4652
  478MOL0     C64458   4.168   7.418   4.693  0.2014  0.0320  0.8568
  478MOL0     C64459   4.130   7.329   4.623  0.1826 -0.4630 -0.3471
  478MOL0     C64460   4.910   7.431   4.678  0.9257 -0.6134  0.5731
  478MOL0     C64461   5.045   7.390   4.667  0.0702  0.5525  0.1595
  478MOL0     C64462   5.138   7.503   4.666  0.1079  0.2018 -0.7388
  478MOL0     H64463   5.232   6.935   4.350 -1.7455  0.3865  1.4550
  478MOL0     H64464   5.443   6.826   4.228  2.4091  0.7225 -1.3522
  478MOL0     H64465   5.833   6.990   4.343  0.5969 -1.1028  0.2481
  478MOL0     H64466   5.800   6.831   4.422 -2.4495  0.9536  0.5048
  478MOL0     H64467   5.887   6.855   4.134 -0.3238  0.9447 -0.5411
  478MOL0     H64468   5.858   6.703   4.222  0.8257 -0.0239 -3.2962
  478MOL0     H64469   6.022   6.760   4.386 -3.6008 -1.4748  0.3975
  478MOL0     H64470   6.052   6.911   4.306 -0.7873 -0.6456  0.6429
  478MOL0     H64471   6.106   6.634   4.185 -1.3901  1.0566 -0.1071
  478MOL0     H64472   6.136   6.784   4.097 -1.5365  1.3616 -0.6691
  478MOL0     H64473   6.292   6.844   4.295  0.9268 -0.8168  2.0303
  478MOL0     H64474   6.286   6.672   4.336  0.3150 -0.1775  0.2874
  478MOL0     H64475   6.400   6.611   4.152 -1.6582 -1.0911  3.0522
  478MOL0     H64476   6.357   6.751   4.058  0.6018  0.4951  0.3116
  478MOL0     H64477   6.601   6.756   4.152  0.3231 -1.3405  0.0971
  478MOL0     H64478   6.537   6.774   4.307 -1.0128 -0.0687  0.5727
  478MOL0     H64479   6.519   6.994   4.076 -2.7904  0.6507 -0.1329
  478MOL0     H64480   6.415   6.999   4.217  0.2130  1.0132 -1.5288
  478MOL0     H64481   6.812   6.894   4.174 -0.8294  0.3161 -2.3184
  478MOL0     H64482   7.008   7.070   4.437  0.5509 -0.9610  0.1470
  478MOL0     H64483   7.030   6.983   4.287  2.5935 -0.2964  3.1996
  478MOL0     H64484   7.145   7.175   4.247  0.5239 -1.0336  4.2159
  478MOL0     H64485   6.992   7.216   4.171 -1.0080  1.7976  0.2337
  478MOL0     H64486   7.060   7.293   4.453  1.5121 -2.1454 -1.1373
  478MOL0     H64487   6.917   7.339   4.347 -0.2032 -0.7165  0.9867
  478MOL0     H64488   7.085   7.523   4.368 -1.6305 -1.5760  1.7726
  478MOL0     H64489   7.040   7.468   4.217  1.1590  0.8625 -0.4084
  478MOL0     H64490   7.464   7.497   4.173 -1.0623 -1.7860 -0.1345
  478MOL0     H64491   7.652   7.569   4.312 -1.0799  1.8916  0.7658
  478MOL0     H64492   7.811   7.781   4.684  0.3613  0.8652 -3.0989
  478MOL0     H64493   8.014   7.872   4.776  0.8059  1.6118 -2.5630
  478MOL0     H64494   8.179   7.849   4.934  1.2704  0.4946  1.1385
  478MOL0     H64495   8.258   7.687   4.962  0.6841  0.0454  2.4759
  478MOL0     H64496   8.389   7.954   4.899 -3.5330 -1.0588 -2.9056
  478MOL0     H64497   8.345   7.889   5.058  0.7766 -0.2540  0.0323
  478MOL0     H64498   8.496   7.690   5.015 -0.4882  0.1445  0.8749
  478MOL0     H64499   8.539   7.753   4.855 -1.7074 -0.9867 -0.1630
  478MOL0     H64500   8.613   7.868   5.127  1.7908  4.0827  1.2684
  478MOL0     H64501   8.633   7.961   4.979  2.2090 -0.2901  0.3047
  478MOL0     H64502   8.842   7.848   5.044  0.8059  1.6453 -0.8420
  478MOL0     H64503   8.786   7.781   4.889 -1.3319  2.4169 -0.0080
  478MOL0     H64504   8.761   7.645   5.165  1.8358 -0.8284  0.7460
  478MOL0     H64505   8.710   7.577   5.020 -0.0915  1.9300 -3.3949
  478MOL0     H64506   9.004   7.665   5.050  0.7329  0.2660 -1.9804
  478MOL0     H64507   8.915   7.569   4.924  0.4476 -4.6803  1.4653
  478MOL0     H64508   8.906   7.484   5.211  1.5832 -3.0200  1.4753
  478MOL0     H64509   8.884   7.384   5.076 -0.7447  0.0202  1.2733
  478MOL0     H64510   8.257   7.556   4.602  0.0532 -2.2132  2.9996
  478MOL0     H64511   8.045   7.465   4.491  0.1120  2.8935 -2.5707
  478MOL0     H64512   7.470   7.412   4.668  3.3380  1.6122 -0.2097
  478MOL0     H64513   7.258   7.371   4.522  0.9831  1.3825  2.2675
  478MOL0     H64514   5.700   7.079   4.453 -0.4231  0.9938 -0.8183
  478MOL0     H64515   5.508   7.184   4.564  0.9393  0.2891 -0.4896
  478MOL0     H64516   4.995   7.063   4.614 -1.5580 -0.9789  2.7348
  478MOL0     H64517   4.761   7.133   4.661  0.6968 -0.8337 -1.8507
  478MOL0     H64518   4.666   7.578   4.667 -1.0636 -0.9349 -0.2968
  478MOL0     H64519   4.632   7.536   4.824  0.6112  1.0958 -1.8650
  478MOL0     H64520   4.461   7.395   4.644  1.0398 -0.1620  0.4184
  478MOL0     H64521   4.442   7.566   4.616  0.4682 -1.8496 -2.8526
  478MOL0     H64522   4.415   7.563   4.886  0.0804 -0.9178  0.1220
  478MOL0     H64523   4.363   7.400   4.880  1.1947  0.8355  1.9745
  478MOL0     H64524   4.174   7.539   4.875  2.2275 -0.8541  0.8155
  478MOL0     H64525   4.225   7.610   4.719  0.9446  0.6189 -0.4105
  478MOL0     H64526   4.106   7.258   4.547  2.3096 -1.0890 -0.4945
  478MOL0     H64527   4.880   7.530   4.711  1.7108 -1.0105  2.6325
  478MOL0     H64528   5.189   7.535   4.757  2.3040  4.0910 -3.0664
  478MOL0     H64529   5.216   7.483   4.593 -0.2088 -3.6378 -0.2122
  478MOL0     H64530   5.081   7.592   4.638 -2.0777  0.1133  2.8098
  479MOL0     O64531   8.667   7.527   3.122 -0.4166  0.3764  0.1180
  479MOL0     C64532   8.625   7.551   3.235  0.1196  0.3453  0.4082
  479MOL0     O64533   8.497   7.558   3.273  0.2579  0.0420 -0.3927
  479MOL0     C64534   8.396   7.559   3.176  0.0952 -1.2089 -0.4507
  479MOL0     C64535   8.364   7.444   3.106 -0.3025  0.3568  0.2044
  479MOL0     C64536   8.252   7.440   3.024  0.0917  0.0999 -0.4324
  479MOL0     C64537   8.155   7.548   3.021  0.4468 -0.1131 -0.0663
  479MOL0     O64538   8.049   7.542   2.944  0.0718 -0.4171  0.2368
  479MOL0     C64539   7.924   7.559   3.001 -0.6317  0.1106  0.2682
  479MOL0     C64540   7.798   7.521   2.914  0.3786 -0.0760 -0.1358
  479MOL0     C64541   7.792   7.594   2.776  0.5185 -0.0167 -0.3818
  479MOL0     C64542   7.682   7.541   2.696 -0.6851 -0.1949  0.2039
  479MOL0     C64543   7.538   7.587   2.736 -0.3048  0.2157 -0.0057
  479MOL0     C64544   7.441   7.522   2.643 -0.3468 -0.3684  0.1225
  479MOL0     C64545   7.300   7.574   2.652 -0.1665  0.5226  0.0323
  479MOL0     C64546   7.236   7.535   2.787 -0.0772  0.0072 -0.8719
  479MOL0     N64547   7.093   7.568   2.779  0.3952  0.4870 -0.3399
  479MOL0     C64548   7.044   7.690   2.807  0.2314 -1.2044  0.1306
  479MOL0     C64549   6.910   7.684   2.789  0.0333 -0.0299  0.6146
  479MOL0     C64550   6.805   7.782   2.820 -0.7240 -0.9207 -0.5871
  479MOL0     C64551   6.739   7.756   2.956  0.2362  0.5896  0.8717
  479MOL0     C64552   6.822   7.822   3.076  0.0512  0.4490  0.0004
  479MOL0     C64553   6.821   7.730   3.199 -0.6711 -0.9395 -0.9535
  479MOL0     O64554   6.877   7.598   3.166 -0.0311 -0.0443 -0.1658
  479MOL0     C64555   7.016   7.582   3.174 -0.1569  0.0363 -0.1761
  479MOL0     C64556   7.120   7.680   3.198 -0.2408 -0.3865  0.6371
  479MOL0     C64557   7.253   7.636   3.200 -0.4928  0.2793 -0.4895
  479MOL0     C64558   7.294   7.507   3.169 -0.1585  0.3498 -0.5747
  479MOL0     C64559   7.435   7.452   3.141 -0.0793  0.0462 -0.7143
  479MOL0     O64560   7.456   7.339   3.071  0.1399  0.0863  0.4421
  479MOL0     C64561   7.583   7.280   3.044 -0.3960  0.2829  0.3887
  479MOL0     C64562   7.607   7.205   2.930  0.2163  0.4285 -0.0273
  479MOL0     C64563   7.725   7.135   2.918 -0.7442  0.2420 -0.5787
  479MOL0     C64564   7.826   7.159   3.005  0.7439  0.4635  0.8105
  479MOL0     O64565   7.952   7.108   2.983  0.0818 -0.5934 -0.5338
  479MOL0     C64566   8.060   7.105   3.082  1.1036  0.6424 -0.0604
  479MOL0     C64567   8.155   6.984   3.049 -0.4937  0.1087 -0.8824
  479MOL0     C64568   8.272   6.966   3.151  0.6263 -0.7504 -0.9469
  479MOL0     C64569   8.372   6.865   3.105  0.0084  0.0503 -0.3293
  479MOL0     C64570   8.486   6.857   3.209 -0.4326 -0.1250 -0.1288
  479MOL0     C64571   8.577   6.735   3.194  0.0742  0.0470 -0.0077
  479MOL0     C64572   8.531   6.622   3.279  0.5653  0.1383 -1.7273
  479MOL0     C64573   8.595   6.489   3.254 -0.3454 -0.2899  0.0546
  479MOL0    Cl64574   8.503   6.371   3.342  0.1611  0.4725 -0.3816
  479MOL0     C64575   7.804   7.228   3.121 -0.3485 -0.0456 -0.4794
  479MOL0     C64576   7.683   7.286   3.140  0.3782  0.9041 -0.0485
  479MOL0     O64577   7.523   7.530   3.178 -0.7144  0.3133 -0.2411
  479MOL0     C64578   7.192   7.427   3.117 -0.2486  1.1710 -1.0891
  479MOL0     C64579   7.058   7.467   3.117 -0.1106  0.0067 -0.4208
  479MOL0     N64580   6.885   7.564   2.736  0.3248 -0.2056 -0.1714
  479MOL0     N64581   6.996   7.492   2.718  0.5130  0.5013  0.5052
  479MOL0     C64582   8.191   7.666   3.091 -0.4814 -0.5358  1.1288
  479MOL0     C64583   8.309   7.675   3.169  0.8402 -0.2540 -0.4655
  479MOL0     C64584   8.737   7.571   3.333  0.5208 -0.3918 -1.1560
  479MOL0     C64585   8.852   7.493   3.324 -0.0285  1.0289 -0.7004
  479MOL0     C64586   8.962   7.501   3.407  0.0648  0.3920  0.2522
  479MOL0     C64587   8.961   7.591   3.514 -0.5149 -0.4286  0.1387
  479MOL0     O64588   9.066   7.602   3.605  0.1665 -0.2365 -0.2704
  479MOL0     C64589   9.135   7.727   3.606 -0.2766  0.2502 -0.4248
  479MOL0     C64590   9.281   7.727   3.668  1.9119 -0.0385  0.0797
  479MOL0     C64591   9.390   7.639   3.605 -0.4156  0.3162 -0.2665
  479MOL0     C64592   9.498   7.614   3.712  0.2329  0.0179  0.6482
  479MOL0     C64593   9.608   7.525   3.671  0.0301  0.0779  0.7454
  479MOL0     C64594   9.710   7.460   3.659 -0.2309 -1.1239  0.3492
  479MOL0     C64595   8.850   7.676   3.527  0.2440 -0.0776 -0.4943
  479MOL0     C64596   8.732   7.670   3.443  0.6678  0.4579  1.1245
  479MOL0     C64597   8.621   7.767   3.460  0.4082 -0.4236  0.4019
  479MOL0     H64598   8.418   7.350   3.116 -0.8093 -0.1364 -1.4312
  479MOL0     H64599   8.220   7.352   2.970 -1.7308 -0.4815  1.4378
  479MOL0     H64600   7.913   7.496   3.090 -2.2015 -1.8934 -1.2698
  479MOL0     H64601   7.899   7.658   3.040  0.5587 -0.5287  2.9217
  479MOL0     H64602   7.707   7.553   2.966  0.1762  1.9237 -1.5945
  479MOL0     H64603   7.801   7.412   2.909 -0.8510 -0.2044  1.2826
  479MOL0     H64604   7.882   7.573   2.718  1.7455  1.5213  0.8652
  479MOL0     H64605   7.784   7.702   2.788  0.1818 -0.2356  1.8488
  479MOL0     H64606   7.707   7.564   2.592 -0.6918 -1.3980 -0.0759
  479MOL0     H64607   7.682   7.432   2.710 -3.0167  0.0004  2.5918
  479MOL0     H64608   7.523   7.548   2.838 -0.5303 -2.3685 -0.9519
  479MOL0     H64609   7.540   7.696   2.729  1.6148  0.1640 -0.7409
  479MOL0     H64610   7.476   7.547   2.542  0.6789  2.2658  1.0356
  479MOL0     H64611   7.444   7.414   2.655 -0.1654 -0.4995 -0.9626
  479MOL0     H64612   7.237   7.526   2.576 -3.4611  2.8627  1.0933
  479MOL0     H64613   7.295   7.680   2.626 -0.7429  0.4818 -0.0388
  479MOL0     H64614   7.232   7.427   2.800 -3.6907  0.1465  0.3107
  479MOL0     H64615   7.295   7.582   2.868  0.8279  0.5330 -1.8071
  479MOL0     H64616   7.091   7.781   2.845 -0.9226  0.1408 -1.4829
  479MOL0     H64617   6.844   7.883   2.805 -1.3259 -0.6964 -0.6720
  479MOL0     H64618   6.722   7.774   2.749 -1.5023  0.2481  0.1368
  479MOL0     H64619   6.637   7.796   2.958 -0.6366 -1.3027 -1.2818
  479MOL0     H64620   6.733   7.646   2.961 -0.8592  0.4675 -1.6106
  479MOL0     H64621   6.790   7.925   3.093  1.5209  0.2739  7.2206
  479MOL0     H64622   6.928   7.835   3.052  0.3993  0.0835  1.2346
  479MOL0     H64623   6.727   7.717   3.252 -0.1266 -2.1889 -0.2417
  479MOL0     H64624   6.874   7.788   3.275  0.5641 -1.4387 -1.4115
  479MOL0     H64625   7.095   7.781   3.227  0.0228 -0.5766  1.5725
  479MOL0     H64626   7.336   7.699   3.231  1.0427 -2.5655  1.5753
  479MOL0     H64627   7.536   7.206   2.848 -0.9391  0.7980  0.9546
  479MOL0     H64628   7.744   7.077   2.828  1.6136  0.9667 -0.6295
  479MOL0     H64629   8.111   7.201   3.090  1.5927  0.3274  0.7146
  479MOL0     H64630   8.008   7.089   3.177 -0.8299 -1.0890 -1.3059
  479MOL0     H64631   8.090   6.898   3.033 -3.6931  2.6140 -2.3455
  479MOL0     H64632   8.200   7.002   2.951  0.9275 -1.0501 -0.4768
  479MOL0     H64633   8.311   7.067   3.169 -4.2797  1.2810 -0.0318
  479MOL0     H64634   8.229   6.937   3.247  2.1847 -2.3599 -0.6861
  479MOL0     H64635   8.408   6.895   3.006 -1.6142  0.2141 -0.9010
  479MOL0     H64636   8.323   6.769   3.085 -0.1983 -0.0393  0.5718
  479MOL0     H64637   8.442   6.853   3.309  0.2626  0.6737  0.2226
  479MOL0     H64638   8.550   6.944   3.192 -1.3398  0.7828  0.9611
  479MOL0     H64639   8.590   6.711   3.088  0.9825 -1.7369  0.4701
  479MOL0     H64640   8.679   6.757   3.226 -0.1535 -0.0490  0.7942
  479MOL0     H64641   8.422   6.611   3.275  0.3715  0.3082  1.3645
  479MOL0     H64642   8.541   6.653   3.383 -2.7329  0.8133 -1.5199
  479MOL0     H64643   8.611   6.471   3.147 -0.5555 -0.3272  0.0285
  479MOL0     H64644   8.699   6.495   3.287 -0.2656  1.2176 -0.4056
  479MOL0     H64645   7.882   7.252   3.192  1.5437 -0.5620 -2.2807
  479MOL0     H64646   7.673   7.330   3.238  3.0029  0.5154  0.4748
  479MOL0     H64647   7.224   7.330   3.080  0.4686  1.3174 -0.8582
  479MOL0     H64648   6.982   7.403   3.073 -0.9791  0.2563  0.6678
  479MOL0     H64649   8.121   7.750   3.087 -0.3881 -0.4998  0.0980
  479MOL0     H64650   8.327   7.764   3.229 -0.4643 -0.4741  0.2937
  479MOL0     H64651   8.854   7.411   3.254 -1.2214 -0.0638  0.4879
  479MOL0     H64652   9.048   7.435   3.408 -0.1781  0.0056  3.1010
  479MOL0     H64653   9.078   7.788   3.676  2.3699  0.0459  2.1105
  479MOL0     H64654   9.129   7.774   3.507 -1.6399  0.5006 -0.2306
  479MOL0     H64655   9.277   7.698   3.773  3.2294 -0.9229 -0.0855
  479MOL0     H64656   9.319   7.829   3.661  0.2260  0.6324  0.1745
  479MOL0     H64657   9.448   7.691   3.527 -2.0626  2.1543 -0.3522
  479MOL0     H64658   9.339   7.551   3.566 -3.5111  1.5621  0.7019
  479MOL0     H64659   9.545   7.706   3.748 -2.7785  1.2562  1.8213
  479MOL0     H64660   9.447   7.568   3.797  0.8873 -0.5528  0.7408
  479MOL0     H64661   9.809   7.421   3.647  1.3312  2.4870  0.3332
  479MOL0     H64662   8.859   7.736   3.616 -0.1444 -1.4032  0.4718
  479MOL0     H64663   8.632   7.816   3.557 -0.0573 -0.9635  0.7361
  479MOL0     H64664   8.632   7.847   3.386  0.6596 -1.6916 -0.9824
  479MOL0     H64665   8.521   7.722   3.463 -0.2561  0.7528 -1.9520
  480MOL0     O64666   2.662   8.483   2.192 -0.4782  1.0507 -0.0686
  480MOL0     C64667   2.667   8.376   2.138  0.1430  0.1371  0.7466
  480MOL0     O64668   2.780   8.294   2.117 -0.2065 -0.2668  0.7474
  480MOL0     C64669   2.903   8.349   2.140  0.7428  0.0044  0.5019
  480MOL0     C64670   2.993   8.332   2.029  1.3142  0.0927 -0.1789
  480MOL0     C64671   3.125   8.377   2.039  0.3335 -0.9138  0.5297
  480MOL0     C64672   3.179   8.428   2.158 -0.0409 -0.2358 -0.2448
  480MOL0     O64673   3.314   8.438   2.177 -0.4966  0.1512 -0.7888
  480MOL0     C64674   3.367   8.553   2.111 -0.7321 -0.6141 -0.3861
  480MOL0     C64675   3.523   8.564   2.104  0.3546  0.1297  0.1657
  480MOL0     C64676   3.575   8.578   2.255 -0.7048 -0.5703 -0.2203
  480MOL0     C64677   3.729   8.577   2.258 -0.4614 -0.8926  0.1941
  480MOL0     C64678   3.793   8.577   2.393  0.0860  1.0170 -0.1880
  480MOL0     C64679   3.897   8.685   2.428  0.4702 -0.5291 -0.1647
  480MOL0     C64680   3.980   8.641   2.548  0.0941 -0.2528  0.0883
  480MOL0     C64681   4.098   8.556   2.515 -0.3617 -0.2538  0.3196
  480MOL0     N64682   4.192   8.564   2.627 -0.2305 -0.5719 -0.1295
  480MOL0     C64683   4.162   8.532   2.761  0.2395  0.3253 -0.0854
  480MOL0     C64684   4.281   8.551   2.826 -0.4281  0.1866  0.4921
  480MOL0     C64685   4.290   8.538   2.973  0.2105  0.2386 -0.3675
  480MOL0     C64686   4.425   8.575   3.036  0.5875 -0.1203 -0.0271
  480MOL0     C64687   4.424   8.631   3.180 -0.1510 -0.7048 -0.2636
  480MOL0     C64688   4.353   8.767   3.183 -0.7403 -0.6947 -0.1931
  480MOL0     O64689   4.350   8.839   3.303 -0.4584 -0.3206 -0.9635
  480MOL0     C64690   4.471   8.867   3.362 -0.2455  0.1275 -0.0262
  480MOL0     C64691   4.548   8.780   3.446  1.3286 -0.7536  0.5356
  480MOL0     C64692   4.671   8.819   3.485  0.1149  1.0847  0.1562
  480MOL0     C64693   4.723   8.941   3.453  0.5347 -1.0646 -0.2337
  480MOL0     C64694   4.851   8.987   3.507  0.6362  0.1060 -0.0177
  480MOL0     O64695   4.930   8.895   3.561 -0.0549  0.2007 -0.2770
  480MOL0     C64696   5.065   8.917   3.590 -0.0481  0.0936  0.4325
  480MOL0     C64697   5.174   8.913   3.508 -1.0502 -0.7223  0.3548
  480MOL0     C64698   5.312   8.933   3.551 -0.5650  0.5570  0.2702
  480MOL0     C64699   5.333   8.930   3.688 -0.0369 -0.2879  0.1446
  480MOL0     O64700   5.448   8.953   3.747  0.7116  0.3008 -0.5427
  480MOL0     C64701   5.574   8.964   3.673  0.4762 -0.4614  0.5939
  480MOL0     C64702   5.697   8.954   3.777 -0.2570 -0.2234  0.6368
  480MOL0     C64703   5.720   8.816   3.842  0.6714 -0.3267 -0.0839
  480MOL0     C64704   5.810   8.812   3.963 -0.6175 -0.4633  0.4802
  480MOL0     C64705   5.822   8.674   4.009  0.3777 -0.6805  0.0733
  480MOL0     C64706   5.700   8.595   4.071  0.5632 -0.4217  0.2030
  480MOL0     C64707   5.629   8.676   4.193  0.3698  0.4233  0.4340
  480MOL0     C64708   5.507   8.613   4.254  0.4559  0.9007 -1.9649
  480MOL0    Cl64709   5.576   8.475   4.356 -0.9025 -0.6015 -0.4736
  480MOL0     C64710   5.231   8.927   3.773  0.3359  0.4137 -0.9719
  480MOL0     C64711   5.098   8.935   3.729 -0.1097 -0.1068  0.2016
  480MOL0     O64712   4.875   9.109   3.506 -0.1109  0.1635 -0.3380
  480MOL0     C64713   4.644   9.037   3.386  0.4179  0.3693  0.6082
  480MOL0     C64714   4.515   9.003   3.338 -1.2039  0.4373  0.2910
  480MOL0     N64715   4.381   8.573   2.727  0.5744 -0.7363 -0.2145
  480MOL0     N64716   4.322   8.583   2.617 -0.4981 -0.2793  0.9531
  480MOL0     C64717   3.093   8.430   2.272  0.0775 -0.5424  0.6716
  480MOL0     C64718   2.956   8.392   2.267  0.1605 -0.3010  0.4300
  480MOL0     C64719   2.540   8.301   2.102 -0.3911 -0.4197 -0.1799
  480MOL0     C64720   2.550   8.201   2.002 -0.0764 -0.2831 -0.6146
  480MOL0     C64721   2.440   8.126   1.970  0.0734  0.1115 -0.3369
  480MOL0     C64722   2.319   8.137   2.052 -1.7112  0.9326 -0.5460
  480MOL0     O64723   2.224   8.041   2.024 -0.5941 -0.3171  0.3848
  480MOL0     C64724   2.098   8.016   2.091  0.1367 -0.2732  0.4351
  480MOL0     C64725   1.999   8.119   2.058  0.6008 -0.7370  0.0637
  480MOL0     C64726   1.977   8.154   1.905  0.1031  0.5227 -0.6214
  480MOL0     C64727   1.936   8.041   1.823  0.0457 -0.4291 -0.7965
  480MOL0     C64728   1.931   8.090   1.684 -0.0581  0.0615  0.3992
  480MOL0     C64729   1.950   8.133   1.569  0.0243 -0.7815  0.5104
  480MOL0     C64730   2.308   8.228   2.161  0.1979 -1.0883 -0.3529
  480MOL0     C64731   2.419   8.315   2.184  0.0304 -0.0395 -0.3273
  480MOL0     C64732   2.416   8.413   2.297 -0.7708  0.1600 -1.1769
  480MOL0     H64733   2.965   8.282   1.937  0.2047 -2.5803  1.4939
  480MOL0     H64734   3.193   8.366   1.955  0.3695 -0.3540  0.4834
  480MOL0     H64735   3.334   8.550   2.007  0.4747 -2.3833 -0.7718
  480MOL0     H64736   3.326   8.639   2.164 -2.8991 -1.7253 -0.1369
  480MOL0     H64737   3.540   8.658   2.050 -2.5146  0.5541 -0.1263
  480MOL0     H64738   3.556   8.475   2.051 -1.9389  1.2599 -3.4846
  480MOL0     H64739   3.532   8.498   2.316 -0.8443  0.5253  1.1689
  480MOL0     H64740   3.544   8.676   2.292  0.1231 -0.9774  1.6413
  480MOL0     H64741   3.761   8.484   2.209  1.0477 -0.9363  1.1891
  480MOL0     H64742   3.764   8.662   2.199 -0.2703  0.1932  1.8259
  480MOL0     H64743   3.713   8.581   2.468 -0.3092  1.0841 -0.6051
  480MOL0     H64744   3.839   8.481   2.415  0.6801  1.3805  0.1928
  480MOL0     H64745   3.962   8.684   2.340  1.3052  1.4333  0.3584
  480MOL0     H64746   3.840   8.778   2.440  0.2342 -0.7739  0.6711
  480MOL0     H64747   3.925   8.589   2.627 -0.5105 -1.0551 -0.8475
  480MOL0     H64748   4.007   8.736   2.594 -0.5653  0.2979 -0.6429
  480MOL0     H64749   4.067   8.457   2.480  0.7821  0.0642 -1.7240
  480MOL0     H64750   4.145   8.611   2.434  2.4770 -0.9584  1.3834
  480MOL0     H64751   4.067   8.513   2.810  0.3575  1.2650  0.5204
  480MOL0     H64752   4.215   8.608   3.011  2.5738  3.0947 -0.6974
  480MOL0     H64753   4.245   8.442   3.001 -1.3500  1.3295  1.0803
  480MOL0     H64754   4.468   8.474   3.036  0.7831 -0.0665 -1.6456
  480MOL0     H64755   4.488   8.633   2.968 -0.3053 -2.0686 -2.6836
  480MOL0     H64756   4.528   8.656   3.201  0.0941 -2.6587  1.0629
  480MOL0     H64757   4.384   8.568   3.260 -3.6387  2.1471  0.5068
  480MOL0     H64758   4.247   8.753   3.163 -0.9246 -3.9938  2.2504
  480MOL0     H64759   4.392   8.825   3.099  0.4630 -1.3274 -0.1117
  480MOL0     H64760   4.518   8.677   3.462 -3.9088  0.4181 -0.1129
  480MOL0     H64761   4.733   8.754   3.545  1.9663  1.3859 -1.3465
  480MOL0     H64762   5.163   8.900   3.401  3.7258  1.4666 -0.6735
  480MOL0     H64763   5.388   8.955   3.477  0.0298  1.1673  1.0404
  480MOL0     H64764   5.585   8.878   3.606  0.9920 -0.7368  1.0245
  480MOL0     H64765   5.555   9.058   3.621  0.5874 -1.9679 -2.4079
  480MOL0     H64766   5.789   8.972   3.720 -2.2223 -2.2427 -3.6268
  480MOL0     H64767   5.682   9.022   3.861 -1.2670 -0.4159  0.6203
  480MOL0     H64768   5.622   8.795   3.887  1.9753  2.0803  4.5228
  480MOL0     H64769   5.756   8.736   3.776  2.2132 -1.4487  1.9932
  480MOL0     H64770   5.776   8.880   4.042  2.9358  0.2970  1.5170
  480MOL0     H64771   5.906   8.851   3.928 -1.9986  2.5368 -0.3472
  480MOL0     H64772   5.909   8.680   4.075  0.1049 -0.8340  0.4480
  480MOL0     H64773   5.858   8.610   3.927  0.6282 -1.3608  0.7025
  480MOL0     H64774   5.626   8.580   3.991  0.7456  0.1245 -0.0732
  480MOL0     H64775   5.731   8.494   4.100  2.0000 -0.9823 -2.8048
  480MOL0     H64776   5.584   8.765   4.148 -0.1349 -0.5502 -1.0542
  480MOL0     H64777   5.706   8.696   4.269  0.8135  2.5793 -0.5163
  480MOL0     H64778   5.448   8.680   4.316  0.5244 -2.3537  2.0317
  480MOL0     H64779   5.437   8.584   4.175  1.1219  0.9439 -2.5844
  480MOL0     H64780   5.247   8.931   3.881 -1.7271 -1.1917 -0.5491
  480MOL0     H64781   5.015   8.936   3.800 -1.5024  0.6111 -1.3776
  480MOL0     H64782   4.690   9.127   3.346  0.8495 -0.4926 -0.9254
  480MOL0     H64783   4.455   9.074   3.283 -4.3000  0.3989  3.3005
  480MOL0     H64784   3.139   8.471   2.362  2.0366 -0.0469 -0.4877
  480MOL0     H64785   2.885   8.389   2.348 -1.5320  0.2973 -0.9566
  480MOL0     H64786   2.640   8.194   1.941 -0.0634 -1.3849 -0.4902
  480MOL0     H64787   2.438   8.053   1.890 -0.8449  2.0622 -2.2015
  480MOL0     H64788   2.123   8.022   2.197  0.7653 -2.5111  0.4644
  480MOL0     H64789   2.062   7.913   2.086 -2.4568  0.5453  0.8174
  480MOL0     H64790   2.027   8.211   2.110 -3.5347  0.8843 -0.1892
  480MOL0     H64791   1.902   8.090   2.100  1.0571 -0.4817  1.3610
  480MOL0     H64792   2.070   8.195   1.863  1.1306 -1.4745 -0.4047
  480MOL0     H64793   1.916   8.245   1.897  0.2951  0.7012 -0.0804
  480MOL0     H64794   2.009   7.959   1.825 -1.4948 -1.8376  0.3435
  480MOL0     H64795   1.840   7.998   1.852 -1.8466  2.9059 -1.5903
  480MOL0     H64796   1.967   8.159   1.467  0.6260 -0.8824  0.5854
  480MOL0     H64797   2.221   8.238   2.225 -1.0343  1.1551 -2.2524
  480MOL0     H64798   2.323   8.417   2.354 -1.2929 -0.4383 -1.9623
  480MOL0     H64799   2.487   8.374   2.370 -2.2655  0.5431  0.5403
  480MOL0     H64800   2.444   8.513   2.265  2.4749 -0.9277 -2.1213
  481MOL0     O64801   6.676   3.417  10.373  1.2105 -0.1965  0.0317
  481MOL0     C64802   6.665   3.430  10.493 -0.0278 -0.4488  0.0082
  481MOL0     O64803   6.738   3.510  10.569  0.3527  0.3588 -0.0280
  481MOL0     C64804   6.838   3.593  10.507 -0.4091  0.6768  0.5434
  481MOL0     C64805   6.965   3.580  10.548  0.7895  0.7292 -0.9719
  481MOL0     C64806   7.075   3.654  10.497  0.2752 -0.2209 -0.4167
  481MOL0     C64807   7.049   3.751  10.408  0.6020  0.3182 -0.4151
  481MOL0     O64808   7.155   3.823  10.356 -0.1591  0.3332  1.1387
  481MOL0     C64809   7.151   3.920  10.252  0.4462  0.3917  0.0483
  481MOL0     C64810   7.288   3.966  10.209 -0.5254 -0.0571  0.5973
  481MOL0     C64811   7.368   4.028  10.332 -0.4695 -0.0042 -0.0974
  481MOL0     C64812   7.509   4.080  10.296 -0.2265 -0.5170 -0.2245
  481MOL0     C64813   7.593   4.140  10.412  0.2528  0.7513  0.4992
  481MOL0     C64814   7.734   4.172  10.360 -0.3116  0.0791  0.0943
  481MOL0     C64815   7.741   4.289  10.264  0.2758  0.6944  0.3576
  481MOL0     C64816   7.884   4.331  10.227 -0.5000 -0.6259 -1.4299
  481MOL0     N64817   7.942   4.234  10.134 -0.5016 -0.3109 -0.0322
  481MOL0     C64818   7.884   4.177  10.022 -0.0778 -0.0647  0.2846
  481MOL0     C64819   7.964   4.063   9.993 -0.3306 -1.4003 -0.6205
  481MOL0     C64820   7.935   3.953   9.892 -0.4019  0.1139 -0.0161
  481MOL0     C64821   8.045   3.932   9.794 -0.3084  0.0865 -0.1622
  481MOL0     C64822   8.036   3.810   9.704  0.0279  0.8733 -0.0909
  481MOL0     C64823   8.166   3.738   9.681  0.2681  0.5288 -0.7277
  481MOL0     O64824   8.205   3.668   9.806  0.3083  0.0437 -0.5714
  481MOL0     C64825   8.329   3.621   9.824  0.8233  0.4535  1.0256
  481MOL0     C64826   8.347   3.528   9.928  0.1317 -0.4373 -0.1296
  481MOL0     C64827   8.471   3.467   9.965  0.7918  0.2026 -0.3981
  481MOL0     C64828   8.578   3.481   9.877  0.5079 -0.5423 -0.4584
  481MOL0     C64829   8.717   3.434   9.912 -0.8064 -0.3323 -0.6931
  481MOL0     O64830   8.812   3.435   9.818 -0.5755 -0.6401 -0.2660
  481MOL0     C64831   8.948   3.418   9.845  0.3181  0.1920  0.1187
  481MOL0     C64832   9.007   3.405   9.972 -0.2720  0.0550 -0.5089
  481MOL0     C64833   9.153   3.406   9.986 -0.0265 -0.9032 -0.4978
  481MOL0     C64834   9.238   3.432   9.867  0.2971 -0.4747  0.0538
  481MOL0     O64835   9.370   3.430   9.898 -0.1774 -0.3770  0.6265
  481MOL0     C64836   9.454   3.460   9.785  0.0035 -0.2031 -0.2946
  481MOL0     C64837   9.589   3.466   9.849 -0.2499 -0.1719 -0.1571
  481MOL0     C64838   9.684   3.483   9.727  0.5481 -0.0258 -0.5577
  481MOL0     C64839   9.825   3.528   9.782  0.3868 -0.5398  0.2265
  481MOL0     C64840   9.908   3.575   9.675 -0.8914  0.2544  0.0045
  481MOL0     C64841  10.034   3.644   9.722  0.0716  0.2740  0.0255
  481MOL0     C64842  10.108   3.724   9.606  0.5806 -0.0346 -0.4841
  481MOL0     C64843  10.231   3.799   9.647  0.5329  0.0223  0.3286
  481MOL0    Cl64844  10.181   3.914   9.771 -0.2269 -0.1939 -0.3445
  481MOL0     C64845   9.173   3.440   9.748  0.0115 -0.7394 -0.0108
  481MOL0     C64846   9.031   3.430   9.735  0.4059 -0.1275 -0.8038
  481MOL0     O64847   8.723   3.369  10.013  0.1688  0.2154 -1.1708
  481MOL0     C64848   8.554   3.550   9.762 -0.5089  0.3112 -0.3020
  481MOL0     C64849   8.442   3.625   9.737 -0.0432 -0.1532  0.1667
  481MOL0     N64850   8.063   4.062  10.083 -0.9983  0.4825  0.1960
  481MOL0     N64851   8.046   4.152  10.172 -0.0828 -0.2519 -0.2811
  481MOL0     C64852   6.916   3.785  10.371  0.0770 -0.4658 -0.3035
  481MOL0     C64853   6.810   3.695  10.419  0.6471 -0.0607 -0.2209
  481MOL0     C64854   6.555   3.366  10.563  0.2581 -0.4515 -0.0327
  481MOL0     C64855   6.564   3.345  10.703  1.0540 -0.6853  0.6495
  481MOL0     C64856   6.459   3.293  10.783  0.5458 -0.3931 -0.6942
  481MOL0     C64857   6.341   3.259  10.722  0.1562  0.1439 -0.3792
  481MOL0     O64858   6.247   3.210  10.814 -0.6615 -0.3745  0.4771
  481MOL0     C64859   6.221   3.074  10.812 -0.1727 -0.3919  0.2921
  481MOL0     C64860   6.070   3.061  10.789  1.0437 -0.5193 -0.0603
  481MOL0     C64861   5.990   3.127  10.907 -0.9259  0.7356 -0.3080
  481MOL0     C64862   5.839   3.127  10.874 -0.2417 -0.3094 -0.1110
  481MOL0     C64863   5.773   2.994  10.869  0.4570  0.5428 -0.1482
  481MOL0     C64864   5.735   2.877  10.871 -0.0926  0.6576 -0.1202
  481MOL0     C64865   6.331   3.269  10.577  0.1061 -0.2143 -1.0259
  481MOL0     C64866   6.431   3.328  10.500 -0.0762 -0.0516 -0.1834
  481MOL0     C64867   6.395   3.351  10.356 -1.0173  0.0540 -0.2801
  481MOL0     H64868   6.981   3.498  10.617 -2.3114 -1.0764 -2.2049
  481MOL0     H64869   7.176   3.634  10.532 -0.3384 -0.5840  1.2229
  481MOL0     H64870   7.078   3.887  10.178  0.2998  0.2078  0.2725
  481MOL0     H64871   7.097   4.004  10.297 -1.0484 -1.1943  1.3658
  481MOL0     H64872   7.274   4.049  10.139  2.0820  1.7820  2.0488
  481MOL0     H64873   7.340   3.880  10.166 -0.8533 -1.0238  2.0723
  481MOL0     H64874   7.370   3.964  10.421  1.2610  3.2513  2.4446
  481MOL0     H64875   7.324   4.118  10.376  2.8087  1.3760  0.6555
  481MOL0     H64876   7.555   3.991  10.253 -0.0577 -0.5126 -0.0557
  481MOL0     H64877   7.495   4.149  10.213  1.6430 -4.2050 -3.9688
  481MOL0     H64878   7.543   4.228  10.453 -1.8126 -0.5270  0.8466
  481MOL0     H64879   7.595   4.072  10.497 -1.6763  0.3541  0.2559
  481MOL0     H64880   7.789   4.203  10.449 -0.5855 -0.2397  0.3814
  481MOL0     H64881   7.774   4.078  10.321  0.7629 -0.4211  2.2266
  481MOL0     H64882   7.693   4.373  10.315  0.5992  0.2324  1.4346
  481MOL0     H64883   7.693   4.264  10.169  1.3788  2.8693 -0.8516
  481MOL0     H64884   7.884   4.431  10.182 -3.0053  1.4807  2.6241
  481MOL0     H64885   7.942   4.328  10.319 -2.5691 -0.8488 -0.0744
  481MOL0     H64886   7.786   4.201   9.984 -0.3982 -0.7126  0.6862
  481MOL0     H64887   7.914   3.862   9.950 -3.4223  0.1959 -0.7907
  481MOL0     H64888   7.842   3.977   9.839  0.1677  1.4370 -0.4507
  481MOL0     H64889   8.037   4.021   9.731 -1.6745  1.7124  2.1312
  481MOL0     H64890   8.147   3.934   9.833 -0.3087  0.6538 -0.1840
  481MOL0     H64891   7.991   3.854   9.615 -0.1181  1.4214  0.2513
  481MOL0     H64892   7.963   3.735   9.738  0.1689  1.3911  1.4499
  481MOL0     H64893   8.248   3.805   9.651 -0.9147  2.7355  0.7516
  481MOL0     H64894   8.153   3.658   9.608 -0.4232 -0.8224  0.8268
  481MOL0     H64895   8.255   3.497   9.977 -0.8099 -0.2185 -1.6636
  481MOL0     H64896   8.472   3.413  10.059 -3.2176  1.0707  0.3257
  481MOL0     H64897   8.950   3.407  10.065 -1.2283  3.1304 -1.0675
  481MOL0     H64898   9.205   3.381  10.078  1.6099 -1.6007 -1.5617
  481MOL0     H64899   9.441   3.385   9.707 -0.9409 -0.7756  0.3956
  481MOL0     H64900   9.439   3.556   9.735 -1.5875 -0.3090 -0.0671
  481MOL0     H64901   9.596   3.559   9.906  2.0263  0.3076 -1.1219
  481MOL0     H64902   9.611   3.374   9.904  1.8276  0.4392  0.1070
  481MOL0     H64903   9.691   3.390   9.670 -2.5115 -1.5303  1.2614
  481MOL0     H64904   9.645   3.564   9.665  4.4303  2.0451 -0.5541
  481MOL0     H64905   9.877   3.448   9.836  0.6768 -0.0683  0.6567
  481MOL0     H64906   9.822   3.611   9.853 -1.4213  0.6037 -1.1054
  481MOL0     H64907   9.849   3.648   9.620  1.0743  1.9305  0.0140
  481MOL0     H64908   9.931   3.490   9.610 -2.7378  1.6303 -2.6249
  481MOL0     H64909  10.004   3.708   9.806 -0.0532 -0.9766  0.9716
  481MOL0     H64910  10.108   3.572   9.760  1.2408  0.3792 -1.9272
  481MOL0     H64911  10.035   3.800   9.577  2.6444  1.6651 -1.4651
  481MOL0     H64912  10.121   3.661   9.517 -0.1738  0.1099 -0.7037
  481MOL0     H64913  10.302   3.723   9.678  2.0019  1.2136  0.0135
  481MOL0     H64914  10.268   3.848   9.556 -0.0858  0.7097  0.4350
  481MOL0     H64915   9.226   3.443   9.653  0.2492  4.5460 -0.0286
  481MOL0     H64916   8.978   3.455   9.643  0.0552 -0.8552 -0.8043
  481MOL0     H64917   8.641   3.559   9.698  1.6080  1.5718  2.5047
  481MOL0     H64918   8.445   3.685   9.646  0.7980 -2.1020 -1.1698
  481MOL0     H64919   6.899   3.862  10.296 -2.5274 -0.3320  0.3239
  481MOL0     H64920   6.704   3.710  10.406  0.1439 -0.5240  2.6781
  481MOL0     H64921   6.652   3.379  10.757  2.7385  1.1196 -2.8892
  481MOL0     H64922   6.462   3.276  10.890 -2.4870  1.3535 -0.2151
  481MOL0     H64923   6.244   3.029  10.909 -4.5651 -0.8146  1.3421
  481MOL0     H64924   6.273   3.023  10.730  2.9260  1.9126  0.6187
  481MOL0     H64925   6.043   2.956  10.775  0.8956 -0.4507 -0.2879
  481MOL0     H64926   6.048   3.105  10.692  0.0858 -1.0798 -0.1073
  481MOL0     H64927   6.030   3.228  10.921 -1.6311  0.8892  0.7095
  481MOL0     H64928   5.999   3.084  11.007 -3.3794  1.1055  0.1283
  481MOL0     H64929   5.792   3.193  10.947  0.3161 -0.5274  0.4564
  481MOL0     H64930   5.823   3.161  10.772 -0.4396 -0.5910 -0.1732
  481MOL0     H64931   5.700   2.778  10.892  0.5721  0.6207  0.8953
  481MOL0     H64932   6.243   3.232  10.525 -0.6457  1.6447 -1.1648
  481MOL0     H64933   6.417   3.457  10.338  0.1518  0.2273  1.8118
  481MOL0     H64934   6.462   3.289  10.296  0.1455  1.4511 -0.4883
  481MOL0     H64935   6.292   3.320  10.337 -0.4418 -2.4227  0.2521
  482MOL0     O64936   9.372   3.103   9.558 -0.4135  0.4705  0.0351
  482MOL0     C64937   9.327   2.992   9.557  0.5815 -0.3296  0.1700
  482MOL0     O64938   9.395   2.881   9.518 -0.5254  1.1432  0.6121
  482MOL0     C64939   9.526   2.881   9.459 -0.1763 -0.7673 -0.1319
  482MOL0     C64940   9.608   2.774   9.497  0.4745 -0.3782 -0.8978
  482MOL0     C64941   9.737   2.766   9.442 -1.0411 -0.4384 -0.2364
  482MOL0     C64942   9.774   2.856   9.346  0.4050  0.2174 -0.1191
  482MOL0     O64943   9.905   2.842   9.309  0.3146  0.4367  0.3058
  482MOL0     C64944   9.955   2.924   9.201  0.4390  0.2245 -0.4472
  482MOL0     C64945  10.098   2.883   9.162  0.2698  0.2878 -0.0331
  482MOL0     C64946  10.096   2.719   9.134 -0.6937 -0.6228  0.4145
  482MOL0     C64947  10.227   2.672   9.058 -0.0479 -0.5288  0.3924
  482MOL0     C64948  10.221   2.513   9.060 -0.5778 -0.6751  0.7406
  482MOL0     C64949  10.247   2.437   9.182 -0.1674 -0.4525 -0.2206
  482MOL0     C64950  10.242   2.283   9.161  0.0529 -0.4034 -0.3212
  482MOL0     C64951  10.301   2.216   9.289 -0.7112  0.0932  1.1854
  482MOL0     N64952  10.310   2.069   9.280 -1.1271 -1.1900  0.3115
  482MOL0     C64953  10.209   1.981   9.288  0.4777 -0.2997  0.0077
  482MOL0     C64954  10.278   1.862   9.289 -0.2804  1.1810  0.1584
  482MOL0     C64955  10.220   1.719   9.298 -0.6845 -0.3571 -0.7884
  482MOL0     C64956  10.232   1.673   9.440 -0.1934 -0.7769 -0.7752
  482MOL0     C64957  10.157   1.543   9.450 -0.1244  0.2591 -0.7934
  482MOL0     C64958  10.147   1.531   9.601  0.6259  0.4858  0.3137
  482MOL0     O64959  10.274   1.526   9.669  0.9139 -0.2948  0.2136
  482MOL0     C64960  10.364   1.425   9.651 -0.1992  0.0898  0.5715
  482MOL0     C64961  10.346   1.302   9.583 -0.3469 -0.0043 -0.1286
  482MOL0     C64962  10.454   1.209   9.578 -0.0117  0.6147 -0.4670
  482MOL0     C64963  10.577   1.232   9.632 -0.2756  0.3826 -0.2828
  482MOL0     C64964  10.681   1.122   9.638  0.3927  0.6178  0.0146
  482MOL0     O64965  10.800   1.148   9.692  0.3707  0.4114 -0.4366
  482MOL0     C64966  10.903   1.060   9.708  0.0500  0.0402  0.0255
  482MOL0     C64967  10.972   1.078   9.830 -0.6471 -1.0041 -0.1872
  482MOL0     C64968  11.088   1.007   9.851  1.0519  0.0691 -0.8306
  482MOL0     C64969  11.138   0.918   9.760 -0.1272  0.1975 -0.5335
  482MOL0     O64970  11.247   0.842   9.801  0.3219 -0.2659  0.3486
  482MOL0     C64971  11.300   0.752   9.704  0.3005  0.5871 -0.3104
  482MOL0     C64972  11.441   0.712   9.769  0.6299  0.3728  0.6514
  482MOL0     C64973  11.547   0.823   9.782 -1.1145  0.9745  0.2057
  482MOL0     C64974  11.583   0.898   9.652 -0.5698  0.3166 -0.5314
  482MOL0     C64975  11.705   0.846   9.573  0.7632 -0.2331 -0.7119
  482MOL0     C64976  11.719   0.927   9.440  0.0071  0.0403 -0.6077
  482MOL0     C64977  11.820   0.853   9.343 -0.6354 -0.2304  0.2465
  482MOL0     C64978  11.962   0.882   9.396 -1.1626  1.2890  0.0717
  482MOL0    Cl64979  12.071   0.741   9.355  0.0287  0.1377 -0.1012
  482MOL0     C64980  11.065   0.892   9.641 -1.0127 -1.1178  0.0175
  482MOL0     C64981  10.946   0.965   9.617  0.2877  0.1977  0.0142
  482MOL0     O64982  10.642   1.008   9.599 -0.0620  0.0853 -0.9185
  482MOL0     C64983  10.601   1.354   9.693  0.6438  0.0498  0.1578
  482MOL0     C64984  10.497   1.456   9.704 -0.1880  0.9586  0.3216
  482MOL0     N64985  10.408   1.881   9.306 -0.3234  0.2352 -0.0814
  482MOL0     N64986  10.430   2.008   9.302 -0.4282 -0.5366 -0.4451
  482MOL0     C64987   9.693   2.964   9.300  0.7267 -0.0287 -0.1286
  482MOL0     C64988   9.568   2.973   9.366  1.2351 -0.0282  0.8716
  482MOL0     C64989   9.185   2.984   9.604  0.1249  0.0954  0.1813
  482MOL0     C64990   9.100   3.089   9.565  0.5599  0.5027 -0.3415
  482MOL0     C64991   8.979   3.099   9.623  1.2225 -0.0171 -0.2216
  482MOL0     C64992   8.928   2.994   9.704 -0.0725 -0.5686  0.1142
  482MOL0     O64993   8.799   2.998   9.766  0.3964  0.8605 -0.7983
  482MOL0     C64994   8.747   3.113   9.832  0.4520 -0.0374  0.4947
  482MOL0     C64995   8.624   3.072   9.907 -0.3297 -0.3683 -0.3456
  482MOL0     C64996   8.526   3.021   9.806 -0.7262  1.2754  0.2138
  482MOL0     C64997   8.377   3.042   9.855 -0.0140 -0.7894  0.3140
  482MOL0     C64998   8.282   2.949   9.788  0.1580 -0.1556  0.8247
  482MOL0     C64999   8.200   2.888   9.726 -0.0871  0.2351 -0.0973
  482MOL0     C65000   9.013   2.894   9.745  0.3482  0.2420  0.6292
  482MOL0     C65001   9.135   2.884   9.683 -0.5937  0.3407 -0.0828
  482MOL0     C65002   9.210   2.757   9.725 -2.1389 -0.1522 -0.0078
  482MOL0     H65003   9.555   2.710   9.567 -1.6780  2.8514  0.6525
  482MOL0     H65004   9.811   2.690   9.464 -1.3029 -0.5217  0.3933
  482MOL0     H65005   9.892   2.906   9.114  2.2655 -0.2919 -1.7219
  482MOL0     H65006   9.947   3.030   9.225 -1.1747 -0.4442  2.6381
  482MOL0     H65007  10.167   2.910   9.242 -0.2254  1.2059  0.0967
  482MOL0     H65008  10.131   2.932   9.070  2.3014  0.4716  0.7483
  482MOL0     H65009  10.014   2.686   9.070  0.1916 -1.0882 -0.5141
  482MOL0     H65010  10.097   2.657   9.224  1.9631  0.2252  1.0490
  482MOL0     H65011  10.218   2.710   8.956  0.7731  0.2115  0.5863
  482MOL0     H65012  10.323   2.707   9.097 -0.1761  0.6141 -0.2726
  482MOL0     H65013  10.128   2.482   9.013 -0.4336  0.4064 -0.3082
  482MOL0     H65014  10.293   2.485   8.982 -3.2538 -0.4835 -1.9771
  482MOL0     H65015  10.347   2.463   9.214 -0.3615  1.4484 -1.0490
  482MOL0     H65016  10.171   2.470   9.253  0.3468  1.2322 -0.4108
  482MOL0     H65017  10.312   2.255   9.082 -0.3472 -1.9959 -0.1475
  482MOL0     H65018  10.141   2.245   9.148  0.0458  0.1514 -2.1195
  482MOL0     H65019  10.399   2.263   9.302 -0.9538  0.6835  0.9389
  482MOL0     H65020  10.247   2.246   9.379  0.0592  2.0550  1.0444
  482MOL0     H65021  10.104   1.996   9.263 -0.0583  0.5991  2.5330
  482MOL0     H65022  10.114   1.733   9.276 -1.1650 -0.6952  1.1585
  482MOL0     H65023  10.277   1.651   9.234  3.6445 -0.3852  2.5981
  482MOL0     H65024  10.333   1.664   9.482 -0.6108 -0.1522  0.4209
  482MOL0     H65025  10.186   1.751   9.502 -2.5714 -1.3844 -1.7041
  482MOL0     H65026  10.220   1.466   9.403  2.2231  1.8527 -0.4271
  482MOL0     H65027  10.054   1.555   9.416 -0.4710  4.1576  1.1329
  482MOL0     H65028  10.091   1.440   9.625  0.3822  0.7299  0.6785
  482MOL0     H65029  10.087   1.613   9.640 -1.8427  0.5830 -3.1544
  482MOL0     H65030  10.249   1.271   9.544 -0.0536  0.0307 -0.9149
  482MOL0     H65031  10.442   1.117   9.522 -0.1149 -0.7691  1.7079
  482MOL0     H65032  10.932   1.136   9.912  0.8523 -0.4283  0.1724
  482MOL0     H65033  11.121   1.007   9.954 -1.2020  2.6287  0.0313
  482MOL0     H65034  11.235   0.666   9.685  1.3730 -1.1070  2.9593
  482MOL0     H65035  11.310   0.793   9.603  1.4066 -0.9396 -0.8640
  482MOL0     H65036  11.432   0.683   9.874 -1.9888 -1.0736  0.1120
  482MOL0     H65037  11.480   0.620   9.725  2.5539  1.2292  0.4612
  482MOL0     H65038  11.528   0.887   9.868  0.2521 -2.8131  3.6173
  482MOL0     H65039  11.631   0.761   9.814 -2.3032  0.0501  1.6435
  482MOL0     H65040  11.597   1.003   9.677 -0.2028  0.3026 -0.6789
  482MOL0     H65041  11.491   0.890   9.593 -1.9447  3.1562  1.0365
  482MOL0     H65042  11.697   0.738   9.557  1.3298 -0.3215 -0.4316
  482MOL0     H65043  11.792   0.851   9.641  0.6685  0.0520 -0.6112
  482MOL0     H65044  11.620   0.934   9.395  0.3705 -0.0950 -1.4605
  482MOL0     H65045  11.760   1.027   9.450 -1.4253  0.8184 -2.0477
  482MOL0     H65046  11.809   0.896   9.243  3.1390 -1.2505 -0.7653
  482MOL0     H65047  11.803   0.745   9.339 -0.3442 -0.3034  0.9106
  482MOL0     H65048  12.002   0.966   9.337 -2.0817 -0.2788 -2.9752
  482MOL0     H65049  11.960   0.905   9.503  0.0262 -2.0361  0.9189
  482MOL0     H65050  11.098   0.819   9.569 -1.3092  0.0641 -1.3654
  482MOL0     H65051  10.887   0.939   9.530 -2.0421 -3.7115  2.4793
  482MOL0     H65052  10.698   1.375   9.736  0.2261  2.0509  0.2190
  482MOL0     H65053  10.512   1.549   9.757  2.5669  0.4507  0.5454
  482MOL0     H65054   9.734   3.036   9.229 -1.6556  0.1307 -1.4383
  482MOL0     H65055   9.493   3.046   9.338  1.7219  1.0837  2.3437
  482MOL0     H65056   9.139   3.162   9.495  1.0001 -0.1140 -0.7512
  482MOL0     H65057   8.915   3.180   9.589 -0.1198 -0.7757  0.4162
  482MOL0     H65058   8.716   3.193   9.763 -1.6778 -2.1895 -1.2026
  482MOL0     H65059   8.814   3.150   9.911 -0.0298  1.0963  0.3860
  482MOL0     H65060   8.576   3.159   9.953  1.2939 -0.6442  2.0681
  482MOL0     H65061   8.649   3.011   9.994 -2.1778  1.0949  1.3071
  482MOL0     H65062   8.541   2.916   9.782 -0.1418  0.7624  2.6331
  482MOL0     H65063   8.541   3.070   9.709  1.3717 -0.5870 -0.5005
  482MOL0     H65064   8.364   3.026   9.963 -4.9715 -1.4073 -0.1493
  482MOL0     H65065   8.349   3.144   9.826  0.7015 -1.1050 -1.5628
  482MOL0     H65066   8.119   2.841   9.673 -0.6443  1.3755 -0.2665
  482MOL0     H65067   8.973   2.817   9.811 -0.7381  1.0275  0.9208
  482MOL0     H65068   9.183   2.734   9.829 -0.8989  1.7883  0.7986
  482MOL0     H65069   9.186   2.669   9.664 -1.4937 -0.7960  0.6378
  482MOL0     H65070   9.316   2.780   9.721 -2.5540  2.7789  2.6416
  483MOL0     O65071   1.810   9.156   2.366  0.3192 -0.6591  0.2310
  483MOL0     C65072   1.691   9.140   2.337  0.0223 -0.4149  0.2633
  483MOL0     O65073   1.633   9.028   2.295  0.3364 -0.5975 -0.3388
  483MOL0     C65074   1.720   8.934   2.252 -0.7557  0.0821 -0.3049
  483MOL0     C65075   1.745   8.825   2.340 -0.1687 -0.4221  0.1279
  483MOL0     C65076   1.825   8.717   2.291 -0.4805 -0.2155 -0.2594
  483MOL0     C65077   1.888   8.714   2.167  0.0335  0.1994 -0.6779
  483MOL0     O65078   1.957   8.607   2.136  0.6621  0.1554 -0.1150
  483MOL0     C65079   2.026   8.610   2.014  0.1436  0.2692  0.0577
  483MOL0     C65080   2.128   8.497   2.023  0.1360  0.5940 -0.3383
  483MOL0     C65081   2.215   8.456   1.901 -0.6748 -0.6169  0.3382
  483MOL0     C65082   2.342   8.541   1.894 -0.0312 -0.6397  0.4995
  483MOL0     C65083   2.421   8.520   1.766  0.0315 -0.6915  0.5859
  483MOL0     C65084   2.561   8.583   1.788  0.0926 -0.3291 -0.1741
  483MOL0     C65085   2.657   8.519   1.682  0.4642 -1.3271 -0.2072
  483MOL0     C65086   2.793   8.566   1.709 -0.6089 -0.5513  0.4325
  483MOL0     N65087   2.894   8.488   1.633 -0.3048  1.0898  0.0393
  483MOL0     C65088   2.966   8.527   1.519 -0.4223 -0.0267  0.1951
  483MOL0     C65089   3.019   8.408   1.463  1.1543 -0.5048 -0.1405
  483MOL0     C65090   3.087   8.390   1.334 -0.5011  0.2688  0.5374
  483MOL0     C65091   3.050   8.477   1.219  0.7101 -0.3408  0.8523
  483MOL0     C65092   2.916   8.442   1.153  1.6761  0.7575  0.5676
  483MOL0     C65093   2.794   8.454   1.238  0.5269  0.7550 -0.7280
  483MOL0     O65094   2.677   8.400   1.171 -0.2988 -0.5380 -0.1164
  483MOL0     C65095   2.566   8.461   1.214  0.1331  0.0758 -0.7910
  483MOL0     C65096   2.544   8.594   1.174  0.4688 -0.3875  0.0701
  483MOL0     C65097   2.437   8.665   1.225  0.8426  0.2072  0.3584
  483MOL0     C65098   2.352   8.612   1.320 -0.4957 -0.6161 -0.8518
  483MOL0     C65099   2.239   8.682   1.377  0.0960 -0.5954  0.8021
  483MOL0     O65100   2.249   8.821   1.369  0.6940 -0.7474  0.9369
  483MOL0     C65101   2.147   8.908   1.378  1.0510 -1.0540  0.0665
  483MOL0     C65102   2.176   9.036   1.412  0.3707 -0.5064 -0.0634
  483MOL0     C65103   2.078   9.127   1.441  0.1044 -0.4773  0.3553
  483MOL0     C65104   1.941   9.092   1.427  0.1269 -0.0726 -0.5940
  483MOL0     O65105   1.844   9.193   1.444  0.8091  0.2393 -0.8006
  483MOL0     C65106   1.863   9.321   1.498  1.0303 -1.1551 -0.1733
  483MOL0     C65107   1.732   9.370   1.555  0.4599 -0.1920  0.6814
  483MOL0     C65108   1.608   9.350   1.467 -0.7682  0.7020  0.1345
  483MOL0     C65109   1.483   9.415   1.539 -0.5933 -0.3455  0.2395
  483MOL0     C65110   1.353   9.427   1.454  0.5370  1.0996  0.5169
  483MOL0     C65111   1.234   9.493   1.524  0.8379 -0.3385 -0.1766
  483MOL0     C65112   1.100   9.471   1.438  0.1201 -0.7766 -0.5897
  483MOL0     C65113   0.986   9.550   1.511 -0.8192  0.2711 -0.0597
  483MOL0    Cl65114   0.819   9.523   1.457 -0.7361  0.4209  0.2554
  483MOL0     C65115   1.911   8.974   1.371  0.3941  0.4953  0.2647
  483MOL0     C65116   2.010   8.874   1.352 -0.0273  0.4158  0.8300
  483MOL0     O65117   2.147   8.618   1.423  0.4772  0.9514  0.3821
  483MOL0     C65118   2.381   8.480   1.370 -0.5996  0.0572 -0.8299
  483MOL0     C65119   2.489   8.404   1.312 -0.3409 -0.2250  0.0293
  483MOL0     N65120   2.986   8.312   1.558  0.2606  0.2778 -0.0587
  483MOL0     N65121   2.911   8.353   1.652 -0.5998  0.2044 -0.7992
  483MOL0     C65122   1.845   8.815   2.078  1.4177  0.5792 -0.4870
  483MOL0     C65123   1.766   8.925   2.122 -0.4454 -0.0859 -0.3254
  483MOL0     C65124   1.605   9.261   2.344  0.4354 -1.0907  0.5818
  483MOL0     C65125   1.488   9.263   2.266 -1.2406 -0.5505 -0.5593
  483MOL0     C65126   1.406   9.376   2.247  0.1165 -0.9172 -0.6926
  483MOL0     C65127   1.432   9.491   2.327  0.1472  0.2019 -0.5948
  483MOL0     O65128   1.347   9.598   2.306  0.1345  0.6551  0.1114
  483MOL0     C65129   1.393   9.731   2.339 -1.3774  0.1169 -0.9509
  483MOL0     C65130   1.521   9.782   2.268 -0.7092  0.4479  0.3957
  483MOL0     C65131   1.573   9.919   2.321  0.6845  1.4683  0.5110
  483MOL0     C65132   1.721   9.920   2.362  0.1625 -0.0769  0.5449
  483MOL0     C65133   1.804   9.875   2.253  0.3019  0.2509 -0.3716
  483MOL0     C65134   1.878   9.828   2.173 -0.0376  0.1062  0.6442
  483MOL0     C65135   1.536   9.481   2.418  0.5887 -0.0129  0.4387
  483MOL0     C65136   1.632   9.381   2.423 -0.6471  0.6314 -0.7168
  483MOL0     C65137   1.757   9.438   2.507  0.7848 -0.2480  0.3139
  483MOL0     H65138   1.704   8.826   2.441  0.3637  2.4190  0.3796
  483MOL0     H65139   1.827   8.638   2.366  0.3682  1.6270  1.7432
  483MOL0     H65140   1.964   8.591   1.926  0.0080  2.6643 -0.4133
  483MOL0     H65141   2.083   8.703   2.011  1.5009 -0.3372  3.2655
  483MOL0     H65142   2.070   8.405   2.035  0.7028 -0.4321 -4.2197
  483MOL0     H65143   2.194   8.508   2.110  0.6565  3.7085 -1.0138
  483MOL0     H65144   2.154   8.477   1.812  0.9011 -0.1486 -0.6725
  483MOL0     H65145   2.246   8.351   1.901  3.2284  0.4084  0.9786
  483MOL0     H65146   2.313   8.646   1.889  1.2701 -0.3069 -4.3958
  483MOL0     H65147   2.405   8.521   1.982 -3.1011 -1.8315  2.5930
  483MOL0     H65148   2.436   8.412   1.750 -4.2972 -1.2937 -0.6252
  483MOL0     H65149   2.374   8.565   1.679  1.7946  0.1964  0.0476
  483MOL0     H65150   2.558   8.692   1.779  1.1374 -0.4379 -2.7879
  483MOL0     H65151   2.606   8.543   1.879 -0.9329 -0.9588  0.0665
  483MOL0     H65152   2.640   8.555   1.580  2.3620 -0.9591 -0.4381
  483MOL0     H65153   2.649   8.410   1.680 -5.7912 -1.2242  0.5859
  483MOL0     H65154   2.802   8.666   1.668 -0.7213 -2.1049 -3.8894
  483MOL0     H65155   2.822   8.556   1.814  0.3401  0.3985  0.2750
  483MOL0     H65156   2.970   8.630   1.485  0.4988 -1.1168 -3.5532
  483MOL0     H65157   3.188   8.425   1.360 -1.3207  2.4708  0.9802
  483MOL0     H65158   3.096   8.282   1.318  1.3765  0.6915 -1.8060
  483MOL0     H65159   3.052   8.582   1.250  1.1142 -0.1818  0.3053
  483MOL0     H65160   3.136   8.468   1.152  1.3785  2.9842  1.0783
  483MOL0     H65161   2.916   8.339   1.115 -1.4331  1.0944 -0.6522
  483MOL0     H65162   2.911   8.511   1.068  0.4951  1.2801  1.0512
  483MOL0     H65163   2.789   8.562   1.254 -0.5304  0.4619  1.2594
  483MOL0     H65164   2.799   8.395   1.330 -3.2643  1.4995  0.1359
  483MOL0     H65165   2.602   8.645   1.098 -2.5894  0.5063 -1.8695
  483MOL0     H65166   2.422   8.764   1.184 -3.1794  0.2687  1.5217
  483MOL0     H65167   2.280   9.061   1.428  0.3073 -1.6491  2.5347
  483MOL0     H65168   2.111   9.221   1.483 -0.4318 -0.0389 -0.1847
  483MOL0     H65169   1.937   9.325   1.579  2.3333 -0.1935 -1.3629
  483MOL0     H65170   1.910   9.383   1.421  2.3435 -0.9905  0.7327
  483MOL0     H65171   1.718   9.334   1.658 -0.1982  2.5684  1.6419
  483MOL0     H65172   1.735   9.478   1.573 -0.9207 -0.5478  3.8620
  483MOL0     H65173   1.623   9.399   1.370 -1.4322 -0.1235 -0.3996
  483MOL0     H65174   1.590   9.245   1.441 -0.7830  1.2244 -2.1667
  483MOL0     H65175   1.514   9.518   1.557 -1.5984 -0.0656  0.4703
  483MOL0     H65176   1.459   9.377   1.639 -2.0512 -0.9764 -0.3117
  483MOL0     H65177   1.324   9.326   1.423  2.4626 -0.1181  2.4029
  483MOL0     H65178   1.390   9.484   1.368  1.6878 -1.7060 -0.9545
  483MOL0     H65179   1.221   9.441   1.619  1.9846 -1.0183 -0.3730
  483MOL0     H65180   1.252   9.600   1.538 -0.0296  0.3654 -3.4575
  483MOL0     H65181   1.066   9.367   1.437 -0.7225 -0.5072 -1.7109
  483MOL0     H65182   1.097   9.517   1.339  1.1801  2.2951  0.6566
  483MOL0     H65183   0.984   9.521   1.617 -0.0725 -2.2146 -0.6730
  483MOL0     H65184   1.016   9.655   1.511  1.9330 -0.4248 -1.1340
  483MOL0     H65185   1.809   8.942   1.355  0.4697  0.5367 -0.3564
  483MOL0     H65186   1.984   8.779   1.305 -1.0942  0.9529  0.3226
  483MOL0     H65187   2.313   8.430   1.439 -2.2445  2.7168 -0.3781
  483MOL0     H65188   2.524   8.314   1.360  1.1379  1.0213  1.4313
  483MOL0     H65189   1.878   8.819   1.975  0.1280  4.1151 -0.9219
  483MOL0     H65190   1.744   9.008   2.056 -4.0352  1.4207  2.4296
  483MOL0     H65191   1.463   9.174   2.208  0.9999 -0.4018 -1.8555
  483MOL0     H65192   1.319   9.375   2.183 -1.0161 -1.7252  0.8138
  483MOL0     H65193   1.406   9.732   2.448 -2.7981 -2.5876 -0.6730
  483MOL0     H65194   1.314   9.803   2.317 -1.6604  0.0343 -0.2364
  483MOL0     H65195   1.501   9.791   2.161  1.6715  0.1195 -0.1253
  483MOL0     H65196   1.595   9.702   2.271  0.3556  1.2093 -2.6505
  483MOL0     H65197   1.510   9.959   2.401 -0.9507  1.0329 -0.5029
  483MOL0     H65198   1.566   9.991   2.239 -0.5183  1.0444  0.2244
  483MOL0     H65199   1.755  10.020   2.391  4.0124 -1.6513  2.1784
  483MOL0     H65200   1.736   9.858   2.451  0.8424 -2.1144 -0.9408
  483MOL0     H65201   1.937   9.794   2.090 -2.7455  1.8910 -2.2557
  483MOL0     H65202   1.547   9.576   2.469 -0.5632  0.5196 -0.2569
  483MOL0     H65203   1.813   9.355   2.551  0.1362  0.1491  1.9552
  483MOL0     H65204   1.827   9.491   2.442  0.8726 -1.6185 -0.7757
  483MOL0     H65205   1.730   9.513   2.582  0.3267 -0.4071  0.3135
  484MOL0     O65206   6.273   1.547   3.261 -0.0944 -0.3769  0.0115
  484MOL0     C65207   6.250   1.533   3.144 -0.2027 -0.2312  0.5349
  484MOL0     O65208   6.337   1.480   3.054 -0.1580  0.1248  0.9301
  484MOL0     C65209   6.438   1.396   3.090  0.4973 -0.5916 -0.1921
  484MOL0     C65210   6.459   1.291   3.003 -0.3297  0.6322  1.5867
  484MOL0     C65211   6.565   1.205   3.019 -0.0378 -0.5144 -0.0000
  484MOL0     C65212   6.653   1.218   3.133 -0.3623 -0.3576  0.1858
  484MOL0     O65213   6.752   1.136   3.175 -0.1530 -0.3726 -0.4587
  484MOL0     C65214   6.794   1.038   3.083  0.1697  0.7076 -0.1298
  484MOL0     C65215   6.937   0.999   3.111 -0.8474  0.5969 -0.0188
  484MOL0     C65216   6.981   0.847   3.115 -0.6922 -0.4976 -0.4582
  484MOL0     C65217   7.131   0.828   3.117  0.5793  0.4448  0.3700
  484MOL0     C65218   7.166   0.676   3.114  0.6897  0.5571  0.2167
  484MOL0     C65219   7.219   0.631   3.257 -0.1568  0.1800 -0.1570
  484MOL0     C65220   7.280   0.484   3.243 -0.0900 -0.9429  0.2555
  484MOL0     C65221   7.370   0.449   3.359 -0.7568 -0.0795 -0.1623
  484MOL0     N65222   7.465   0.344   3.318  0.8066  0.2807  0.2513
  484MOL0     C65223   7.579   0.371   3.239 -0.0305 -0.2443 -0.8469
  484MOL0     C65224   7.638   0.249   3.230 -1.0178 -0.7007 -0.8473
  484MOL0     C65225   7.768   0.211   3.156 -1.5570 -0.4183 -0.2139
  484MOL0     C65226   7.770   0.242   3.005  0.5171  0.6759 -0.0556
  484MOL0     C65227   7.714   0.120   2.926 -0.3333  0.1027 -0.0714
  484MOL0     C65228   7.728   0.140   2.766 -1.0912 -0.9040  0.5133
  484MOL0     O65229   7.856   0.185   2.712 -0.3933  0.1826  0.3080
  484MOL0     C65230   7.953   0.089   2.724 -0.4390 -0.3545 -0.0734
  484MOL0     C65231   7.928  -0.052   2.738 -0.4597  1.1757  0.6980
  484MOL0     C65232   8.030  -0.151   2.757 -0.2901  0.1140  0.6798
  484MOL0     C65233   8.165  -0.110   2.768 -0.1531 -0.0952  0.5601
  484MOL0     C65234   8.267  -0.218   2.768 -0.0710  0.1909 -0.3525
  484MOL0     O65235   8.387  -0.177   2.824  0.4263  0.6382  1.6213
  484MOL0     C65236   8.496  -0.265   2.834  0.2059 -0.4161 -0.6632
  484MOL0     C65237   8.518  -0.392   2.785 -0.1890  0.0254  0.2488
  484MOL0     C65238   8.645  -0.456   2.797 -0.0305 -0.5531 -0.6435
  484MOL0     C65239   8.749  -0.394   2.856 -0.8765  0.8516  0.5140
  484MOL0     O65240   8.872  -0.457   2.865  0.5170  0.2911  0.5204
  484MOL0     C65241   8.987  -0.384   2.846  0.5161 -0.3931  0.1661
  484MOL0     C65242   9.103  -0.483   2.855  0.1027 -0.1542 -0.6813
  484MOL0     C65243   9.236  -0.410   2.853 -1.4296  0.1170  0.4209
  484MOL0     C65244   9.349  -0.525   2.830  0.0279  0.0684  0.4892
  484MOL0     C65245   9.494  -0.480   2.842  0.8842 -0.6220  0.5653
  484MOL0     C65246   9.593  -0.593   2.810 -0.3578  1.1966  0.4322
  484MOL0     C65247   9.725  -0.579   2.874 -0.4841 -0.2735 -0.2329
  484MOL0     C65248   9.838  -0.677   2.816  0.6133 -0.5499 -0.6772
  484MOL0    Cl65249   9.997  -0.633   2.889 -0.5149 -0.2091  0.1460
  484MOL0     C65250   8.734  -0.264   2.910 -0.5644  0.8755  0.4485
  484MOL0     C65251   8.607  -0.199   2.897  0.2252 -0.0478  0.1811
  484MOL0     O65252   8.243  -0.329   2.733 -0.2047 -0.1006 -0.5309
  484MOL0     C65253   8.200   0.028   2.748  0.1999  0.5238 -0.6648
  484MOL0     C65254   8.094   0.121   2.741 -0.0833 -1.3180  0.8365
  484MOL0     N65255   7.561   0.150   3.289 -0.4518 -0.0079  0.3851
  484MOL0     N65256   7.453   0.207   3.327 -0.6124 -0.0849  0.7030
  484MOL0     C65257   6.618   1.321   3.222  0.2365 -0.2621  0.4866
  484MOL0     C65258   6.522   1.416   3.198 -0.0568  0.0782  0.3632
  484MOL0     C65259   6.127   1.584   3.086 -0.4604  0.5748 -0.0600
  484MOL0     C65260   6.066   1.508   2.984 -0.2291 -0.0831  0.1366
  484MOL0     C65261   5.952   1.547   2.917 -0.0774 -0.3113  0.0791
  484MOL0     C65262   5.880   1.662   2.950  0.0255 -0.0909 -0.3352
  484MOL0     O65263   5.754   1.685   2.900  0.1545  0.3230  0.1566
  484MOL0     C65264   5.727   1.816   2.851  0.9816  0.5258  1.0633
  484MOL0     C65265   5.800   1.840   2.712  0.6032 -0.1715  0.1391
  484MOL0     C65266   5.729   1.787   2.595 -0.1279 -0.4237 -0.0428
  484MOL0     C65267   5.740   1.636   2.568 -0.8242 -0.4430 -1.2483
  484MOL0     C65268   5.877   1.610   2.521 -0.0825  0.1433 -1.4976
  484MOL0     C65269   5.990   1.602   2.492  0.1590  0.5450  0.7591
  484MOL0     C65270   5.935   1.738   3.065  0.0276 -0.1504 -0.0460
  484MOL0     C65271   6.063   1.706   3.125  1.0902  0.6931  0.4218
  484MOL0     C65272   6.111   1.780   3.232  0.2950 -0.1026 -0.1009
  484MOL0     H65273   6.389   1.272   2.922 -0.3327  1.8639  1.2875
  484MOL0     H65274   6.579   1.129   2.943  0.3253  1.2956 -1.8404
  484MOL0     H65275   6.725   0.953   3.087 -0.3793  1.0575 -1.5978
  484MOL0     H65276   6.809   1.082   2.984 -0.9620 -0.1511 -0.7045
  484MOL0     H65277   6.979   1.045   3.201  1.6370 -3.0279  0.8986
  484MOL0     H65278   7.000   1.035   3.029 -1.5054 -1.1450 -1.3534
  484MOL0     H65279   6.934   0.800   3.028 -0.2015 -0.3394 -0.8106
  484MOL0     H65280   6.928   0.797   3.197 -2.0339 -0.6146 -1.3624
  484MOL0     H65281   7.158   0.880   3.024 -1.2733  1.2267  0.2267
  484MOL0     H65282   7.168   0.878   3.207  0.3315 -0.2845  0.8832
  484MOL0     H65283   7.080   0.614   3.087  0.0583  1.3891  0.2701
  484MOL0     H65284   7.242   0.671   3.036  0.3439  3.4904 -0.4144
  484MOL0     H65285   7.302   0.697   3.285  1.9759 -1.8912 -1.2210
  484MOL0     H65286   7.143   0.637   3.335  0.0207  0.0417  0.0270
  484MOL0     H65287   7.330   0.476   3.146  1.4831 -2.9144  1.1440
  484MOL0     H65288   7.205   0.405   3.238 -1.4973  0.1938  2.0524
  484MOL0     H65289   7.425   0.535   3.400 -1.6084 -0.1533  1.1936
  484MOL0     H65290   7.310   0.404   3.438  0.8530 -0.8330  0.6863
  484MOL0     H65291   7.600   0.473   3.210 -0.1013  0.0479  0.0944
  484MOL0     H65292   7.857   0.254   3.205 -1.1912 -1.5864  0.1729
  484MOL0     H65293   7.796   0.105   3.160  0.7192 -0.1275 -3.6318
  484MOL0     H65294   7.711   0.331   2.982 -1.5236  0.2633  3.0226
  484MOL0     H65295   7.876   0.259   2.985  1.0364 -0.4861  1.5392
  484MOL0     H65296   7.614   0.088   2.958 -1.0999  0.0007 -2.4272
  484MOL0     H65297   7.773   0.034   2.958 -1.1667  0.6739  3.4294
  484MOL0     H65298   7.662   0.227   2.757 -1.0956 -0.4309  3.8786
  484MOL0     H65299   7.691   0.052   2.713  0.8676 -2.1728  1.1714
  484MOL0     H65300   7.830  -0.095   2.725  0.3624 -0.7579  0.5040
  484MOL0     H65301   8.011  -0.257   2.764  2.6918 -0.4195  2.1134
  484MOL0     H65302   8.451  -0.457   2.729  1.3073 -1.0955 -0.2936
  484MOL0     H65303   8.660  -0.559   2.764  1.1683 -1.1177  1.4928
  484MOL0     H65304   9.003  -0.330   2.752  1.8045 -1.7755 -0.4534
  484MOL0     H65305   8.998  -0.309   2.924  1.6019 -1.4374  1.0607
  484MOL0     H65306   9.069  -0.533   2.946 -2.3810  0.1496 -1.3605
  484MOL0     H65307   9.097  -0.552   2.771 -1.2630  0.9303 -1.5154
  484MOL0     H65308   9.248  -0.343   2.767  0.0069  0.7095  1.0567
  484MOL0     H65309   9.264  -0.356   2.944 -0.6108  0.8745 -0.2626
  484MOL0     H65310   9.331  -0.569   2.732  0.7692 -2.6354  1.4755
  484MOL0     H65311   9.333  -0.599   2.909  2.5609 -0.5039  0.5615
  484MOL0     H65312   9.498  -0.442   2.944  4.2811 -0.0310  0.3284
  484MOL0     H65313   9.515  -0.393   2.778 -2.8059 -0.1677 -0.2563
  484MOL0     H65314   9.545  -0.685   2.845 -0.8632  1.1571 -0.3448
  484MOL0     H65315   9.597  -0.607   2.702 -1.2579 -0.4488  0.5799
  484MOL0     H65316   9.705  -0.592   2.981  2.3984  0.6526  0.5269
  484MOL0     H65317   9.756  -0.476   2.854 -2.6374  0.4738 -0.0171
  484MOL0     H65318   9.814  -0.778   2.851 -1.5550  0.1313 -0.0247
  484MOL0     H65319   9.836  -0.677   2.706 -1.1100 -0.1583 -0.6766
  484MOL0     H65320   8.818  -0.209   2.952  0.1179  1.0927 -1.1294
  484MOL0     H65321   8.611  -0.096   2.931 -0.7973  0.2374 -0.5157
  484MOL0     H65322   8.305   0.054   2.752  0.8488 -1.7794 -1.2693
  484MOL0     H65323   8.114   0.226   2.726 -0.4962 -0.9667  2.4992
  484MOL0     H65324   6.674   1.339   3.313  2.3957  2.3691 -1.1880
  484MOL0     H65325   6.525   1.510   3.251 -0.1044  0.5234 -0.4039
  484MOL0     H65326   6.113   1.411   2.969 -1.9846 -1.3770  2.4243
  484MOL0     H65327   5.918   1.500   2.825 -0.9406  0.7317 -0.1543
  484MOL0     H65328   5.751   1.895   2.922 -0.0650  2.3679 -0.5173
  484MOL0     H65329   5.618   1.809   2.843  1.0246  0.4745  0.4681
  484MOL0     H65330   5.901   1.797   2.719  0.5691  0.0036  2.5093
  484MOL0     H65331   5.806   1.949   2.715 -1.7057 -0.0234  0.6509
  484MOL0     H65332   5.781   1.838   2.513  2.0613 -3.5079 -0.7623
  484MOL0     H65333   5.624   1.814   2.609  0.2135  1.7650 -1.1748
  484MOL0     H65334   5.724   1.570   2.654  0.3968  1.4242  0.5283
  484MOL0     H65335   5.658   1.611   2.501 -2.2027 -0.2044  0.2832
  484MOL0     H65336   6.092   1.590   2.462  0.0151  0.2964  0.3559
  484MOL0     H65337   5.869   1.815   3.102 -1.6502 -0.8053 -1.5190
  484MOL0     H65338   6.056   1.874   3.245 -0.7503 -1.0106  2.6641
  484MOL0     H65339   6.104   1.727   3.327 -0.0009  3.3640  1.9643
  484MOL0     H65340   6.215   1.806   3.209  1.1715 -0.6008  2.8978
  485MOL0     O65341   0.635   6.157   4.711  0.3909  0.9977  0.0588
  485MOL0     C65342   0.574   6.263   4.728 -1.0830  0.8034  0.0887
  485MOL0     O65343   0.633   6.392   4.726 -0.5244  0.9532  0.4687
  485MOL0     C65344   0.765   6.403   4.711  0.2480 -0.1243 -0.0958
  485MOL0     C65345   0.827   6.356   4.598  0.7193 -1.0896  0.5349
  485MOL0     C65346   0.960   6.382   4.573  0.3168  0.0398 -0.2370
  485MOL0     C65347   1.039   6.447   4.669 -1.0370 -0.2187 -0.1005
  485MOL0     O65348   1.172   6.471   4.654 -0.8892 -0.0532 -0.1308
  485MOL0     C65349   1.264   6.373   4.600  0.5296 -0.3143 -0.4769
  485MOL0     C65350   1.392   6.381   4.678 -0.0453  0.2919 -0.0866
  485MOL0     C65351   1.472   6.508   4.667  0.5451 -0.1900  0.4767
  485MOL0     C65352   1.605   6.484   4.601  0.0298 -0.8919 -0.5130
  485MOL0     C65353   1.690   6.613   4.582  0.3864 -0.4405 -0.4342
  485MOL0     C65354   1.644   6.702   4.461 -0.1426 -0.8133  1.0815
  485MOL0     C65355   1.702   6.849   4.464  0.6927 -0.5872 -0.4490
  485MOL0     C65356   1.660   6.930   4.329  0.6493  1.5849  0.1766
  485MOL0     N65357   1.687   7.072   4.339  0.3201  0.0219 -0.4626
  485MOL0     C65358   1.640   7.166   4.245 -0.7923  0.3807  0.0883
  485MOL0     C65359   1.672   7.286   4.303  0.0798 -0.4876  0.6323
  485MOL0     C65360   1.631   7.418   4.240  0.0756 -0.1256 -0.0129
  485MOL0     C65361   1.483   7.428   4.219 -0.1321  0.0102 -0.1878
  485MOL0     C65362   1.396   7.428   4.347  0.6142  0.4487 -0.6588
  485MOL0     C65363   1.252   7.367   4.321 -0.6204  0.5538 -0.0045
  485MOL0     O65364   1.172   7.371   4.442 -0.4882 -0.1517  0.0289
  485MOL0     C65365   1.039   7.357   4.438  0.5368 -1.3024  0.2381
  485MOL0     C65366   0.971   7.383   4.551  0.0086  0.8571  0.2522
  485MOL0     C65367   0.831   7.364   4.557  0.2280  0.2356  0.1986
  485MOL0     C65368   0.757   7.323   4.450 -0.0052  0.8693  0.4604
  485MOL0     C65369   0.613   7.285   4.459 -0.8737  0.4863 -1.1292
  485MOL0     O65370   0.558   7.310   4.582 -0.0652  0.1576 -0.6058
  485MOL0     C65371   0.424   7.273   4.612  0.0657  0.0519  0.7301
  485MOL0     C65372   0.366   7.160   4.564  0.2700  0.9592  0.4213
  485MOL0     C65373   0.239   7.122   4.603  0.2647  0.8754 -1.0122
  485MOL0     C65374   0.174   7.198   4.708 -0.0916  0.9622  0.2379
  485MOL0     O65375   0.049   7.169   4.754  0.7344  0.8457  0.5292
  485MOL0     C65376  -0.032   7.084   4.665  0.3150  0.3913 -0.8080
  485MOL0     C65377  -0.177   7.064   4.706 -1.0901  0.1734  0.7768
  485MOL0     C65378  -0.257   6.984   4.608 -0.0238  0.9075  0.0103
  485MOL0     C65379  -0.406   6.994   4.649 -0.8693  1.6805 -0.0134
  485MOL0     C65380  -0.508   6.973   4.532  0.1858 -0.4256  0.6988
  485MOL0     C65381  -0.646   6.951   4.591  0.4188 -0.2641 -0.5137
  485MOL0     C65382  -0.742   6.878   4.495  0.3371  0.7811 -0.6237
  485MOL0     C65383  -0.876   6.849   4.559  0.5792  0.4038 -0.3102
  485MOL0    Cl65384  -0.969   6.737   4.448  0.0020 -0.4433  0.2580
  485MOL0     C65385   0.230   7.315   4.749  0.6678 -0.2412  0.2841
  485MOL0     C65386   0.354   7.358   4.705 -0.1414  0.5215 -0.7973
  485MOL0     O65387   0.555   7.243   4.363  0.8708  0.4691  0.4192
  485MOL0     C65388   0.823   7.297   4.329  0.1577 -0.4331 -0.0244
  485MOL0     C65389   0.962   7.329   4.325  0.2062  1.0928  1.1906
  485MOL0     N65390   1.743   7.263   4.416  0.0112 -0.2686 -0.0639
  485MOL0     N65391   1.751   7.138   4.436  0.2058 -0.1157 -0.2929
  485MOL0     C65392   0.972   6.494   4.781 -0.7015  0.0749  0.1830
  485MOL0     C65393   0.836   6.471   4.802  0.3732 -0.5197 -0.4605
  485MOL0     C65394   0.430   6.255   4.764  0.1340  0.6574  0.0453
  485MOL0     C65395   0.349   6.348   4.700  0.2533  0.7970 -0.6253
  485MOL0     C65396   0.208   6.330   4.717 -0.4048 -0.4221  1.0371
  485MOL0     C65397   0.150   6.225   4.790  0.0709 -0.2662 -0.2579
  485MOL0     O65398   0.015   6.206   4.808 -0.2425  0.2531 -0.0991
  485MOL0     C65399  -0.080   6.267   4.726  0.1664 -0.4513 -0.4054
  485MOL0     C65400  -0.093   6.198   4.595  0.2397  0.5347  0.2669
  485MOL0     C65401  -0.236   6.195   4.540  0.7350 -0.4909 -0.5011
  485MOL0     C65402  -0.245   6.123   4.396 -0.2160 -0.1019  0.9310
  485MOL0     C65403  -0.390   6.132   4.355 -0.7596 -0.6759 -0.4722
  485MOL0     C65404  -0.509   6.150   4.327 -0.6783  0.0640  0.1242
  485MOL0     C65405   0.235   6.139   4.850  0.4311  0.1783 -0.3881
  485MOL0     C65406   0.369   6.157   4.848 -1.1002 -0.2512 -0.9148
  485MOL0     C65407   0.447   6.060   4.939  0.7419 -1.2667  0.1886
  485MOL0     H65408   0.770   6.313   4.516 -1.4647  3.3440 -0.6300
  485MOL0     H65409   1.001   6.347   4.479  0.5657  0.3853 -0.2597
  485MOL0     H65410   1.219   6.274   4.608 -0.4472  0.1273 -0.2902
  485MOL0     H65411   1.278   6.379   4.492  5.1537 -1.7226 -0.1483
  485MOL0     H65412   1.451   6.293   4.651  0.7371  1.1844 -1.4248
  485MOL0     H65413   1.374   6.357   4.784  0.5491 -2.3486 -0.5141
  485MOL0     H65414   1.486   6.538   4.771 -2.8109  1.3699  0.6085
  485MOL0     H65415   1.411   6.584   4.617  1.1716  0.1173  0.1557
  485MOL0     H65416   1.666   6.419   4.664  0.0295 -0.4898 -0.0954
  485MOL0     H65417   1.587   6.435   4.505 -1.3419 -1.4385 -0.0092
  485MOL0     H65418   1.671   6.673   4.671 -1.4502 -1.5109 -0.0429
  485MOL0     H65419   1.798   6.596   4.587  0.6480  1.1106 -0.4737
  485MOL0     H65420   1.675   6.661   4.365  1.4250  1.1041  0.6740
  485MOL0     H65421   1.536   6.717   4.455  0.2532  2.3415 -4.4643
  485MOL0     H65422   1.811   6.842   4.471  0.6995 -1.5666 -1.2047
  485MOL0     H65423   1.665   6.899   4.554  2.4932 -1.3098  0.7277
  485MOL0     H65424   1.723   6.885   4.252 -2.3116 -1.1526 -0.8477
  485MOL0     H65425   1.560   6.905   4.295  1.2160 -1.1873  0.2843
  485MOL0     H65426   1.586   7.142   4.154  1.7535 -1.0124 -1.1849
  485MOL0     H65427   1.660   7.498   4.308 -1.3623 -0.7710  1.4378
  485MOL0     H65428   1.693   7.431   4.151  2.4503 -0.1348  1.5364
  485MOL0     H65429   1.481   7.522   4.164  4.8485  1.0578  0.9005
  485MOL0     H65430   1.447   7.350   4.151  1.1253 -0.9162  0.1657
  485MOL0     H65431   1.386   7.529   4.387 -0.7554 -0.1699  0.6240
  485MOL0     H65432   1.448   7.367   4.421  3.9310  3.0731 -0.6002
  485MOL0     H65433   1.275   7.267   4.282 -1.3003  0.2298  0.3949
  485MOL0     H65434   1.204   7.435   4.250 -2.1616  2.8479  2.9664
  485MOL0     H65435   1.030   7.422   4.634  1.0561  3.2891 -1.5140
  485MOL0     H65436   0.785   7.388   4.653 -0.5266 -0.7373  0.0925
  485MOL0     H65437   0.422   7.097   4.496  3.6420  2.2377  1.7916
  485MOL0     H65438   0.187   7.034   4.567 -0.6007  0.1442  1.7345
  485MOL0     H65439  -0.022   7.119   4.562  1.5389  2.1582 -0.1379
  485MOL0     H65440   0.016   6.987   4.678  0.1453  0.5159  0.9745
  485MOL0     H65441  -0.185   7.022   4.807 -0.2667  1.5144  1.4263
  485MOL0     H65442  -0.226   7.161   4.713 -1.6291  0.1455 -1.8346
  485MOL0     H65443  -0.249   7.026   4.507  2.3784  0.1511 -0.1833
  485MOL0     H65444  -0.223   6.880   4.611 -2.2490  0.1438  0.2678
  485MOL0     H65445  -0.431   7.087   4.701 -3.8600  1.7749 -1.4240
  485MOL0     H65446  -0.414   6.916   4.725  2.2041 -0.1878 -1.4125
  485MOL0     H65447  -0.484   6.891   4.464  0.3524  0.2603 -0.0843
  485MOL0     H65448  -0.505   7.067   4.477  1.1916  1.0962  3.1908
  485MOL0     H65449  -0.630   6.891   4.681 -1.2629  0.2448  0.1622
  485MOL0     H65450  -0.678   7.050   4.625 -1.1371 -1.0736  0.5372
  485MOL0     H65451  -0.700   6.779   4.473 -0.6496 -1.0549  4.3642
  485MOL0     H65452  -0.757   6.947   4.412  1.1500  1.5826 -0.1280
  485MOL0     H65453  -0.875   6.808   4.660 -2.1784  2.0476  0.4882
  485MOL0     H65454  -0.932   6.942   4.572 -1.3308 -0.0224 -4.1771
  485MOL0     H65455   0.176   7.369   4.826 -2.6189 -3.3228  0.4085
  485MOL0     H65456   0.404   7.442   4.754 -3.2843  2.1196 -0.0377
  485MOL0     H65457   0.783   7.266   4.234  3.5125 -0.6918 -1.5126
  485MOL0     H65458   1.012   7.311   4.231  0.9739  1.4097  1.5311
  485MOL0     H65459   1.029   6.554   4.851  0.4499  0.5755 -1.1469
  485MOL0     H65460   0.787   6.510   4.891  1.0423 -0.9728  0.1184
  485MOL0     H65461   0.385   6.423   4.630 -1.1710  1.9125 -0.2062
  485MOL0     H65462   0.141   6.399   4.666 -0.4367 -1.4672 -0.3878
  485MOL0     H65463  -0.069   6.375   4.709 -1.4503 -0.4287 -1.4888
  485MOL0     H65464  -0.181   6.276   4.767  1.4860  2.8572  2.6182
  485MOL0     H65465  -0.059   6.097   4.620  0.2933  0.7327  1.0123
  485MOL0     H65466  -0.031   6.246   4.518 -1.0407  1.1736 -0.3958
  485MOL0     H65467  -0.273   6.298   4.536  0.2411 -0.6045  0.6923
  485MOL0     H65468  -0.294   6.154   4.624  0.6643 -0.7982 -0.6980
  485MOL0     H65469  -0.180   6.187   4.335 -0.1268 -1.6682 -0.6961
  485MOL0     H65470  -0.215   6.018   4.406 -2.0605 -0.5643  2.0062
  485MOL0     H65471  -0.610   6.183   4.311 -0.7303 -0.2990 -0.3206
  485MOL0     H65472   0.187   6.066   4.914 -0.9692  1.0199 -0.4482
  485MOL0     H65473   0.481   6.112   5.029 -2.9636  0.4696  0.7680
  485MOL0     H65474   0.373   5.987   4.973 -2.4592  0.2054 -2.9450
  485MOL0     H65475   0.535   6.012   4.896  0.9205 -1.0878  0.3499
  486MOL0     O65476   7.637  10.227   9.564  0.5644  0.0426 -0.0660
  486MOL0     C65477   7.666  10.302   9.474  0.3136  0.2962  0.5920
  486MOL0     O65478   7.575  10.370   9.396  0.1951  0.7429 -0.0662
  486MOL0     C65479   7.443  10.366   9.439 -0.1915  0.6447  0.1784
  486MOL0     C65480   7.397  10.384   9.572 -0.0096 -0.3132  0.4817
  486MOL0     C65481   7.268  10.378   9.602 -0.0857  0.7174 -0.3853
  486MOL0     C65482   7.173  10.353   9.502  0.3617 -0.1218  0.7367
  486MOL0     O65483   7.039  10.338   9.539  0.5499 -0.1384  0.5182
  486MOL0     C65484   6.960  10.452   9.568  0.5198 -0.5688 -0.4831
  486MOL0     C65485   6.858  10.471   9.464 -0.5991  0.3242  0.3987
  486MOL0     C65486   6.903  10.480   9.322 -0.8672 -0.3241 -0.9031
  486MOL0     C65487   6.784  10.498   9.229 -0.0066  0.0665 -0.4746
  486MOL0     C65488   6.844  10.516   9.085  0.2361  1.2003  0.7681
  486MOL0     C65489   6.734  10.564   8.995 -0.2072  0.3365 -0.3974
  486MOL0     C65490   6.762  10.562   8.842  0.2377 -0.2336  0.2598
  486MOL0     C65491   6.647  10.632   8.763 -0.9264  0.2202 -1.1297
  486MOL0     N65492   6.666  10.640   8.615 -0.0061 -0.3563 -0.3101
  486MOL0     C65493   6.600  10.572   8.514  0.5246  0.0673 -0.4792
  486MOL0     C65494   6.646  10.616   8.399 -1.0184 -0.3117 -1.0987
  486MOL0     C65495   6.608  10.597   8.262  0.1104 -0.3294 -0.5673
  486MOL0     C65496   6.643  10.457   8.215 -0.0993 -0.2713 -0.4064
  486MOL0     C65497   6.774  10.448   8.146  0.9525  0.6545 -0.1955
  486MOL0     C65498   6.821  10.301   8.144 -0.0553  0.1463  0.3763
  486MOL0     O65499   6.731  10.214   8.080 -0.3201  0.5497  0.4083
  486MOL0     C65500   6.721  10.214   7.943 -0.4050  0.4314  0.5289
  486MOL0     C65501   6.826  10.254   7.859 -0.7070  0.2617  0.2586
  486MOL0     C65502   6.804  10.258   7.721  0.6022  0.0735  0.6484
  486MOL0     C65503   6.679  10.245   7.661 -0.5961 -0.5105 -0.3445
  486MOL0     C65504   6.661  10.261   7.512  0.0523  0.3885 -0.1282
  486MOL0     O65505   6.771  10.304   7.447 -0.0721  0.1808  0.2358
  486MOL0     C65506   6.745  10.315   7.307 -0.1375  0.7367 -0.6348
  486MOL0     C65507   6.672  10.419   7.261 -0.2187  0.4620  1.3450
  486MOL0     C65508   6.629  10.423   7.130 -0.6241 -0.2632  0.1024
  486MOL0     C65509   6.682  10.322   7.038 -0.5006 -0.1461  0.7773
  486MOL0     O65510   6.642  10.314   6.903 -0.1785 -0.1041  0.0764
  486MOL0     C65511   6.522  10.382   6.858  0.7244 -0.0480  0.2578
  486MOL0     C65512   6.474  10.317   6.725 -0.8767  0.8344  0.0322
  486MOL0     C65513   6.353  10.380   6.671  0.3267 -0.3428 -0.5106
  486MOL0     C65514   6.311  10.310   6.539 -0.1287 -0.0485 -0.7590
  486MOL0     C65515   6.184  10.380   6.506  0.6230  1.2776 -1.3497
  486MOL0     C65516   6.107  10.311   6.387  0.3441  0.5189 -0.6989
  486MOL0     C65517   5.968  10.381   6.350 -0.1365 -0.4282  0.1518
  486MOL0     C65518   5.985  10.523   6.314  0.8160 -0.3816 -0.1237
  486MOL0    Cl65519   5.852  10.575   6.211  0.3241  0.0308  0.3862
  486MOL0     C65520   6.767  10.224   7.088 -0.4841  0.9806  0.3196
  486MOL0     C65521   6.796  10.217   7.224 -0.1003  0.2100  1.3807
  486MOL0     O65522   6.543  10.242   7.465 -0.5606  0.1291 -0.7635
  486MOL0     C65523   6.567  10.216   7.743  0.7045 -0.8878 -0.3459
  486MOL0     C65524   6.589  10.197   7.884 -0.6648  1.1522  0.5334
  486MOL0     N65525   6.750  10.701   8.430  0.0643 -0.6683  0.1108
  486MOL0     N65526   6.764  10.716   8.554  0.5733 -0.9152 -0.3860
  486MOL0     C65527   7.220  10.306   9.382  0.3570  0.2255 -0.2940
  486MOL0     C65528   7.353  10.323   9.349  0.1793  0.4449  0.6101
  486MOL0     C65529   7.812  10.325   9.439  0.6061  0.6149 -0.0657
  486MOL0     C65530   7.843  10.427   9.344  0.2945 -0.3117 -0.2001
  486MOL0     C65531   7.966  10.457   9.303  0.6526 -0.0963  0.0845
  486MOL0     C65532   8.079  10.377   9.333 -0.0269  0.5798 -0.2133
  486MOL0     O65533   8.196  10.415   9.282 -0.4351 -0.2674 -0.5847
  486MOL0     C65534   8.328  10.372   9.339 -0.1862 -0.3989 -0.4720
  486MOL0     C65535   8.433  10.401   9.231  0.7041  0.7246  0.0797
  486MOL0     C65536   8.569  10.347   9.271 -0.2745  0.2675 -0.3274
  486MOL0     C65537   8.669  10.362   9.148  0.4327  0.3362 -0.1280
  486MOL0     C65538   8.801  10.338   9.203  0.6857 -0.1696 -0.3467
  486MOL0     C65539   8.906  10.319   9.264 -0.0370  0.1307 -0.6903
  486MOL0     C65540   8.055  10.282   9.430  0.4010  0.8152  0.5712
  486MOL0     C65541   7.923  10.251   9.480 -0.1583 -0.3774  0.2992
  486MOL0     C65542   7.924  10.138   9.579  0.9303  0.0785 -0.0189
  486MOL0     H65543   7.475  10.401   9.647  2.2333  1.1535 -1.9946
  486MOL0     H65544   7.232  10.386   9.704 -0.3217 -1.0010 -0.2924
  486MOL0     H65545   6.909  10.444   9.665  2.5972  2.3151  1.0128
  486MOL0     H65546   7.034  10.532   9.578  0.2693 -0.3668 -0.2252
  486MOL0     H65547   6.801  10.563   9.483 -2.6486 -0.1165 -2.8012
  486MOL0     H65548   6.789  10.386   9.466  2.3617 -2.2259  1.9143
  486MOL0     H65549   6.959  10.391   9.294  1.5538  0.9846 -0.5061
  486MOL0     H65550   6.968  10.568   9.319 -1.6539  0.2605 -0.9950
  486MOL0     H65551   6.711  10.418   9.247  0.0652  0.2080  0.4997
  486MOL0     H65552   6.732  10.591   9.252 -0.4895 -0.4348  0.5602
  486MOL0     H65553   6.920  10.594   9.074 -1.4589  2.5369 -3.2936
  486MOL0     H65554   6.879  10.417   9.053  0.8124  0.6702  2.8952
  486MOL0     H65555   6.646  10.505   9.023 -1.4270  0.0252 -4.2960
  486MOL0     H65556   6.698  10.667   9.010 -0.4157 -0.0540  2.3450
  486MOL0     H65557   6.767  10.458   8.811  0.5877 -1.1039  2.9698
  486MOL0     H65558   6.858  10.608   8.819  1.3483 -3.0559 -1.1558
  486MOL0     H65559   6.559  10.571   8.786 -1.0727  0.3990 -1.2185
  486MOL0     H65560   6.638  10.731   8.808  3.7657 -0.1031  1.1614
  486MOL0     H65561   6.500  10.530   8.521  0.5898 -0.8304 -3.3590
  486MOL0     H65562   6.500  10.610   8.255  0.0609  0.7207  1.5614
  486MOL0     H65563   6.655  10.673   8.199  0.7059  1.8722  2.3480
  486MOL0     H65564   6.640  10.387   8.299  0.3737  1.7497  1.3508
  486MOL0     H65565   6.584  10.428   8.127 -0.9740  1.2036 -0.3232
  486MOL0     H65566   6.851  10.509   8.195 -0.1540  0.1764  2.2372
  486MOL0     H65567   6.753  10.483   8.044  0.2400  2.1895  0.4454
  486MOL0     H65568   6.825  10.266   8.248 -0.5110 -1.0885  0.0060
  486MOL0     H65569   6.926  10.286   8.115  0.1234  3.3796 -1.1123
  486MOL0     H65570   6.920  10.297   7.893 -1.3160 -1.1255  4.2907
  486MOL0     H65571   6.888  10.291   7.662 -0.6115  3.3933  0.5292
  486MOL0     H65572   6.648  10.502   7.328 -2.6597 -0.3809  1.5804
  486MOL0     H65573   6.574  10.507   7.089  1.8991 -0.6962 -4.9685
  486MOL0     H65574   6.439  10.375   6.930  1.0127  0.2762  0.6294
  486MOL0     H65575   6.548  10.487   6.839 -2.3867  0.4347 -2.3532
  486MOL0     H65576   6.555  10.323   6.652 -1.7769 -0.9977 -1.1862
  486MOL0     H65577   6.448  10.214   6.751 -1.5322  0.8899 -0.3816
  486MOL0     H65578   6.267  10.370   6.737 -2.1861  2.1090 -3.1359
  486MOL0     H65579   6.368  10.487   6.653  1.0480 -0.5598 -1.2932
  486MOL0     H65580   6.296  10.202   6.549 -0.8940  0.1139 -0.0255
  486MOL0     H65581   6.381  10.324   6.456  2.1912 -0.3288  1.0378
  486MOL0     H65582   6.196  10.486   6.482 -0.9704  1.2988 -2.1440
  486MOL0     H65583   6.120  10.370   6.594  1.2222 -1.9996 -1.1348
  486MOL0     H65584   6.173  10.307   6.300 -0.1464  0.9949 -1.1059
  486MOL0     H65585   6.074  10.214   6.424  1.0123 -0.3179 -2.2101
  486MOL0     H65586   5.883  10.363   6.416  0.8575  2.6861  2.5748
  486MOL0     H65587   5.937  10.326   6.261 -0.8991 -0.2431  0.2939
  486MOL0     H65588   5.991  10.587   6.402 -0.2806  3.7351 -2.7411
  486MOL0     H65589   6.073  10.543   6.253 -0.4233  3.9411 -0.8187
  486MOL0     H65590   6.804  10.156   7.011  1.6337  1.9014  0.4533
  486MOL0     H65591   6.849  10.133   7.268 -1.2424 -0.5098  1.4195
  486MOL0     H65592   6.464  10.203   7.710 -0.0341  0.5708  1.2600
  486MOL0     H65593   6.509  10.159   7.947  1.2244  0.6414  2.7727
  486MOL0     H65594   7.151  10.278   9.303  1.2256  1.2971 -1.4807
  486MOL0     H65595   7.400  10.286   9.258  1.9169  0.9242  1.2693
  486MOL0     H65596   7.758  10.489   9.316 -0.8390 -0.4854  2.5112
  486MOL0     H65597   7.977  10.548   9.245  0.7780 -0.0885  0.1210
  486MOL0     H65598   8.330  10.266   9.365  2.5222 -0.4145 -0.4387
  486MOL0     H65599   8.354  10.415   9.437 -0.2132 -1.6151  0.0881
  486MOL0     H65600   8.442  10.510   9.231 -0.2538  0.8140 -0.7436
  486MOL0     H65601   8.390  10.375   9.134  3.9308  0.2910 -1.3422
  486MOL0     H65602   8.561  10.250   9.320 -1.7358  1.0826  1.1282
  486MOL0     H65603   8.596  10.416   9.351 -1.9601  1.5191 -0.7799
  486MOL0     H65604   8.639  10.285   9.075 -0.5770 -0.3958  1.0295
  486MOL0     H65605   8.669  10.459   9.097 -0.1378  1.7041  2.3462
  486MOL0     H65606   9.002  10.308   9.310 -0.4377  0.0016  0.1338
  486MOL0     H65607   8.139  10.217   9.450  0.8056  0.5705 -1.6146
  486MOL0     H65608   8.018  10.083   9.594 -0.2606 -2.4104 -1.0828
  486MOL0     H65609   7.892  10.183   9.673 -2.5835 -2.0249 -0.0322
  486MOL0     H65610   7.842  10.068   9.562  1.5721 -1.3936  2.5625
  487MOL0     O65611   6.762   0.288   2.559  0.4015  0.3069 -0.0768
  487MOL0     C65612   6.701   0.387   2.604 -1.3503  0.2221 -0.1559
  487MOL0     O65613   6.730   0.455   2.718 -0.1408 -0.6364 -0.3216
  487MOL0     C65614   6.796   0.379   2.812  0.1240  0.7901 -0.1001
  487MOL0     C65615   6.731   0.265   2.877  0.0531 -1.2570 -0.2533
  487MOL0     C65616   6.800   0.181   2.966 -0.6800  0.6088  0.3212
  487MOL0     C65617   6.924   0.230   3.011  1.1075  0.4075  0.7317
  487MOL0     O65618   6.981   0.180   3.123 -0.7894  0.6569  0.3116
  487MOL0     C65619   7.001   0.043   3.122 -0.5378  0.5588  0.2750
  487MOL0     C65620   7.104   0.009   3.236  0.8878  0.4057  0.1252
  487MOL0     C65621   7.214  -0.089   3.202 -0.1919  0.4953 -0.1297
  487MOL0     C65622   7.177  -0.233   3.208  0.6832  0.3662 -1.0588
  487MOL0     C65623   7.279  -0.324   3.170  0.7615  0.1392 -0.2149
  487MOL0     C65624   7.255  -0.460   3.233  0.2572  0.1789 -0.0592
  487MOL0     C65625   7.323  -0.574   3.148 -0.1709  0.5400 -0.4691
  487MOL0     C65626   7.468  -0.561   3.120  0.3072 -0.8340 -0.2599
  487MOL0     N65627   7.546  -0.669   3.061 -0.0554  0.4856  0.3939
  487MOL0     C65628   7.571  -0.786   3.138 -0.5424 -0.6947  0.1458
  487MOL0     C65629   7.677  -0.851   3.073  0.9320 -0.1766  0.0758
  487MOL0     C65630   7.743  -0.989   3.094 -0.4537 -0.0159  0.2593
  487MOL0     C65631   7.667  -1.094   3.012  0.9575  0.8309 -0.3070
  487MOL0     C65632   7.709  -1.238   3.033  0.3123  0.3294  0.9342
  487MOL0     C65633   7.641  -1.295   3.165 -0.3289  0.0148  0.5056
  487MOL0     O65634   7.697  -1.422   3.215 -0.9603  0.0588  0.2702
  487MOL0     C65635   7.687  -1.525   3.125  0.1779  0.5542 -0.2510
  487MOL0     C65636   7.584  -1.556   3.040  0.0505  0.4051  0.4506
  487MOL0     C65637   7.570  -1.669   2.964 -0.0822 -0.0997  0.0457
  487MOL0     C65638   7.677  -1.763   2.973  0.3513  0.5105  0.8301
  487MOL0     C65639   7.678  -1.897   2.908  0.2400  0.3771  0.0549
  487MOL0     O65640   7.762  -1.992   2.954  1.0171  0.4564  0.1467
  487MOL0     C65641   7.747  -2.118   2.902 -0.0948  0.7197 -0.2911
  487MOL0     C65642   7.777  -2.159   2.773 -1.2433 -0.5416  1.0724
  487MOL0     C65643   7.729  -2.290   2.721  0.9504 -0.5045  0.9347
  487MOL0     C65644   7.658  -2.370   2.814  0.8505  0.6531 -1.3820
  487MOL0     O65645   7.615  -2.489   2.758  0.3470 -0.1265  0.6997
  487MOL0     C65646   7.516  -2.562   2.815  0.0891 -0.0117  0.3710
  487MOL0     C65647   7.533  -2.699   2.759  0.1211  0.6391  0.0386
  487MOL0     C65648   7.411  -2.781   2.764  0.2104  0.6400  0.0915
  487MOL0     C65649   7.434  -2.917   2.698  0.4294 -0.1130  1.1873
  487MOL0     C65650   7.311  -3.001   2.689  0.0662 -0.0019  0.0932
  487MOL0     C65651   7.214  -2.956   2.574 -0.8557 -0.2502  0.3743
  487MOL0     C65652   7.271  -2.982   2.428 -1.5720 -0.2877 -0.3411
  487MOL0     C65653   7.158  -3.026   2.329 -0.7228  0.3577  0.2361
  487MOL0    Cl65654   7.015  -2.928   2.330  0.0380  0.4579 -0.6417
  487MOL0     C65655   7.624  -2.326   2.937 -0.8065 -0.9350 -0.3396
  487MOL0     C65656   7.681  -2.203   2.984  0.8879 -0.2224 -0.6496
  487MOL0     O65657   7.588  -1.912   2.824  0.3672 -0.7857  0.1799
  487MOL0     C65658   7.786  -1.732   3.055 -0.3184  0.3116  0.6829
  487MOL0     C65659   7.789  -1.617   3.134 -0.8868 -0.0026 -0.9327
  487MOL0     N65660   7.691  -0.780   2.949  0.2485 -0.5248  0.0343
  487MOL0     N65661   7.618  -0.674   2.945  0.2437 -0.1871 -0.2692
  487MOL0     C65662   6.988   0.343   2.959 -1.0343  0.2736  0.8958
  487MOL0     C65663   6.932   0.407   2.845 -0.5406  0.1958 -0.0124
  487MOL0     C65664   6.609   0.451   2.512  0.9390  0.7992 -0.4628
  487MOL0     C65665   6.489   0.388   2.476 -0.0960 -0.1086 -0.6180
  487MOL0     C65666   6.402   0.455   2.388 -0.5393 -0.7733 -0.0556
  487MOL0     C65667   6.433   0.574   2.330 -0.0325 -0.8396 -0.2561
  487MOL0     O65668   6.360   0.652   2.236  0.6968  0.1761 -0.3424
  487MOL0     C65669   6.218   0.634   2.213  0.7187  0.3236  0.2485
  487MOL0     C65670   6.147   0.756   2.264 -0.6201  0.0428 -0.5697
  487MOL0     C65671   6.165   0.768   2.418 -0.4812  0.0321  0.2154
  487MOL0     C65672   6.077   0.883   2.475 -0.5922 -0.6749 -0.0143
  487MOL0     C65673   5.929   0.869   2.453  0.0153 -0.5514 -0.4293
  487MOL0     C65674   5.820   0.838   2.431  0.1158 -0.1105  0.6323
  487MOL0     C65675   6.558   0.620   2.354 -0.2421 -0.4046  0.1392
  487MOL0     C65676   6.652   0.565   2.444  0.3835 -0.8170 -0.2622
  487MOL0     C65677   6.787   0.638   2.468 -0.8275  0.2935 -1.5256
  487MOL0     H65678   6.625   0.257   2.854  0.4139 -0.7457 -2.3487
  487MOL0     H65679   6.755   0.095   3.013  0.6632 -1.7788 -2.4246
  487MOL0     H65680   6.919  -0.026   3.141  0.5746 -0.5601  1.2243
  487MOL0     H65681   7.050   0.012   3.029  3.2861 -0.7058  2.4561
  487MOL0     H65682   7.045  -0.023   3.322 -0.6534 -2.4946 -1.7995
  487MOL0     H65683   7.153   0.105   3.249 -2.4348  2.2163  0.3877
  487MOL0     H65684   7.300  -0.071   3.267 -1.6907 -0.5992  2.3116
  487MOL0     H65685   7.256  -0.055   3.108  0.6519  1.3347  0.5361
  487MOL0     H65686   7.135  -0.254   3.307  0.0059 -0.4279 -1.4959
  487MOL0     H65687   7.093  -0.258   3.142  0.3626 -1.3645 -0.0512
  487MOL0     H65688   7.273  -0.339   3.062  1.0420 -2.6338  0.0786
  487MOL0     H65689   7.383  -0.294   3.187  1.8683 -2.3625 -1.9099
  487MOL0     H65690   7.305  -0.461   3.331  4.8570 -0.7596 -2.1743
  487MOL0     H65691   7.147  -0.475   3.235  0.1329  0.2083  4.3273
  487MOL0     H65692   7.275  -0.585   3.051  1.9602  5.6493 -2.4537
  487MOL0     H65693   7.302  -0.666   3.203  0.4215 -1.2226 -2.9974
  487MOL0     H65694   7.485  -0.475   3.054  1.8939 -1.1663 -0.3254
  487MOL0     H65695   7.521  -0.550   3.215  0.4305 -0.4344 -0.3744
  487MOL0     H65696   7.522  -0.813   3.230 -0.6456  3.9243  1.7117
  487MOL0     H65697   7.847  -0.992   3.061 -0.8929 -1.4491 -1.0888
  487MOL0     H65698   7.737  -1.008   3.202  1.5380  0.1071  0.4194
  487MOL0     H65699   7.558  -1.087   3.017  0.9881  1.8779 -0.8025
  487MOL0     H65700   7.693  -1.083   2.906 -0.0362  0.7696 -0.5683
  487MOL0     H65701   7.818  -1.246   3.037  0.1730 -1.7057  1.9604
  487MOL0     H65702   7.666  -1.304   2.957  1.6851  0.9053 -0.3735
  487MOL0     H65703   7.536  -1.302   3.138  0.6938 -1.7742 -3.7576
  487MOL0     H65704   7.654  -1.224   3.248  1.8731 -1.8326  1.8730
  487MOL0     H65705   7.502  -1.486   3.027  0.7609  0.9425 -1.6586
  487MOL0     H65706   7.481  -1.688   2.905  1.5112  0.4289 -2.7180
  487MOL0     H65707   7.836  -2.099   2.704  0.5371 -1.2901  1.8728
  487MOL0     H65708   7.758  -2.334   2.626 -3.3423 -3.2542  0.6422
  487MOL0     H65709   7.536  -2.573   2.923  1.2154  3.6349  0.6614
  487MOL0     H65710   7.423  -2.513   2.787  1.6783  1.4830 -2.8185
  487MOL0     H65711   7.576  -2.699   2.658  1.9729  0.1840  0.8000
  487MOL0     H65712   7.606  -2.746   2.824  2.1562  2.1662 -1.0344
  487MOL0     H65713   7.388  -2.795   2.870  0.7330  1.3637  0.3070
  487MOL0     H65714   7.326  -2.726   2.721  0.0302  0.2299 -0.0806
  487MOL0     H65715   7.505  -2.985   2.746  0.4034 -1.1214 -0.1610
  487MOL0     H65716   7.472  -2.896   2.598  0.4622  0.4896  1.3248
  487MOL0     H65717   7.249  -2.995   2.778 -3.5279  0.3736 -2.2506
  487MOL0     H65718   7.347  -3.101   2.663 -0.8397 -0.2338 -0.2718
  487MOL0     H65719   7.118  -3.007   2.587 -1.5552  1.1494  0.9074
  487MOL0     H65720   7.186  -2.850   2.581  1.4742  0.3526  1.6646
  487MOL0     H65721   7.334  -3.071   2.438  1.5476  1.9907  3.3556
  487MOL0     H65722   7.336  -2.900   2.397  0.7798 -1.3898  1.2958
  487MOL0     H65723   7.199  -3.024   2.228  0.8027  1.4281  0.8393
  487MOL0     H65724   7.115  -3.124   2.350  1.0168 -0.8645 -1.5519
  487MOL0     H65725   7.557  -2.375   3.007 -1.5017  0.6676  0.1507
  487MOL0     H65726   7.656  -2.164   3.082 -2.6106  1.2736 -2.0004
  487MOL0     H65727   7.866  -1.805   3.068 -0.8050 -0.8115 -1.8990
  487MOL0     H65728   7.871  -1.596   3.201 -2.2791 -0.1102  0.8906
  487MOL0     H65729   7.078   0.386   3.003 -1.3033 -0.4404  2.1958
  487MOL0     H65730   6.977   0.489   2.790  0.6943  1.4496  2.7141
  487MOL0     H65731   6.481   0.288   2.517 -2.3569  1.4751  3.4068
  487MOL0     H65732   6.321   0.398   2.346 -0.8826 -0.0785 -0.3564
  487MOL0     H65733   6.184   0.542   2.261  2.0199  0.2688  1.1276
  487MOL0     H65734   6.196   0.624   2.107 -0.8158 -1.7227  0.6996
  487MOL0     H65735   6.040   0.736   2.257 -0.8143  0.6063  0.6205
  487MOL0     H65736   6.186   0.847   2.217  0.0322  0.4456  0.6960
  487MOL0     H65737   6.268   0.783   2.453  0.3751 -0.2830 -2.0025
  487MOL0     H65738   6.131   0.678   2.470 -1.6524  1.1101  1.3858
  487MOL0     H65739   6.101   0.892   2.581  1.8406  3.5730 -0.7112
  487MOL0     H65740   6.117   0.974   2.430 -1.0227 -2.4505 -4.5001
  487MOL0     H65741   5.716   0.811   2.424 -0.2574  1.6398 -1.5710
  487MOL0     H65742   6.561   0.711   2.295  2.8979  0.3444  1.2531
  487MOL0     H65743   6.774   0.693   2.562 -1.5670 -0.5320 -1.1313
  487MOL0     H65744   6.872   0.573   2.493  1.9159  3.6516 -1.2523
  487MOL0     H65745   6.811   0.705   2.385 -2.5459  2.8777 -0.0630
  488MOL0     O65746   7.808   5.446   6.727  0.0344  0.2682 -0.4181
  488MOL0     C65747   7.821   5.411   6.609 -0.9267 -0.2514 -0.1473
  488MOL0     O65748   7.941   5.409   6.548 -1.0723 -0.6839 -0.8949
  488MOL0     C65749   8.049   5.444   6.631  0.2190 -0.8591  0.2429
  488MOL0     C65750   8.095   5.573   6.621 -0.4505 -0.4715  0.5504
  488MOL0     C65751   8.208   5.616   6.694  0.5819 -0.8204  0.4226
  488MOL0     C65752   8.264   5.530   6.785 -0.5123  1.7191  0.0246
  488MOL0     O65753   8.367   5.556   6.866  0.1840  0.0234 -0.2466
  488MOL0     C65754   8.423   5.685   6.857 -0.3204  0.4845  0.4673
  488MOL0     C65755   8.550   5.678   6.940  0.2458 -0.0975  0.8405
  488MOL0     C65756   8.666   5.607   6.861 -0.2239 -0.1374  0.5293
  488MOL0     C65757   8.770   5.562   6.956 -0.4724  0.2578 -0.0408
  488MOL0     C65758   8.876   5.483   6.874  0.2433 -0.2782 -0.1880
  488MOL0     C65759   9.003   5.470   6.958 -0.4821 -0.6242  0.4422
  488MOL0     C65760   9.113   5.365   6.918  0.2370 -0.4356  0.0587
  488MOL0     C65761   9.226   5.367   7.021  0.4369 -0.5865  0.3977
  488MOL0     N65762   9.338   5.281   6.999  0.2016  0.2490  0.2650
  488MOL0     C65763   9.451   5.288   7.084  0.2563 -0.1541 -0.2967
  488MOL0     C65764   9.516   5.167   7.078  0.6607 -0.0242  0.7951
  488MOL0     C65765   9.601   5.103   7.180  0.6612  0.5222  0.8233
  488MOL0     C65766   9.725   5.185   7.222 -0.2109 -0.7467 -0.5973
  488MOL0     C65767   9.833   5.128   7.313  0.2203 -0.1162 -1.0787
  488MOL0     C65768   9.926   5.039   7.244 -0.3062 -0.1149 -0.4382
  488MOL0     O65769  10.047   5.013   7.319  0.3895  0.0634  0.1605
  488MOL0     C65770  10.131   4.917   7.272  0.3968 -0.3390 -0.5171
  488MOL0     C65771  10.146   4.876   7.131 -0.7342 -0.1161 -0.2508
  488MOL0     C65772  10.230   4.769   7.092 -0.3675 -0.0455  0.3822
  488MOL0     C65773  10.292   4.693   7.192 -0.6438  0.4156  0.1210
  488MOL0     C65774  10.383   4.582   7.160  0.6268 -0.2179  0.4190
  488MOL0     O65775  10.490   4.571   7.246 -0.6948 -1.0764  0.1502
  488MOL0     C65776  10.594   4.483   7.236 -0.2938 -0.5539  0.0781
  488MOL0     C65777  10.706   4.527   7.310  0.2203 -0.3542 -0.7935
  488MOL0     C65778  10.813   4.438   7.324 -0.5083 -0.2714 -0.0569
  488MOL0     C65779  10.813   4.317   7.248  0.3289  0.3301  0.1859
  488MOL0     O65780  10.927   4.232   7.245  0.1944 -0.3928 -1.3013
  488MOL0     C65781  11.018   4.231   7.349 -0.4920  0.2672  0.0390
  488MOL0     C65782  10.960   4.170   7.477  0.0930 -0.4915 -1.3812
  488MOL0     C65783  10.942   4.017   7.449  0.6567  0.4553  0.0079
  488MOL0     C65784  11.055   3.929   7.508  0.0969  0.2436 -0.1232
  488MOL0     C65785  11.029   3.906   7.658 -0.2834  0.8762 -0.3374
  488MOL0     C65786  11.157   3.836   7.717  0.5373  0.4047  0.4032
  488MOL0     C65787  11.180   3.858   7.866 -0.5088  0.1435 -0.4006
  488MOL0     C65788  11.328   3.828   7.910  0.0557 -0.5060 -0.8350
  488MOL0    Cl65789  11.374   3.660   7.875  0.2374 -0.1388  0.2373
  488MOL0     C65790  10.701   4.270   7.178 -0.0849  0.0056 -0.0845
  488MOL0     C65791  10.593   4.358   7.173  0.4843 -1.2326 -0.4262
  488MOL0     O65792  10.372   4.519   7.054  0.3342  0.3016  0.2186
  488MOL0     C65793  10.279   4.731   7.330  0.7756 -0.1721  0.8817
  488MOL0     C65794  10.205   4.851   7.368 -0.6156  0.0953  1.0223
  488MOL0     N65795   9.444   5.099   6.981  0.6536  0.1250 -0.8201
  488MOL0     N65796   9.343   5.162   6.929  0.7956  0.0737  0.1374
  488MOL0     C65797   8.220   5.404   6.799  0.0888  0.0878  0.5949
  488MOL0     C65798   8.118   5.356   6.721  0.9831 -0.0119  1.0778
  488MOL0     C65799   7.693   5.379   6.530  0.3896  1.1281 -0.6170
  488MOL0     C65800   7.578   5.349   6.604  0.8911 -0.4392 -0.6355
  488MOL0     C65801   7.456   5.332   6.539 -0.4005 -0.4674  0.0288
  488MOL0     C65802   7.450   5.330   6.400 -0.4956 -0.6549  0.6096
  488MOL0     O65803   7.337   5.293   6.330 -0.1194  1.0643 -0.0266
  488MOL0     C65804   7.311   5.337   6.194  0.0361  0.0050  0.7765
  488MOL0     C65805   7.161   5.339   6.174 -0.3071 -0.3050 -0.5304
  488MOL0     C65806   7.089   5.221   6.241  0.4484  0.4401  0.0760
  488MOL0     C65807   6.944   5.199   6.195 -0.4223  0.2173  0.3770
  488MOL0     C65808   6.859   5.315   6.223  0.4042 -0.2713  0.6557
  488MOL0     C65809   6.799   5.412   6.249  0.3239  0.3861 -0.3597
  488MOL0     C65810   7.567   5.353   6.325  0.3780 -1.2771  0.0892
  488MOL0     C65811   7.693   5.383   6.388  0.8115  1.0673 -0.0912
  488MOL0     C65812   7.808   5.404   6.300  0.3158 -0.2214 -0.2693
  488MOL0     H65813   8.061   5.648   6.551 -2.2805 -0.2262  1.6366
  488MOL0     H65814   8.246   5.717   6.685  1.3742 -0.6870  3.9734
  488MOL0     H65815   8.441   5.707   6.752  0.8031  1.4595  0.8393
  488MOL0     H65816   8.359   5.751   6.916 -0.0398  0.7941  0.4288
  488MOL0     H65817   8.518   5.627   7.031 -0.7351  1.4017  1.3842
  488MOL0     H65818   8.559   5.784   6.965 -0.0774  0.8941 -2.6959
  488MOL0     H65819   8.704   5.681   6.790  1.2569 -0.7801  0.6019
  488MOL0     H65820   8.629   5.524   6.801 -1.7517  1.0174 -0.1649
  488MOL0     H65821   8.808   5.652   7.005  0.3845 -0.9511  1.6010
  488MOL0     H65822   8.728   5.493   7.031  1.7512 -1.7047 -0.4957
  488MOL0     H65823   8.828   5.388   6.849  0.3335 -0.3467 -0.1037
  488MOL0     H65824   8.905   5.538   6.784  1.7853  2.5798  1.8983
  488MOL0     H65825   9.059   5.562   6.974  2.4439 -2.7341  4.4539
  488MOL0     H65826   8.991   5.435   7.061  0.9431 -4.1347 -0.4298
  488MOL0     H65827   9.158   5.380   6.820  1.7004 -4.3799 -0.0248
  488MOL0     H65828   9.058   5.271   6.916  1.0852 -0.9794  1.0132
  488MOL0     H65829   9.263   5.470   7.022  1.9865 -1.0298 -2.1283
  488MOL0     H65830   9.195   5.348   7.124 -2.3446  2.0099  0.2110
  488MOL0     H65831   9.468   5.362   7.161 -1.4812 -1.6905  1.7067
  488MOL0     H65832   9.540   5.091   7.270  0.8409  1.8327  1.1426
  488MOL0     H65833   9.631   5.007   7.137  0.9536 -0.1539  2.4623
  488MOL0     H65834   9.764   5.233   7.132 -0.0175 -0.2573 -0.2574
  488MOL0     H65835   9.679   5.259   7.288  0.3473 -1.6863  0.9020
  488MOL0     H65836   9.781   5.078   7.395 -0.4786  0.7620 -0.9692
  488MOL0     H65837   9.890   5.216   7.345  2.6218  0.4948 -6.0477
  488MOL0     H65838   9.960   5.086   7.151 -2.4657  1.9857 -0.2821
  488MOL0     H65839   9.873   4.947   7.215  2.6342 -3.1601  2.8701
  488MOL0     H65840  10.084   4.927   7.058  0.7506 -0.0825 -1.5503
  488MOL0     H65841  10.229   4.744   6.986  0.1083  0.9753  0.1251
  488MOL0     H65842  10.712   4.624   7.359  0.7857 -1.1695  0.8130
  488MOL0     H65843  10.907   4.467   7.370 -0.7602  1.5617 -0.6208
  488MOL0     H65844  11.102   4.172   7.314  0.6286  1.2599  0.9792
  488MOL0     H65845  11.061   4.329   7.374 -0.3589  0.0098  0.8477
  488MOL0     H65846  11.023   4.193   7.564  1.2766 -0.2149 -2.2839
  488MOL0     H65847  10.862   4.215   7.492  1.0343  1.7801 -1.7103
  488MOL0     H65848  10.846   3.990   7.495  2.5878 -2.5150  2.6667
  488MOL0     H65849  10.930   3.986   7.345  0.0328 -3.7609  1.1491
  488MOL0     H65850  11.153   3.977   7.504  2.2988 -3.8391 -0.6841
  488MOL0     H65851  11.077   3.833   7.461  0.8797  1.2582 -1.9118
  488MOL0     H65852  10.939   3.845   7.666 -0.3271  0.9599 -0.1840
  488MOL0     H65853  11.008   4.002   7.706 -1.4556  1.0622 -1.1801
  488MOL0     H65854  11.145   3.731   7.690 -0.0334  0.6392 -0.2724
  488MOL0     H65855  11.244   3.880   7.666 -0.5616  2.5866  0.3144
  488MOL0     H65856  11.117   3.796   7.931  1.7216  0.9556  2.7701
  488MOL0     H65857  11.153   3.962   7.891  1.5059  1.2447 -2.4770
  488MOL0     H65858  11.382   3.907   7.858 -1.3996  0.7589 -0.5210
  488MOL0     H65859  11.343   3.853   8.016  0.5156  0.2714 -1.0729
  488MOL0     H65860  10.715   4.171   7.136  2.8759 -0.5719  1.9369
  488MOL0     H65861  10.509   4.337   7.108 -0.7078 -1.3158  1.1022
  488MOL0     H65862  10.324   4.671   7.409  0.5409  0.7040  1.7093
  488MOL0     H65863  10.206   4.886   7.471 -1.9780  0.9202  0.7733
  488MOL0     H65864   8.260   5.344   6.881  2.1477  0.0094 -0.3936
  488MOL0     H65865   8.076   5.257   6.735 -2.2216  0.4024 -3.5265
  488MOL0     H65866   7.589   5.344   6.712  2.1057  1.0095 -0.6454
  488MOL0     H65867   7.370   5.303   6.599 -0.7632 -1.3254 -0.8728
  488MOL0     H65868   7.369   5.270   6.130  0.7908  1.5993 -0.2808
  488MOL0     H65869   7.353   5.433   6.164  1.3880 -0.2177  1.8633
  488MOL0     H65870   7.141   5.338   6.066 -0.3659  1.6304 -0.5747
  488MOL0     H65871   7.118   5.433   6.210 -4.1136 -2.0652  0.0594
  488MOL0     H65872   7.080   5.227   6.350 -2.5314 -0.5957 -0.0315
  488MOL0     H65873   7.153   5.135   6.221 -1.0205 -0.5119 -0.6663
  488MOL0     H65874   6.945   5.165   6.091 -2.5625 -1.9960  0.9703
  488MOL0     H65875   6.902   5.116   6.253  1.3317 -1.2705 -0.3792
  488MOL0     H65876   6.736   5.497   6.268 -1.8888 -1.4542  1.1255
  488MOL0     H65877   7.561   5.362   6.217 -1.0069  0.4944  0.2670
  488MOL0     H65878   7.893   5.340   6.325  0.0487 -0.9263 -1.1146
  488MOL0     H65879   7.787   5.386   6.194  0.2822 -0.0700 -0.2883
  488MOL0     H65880   7.850   5.500   6.328  2.2377 -1.4236  1.2317
  489MOL0     O65881   1.420   3.964   4.808  0.9412  0.2887  0.7680
  489MOL0     C65882   1.497   4.019   4.889  0.7698 -0.5022 -0.1932
  489MOL0     O65883   1.583   3.951   4.963 -0.2105 -0.1794 -0.6785
  489MOL0     C65884   1.602   3.824   4.922  0.1082 -0.3713  0.1678
  489MOL0     C65885   1.664   3.805   4.807  0.1152 -0.3446  0.3598
  489MOL0     C65886   1.659   3.674   4.746  0.3692 -0.1141 -0.1388
  489MOL0     C65887   1.587   3.566   4.803 -0.7314  0.2844 -1.0470
  489MOL0     O65888   1.565   3.452   4.731  0.1440  0.3975 -0.3623
  489MOL0     C65889   1.679   3.361   4.737 -0.1601 -0.4816 -0.0411
  489MOL0     C65890   1.653   3.262   4.850 -0.0970 -0.1679  0.2800
  489MOL0     C65891   1.772   3.169   4.858 -0.1646 -0.5355 -0.3257
  489MOL0     C65892   1.749   3.022   4.920  0.8457 -1.0206  0.2999
  489MOL0     C65893   1.892   2.955   4.922 -0.6528 -0.4778  0.4483
  489MOL0     C65894   1.912   2.814   4.976 -0.5312  0.5485  0.0693
  489MOL0     C65895   1.859   2.798   5.120  0.0096 -0.1089 -0.0785
  489MOL0     C65896   1.875   2.654   5.170 -0.1062  0.8384 -0.2929
  489MOL0     N65897   2.017   2.618   5.209  0.6548  0.8338 -0.6138
  489MOL0     C65898   2.103   2.534   5.145  0.1781 -0.8036  0.1214
  489MOL0     C65899   2.216   2.528   5.234  0.1180 -0.0122  0.4936
  489MOL0     C65900   2.348   2.461   5.214 -0.9119 -0.8358 -0.3445
  489MOL0     C65901   2.424   2.482   5.083 -0.0914 -0.4183  0.8504
  489MOL0     C65902   2.558   2.414   5.085 -0.5704  0.3009  0.8457
  489MOL0     C65903   2.646   2.452   4.967  0.4776 -0.1750  0.0969
  489MOL0     O65904   2.771   2.384   4.965 -0.4174  0.0987  0.1602
  489MOL0     C65905   2.888   2.452   5.008  0.2085 -1.1721  0.9871
  489MOL0     C65906   2.995   2.437   4.925 -0.8127  0.3392  0.5099
  489MOL0     C65907   3.114   2.505   4.947  0.6854 -1.1601 -0.2755
  489MOL0     C65908   3.119   2.589   5.067 -0.2872  0.5660  0.7280
  489MOL0     C65909   3.247   2.661   5.117  0.5223 -0.1830  1.1794
  489MOL0     O65910   3.355   2.579   5.128  0.3422 -0.1911 -0.7610
  489MOL0     C65911   3.476   2.628   5.177  0.4480  0.3443  0.3032
  489MOL0     C65912   3.595   2.568   5.120 -0.4489 -0.0948 -0.2101
  489MOL0     C65913   3.723   2.619   5.170 -0.3448  0.4579  0.0336
  489MOL0     C65914   3.737   2.728   5.250  0.3732  0.4057  0.5812
  489MOL0     O65915   3.869   2.771   5.274 -0.1436  0.2453 -0.3447
  489MOL0     C65916   3.900   2.894   5.335 -0.5301 -0.2413 -0.2580
  489MOL0     C65917   4.040   2.881   5.408 -0.1508  0.0515 -0.5627
  489MOL0     C65918   4.074   3.014   5.468  0.0536  0.2367 -0.3365
  489MOL0     C65919   4.219   3.007   5.516 -1.0407 -0.5745  0.4205
  489MOL0     C65920   4.283   3.138   5.540 -0.2321  0.5280 -0.5221
  489MOL0     C65921   4.426   3.117   5.592 -1.4137  0.2181 -0.5651
  489MOL0     C65922   4.474   3.236   5.668 -0.9169 -0.2182  0.0818
  489MOL0     C65923   4.601   3.190   5.750  0.4331  0.2498 -0.6839
  489MOL0    Cl65924   4.727   3.136   5.636  0.1813  0.1777 -0.4839
  489MOL0     C65925   3.618   2.781   5.313 -0.1303 -0.0418  0.8293
  489MOL0     C65926   3.485   2.735   5.272  0.3486 -0.0785 -0.0848
  489MOL0     O65927   3.255   2.786   5.107 -0.4781 -0.0124  0.5781
  489MOL0     C65928   3.012   2.602   5.158 -0.1448  0.3577  1.0202
  489MOL0     C65929   2.898   2.531   5.125  0.2651 -0.2405  0.1879
  489MOL0     N65930   2.182   2.593   5.347 -0.2896  0.5365 -0.7049
  489MOL0     N65931   2.071   2.655   5.330  0.3306 -0.2575  1.5475
  489MOL0     C65932   1.521   3.595   4.928 -0.3185  0.0446 -0.4809
  489MOL0     C65933   1.540   3.721   4.993 -0.0531  0.1709  0.5171
  489MOL0     C65934   1.467   4.156   4.913 -0.0129  0.6862 -0.9951
  489MOL0     C65935   1.328   4.181   4.950  0.5705  0.1703  0.3000
  489MOL0     C65936   1.285   4.315   4.985 -0.0381 -0.1167 -0.0082
  489MOL0     C65937   1.372   4.423   4.998  0.0648 -0.1433 -0.3079
  489MOL0     O65938   1.312   4.548   5.033  0.2081 -0.4069  0.5666
  489MOL0     C65939   1.410   4.647   5.066  0.7483  0.2438  0.0452
  489MOL0     C65940   1.350   4.769   5.144 -0.0410  0.6779  0.5814
  489MOL0     C65941   1.365   4.755   5.296 -0.1301  0.6476 -0.2295
  489MOL0     C65942   1.353   4.880   5.375  0.3620  0.2084  0.2250
  489MOL0     C65943   1.210   4.929   5.378 -0.2616 -0.1429  0.2494
  489MOL0     C65944   1.106   4.992   5.354  0.1542  0.2992  1.5737
  489MOL0     C65945   1.507   4.397   4.963 -0.4898  0.0577  0.9783
  489MOL0     C65946   1.554   4.268   4.930 -0.0504 -0.7510 -0.4461
  489MOL0     C65947   1.705   4.247   4.910  0.8348 -0.5438  0.3285
  489MOL0     H65948   1.717   3.885   4.757  0.2624  0.3029  1.5257
  489MOL0     H65949   1.703   3.673   4.647 -0.9857 -2.6212 -0.7800
  489MOL0     H65950   1.694   3.319   4.637 -1.1089  1.3958 -1.0120
  489MOL0     H65951   1.773   3.412   4.761 -1.6556  1.6004  1.8449
  489MOL0     H65952   1.554   3.216   4.844 -0.2630 -0.0340  1.5718
  489MOL0     H65953   1.652   3.316   4.946 -1.8647  0.1438  0.1088
  489MOL0     H65954   1.854   3.219   4.911 -0.9548  3.0682 -2.2054
  489MOL0     H65955   1.816   3.159   4.759  2.8714  1.8975  0.5979
  489MOL0     H65956   1.706   3.015   5.020 -0.1630 -1.9574 -0.1827
  489MOL0     H65957   1.689   2.969   4.846  1.4278  1.8303 -2.4575
  489MOL0     H65958   1.923   2.950   4.817 -3.1302 -1.8644 -0.3017
  489MOL0     H65959   1.955   3.022   4.982  0.3341 -0.2401 -0.8072
  489MOL0     H65960   1.864   2.735   4.917 -2.6438  2.6401 -1.1748
  489MOL0     H65961   2.020   2.803   4.979 -0.5175  0.4860 -0.4554
  489MOL0     H65962   1.750   2.805   5.120 -0.0770 -1.1085  0.9221
  489MOL0     H65963   1.903   2.866   5.192  3.2778 -2.2538  0.1642
  489MOL0     H65964   1.818   2.631   5.260  2.1029  0.1188  1.0163
  489MOL0     H65965   1.842   2.574   5.102  0.7863  0.3883 -0.2110
  489MOL0     H65966   2.086   2.489   5.047 -2.9121  0.8479 -0.2194
  489MOL0     H65967   2.419   2.508   5.284  1.6100  0.3996 -3.4895
  489MOL0     H65968   2.335   2.355   5.236  0.2071 -0.9376 -0.1326
  489MOL0     H65969   2.363   2.453   4.997 -2.8950 -2.7978  3.4083
  489MOL0     H65970   2.443   2.590   5.076 -1.6811 -0.1666 -0.1052
  489MOL0     H65971   2.547   2.305   5.088  1.8555 -0.0552 -0.6749
  489MOL0     H65972   2.619   2.435   5.174  2.9751  0.2176 -1.4041
  489MOL0     H65973   2.661   2.559   4.952  1.3206 -0.4345 -1.0400
  489MOL0     H65974   2.591   2.417   4.879  0.8015 -0.8963  0.1735
  489MOL0     H65975   2.993   2.398   4.823  0.0697 -0.3100  0.7234
  489MOL0     H65976   3.196   2.512   4.876 -0.2004  1.3041 -1.1673
  489MOL0     H65977   3.597   2.485   5.050  3.4682  0.2177 -0.7180
  489MOL0     H65978   3.818   2.578   5.135 -0.0687 -1.0282  2.3107
  489MOL0     H65979   3.906   2.980   5.269 -1.5778  0.0677  0.0346
  489MOL0     H65980   3.825   2.923   5.409 -0.2740  2.2433 -0.9070
  489MOL0     H65981   4.010   2.818   5.492 -1.5864  0.6714 -0.5806
  489MOL0     H65982   4.119   2.831   5.352  2.0668  1.1067  1.4041
  489MOL0     H65983   4.051   3.091   5.393 -4.5697  2.1828  2.6342
  489MOL0     H65984   4.003   3.033   5.549  0.8503  0.7038  0.2729
  489MOL0     H65985   4.285   2.946   5.454 -0.3381 -0.0609  0.6569
  489MOL0     H65986   4.203   2.956   5.611 -1.8133  0.0587  0.6419
  489MOL0     H65987   4.220   3.191   5.612  1.8987 -1.5376  3.2016
  489MOL0     H65988   4.288   3.197   5.448  3.1045 -3.2050 -3.0654
  489MOL0     H65989   4.453   3.035   5.660 -0.2784  2.3546  1.7465
  489MOL0     H65990   4.496   3.113   5.508  2.3814  3.7788  2.0718
  489MOL0     H65991   4.396   3.269   5.737  3.7969  3.7500  4.2830
  489MOL0     H65992   4.502   3.323   5.609  2.1814  0.0428  1.7330
  489MOL0     H65993   4.631   3.281   5.803 -1.3534  0.4193  0.1051
  489MOL0     H65994   4.573   3.111   5.820 -2.8480 -0.1779 -2.2660
  489MOL0     H65995   3.622   2.859   5.388 -3.1429  0.3828  0.6877
  489MOL0     H65996   3.402   2.785   5.321  2.1819  2.6871  0.4273
  489MOL0     H65997   3.033   2.653   5.252  2.4033  0.0516  0.6803
  489MOL0     H65998   2.811   2.531   5.190  0.4825  1.9575  0.5299
  489MOL0     H65999   1.476   3.513   4.982  0.7315  0.4760  1.1141
  489MOL0     H66000   1.487   3.747   5.084  1.6486  2.7742  0.8874
  489MOL0     H66001   1.251   4.105   4.955  1.6010 -0.8024  2.3711
  489MOL0     H66002   1.180   4.338   5.000  0.6954  1.5878  3.7655
  489MOL0     H66003   1.443   4.693   4.972 -3.1246 -0.3874 -1.8391
  489MOL0     H66004   1.497   4.616   5.125 -0.6449  1.0260  2.6648
  489MOL0     H66005   1.247   4.782   5.111  0.6600  0.6493 -1.8648
  489MOL0     H66006   1.412   4.851   5.107 -1.9032  1.5827 -0.6865
  489MOL0     H66007   1.463   4.710   5.315 -0.3778  0.3920  0.4360
  489MOL0     H66008   1.288   4.686   5.332  0.1723  2.1087  3.6571
  489MOL0     H66009   1.389   4.874   5.478 -0.1988  0.9357  0.4640
  489MOL0     H66010   1.424   4.953   5.335  0.8465 -0.6559 -0.5284
  489MOL0     H66011   1.012   5.041   5.343 -0.7042 -1.5196  0.2644
  489MOL0     H66012   1.584   4.473   4.954  1.3080 -1.2606  3.7181
  489MOL0     H66013   1.749   4.342   4.879 -0.7783  0.0433 -0.2854
  489MOL0     H66014   1.749   4.213   5.004  0.0657 -2.3166  0.0776
  489MOL0     H66015   1.726   4.182   4.825  0.0301  1.6462 -1.6552
  490MOL0     O66016   0.865   1.391   2.867  0.4603  0.7186 -1.1573
  490MOL0     C66017   0.913   1.368   2.982  0.9150  0.4027 -0.0722
  490MOL0     O66018   1.029   1.424   3.042  0.4900  0.0183 -0.4222
  490MOL0     C66019   1.094   1.518   2.970  0.5615  0.5482  0.3608
  490MOL0     C66020   1.047   1.633   2.917  0.5170  1.0198 -0.4206
  490MOL0     C66021   1.120   1.709   2.826  0.4429  0.2971  0.2262
  490MOL0     C66022   1.245   1.663   2.780  0.2782  0.5840 -0.1329
  490MOL0     O66023   1.331   1.729   2.705  0.0027 -0.1197  0.0034
  490MOL0     C66024   1.286   1.855   2.664  0.0648  0.5318  0.4374
  490MOL0     C66025   1.413   1.927   2.606 -1.2871  0.2414 -0.1145
  490MOL0     C66026   1.489   1.853   2.491  0.7837  0.9995  0.2797
  490MOL0     C66027   1.569   1.950   2.412  1.3359 -0.6552  0.7288
  490MOL0     C66028   1.670   1.883   2.327 -0.1719  0.0657  0.1345
  490MOL0     C66029   1.780   1.973   2.260  0.6818 -0.2396  0.1716
  490MOL0     C66030   1.881   1.889   2.177 -0.7076 -0.6899  0.1814
  490MOL0     C66031   1.937   1.760   2.256  0.8631 -0.4253 -0.0368
  490MOL0     N66032   2.047   1.710   2.181  0.0716 -1.2319 -0.2185
  490MOL0     C66033   2.036   1.633   2.066 -0.4826 -0.4696 -0.8350
  490MOL0     C66034   2.165   1.624   2.029  0.1838  0.0926 -0.0501
  490MOL0     C66035   2.220   1.531   1.919 -0.7752 -0.2691  0.3544
  490MOL0     C66036   2.338   1.594   1.847  0.6174  0.0375  0.2991
  490MOL0     C66037   2.416   1.498   1.744  0.3052 -0.7616 -0.1942
  490MOL0     C66038   2.554   1.551   1.701  0.6764  0.3248  0.5989
  490MOL0     O66039   2.542   1.690   1.643 -0.2215  0.4459 -0.3594
  490MOL0     C66040   2.663   1.764   1.617  0.7395 -0.5950  0.3935
  490MOL0     C66041   2.627   1.893   1.562  1.1590  0.0099 -0.0533
  490MOL0     C66042   2.741   1.972   1.530  0.4211  0.7389  0.3637
  490MOL0     C66043   2.876   1.933   1.537 -0.4408 -0.5017 -0.8103
  490MOL0     C66044   2.993   2.034   1.513  0.6350  0.6929 -0.5532
  490MOL0     O66045   3.115   1.976   1.477  0.0086  0.2940 -0.2773
  490MOL0     C66046   3.235   2.047   1.490  0.5664 -0.6970  0.0501
  490MOL0     C66047   3.330   2.041   1.389  0.7594 -0.7251  0.9036
  490MOL0     C66048   3.449   2.113   1.394  0.5032 -1.2493  0.4791
  490MOL0     C66049   3.482   2.190   1.504 -0.6473  0.3517  0.7291
  490MOL0     O66050   3.603   2.254   1.508  0.2942 -0.1874  0.4139
  490MOL0     C66051   3.675   2.228   1.629  0.0227 -0.4207  0.3501
  490MOL0     C66052   3.765   2.344   1.665 -0.7793 -0.5826 -0.2425
  490MOL0     C66053   3.905   2.348   1.588  0.5171 -0.0902 -0.3846
  490MOL0     C66054   4.013   2.392   1.685  0.4661 -0.0349 -0.7571
  490MOL0     C66055   4.139   2.416   1.596  0.4887 -0.1423 -0.0766
  490MOL0     C66056   4.268   2.444   1.679 -0.2438 -0.1434 -0.0701
  490MOL0     C66057   4.379   2.464   1.572 -1.0530  1.0908  0.0494
  490MOL0     C66058   4.510   2.477   1.634 -1.4852 -1.3502  0.8219
  490MOL0    Cl66059   4.619   2.550   1.508 -0.3529  0.2920  0.2090
  490MOL0     C66060   3.383   2.213   1.602  0.7046 -0.1795 -0.2995
  490MOL0     C66061   3.262   2.143   1.589  0.2913  1.0664  0.0866
  490MOL0     O66062   2.971   2.154   1.519  0.0789 -0.1515  0.5976
  490MOL0     C66063   2.898   1.806   1.589 -0.1334  0.4817 -0.0347
  490MOL0     C66064   2.791   1.716   1.620 -0.8867 -0.1256  0.1391
  490MOL0     N66065   2.242   1.691   2.116 -1.0100 -0.4070 -0.3133
  490MOL0     N66066   2.175   1.751   2.201 -0.0802  1.0955 -0.0557
  490MOL0     C66067   1.292   1.544   2.833 -0.6691 -0.3030  0.0721
  490MOL0     C66068   1.215   1.473   2.929 -0.2220  0.4060 -0.5624
  490MOL0     C66069   0.825   1.279   3.060  0.7084  0.1448 -0.1137
  490MOL0     C66070   0.891   1.181   3.134  0.1017  0.5961  0.3829
  490MOL0     C66071   0.833   1.103   3.222 -0.0637  0.7770  0.7965
  490MOL0     C66072   0.702   1.103   3.232  0.5445  1.6176  0.9313
  490MOL0     O66073   0.644   0.999   3.306  0.5492 -0.1633 -0.5819
  490MOL0     C66074   0.556   1.044   3.409  0.3240  0.9672 -0.0772
  490MOL0     C66075   0.420   1.018   3.377  0.7570 -0.5787 -0.0221
  490MOL0     C66076   0.399   0.871   3.342 -0.8014 -1.0985 -0.0920
  490MOL0     C66077   0.411   0.834   3.190 -1.0368  0.5324 -0.7914
  490MOL0     C66078   0.306   0.906   3.114 -0.3703 -0.5006  0.4838
  490MOL0     C66079   0.231   0.977   3.052  0.5426 -0.0590 -0.2711
  490MOL0     C66080   0.622   1.195   3.156 -0.0758  0.0238  0.0897
  490MOL0     C66081   0.687   1.291   3.068  0.4405  0.2108 -0.8288
  490MOL0     C66082   0.608   1.393   2.990 -0.7992 -0.1855 -0.0615
  490MOL0     H66083   0.945   1.663   2.941  1.0837  2.3116  0.5020
  490MOL0     H66084   1.070   1.801   2.795 -1.2712 -0.2870  1.1278
  490MOL0     H66085   1.216   1.845   2.581  0.6346  1.2464 -0.1450
  490MOL0     H66086   1.249   1.919   2.745  0.0582 -0.3422  1.1538
  490MOL0     H66087   1.481   1.950   2.688 -2.4944  2.4843  0.3475
  490MOL0     H66088   1.385   2.023   2.561 -5.6286 -1.7021 -2.1474
  490MOL0     H66089   1.427   1.795   2.422  1.6641  2.1936 -1.5943
  490MOL0     H66090   1.557   1.778   2.532  0.1428  0.3581  0.2035
  490MOL0     H66091   1.503   2.017   2.356 -0.7717 -2.1250  1.3459
  490MOL0     H66092   1.628   2.003   2.487  0.2519  1.7540 -0.0448
  490MOL0     H66093   1.730   1.823   2.396  2.3568 -2.6353 -4.0072
  490MOL0     H66094   1.624   1.818   2.253  2.1830 -0.3178 -1.0609
  490MOL0     H66095   1.737   2.058   2.206  2.8573  0.8767  0.0714
  490MOL0     H66096   1.825   2.016   2.350 -1.4451  0.6582  0.8698
  490MOL0     H66097   1.962   1.956   2.148 -0.9132 -1.3202 -2.1218
  490MOL0     H66098   1.836   1.848   2.085  2.6692  1.7801 -2.8749
  490MOL0     H66099   1.971   1.776   2.359  3.5402 -3.4472 -0.2903
  490MOL0     H66100   1.866   1.677   2.247  2.5891 -1.7537 -2.7872
  490MOL0     H66101   1.958   1.571   2.022 -0.7158  0.5476 -1.9103
  490MOL0     H66102   2.249   1.435   1.963 -1.1385 -0.0714  1.0523
  490MOL0     H66103   2.132   1.516   1.856 -0.0134 -0.2271 -0.7470
  490MOL0     H66104   2.310   1.682   1.789  0.9202  0.7416  1.1875
  490MOL0     H66105   2.419   1.630   1.912  1.8045 -0.4785 -0.8611
  490MOL0     H66106   2.355   1.482   1.655  2.1647  0.9703 -1.9079
  490MOL0     H66107   2.437   1.401   1.789  0.4707 -0.3322  0.6805
  490MOL0     H66108   2.593   1.484   1.624 -1.2002  3.0895 -3.1246
  490MOL0     H66109   2.617   1.563   1.790  2.0084 -1.6375 -0.0133
  490MOL0     H66110   2.529   1.937   1.575  1.5153  1.3142 -1.4917
  490MOL0     H66111   2.712   2.070   1.493  0.5028  0.8805  0.6753
  490MOL0     H66112   3.294   1.973   1.313 -0.2308 -0.4649  1.1214
  490MOL0     H66113   3.520   2.121   1.313 -1.0184  5.9554 -0.8741
  490MOL0     H66114   3.609   2.221   1.715 -1.4943  1.1218 -0.6291
  490MOL0     H66115   3.740   2.140   1.623 -0.5737 -0.8165 -0.5456
  490MOL0     H66116   3.719   2.442   1.672 -1.0825 -0.8613  2.3953
  490MOL0     H66117   3.794   2.323   1.768  1.1538  1.8850 -0.1926
  490MOL0     H66118   3.924   2.249   1.546 -3.8112 -0.9400 -0.8016
  490MOL0     H66119   3.910   2.417   1.504  4.3144  0.4414  0.1202
  490MOL0     H66120   4.031   2.317   1.763  3.8840 -0.8455 -2.1161
  490MOL0     H66121   3.982   2.487   1.728  1.8075 -0.5959  1.6406
  490MOL0     H66122   4.117   2.506   1.537 -4.0800 -0.0179  1.4262
  490MOL0     H66123   4.161   2.330   1.532  2.8319 -1.1542  1.9123
  490MOL0     H66124   4.247   2.535   1.736  0.4704  0.6319 -1.0167
  490MOL0     H66125   4.291   2.361   1.746 -1.2085  0.2620  0.8031
  490MOL0     H66126   4.362   2.551   1.507  2.2427  2.0528  0.3217
  490MOL0     H66127   4.400   2.375   1.512  2.7833  1.0567  1.1930
  490MOL0     H66128   4.512   2.548   1.717 -1.2363  2.8832 -2.4454
  490MOL0     H66129   4.540   2.374   1.659 -2.1712 -1.1782  2.4363
  490MOL0     H66130   3.412   2.284   1.678  1.7696  0.6792 -1.4669
  490MOL0     H66131   3.186   2.152   1.666  0.4820  0.6195  0.3242
  490MOL0     H66132   3.001   1.772   1.594 -0.4393 -0.2999  1.3360
  490MOL0     H66133   2.813   1.615   1.655 -0.7224 -0.0204  0.3409
  490MOL0     H66134   1.391   1.517   2.799  0.2497  0.1672  2.2412
  490MOL0     H66135   1.246   1.379   2.973  1.1202  1.5354  0.9956
  490MOL0     H66136   0.999   1.174   3.135  0.0343 -0.6183  0.8460
  490MOL0     H66137   0.893   1.036   3.283  1.5712  1.9413  0.5583
  490MOL0     H66138   0.558   1.154   3.415  1.4032  1.0439 -1.4412
  490MOL0     H66139   0.597   1.006   3.503  1.4329  1.0136 -0.5275
  490MOL0     H66140   0.395   1.073   3.285  2.1602  0.4620  0.1673
  490MOL0     H66141   0.350   1.045   3.457 -0.5785 -0.8028 -1.0750
  490MOL0     H66142   0.298   0.845   3.375 -1.2425 -0.8630 -1.2140
  490MOL0     H66143   0.465   0.809   3.404 -0.8703 -0.7698  0.3168
  490MOL0     H66144   0.513   0.860   3.159 -1.5906  4.6313  0.2804
  490MOL0     H66145   0.392   0.727   3.181 -1.1371  0.6117 -1.6050
  490MOL0     H66146   0.164   1.046   3.006 -0.1026 -0.1685  0.4844
  490MOL0     H66147   0.514   1.190   3.172  0.1845 -1.1389  1.6375
  490MOL0     H66148   0.598   1.340   2.895 -0.9383  0.1459 -0.2320
  490MOL0     H66149   0.507   1.407   3.030 -1.4598  0.9676 -2.0269
  490MOL0     H66150   0.658   1.489   2.990  2.7295 -1.8787 -0.4355
  491MOL0     O66151   4.632   8.900   6.693  0.4455  0.2584  0.5765
  491MOL0     C66152   4.553   8.804   6.685 -0.2595  0.1667 -0.1555
  491MOL0     O66153   4.594   8.674   6.661 -0.2285 -0.2632  0.0026
  491MOL0     C66154   4.724   8.640   6.685 -0.5726  0.7333  1.2277
  491MOL0     C66155   4.769   8.524   6.609  0.5046 -0.5286 -0.1945
  491MOL0     C66156   4.903   8.483   6.623  0.1884  0.6792 -0.1422
  491MOL0     C66157   4.985   8.548   6.712 -0.2482 -0.2358 -0.4742
  491MOL0     O66158   5.118   8.510   6.722  0.1916  0.0626 -0.0313
  491MOL0     C66159   5.138   8.368   6.726 -0.0495 -0.2549 -0.6710
  491MOL0     C66160   5.211   8.306   6.600 -0.5680  0.2090 -0.0555
  491MOL0     C66161   5.340   8.379   6.561 -0.9960  1.6333 -0.2172
  491MOL0     C66162   5.424   8.299   6.455 -0.3177  0.3229 -0.1032
  491MOL0     C66163   5.559   8.354   6.413  0.0856  0.4231 -0.1289
  491MOL0     C66164   5.533   8.455   6.302  0.0029  0.1975  0.6391
  491MOL0     C66165   5.658   8.516   6.231 -0.3832 -0.9603 -0.3508
  491MOL0     C66166   5.636   8.665   6.187  0.4565  0.6859 -0.9202
  491MOL0     N66167   5.736   8.700   6.092 -0.2158  0.4467 -0.6202
  491MOL0     C66168   5.868   8.728   6.121  0.1977  0.6652  0.2073
  491MOL0     C66169   5.925   8.756   6.006 -0.1557  0.3551 -0.4566
  491MOL0     C66170   6.072   8.777   5.984  0.0556 -0.2371  0.7324
  491MOL0     C66171   6.088   8.911   5.915  0.2048 -0.3247  0.7361
  491MOL0     C66172   6.044   8.924   5.767 -0.5026 -0.1448  0.3305
  491MOL0     C66173   6.152   8.913   5.665 -0.1980 -0.4242  1.0929
  491MOL0     O66174   6.255   9.007   5.693  0.2848 -0.2428 -0.3807
  491MOL0     C66175   6.371   8.979   5.632  0.2074  0.8430 -0.6432
  491MOL0     C66176   6.393   8.895   5.520  0.5810  0.3441  0.5180
  491MOL0     C66177   6.514   8.879   5.465 -0.5981 -0.4202 -0.4444
  491MOL0     C66178   6.626   8.961   5.511  0.0533 -0.9822  0.1321
  491MOL0     C66179   6.762   8.931   5.467 -0.7720 -0.0803  0.0275
  491MOL0     O66180   6.870   8.976   5.546 -0.0235 -0.3539  0.6090
  491MOL0     C66181   6.999   8.987   5.495 -0.4654 -0.5198 -0.2278
  491MOL0     C66182   7.035   9.020   5.367 -0.7422 -0.0476 -0.0683
  491MOL0     C66183   7.165   9.052   5.327  0.0336 -0.0368 -0.6240
  491MOL0     C66184   7.269   9.052   5.412  0.1922 -0.5483  0.2918
  491MOL0     O66185   7.403   9.075   5.381 -0.1794 -0.5310  0.0249
  491MOL0     C66186   7.456   9.021   5.265  0.7625 -0.7882 -0.2852
  491MOL0     C66187   7.590   9.084   5.244  0.7837 -0.2906 -0.0894
  491MOL0     C66188   7.683   9.001   5.160 -0.2442 -0.2168 -0.8878
  491MOL0     C66189   7.834   9.043   5.169 -0.0111 -0.2624  0.1144
  491MOL0     C66190   7.905   8.959   5.061 -0.7507 -0.0095  0.7092
  491MOL0     C66191   8.058   8.986   5.067  0.6958  0.4226  1.2460
  491MOL0     C66192   8.127   8.908   4.951  0.2958 -0.7220 -0.5118
  491MOL0     C66193   8.280   8.927   4.949  0.8257 -0.8369 -0.2185
  491MOL0    Cl66194   8.326   9.095   4.900 -0.2390  0.5730 -0.5196
  491MOL0     C66195   7.240   9.030   5.546  0.1075  0.5893 -0.6838
  491MOL0     C66196   7.108   8.997   5.594 -0.0867  0.6769  0.1295
  491MOL0     O66197   6.776   8.872   5.365  0.1455  0.8198  0.2026
  491MOL0     C66198   6.604   9.054   5.619  0.2265  0.0685  0.3212
  491MOL0     C66199   6.478   9.060   5.681 -0.1436  0.3112  0.1139
  491MOL0     N66200   5.823   8.758   5.902  0.8009  0.4973 -0.7541
  491MOL0     N66201   5.705   8.717   5.955 -0.3669 -1.0760 -0.3535
  491MOL0     C66202   4.942   8.652   6.786 -0.6049 -1.2187 -0.7622
  491MOL0     C66203   4.814   8.698   6.773 -0.6677  0.0252 -0.6089
  491MOL0     C66204   4.413   8.832   6.679  0.2821 -0.3689 -0.3370
  491MOL0     C66205   4.335   8.740   6.612 -0.3421 -0.2377 -0.0892
  491MOL0     C66206   4.201   8.754   6.589 -0.3974 -0.3888  0.2708
  491MOL0     C66207   4.133   8.867   6.647 -0.2840 -0.6461 -0.3118
  491MOL0     O66208   3.998   8.895   6.651  0.4347  0.2200  0.5198
  491MOL0     C66209   3.911   8.820   6.561  0.1058 -0.2885  0.2078
  491MOL0     C66210   3.770   8.853   6.600 -0.1548  0.1679  0.0897
  491MOL0     C66211   3.736   9.000   6.605  0.3775  0.1349  0.4829
  491MOL0     C66212   3.623   9.043   6.507  0.1880 -0.8432  0.1106
  491MOL0     C66213   3.487   9.009   6.554 -0.5372  0.7607  0.0930
  491MOL0     C66214   3.376   8.977   6.591  0.7730  0.0071 -0.5415
  491MOL0     C66215   4.210   8.964   6.719 -0.2496  0.5725  0.4615
  491MOL0     C66216   4.353   8.945   6.729  0.1997 -0.5354  0.8770
  491MOL0     C66217   4.420   9.050   6.804 -1.0631  0.0953  0.1969
  491MOL0     H66218   4.708   8.467   6.540  1.8062 -1.2059 -0.8195
  491MOL0     H66219   4.935   8.403   6.558  2.9040  2.1197 -0.7080
  491MOL0     H66220   5.197   8.345   6.815  1.3663  0.4532 -1.3957
  491MOL0     H66221   5.043   8.316   6.743 -1.1287  2.4945  3.0095
  491MOL0     H66222   5.141   8.299   6.515 -1.3083  2.7964  0.2631
  491MOL0     H66223   5.240   8.203   6.619 -1.3216 -0.0265 -0.1221
  491MOL0     H66224   5.399   8.387   6.653 -0.1201 -1.2060 -0.4174
  491MOL0     H66225   5.317   8.481   6.528  2.6281  2.4704 -0.5567
  491MOL0     H66226   5.441   8.200   6.499 -1.5787  0.1329 -0.0037
  491MOL0     H66227   5.350   8.287   6.375 -1.5767  3.0310  0.5431
  491MOL0     H66228   5.606   8.402   6.500 -0.3780 -0.5922  0.7052
  491MOL0     H66229   5.621   8.274   6.372  0.0279  0.8814 -1.1179
  491MOL0     H66230   5.483   8.404   6.219  1.5606  0.4899 -0.5263
  491MOL0     H66231   5.466   8.530   6.344 -1.0383  0.7938 -1.9319
  491MOL0     H66232   5.692   8.465   6.141  0.5869  0.6814 -0.9696
  491MOL0     H66233   5.751   8.529   6.288  2.0116  3.9495 -4.5116
  491MOL0     H66234   5.539   8.668   6.137  0.3406 -3.1511 -1.1993
  491MOL0     H66235   5.640   8.736   6.271 -2.7296  1.9946 -1.7414
  491MOL0     H66236   5.920   8.709   6.215 -3.0396 -0.2665  1.9815
  491MOL0     H66237   6.132   8.785   6.075 -1.1062  1.7709  1.3855
  491MOL0     H66238   6.101   8.698   5.914 -1.8981 -2.5554  2.3638
  491MOL0     H66239   6.046   8.986   5.982 -0.8256 -0.1468 -0.0773
  491MOL0     H66240   6.194   8.936   5.914 -0.2945  2.0385 -1.0259
  491MOL0     H66241   6.002   9.025   5.771 -2.3817 -0.8935  0.9594
  491MOL0     H66242   5.958   8.859   5.746  0.9645 -2.5359  1.3268
  491MOL0     H66243   6.119   8.947   5.566 -1.5693  0.0394  1.6857
  491MOL0     H66244   6.196   8.813   5.656 -1.9678 -1.2643  1.2846
  491MOL0     H66245   6.310   8.858   5.461  2.2873 -1.7391 -0.6965
  491MOL0     H66246   6.516   8.827   5.369 -3.0239  0.5025 -1.0686
  491MOL0     H66247   6.959   9.023   5.289 -0.1581  2.2804 -0.6242
  491MOL0     H66248   7.183   9.084   5.225  0.0053  1.7996 -0.0849
  491MOL0     H66249   7.464   8.913   5.279 -0.7714 -0.6269  2.6697
  491MOL0     H66250   7.394   9.040   5.177 -0.0420 -2.1827 -0.0502
  491MOL0     H66251   7.580   9.184   5.200 -0.4765 -0.2788  0.1982
  491MOL0     H66252   7.639   9.097   5.341  0.5351 -0.2902  0.0357
  491MOL0     H66253   7.685   8.895   5.186 -1.0263  0.6920  3.7079
  491MOL0     H66254   7.658   9.019   5.055  1.0919  0.4783 -1.1075
  491MOL0     H66255   7.892   9.020   5.259  2.0498 -0.2128 -1.1509
  491MOL0     H66256   7.843   9.151   5.152  0.1778 -0.7436 -3.7051
  491MOL0     H66257   7.870   8.984   4.961 -1.2525  0.4253  0.9829
  491MOL0     H66258   7.880   8.853   5.073  0.8540 -0.6312 -1.0464
  491MOL0     H66259   8.076   9.093   5.055  0.3548  0.2678 -1.1401
  491MOL0     H66260   8.098   8.948   5.162 -0.8927 -0.3441  1.6561
  491MOL0     H66261   8.085   8.929   4.852 -0.0481 -1.0696 -0.4412
  491MOL0     H66262   8.104   8.801   4.961  1.8220 -0.8883  2.1420
  491MOL0     H66263   8.322   8.919   5.050  3.0300  3.0732 -0.6424
  491MOL0     H66264   8.308   8.846   4.882 -3.2828 -2.9334  0.2832
  491MOL0     H66265   7.313   9.047   5.625 -0.5692 -1.9155  0.6004
  491MOL0     H66266   7.092   8.999   5.701 -0.4897  0.1323  0.0818
  491MOL0     H66267   6.687   9.107   5.664 -0.5047 -0.4541  2.3838
  491MOL0     H66268   6.474   9.132   5.762  1.7166  0.1186  0.4124
  491MOL0     H66269   5.012   8.708   6.846 -0.6203 -1.0350 -0.9148
  491MOL0     H66270   4.792   8.783   6.836 -1.9143 -0.3804 -0.4535
  491MOL0     H66271   4.369   8.646   6.570 -0.6395 -1.3972  2.1096
  491MOL0     H66272   4.147   8.680   6.531  0.0784 -0.5834  0.0712
  491MOL0     H66273   3.933   8.714   6.579 -1.5776 -0.8917 -0.9484
  491MOL0     H66274   3.925   8.847   6.456  1.7341 -0.7239  0.2910
  491MOL0     H66275   3.743   8.813   6.698  0.2729 -0.5689 -0.0909
  491MOL0     H66276   3.705   8.804   6.526 -0.1096 -0.8167  0.6862
  491MOL0     H66277   3.829   9.052   6.579  1.4419 -1.1810  1.4889
  491MOL0     H66278   3.711   9.031   6.707  2.8549  3.3566  0.2841
  491MOL0     H66279   3.622   9.153   6.503 -1.2794 -0.8531 -0.7214
  491MOL0     H66280   3.633   9.001   6.407  0.4726 -0.8816  0.1557
  491MOL0     H66281   3.274   8.957   6.616  1.1708  1.0462  2.3405
  491MOL0     H66282   4.154   9.051   6.752  0.1071  0.9760  0.0282
  491MOL0     H66283   4.490   9.099   6.735  0.8825 -1.5444  0.8795
  491MOL0     H66284   4.354   9.115   6.862 -1.2186  0.8723 -0.8271
  491MOL0     H66285   4.476   8.983   6.871 -1.8703 -1.7426 -0.8731
  492MOL0     O66286  11.011  11.301   2.851  0.6233  0.1274  0.0949
  492MOL0     C66287  10.959  11.334   2.744 -0.1459  0.8786 -0.3529
  492MOL0     O66288  11.028  11.369   2.629  0.3430  0.9400 -0.5757
  492MOL0     C66289  11.166  11.347   2.620  1.2318  0.2236 -0.3433
  492MOL0     C66290  11.231  11.231   2.660  0.1634  0.4910 -0.3046
  492MOL0     C66291  11.361  11.209   2.639  0.6919 -0.2833  0.4667
  492MOL0     C66292  11.454  11.299   2.581 -0.0324  0.2560  0.0750
  492MOL0     O66293  11.583  11.282   2.553 -0.2049  0.1267 -0.0911
  492MOL0     C66294  11.634  11.147   2.553  0.2570  0.2204  1.1152
  492MOL0     C66295  11.772  11.143   2.489  0.0269 -0.8110  0.3195
  492MOL0     C66296  11.821  10.999   2.445  0.1222 -0.6395 -0.3478
  492MOL0     C66297  11.974  10.989   2.432 -0.8848  0.9287 -0.2727
  492MOL0     C66298  12.040  10.851   2.426  0.9278 -0.9243  0.0876
  492MOL0     C66299  11.991  10.785   2.294 -0.1893  1.2491  0.8736
  492MOL0     C66300  12.051  10.640   2.268 -0.1756  1.0559 -0.2389
  492MOL0     C66301  12.187  10.650   2.211 -0.6317  0.2385 -0.8098
  492MOL0     N66302  12.254  10.517   2.194 -0.0904 -0.0894  0.6675
  492MOL0     C66303  12.208  10.424   2.101  0.1397 -0.7150 -0.7977
  492MOL0     C66304  12.300  10.327   2.103  0.2653  0.5989  0.1020
  492MOL0     C66305  12.280  10.195   2.028 -0.2095  0.3091 -0.0790
  492MOL0     C66306  12.274  10.203   1.871 -1.2503 -0.2961 -0.2693
  492MOL0     C66307  12.384  10.284   1.807  0.5960 -0.2458  0.1858
  492MOL0     C66308  12.531  10.251   1.856  0.0334  0.1371 -0.4830
  492MOL0     O66309  12.563  10.116   1.807  0.6359  0.2604  0.4529
  492MOL0     C66310  12.695  10.076   1.813  0.2093  0.2668 -0.2660
  492MOL0     C66311  12.729   9.998   1.706 -0.0518 -0.7359 -0.0005
  492MOL0     C66312  12.855   9.934   1.713 -0.3004  0.9508  0.3214
  492MOL0     C66313  12.959   9.965   1.814  0.2295 -0.1037 -0.2091
  492MOL0     C66314  13.099   9.911   1.800  0.0159 -0.3534  0.5353
  492MOL0     O66315  13.114   9.826   1.691  0.5435 -0.1174 -0.5204
  492MOL0     C66316  13.216   9.737   1.681  1.2926  0.5624 -0.9668
  492MOL0     C66317  13.294   9.684   1.783  0.2899 -0.3503  0.0485
  492MOL0     C66318  13.404   9.614   1.756  0.1590 -0.1092 -0.4667
  492MOL0     C66319  13.440   9.589   1.621 -0.7452  0.9977 -0.6062
  492MOL0     O66320  13.570   9.543   1.598 -0.1336  0.4056  0.2092
  492MOL0     C66321  13.620   9.520   1.464 -0.3586  0.3418 -0.4673
  492MOL0     C66322  13.733   9.429   1.500 -0.0216  0.7049  0.3262
  492MOL0     C66323  13.800   9.359   1.377  0.8909  0.1255  0.0326
  492MOL0     C66324  13.861   9.454   1.271  0.2515  0.2215 -0.5092
  492MOL0     C66325  13.777   9.482   1.148  0.3304 -1.1482  0.2767
  492MOL0     C66326  13.771   9.361   1.054  0.2175 -0.0004 -0.0494
  492MOL0     C66327  13.675   9.391   0.930  0.1456 -0.6222  0.3996
  492MOL0     C66328  13.712   9.526   0.850 -0.3416  0.2413  0.3380
  492MOL0    Cl66329  13.882   9.529   0.824  0.8066 -0.2309  0.0703
  492MOL0     C66330  13.363   9.639   1.522  0.2599 -0.0648  0.3563
  492MOL0     C66331  13.250   9.708   1.554  0.5365  0.5143  0.7185
  492MOL0     O66332  13.171   9.922   1.898  0.1305 -0.6058 -0.7608
  492MOL0     C66333  12.914  10.031   1.927  0.5758 -0.6894 -0.2441
  492MOL0     C66334  12.785  10.093   1.921 -0.3846  0.7668 -0.2843
  492MOL0     N66335  12.393  10.357   2.197 -0.1303  0.6324 -0.1256
  492MOL0     N66336  12.358  10.473   2.254 -0.6840 -0.0008  0.6512
  492MOL0     C66337  11.386  11.417   2.543 -1.2842 -0.1859 -0.9507
  492MOL0     C66338  11.244  11.436   2.547  0.1920 -0.1306  0.0275
  492MOL0     C66339  10.810  11.328   2.750 -0.8064  1.0243  0.8075
  492MOL0     C66340  10.742  11.302   2.877 -0.0179 -0.3959  0.3141
  492MOL0     C66341  10.604  11.314   2.880  0.5969  0.9806  0.1716
  492MOL0     C66342  10.523  11.294   2.761 -0.0115 -0.2079 -0.0926
  492MOL0     O66343  10.383  11.279   2.760  0.3564 -0.2202 -0.1843
  492MOL0     C66344  10.318  11.246   2.886  0.2227 -0.8098  0.8944
  492MOL0     C66345  10.156  11.247   2.881 -0.0277 -0.1573  0.2013
  492MOL0     C66346  10.085  11.118   2.916 -0.8450 -0.3557 -0.7559
  492MOL0     C66347   9.933  11.146   2.915 -0.3424 -0.9143  0.0340
  492MOL0     C66348   9.886  11.192   2.781 -0.9090 -0.6000 -0.0448
  492MOL0     C66349   9.854  11.247   2.676 -0.1452 -0.2124 -0.1933
  492MOL0     C66350  10.594  11.308   2.642  0.1450  0.3533  0.0952
  492MOL0     C66351  10.732  11.345   2.631 -0.1373  0.3620  0.7721
  492MOL0     C66352  10.774  11.382   2.485 -0.0257 -0.0491  0.0899
  492MOL0     H66353  11.185  11.161   2.729 -2.1362  0.0619 -2.1152
  492MOL0     H66354  11.403  11.127   2.697  1.8177  2.8036  4.4942
  492MOL0     H66355  11.643  11.122   2.659 -2.3858  1.4591  1.7068
  492MOL0     H66356  11.568  11.081   2.495  1.4649 -0.5336  0.5539
  492MOL0     H66357  11.835  11.198   2.560 -1.0282  2.6216 -1.1864
  492MOL0     H66358  11.759  11.205   2.400 -4.1097  0.7306  1.7336
  492MOL0     H66359  11.763  10.961   2.361  0.3205 -2.4950  0.2946
  492MOL0     H66360  11.781  10.928   2.519 -0.2563 -1.1490 -1.0311
  492MOL0     H66361  12.011  11.056   2.355 -0.3601  2.8641  1.5655
  492MOL0     H66362  12.012  11.038   2.522 -0.6174  2.1577 -1.0398
  492MOL0     H66363  12.149  10.857   2.425  0.8998 -0.2839 -0.9232
  492MOL0     H66364  12.000  10.794   2.510 -0.6149 -0.1013 -0.0487
  492MOL0     H66365  11.883  10.769   2.295 -0.4318  2.0447 -2.2935
  492MOL0     H66366  12.006  10.835   2.199 -3.2377  2.0688  0.7261
  492MOL0     H66367  11.994  10.594   2.187  1.7596  0.4741 -1.3607
  492MOL0     H66368  12.055  10.568   2.350  1.6390  2.0356  0.5943
  492MOL0     H66369  12.189  10.697   2.112 -0.7465  4.8017  1.1255
  492MOL0     H66370  12.257  10.700   2.279 -1.7321 -1.0756  1.4094
  492MOL0     H66371  12.123  10.434   2.033 -0.5921  1.1721  0.3108
  492MOL0     H66372  12.368  10.134   2.053 -0.1147  1.2691  2.1495
  492MOL0     H66373  12.188  10.143   2.055  0.0231 -0.8489 -1.3980
  492MOL0     H66374  12.287  10.104   1.826  0.0938  1.0530 -3.1553
  492MOL0     H66375  12.180  10.246   1.834 -1.0169  0.7083  0.2677
  492MOL0     H66376  12.356  10.387   1.828  0.4602 -0.0505 -0.8991
  492MOL0     H66377  12.385  10.262   1.700  0.8442  0.2940  0.0775
  492MOL0     H66378  12.529  10.247   1.966  0.4791 -0.2248 -0.4854
  492MOL0     H66379  12.604  10.319   1.812  1.5052 -1.1382 -0.1032
  492MOL0     H66380  12.661   9.970   1.626 -1.7653 -3.0235  2.1105
  492MOL0     H66381  12.883   9.868   1.631  0.3564  2.9247 -1.1409
  492MOL0     H66382  13.271   9.713   1.885 -0.6085  2.1520 -0.7970
  492MOL0     H66383  13.460   9.574   1.840 -2.3917  0.5133  1.6435
  492MOL0     H66384  13.548   9.474   1.395  2.3739 -2.6108 -1.6161
  492MOL0     H66385  13.664   9.610   1.420 -1.7059  0.7684 -1.0003
  492MOL0     H66386  13.812   9.485   1.551  3.2452 -1.1444 -2.2246
  492MOL0     H66387  13.701   9.351   1.569  0.3697  2.2004  2.2718
  492MOL0     H66388  13.878   9.308   1.435 -0.3761 -0.2161  1.5001
  492MOL0     H66389  13.738   9.286   1.324  1.3103 -0.4016  0.2546
  492MOL0     H66390  13.945   9.403   1.225  0.9981  2.2210 -1.5208
  492MOL0     H66391  13.908   9.539   1.321  0.5914 -0.9708  1.2751
  492MOL0     H66392  13.829   9.559   1.089 -0.7726 -2.3607 -2.4222
  492MOL0     H66393  13.676   9.512   1.176  1.0584  0.1902  1.6220
  492MOL0     H66394  13.874   9.347   1.019 -0.5669  2.2946 -3.9013
  492MOL0     H66395  13.735   9.273   1.107 -3.6036  0.6974 -1.2249
  492MOL0     H66396  13.573   9.409   0.967 -0.2819  0.0758 -1.0398
  492MOL0     H66397  13.672   9.311   0.856  3.9981  0.6956 -1.4295
  492MOL0     H66398  13.657   9.538   0.757 -2.7473  0.4488  1.7066
  492MOL0     H66399  13.688   9.611   0.914  3.3958  0.2518  1.9941
  492MOL0     H66400  13.402   9.623   1.422  1.3741  0.0904  0.7504
  492MOL0     H66401  13.185   9.748   1.477  1.6050 -0.4385 -0.7049
  492MOL0     H66402  12.970  10.041   2.019  1.4410 -1.0162 -0.7217
  492MOL0     H66403  12.745  10.134   2.013  1.2647  0.7592  0.4602
  492MOL0     H66404  11.446  11.498   2.502  0.4943  1.6407  4.3879
  492MOL0     H66405  11.201  11.523   2.498  1.1901 -0.3828 -1.3615
  492MOL0     H66406  10.791  11.286   2.972 -0.0903 -1.6869  0.1425
  492MOL0     H66407  10.565  11.312   2.981 -0.7846  1.5260 -0.3267
  492MOL0     H66408  10.353  11.320   2.958  1.0119 -1.9974  1.7747
  492MOL0     H66409  10.355  11.151   2.927  0.2918 -1.0111  0.3689
  492MOL0     H66410  10.136  11.289   2.781  2.2139  0.8623  0.1215
  492MOL0     H66411  10.114  11.329   2.940 -0.7097 -0.9768  0.8690
  492MOL0     H66412  10.119  11.091   3.016  1.9475  3.4790 -0.4251
  492MOL0     H66413  10.104  11.039   2.842 -1.1497 -0.5683 -0.6053
  492MOL0     H66414   9.886  11.051   2.942 -0.7230 -0.6003  0.4871
  492MOL0     H66415   9.904  11.212   2.996  1.3824  0.0336 -0.0827
  492MOL0     H66416   9.822  11.281   2.580 -0.4373  0.4512  0.1301
  492MOL0     H66417  10.542  11.314   2.546  1.1714  1.8854 -0.4119
  492MOL0     H66418  10.686  11.412   2.426 -0.1902 -1.1207 -0.2292
  492MOL0     H66419  10.846  11.464   2.490  0.2718 -0.3771  2.3596
  492MOL0     H66420  10.822  11.295   2.438 -0.2361  0.0055 -0.2287
  493MOL0     O66421   0.011   7.530   0.044  0.2482 -0.7504 -0.1853
  493MOL0     C66422  -0.049   7.621  -0.018 -0.2491 -0.4233 -1.1693
  493MOL0     O66423  -0.010   7.663  -0.138  0.2915 -0.0966  0.1602
  493MOL0     C66424   0.103   7.636  -0.200 -0.4211 -0.2525 -0.1883
  493MOL0     C66425   0.146   7.499  -0.217 -1.0334 -0.3250  0.4530
  493MOL0     C66426   0.259   7.477  -0.299 -0.9109 -1.7412  0.1231
  493MOL0     C66427   0.336   7.579  -0.356  0.8973 -0.6351 -0.2141
  493MOL0     O66428   0.451   7.556  -0.420  0.0646  0.2381  0.1736
  493MOL0     C66429   0.530   7.672  -0.458 -0.7400 -0.4157 -0.9764
  493MOL0     C66430   0.487   7.702  -0.598  0.2533  0.1762 -0.1799
  493MOL0     C66431   0.588   7.772  -0.691 -0.0380 -0.5104 -0.1975
  493MOL0     C66432   0.630   7.919  -0.657  0.4629  0.0350  1.1532
  493MOL0     C66433   0.702   7.991  -0.774 -0.1549  1.2386  0.2202
  493MOL0     C66434   0.738   8.139  -0.752 -0.3566 -0.5249 -0.6763
  493MOL0     C66435   0.871   8.165  -0.826 -0.2119  0.1807  0.4856
  493MOL0     C66436   0.907   8.314  -0.814  0.0359  0.8307  0.2397
  493MOL0     N66437   1.029   8.348  -0.880 -0.6185  0.0804 -0.1116
  493MOL0     C66438   1.038   8.366  -1.021 -0.4224  0.5439 -0.0889
  493MOL0     C66439   1.172   8.393  -1.043  0.8972 -0.4455 -0.5547
  493MOL0     C66440   1.241   8.417  -1.176 -0.6561  0.2583  0.6975
  493MOL0     C66441   1.202   8.557  -1.208  0.0275 -0.7749  0.4641
  493MOL0     C66442   1.242   8.597  -1.350  0.6585  0.1050  0.0718
  493MOL0     C66443   1.383   8.564  -1.397 -0.5007 -0.2002  0.1002
  493MOL0     O66444   1.389   8.629  -1.521  0.0575 -0.4597 -0.1213
  493MOL0     C66445   1.506   8.604  -1.590 -0.4005 -0.4047 -0.8547
  493MOL0     C66446   1.626   8.559  -1.527  0.3030  0.3221  0.5665
  493MOL0     C66447   1.740   8.556  -1.613  0.3476 -0.5177 -1.3214
  493MOL0     C66448   1.745   8.595  -1.749 -0.0944 -0.1393  0.2082
  493MOL0     C66449   1.873   8.594  -1.820 -0.1884  0.0552  0.4109
  493MOL0     O66450   1.886   8.676  -1.932 -0.9952  0.8186  0.9636
  493MOL0     C66451   2.005   8.699  -1.999 -0.2704  0.6543 -0.1270
  493MOL0     C66452   2.061   8.828  -2.014  1.3147  1.0090 -0.0391
  493MOL0     C66453   2.175   8.862  -2.089 -0.1915 -0.1168 -0.5847
  493MOL0     C66454   2.241   8.756  -2.155 -0.3557  0.0843  0.2763
  493MOL0     O66455   2.354   8.787  -2.229  0.5443  0.1917 -0.4798
  493MOL0     C66456   2.482   8.740  -2.173  0.4873  0.5180 -0.6022
  493MOL0     C66457   2.586   8.845  -2.192 -1.1158 -0.2198  0.1863
  493MOL0     C66458   2.666   8.845  -2.331 -0.5548  0.4809  0.9084
  493MOL0     C66459   2.756   8.727  -2.342 -0.5083 -0.2160  0.0403
  493MOL0     C66460   2.853   8.737  -2.460 -0.1598  0.4504  0.0899
  493MOL0     C66461   2.910   8.603  -2.518 -0.3327  0.3788 -0.7171
  493MOL0     C66462   3.034   8.631  -2.609 -0.4098  0.1774 -0.7252
  493MOL0     C66463   3.105   8.519  -2.671 -0.2791  0.7083  0.6299
  493MOL0    Cl66464   3.254   8.560  -2.749  0.2003  0.3987  0.3015
  493MOL0     C66465   2.194   8.633  -2.138 -0.4715 -0.0682  0.0468
  493MOL0     C66466   2.080   8.600  -2.063  0.4162 -0.3033  0.5545
  493MOL0     O66467   1.962   8.533  -1.771 -0.4948 -0.0250  1.2123
  493MOL0     C66468   1.620   8.653  -1.801 -0.4289 -1.0998  0.6919
  493MOL0     C66469   1.510   8.654  -1.719 -0.2867  0.3622 -0.2220
  493MOL0     N66470   1.244   8.382  -0.921 -0.1057  0.6454 -0.9363
  493MOL0     N66471   1.150   8.355  -0.827 -0.1201 -0.6564 -0.0132
  493MOL0     C66472   0.284   7.710  -0.351  0.0895  0.1125 -0.0971
  493MOL0     C66473   0.171   7.731  -0.276  0.7994  0.4553  0.8662
  493MOL0     C66474  -0.164   7.696   0.049  0.1985  0.8060 -0.5650
  493MOL0     C66475  -0.186   7.834   0.027  0.9066 -0.0646 -0.1222
  493MOL0     C66476  -0.285   7.904   0.093  0.1211 -0.2775 -0.1308
  493MOL0     C66477  -0.361   7.849   0.196 -0.4502 -0.2087  0.1426
  493MOL0     O66478  -0.458   7.905   0.278 -0.1196 -0.7431  0.2179
  493MOL0     C66479  -0.514   8.036   0.254  0.5149  0.5630  0.1819
  493MOL0     C66480  -0.459   8.133   0.365  0.8185  0.7356  0.2306
  493MOL0     C66481  -0.325   8.193   0.328  1.0818  0.0378  0.2346
  493MOL0     C66482  -0.271   8.261   0.455 -0.0739 -0.3318  0.9118
  493MOL0     C66483  -0.321   8.393   0.475  0.8295 -0.6959  0.6855
  493MOL0     C66484  -0.365   8.507   0.483 -0.0597 -0.3803 -0.3818
  493MOL0     C66485  -0.337   7.712   0.219  0.5884 -0.3881 -0.8677
  493MOL0     C66486  -0.252   7.631   0.148 -0.0410 -0.2447  0.6926
  493MOL0     C66487  -0.256   7.479   0.184 -0.0982 -0.3218  0.2028
  493MOL0     H66488   0.104   7.410  -0.172 -3.8143  1.2378  1.2219
  493MOL0     H66489   0.300   7.381  -0.329  1.1374  0.0055 -3.3018
  493MOL0     H66490   0.528   7.755  -0.387 -1.7772 -0.0898 -1.3649
  493MOL0     H66491   0.632   7.632  -0.456  0.3144  2.1340 -0.2133
  493MOL0     H66492   0.398   7.765  -0.586 -1.9755 -2.5358 -1.1320
  493MOL0     H66493   0.449   7.617  -0.656 -2.1803  0.2218  1.2046
  493MOL0     H66494   0.542   7.771  -0.790  0.8855 -2.6662 -0.6800
  493MOL0     H66495   0.679   7.710  -0.695  0.0495 -0.5568  1.5223
  493MOL0     H66496   0.542   7.982  -0.640  0.8968  0.2536  2.6612
  493MOL0     H66497   0.698   7.915  -0.572 -1.0019 -0.6501  2.3481
  493MOL0     H66498   0.789   7.927  -0.790 -1.4923 -0.5124 -0.2986
  493MOL0     H66499   0.653   7.974  -0.870 -0.2353 -2.3349  0.7533
  493MOL0     H66500   0.669   8.211  -0.797 -0.2073 -1.3429 -2.2698
  493MOL0     H66501   0.753   8.166  -0.647  2.1610  2.2831 -1.5875
  493MOL0     H66502   0.874   8.153  -0.935 -0.0047  0.0096  0.5092
  493MOL0     H66503   0.948   8.104  -0.778 -1.5361 -1.1543  0.9943
  493MOL0     H66504   0.820   8.364  -0.859  0.4158 -0.1831 -1.7268
  493MOL0     H66505   0.915   8.337  -0.707 -1.7058  1.1664  0.3282
  493MOL0     H66506   0.953   8.351  -1.087 -0.1121 -2.1488  0.0253
  493MOL0     H66507   1.349   8.403  -1.165 -0.7379 -1.4476 -0.3612
  493MOL0     H66508   1.192   8.347  -1.243  0.7157  0.8539 -0.9806
  493MOL0     H66509   1.094   8.563  -1.193  0.1877 -2.3234  2.6511
  493MOL0     H66510   1.252   8.628  -1.141  0.7555  0.1329 -0.9849
  493MOL0     H66511   1.224   8.705  -1.352 -0.1271  0.0128  1.3400
  493MOL0     H66512   1.171   8.549  -1.419  0.0968  0.5254  0.3568
  493MOL0     H66513   1.402   8.458  -1.419  0.9125  0.7723 -4.2239
  493MOL0     H66514   1.453   8.612  -1.327  1.0466  1.7770 -2.6378
  493MOL0     H66515   1.634   8.526  -1.424 -3.8259 -0.1203  0.9224
  493MOL0     H66516   1.830   8.522  -1.563 -0.8295  0.6807  1.9285
  493MOL0     H66517   2.001   8.902  -1.961  1.9228 -0.4481  2.8986
  493MOL0     H66518   2.203   8.967  -2.094 -1.3249  0.1403 -2.4219
  493MOL0     H66519   2.466   8.724  -2.066  1.4786 -1.1060 -0.6470
  493MOL0     H66520   2.507   8.642  -2.215  0.0801  0.1388  0.0185
  493MOL0     H66521   2.535   8.942  -2.200  0.5543  0.5806 -1.7106
  493MOL0     H66522   2.664   8.840  -2.115  2.7616  2.7774 -3.0751
  493MOL0     H66523   2.580   8.840  -2.398 -1.1100 -2.0661  1.6911
  493MOL0     H66524   2.729   8.934  -2.337  1.9554 -1.0976  2.0068
  493MOL0     H66525   2.700   8.635  -2.356 -0.0006 -0.8731  2.0535
  493MOL0     H66526   2.818   8.705  -2.254 -0.9197 -2.6212 -0.2072
  493MOL0     H66527   2.948   8.775  -2.423  0.9389 -2.4399  0.5264
  493MOL0     H66528   2.820   8.800  -2.543 -0.1724 -2.3082 -2.1345
  493MOL0     H66529   2.943   8.533  -2.440  0.1485 -0.0046 -1.2528
  493MOL0     H66530   2.829   8.555  -2.574  1.1637  0.9041 -3.5315
  493MOL0     H66531   3.097   8.702  -2.554 -3.8643  1.4885  1.9214
  493MOL0     H66532   2.992   8.675  -2.699  2.2522 -1.8144 -3.1243
  493MOL0     H66533   3.122   8.446  -2.591  1.5899  0.1437 -0.2138
  493MOL0     H66534   3.040   8.465  -2.741 -0.2340 -1.7835  2.3730
  493MOL0     H66535   2.259   8.560  -2.185 -0.7241  0.3374 -0.9560
  493MOL0     H66536   2.054   8.496  -2.048  0.2491  0.0059  2.7417
  493MOL0     H66537   1.618   8.700  -1.899 -1.5274 -1.1975  0.6487
  493MOL0     H66538   1.416   8.692  -1.759  0.0321  1.1436 -0.2322
  493MOL0     H66539   0.319   7.801  -0.399  1.0242 -0.9126 -1.4188
  493MOL0     H66540   0.133   7.833  -0.280  2.9115  1.3022  0.4295
  493MOL0     H66541  -0.125   7.889  -0.044  1.0954 -1.4788 -1.1048
  493MOL0     H66542  -0.290   8.007   0.057 -1.7026 -0.5373 -0.7657
  493MOL0     H66543  -0.623   8.030   0.266  0.3305  1.6893 -0.7889
  493MOL0     H66544  -0.494   8.074   0.154  3.6549 -0.9333  0.1487
  493MOL0     H66545  -0.439   8.081   0.459 -2.5953 -0.2727  0.5410
  493MOL0     H66546  -0.534   8.210   0.387  0.8036  0.4566  1.2201
  493MOL0     H66547  -0.330   8.264   0.245  3.3029 -0.8771 -0.7486
  493MOL0     H66548  -0.245   8.125   0.298  0.7183 -0.9531  1.4291
  493MOL0     H66549  -0.295   8.208   0.547 -3.3211 -4.1976 -1.8193
  493MOL0     H66550  -0.163   8.263   0.435 -0.3991 -2.3317 -1.5769
  493MOL0     H66551  -0.388   8.612   0.484 -2.4474 -0.8431 -0.3804
  493MOL0     H66552  -0.398   7.677   0.301  1.2156  1.8442  0.6556
  493MOL0     H66553  -0.358   7.442   0.194 -0.1421  0.0020  1.0465
  493MOL0     H66554  -0.210   7.411   0.112  2.5824 -1.1112  2.4456
  493MOL0     H66555  -0.208   7.468   0.282  0.7629  1.4791  0.0370
  494MOL0     O66556   4.296   2.755   5.714 -0.4303  0.1292 -0.7606
  494MOL0     C66557   4.308   2.638   5.679  0.1237 -0.6497 -0.5869
  494MOL0     O66558   4.405   2.590   5.593 -0.1444  1.0753 -0.3827
  494MOL0     C66559   4.485   2.671   5.525  0.4471  0.2244  0.3505
  494MOL0     C66560   4.439   2.718   5.400 -1.3110  0.3863  0.4157
  494MOL0     C66561   4.535   2.796   5.324  0.5551  0.2717 -0.5083
  494MOL0     C66562   4.674   2.805   5.360  0.2538 -0.2088  0.3460
  494MOL0     O66563   4.776   2.855   5.272  0.3189 -0.5550  0.2918
  494MOL0     C66564   4.755   2.985   5.223  0.2991  1.0192 -0.6752
  494MOL0     C66565   4.871   3.035   5.135 -0.3195  0.4667 -0.4286
  494MOL0     C66566   4.993   3.067   5.224 -1.1363  0.1692 -0.4320
  494MOL0     C66567   5.105   2.967   5.226  0.0009 -0.1946  0.3502
  494MOL0     C66568   5.218   3.018   5.314 -0.7445 -0.0510 -0.0339
  494MOL0     C66569   5.307   3.125   5.252  0.5611  0.3321  0.8914
  494MOL0     C66570   5.445   3.143   5.316 -0.4451 -0.3176 -0.2681
  494MOL0     C66571   5.504   3.277   5.274  0.4998 -0.0722  0.4311
  494MOL0     N66572   5.635   3.293   5.332 -0.3459 -1.0297 -0.1141
  494MOL0     C66573   5.657   3.351   5.455  0.1462  0.6116  0.5391
  494MOL0     C66574   5.789   3.330   5.473 -0.4020 -0.1002 -0.6921
  494MOL0     C66575   5.886   3.382   5.579  0.2595  0.0009 -0.0574
  494MOL0     C66576   5.932   3.526   5.534 -0.6391  0.1020 -0.3634
  494MOL0     C66577   6.053   3.575   5.613 -0.5036  0.4587  0.4176
  494MOL0     C66578   6.091   3.725   5.578  0.6178  0.6827  1.3217
  494MOL0     O66579   6.098   3.806   5.691 -0.2344  0.0392  0.0427
  494MOL0     C66580   6.201   3.784   5.780  0.2888  0.1992  0.1949
  494MOL0     C66581   6.169   3.723   5.897 -0.0091  0.2289  0.0778
  494MOL0     C66582   6.263   3.685   5.995  0.2254 -0.4029  0.4445
  494MOL0     C66583   6.399   3.732   5.967  0.5445  0.4719 -0.4722
  494MOL0     C66584   6.506   3.726   6.070  0.3831 -0.1329 -0.2562
  494MOL0     O66585   6.622   3.776   6.038 -0.0562 -0.4411 -0.2139
  494MOL0     C66586   6.724   3.796   6.127 -0.7239  0.6108  0.1191
  494MOL0     C66587   6.846   3.824   6.067 -0.2157  1.4333  0.0356
  494MOL0     C66588   6.951   3.865   6.144  0.1228 -0.4150 -0.6526
  494MOL0     C66589   6.944   3.881   6.284 -0.2463 -0.2907  1.3921
  494MOL0     O66590   7.048   3.920   6.361  0.1327  1.0715 -0.5530
  494MOL0     C66591   7.174   3.853   6.341  1.4787 -0.1582  0.8930
  494MOL0     C66592   7.289   3.888   6.435 -0.6244  0.0261 -0.6242
  494MOL0     C66593   7.293   4.034   6.459 -0.6136 -1.0345  0.6855
  494MOL0     C66594   7.383   4.078   6.569  0.0678  0.5297 -0.2460
  494MOL0     C66595   7.527   4.102   6.519  0.6116  0.0166 -0.9285
  494MOL0     C66596   7.564   4.238   6.458 -1.1512  0.5338 -0.0283
  494MOL0     C66597   7.712   4.252   6.464  0.1424 -0.0316  0.9939
  494MOL0     C66598   7.780   4.144   6.386  1.0969 -0.1264 -0.4351
  494MOL0    Cl66599   7.923   4.232   6.333 -0.2087 -0.3133  0.2664
  494MOL0     C66600   6.821   3.854   6.339  0.7170  0.3379 -0.3598
  494MOL0     C66601   6.709   3.817   6.265 -0.3471  0.5870  0.6202
  494MOL0     O66602   6.473   3.669   6.172 -0.3085  0.0823 -1.0737
  494MOL0     C66603   6.430   3.790   5.841 -0.3635 -0.0752 -0.8563
  494MOL0     C66604   6.331   3.812   5.747  0.2948  0.7621 -0.2202
  494MOL0     N66605   5.835   3.249   5.372 -0.4822  0.5030 -0.1888
  494MOL0     N66606   5.747   3.239   5.281  1.2449 -0.2351  0.6925
  494MOL0     C66607   4.709   2.764   5.492 -0.4304  0.3680  0.3548
  494MOL0     C66608   4.617   2.693   5.568 -0.0739  0.3246 -0.0011
  494MOL0     C66609   4.222   2.537   5.744 -0.7814  0.4898  0.6902
  494MOL0     C66610   4.175   2.440   5.664  0.1556  0.6944  0.4505
  494MOL0     C66611   4.083   2.338   5.697 -0.0860 -0.0868  0.9981
  494MOL0     C66612   4.037   2.335   5.824  0.2799  0.6145 -0.0492
  494MOL0     O66613   3.952   2.235   5.878  0.1056  0.0499  1.0927
  494MOL0     C66614   3.883   2.155   5.785  0.0294  0.1402  0.1791
  494MOL0     C66615   3.766   2.094   5.865  0.4313  0.4044  0.3789
  494MOL0     C66616   3.664   2.023   5.773  0.4334  0.1546  1.2027
  494MOL0     C66617   3.597   2.127   5.682 -0.7306  0.2506  0.0330
  494MOL0     C66618   3.486   2.074   5.620  0.4484 -0.3883  0.7885
  494MOL0     C66619   3.391   2.035   5.567  0.3964 -0.4951  0.5142
  494MOL0     C66620   4.078   2.434   5.913 -0.0251  0.5373  0.1932
  494MOL0     C66621   4.176   2.531   5.875 -0.4703 -1.0083  0.2799
  494MOL0     C66622   4.203   2.637   5.974 -0.6269  0.2820 -0.4646
  494MOL0     H66623   4.337   2.716   5.363 -0.1788 -0.4403 -3.0496
  494MOL0     H66624   4.508   2.844   5.231  0.2351  0.2572 -0.4248
  494MOL0     H66625   4.661   2.973   5.168 -1.1030 -0.2488  1.8254
  494MOL0     H66626   4.745   3.045   5.314  1.6937  0.7005 -0.2849
  494MOL0     H66627   4.843   3.134   5.096 -1.5209  1.0394  1.7341
  494MOL0     H66628   4.881   2.971   5.047 -3.5067 -1.1114  0.2209
  494MOL0     H66629   4.962   3.077   5.328  2.2537 -0.1677  0.7474
  494MOL0     H66630   5.030   3.164   5.189 -2.2255  0.1079 -1.8362
  494MOL0     H66631   5.074   2.883   5.289 -0.2384 -1.8196 -1.8401
  494MOL0     H66632   5.139   2.940   5.126 -3.6936  1.7064 -1.6361
  494MOL0     H66633   5.173   3.052   5.407 -1.2493 -1.6679  0.3580
  494MOL0     H66634   5.277   2.932   5.348 -0.9540  0.1966  0.9853
  494MOL0     H66635   5.326   3.084   5.152 -0.2044  0.7448  0.5699
  494MOL0     H66636   5.245   3.214   5.242 -1.5170 -1.0149  1.2535
  494MOL0     H66637   5.511   3.061   5.287 -2.7596 -1.6578 -2.1246
  494MOL0     H66638   5.429   3.135   5.424  2.8532 -1.1493  0.2656
  494MOL0     H66639   5.521   3.278   5.166  2.7114 -1.3411  0.7027
  494MOL0     H66640   5.427   3.346   5.309 -0.5780  0.3765 -2.6117
  494MOL0     H66641   5.582   3.402   5.514 -3.5734 -1.0550 -2.3577
  494MOL0     H66642   5.841   3.381   5.679  3.6387 -0.1412  1.6112
  494MOL0     H66643   5.971   3.313   5.578  0.4644  0.1303  2.2611
  494MOL0     H66644   5.956   3.520   5.427 -1.5487  0.1517 -0.5821
  494MOL0     H66645   5.847   3.593   5.544 -1.4875 -1.1695  1.6968
  494MOL0     H66646   6.136   3.508   5.587  0.7668  2.6361 -1.3999
  494MOL0     H66647   6.041   3.565   5.722  4.0271 -0.2162  1.0505
  494MOL0     H66648   6.009   3.764   5.516  1.1099 -0.1142  0.1228
  494MOL0     H66649   6.175   3.737   5.509 -0.7289  0.6242 -0.4131
  494MOL0     H66650   6.064   3.695   5.902 -0.4328  0.7574 -3.3950
  494MOL0     H66651   6.227   3.633   6.083 -2.3041 -0.0174 -0.2624
  494MOL0     H66652   6.854   3.814   5.959 -1.2735  1.8542 -0.0921
  494MOL0     H66653   7.042   3.896   6.095 -1.1166  2.2976 -1.4209
  494MOL0     H66654   7.169   3.744   6.330 -2.0822 -0.1012  0.9047
  494MOL0     H66655   7.214   3.898   6.249 -1.0024  0.6659  0.1333
  494MOL0     H66656   7.291   3.834   6.530 -1.1679  2.1375  0.6601
  494MOL0     H66657   7.386   3.862   6.391 -0.4825 -0.4685 -0.0279
  494MOL0     H66658   7.334   4.089   6.373  0.0921 -0.7418  1.2005
  494MOL0     H66659   7.191   4.072   6.473  0.3042  2.6192 -1.1365
  494MOL0     H66660   7.388   3.990   6.633  1.1850 -0.8697 -2.1411
  494MOL0     H66661   7.338   4.168   6.611  0.4537 -0.0307  1.4309
  494MOL0     H66662   7.551   4.027   6.444  2.8590  0.0058 -0.2700
  494MOL0     H66663   7.601   4.089   6.599  1.3444  1.3477 -1.3561
  494MOL0     H66664   7.533   4.253   6.354  0.7664 -0.9340 -0.8572
  494MOL0     H66665   7.519   4.314   6.522 -2.2741  0.8421 -1.1445
  494MOL0     H66666   7.739   4.250   6.570  1.5456 -0.5433  0.6514
  494MOL0     H66667   7.729   4.350   6.418  1.9094  0.2290  2.1031
  494MOL0     H66668   7.799   4.059   6.452  1.0457  0.7415  0.7217
  494MOL0     H66669   7.725   4.114   6.296  3.3932 -2.5886 -1.1708
  494MOL0     H66670   6.822   3.857   6.447  1.6144 -0.7217 -0.3212
  494MOL0     H66671   6.612   3.806   6.311 -0.0482  0.4864  1.2315
  494MOL0     H66672   6.533   3.805   5.811 -0.3009 -0.7327 -0.9780
  494MOL0     H66673   6.364   3.863   5.657  1.3953  0.4486 -0.0054
  494MOL0     H66674   4.809   2.777   5.531  0.4186 -1.1367 -1.1835
  494MOL0     H66675   4.647   2.646   5.661 -0.3204 -2.0364 -1.0328
  494MOL0     H66676   4.208   2.452   5.561  0.1763  2.3158  0.6190
  494MOL0     H66677   4.053   2.257   5.631  0.3885 -0.6553  1.4763
  494MOL0     H66678   3.963   2.089   5.749 -0.9745 -2.0023  1.6889
  494MOL0     H66679   3.845   2.210   5.698 -1.4531 -0.0267  0.6911
  494MOL0     H66680   3.713   2.159   5.936  0.0120 -1.0213  1.4201
  494MOL0     H66681   3.815   2.013   5.919 -0.8059 -0.5300  0.1673
  494MOL0     H66682   3.588   1.973   5.834  0.3114 -1.8151 -0.4552
  494MOL0     H66683   3.713   1.941   5.720  0.2773  1.3963 -0.9844
  494MOL0     H66684   3.572   2.212   5.747 -4.1755 -0.1856 -0.5003
  494MOL0     H66685   3.665   2.167   5.606 -0.9042 -0.2336 -0.3835
  494MOL0     H66686   3.302   2.012   5.512 -1.3392  1.2008  2.4617
  494MOL0     H66687   4.039   2.429   6.014  0.7539  1.9201  0.5905
  494MOL0     H66688   4.232   2.601   6.073 -0.7538  3.3076  0.7750
  494MOL0     H66689   4.291   2.700   5.963 -0.6909  0.2056 -1.4974
  494MOL0     H66690   4.119   2.707   5.982  2.4760  4.0459  2.9675
  495MOL0     O66691   0.076   3.199  10.420  0.2004  0.2009  1.0529
  495MOL0     C66692   0.140   3.302  10.401 -0.3366 -0.0982 -0.0880
  495MOL0     O66693   0.252   3.343  10.477 -0.2727  0.2416 -0.7937
  495MOL0     C66694   0.325   3.268  10.564  0.1539 -0.2156 -0.2147
  495MOL0     C66695   0.445   3.324  10.595 -0.0467 -0.0613  0.3762
  495MOL0     C66696   0.541   3.257  10.669 -0.0766 -0.5604  0.7062
  495MOL0     C66697   0.512   3.136  10.727  0.2173 -0.2018 -0.3269
  495MOL0     O66698   0.607   3.058  10.787  0.2046  0.3681 -0.3152
  495MOL0     C66699   0.670   3.120  10.900  0.3028 -0.5313  0.2282
  495MOL0     C66700   0.705   3.005  10.997  0.2246  0.0649 -0.0361
  495MOL0     C66701   0.842   2.949  10.963 -0.2662  0.0791  0.3858
  495MOL0     C66702   0.917   2.886  11.075  0.3530  0.1803 -0.2799
  495MOL0     C66703   1.044   2.828  11.019 -0.1712 -0.0807  0.1380
  495MOL0     C66704   1.148   2.819  11.139  0.1768 -0.2679 -0.3827
  495MOL0     C66705   1.281   2.761  11.101  0.7816 -0.7089  0.7105
  495MOL0     C66706   1.378   2.867  11.045  0.1091 -0.4971 -0.0305
  495MOL0     N66707   1.517   2.812  11.055  0.2255 -0.2324 -0.1042
  495MOL0     C66708   1.629   2.876  11.097  0.9919 -0.4698  0.3438
  495MOL0     C66709   1.730   2.792  11.063  0.1827 -0.9392  0.0017
  495MOL0     C66710   1.873   2.802  11.097  0.2654  0.5431  0.0897
  495MOL0     C66711   1.941   2.933  11.093  0.0531  0.1036 -0.1938
  495MOL0     C66712   2.092   2.912  11.123  1.3536  0.3095  0.1287
  495MOL0     C66713   2.179   2.996  11.034 -0.3525  0.2047 -0.3266
  495MOL0     O66714   2.315   2.967  11.066 -0.3729 -0.3800 -0.0544
  495MOL0     C66715   2.418   3.035  10.991  0.4076  0.3929  0.8025
  495MOL0     C66716   2.400   3.126  10.888 -0.0230 -0.0029  0.7800
  495MOL0     C66717   2.507   3.189  10.826 -0.6434  0.3732  0.0254
  495MOL0     C66718   2.641   3.161  10.868  0.0971  0.2267 -0.4806
  495MOL0     C66719   2.768   3.228  10.819 -0.0178  0.2134 -0.7659
  495MOL0     O66720   2.884   3.174  10.858 -0.0155  0.2386  0.4793
  495MOL0     C66721   3.004   3.242  10.842 -0.2638  0.5544 -0.2750
  495MOL0     C66722   3.032   3.369  10.906  1.1320  0.0353 -0.3366
  495MOL0     C66723   3.155   3.433  10.901  0.3964 -0.1333 -0.8133
  495MOL0     C66724   3.254   3.371  10.817 -0.4537  0.3197  0.3007
  495MOL0     O66725   3.383   3.415  10.825  0.0127 -0.2006  0.3528
  495MOL0     C66726   3.463   3.397  10.699  0.6875  0.4800  0.5014
  495MOL0     C66727   3.574   3.495  10.692 -0.5121 -0.3369  0.1151
  495MOL0     C66728   3.659   3.483  10.822 -0.7000  1.0173 -0.2191
  495MOL0     C66729   3.772   3.585  10.837 -0.7522 -0.6503  0.6181
  495MOL0     C66730   3.880   3.567  10.729 -1.5308 -0.8235 -0.3069
  495MOL0     C66731   3.988   3.683  10.727  0.6280  0.5741 -0.6899
  495MOL0     C66732   4.077   3.687  10.849 -1.0370  0.0854 -0.2251
  495MOL0     C66733   4.207   3.603  10.841  0.0253  0.3503 -0.1417
  495MOL0    Cl66734   4.172   3.442  10.837 -0.3678  0.2132 -0.2872
  495MOL0     C66735   3.222   3.254  10.737 -0.2405  0.3781 -0.8121
  495MOL0     C66736   3.095   3.193  10.747 -0.8442  0.4450  0.4704
  495MOL0     O66737   2.754   3.322  10.746 -0.0740 -0.7290 -0.1025
  495MOL0     C66738   2.656   3.065  10.970  0.4621 -0.1331  0.5413
  495MOL0     C66739   2.546   3.004  11.033 -0.3033 -0.2186  0.8064
  495MOL0     N66740   1.680   2.682  10.996  0.0808 -0.0307 -0.3642
  495MOL0     N66741   1.554   2.701  10.987  0.2236  0.3758  0.1399
  495MOL0     C66742   0.387   3.081  10.706  0.0791  0.3763 -0.0128
  495MOL0     C66743   0.295   3.141  10.616  0.4756 -0.4617  0.6583
  495MOL0     C66744   0.102   3.407  10.301  0.2515 -0.1950  0.3696
  495MOL0     C66745   0.172   3.526  10.300  0.2876 -0.0458  0.4691
  495MOL0     C66746   0.131   3.624  10.208 -0.4534  0.4764  0.6837
  495MOL0     C66747   0.023   3.624  10.120 -0.8001  0.6295 -0.1922
  495MOL0     O66748  -0.025   3.727  10.046  1.2842  0.5267  0.4569
  495MOL0     C66749   0.054   3.840  10.016 -1.1833  0.0078  0.8935
  495MOL0     C66750  -0.021   3.935   9.923  0.7174  0.1964  0.1821
  495MOL0     C66751  -0.144   4.008   9.990 -0.8667  0.6287 -0.0408
  495MOL0     C66752  -0.214   4.116   9.897 -0.3451 -0.0719 -0.0568
  495MOL0     C66753  -0.360   4.114   9.902 -0.0826  0.4134  0.0693
  495MOL0     C66754  -0.483   4.128   9.898 -0.4510 -0.9680  0.2214
  495MOL0     C66755  -0.051   3.505  10.123  0.2377 -0.2177  0.1474
  495MOL0     C66756  -0.019   3.399  10.216 -0.3689 -0.8495  0.3058
  495MOL0     C66757  -0.121   3.280  10.218 -0.3211  1.0929 -0.4741
  495MOL0     H66758   0.457   3.428  10.568 -2.1071 -0.2203 -1.3859
  495MOL0     H66759   0.634   3.311  10.671 -1.1666  1.4712 -0.3557
  495MOL0     H66760   0.756   3.182  10.874  1.0834 -1.6235  0.1186
  495MOL0     H66761   0.600   3.188  10.949  0.9304 -0.5081  1.1246
  495MOL0     H66762   0.638   2.919  10.993  0.0327  0.2432 -1.0417
  495MOL0     H66763   0.703   3.040  11.100 -1.1655  4.4165 -1.3043
  495MOL0     H66764   0.918   3.017  10.923  1.6091 -2.2215 -0.2282
  495MOL0     H66765   0.811   2.868  10.896 -0.6496 -1.8842  2.7909
  495MOL0     H66766   0.944   2.960  11.151 -0.1514  0.3667 -0.2763
  495MOL0     H66767   0.860   2.803  11.117 -1.4887  0.1767 -2.6038
  495MOL0     H66768   1.020   2.727  10.982 -0.9612  0.9395 -2.3330
  495MOL0     H66769   1.089   2.889  10.941  0.3715  0.1725  0.6445
  495MOL0     H66770   1.166   2.920  11.176 -1.8981  0.6185 -1.6198
  495MOL0     H66771   1.103   2.758  11.218 -0.4992 -2.5165 -2.3813
  495MOL0     H66772   1.272   2.687  11.020  0.1757  0.6378 -0.5056
  495MOL0     H66773   1.315   2.717  11.195 -2.3778 -1.5526  1.5832
  495MOL0     H66774   1.351   2.895  10.942 -2.4584  3.8742  1.5536
  495MOL0     H66775   1.367   2.957  11.107  3.9524 -0.7783  1.2975
  495MOL0     H66776   1.638   2.971  11.148 -0.3644  0.3386 -0.8414
  495MOL0     H66777   1.876   2.771  11.201  0.3743 -1.7330 -0.5478
  495MOL0     H66778   1.927   2.726  11.040  0.8130  2.6695 -2.4163
  495MOL0     H66779   1.921   2.969  10.992 -3.7054 -1.2202 -0.0884
  495MOL0     H66780   1.888   2.997  11.164 -0.9373 -1.8505  0.9016
  495MOL0     H66781   2.111   2.807  11.097  0.7663 -0.1028  1.2925
  495MOL0     H66782   2.109   2.935  11.228 -0.8738  0.4295  0.5068
  495MOL0     H66783   2.149   3.100  11.052  0.2593  0.8730 -2.7843
  495MOL0     H66784   2.160   2.981  10.927 -2.5483  3.1419 -0.5057
  495MOL0     H66785   2.299   3.161  10.865  0.5158  0.9388 -0.2677
  495MOL0     H66786   2.496   3.266  10.750 -0.4449 -0.7593 -1.1795
  495MOL0     H66787   2.964   3.403  10.984  1.4427 -0.5607  0.2054
  495MOL0     H66788   3.173   3.518  10.966 -3.8073 -2.3845  3.8969
  495MOL0     H66789   3.502   3.295  10.704  2.1821  1.0933  2.4191
  495MOL0     H66790   3.399   3.417  10.612  2.7435  1.1852 -0.9231
  495MOL0     H66791   3.636   3.481  10.603  2.7211 -1.3747  2.3818
  495MOL0     H66792   3.528   3.594  10.686 -0.6209 -0.4265 -0.5704
  495MOL0     H66793   3.590   3.490  10.907  0.7039  1.3000  0.9449
  495MOL0     H66794   3.696   3.380  10.820  0.4980  1.4033  0.5304
  495MOL0     H66795   3.827   3.575  10.931 -0.1350 -5.3101  0.0006
  495MOL0     H66796   3.724   3.682  10.821  0.9032  0.2522  0.9507
  495MOL0     H66797   3.833   3.572  10.630 -0.0630  3.5682 -0.9850
  495MOL0     H66798   3.934   3.472  10.737 -0.6752 -0.3291 -0.1353
  495MOL0     H66799   4.049   3.690  10.636  4.2716  1.8020  1.6160
  495MOL0     H66800   3.926   3.772  10.743 -0.7272 -0.9211  4.0884
  495MOL0     H66801   4.013   3.661  10.934 -0.6985  1.1773  0.3766
  495MOL0     H66802   4.107   3.790  10.868 -1.5033  0.0217  0.9591
  495MOL0     H66803   4.263   3.624  10.749 -1.4657  0.9882 -0.9484
  495MOL0     H66804   4.272   3.633  10.924  2.7200  0.2961 -2.1055
  495MOL0     H66805   3.292   3.190  10.685  3.5620  1.2825  2.6809
  495MOL0     H66806   3.079   3.097  10.700  2.9414  1.2100 -2.9224
  495MOL0     H66807   2.760   3.051  10.998  0.5258 -1.4841 -0.2925
  495MOL0     H66808   2.563   2.927  11.108  2.7942  1.3203  1.8876
  495MOL0     H66809   0.370   2.982  10.747 -3.1405 -0.2182 -2.4118
  495MOL0     H66810   0.207   3.082  10.593  1.8627 -2.3766 -0.0541
  495MOL0     H66811   0.271   3.539  10.344  0.8773  2.8925 -1.4515
  495MOL0     H66812   0.192   3.713  10.198  0.0054  0.0368 -0.5802
  495MOL0     H66813   0.149   3.811   9.970 -1.3572  1.2747 -0.3138
  495MOL0     H66814   0.071   3.896  10.108  0.9263 -2.3643  2.0659
  495MOL0     H66815  -0.054   3.879   9.835  0.5533 -0.2821  0.5386
  495MOL0     H66816   0.056   4.008   9.899  2.6120 -2.1196 -1.1150
  495MOL0     H66817  -0.118   4.048  10.088 -3.2933 -0.2880  1.0717
  495MOL0     H66818  -0.221   3.932  10.009  1.5150 -3.0542 -3.4404
  495MOL0     H66819  -0.171   4.212   9.925  3.7076 -1.9327  0.8379
  495MOL0     H66820  -0.172   4.101   9.797  0.2449  0.7255  0.0623
  495MOL0     H66821  -0.590   4.137   9.901 -0.3947 -0.5840  2.4522
  495MOL0     H66822  -0.144   3.505  10.068 -1.4025  1.7579  2.6814
  495MOL0     H66823  -0.079   3.182  10.195 -0.3052 -0.8773  5.8764
  495MOL0     H66824  -0.171   3.263  10.314 -0.7113  1.1821 -0.6583
  495MOL0     H66825  -0.194   3.295  10.138 -0.4686  1.9731 -0.1877
  496MOL0     O66826   8.645   7.836   0.571 -0.1866  0.4198 -0.4158
  496MOL0     C66827   8.588   7.837   0.456 -0.1366  0.1056  0.1200
  496MOL0     O66828   8.586   7.943   0.374  0.2182  0.6506  0.2271
  496MOL0     C66829   8.665   8.056   0.405  0.1798  0.3076 -0.2430
  496MOL0     C66830   8.611   8.138   0.502  0.6030 -1.0117  0.7876
  496MOL0     C66831   8.678   8.255   0.528  0.5073 -0.9073 -0.1319
  496MOL0     C66832   8.791   8.291   0.457  0.0782 -0.2235  0.2789
  496MOL0     O66833   8.847   8.418   0.470  0.8326  0.4874  0.3074
  496MOL0     C66834   8.830   8.497   0.354 -0.5576  0.1445  0.5046
  496MOL0     C66835   8.710   8.595   0.357 -0.3105 -0.2132 -0.3984
  496MOL0     C66836   8.726   8.719   0.260 -0.3618  0.2722  0.0363
  496MOL0     C66837   8.628   8.818   0.313  0.2427 -0.3826  0.8013
  496MOL0     C66838   8.678   8.958   0.277 -0.3369 -0.3488  0.5108
  496MOL0     C66839   8.730   8.959   0.119 -0.5584  0.1773 -0.2904
  496MOL0     C66840   8.749   9.095   0.071  0.4892  0.3653  0.0209
  496MOL0     C66841   8.845   9.097  -0.052 -0.5025  0.2333  0.7596
  496MOL0     N66842   8.903   9.229  -0.086 -0.7446 -0.1184  0.3352
  496MOL0     C66843   8.966   9.307  -0.002  0.3314  0.0253  0.9387
  496MOL0     C66844   9.021   9.396  -0.086 -0.3324  0.1380  0.2730
  496MOL0     C66845   9.121   9.500  -0.048  0.7743  0.0917 -0.6054
  496MOL0     C66846   9.249   9.496  -0.120  1.1448 -0.0864  1.1167
  496MOL0     C66847   9.344   9.601  -0.063 -0.6838  0.3623  0.1185
  496MOL0     C66848   9.487   9.594  -0.117 -0.5778  0.1782 -0.2917
  496MOL0     O66849   9.552   9.488  -0.050 -0.0503  0.3272  0.0335
  496MOL0     C66850   9.692   9.469  -0.061  0.5801  0.1740 -0.4593
  496MOL0     C66851   9.777   9.532  -0.145 -1.1370 -0.0052  1.0473
  496MOL0     C66852   9.915   9.522  -0.136  0.1859  0.8892  0.4652
  496MOL0     C66853   9.967   9.424  -0.047  0.3890  0.2215 -0.2531
  496MOL0     C66854  10.113   9.399  -0.040  0.2134  0.1317  0.0296
  496MOL0     O66855  10.167   9.322   0.064  0.0554  0.6879  0.0711
  496MOL0     C66856  10.283   9.251   0.035 -0.4577  0.3339  0.0796
  496MOL0     C66857  10.367   9.239   0.145  0.0087 -0.2710  0.5127
  496MOL0     C66858  10.477   9.153   0.132  0.8870 -0.1761  0.3673
  496MOL0     C66859  10.512   9.100   0.011 -0.0534  0.0215 -0.0139
  496MOL0     O66860  10.637   9.044   0.000 -0.6068 -0.1708 -0.1158
  496MOL0     C66861  10.691   8.954   0.095 -0.8773  0.9910 -0.6692
  496MOL0     C66862  10.841   8.968   0.107  0.6592 -0.9531  0.7088
  496MOL0     C66863  10.908   8.954  -0.030  0.2513 -0.4131 -0.2160
  496MOL0     C66864  11.057   8.969  -0.016  0.0278  0.1914 -0.3040
  496MOL0     C66865  11.117   8.949  -0.154 -0.5061 -0.1827  0.6443
  496MOL0     C66866  11.276   8.921  -0.160  0.4423 -0.3901  0.9537
  496MOL0     C66867  11.353   9.053  -0.119  0.4478  0.6282  1.1529
  496MOL0     C66868  11.408   9.048   0.020  0.7043 -0.9457  0.1942
  496MOL0    Cl66869  11.464   9.222   0.046 -0.0746  0.1322  0.4005
  496MOL0     C66870  10.428   9.110  -0.102 -0.3851  1.2782 -0.0430
  496MOL0     C66871  10.313   9.191  -0.086 -0.1470 -0.6334 -0.5305
  496MOL0     O66872  10.184   9.432  -0.137  0.0490  0.0583  0.3823
  496MOL0     C66873   9.884   9.351   0.048 -0.0121  0.6072  0.4299
  496MOL0     C66874   9.746   9.385   0.032  0.6624  0.7216  0.3902
  496MOL0     N66875   8.978   9.379  -0.219  0.6409  0.0373 -0.0045
  496MOL0     N66876   8.909   9.276  -0.210 -0.0910  0.1689  0.1183
  496MOL0     C66877   8.852   8.198   0.368  0.8365  0.5285  0.7456
  496MOL0     C66878   8.784   8.081   0.337 -0.5936 -0.0993 -0.5023
  496MOL0     C66879   8.527   7.707   0.407 -0.5452  0.5294 -0.1970
  496MOL0     C66880   8.410   7.718   0.339  0.7527  0.7295 -1.5993
  496MOL0     C66881   8.345   7.610   0.279 -0.7966  0.0464  0.4067
  496MOL0     C66882   8.398   7.487   0.289 -0.4131 -0.1418  0.3266
  496MOL0     O66883   8.352   7.374   0.222  0.9084 -0.5093  0.3569
  496MOL0     C66884   8.264   7.381   0.104  0.4281  0.5074  0.2978
  496MOL0     C66885   8.323   7.470  -0.014 -0.2382  0.8728 -0.1222
  496MOL0     C66886   8.224   7.533  -0.112 -0.2161  0.3250  0.0709
  496MOL0     C66887   8.218   7.484  -0.250 -0.6846  0.6892  0.2841
  496MOL0     C66888   8.290   7.572  -0.339  0.7721  0.0715  0.1321
  496MOL0     C66889   8.343   7.649  -0.425 -0.5347  1.0327 -0.0029
  496MOL0     C66890   8.511   7.472   0.366  0.3646 -0.1025 -0.5065
  496MOL0     C66891   8.578   7.576   0.428  0.4632 -0.3318 -0.0054
  496MOL0     C66892   8.701   7.528   0.497  0.6195  0.0501  0.1103
  496MOL0     H66893   8.517   8.107   0.546  0.3073  1.5049  2.1111
  496MOL0     H66894   8.641   8.323   0.604 -3.4089 -1.4431 -1.3273
  496MOL0     H66895   8.921   8.556   0.342  0.5286 -1.6531 -0.5842
  496MOL0     H66896   8.817   8.436   0.264  2.0473  0.0920  0.1088
  496MOL0     H66897   8.701   8.624   0.462 -1.5338  3.6242 -1.4057
  496MOL0     H66898   8.613   8.548   0.338 -1.0339  1.1283 -0.1633
  496MOL0     H66899   8.715   8.681   0.158  1.4743 -3.1883  0.9612
  496MOL0     H66900   8.827   8.757   0.276 -0.8768  0.7816  2.4245
  496MOL0     H66901   8.530   8.789   0.275 -0.2656 -1.1595  2.5946
  496MOL0     H66902   8.610   8.810   0.421  0.7320  0.6478  0.9761
  496MOL0     H66903   8.609   9.041   0.297  1.2955  0.8331  1.4156
  496MOL0     H66904   8.769   8.972   0.336  0.0202 -1.0793  0.1418
  496MOL0     H66905   8.831   8.917   0.122  0.3108  1.5115 -4.4251
  496MOL0     H66906   8.667   8.901   0.052 -2.4385  1.1796  0.5132
  496MOL0     H66907   8.776   9.169   0.147 -2.0227  1.6840 -0.2548
  496MOL0     H66908   8.653   9.120   0.024  0.8397 -3.3089 -3.1819
  496MOL0     H66909   8.940   9.043  -0.040 -0.3150 -0.3022 -2.3831
  496MOL0     H66910   8.801   9.043  -0.136  0.1739 -0.2812  0.7205
  496MOL0     H66911   8.979   9.295   0.105  1.9826 -1.7550  0.6043
  496MOL0     H66912   9.069   9.595  -0.065 -2.0960 -1.1705  0.4032
  496MOL0     H66913   9.135   9.485   0.060  0.1530 -2.1652 -0.7845
  496MOL0     H66914   9.289   9.394  -0.120  0.7897 -0.4715 -3.6151
  496MOL0     H66915   9.226   9.516  -0.225  0.1818  0.1376  1.3607
  496MOL0     H66916   9.356   9.581   0.044  3.2933 -0.6409 -0.3521
  496MOL0     H66917   9.299   9.700  -0.069  0.3926  0.8654  0.1247
  496MOL0     H66918   9.545   9.683  -0.092 -0.5549  0.0326  0.1810
  496MOL0     H66919   9.483   9.594  -0.227 -0.2690  0.8521 -0.3099
  496MOL0     H66920   9.749   9.603  -0.222 -1.0268  1.1612  2.0697
  496MOL0     H66921   9.986   9.580  -0.195  1.8340  0.6745  2.1353
  496MOL0     H66922  10.356   9.289   0.241  1.1201  0.5669  0.2370
  496MOL0     H66923  10.541   9.162   0.220 -1.5582  1.4804  2.0931
  496MOL0     H66924  10.647   8.961   0.195  2.0963  1.7495  0.7095
  496MOL0     H66925  10.672   8.852   0.061  2.0574 -0.3603  1.3347
  496MOL0     H66926  10.862   9.060   0.162  0.3669 -0.2513 -0.3068
  496MOL0     H66927  10.883   8.888   0.168 -0.7025 -0.3446  2.5215
  496MOL0     H66928  10.875   8.859  -0.073 -1.5391 -1.0287  2.2899
  496MOL0     H66929  10.860   9.033  -0.089 -3.2494 -1.8789  0.3585
  496MOL0     H66930  11.101   8.902   0.058  0.0181 -0.5348 -0.9324
  496MOL0     H66931  11.079   9.073   0.010  2.2836 -0.0394 -1.0318
  496MOL0     H66932  11.096   9.040  -0.211  0.7630  0.9062  1.8261
  496MOL0     H66933  11.078   8.864  -0.211  1.4550 -0.1644 -0.8063
  496MOL0     H66934  11.304   8.834  -0.100  1.9899 -0.8206 -0.3183
  496MOL0     H66935  11.292   8.900  -0.266  0.5198  1.1815  0.6264
  496MOL0     H66936  11.299   9.147  -0.133  1.7245  1.0641 -1.5393
  496MOL0     H66937  11.435   9.063  -0.191  1.5982  0.4548  2.3851
  496MOL0     H66938  11.333   9.021   0.095 -0.7286  0.6928 -0.5659
  496MOL0     H66939  11.500   8.989   0.022  0.6726 -0.9829  2.7462
  496MOL0     H66940  10.450   9.064  -0.198 -3.1100  2.2757 -1.2502
  496MOL0     H66941  10.266   9.209  -0.182  2.3976 -1.2047 -1.9695
  496MOL0     H66942   9.913   9.274   0.120  2.5095  1.5176  0.5156
  496MOL0     H66943   9.681   9.337   0.105 -2.2372  1.0544 -1.7848
  496MOL0     H66944   8.948   8.226   0.325  0.6256 -0.1061 -0.1902
  496MOL0     H66945   8.826   8.009   0.267  3.2498 -0.9962  2.4036
  496MOL0     H66946   8.369   7.815   0.310  1.0366  1.4641  0.2797
  496MOL0     H66947   8.257   7.645   0.225 -0.1137  2.4476  0.7003
  496MOL0     H66948   8.165   7.419   0.131  0.1304 -0.9813  1.4283
  496MOL0     H66949   8.258   7.279   0.066  2.8251 -0.0112  1.1153
  496MOL0     H66950   8.388   7.400  -0.067 -2.0664 -2.3936  1.6095
  496MOL0     H66951   8.390   7.545   0.029 -2.3469  1.4255  2.4497
  496MOL0     H66952   8.240   7.641  -0.106 -1.4927  0.4793  1.4685
  496MOL0     H66953   8.124   7.510  -0.073 -0.5776  0.7678 -0.5785
  496MOL0     H66954   8.278   7.393  -0.257  0.9741  1.6855  0.8923
  496MOL0     H66955   8.116   7.459  -0.280  0.5810 -1.5630 -2.5691
  496MOL0     H66956   8.377   7.709  -0.508 -0.5985 -2.6146 -2.9221
  496MOL0     H66957   8.546   7.369   0.375  2.6296  0.7918  2.3548
  496MOL0     H66958   8.795   7.537   0.441 -0.7000  1.3866 -2.0133
  496MOL0     H66959   8.723   7.581   0.591  1.9651  1.3105 -0.8701
  496MOL0     H66960   8.695   7.421   0.515 -0.9645  0.5097  2.9056
  497MOL0     O66961  10.821   8.586   0.707  0.1337 -0.3136 -0.4282
  497MOL0     C66962  10.802   8.699   0.759  0.2285  0.0809  0.9846
  497MOL0     O66963  10.879   8.750   0.855 -0.5191  0.3871 -0.7095
  497MOL0     C66964  11.019   8.734   0.835  0.9805  0.5337  1.0856
  497MOL0     C66965  11.095   8.808   0.751 -0.2330 -0.3497  0.8325
  497MOL0     C66966  11.229   8.783   0.741  0.2580  0.9294  0.4652
  497MOL0     C66967  11.289   8.673   0.801  0.3592  0.4197 -1.3090
  497MOL0     O66968  11.426   8.661   0.774 -0.0715 -0.7193 -0.1553
  497MOL0     C66969  11.482   8.531   0.780  0.2121 -0.1385 -0.2061
  497MOL0     C66970  11.627   8.537   0.730  0.5993  0.3111 -0.6943
  497MOL0     C66971  11.717   8.560   0.853  0.5044 -0.5353 -0.1466
  497MOL0     C66972  11.870   8.549   0.816  0.3513  0.7568 -0.3632
  497MOL0     C66973  11.959   8.563   0.940 -0.6911  0.8185  0.1056
  497MOL0     C66974  12.100   8.513   0.924  0.0988 -0.1282 -0.0533
  497MOL0     C66975  12.183   8.613   0.848 -0.6437  0.3432  0.2655
  497MOL0     C66976  12.332   8.596   0.858 -0.6817 -0.8214 -0.3442
  497MOL0     N66977  12.411   8.685   0.774 -0.4107  0.0023  0.8113
  497MOL0     C66978  12.448   8.815   0.813  0.1640  0.4909  0.8214
  497MOL0     C66979  12.526   8.855   0.706 -0.0007 -0.0792 -0.0622
  497MOL0     C66980  12.596   8.991   0.694  0.3519  0.1987 -0.5288
  497MOL0     C66981  12.744   8.978   0.687  0.2771 -0.5253 -0.7468
  497MOL0     C66982  12.791   9.016   0.543  1.0839 -0.1820 -0.4236
  497MOL0     C66983  12.934   9.014   0.514  0.1690  1.0427 -0.0175
  497MOL0     O66984  13.001   9.131   0.545  0.2624  0.1433 -0.3778
  497MOL0     C66985  13.138   9.120   0.545 -0.1750  0.2107  0.6203
  497MOL0     C66986  13.216   9.002   0.518 -0.2296 -0.0211 -0.5201
  497MOL0     C66987  13.359   9.006   0.519  0.3010 -0.0431 -0.7994
  497MOL0     C66988  13.423   9.124   0.542  0.2757  0.2101  0.1553
  497MOL0     C66989  13.574   9.126   0.551 -0.2233 -0.3516 -0.3236
  497MOL0     O66990  13.647   9.012   0.524  0.6714 -0.0741 -0.5677
  497MOL0     C66991  13.779   9.009   0.506 -0.2321  0.8484  0.0528
  497MOL0     C66992  13.851   8.897   0.551 -0.1488 -0.2733  0.4452
  497MOL0     C66993  13.987   8.889   0.533  0.1091  0.1035 -0.4332
  497MOL0     C66994  14.061   9.001   0.497 -1.0145  0.2471 -0.5196
  497MOL0     O66995  14.202   9.007   0.488  0.7925  0.2318  0.5437
  497MOL0     C66996  14.277   8.922   0.573 -0.3811  0.2885 -0.2401
  497MOL0     C66997  14.419   8.988   0.603  0.1963 -0.1722  0.0767
  497MOL0     C66998  14.502   9.005   0.476 -0.6559 -0.3831  0.1820
  497MOL0     C66999  14.651   9.024   0.509 -0.0189  0.3468  1.0140
  497MOL0     C67000  14.717   9.051   0.377  0.1923  0.0003  0.1355
  497MOL0     C67001  14.863   9.081   0.396 -0.3460  0.1360  0.2207
  497MOL0     C67002  14.948   9.078   0.278  0.4372  0.0647 -0.3245
  497MOL0     C67003  15.101   9.069   0.316 -0.2770 -0.3752 -0.0918
  497MOL0    Cl67004  15.150   8.928   0.434 -0.2944 -0.4758  0.0941
  497MOL0     C67005  13.994   9.108   0.444 -0.6047  0.3623  0.2843
  497MOL0     C67006  13.856   9.114   0.443 -0.2466  0.4134 -0.3143
  497MOL0     O67007  13.620   9.241   0.562 -0.8647  0.7569 -0.5107
  497MOL0     C67008  13.347   9.244   0.551 -0.2051  0.2228  0.0772
  497MOL0     C67009  13.203   9.242   0.561 -0.0177 -0.0579 -0.5310
  497MOL0     N67010  12.523   8.755   0.613  0.0693 -0.3693  0.0810
  497MOL0     N67011  12.456   8.648   0.651 -0.6091 -0.2693  0.2706
  497MOL0     C67012  11.208   8.578   0.875  0.7364 -0.2693  0.0132
  497MOL0     C67013  11.074   8.620   0.890  1.2618 -0.2436 -0.2003
  497MOL0     C67014  10.686   8.785   0.720  0.4315  0.3302  0.3359
  497MOL0     C67015  10.651   8.911   0.792  0.5297 -0.2149 -0.7860
  497MOL0     C67016  10.551   9.000   0.743 -0.4240 -0.3793 -0.3010
  497MOL0     C67017  10.475   8.969   0.632 -1.3869 -0.4157  0.7842
  497MOL0     O67018  10.392   9.072   0.590 -0.1882 -0.8972 -0.0701
  497MOL0     C67019  10.303   9.062   0.481 -0.9797  0.3034 -0.2605
  497MOL0     C67020  10.183   8.986   0.536 -0.1691 -0.4442  0.0496
  497MOL0     C67021  10.100   8.911   0.434  0.2331  0.4944  0.1221
  497MOL0     C67022  10.059   9.002   0.320 -0.8003  0.1097 -0.5563
  497MOL0     C67023   9.962   8.926   0.245  0.0418  0.4800 -0.9137
  497MOL0     C67024   9.866   8.866   0.188 -0.5688  0.6975 -0.0672
  497MOL0     C67025  10.511   8.849   0.566  0.9395  0.6990 -0.8184
  497MOL0     C67026  10.605   8.757   0.608  0.5377  0.5211  0.5909
  497MOL0     C67027  10.634   8.632   0.522  0.3417  0.0222 -0.5394
  497MOL0     H67028  11.057   8.891   0.691  2.0048 -1.5326 -2.5334
  497MOL0     H67029  11.291   8.843   0.675  0.9390  0.1444  0.3662
  497MOL0     H67030  11.468   8.483   0.878  1.5008 -1.7035 -0.7468
  497MOL0     H67031  11.436   8.464   0.707  0.3170  0.2689 -0.6465
  497MOL0     H67032  11.633   8.606   0.645  1.8141 -1.2646 -1.9572
  497MOL0     H67033  11.648   8.439   0.684 -1.4134 -1.4317  1.8077
  497MOL0     H67034  11.694   8.488   0.933  2.1269 -1.8090 -0.7532
  497MOL0     H67035  11.714   8.661   0.894 -0.7588  0.0176 -1.5251
  497MOL0     H67036  11.889   8.447   0.782  0.7838 -0.3878  2.9928
  497MOL0     H67037  11.892   8.626   0.742 -4.2191  1.2620 -1.5374
  497MOL0     H67038  11.956   8.667   0.975 -3.4788  0.2524  1.8712
  497MOL0     H67039  11.905   8.506   1.016 -2.7276  0.9074 -1.1841
  497MOL0     H67040  12.144   8.502   1.024 -0.5726 -1.6908  0.0988
  497MOL0     H67041  12.094   8.414   0.876 -0.6239 -1.2139  2.1567
  497MOL0     H67042  12.155   8.711   0.889  1.5030  1.0244  0.2124
  497MOL0     H67043  12.159   8.633   0.743 -0.3952  0.3475  0.2082
  497MOL0     H67044  12.347   8.630   0.961 -2.1993  1.9323 -0.9429
  497MOL0     H67045  12.361   8.493   0.836  1.6885 -0.6476  1.5877
  497MOL0     H67046  12.420   8.868   0.904  0.2514 -0.6631  1.5416
  497MOL0     H67047  12.562   9.023   0.595  0.7018 -2.8838 -1.7773
  497MOL0     H67048  12.551   9.057   0.768  0.2148  0.5721 -0.9442
  497MOL0     H67049  12.794   9.048   0.756 -1.1759 -0.2322  0.0509
  497MOL0     H67050  12.782   8.883   0.725  0.9224  0.4270  1.1294
  497MOL0     H67051  12.747   9.113   0.517 -1.3536 -1.7101 -2.5811
  497MOL0     H67052  12.743   8.947   0.473  0.6296 -0.9654  0.6303
  497MOL0     H67053  12.958   8.976   0.414 -1.1362  2.9394 -1.1319
  497MOL0     H67054  12.971   8.933   0.578  0.0252 -1.8977 -3.3303
  497MOL0     H67055  13.154   8.913   0.514 -0.1219 -0.1970  1.0371
  497MOL0     H67056  13.416   8.914   0.515  1.1663  0.4220  0.1974
  497MOL0     H67057  13.793   8.812   0.586 -2.3774  0.9313 -0.1342
  497MOL0     H67058  14.040   8.798   0.563  0.8977  0.2020 -1.4599
  497MOL0     H67059  14.229   8.913   0.671 -1.3682  3.5874 -0.2728
  497MOL0     H67060  14.278   8.822   0.529 -0.9999  0.1253  0.1072
  497MOL0     H67061  14.408   9.090   0.641 -1.8095  0.7000 -2.5033
  497MOL0     H67062  14.473   8.921   0.670 -1.9718 -1.3883  0.7079
  497MOL0     H67063  14.489   8.909   0.424  0.5216 -0.7115  0.4654
  497MOL0     H67064  14.461   9.096   0.431 -1.1658  0.5217  2.3834
  497MOL0     H67065  14.697   8.938   0.558  0.7827  0.4019  0.3879
  497MOL0     H67066  14.669   9.105   0.580  1.7818  0.7494  0.1713
  497MOL0     H67067  14.674   9.134   0.320 -0.5871 -1.5156 -1.5955
  497MOL0     H67068  14.709   8.961   0.314  0.6359 -2.2585  3.1126
  497MOL0     H67069  14.869   9.180   0.441 -1.8764 -0.6143  2.2011
  497MOL0     H67070  14.901   9.010   0.470  0.5297  1.0790  0.7035
  497MOL0     H67071  14.927   9.169   0.222 -0.1897 -0.5470 -1.1233
  497MOL0     H67072  14.923   8.991   0.215 -2.8228 -0.7068  1.7613
  497MOL0     H67073  15.174   9.080   0.235  0.4209  1.1855  0.6984
  497MOL0     H67074  15.126   9.158   0.375  2.0259 -0.7532 -0.4247
  497MOL0     H67075  14.046   9.198   0.413 -2.3715  1.1586 -0.5399
  497MOL0     H67076  13.798   9.197   0.404 -3.4653 -0.3630  2.3492
  497MOL0     H67077  13.399   9.338   0.551 -3.7571  2.4352  1.8385
  497MOL0     H67078  13.151   9.336   0.576  3.1282  1.9910 -1.3751
  497MOL0     H67079  11.236   8.482   0.916  0.7765 -0.1021  0.3824
  497MOL0     H67080  11.006   8.559   0.948 -1.1292 -0.0670 -2.6228
  497MOL0     H67081  10.689   8.946   0.888 -4.9909 -1.2941  2.2080
  497MOL0     H67082  10.524   9.095   0.789  0.4625 -0.6308  0.7802
  497MOL0     H67083  10.342   9.003   0.398  2.2584  2.8090 -0.6900
  497MOL0     H67084  10.275   9.161   0.444  1.3125  0.4708 -1.7270
  497MOL0     H67085  10.112   9.057   0.581 -2.1205 -2.4338  0.2946
  497MOL0     H67086  10.203   8.919   0.620 -3.3644 -0.3995  0.9813
  497MOL0     H67087  10.008   8.874   0.482  1.8771 -0.4710  2.7251
  497MOL0     H67088  10.150   8.823   0.394  0.5675  0.5780  0.3560
  497MOL0     H67089  10.015   9.097   0.354  1.5020  0.4744  1.7479
  497MOL0     H67090  10.146   9.021   0.257 -1.4198  1.1645 -1.1360
  497MOL0     H67091   9.788   8.809   0.142  0.5093  0.1761 -1.2930
  497MOL0     H67092  10.447   8.834   0.480  0.2180  1.9285 -0.5200
  497MOL0     H67093  10.557   8.629   0.444  0.3390 -2.4270 -0.5055
  497MOL0     H67094  10.731   8.641   0.473  0.9192  0.6407  0.6660
  497MOL0     H67095  10.620   8.549   0.591  0.2824  2.6271  2.8698
  498MOL0     O67096   2.009   4.314   5.846 -0.1478 -0.0527  0.4646
  498MOL0     C67097   1.936   4.227   5.884  0.4418 -0.2978  0.3802
  498MOL0     O67098   1.894   4.206   6.014  0.2507  0.2659 -0.2095
  498MOL0     C67099   1.931   4.303   6.104 -0.8847  1.3002  0.0067
  498MOL0     C67100   2.060   4.313   6.160  0.1893  0.3367 -0.7204
  498MOL0     C67101   2.090   4.419   6.244 -0.3490  0.0775 -0.9137
  498MOL0     C67102   1.998   4.525   6.270  0.4805 -0.1564 -0.4537
  498MOL0     O67103   2.044   4.641   6.330  0.3209 -0.5498 -0.2030
  498MOL0     C67104   1.989   4.661   6.462 -0.1705  0.4466 -1.2405
  498MOL0     C67105   1.931   4.800   6.476 -1.0646 -0.3043 -0.7825
  498MOL0     C67106   1.879   4.842   6.614 -0.3031 -0.8707  0.9420
  498MOL0     C67107   1.798   4.971   6.600 -0.4848  1.2196 -0.6585
  498MOL0     C67108   1.738   5.012   6.738  0.1265  0.4385  0.7852
  498MOL0     C67109   1.593   5.063   6.706 -0.4456  0.4514 -0.9532
  498MOL0     C67110   1.511   5.120   6.830 -0.7543 -1.2690 -0.0645
  498MOL0     C67111   1.470   4.994   6.914 -0.0903 -0.5544  0.4218
  498MOL0     N67112   1.364   4.917   6.846 -0.1558  0.7233  0.2725
  498MOL0     C67113   1.385   4.793   6.783  0.5450  0.0953 -0.0569
  498MOL0     C67114   1.260   4.749   6.745 -0.5975  0.2571 -0.1216
  498MOL0     C67115   1.221   4.624   6.673 -0.5706 -0.4505  0.2668
  498MOL0     C67116   1.204   4.646   6.521  0.9002  0.1459 -1.2641
  498MOL0     C67117   1.175   4.514   6.450  0.3524  0.8018 -0.1333
  498MOL0     C67118   1.286   4.450   6.370  0.1021 -0.5820 -0.4562
  498MOL0     O67119   1.414   4.482   6.414 -0.1015 -0.5347  0.1850
  498MOL0     C67120   1.473   4.410   6.511  0.6319 -0.1993  0.5069
  498MOL0     C67121   1.429   4.287   6.556 -0.3728 -0.0298 -0.2971
  498MOL0     C67122   1.488   4.228   6.672 -0.3680 -0.1867  1.2884
  498MOL0     C67123   1.609   4.282   6.721 -0.1715  0.1697  0.1692
  498MOL0     C67124   1.688   4.205   6.818 -0.6539  0.2492  0.6990
  498MOL0     O67125   1.797   4.268   6.884 -0.1735 -0.7187 -0.3980
  498MOL0     C67126   1.883   4.190   6.969  0.5189  0.1407 -0.8508
  498MOL0     C67127   1.827   4.151   7.095 -0.6550  0.5005  0.8981
  498MOL0     C67128   1.903   4.077   7.183 -0.0876 -0.1046 -0.8524
  498MOL0     C67129   2.035   4.044   7.156  0.3738  0.1672 -1.0750
  498MOL0     O67130   2.108   3.942   7.214  0.7129 -0.8065  0.0789
  498MOL0     C67131   2.142   3.972   7.350  0.0891 -0.3040 -0.2214
  498MOL0     C67132   2.215   4.109   7.377  0.3688  0.2543 -0.4090
  498MOL0     C67133   2.232   4.144   7.528 -0.5850  0.5932  0.2607
  498MOL0     C67134   2.361   4.080   7.571  0.2258  0.7777 -0.3428
  498MOL0     C67135   2.368   4.054   7.719  0.3818  0.4408 -0.2770
  498MOL0     C67136   2.510   4.040   7.776  0.1799  0.8631 -0.3299
  498MOL0     C67137   2.577   3.903   7.737  0.1796 -1.2872 -0.4573
  498MOL0     C67138   2.729   3.922   7.744 -0.3771  0.3290 -0.3113
  498MOL0    Cl67139   2.797   4.060   7.662 -0.0709  0.1859 -0.1070
  498MOL0     C67140   2.086   4.091   7.034  0.9726  0.1239  0.0147
  498MOL0     C67141   2.011   4.163   6.938  0.3657  0.4733  0.5392
  498MOL0     O67142   1.658   4.085   6.829  0.0617 -0.4751 -0.0539
  498MOL0     C67143   1.671   4.386   6.650  0.4002 -0.0640 -0.2651
  498MOL0     C67144   1.598   4.462   6.560  1.1354  0.0885 -0.3012
  498MOL0     N67145   1.170   4.832   6.798 -0.3087 -0.6283 -0.2259
  498MOL0     N67146   1.226   4.924   6.870 -0.5762 -1.1286 -0.9345
  498MOL0     C67147   1.876   4.514   6.210  0.3808 -0.8835 -0.2499
  498MOL0     C67148   1.842   4.408   6.131  0.2485  0.1654 -0.4190
  498MOL0     C67149   1.889   4.127   5.783  0.2335  0.4600  0.0666
  498MOL0     C67150   1.821   4.014   5.829  0.1267  0.5336  0.7769
  498MOL0     C67151   1.758   3.923   5.744 -0.3277 -0.4298  0.6862
  498MOL0     C67152   1.779   3.929   5.613  0.4392  0.7629  0.5155
  498MOL0     O67153   1.720   3.838   5.523  0.1240 -0.8055  0.0497
  498MOL0     C67154   1.574   3.822   5.534 -0.5118 -1.2587 -0.7447
  498MOL0     C67155   1.494   3.887   5.416 -0.5242 -0.3312 -0.6890
  498MOL0     C67156   1.511   4.042   5.408  0.5865 -0.9486 -0.0060
  498MOL0     C67157   1.430   4.127   5.310  0.6693  0.5342 -0.6055
  498MOL0     C67158   1.287   4.107   5.334 -0.0258 -0.1267  0.0913
  498MOL0     C67159   1.170   4.074   5.363 -0.0165 -0.1057  0.6404
  498MOL0     C67160   1.864   4.027   5.558  0.5328  0.0311  0.1417
  498MOL0     C67161   1.920   4.126   5.646  0.6139 -0.1048  0.4346
  498MOL0     C67162   2.018   4.228   5.589  0.6035  0.3586  0.4560
  498MOL0     H67163   2.128   4.232   6.135 -1.1194 -0.5226 -1.6038
  498MOL0     H67164   2.194   4.436   6.272 -0.3476  2.8518 -2.2748
  498MOL0     H67165   1.926   4.574   6.482  1.9288 -0.8620  0.0493
  498MOL0     H67166   2.066   4.644   6.538 -1.9516 -0.0221  0.5454
  498MOL0     H67167   1.848   4.822   6.408 -1.8071  0.2453  0.2728
  498MOL0     H67168   2.015   4.866   6.451 -1.1756  0.1856  0.1076
  498MOL0     H67169   1.960   4.859   6.686  0.1828  2.2294 -0.1891
  498MOL0     H67170   1.802   4.770   6.643 -1.7798 -0.9747 -2.7242
  498MOL0     H67171   1.854   5.056   6.560  0.6170 -0.5570 -3.1682
  498MOL0     H67172   1.712   4.939   6.541 -0.1466  0.3908 -0.7111
  498MOL0     H67173   1.735   4.932   6.813 -1.8291 -2.3448 -2.0177
  498MOL0     H67174   1.793   5.096   6.782  1.6488  1.1664 -2.2322
  498MOL0     H67175   1.610   5.144   6.635  3.0986  1.6471  0.9676
  498MOL0     H67176   1.527   4.992   6.655 -0.9526  0.1605  0.0639
  498MOL0     H67177   1.424   5.180   6.805 -1.1584  0.6608  4.9294
  498MOL0     H67178   1.563   5.205   6.874 -1.4157 -0.9199  0.0538
  498MOL0     H67179   1.550   4.926   6.942  0.5727 -0.1837 -0.5284
  498MOL0     H67180   1.436   5.033   7.011  0.6575 -0.8063  0.7872
  498MOL0     H67181   1.476   4.746   6.749  0.6017 -1.1237  1.6615
  498MOL0     H67182   1.303   4.552   6.680 -0.9023 -0.7596  1.1945
  498MOL0     H67183   1.132   4.573   6.710  0.1915 -1.4529  0.7568
  498MOL0     H67184   1.137   4.725   6.488 -0.5360 -1.6720 -2.9672
  498MOL0     H67185   1.305   4.670   6.487  1.8931 -0.3076  1.1329
  498MOL0     H67186   1.086   4.530   6.388  1.0413  1.9238 -0.8664
  498MOL0     H67187   1.143   4.437   6.521 -2.8596 -1.2038 -3.4579
  498MOL0     H67188   1.277   4.494   6.270 -1.2351  3.1577  1.1044
  498MOL0     H67189   1.265   4.343   6.370  2.1805 -1.0202 -0.3312
  498MOL0     H67190   1.345   4.232   6.515  0.8544 -0.8837 -1.8345
  498MOL0     H67191   1.443   4.146   6.726  0.3902 -1.0638  0.6092
  498MOL0     H67192   1.720   4.163   7.103 -1.0555 -1.0372 -1.1021
  498MOL0     H67193   1.854   4.040   7.273 -1.7747  0.3941 -1.5243
  498MOL0     H67194   2.051   3.994   7.407 -0.2257  1.4615 -1.3176
  498MOL0     H67195   2.196   3.886   7.389  2.2733  2.2620  2.8829
  498MOL0     H67196   2.306   4.122   7.319  0.8522  0.2825  0.3388
  498MOL0     H67197   2.149   4.189   7.343  0.4582  0.3718 -0.3083
  498MOL0     H67198   2.229   4.249   7.557 -1.3532  1.2280 -1.9492
  498MOL0     H67199   2.143   4.102   7.575 -1.3377  1.8591 -0.0147
  498MOL0     H67200   2.452   4.138   7.549  0.0642  1.4076  0.6027
  498MOL0     H67201   2.378   3.984   7.523  1.8000  1.7014 -1.7571
  498MOL0     H67202   2.319   3.958   7.742  2.9172 -0.3328  2.5479
  498MOL0     H67203   2.313   4.140   7.760 -0.3652 -1.1493  2.3312
  498MOL0     H67204   2.572   4.126   7.748  2.6981 -0.7080  0.1623
  498MOL0     H67205   2.518   4.039   7.885  0.5047  2.6199 -0.3082
  498MOL0     H67206   2.554   3.877   7.633  1.2256  0.0932 -1.0498
  498MOL0     H67207   2.549   3.827   7.811 -2.9700  3.1818  3.5796
  498MOL0     H67208   2.767   3.933   7.846  2.2805  2.5896 -1.4098
  498MOL0     H67209   2.779   3.828   7.719  1.2282  0.9141  0.5797
  498MOL0     H67210   2.186   4.058   7.009  0.3663 -3.1344  1.2713
  498MOL0     H67211   2.055   4.196   6.845  0.0766 -0.7047 -0.0343
  498MOL0     H67212   1.773   4.415   6.673  0.4248  0.0320 -0.4904
  498MOL0     H67213   1.636   4.557   6.525  1.7241  1.8042  4.2818
  498MOL0     H67214   1.802   4.592   6.225  1.0270 -0.3018  0.0241
  498MOL0     H67215   1.749   4.402   6.076  0.1364  0.6598 -0.2794
  498MOL0     H67216   1.807   4.002   5.936 -2.4050  2.4753  0.7579
  498MOL0     H67217   1.692   3.852   5.792 -1.0211 -0.0535  0.3115
  498MOL0     H67218   1.534   3.855   5.630 -0.0008 -2.4802 -0.0932
  498MOL0     H67219   1.557   3.714   5.542 -0.5852 -1.1443  0.8885
  498MOL0     H67220   1.389   3.861   5.429 -0.4392 -0.4152 -0.1396
  498MOL0     H67221   1.536   3.850   5.322 -0.1819 -3.3683  0.5361
  498MOL0     H67222   1.616   4.072   5.394 -0.2895  2.0699 -0.8909
  498MOL0     H67223   1.496   4.064   5.514  1.0496 -3.7687  0.7469
  498MOL0     H67224   1.467   4.230   5.319  0.6219  0.4813  0.2867
  498MOL0     H67225   1.450   4.095   5.207  0.6695 -0.7689 -0.2201
  498MOL0     H67226   1.067   4.053   5.382 -0.4690  2.0588  0.8389
  498MOL0     H67227   1.888   4.020   5.453 -0.2289 -4.2443  0.0920
  498MOL0     H67228   1.991   4.333   5.600  3.5724  1.1999  0.7005
  498MOL0     H67229   2.117   4.202   5.629  1.3393  0.7990 -1.0051
  498MOL0     H67230   2.040   4.211   5.483  2.2639  0.6128  0.7217
  499MOL0     O67231   8.511   7.122   9.910  0.3978  0.4708 -0.9704
  499MOL0     C67232   8.611   7.097   9.847 -0.2575  0.9071  0.7320
  499MOL0     O67233   8.642   7.149   9.727 -0.4756  0.4592 -0.8815
  499MOL0     C67234   8.539   7.217   9.656 -0.3318 -0.4756 -0.9160
  499MOL0     C67235   8.581   7.318   9.576 -0.3741  0.4350  0.5161
  499MOL0     C67236   8.489   7.382   9.487 -0.5650 -0.3080  0.3318
  499MOL0     C67237   8.353   7.363   9.496  0.2447  0.3533  0.7783
  499MOL0     O67238   8.255   7.424   9.415  0.0575 -0.1814 -1.0722
  499MOL0     C67239   8.299   7.458   9.279  0.5307  0.1090 -0.4867
  499MOL0     C67240   8.179   7.487   9.190  0.4502 -0.1758 -0.2706
  499MOL0     C67241   8.090   7.363   9.180  0.1496  0.7253  0.5881
  499MOL0     C67242   8.003   7.369   9.060  0.7067 -0.1522 -0.3220
  499MOL0     C67243   7.876   7.459   9.069 -0.0390  0.3301  0.3354
  499MOL0     C67244   7.800   7.478   8.930 -0.3503  0.9164  0.9572
  499MOL0     C67245   7.766   7.341   8.865  0.4865 -0.2513 -0.1803
  499MOL0     C67246   7.678   7.362   8.746  0.1081 -0.4805  0.1331
  499MOL0     N67247   7.757   7.440   8.638 -0.4471 -0.3497 -0.1548
  499MOL0     C67248   7.842   7.390   8.549  0.1269  0.1369  0.5936
  499MOL0     C67249   7.879   7.492   8.474 -0.6693 -0.6215  0.0607
  499MOL0     C67250   7.973   7.493   8.358 -0.2024  0.1905 -0.2060
  499MOL0     C67251   8.107   7.499   8.422  0.2201 -0.1924  0.0457
  499MOL0     C67252   8.215   7.516   8.322 -0.5740  0.3593  0.9827
  499MOL0     C67253   8.356   7.537   8.367  0.6457  0.4081  0.1780
  499MOL0     O67254   8.407   7.424   8.444 -0.0757  0.2065 -0.2019
  499MOL0     C67255   8.538   7.437   8.480 -0.7203  0.4647 -0.6016
  499MOL0     C67256   8.630   7.528   8.418  0.2263 -0.6945  0.1889
  499MOL0     C67257   8.771   7.523   8.434  0.3011 -0.5923 -0.7393
  499MOL0     C67258   8.818   7.426   8.521  0.2593 -0.0526 -0.3480
  499MOL0     C67259   8.957   7.403   8.544 -0.6571  0.5578  0.2455
  499MOL0     O67260   9.049   7.499   8.505 -0.5540  0.0372 -0.3926
  499MOL0     C67261   9.170   7.455   8.457  0.4051 -0.3588  0.8687
  499MOL0     C67262   9.271   7.547   8.464  0.3174 -0.5747  0.3511
  499MOL0     C67263   9.401   7.514   8.423  0.5429  1.0230  0.1345
  499MOL0     C67264   9.425   7.387   8.366 -0.1744  0.0830 -0.7146
  499MOL0     O67265   9.551   7.342   8.331  0.1122  0.6169 -0.4191
  499MOL0     C67266   9.673   7.429   8.326  0.9660 -0.4798 -0.4052
  499MOL0     C67267   9.781   7.362   8.249  0.4871 -0.0671 -0.2521
  499MOL0     C67268   9.731   7.295   8.125 -0.4621 -0.5165  0.5500
  499MOL0     C67269   9.850   7.252   8.028  0.7608 -0.0472 -0.1368
  499MOL0     C67270   9.805   7.183   7.897 -0.0682 -0.2987  0.9273
  499MOL0     C67271   9.923   7.159   7.812 -0.5533 -0.1225 -0.0166
  499MOL0     C67272   9.889   7.162   7.663  0.0588 -0.9931 -0.4370
  499MOL0     C67273   9.875   7.310   7.605 -0.8738  0.1016 -0.7737
  499MOL0    Cl67274   9.877   7.310   7.430 -0.0920  0.3822 -0.2380
  499MOL0     C67275   9.324   7.301   8.351  0.9554 -0.0113  0.1926
  499MOL0     C67276   9.191   7.330   8.391 -0.3831  0.5281 -1.2355
  499MOL0     O67277   8.989   7.292   8.590  0.2498 -0.0571  0.4524
  499MOL0     C67278   8.730   7.337   8.584  0.6673  0.7365  0.5621
  499MOL0     C67279   8.585   7.342   8.567 -0.7306  0.2884  0.3513
  499MOL0     N67280   7.818   7.607   8.512 -0.0213  0.3171  0.1806
  499MOL0     N67281   7.736   7.573   8.610 -0.0406  0.3449 -0.0578
  499MOL0     C67282   8.306   7.265   9.576 -0.3809  1.0495 -0.1205
  499MOL0     C67283   8.396   7.198   9.663 -0.9932  0.8220  0.2977
  499MOL0     C67284   8.724   7.031   9.912 -0.2342  0.1038 -0.6937
  499MOL0     C67285   8.825   6.981   9.832 -0.3925 -0.4563 -0.2422
  499MOL0     C67286   8.940   6.914   9.887  0.3986 -0.7572  0.6880
  499MOL0     C67287   8.954   6.913  10.026  0.2845 -0.2158 -0.0857
  499MOL0     O67288   9.049   6.845  10.105 -0.1995 -0.0011  0.2664
  499MOL0     C67289   9.178   6.863  10.046 -0.2566 -1.1845  0.7806
  499MOL0     C67290   9.232   7.009  10.048  0.3461  0.1508  0.4034
  499MOL0     C67291   9.217   7.085  10.177 -0.0772  0.6891 -0.5865
  499MOL0     C67292   9.286   6.996  10.296  0.2282  0.4315 -0.5640
  499MOL0     C67293   9.418   6.945  10.264 -0.6235  0.3042 -0.0972
  499MOL0     C67294   9.529   6.907  10.227  0.1535  0.4082  0.1340
  499MOL0     C67295   8.858   6.965  10.103  0.0191  1.2162  1.3870
  499MOL0     C67296   8.746   7.029  10.052  0.1458 -0.2170  0.4214
  499MOL0     C67297   8.644   7.073  10.160 -0.6183 -0.0835  1.0256
  499MOL0     H67298   8.688   7.333   9.563 -0.3079  0.9686  1.5450
  499MOL0     H67299   8.521   7.455   9.413 -0.6304  0.3562  0.9467
  499MOL0     H67300   8.356   7.551   9.270 -0.5582  0.6642 -2.0958
  499MOL0     H67301   8.354   7.373   9.238 -0.4547 -2.3758  2.8567
  499MOL0     H67302   8.220   7.504   9.090 -0.4060  0.9204 -0.4529
  499MOL0     H67303   8.121   7.575   9.219 -0.2355 -0.0553 -1.8972
  499MOL0     H67304   8.037   7.339   9.273  0.1749  0.0002  0.4155
  499MOL0     H67305   8.173   7.294   9.164  1.3487  2.6639 -2.5370
  499MOL0     H67306   8.053   7.406   8.970  0.7297 -0.0600 -0.2709
  499MOL0     H67307   7.968   7.269   9.034 -0.5643  0.7553 -2.4454
  499MOL0     H67308   7.805   7.418   9.142  1.3464  0.3921  1.7895
  499MOL0     H67309   7.902   7.556   9.111 -2.9122  1.3626 -0.0610
  499MOL0     H67310   7.713   7.544   8.938  0.2665  1.8657  0.0129
  499MOL0     H67311   7.874   7.524   8.864 -0.3974  0.6061  0.6830
  499MOL0     H67312   7.718   7.279   8.941  1.3096  1.4571  1.8325
  499MOL0     H67313   7.853   7.282   8.835 -0.0019 -4.0576  4.6991
  499MOL0     H67314   7.664   7.261   8.707  1.8951 -0.8079  0.2765
  499MOL0     H67315   7.580   7.409   8.761 -0.5834 -0.9599 -2.4091
  499MOL0     H67316   7.866   7.286   8.533 -1.5012  0.0575 -1.8534
  499MOL0     H67317   7.962   7.397   8.307  2.1549 -1.3110  1.8483
  499MOL0     H67318   7.966   7.582   8.294 -1.8866  1.3707  1.5289
  499MOL0     H67319   8.114   7.590   8.482  1.0863 -1.8312  2.5998
  499MOL0     H67320   8.116   7.406   8.478 -1.3572 -1.1774 -1.2599
  499MOL0     H67321   8.191   7.598   8.254  0.6873  0.7718  0.9984
  499MOL0     H67322   8.226   7.419   8.272  2.3823 -1.2996  4.3471
  499MOL0     H67323   8.368   7.629   8.425  1.2334  0.8776 -0.6716
  499MOL0     H67324   8.409   7.557   8.273  2.3695  1.0870  1.2534
  499MOL0     H67325   8.593   7.600   8.346  0.4412 -0.9714 -0.1995
  499MOL0     H67326   8.828   7.586   8.367 -0.9592  0.7645 -0.5970
  499MOL0     H67327   9.257   7.635   8.526  1.4273 -0.1725  0.0620
  499MOL0     H67328   9.477   7.591   8.431 -0.9003  2.4672  0.2038
  499MOL0     H67329   9.638   7.520   8.276 -1.1809 -2.0584 -1.9918
  499MOL0     H67330   9.706   7.455   8.427 -1.4014  1.2581  0.0213
  499MOL0     H67331   9.856   7.436   8.219 -1.3736  2.2732  0.5060
  499MOL0     H67332   9.821   7.282   8.311  0.4118 -0.0759 -0.2146
  499MOL0     H67333   9.672   7.208   8.155 -0.9770  0.5979  3.0474
  499MOL0     H67334   9.679   7.365   8.059  1.9327 -1.2715 -2.3768
  499MOL0     H67335   9.902   7.174   8.085 -1.1723 -0.3534  1.3122
  499MOL0     H67336   9.915   7.338   8.008  0.9090 -0.8148 -3.5133
  499MOL0     H67337   9.728   7.239   7.843  2.1466 -0.0701 -2.2664
  499MOL0     H67338   9.760   7.088   7.929  0.6461 -0.3660  1.7580
  499MOL0     H67339  10.005   7.228   7.833  0.1028 -0.8213 -0.2371
  499MOL0     H67340   9.962   7.067   7.856  0.9530  0.1842 -0.6514
  499MOL0     H67341   9.799   7.103   7.644 -0.1773 -1.4581  1.8163
  499MOL0     H67342   9.969   7.113   7.606  1.3005 -1.0859  1.2787
  499MOL0     H67343   9.783   7.360   7.638  0.0066  1.3618 -0.1323
  499MOL0     H67344   9.955   7.371   7.647 -2.0707  0.2837  1.3858
  499MOL0     H67345   9.345   7.204   8.307 -2.0964 -0.4105 -0.5712
  499MOL0     H67346   9.119   7.250   8.377 -0.3801  0.4969 -1.0675
  499MOL0     H67347   8.761   7.245   8.633  0.2931 -1.0504 -2.2881
  499MOL0     H67348   8.517   7.269   8.610 -0.8317 -0.8058 -1.5472
  499MOL0     H67349   8.205   7.226   9.561  0.5804 -1.4934 -0.5003
  499MOL0     H67350   8.354   7.124   9.730  0.2417  0.5708  0.8077
  499MOL0     H67351   8.816   6.984   9.724  0.5422 -0.0320 -0.3164
  499MOL0     H67352   9.022   6.865   9.835  2.1975 -1.4493  3.8993
  499MOL0     H67353   9.179   6.824   9.944 -1.1166 -0.2565  0.4040
  499MOL0     H67354   9.254   6.792  10.082 -0.1756 -2.5194 -1.8281
  499MOL0     H67355   9.180   7.071   9.974  0.7161 -0.5730 -0.4867
  499MOL0     H67356   9.337   7.009  10.017  0.0729  2.8776 -0.8009
  499MOL0     H67357   9.113   7.113  10.200 -0.7829 -2.3010  0.2626
  499MOL0     H67358   9.273   7.179  10.173  1.1310  0.1217  1.5856
  499MOL0     H67359   9.283   7.057  10.387 -1.5217 -0.3810 -0.0308
  499MOL0     H67360   9.216   6.918  10.327  2.5066 -1.5090 -0.0641
  499MOL0     H67361   9.625   6.867  10.205 -1.4652 -3.0092 -1.4522
  499MOL0     H67362   8.867   6.948  10.210 -1.4205 -0.5556  1.2792
  499MOL0     H67363   8.548   7.025  10.142  1.0773 -2.8383 -1.6030
  499MOL0     H67364   8.687   7.067  10.261  0.5267 -0.7937  0.5168
  499MOL0     H67365   8.627   7.179  10.139 -3.3668 -0.5587  0.5286
  500MOL0     O67366   6.544   4.463   4.815  0.2102  0.2717  0.6573
  500MOL0     C67367   6.562   4.553   4.736 -0.4753  0.9625  0.6219
  500MOL0     O67368   6.502   4.552   4.605  0.4036 -0.1161 -0.2196
  500MOL0     C67369   6.443   4.432   4.578  0.0701  0.3339  0.4536
  500MOL0     C67370   6.515   4.312   4.564 -0.6104  0.9746 -0.7218
  500MOL0     C67371   6.450   4.193   4.544  0.2045  0.2546 -0.4514
  500MOL0     C67372   6.317   4.194   4.507 -0.0807 -0.4013 -0.5519
  500MOL0     O67373   6.258   4.072   4.472  0.1453  0.1852 -0.2482
  500MOL0     C67374   6.147   4.066   4.377  0.3029  0.4296 -0.4049
  500MOL0     C67375   6.141   3.930   4.319  0.4165 -0.0659  0.5165
  500MOL0     C67376   6.011   3.906   4.226  0.9906  0.3781  1.0520
  500MOL0     C67377   6.010   4.006   4.107  0.5851 -0.6517  0.4978
  500MOL0     C67378   5.893   3.980   4.009 -0.8003 -0.1722  0.3621
  500MOL0     C67379   5.918   4.073   3.888 -0.3635  0.2125  0.2499
  500MOL0     C67380   5.807   4.075   3.783  0.6933  0.7421 -0.4756
  500MOL0     C67381   5.766   3.928   3.751  0.4180 -0.6090  1.6406
  500MOL0     N67382   5.863   3.891   3.657 -0.9811 -0.6138  0.1291
  500MOL0     C67383   5.867   3.936   3.531  0.0500  0.4705 -0.2572
  500MOL0     C67384   5.980   3.887   3.475  0.1883  0.1850  0.8578
  500MOL0     C67385   6.020   3.904   3.333 -0.7385  0.3253 -0.9784
  500MOL0     C67386   6.107   4.027   3.316  0.0697 -0.3005 -1.1844
  500MOL0     C67387   6.170   4.036   3.181 -0.0722 -0.0450  0.2293
  500MOL0     C67388   6.299   4.112   3.176  0.8402 -0.0103 -0.5378
  500MOL0     O67389   6.336   4.134   3.032 -0.1748 -0.0618  0.2205
  500MOL0     C67390   6.462   4.189   3.009  0.5212  0.2020  0.4562
  500MOL0     C67391   6.509   4.197   2.879 -0.1060 -0.5301 -0.0621
  500MOL0     C67392   6.635   4.252   2.855  0.5793  0.9205 -0.2328
  500MOL0     C67393   6.733   4.282   2.956  0.3434 -0.2777  0.4421
  500MOL0     C67394   6.878   4.317   2.919  0.3567 -0.3333  1.3621
  500MOL0     O67395   6.960   4.348   3.024  0.9897  0.2948 -0.1995
  500MOL0     C67396   7.092   4.389   2.997  0.2649  0.8149 -0.1214
  500MOL0     C67397   7.171   4.349   2.886  0.2205  0.2200  0.1261
  500MOL0     C67398   7.305   4.374   2.874 -0.5538 -0.3713 -0.1143
  500MOL0     C67399   7.370   4.458   2.964 -0.2171 -0.7177  0.4920
  500MOL0     O67400   7.507   4.492   2.954 -0.2613 -0.9957 -0.2102
  500MOL0     C67401   7.553   4.612   3.007  1.0101  0.2219  0.4895
  500MOL0     C67402   7.686   4.642   2.955  0.4557  0.0810 -0.2347
  500MOL0     C67403   7.758   4.767   3.016  0.9161  0.6531 -0.3213
  500MOL0     C67404   7.897   4.787   2.965 -1.5270 -0.7279  0.0076
  500MOL0     C67405   7.971   4.900   3.041  0.7002  0.8648 -0.2540
  500MOL0     C67406   8.120   4.908   3.024 -0.0994 -0.4681  2.3470
  500MOL0     C67407   8.172   5.047   3.059  0.4231 -0.6005 -0.2446
  500MOL0     C67408   8.324   5.048   3.067  0.0304 -1.6453 -0.1969
  500MOL0    Cl67409   8.414   5.062   2.914  0.4789  0.4995 -0.3389
  500MOL0     C67410   7.293   4.496   3.076 -0.6372 -0.3503  0.1956
  500MOL0     C67411   7.159   4.465   3.094 -0.4005 -0.4571  0.6553
  500MOL0     O67412   6.905   4.334   2.800  0.3638 -0.0261 -0.1738
  500MOL0     C67413   6.689   4.280   3.093 -0.4289  0.5370  0.1464
  500MOL0     C67414   6.551   4.231   3.110 -0.1761 -0.3152  0.4275
  500MOL0     N67415   6.046   3.819   3.572  0.4388  0.1732  0.6593
  500MOL0     N67416   5.977   3.819   3.679 -0.7232  0.3591  0.7295
  500MOL0     C67417   6.249   4.323   4.501 -0.8638  0.1338 -0.6441
  500MOL0     C67418   6.312   4.438   4.535 -0.0641  1.6915 -0.0560
  500MOL0     C67419   6.677   4.638   4.764 -0.0166  0.1987  0.3462
  500MOL0     C67420   6.762   4.678   4.658 -0.0452 -0.6803  0.0704
  500MOL0     C67421   6.875   4.762   4.681 -0.2376  0.3092  1.0148
  500MOL0     C67422   6.901   4.799   4.809  0.3947 -0.3608 -0.2557
  500MOL0     O67423   7.005   4.886   4.813 -0.5457  0.1425  0.3758
  500MOL0     C67424   6.986   4.999   4.891 -0.6802  0.8112 -0.5334
  500MOL0     C67425   7.118   5.081   4.884  0.6419 -0.0142 -0.4352
  500MOL0     C67426   7.247   5.009   4.915  0.5605  0.8746  0.2269
  500MOL0     C67427   7.369   5.096   4.880  0.8459  0.4004 -0.1227
  500MOL0     C67428   7.403   5.110   4.739  0.4068  1.3480  0.7012
  500MOL0     C67429   7.426   5.133   4.625  0.0840  0.8348  0.2618
  500MOL0     C67430   6.820   4.759   4.920 -0.3495 -0.7329  0.0476
  500MOL0     C67431   6.710   4.676   4.898 -0.3282 -0.0849  0.4943
  500MOL0     C67432   6.607   4.648   5.018  0.2034  0.7056  0.3857
  500MOL0     H67433   6.623   4.311   4.573 -0.4045  0.7481 -2.7321
  500MOL0     H67434   6.505   4.100   4.529 -1.1337 -0.7569  0.5760
  500MOL0     H67435   6.060   4.103   4.434 -0.3320 -0.5119 -0.7329
  500MOL0     H67436   6.168   4.137   4.297  2.4072 -0.9696 -1.1402
  500MOL0     H67437   6.129   3.868   4.408  0.8335 -1.8108 -0.5849
  500MOL0     H67438   6.235   3.910   4.268  2.2483  0.6140  3.4035
  500MOL0     H67439   5.927   3.909   4.297 -0.1591 -0.9811 -0.1779
  500MOL0     H67440   6.010   3.809   4.176 -1.2461  2.4196 -3.4814
  500MOL0     H67441   6.013   4.112   4.130  2.0134 -0.7893  1.0317
  500MOL0     H67442   6.111   3.992   4.066  1.2007 -0.6453  1.9599
  500MOL0     H67443   5.891   3.873   3.986 -0.3837 -0.7642  2.8794
  500MOL0     H67444   5.792   3.999   4.046 -1.8100 -2.9764 -0.6468
  500MOL0     H67445   5.937   4.175   3.923 -2.1246  0.4791  0.4769
  500MOL0     H67446   6.009   4.045   3.833 -2.2284  1.6611 -3.9689
  500MOL0     H67447   5.835   4.130   3.693 -0.0082  0.0752 -1.1188
  500MOL0     H67448   5.721   4.124   3.830  1.2365  0.8703  0.4087
  500MOL0     H67449   5.763   3.865   3.840  3.7420 -0.5335  1.8986
  500MOL0     H67450   5.667   3.913   3.706  0.5584  1.8074  0.3338
  500MOL0     H67451   5.800   4.006   3.482  2.0406  0.5201 -3.1866
  500MOL0     H67452   6.083   3.819   3.304 -0.9623 -0.8103  1.6335
  500MOL0     H67453   5.935   3.909   3.263 -1.3094 -0.3806 -0.3627
  500MOL0     H67454   6.063   4.125   3.333  1.8296 -0.0008  2.6480
  500MOL0     H67455   6.176   4.017   3.400 -0.1303 -1.5855 -1.1497
  500MOL0     H67456   6.093   4.075   3.115 -0.6851  0.2317  1.1024
  500MOL0     H67457   6.194   3.931   3.158 -1.6589 -1.0912  2.9099
  500MOL0     H67458   6.381   4.054   3.220 -1.5362 -3.4790 -0.2678
  500MOL0     H67459   6.290   4.205   3.233 -0.1990  0.1090 -0.8830
  500MOL0     H67460   6.448   4.172   2.793  3.0501 -1.3958 -2.2262
  500MOL0     H67461   6.661   4.263   2.750 -3.3475  1.2554 -1.3053
  500MOL0     H67462   7.136   4.270   2.820  1.0881 -1.0828  1.1799
  500MOL0     H67463   7.359   4.327   2.793  0.3471  0.9881 -0.3337
  500MOL0     H67464   7.494   4.696   2.968  1.0581  0.0098 -0.0577
  500MOL0     H67465   7.547   4.616   3.116 -2.9406  4.9755  0.4502
  500MOL0     H67466   7.748   4.555   2.980 -2.5712 -1.7888  1.3162
  500MOL0     H67467   7.672   4.659   2.848  0.5195  1.3254 -0.0502
  500MOL0     H67468   7.688   4.847   2.991 -1.8985 -1.7926 -0.8063
  500MOL0     H67469   7.771   4.755   3.124 -0.9704  3.0644  0.2655
  500MOL0     H67470   7.897   4.796   2.856 -3.0087  3.0514  0.1660
  500MOL0     H67471   7.950   4.696   2.995 -3.5390 -1.2752  2.1628
  500MOL0     H67472   7.950   4.895   3.149 -1.8537  1.4509 -0.6772
  500MOL0     H67473   7.918   4.988   3.005  0.9392  0.9433 -0.4103
  500MOL0     H67474   8.166   4.815   3.059 -2.5251 -2.2248  1.1874
  500MOL0     H67475   8.137   4.899   2.917  0.7111  4.9635  1.7803
  500MOL0     H67476   8.121   5.071   3.152 -0.3914 -3.5053  0.1504
  500MOL0     H67477   8.131   5.116   2.984 -2.8793 -2.9726 -0.8211
  500MOL0     H67478   8.361   5.142   3.109 -2.3638 -0.2210 -1.0428
  500MOL0     H67479   8.361   4.975   3.140  1.4037  2.5240  3.7254
  500MOL0     H67480   7.333   4.561   3.153  3.4676 -1.6698 -0.6207
  500MOL0     H67481   7.100   4.484   3.183 -3.7140 -4.0101 -0.4967
  500MOL0     H67482   6.755   4.325   3.167  1.2600 -0.1193 -0.9056
  500MOL0     H67483   6.523   4.220   3.214  0.6474 -0.9902  0.5891
  500MOL0     H67484   6.151   4.338   4.457 -1.0388  5.9345  0.9869
  500MOL0     H67485   6.262   4.531   4.511 -2.0562  0.3257 -1.5905
  500MOL0     H67486   6.744   4.653   4.553  0.0265  2.3549 -0.7595
  500MOL0     H67487   6.942   4.792   4.601  0.1958  0.1274  1.3076
  500MOL0     H67488   6.958   4.967   4.992  0.3193 -1.5820 -0.9430
  500MOL0     H67489   6.907   5.064   4.851 -1.4513  0.8416  0.9641
  500MOL0     H67490   7.116   5.168   4.951  0.4673  0.0817 -0.5651
  500MOL0     H67491   7.124   5.120   4.782  2.3834 -0.9144 -0.7109
  500MOL0     H67492   7.259   4.909   4.873  2.7416 -0.3918  3.4373
  500MOL0     H67493   7.236   5.000   5.024  0.4295  0.3232  0.1698
  500MOL0     H67494   7.341   5.196   4.915 -0.1171  1.0003 -2.4708
  500MOL0     H67495   7.456   5.052   4.931  2.0665  3.2026  0.4454
  500MOL0     H67496   7.440   5.157   4.522  0.6251  2.1044  0.6064
  500MOL0     H67497   6.847   4.791   5.020  0.3138  2.2791 -0.9774
  500MOL0     H67498   6.608   4.542   5.046  3.7026  0.2662 -0.9293
  500MOL0     H67499   6.634   4.704   5.108  1.2626 -0.3902  0.7767
  500MOL0     H67500   6.503   4.674   4.994  1.4286  1.8828 -4.8713
  501MOL0     O67501   8.291   0.362   8.790 -0.0980 -0.5053 -0.2975
  501MOL0     C67502   8.252   0.283   8.869 -0.2722 -0.1362 -0.6863
  501MOL0     O67503   8.208   0.309   8.995 -0.2110  0.3755  0.2855
  501MOL0     C67504   8.173   0.435   9.032  0.9430  0.3759 -0.6855
  501MOL0     C67505   8.255   0.511   9.120 -0.3578 -0.7714 -0.1978
  501MOL0     C67506   8.216   0.642   9.150 -0.5965 -0.9306 -0.8733
  501MOL0     C67507   8.099   0.701   9.098  0.4914  0.4298 -0.1495
  501MOL0     O67508   8.070   0.834   9.114 -0.7878  0.6348  0.1703
  501MOL0     C67509   8.061   0.880   9.250 -0.3812 -0.2806  0.0356
  501MOL0     C67510   8.034   1.040   9.249 -0.4667  0.5096  0.4265
  501MOL0     C67511   7.899   1.065   9.191 -0.8023  0.5245 -0.1233
  501MOL0     C67512   7.870   1.207   9.168 -0.9488 -0.2366  0.3694
  501MOL0     C67513   7.728   1.234   9.127  1.0734 -0.4785 -0.1876
  501MOL0     C67514   7.645   1.271   9.249  0.0043 -0.4224 -0.0404
  501MOL0     C67515   7.504   1.309   9.211  0.0188  0.1130 -0.1956
  501MOL0     C67516   7.429   1.180   9.172  0.8787  0.2918 -0.1655
  501MOL0     N67517   7.285   1.196   9.135  0.4482 -0.9037  0.0484
  501MOL0     C67518   7.171   1.226   9.215 -0.5394 -0.7770 -0.5980
  501MOL0     C67519   7.073   1.251   9.130  0.3104  0.5530  0.5915
  501MOL0     C67520   6.927   1.293   9.160  0.0013  0.6369 -0.1948
  501MOL0     C67521   6.848   1.173   9.211  0.1580 -0.6842  0.1876
  501MOL0     C67522   6.817   1.072   9.106  0.6499  1.1296  0.9608
  501MOL0     C67523   6.941   0.989   9.061  0.7539  0.5415 -0.2747
  501MOL0     O67524   6.899   0.857   9.023  0.2936 -0.2179 -0.6129
  501MOL0     C67525   7.004   0.761   8.996 -0.2557 -0.4787 -0.2508
  501MOL0     C67526   6.966   0.633   8.979 -0.7602 -0.0247  0.0470
  501MOL0     C67527   7.069   0.537   8.959  0.6759  0.2440 -0.5932
  501MOL0     C67528   7.206   0.573   8.940 -0.2629 -0.7836 -0.6102
  501MOL0     C67529   7.313   0.480   8.920 -0.6262  0.1027  0.1074
  501MOL0     O67530   7.422   0.524   8.851  0.6071  1.0366 -0.2379
  501MOL0     C67531   7.532   0.442   8.839  0.6936  0.0671  0.8027
  501MOL0     C67532   7.574   0.335   8.920  1.1225  0.3087 -0.6042
  501MOL0     C67533   7.676   0.250   8.887 -0.0923 -0.1797 -0.4609
  501MOL0     C67534   7.759   0.281   8.780  0.6087 -0.3287  0.0320
  501MOL0     O67535   7.876   0.211   8.747 -0.6628 -0.1301 -0.0310
  501MOL0     C67536   7.899   0.078   8.788 -0.4525  0.6811 -0.8670
  501MOL0     C67537   7.812  -0.024   8.728 -0.7680 -0.1311 -0.0900
  501MOL0     C67538   7.845  -0.165   8.783 -0.3055 -0.8833 -0.5006
  501MOL0     C67539   8.001  -0.195   8.781 -0.1250  0.2130 -0.7238
  501MOL0     C67540   8.033  -0.344   8.792 -0.3450 -0.1511 -0.4341
  501MOL0     C67541   8.036  -0.387   8.932 -0.0060  0.7539  0.2541
  501MOL0     C67542   8.051  -0.536   8.934  0.4592  0.1887  0.4104
  501MOL0     C67543   8.059  -0.597   9.067 -0.3941 -0.5365  0.5811
  501MOL0    Cl67544   8.219  -0.537   9.140  0.4422  0.3925 -0.4624
  501MOL0     C67545   7.725   0.397   8.707 -0.8196 -0.4052 -0.1815
  501MOL0     C67546   7.611   0.475   8.732 -0.0735 -0.2617  0.6262
  501MOL0     O67547   7.290   0.367   8.967  0.6812  1.6376  0.1416
  501MOL0     C67548   7.243   0.712   8.947  0.4655 -0.3512 -0.1403
  501MOL0     C67549   7.136   0.797   8.971 -0.0831 -0.1517  0.0466
  501MOL0     N67550   7.123   1.240   8.999 -0.1020 -1.2182  0.4606
  501MOL0     N67551   7.243   1.195   9.008  0.0017 -0.1463  0.7950
  501MOL0     C67552   8.024   0.626   9.008 -0.4141 -0.3007 -0.8676
  501MOL0     C67553   8.063   0.497   8.972 -0.0384 -0.1244 -0.2040
  501MOL0     C67554   8.270   0.144   8.832 -0.7082 -0.2271  0.2597
  501MOL0     C67555   8.293   0.045   8.932  0.1009  0.0697 -0.3258
  501MOL0     C67556   8.321  -0.086   8.905  0.3522  0.1329 -0.0833
  501MOL0     C67557   8.333  -0.129   8.770  0.6846 -0.0897 -0.8604
  501MOL0     O67558   8.357  -0.261   8.747 -0.1833  0.4932  0.6160
  501MOL0     C67559   8.404  -0.355   8.849  0.2853  0.4131 -0.3391
  501MOL0     C67560   8.551  -0.334   8.871  0.0638  0.0929 -0.2967
  501MOL0     C67561   8.623  -0.326   8.731 -0.6911  0.0381  0.1484
  501MOL0     C67562   8.768  -0.297   8.768  0.0966 -0.1872 -0.4241
  501MOL0     C67563   8.851  -0.291   8.647  0.7327 -0.8881  0.8581
  501MOL0     C67564   8.924  -0.290   8.545 -0.6954 -0.3899  0.5974
  501MOL0     C67565   8.323  -0.038   8.670  0.7687 -0.2062 -0.1312
  501MOL0     C67566   8.283   0.096   8.699  0.1145 -0.0976  0.3727
  501MOL0     C67567   8.270   0.180   8.578 -0.0007 -0.2959 -0.2304
  501MOL0     H67568   8.353   0.481   9.156 -0.6053 -1.3113  0.0298
  501MOL0     H67569   8.283   0.704   9.209 -0.1910 -0.7608 -1.5038
  501MOL0     H67570   7.973   0.833   9.295  0.8517 -1.1664  1.6256
  501MOL0     H67571   8.149   0.853   9.309 -0.1558  2.4336  1.0574
  501MOL0     H67572   8.110   1.094   9.193 -2.8155  1.7866 -1.7256
  501MOL0     H67573   8.033   1.080   9.351  3.0471  4.8489 -0.9465
  501MOL0     H67574   7.829   1.016   9.260 -0.6332  1.9715  1.1312
  501MOL0     H67575   7.887   1.013   9.096 -0.8251 -2.1293  1.2409
  501MOL0     H67576   7.893   1.265   9.258  2.3216 -2.1288  0.9340
  501MOL0     H67577   7.943   1.254   9.100 -0.8301 -0.3290  0.4314
  501MOL0     H67578   7.726   1.322   9.063 -0.1677  0.1685  0.7037
  501MOL0     H67579   7.682   1.145   9.083  2.1144 -2.6735  2.8429
  501MOL0     H67580   7.640   1.184   9.315  0.3205  0.5130  1.2705
  501MOL0     H67581   7.698   1.345   9.309  1.0574 -1.0758 -0.1300
  501MOL0     H67582   7.527   1.376   9.127 -0.2362  2.4002  1.4733
  501MOL0     H67583   7.447   1.360   9.289  2.2647  2.6386 -0.0315
  501MOL0     H67584   7.465   1.126   9.083 -0.7555  0.5523 -1.0095
  501MOL0     H67585   7.427   1.123   9.265 -3.5091  0.8406  0.2707
  501MOL0     H67586   7.178   1.241   9.322  2.9517 -1.1082 -0.6679
  501MOL0     H67587   6.932   1.367   9.240  0.8503 -1.4009  1.7649
  501MOL0     H67588   6.881   1.327   9.067  1.8409 -1.7032 -2.0917
  501MOL0     H67589   6.892   1.141   9.306  1.8335  1.9931  0.4301
  501MOL0     H67590   6.751   1.211   9.242  0.2983 -0.5150  0.4211
  501MOL0     H67591   6.768   1.118   9.020 -3.9942  1.0218  3.2534
  501MOL0     H67592   6.737   1.006   9.141  2.2525 -0.7959  1.1837
  501MOL0     H67593   7.000   0.985   9.153 -2.4639 -0.3690  1.9358
  501MOL0     H67594   6.984   1.038   8.974 -2.0740 -0.4618 -2.3906
  501MOL0     H67595   6.864   0.597   8.983 -0.3491 -1.1663  0.5288
  501MOL0     H67596   7.056   0.430   8.944  1.4731  0.1650 -0.7704
  501MOL0     H67597   7.507   0.297   8.997  0.1923  1.7010 -0.6760
  501MOL0     H67598   7.700   0.156   8.936 -4.5130 -2.2560 -1.8072
  501MOL0     H67599   8.003   0.058   8.760  0.4320  1.0211  1.8518
  501MOL0     H67600   7.900   0.063   8.896 -1.0317  2.1739 -0.6201
  501MOL0     H67601   7.704  -0.012   8.734 -0.8346 -1.1167  1.4193
  501MOL0     H67602   7.838  -0.024   8.622  2.1688 -1.6323  0.5169
  501MOL0     H67603   7.803  -0.177   8.884 -0.5941 -1.2331 -0.6655
  501MOL0     H67604   7.809  -0.240   8.713  0.0255 -1.6289  0.1097
  501MOL0     H67605   8.043  -0.146   8.869 -0.9646 -0.8820  0.3309
  501MOL0     H67606   8.055  -0.152   8.696  0.6947  1.4673  0.4018
  501MOL0     H67607   8.126  -0.364   8.739  0.6382  2.6103  0.0984
  501MOL0     H67608   7.953  -0.401   8.743 -0.7252 -1.1237  1.2363
  501MOL0     H67609   8.111  -0.338   8.995  0.4232  1.0692 -0.4883
  501MOL0     H67610   7.933  -0.373   8.964 -0.8212 -2.1022 -0.7319
  501MOL0     H67611   8.139  -0.566   8.878  0.4966 -0.4126  0.7836
  501MOL0     H67612   7.969  -0.588   8.884  0.7300  0.1448  0.0144
  501MOL0     H67613   7.977  -0.566   9.132 -1.1469  2.2549 -1.4782
  501MOL0     H67614   8.061  -0.706   9.067 -2.7599 -0.6809  2.8724
  501MOL0     H67615   7.778   0.437   8.622  2.5517 -0.3283  1.7669
  501MOL0     H67616   7.590   0.552   8.659  2.8618 -2.2942 -2.6808
  501MOL0     H67617   7.338   0.756   8.920 -0.0355  0.1404 -1.1538
  501MOL0     H67618   7.163   0.902   8.961 -1.3510 -0.0335 -4.6580
  501MOL0     H67619   7.929   0.664   8.972  0.3077  1.9023 -0.6093
  501MOL0     H67620   7.990   0.440   8.916 -1.7424 -0.6091  2.3227
  501MOL0     H67621   8.283   0.069   9.037 -2.4000 -1.0987 -0.2262
  501MOL0     H67622   8.320  -0.157   8.987 -0.2429 -1.3980 -1.3693
  501MOL0     H67623   8.397  -0.455   8.805  1.6065  0.1426  0.0374
  501MOL0     H67624   8.342  -0.367   8.939 -0.7161 -1.5627 -1.2121
  501MOL0     H67625   8.596  -0.417   8.926  0.1263 -1.2260 -2.2586
  501MOL0     H67626   8.569  -0.242   8.928 -1.4444 -0.5379  1.3051
  501MOL0     H67627   8.592  -0.247   8.663 -0.7397 -2.0462 -2.4093
  501MOL0     H67628   8.611  -0.422   8.679 -1.7977 -1.0608  2.2641
  501MOL0     H67629   8.780  -0.205   8.827  0.5534 -1.2771  1.2310
  501MOL0     H67630   8.803  -0.385   8.822 -2.1923  0.6046  2.6264
  501MOL0     H67631   8.995  -0.295   8.465  0.5004 -1.3869  1.6636
  501MOL0     H67632   8.343  -0.062   8.567  0.0878 -1.0921 -0.0597
  501MOL0     H67633   8.188   0.251   8.585 -1.5204 -2.1399  2.4683
  501MOL0     H67634   8.373   0.213   8.561  0.1385  0.2467  1.4851
  501MOL0     H67635   8.243   0.129   8.485  0.8392 -1.5279  0.1668
  502MOL0     O67636   5.885   6.645   6.428 -0.3574 -0.2393  0.2215
  502MOL0     C67637   5.967   6.583   6.497  0.0570 -0.1000  0.4237
  502MOL0     O67638   5.956   6.450   6.538 -0.1514  0.1462  0.1189
  502MOL0     C67639   5.840   6.381   6.502  0.1190 -0.1611  0.5211
  502MOL0     C67640   5.709   6.423   6.536  0.1623  0.3101 -0.3508
  502MOL0     C67641   5.593   6.343   6.506 -0.1542 -0.9991 -0.9802
  502MOL0     C67642   5.606   6.220   6.437  0.4599  0.2282  0.4740
  502MOL0     O67643   5.504   6.138   6.399  1.0335  0.2076  0.1370
  502MOL0     C67644   5.392   6.126   6.487  0.2966 -0.0758 -0.6989
  502MOL0     C67645   5.304   6.022   6.419  0.4979  0.4306  0.8242
  502MOL0     C67646   5.385   5.902   6.349 -0.6381  0.2449 -1.6749
  502MOL0     C67647   5.412   5.800   6.459  0.3990  0.7827 -0.0365
  502MOL0     C67648   5.492   5.678   6.411 -1.1271 -0.0087  0.3373
  502MOL0     C67649   5.641   5.709   6.377 -0.0018  0.5585  0.4364
  502MOL0     C67650   5.725   5.735   6.501  0.0873  0.1201 -0.4248
  502MOL0     C67651   5.869   5.765   6.457  0.2668  0.6773 -0.4482
  502MOL0     N67652   5.945   5.839   6.561  0.4003  0.6747  0.0739
  502MOL0     C67653   6.012   5.772   6.664  0.3920  0.5748  0.0572
  502MOL0     C67654   6.111   5.854   6.715  0.4277  0.2152  0.8801
  502MOL0     C67655   6.179   5.832   6.841 -0.7457  0.1861 -0.5829
  502MOL0     C67656   6.318   5.889   6.845  0.3775 -0.6238 -0.0725
  502MOL0     C67657   6.315   6.041   6.883 -0.1300 -0.1744 -0.1064
  502MOL0     C67658   6.457   6.083   6.937  0.5001 -0.2636 -0.0250
  502MOL0     O67659   6.561   6.013   6.862  0.8274 -0.1281  0.3649
  502MOL0     C67660   6.687   6.032   6.920 -0.8231  0.0627  0.4348
  502MOL0     C67661   6.781   5.941   6.863  0.0396  0.6547  0.2530
  502MOL0     C67662   6.906   5.943   6.920 -0.0603  0.7944 -0.3990
  502MOL0     C67663   6.939   6.024   7.031 -0.6487  0.6573  0.2132
  502MOL0     C67664   7.070   6.015   7.098  0.7961  0.0878  0.0742
  502MOL0     O67665   7.069   6.061   7.233  1.1923  0.8152  0.2055
  502MOL0     C67666   7.170   6.070   7.314 -0.9093 -0.6050 -0.3497
  502MOL0     C67667   7.173   5.972   7.418  0.1846 -0.0845 -0.2554
  502MOL0     C67668   7.272   5.973   7.509 -0.4590 -0.6182 -0.4376
  502MOL0     C67669   7.382   6.061   7.502 -0.0743 -1.1570  0.0723
  502MOL0     O67670   7.478   6.055   7.610  0.2358 -0.5235 -0.1909
  502MOL0     C67671   7.590   6.149   7.606  0.5185 -0.1287 -0.2935
  502MOL0     C67672   7.704   6.102   7.518  0.2353 -0.0112 -0.8087
  502MOL0     C67673   7.780   5.970   7.569 -0.1156  0.6807  0.5232
  502MOL0     C67674   7.700   5.837   7.594  0.3574  0.3130  0.7490
  502MOL0     C67675   7.642   5.792   7.458 -0.5959 -0.3131  0.4571
  502MOL0     C67676   7.552   5.668   7.482  0.9776  0.3866 -1.3189
  502MOL0     C67677   7.509   5.599   7.352 -0.1048 -0.1165  0.4793
  502MOL0     C67678   7.414   5.487   7.371  0.5930  0.0302 -0.5048
  502MOL0    Cl67679   7.365   5.434   7.206 -0.0466  0.5959 -0.5310
  502MOL0     C67680   7.396   6.143   7.389 -0.0037 -0.2258  0.6624
  502MOL0     C67681   7.283   6.150   7.296 -0.6825 -0.9480  0.0840
  502MOL0     O67682   7.173   5.972   7.043 -0.2757 -0.5015 -0.5060
  502MOL0     C67683   6.842   6.116   7.085 -0.9487  0.8220 -0.5092
  502MOL0     C67684   6.721   6.109   7.030  0.0221  0.2660  0.0036
  502MOL0     N67685   6.101   5.969   6.645  0.3558  0.3601 -0.1310
  502MOL0     N67686   6.010   5.955   6.551  0.2407 -0.6053  0.1375
  502MOL0     C67687   5.741   6.183   6.413 -0.6257  1.2165 -0.8241
  502MOL0     C67688   5.855   6.252   6.454 -0.0470  0.5564  0.4934
  502MOL0     C67689   6.086   6.655   6.535 -0.0954  0.4371 -0.0986
  502MOL0     C67690   6.194   6.578   6.574 -0.0880 -0.8565  0.3598
  502MOL0     C67691   6.303   6.628   6.640 -0.2641 -0.6568  0.4486
  502MOL0     C67692   6.315   6.765   6.665 -0.7393  0.4967 -0.0953
  502MOL0     O67693   6.418   6.818   6.732  0.4424  0.7204 -0.1641
  502MOL0     C67694   6.536   6.738   6.758  0.0523 -0.1513  0.6260
  502MOL0     C67695   6.646   6.832   6.807  0.3418  0.5454 -0.0010
  502MOL0     C67696   6.612   6.898   6.942  0.4309 -0.2787 -1.0768
  502MOL0     C67697   6.737   6.937   7.017 -1.1185  0.0425 -0.4703
  502MOL0     C67698   6.828   7.025   6.941 -0.2682 -0.2510 -1.0846
  502MOL0     C67699   6.904   7.103   6.888  0.3993  0.6370 -0.5928
  502MOL0     C67700   6.215   6.847   6.607 -0.0614  0.3311 -0.0732
  502MOL0     C67701   6.097   6.792   6.547 -0.3309 -0.3258  0.5716
  502MOL0     C67702   5.992   6.897   6.518 -0.0040 -0.1433  0.3548
  502MOL0     H67703   5.702   6.505   6.606 -3.1539 -0.8904  0.9704
  502MOL0     H67704   5.496   6.389   6.524 -0.8983 -1.6968 -2.9711
  502MOL0     H67705   5.422   6.098   6.589 -1.7097  0.0339 -0.0382
  502MOL0     H67706   5.331   6.217   6.492  3.3796  2.1432 -0.2013
  502MOL0     H67707   5.248   6.083   6.348  1.0281 -0.9278 -0.8365
  502MOL0     H67708   5.238   5.982   6.496  2.3778 -1.3362  1.6201
  502MOL0     H67709   5.475   5.944   6.305  1.6486 -0.7872  1.6475
  502MOL0     H67710   5.334   5.862   6.261  0.4117 -0.5971 -1.9207
  502MOL0     H67711   5.460   5.848   6.545  2.2112 -2.3492  0.8687
  502MOL0     H67712   5.325   5.757   6.510  2.4103 -1.5039  1.6833
  502MOL0     H67713   5.499   5.595   6.483  2.3715 -1.7919 -1.7730
  502MOL0     H67714   5.447   5.638   6.320  1.7642 -3.4287  0.1661
  502MOL0     H67715   5.685   5.624   6.323  1.9090 -0.4215  3.2796
  502MOL0     H67716   5.642   5.795   6.309 -1.4878 -0.2902 -0.7232
  502MOL0     H67717   5.718   5.665   6.585 -0.1372  0.8471  0.1770
  502MOL0     H67718   5.679   5.820   6.553  2.8665  1.6206 -0.2298
  502MOL0     H67719   5.925   5.672   6.444  0.4944  0.3969  2.0565
  502MOL0     H67720   5.868   5.821   6.363 -1.3901  1.7748  0.1782
  502MOL0     H67721   5.986   5.680   6.715  1.6085  0.9535  1.4157
  502MOL0     H67722   6.113   5.876   6.917  0.2071 -0.4962  0.6814
  502MOL0     H67723   6.187   5.724   6.853  0.7616  0.3581  0.1337
  502MOL0     H67724   6.375   5.836   6.922  1.3574  2.0808  1.2014
  502MOL0     H67725   6.375   5.859   6.756 -0.1395 -0.2800 -0.5207
  502MOL0     H67726   6.240   6.065   6.959  2.5096  0.5210  2.4876
  502MOL0     H67727   6.290   6.103   6.797  2.1359  1.4150  0.2986
  502MOL0     H67728   6.467   6.048   7.040 -1.2745  1.5680  0.8344
  502MOL0     H67729   6.470   6.190   6.920  0.8075 -0.5433 -1.8172
  502MOL0     H67730   6.755   5.865   6.790 -0.5109 -1.9136  2.9653
  502MOL0     H67731   6.978   5.871   6.881  0.3273  0.8735  0.1533
  502MOL0     H67732   7.088   5.904   7.427 -0.3962  0.7500  0.7768
  502MOL0     H67733   7.265   5.889   7.577  1.1005 -0.9403 -0.6416
  502MOL0     H67734   7.561   6.251   7.578  2.7994  1.9821  3.9536
  502MOL0     H67735   7.631   6.164   7.706  0.2001  3.1032 -0.5385
  502MOL0     H67736   7.680   6.099   7.412  1.6350  2.0076 -1.2426
  502MOL0     H67737   7.787   6.174   7.515  1.1026 -1.0188 -2.0128
  502MOL0     H67738   7.863   5.936   7.506  0.4344 -2.6301  2.7454
  502MOL0     H67739   7.830   5.994   7.663  3.4408 -0.1502 -0.9960
  502MOL0     H67740   7.623   5.839   7.672 -1.0771 -1.0372 -0.5535
  502MOL0     H67741   7.774   5.764   7.626  1.0474  0.8371  0.3923
  502MOL0     H67742   7.732   5.772   7.398  0.4788  1.7291  1.3035
  502MOL0     H67743   7.594   5.876   7.407 -0.8065 -0.8979 -0.3454
  502MOL0     H67744   7.604   5.599   7.548 -1.6495 -0.2306  0.2444
  502MOL0     H67745   7.472   5.706   7.548 -0.0262 -2.5539 -0.6849
  502MOL0     H67746   7.598   5.576   7.294 -0.4427  2.6071 -1.3208
  502MOL0     H67747   7.449   5.672   7.296  3.0879  0.5675 -2.3445
  502MOL0     H67748   7.460   5.411   7.435  0.4498  1.2068  1.0574
  502MOL0     H67749   7.320   5.519   7.417  0.5705 -2.1578  1.1461
  502MOL0     H67750   7.479   6.210   7.372  0.5470 -0.7873  1.1350
  502MOL0     H67751   7.290   6.227   7.221  0.1145  3.0728  3.8526
  502MOL0     H67752   6.858   6.183   7.169 -2.1781 -0.2633  0.6257
  502MOL0     H67753   6.641   6.170   7.072 -1.8299 -0.8250 -1.7796
  502MOL0     H67754   5.754   6.080   6.383  0.9784  1.6264 -1.6454
  502MOL0     H67755   5.953   6.207   6.441 -1.2032 -1.4849 -2.1578
  502MOL0     H67756   6.175   6.472   6.565 -2.9663 -0.5735  1.8677
  502MOL0     H67757   6.377   6.556   6.675 -1.3596 -1.5640  1.0124
  502MOL0     H67758   6.575   6.694   6.666  1.6995 -0.0843  1.2576
  502MOL0     H67759   6.514   6.665   6.836  1.3154 -0.5463  0.6401
  502MOL0     H67760   6.662   6.903   6.725  0.8465 -0.3496 -0.7080
  502MOL0     H67761   6.739   6.774   6.814 -1.2148 -2.7096 -3.1139
  502MOL0     H67762   6.559   6.824   7.003 -0.6619  1.0538 -0.3556
  502MOL0     H67763   6.539   6.979   6.941  1.2935  0.5140 -1.9073
  502MOL0     H67764   6.712   6.995   7.107 -0.6802 -0.1833 -0.1988
  502MOL0     H67765   6.799   6.851   7.044 -2.0022  0.0496  1.8460
  502MOL0     H67766   6.977   7.175   6.859  0.3230  0.8311 -0.3054
  502MOL0     H67767   6.230   6.953   6.623 -2.5920  0.5216  1.5851
  502MOL0     H67768   5.908   6.880   6.586  0.0034 -0.8873  0.1855
  502MOL0     H67769   6.029   6.999   6.535 -0.9053  0.9189 -3.2582
  502MOL0     H67770   5.940   6.899   6.422  1.7352  0.8648 -0.6071
  503MOL0     O67771   8.466   2.396   3.030  0.0469  0.4486 -0.0195
  503MOL0     C67772   8.434   2.503   3.083 -0.6526  0.4516 -0.2869
  503MOL0     O67773   8.398   2.621   3.017  0.9353  0.1174  0.3410
  503MOL0     C67774   8.408   2.631   2.878 -0.1421 -0.6095 -0.4318
  503MOL0     C67775   8.306   2.696   2.799 -0.3331 -0.0747  0.3160
  503MOL0     C67776   8.321   2.689   2.658  0.1574  0.3180  0.6697
  503MOL0     C67777   8.425   2.623   2.594  0.2211  0.0527 -0.0837
  503MOL0     O67778   8.411   2.610   2.458  0.0399 -0.1274  0.5266
  503MOL0     C67779   8.502   2.529   2.391  0.1423 -0.3321 -0.2680
  503MOL0     C67780   8.457   2.501   2.250  1.1482 -0.8143  0.1484
  503MOL0     C67781   8.575   2.460   2.156  0.1237 -0.4002 -0.2484
  503MOL0     C67782   8.612   2.314   2.169  0.1482 -0.0942 -0.6944
  503MOL0     C67783   8.763   2.283   2.188 -0.4441  0.1770 -0.5790
  503MOL0     C67784   8.866   2.332   2.090 -0.1489 -0.1174 -0.0669
  503MOL0     C67785   8.836   2.305   1.947  0.1339  0.4040 -0.3673
  503MOL0     C67786   8.935   2.346   1.841 -0.4831 -0.2501  0.2297
  503MOL0     N67787   9.059   2.269   1.852  1.0787 -1.0604 -0.4538
  503MOL0     C67788   9.168   2.286   1.938 -0.4984 -0.8453 -0.3490
  503MOL0     C67789   9.248   2.181   1.914 -0.0470 -0.5525 -0.1363
  503MOL0     C67790   9.393   2.189   1.958 -1.6308  0.0013  0.3820
  503MOL0     C67791   9.483   2.222   1.832 -0.0412  0.3980  0.4548
  503MOL0     C67792   9.610   2.282   1.879 -1.3284  0.1433  0.0333
  503MOL0     C67793   9.685   2.350   1.769 -0.3274 -0.0931 -0.0721
  503MOL0     O67794   9.828   2.338   1.768  0.0642  0.4801 -0.6621
  503MOL0     C67795   9.898   2.417   1.850 -0.0116 -0.2428  0.0837
  503MOL0     C67796   9.893   2.554   1.812  0.6662 -0.4682  0.3493
  503MOL0     C67797   9.954   2.650   1.892 -0.7939 -0.0077 -0.4658
  503MOL0     C67798  10.043   2.604   1.996  0.5748 -0.1688  0.0141
  503MOL0     C67799  10.108   2.707   2.084  0.0912  0.1579 -0.5207
  503MOL0     O67800  10.203   2.660   2.165 -0.2072  0.6249 -0.4746
  503MOL0     C67801  10.269   2.753   2.241  0.2274  0.1084 -0.2364
  503MOL0     C67802  10.403   2.735   2.268  0.4331 -0.5399 -0.8535
  503MOL0     C67803  10.473   2.823   2.354  1.0292  0.8041 -0.0453
  503MOL0     C67804  10.403   2.930   2.414  0.5987  0.6415 -0.5581
  503MOL0     O67805  10.481   3.017   2.490 -0.2230 -0.5679  0.3992
  503MOL0     C67806  10.415   3.118   2.565 -0.0201  0.2791 -0.1130
  503MOL0     C67807  10.495   3.175   2.674  0.1037 -0.1163  0.5407
  503MOL0     C67808  10.645   3.218   2.644  1.0821  0.3680  0.0791
  503MOL0     C67809  10.740   3.097   2.633 -0.2438 -0.6922 -0.3024
  503MOL0     C67810  10.867   3.130   2.718 -0.8549  0.5431 -0.4645
  503MOL0     C67811  10.979   3.026   2.682 -0.0871  0.0818 -0.7188
  503MOL0     C67812  10.948   2.881   2.720  0.2959  0.5408  1.2258
  503MOL0     C67813  11.061   2.776   2.712  0.4155  0.0728 -0.6636
  503MOL0    Cl67814  11.189   2.842   2.821  0.0239  0.2890  0.0760
  503MOL0     C67815  10.271   2.951   2.387  0.3889  0.1735  0.1131
  503MOL0     C67816  10.198   2.861   2.304 -0.3559 -0.1636 -0.2083
  503MOL0     O67817  10.083   2.829   2.062 -0.9121 -0.5393  0.6128
  503MOL0     C67818  10.056   2.466   2.028 -0.4061  0.1494  0.0371
  503MOL0     C67819   9.980   2.367   1.960 -0.1416  1.0060 -0.3657
  503MOL0     N67820   9.180   2.097   1.830 -0.4125 -0.1436  0.4109
  503MOL0     N67821   9.069   2.155   1.789 -0.2436  0.4968  0.8291
  503MOL0     C67822   8.527   2.567   2.674  0.0942 -0.4551  0.6175
  503MOL0     C67823   8.520   2.581   2.813 -0.2291  0.7031  0.4318
  503MOL0     C67824   8.459   2.522   3.229 -0.0800 -0.8449 -0.5823
  503MOL0     C67825   8.397   2.634   3.293 -0.7127  0.3162 -1.2779
  503MOL0     C67826   8.406   2.652   3.429  1.2649  0.0666  0.8768
  503MOL0     C67827   8.468   2.556   3.514 -0.4150  0.3464 -0.6431
  503MOL0     O67828   8.465   2.570   3.646  0.2986  0.4528  0.9762
  503MOL0     C67829   8.413   2.450   3.708 -1.6218  0.2324 -0.8740
  503MOL0     C67830   8.263   2.427   3.682 -0.2000  0.0885 -0.1644
  503MOL0     C67831   8.173   2.556   3.711 -0.5830  0.0414  0.5875
  503MOL0     C67832   8.197   2.621   3.851 -0.3438 -0.1754  0.1051
  503MOL0     C67833   8.082   2.687   3.918  0.8267  0.6003  0.1569
  503MOL0     C67834   7.992   2.741   3.970 -0.1112 -0.1347 -0.4905
  503MOL0     C67835   8.537   2.456   3.443 -0.2746 -0.2408  0.0806
  503MOL0     C67836   8.544   2.442   3.307  0.0413 -0.2271 -0.1841
  503MOL0     C67837   8.610   2.319   3.251  0.5551  0.1696  0.0297
  503MOL0     H67838   8.230   2.755   2.848  2.3583  3.6813  0.4287
  503MOL0     H67839   8.246   2.754   2.615  0.6176  0.8060  0.5805
  503MOL0     H67840   8.593   2.589   2.394  0.0722 -0.0935 -2.0614
  503MOL0     H67841   8.510   2.433   2.442 -2.6569  0.4803  1.9965
  503MOL0     H67842   8.425   2.589   2.193 -0.6152 -1.2678  0.3882
  503MOL0     H67843   8.379   2.427   2.267  3.2190 -3.6828 -1.9282
  503MOL0     H67844   8.655   2.534   2.162  0.0446 -0.2373 -1.1960
  503MOL0     H67845   8.548   2.472   2.051 -0.0154  0.5163 -0.1163
  503MOL0     H67846   8.555   2.269   2.250 -0.6115 -1.9480 -2.2011
  503MOL0     H67847   8.572   2.255   2.087 -0.1331  1.4172 -1.6921
  503MOL0     H67848   8.789   2.330   2.283  0.8619  0.6039 -1.1177
  503MOL0     H67849   8.763   2.174   2.189 -3.5653  0.0207 -2.6529
  503MOL0     H67850   8.876   2.439   2.106  0.3278  0.0098 -1.1174
  503MOL0     H67851   8.961   2.286   2.119  1.2010  2.7926  0.3867
  503MOL0     H67852   8.738   2.349   1.923 -0.7505  0.7471  3.2616
  503MOL0     H67853   8.833   2.196   1.940 -0.0442  0.4083 -0.3629
  503MOL0     H67854   8.893   2.323   1.743 -0.5374  1.7074 -0.2474
  503MOL0     H67855   8.960   2.452   1.844  2.0194 -0.6714 -2.1660
  503MOL0     H67856   9.194   2.370   2.002  0.9381 -1.3038 -0.3067
  503MOL0     H67857   9.410   2.266   2.034  2.1205 -0.4058  0.1339
  503MOL0     H67858   9.436   2.096   1.996  2.4493  0.9807 -1.2340
  503MOL0     H67859   9.491   2.136   1.765 -0.1964  0.2052  0.6853
  503MOL0     H67860   9.442   2.300   1.768  1.0411  0.4301 -0.2343
  503MOL0     H67861   9.666   2.195   1.915 -2.2378 -1.2310 -1.6958
  503MOL0     H67862   9.599   2.358   1.957 -0.4919  2.7147 -2.1919
  503MOL0     H67863   9.660   2.456   1.767  2.8120  0.7272  0.4670
  503MOL0     H67864   9.652   2.303   1.676  0.1588  0.0901 -0.3398
  503MOL0     H67865   9.827   2.572   1.729  0.3901 -1.6699  0.2915
  503MOL0     H67866   9.936   2.754   1.867  2.1315  0.2984 -1.6497
  503MOL0     H67867  10.458   2.650   2.229  1.3070 -0.6877  0.6612
  503MOL0     H67868  10.580   2.805   2.362  1.0537  0.2375 -1.3121
  503MOL0     H67869  10.376   3.194   2.496 -3.1853 -0.1852  0.9701
  503MOL0     H67870  10.324   3.086   2.617  0.0481 -0.4557 -0.4352
  503MOL0     H67871  10.435   3.256   2.717 -1.3537 -1.5417  1.3160
  503MOL0     H67872  10.504   3.103   2.756  1.7028  1.8232  2.2132
  503MOL0     H67873  10.646   3.276   2.551 -2.9856 -1.4840 -1.3624
  503MOL0     H67874  10.673   3.282   2.727  1.9869  0.4882 -0.3040
  503MOL0     H67875  10.774   3.078   2.531  0.8415 -2.8795  0.3815
  503MOL0     H67876  10.701   3.005   2.678 -0.8946  0.1661  0.9493
  503MOL0     H67877  10.842   3.117   2.824  1.2124 -0.1426 -0.0138
  503MOL0     H67878  10.908   3.231   2.706 -1.2138  0.7365 -0.0943
  503MOL0     H67879  11.007   3.024   2.576 -1.7354 -2.7868 -1.2266
  503MOL0     H67880  11.068   3.050   2.741 -0.1800 -3.6939  1.2951
  503MOL0     H67881  10.865   2.847   2.657  0.0355  0.0823  1.8035
  503MOL0     H67882  10.910   2.895   2.822  1.3240  0.4653  1.6329
  503MOL0     H67883  11.030   2.679   2.751  1.2228  0.4030  0.8705
  503MOL0     H67884  11.090   2.758   2.608 -1.9286 -0.8798 -1.2113
  503MOL0     H67885  10.210   3.032   2.426 -0.2470 -0.2406 -0.0063
  503MOL0     H67886  10.091   2.878   2.294 -0.9686 -3.0490  0.3943
  503MOL0     H67887  10.116   2.439   2.114 -1.7461 -3.1525  0.0851
  503MOL0     H67888   9.972   2.264   1.994  2.7278  1.0871  0.7632
  503MOL0     H67889   8.604   2.505   2.629 -1.1182 -2.0154  0.5805
  503MOL0     H67890   8.607   2.538   2.860  0.1261 -0.8311 -1.4976
  503MOL0     H67891   8.354   2.713   3.232  1.2993  1.6518 -1.0769
  503MOL0     H67892   8.365   2.742   3.474 -1.4280  0.0035 -1.2218
  503MOL0     H67893   8.423   2.451   3.817  0.5068 -0.1600 -1.0269
  503MOL0     H67894   8.465   2.357   3.682 -0.8152 -0.9670  4.0343
  503MOL0     H67895   8.237   2.351   3.755 -0.0569  3.0377  3.2425
  503MOL0     H67896   8.243   2.378   3.586  0.4720 -0.9690  0.2252
  503MOL0     H67897   8.070   2.520   3.706 -1.4917  2.4302 -4.2702
  503MOL0     H67898   8.180   2.636   3.637 -2.2307 -0.4356 -0.1264
  503MOL0     H67899   8.235   2.548   3.923  2.1368  0.9426  0.0334
  503MOL0     H67900   8.269   2.704   3.848 -0.8875  0.2775 -1.7229
  503MOL0     H67901   7.913   2.801   4.011 -1.2526 -3.0025  1.9512
  503MOL0     H67902   8.578   2.380   3.507 -2.7169 -0.5504  1.3750
  503MOL0     H67903   8.543   2.242   3.211  2.3985 -2.3398  1.4862
  503MOL0     H67904   8.671   2.353   3.167  0.8333  2.4875  1.0796
  503MOL0     H67905   8.669   2.273   3.330 -0.4257  2.0804  1.9707
  504MOL0     O67906   2.347   4.477   4.859 -0.1361 -0.2218  0.1056
  504MOL0     C67907   2.420   4.550   4.927  0.2471  0.0306 -0.6724
  504MOL0     O67908   2.394   4.608   5.047  0.1347 -0.4096  0.2612
  504MOL0     C67909   2.269   4.598   5.108 -1.1165  0.1603 -0.0220
  504MOL0     C67910   2.147   4.601   5.045  0.3151 -0.3616  0.1147
  504MOL0     C67911   2.026   4.590   5.123 -0.1303  1.0283 -0.5391
  504MOL0     C67912   2.032   4.542   5.258  0.0339  0.0297 -0.8888
  504MOL0     O67913   1.920   4.497   5.334 -0.6834  0.3232  0.5220
  504MOL0     C67914   1.783   4.488   5.274  0.4058  0.1767 -0.7453
  504MOL0     C67915   1.677   4.443   5.374  0.0420  1.0946  1.0930
  504MOL0     C67916   1.657   4.537   5.487 -0.3179 -0.6838 -1.3357
  504MOL0     C67917   1.614   4.466   5.611  0.4187 -0.0517 -0.1428
  504MOL0     C67918   1.553   4.567   5.720 -0.6316 -0.0491 -0.5724
  504MOL0     C67919   1.658   4.647   5.795  0.9026  0.2486  0.5979
  504MOL0     C67920   1.578   4.720   5.915  0.0839  0.8088  1.3165
  504MOL0     C67921   1.649   4.819   6.003  0.5260 -0.4258  0.2420
  504MOL0     N67922   1.668   4.951   5.940 -0.9178 -1.0729  1.1243
  504MOL0     C67923   1.741   5.048   5.999  0.4075 -0.2866  0.4075
  504MOL0     C67924   1.715   5.169   5.938 -0.3279 -0.4690  0.6004
  504MOL0     C67925   1.773   5.301   5.948  0.3196 -0.2559  0.2086
  504MOL0     C67926   1.750   5.368   6.083  1.1194 -0.1292 -0.0648
  504MOL0     C67927   1.779   5.295   6.215  0.1816  0.6208  0.1943
  504MOL0     C67928   1.932   5.275   6.228  0.4779  0.6607 -0.6756
  504MOL0     O67929   1.978   5.172   6.138  0.1976  0.3350 -0.3008
  504MOL0     C67930   2.110   5.139   6.140  0.3418 -0.8205  0.4171
  504MOL0     C67931   2.150   5.052   6.040  0.5530 -0.5082  0.1684
  504MOL0     C67932   2.285   5.031   6.017 -0.0938 -0.4877 -0.2229
  504MOL0     C67933   2.385   5.098   6.091  0.1454  1.3287 -0.1706
  504MOL0     C67934   2.519   5.055   6.071  0.0679 -0.2397 -0.4122
  504MOL0     O67935   2.608   5.153   6.079 -0.7528 -0.0621  0.3715
  504MOL0     C67936   2.738   5.135   6.036 -0.1419 -0.6160 -0.1323
  504MOL0     C67937   2.807   5.257   6.004 -0.4485  0.4143  0.9463
  504MOL0     C67938   2.949   5.265   5.972  0.4401  0.2565 -0.3357
  504MOL0     C67939   3.017   5.146   5.962 -0.4127 -0.0008  0.0826
  504MOL0     O67940   3.144   5.132   5.909 -0.2799 -0.5453 -0.6943
  504MOL0     C67941   3.232   5.247   5.922  0.2057 -0.4797  0.8549
  504MOL0     C67942   3.374   5.200   5.898  0.5121  0.5531 -0.2399
  504MOL0     C67943   3.421   5.095   6.011  0.4367  0.1647 -0.5156
  504MOL0     C67944   3.566   5.044   5.983 -0.3867  0.4461 -0.4001
  504MOL0     C67945   3.595   4.947   6.099 -1.1395 -0.9983  0.5336
  504MOL0     C67946   3.727   4.874   6.069  0.2198  0.5426  0.5329
  504MOL0     C67947   3.709   4.774   5.944 -0.4533 -0.0964 -0.9080
  504MOL0     C67948   3.684   4.629   5.981 -0.6101  0.3453 -0.3522
  504MOL0    Cl67949   3.606   4.527   5.854 -0.3944  0.3219 -0.4451
  504MOL0     C67950   2.946   5.030   5.985 -0.4134 -0.4238  0.0142
  504MOL0     C67951   2.814   5.020   6.018 -0.4724 -0.8145 -0.3591
  504MOL0     O67952   2.539   4.937   6.025 -0.1494  0.0322 -0.3670
  504MOL0     C67953   2.347   5.196   6.178 -0.3280 -0.0640  0.0421
  504MOL0     C67954   2.212   5.219   6.208  0.0708  0.3715 -0.4727
  504MOL0     N67955   1.605   5.138   5.849  0.2670 -0.1801 -0.3495
  504MOL0     N67956   1.594   5.007   5.848  0.1970 -0.3063 -0.3843
  504MOL0     C67957   2.154   4.527   5.318 -0.7180 -0.5697  0.6351
  504MOL0     C67958   2.271   4.565   5.245  0.3378  0.2086  0.0523
  504MOL0     C67959   2.557   4.581   4.879 -1.4548 -0.1877 -0.4602
  504MOL0     C67960   2.624   4.694   4.923 -0.4088  0.1246  0.8397
  504MOL0     C67961   2.753   4.730   4.874  0.3987 -0.0988  0.3953
  504MOL0     C67962   2.817   4.659   4.780  0.3778 -0.6547 -0.0081
  504MOL0     O67963   2.933   4.710   4.732  0.0353  0.1846  0.0139
  504MOL0     C67964   2.994   4.664   4.613  0.4571  0.3953  0.0215
  504MOL0     C67965   3.067   4.778   4.545  0.3119  0.3074 -0.0909
  504MOL0     C67966   3.156   4.863   4.638  0.6246 -0.3304  0.3923
  504MOL0     C67967   3.223   4.965   4.553 -0.0801  0.2847  0.3961
  504MOL0     C67968   3.308   5.036   4.650  0.1121 -0.2176 -0.0663
  504MOL0     C67969   3.385   5.079   4.732  0.0990  0.3963  1.1113
  504MOL0     C67970   2.754   4.542   4.738 -0.6439  0.8443 -0.1855
  504MOL0     C67971   2.627   4.499   4.789  0.2618  0.6281  0.2449
  504MOL0     C67972   2.582   4.362   4.744  0.4890  0.0713  0.6881
  504MOL0     H67973   2.142   4.628   4.940 -0.2029 -0.3108  0.1529
  504MOL0     H67974   1.934   4.633   5.086 -0.2273  2.8284  1.5503
  504MOL0     H67975   1.740   4.578   5.227 -2.9769  0.5306  2.4855
  504MOL0     H67976   1.787   4.417   5.190  0.7949 -0.3047 -0.3208
  504MOL0     H67977   1.711   4.344   5.408 -2.5178 -1.0898 -2.0168
  504MOL0     H67978   1.584   4.418   5.321  2.3550 -2.3538 -1.8250
  504MOL0     H67979   1.584   4.614   5.461 -0.8441 -1.2391 -1.5315
  504MOL0     H67980   1.754   4.580   5.516 -0.1166 -0.5122 -2.2320
  504MOL0     H67981   1.538   4.396   5.574  1.3411 -0.9720 -0.3304
  504MOL0     H67982   1.698   4.414   5.658  1.0277  1.8985  1.0145
  504MOL0     H67983   1.477   4.632   5.675 -1.2364  0.8223  1.5740
  504MOL0     H67984   1.504   4.500   5.791  1.4004 -1.1458 -0.1262
  504MOL0     H67985   1.739   4.581   5.827  0.2186 -0.9999 -0.1788
  504MOL0     H67986   1.693   4.729   5.732 -1.2953 -0.1852 -1.3499
  504MOL0     H67987   1.546   4.638   5.980  1.6905 -1.4053 -0.5347
  504MOL0     H67988   1.487   4.757   5.866  1.3644 -0.9027 -2.8314
  504MOL0     H67989   1.597   4.838   6.097 -1.5050 -2.8732 -0.2681
  504MOL0     H67990   1.750   4.783   6.027  0.3858 -0.2022  1.2042
  504MOL0     H67991   1.807   5.029   6.083  0.0795  2.0482  1.2486
  504MOL0     H67992   1.878   5.297   5.919  0.0271  1.3980 -1.3295
  504MOL0     H67993   1.737   5.361   5.864  1.6530 -1.7745 -1.5262
  504MOL0     H67994   1.800   5.466   6.081  2.2676 -0.7078 -1.2345
  504MOL0     H67995   1.644   5.397   6.079  1.4913  1.1913 -1.0035
  504MOL0     H67996   1.723   5.200   6.212  0.0012  0.7429 -2.1492
  504MOL0     H67997   1.735   5.345   6.302 -2.7365 -1.7564  0.2911
  504MOL0     H67998   1.958   5.253   6.332  3.0745 -1.2634 -1.6120
  504MOL0     H67999   1.989   5.367   6.211  2.3559 -0.1348  0.8815
  504MOL0     H68000   2.077   5.002   5.977 -1.1872 -0.0194  1.7141
  504MOL0     H68001   2.317   4.962   5.940 -1.0073 -0.9999 -0.1663
  504MOL0     H68002   2.745   5.345   5.997 -2.2183 -0.9037 -0.8607
  504MOL0     H68003   2.998   5.360   5.951 -1.9765  2.0407  1.5074
  504MOL0     H68004   3.206   5.325   5.850  1.1670  0.4030  1.4264
  504MOL0     H68005   3.224   5.278   6.027  2.5544  3.5483  0.0716
  504MOL0     H68006   3.383   5.152   5.800  1.0698  0.0238  0.0667
  504MOL0     H68007   3.432   5.292   5.910  0.1044  0.6428  1.2316
  504MOL0     H68008   3.419   5.134   6.113 -0.0822 -1.2596  0.0444
  504MOL0     H68009   3.351   5.011   6.014 -2.6781  2.5576 -0.5909
  504MOL0     H68010   3.633   5.130   5.976  0.6964 -0.3783 -0.3913
  504MOL0     H68011   3.576   4.998   5.885 -0.9012  0.0477 -0.2741
  504MOL0     H68012   3.515   4.874   6.114 -0.9966 -1.2410  0.1525
  504MOL0     H68013   3.593   5.002   6.194 -1.3296  1.1096 -0.6250
  504MOL0     H68014   3.807   4.946   6.051 -0.4523  1.3146  0.5631
  504MOL0     H68015   3.750   4.812   6.156  1.5532  2.5398  1.6878
  504MOL0     H68016   3.804   4.775   5.889  2.4673 -0.2503  3.5852
  504MOL0     H68017   3.631   4.803   5.873 -1.9040 -1.5627  0.0069
  504MOL0     H68018   3.779   4.577   6.000 -2.2060 -3.3767 -1.6843
  504MOL0     H68019   3.616   4.625   6.066 -1.9531 -0.6745 -1.4466
  504MOL0     H68020   3.000   4.936   5.982 -2.5026 -1.6584 -0.7440
  504MOL0     H68021   2.779   4.923   6.054 -2.6290  0.9505  2.8844
  504MOL0     H68022   2.417   5.243   6.245  1.3701 -0.4716 -1.3864
  504MOL0     H68023   2.186   5.284   6.291 -0.3191 -1.0350  0.5514
  504MOL0     H68024   2.171   4.496   5.421  2.2125 -1.7493 -0.1175
  504MOL0     H68025   2.369   4.574   5.290  1.5788  1.4712 -2.6935
  504MOL0     H68026   2.565   4.758   4.987  0.1895  1.8497 -0.2429
  504MOL0     H68027   2.808   4.818   4.906  5.5090 -3.0021  0.8063
  504MOL0     H68028   2.915   4.615   4.555 -1.3520  0.5077  2.2308
  504MOL0     H68029   3.067   4.590   4.647  1.2813  1.3976  0.4543
  504MOL0     H68030   2.986   4.837   4.501 -2.3492 -1.2216  2.3963
  504MOL0     H68031   3.122   4.737   4.461 -2.0347 -1.1009 -1.0528
  504MOL0     H68032   3.229   4.800   4.690  1.5967 -0.5855 -1.2268
  504MOL0     H68033   3.089   4.916   4.707 -2.6524 -2.2628 -1.0489
  504MOL0     H68034   3.289   4.912   4.483 -0.5398 -0.1202  0.2680
  504MOL0     H68035   3.150   5.030   4.502 -0.6835 -0.5958  0.1237
  504MOL0     H68036   3.435   5.118   4.819  1.5818 -0.4294  0.6576
  504MOL0     H68037   2.809   4.483   4.664 -1.0277  0.0943  0.1108
  504MOL0     H68038   2.658   4.321   4.677  0.4338  1.2857 -0.1478
  504MOL0     H68039   2.567   4.295   4.829 -0.3653 -0.5400  0.0862
  504MOL0     H68040   2.490   4.358   4.684 -0.0769 -1.1101  1.5848
  505MOL0     O68041   9.602  10.571   2.545 -0.0465  0.3024  0.1397
  505MOL0     C68042   9.600  10.451   2.585 -0.4716  0.2041 -0.4364
  505MOL0     O68043   9.713  10.374   2.624 -0.3332 -0.6716  0.2084
  505MOL0     C68044   9.840  10.414   2.590 -0.3092 -0.4615  0.2101
  505MOL0     C68045   9.941  10.396   2.679  0.0763 -0.0188  0.2658
  505MOL0     C68046  10.072  10.447   2.659 -0.7964 -0.2251 -0.0264
  505MOL0     C68047  10.098  10.518   2.538 -0.0042  0.5710 -0.5308
  505MOL0     O68048  10.216  10.566   2.493 -0.0121  0.2578 -0.4587
  505MOL0     C68049  10.336  10.493   2.507 -0.0981 -0.3332 -0.3430
  505MOL0     C68050  10.414  10.552   2.626  0.2481 -0.0981 -0.4667
  505MOL0     C68051  10.524  10.451   2.675  0.3054 -0.1565 -0.3429
  505MOL0     C68052  10.584  10.501   2.801 -0.3515 -0.2156 -0.0996
  505MOL0     C68053  10.701  10.415   2.840 -0.3095  0.0594  1.0274
  505MOL0     C68054  10.761  10.468   2.975  0.8365  0.3394 -0.3508
  505MOL0     C68055  10.889  10.404   3.020  0.8919 -0.2601  0.4691
  505MOL0     C68056  10.945  10.466   3.152  1.0113  0.5215 -0.7492
  505MOL0     N68057  11.067  10.406   3.192 -0.1369 -0.1955  0.0757
  505MOL0     C68058  11.088  10.269   3.198 -1.1207  0.5340  0.0039
  505MOL0     C68059  11.218  10.255   3.227  0.6945  0.2214  0.0849
  505MOL0     C68060  11.283  10.118   3.255  0.4963 -1.0574  0.0428
  505MOL0     C68061  11.205  10.033   3.362  0.1566 -0.3041 -0.2399
  505MOL0     C68062  11.163  10.106   3.491 -0.3846  0.2205 -0.0887
  505MOL0     C68063  11.280  10.162   3.571  0.4340 -0.8937 -0.7724
  505MOL0     O68064  11.327  10.058   3.662 -0.5719 -0.0242 -0.2314
  505MOL0     C68065  11.464  10.026   3.639  0.0436  0.3233  0.1282
  505MOL0     C68066  11.500   9.932   3.545 -0.8580  0.0821 -0.5232
  505MOL0     C68067  11.634   9.913   3.516 -0.1162 -0.5918 -0.1869
  505MOL0     C68068  11.738   9.985   3.587  0.5086 -0.5187 -0.3528
  505MOL0     C68069  11.883   9.968   3.556 -0.6006 -0.8874  0.5296
  505MOL0     O68070  11.912   9.859   3.484 -0.5606  0.3286  0.5321
  505MOL0     C68071  12.035   9.834   3.422  0.8603 -0.2413  0.2705
  505MOL0     C68072  12.033   9.778   3.299 -0.5091  0.2760  0.0102
  505MOL0     C68073  12.144   9.739   3.230  0.0111  0.5739  0.3940
  505MOL0     C68074  12.272   9.756   3.286  0.1201 -1.2372 -0.4520
  505MOL0     O68075  12.372   9.701   3.216 -0.3374  0.2651 -0.5649
  505MOL0     C68076  12.483   9.654   3.293 -1.2122 -0.4883 -0.4762
  505MOL0     C68077  12.580   9.772   3.320 -0.1367 -0.3766 -0.7611
  505MOL0     C68078  12.660   9.753   3.446 -0.4058 -0.4117 -0.1335
  505MOL0     C68079  12.766   9.640   3.437 -0.2588 -0.6772 -0.7548
  505MOL0     C68080  12.823   9.621   3.579 -0.3456 -0.0759  0.3989
  505MOL0     C68081  12.956   9.544   3.575  0.3987 -0.1454 -0.9823
  505MOL0     C68082  13.023   9.523   3.714  0.4333  0.3156 -0.4882
  505MOL0     C68083  13.172   9.554   3.718  0.4366 -0.1298  0.8736
  505MOL0    Cl68084  13.223   9.508   3.890 -0.0782 -0.4256  0.2236
  505MOL0     C68085  12.280   9.819   3.417 -0.0703  0.2526  1.1993
  505MOL0     C68086  12.158   9.845   3.486  0.7234  0.0920  0.5240
  505MOL0     O68087  11.967  10.042   3.604  0.4826 -0.4534  0.5670
  505MOL0     C68088  11.697  10.067   3.692  0.0202 -0.8458  0.0557
  505MOL0     C68089  11.561  10.095   3.709  0.7975  0.8145  0.4537
  505MOL0     N68090  11.270  10.382   3.244  0.2117  0.2092  0.2362
  505MOL0     N68091  11.174  10.471   3.235 -0.0156 -0.4471  0.9448
  505MOL0     C68092   9.999  10.521   2.445 -0.4126  0.0331 -0.0198
  505MOL0     C68093   9.870  10.471   2.467 -0.0615 -0.0424 -0.2326
  505MOL0     C68094   9.473  10.381   2.602 -0.4570  0.7657 -0.1669
  505MOL0     C68095   9.473  10.249   2.659  0.3112  0.0843 -0.4258
  505MOL0     C68096   9.356  10.176   2.678 -0.6684  0.2164 -0.0357
  505MOL0     C68097   9.233  10.221   2.642 -0.1681  0.0497  0.2928
  505MOL0     O68098   9.121  10.137   2.677 -0.1783 -0.5970 -0.3529
  505MOL0     C68099   9.008  10.207   2.731 -0.4644  0.5215 -0.0212
  505MOL0     C68100   8.942  10.119   2.847  1.0054 -0.1636 -0.8575
  505MOL0     C68101   9.058  10.088   2.944 -0.0122  0.9114 -0.5718
  505MOL0     C68102   9.007  10.034   3.079  0.6075 -0.1216  0.2666
  505MOL0     C68103   8.969   9.891   3.069  0.5308 -0.0046 -0.3512
  505MOL0     C68104   8.945   9.768   3.056  0.5439 -0.2262 -0.4042
  505MOL0     C68105   9.228  10.345   2.588  0.4569 -0.8012  1.0363
  505MOL0     C68106   9.346  10.422   2.562  0.4992 -0.0487  0.0370
  505MOL0     C68107   9.319  10.539   2.481  0.2616 -1.1055 -0.3661
  505MOL0     H68108   9.919  10.341   2.770  0.0385 -1.1664 -0.4125
  505MOL0     H68109  10.151  10.428   2.731  0.3666 -0.5968 -1.3667
  505MOL0     H68110  10.328  10.385   2.522  5.7481 -1.0493 -0.2698
  505MOL0     H68111  10.395  10.506   2.416 -0.7059  2.9548 -0.3646
  505MOL0     H68112  10.343  10.565   2.708  1.2552 -2.7788  0.9635
  505MOL0     H68113  10.449  10.654   2.605 -3.4040  1.1284 -1.2489
  505MOL0     H68114  10.601  10.430   2.601  1.6445 -0.2947  1.0562
  505MOL0     H68115  10.478  10.355   2.700 -2.3023  0.4191 -2.4500
  505MOL0     H68116  10.613  10.606   2.792  1.8416 -0.7827 -0.2684
  505MOL0     H68117  10.512  10.489   2.883  0.1740 -0.8025  0.2883
  505MOL0     H68118  10.665  10.314   2.858  1.0820 -0.5419  0.6163
  505MOL0     H68119  10.765  10.411   2.751  0.8594  3.1186  1.6144
  505MOL0     H68120  10.773  10.576   2.969 -0.9279  0.5946  0.2848
  505MOL0     H68121  10.695  10.468   3.063 -1.5514 -0.9933 -2.0394
  505MOL0     H68122  10.966  10.422   2.945 -0.1655 -1.2796 -0.9125
  505MOL0     H68123  10.879  10.295   3.021  0.8885 -0.2997 -1.5162
  505MOL0     H68124  10.959  10.573   3.130 -0.2849  1.0792  0.9247
  505MOL0     H68125  10.876  10.456   3.236  2.5859  1.0937  0.6635
  505MOL0     H68126  11.015  10.189   3.205  1.9007 -2.4627  0.1625
  505MOL0     H68127  11.289  10.058   3.164  2.0259 -0.4528 -0.2887
  505MOL0     H68128  11.386  10.137   3.287  0.7529  0.0043 -1.2916
  505MOL0     H68129  11.106  10.019   3.317  0.0014  0.6355 -0.2175
  505MOL0     H68130  11.258   9.939   3.372 -0.0756 -0.5164 -0.9801
  505MOL0     H68131  11.117  10.029   3.553 -0.7415  0.7496  0.3176
  505MOL0     H68132  11.087  10.185   3.483 -2.4512 -1.0551  4.0391
  505MOL0     H68133  11.276  10.254   3.630  2.6996 -0.6942 -0.8266
  505MOL0     H68134  11.366  10.185   3.508  1.1592  0.8022  0.7265
  505MOL0     H68135  11.428   9.865   3.498 -2.3791  1.5877 -0.4260
  505MOL0     H68136  11.648   9.862   3.421 -3.3554  0.9488 -1.6645
  505MOL0     H68137  11.933   9.759   3.260 -2.1615  1.7045  3.1336
  505MOL0     H68138  12.134   9.687   3.135 -1.6226  0.0592  0.8112
  505MOL0     H68139  12.452   9.612   3.389  0.3069 -0.3737  0.0929
  505MOL0     H68140  12.524   9.572   3.234  1.0592  0.4170 -0.2507
  505MOL0     H68141  12.648   9.779   3.234 -2.1269  0.4908 -2.3306
  505MOL0     H68142  12.538   9.873   3.322  0.7328  0.0051  1.9616
  505MOL0     H68143  12.714   9.848   3.459 -2.2099  0.8187 -1.1027
  505MOL0     H68144  12.599   9.739   3.535 -3.0737 -1.7844 -2.0375
  505MOL0     H68145  12.844   9.669   3.366 -0.6069 -0.2847 -0.9879
  505MOL0     H68146  12.723   9.547   3.400 -2.4016 -0.5580  1.1816
  505MOL0     H68147  12.743   9.561   3.624 -1.6939  1.1727 -0.2490
  505MOL0     H68148  12.846   9.716   3.628  3.6393  0.8575 -2.7168
  505MOL0     H68149  12.922   9.447   3.538  0.4104  0.4109 -2.5284
  505MOL0     H68150  13.027   9.592   3.507  0.8038  0.6786 -0.0111
  505MOL0     H68151  13.011   9.420   3.750 -1.5227  1.0573  1.1326
  505MOL0     H68152  12.974   9.591   3.783  1.1714 -0.6669  1.0635
  505MOL0     H68153  13.232   9.504   3.641 -0.2160  2.8301 -1.7783
  505MOL0     H68154  13.193   9.659   3.693  0.9445 -0.5347 -0.4739
  505MOL0     H68155  12.379   9.821   3.463  0.5955 -0.9472 -0.1166
  505MOL0     H68156  12.151   9.878   3.590  1.2665  0.3374  0.4843
  505MOL0     H68157  11.769  10.119   3.754  2.0354 -2.3270 -0.9404
  505MOL0     H68158  11.527  10.164   3.786  2.2354  1.0507  0.9102
  505MOL0     H68159  10.006  10.579   2.353  3.4716  1.4489  0.9389
  505MOL0     H68160   9.803  10.470   2.382  1.8970 -3.9010 -1.9611
  505MOL0     H68161   9.561  10.194   2.693 -0.9656 -1.2427  0.8802
  505MOL0     H68162   9.369  10.077   2.722  2.3443  0.4683 -0.1639
  505MOL0     H68163   8.937  10.221   2.650  0.7424  0.6371 -1.0835
  505MOL0     H68164   9.044  10.298   2.781 -0.9767  0.1419  1.0758
  505MOL0     H68165   8.882  10.032   2.818 -0.7636  0.2967  1.1954
  505MOL0     H68166   8.878  10.190   2.900  3.9580 -0.1586  3.2085
  505MOL0     H68167   9.112  10.180   2.971 -0.9367  1.1855  0.4440
  505MOL0     H68168   9.124  10.015   2.897 -0.8410  0.4926 -1.1058
  505MOL0     H68169   9.090  10.039   3.150  1.4854 -0.6357 -0.6919
  505MOL0     H68170   8.925  10.099   3.113  0.1558 -1.0619  1.0068
  505MOL0     H68171   8.921   9.665   3.038 -0.9057 -0.3647  1.8251
  505MOL0     H68172   9.127  10.381   2.569 -0.0448 -3.5119 -2.1952
  505MOL0     H68173   9.235  10.512   2.416 -0.5891 -3.2787  1.5034
  505MOL0     H68174   9.282  10.619   2.546 -0.8304 -1.8873  0.0242
  505MOL0     H68175   9.405  10.575   2.424 -0.8906  0.3405 -1.2427
  506MOL0     O68176   5.981   7.483   7.475  0.4148 -0.0551 -0.4942
  506MOL0     C68177   5.988   7.609   7.492 -0.0630 -0.3294 -0.2735
  506MOL0     O68178   5.880   7.688   7.485  0.4009 -0.6550  0.4322
  506MOL0     C68179   5.754   7.637   7.449 -0.5617 -0.7482  0.3556
  506MOL0     C68180   5.695   7.687   7.336  0.6663 -0.3697 -0.1279
  506MOL0     C68181   5.573   7.642   7.285 -1.2493 -0.0292  0.0695
  506MOL0     C68182   5.494   7.557   7.372  1.0785 -0.2506  0.4864
  506MOL0     O68183   5.378   7.500   7.328  0.3232 -0.4910  0.5082
  506MOL0     C68184   5.344   7.522   7.191  0.2734  0.5126  0.5513
  506MOL0     C68185   5.218   7.435   7.151 -0.2831  0.5469 -0.0710
  506MOL0     C68186   5.099   7.466   7.249  0.6536 -0.0473  0.4694
  506MOL0     C68187   4.986   7.364   7.205 -0.3336 -0.4981 -1.5177
  506MOL0     C68188   4.860   7.370   7.304 -0.6824 -0.8452 -0.0274
  506MOL0     C68189   4.752   7.277   7.256 -1.0383 -0.5465  0.9346
  506MOL0     C68190   4.634   7.295   7.343  0.2788 -0.3515  0.3897
  506MOL0     C68191   4.512   7.206   7.316 -0.9844 -0.3089  0.4019
  506MOL0     N68192   4.458   7.235   7.184 -0.3485  0.0064 -0.4714
  506MOL0     C68193   4.421   7.361   7.140 -0.8629  0.6781  0.1100
  506MOL0     C68194   4.394   7.346   7.008  0.5978  0.0270 -0.1855
  506MOL0     C68195   4.346   7.465   6.928 -0.3757  0.5230  0.5029
  506MOL0     C68196   4.196   7.482   6.952 -0.8428  0.1418 -0.0032
  506MOL0     C68197   4.134   7.570   6.846  0.1451  0.2851  0.5093
  506MOL0     C68198   4.093   7.495   6.717 -0.8033 -0.1181 -1.0885
  506MOL0     O68199   3.960   7.445   6.737 -0.1742  0.7984  0.0564
  506MOL0     C68200   3.887   7.388   6.624 -0.1257 -1.1512  0.2408
  506MOL0     C68201   3.939   7.341   6.502  0.1594 -0.3659 -0.2021
  506MOL0     C68202   3.862   7.266   6.418 -0.0310  0.0145 -0.3354
  506MOL0     C68203   3.727   7.233   6.449 -0.9246 -0.0741  1.2408
  506MOL0     C68204   3.656   7.143   6.348  0.1276 -0.2277  0.2089
  506MOL0     O68205   3.729   7.080   6.257 -0.1618  0.4318 -0.2908
  506MOL0     C68206   3.672   6.998   6.160  0.3293  0.5256 -0.5381
  506MOL0     C68207   3.558   6.924   6.172  0.0855 -0.2994  1.0183
  506MOL0     C68208   3.518   6.835   6.069  0.0194 -0.1934 -0.2735
  506MOL0     C68209   3.599   6.822   5.958  0.5354  0.2172  0.7904
  506MOL0     O68210   3.545   6.728   5.875  0.0033 -0.2116  0.5439
  506MOL0     C68211   3.614   6.703   5.755 -0.1225 -0.5477  0.4013
  506MOL0     C68212   3.533   6.604   5.664  0.5956 -0.1974 -0.0049
  506MOL0     C68213   3.485   6.470   5.741 -0.2120  0.2991  0.7199
  506MOL0     C68214   3.333   6.463   5.775  0.3146 -0.3772 -0.9562
  506MOL0     C68215   3.270   6.562   5.873  0.7187  0.0654 -0.6907
  506MOL0     C68216   3.120   6.571   5.869 -0.5805  0.3154 -0.2708
  506MOL0     C68217   3.067   6.660   5.977  0.7445 -1.0336  0.4672
  506MOL0     C68218   2.913   6.661   5.963 -0.2415  0.8502 -0.7224
  506MOL0    Cl68219   2.854   6.741   6.095  0.1390  0.4935 -0.0122
  506MOL0     C68220   3.719   6.889   5.944 -0.4197  0.3672  0.3182
  506MOL0     C68221   3.756   6.987   6.044 -0.1579  0.4365  0.5181
  506MOL0     O68222   3.531   7.137   6.363 -0.1733  0.0965 -0.0090
  506MOL0     C68223   3.674   7.281   6.564  0.2299  0.0174  0.0809
  506MOL0     C68224   3.748   7.360   6.652  0.2066 -0.3944  0.6297
  506MOL0     N68225   4.422   7.219   6.978 -0.4049  0.0689  0.2903
  506MOL0     N68226   4.443   7.149   7.083 -0.6750 -0.2979  0.4774
  506MOL0     C68227   5.552   7.508   7.491  0.8829  0.7631  0.1568
  506MOL0     C68228   5.686   7.550   7.527  0.5392  0.2423  0.3111
  506MOL0     C68229   6.114   7.669   7.549 -0.0710  0.9750 -0.8123
  506MOL0     C68230   6.100   7.781   7.635  0.3644 -1.1024  0.0502
  506MOL0     C68231   6.214   7.830   7.697  0.3065 -0.4386  0.5544
  506MOL0     C68232   6.342   7.772   7.675  0.6890 -0.1222  0.0992
  506MOL0     O68233   6.463   7.821   7.718 -0.0823 -0.7782  0.1731
  506MOL0     C68234   6.443   7.933   7.806  0.0795  0.2909 -0.1186
  506MOL0     C68235   6.572   7.999   7.852  0.7140  1.0313 -0.1609
  506MOL0     C68236   6.669   7.895   7.915  0.4964 -0.5611  0.6568
  506MOL0     C68237   6.794   7.948   7.994 -0.1652  0.3119 -0.0271
  506MOL0     C68238   6.864   8.043   7.910 -0.4449  0.6054  0.1024
  506MOL0     C68239   6.917   8.134   7.846  0.0783 -0.3941 -0.1528
  506MOL0     C68240   6.355   7.665   7.590  0.3354  0.6779 -0.8726
  506MOL0     C68241   6.241   7.611   7.531 -0.1839  0.3487 -0.0625
  506MOL0     C68242   6.257   7.488   7.437 -1.2801  0.8556 -0.1586
  506MOL0     H68243   5.739   7.764   7.274  1.4632  2.0058  3.1373
  506MOL0     H68244   5.547   7.674   7.184 -5.1813 -1.7541  0.3693
  506MOL0     H68245   5.318   7.625   7.166 -2.6466 -0.3961 -0.5503
  506MOL0     H68246   5.418   7.500   7.113  0.6271 -1.4288  1.3586
  506MOL0     H68247   5.252   7.331   7.150 -1.2054  0.2158  0.7787
  506MOL0     H68248   5.202   7.459   7.046  1.3074 -1.4481 -0.8266
  506MOL0     H68249   5.073   7.570   7.227  2.2891  0.3027  0.0590
  506MOL0     H68250   5.142   7.452   7.349  3.5571  0.0976 -0.6524
  506MOL0     H68251   4.945   7.387   7.106  1.4310  2.8413 -1.5961
  506MOL0     H68252   5.032   7.266   7.192  2.8346  0.8892 -1.5845
  506MOL0     H68253   4.906   7.345   7.400 -3.2887  2.3594  2.3271
  506MOL0     H68254   4.829   7.475   7.303 -0.6200 -0.8164  0.4574
  506MOL0     H68255   4.725   7.293   7.151 -1.1058 -1.3784  0.8159
  506MOL0     H68256   4.783   7.172   7.264 -2.3419 -1.1832 -1.3517
  506MOL0     H68257   4.598   7.398   7.334 -2.6969 -1.2958  0.4507
  506MOL0     H68258   4.667   7.285   7.446  4.3756  1.3532 -0.5638
  506MOL0     H68259   4.544   7.101   7.310 -1.1185 -0.3220 -0.0878
  506MOL0     H68260   4.432   7.212   7.391 -1.6729  0.2838 -0.3621
  506MOL0     H68261   4.428   7.456   7.193 -2.3168 -0.8499  3.2834
  506MOL0     H68262   4.389   7.560   6.962 -0.6047  1.7897 -2.4249
  506MOL0     H68263   4.371   7.451   6.823  1.5084  1.5328  0.7664
  506MOL0     H68264   4.142   7.387   6.952  0.8894 -0.8948  1.6471
  506MOL0     H68265   4.202   7.533   7.049 -1.8019  1.6970 -0.7166
  506MOL0     H68266   4.215   7.632   6.806  2.1152 -1.5463  1.4637
  506MOL0     H68267   4.048   7.626   6.884 -0.5520 -0.4391  0.0302
  506MOL0     H68268   4.156   7.408   6.697  0.2017  0.2225  0.4174
  506MOL0     H68269   4.090   7.563   6.631  0.4957 -0.4531 -1.4132
  506MOL0     H68270   4.044   7.363   6.488  0.7780 -1.6146  1.9848
  506MOL0     H68271   3.902   7.243   6.320  2.7487  1.6179  0.3047
  506MOL0     H68272   3.511   6.925   6.270 -1.1332  0.1704  0.4478
  506MOL0     H68273   3.437   6.768   6.097  0.6581 -2.3050 -3.0867
  506MOL0     H68274   3.625   6.791   5.691  2.8425 -1.0984  0.0086
  506MOL0     H68275   3.718   6.669   5.763 -0.5127 -1.3257  2.7422
  506MOL0     H68276   3.441   6.659   5.643  0.7840 -0.3496 -1.2598
  506MOL0     H68277   3.570   6.571   5.567 -1.4507 -0.3916 -0.7657
  506MOL0     H68278   3.512   6.388   5.675 -0.7757 -0.6281  1.6084
  506MOL0     H68279   3.538   6.457   5.836  1.7597  0.9311 -0.2491
  506MOL0     H68280   3.308   6.365   5.816 -1.9390 -0.2068 -1.7603
  506MOL0     H68281   3.263   6.466   5.691 -1.1302  0.5539  0.2047
  506MOL0     H68282   3.305   6.665   5.863 -0.8414  0.8093  0.9566
  506MOL0     H68283   3.302   6.532   5.974  1.1935  1.5293 -0.3808
  506MOL0     H68284   3.108   6.599   5.764  2.5507  2.3899 -0.2279
  506MOL0     H68285   3.089   6.468   5.887  1.6345 -0.3439  0.0967
  506MOL0     H68286   3.092   6.767   5.973  0.6951 -1.0566 -0.9864
  506MOL0     H68287   3.102   6.627   6.075  1.6937 -2.3267 -0.2808
  506MOL0     H68288   2.882   6.723   5.877  0.1648  1.7183 -0.2586
  506MOL0     H68289   2.875   6.559   5.958 -1.1790  1.1198  0.4119
  506MOL0     H68290   3.784   6.862   5.862 -0.9287 -0.3413  0.1387
  506MOL0     H68291   3.845   7.043   6.017 -0.7288  0.4857 -1.3475
  506MOL0     H68292   3.574   7.254   6.595 -0.5736  1.8448 -0.7453
  506MOL0     H68293   3.702   7.409   6.738 -0.8483 -0.6036  0.1904
  506MOL0     H68294   5.510   7.422   7.542 -1.2892  1.4339 -0.4085
  506MOL0     H68295   5.731   7.500   7.613 -1.3883  2.5073  2.8198
  506MOL0     H68296   6.005   7.833   7.649  1.4816  0.8595  0.8167
  506MOL0     H68297   6.198   7.914   7.764  0.8951  0.6105 -0.5744
  506MOL0     H68298   6.380   7.907   7.892 -0.2004  2.7039  0.4579
  506MOL0     H68299   6.377   8.004   7.757 -1.4449 -1.5613 -0.8960
  506MOL0     H68300   6.541   8.076   7.923 -0.8713  0.3590 -0.0700
  506MOL0     H68301   6.626   8.047   7.770  0.7116  0.5890 -0.4261
  506MOL0     H68302   6.707   7.827   7.838  0.0131 -0.7167  0.5557
  506MOL0     H68303   6.609   7.842   7.989 -1.8727  0.8742 -0.1473
  506MOL0     H68304   6.753   8.009   8.075 -2.0981  0.5859 -1.1370
  506MOL0     H68305   6.853   7.862   8.027  0.8740  1.2049  0.4953
  506MOL0     H68306   6.967   8.206   7.784 -2.7000  0.8267 -1.1428
  506MOL0     H68307   6.454   7.626   7.568  0.8223 -0.1634  2.2512
  506MOL0     H68308   6.237   7.395   7.491 -2.2785 -0.0116 -1.9690
  506MOL0     H68309   6.182   7.484   7.358  1.1553  0.1210 -2.6037
  506MOL0     H68310   6.355   7.497   7.389 -1.7441  1.6942 -0.9690
  507MOL0     O68311   3.837   3.279   5.401 -0.6137 -0.0694  0.0195
  507MOL0     C68312   3.718   3.259   5.373 -0.6535 -0.1990 -1.3041
  507MOL0     O68313   3.605   3.289   5.453 -0.2290  0.4119 -0.4608
  507MOL0     C68314   3.619   3.397   5.536 -0.4051 -0.5231 -0.1122
  507MOL0     C68315   3.528   3.410   5.641 -0.9023 -0.8718 -0.9141
  507MOL0     C68316   3.542   3.515   5.732 -0.1377 -0.3133 -0.7775
  507MOL0     C68317   3.635   3.613   5.722  0.8857  0.5894  0.1891
  507MOL0     O68318   3.649   3.719   5.803  0.1107  0.8025 -0.3662
  507MOL0     C68319   3.601   3.693   5.938 -0.1676 -0.5595 -0.2000
  507MOL0     C68320   3.678   3.788   6.031 -0.3981  0.3076  0.3919
  507MOL0     C68321   3.619   3.931   6.011 -0.8746 -0.5529  0.3194
  507MOL0     C68322   3.505   3.959   6.116  0.2511  0.6861  0.2745
  507MOL0     C68323   3.460   4.111   6.112  0.3448 -0.9028 -0.2814
  507MOL0     C68324   3.359   4.151   6.009 -0.1175  0.9057  0.2087
  507MOL0     C68325   3.306   4.292   6.021  0.0573  0.7944 -0.1192
  507MOL0     C68326   3.177   4.325   5.953 -0.0287  0.4434  0.4080
  507MOL0     N68327   3.159   4.463   5.910  0.0822 -0.4537  0.2152
  507MOL0     C68328   3.183   4.503   5.780  0.3266 -0.6033 -0.2359
  507MOL0     C68329   3.186   4.638   5.786 -0.8158 -0.1846  0.7413
  507MOL0     C68330   3.218   4.729   5.670  0.0183 -0.1978 -0.1871
  507MOL0     C68331   3.369   4.752   5.637 -0.1632  0.3138  0.7181
  507MOL0     C68332   3.396   4.805   5.488 -0.1696 -0.7314 -0.0000
  507MOL0     C68333   3.550   4.823   5.471  0.0103 -0.0122 -0.4962
  507MOL0     O68334   3.596   4.932   5.552  0.6864 -0.2987 -0.1104
  507MOL0     C68335   3.731   4.969   5.541  0.3181 -1.0279 -0.2532
  507MOL0     C68336   3.770   5.088   5.605 -0.0200  0.2416 -0.5510
  507MOL0     C68337   3.902   5.131   5.612 -0.5200  0.1427 -0.5963
  507MOL0     C68338   3.997   5.059   5.548  0.0254 -0.8317  0.0520
  507MOL0     C68339   4.145   5.108   5.547  0.4885  0.0504  0.5291
  507MOL0     O68340   4.226   5.033   5.468 -0.2727 -0.2732 -0.0893
  507MOL0     C68341   4.362   5.041   5.482  0.4573  0.8917 -0.0664
  507MOL0     C68342   4.429   5.158   5.485  1.5758 -1.0056  0.9057
  507MOL0     C68343   4.566   5.184   5.500 -0.6841  0.7135  0.5507
  507MOL0     C68344   4.644   5.065   5.519 -0.3745  0.2940 -0.3832
  507MOL0     O68345   4.778   5.074   5.547  0.1409 -0.2201 -0.3291
  507MOL0     C68346   4.838   5.207   5.565  0.2764  1.4493 -0.8403
  507MOL0     C68347   4.878   5.280   5.435  0.4905  0.2710 -1.1942
  507MOL0     C68348   5.005   5.215   5.378  0.6000  0.3385 -0.1733
  507MOL0     C68349   4.974   5.106   5.284  0.5609  0.7002  0.0482
  507MOL0     C68350   5.092   5.090   5.189  0.3225  0.2672 -0.0794
  507MOL0     C68351   5.100   4.948   5.121  0.1804  0.5865  0.3372
  507MOL0     C68352   5.228   4.924   5.030  0.8493  0.7329 -0.8221
  507MOL0     C68353   5.266   5.054   4.955  0.1598  0.5587  0.2601
  507MOL0    Cl68354   5.132   5.121   4.857  0.0469  0.2093  0.0657
  507MOL0     C68355   4.591   4.933   5.500  0.9129  0.0565  0.4062
  507MOL0     C68356   4.448   4.927   5.470 -0.1208 -0.4029  0.4765
  507MOL0     O68357   4.179   5.191   5.629 -0.8272  0.1882 -0.1574
  507MOL0     C68358   3.962   4.941   5.482  0.2628  0.4693  0.1817
  507MOL0     C68359   3.832   4.894   5.479  0.7896  0.0731 -0.0659
  507MOL0     N68360   3.183   4.681   5.915  0.4899 -0.0162 -0.6207
  507MOL0     N68361   3.170   4.577   5.986  0.3422 -0.2190  0.2883
  507MOL0     C68362   3.728   3.604   5.615  0.3068  0.5418 -0.3311
  507MOL0     C68363   3.713   3.499   5.522 -0.0475  0.6773  0.3831
  507MOL0     C68364   3.696   3.175   5.251  1.1570 -0.4368 -0.5453
  507MOL0     C68365   3.565   3.125   5.243  0.0447  0.1407 -0.8710
  507MOL0     C68366   3.516   3.074   5.120  0.2931  0.7614 -1.1489
  507MOL0     C68367   3.593   3.059   5.012 -0.6760  0.3753  0.1399
  507MOL0     O68368   3.559   2.996   4.895 -0.2300 -0.2500 -0.5797
  507MOL0     C68369   3.520   2.858   4.908 -0.3668 -0.6319  0.4133
  507MOL0     C68370   3.482   2.810   4.766 -0.3775  0.1641 -0.2868
  507MOL0     C68371   3.415   2.908   4.670  0.0269  0.5123 -0.2699
  507MOL0     C68372   3.371   2.845   4.539 -0.0966 -0.9488  0.1924
  507MOL0     C68373   3.263   2.752   4.566 -0.0797  0.3287  0.4437
  507MOL0     C68374   3.164   2.679   4.571  0.4108  0.7133 -0.4398
  507MOL0     C68375   3.725   3.100   5.021  0.6876  0.1200  0.1125
  507MOL0     C68376   3.774   3.171   5.136 -0.1874  0.5621 -0.5775
  507MOL0     C68377   3.910   3.232   5.111 -0.6584 -0.4157 -0.6523
  507MOL0     H68378   3.445   3.341   5.650 -1.7482  0.3530  1.7257
  507MOL0     H68379   3.461   3.516   5.804  0.9035 -2.3358  0.5221
  507MOL0     H68380   3.494   3.716   5.946  0.3543  1.7957  0.8928
  507MOL0     H68381   3.613   3.589   5.971 -3.2585 -0.5913  1.2144
  507MOL0     H68382   3.786   3.797   6.016 -0.7671  4.0968 -1.2136
  507MOL0     H68383   3.667   3.751   6.133  0.3621  0.5793  0.5783
  507MOL0     H68384   3.590   3.955   5.908  0.6727  2.0915  0.4070
  507MOL0     H68385   3.705   3.999   6.010  1.8810 -3.7522 -0.8101
  507MOL0     H68386   3.421   3.891   6.095 -0.9527  2.0222  0.5915
  507MOL0     H68387   3.552   3.939   6.213  0.5625  0.0447 -0.0031
  507MOL0     H68388   3.420   4.122   6.213 -1.0673 -0.3868 -0.8693
  507MOL0     H68389   3.550   4.166   6.081  0.8591 -1.2605  0.5479
  507MOL0     H68390   3.402   4.135   5.910 -0.9772 -0.8840  0.0704
  507MOL0     H68391   3.275   4.081   6.013 -0.8828  1.8501  1.7707
  507MOL0     H68392   3.380   4.362   5.983  0.8273 -1.5709 -3.3696
  507MOL0     H68393   3.304   4.314   6.128 -1.5450  1.5465 -0.2684
  507MOL0     H68394   3.184   4.262   5.864  0.8334  1.8468 -0.5499
  507MOL0     H68395   3.090   4.301   6.014  0.5756  0.3125  1.2368
  507MOL0     H68396   3.195   4.440   5.693 -0.4756 -0.2407 -0.6166
  507MOL0     H68397   3.172   4.695   5.577  1.8188 -1.6391 -0.6188
  507MOL0     H68398   3.172   4.827   5.686 -0.4335 -0.3940 -0.2649
  507MOL0     H68399   3.388   4.829   5.711 -3.2625  2.4703 -0.4821
  507MOL0     H68400   3.427   4.660   5.651  0.3090  0.0852 -2.1172
  507MOL0     H68401   3.342   4.899   5.472  0.9506  0.7711  3.7583
  507MOL0     H68402   3.359   4.736   5.412 -0.1354 -2.4611  1.4631
  507MOL0     H68403   3.570   4.845   5.365  1.7331  1.7529  0.1294
  507MOL0     H68404   3.603   4.729   5.491 -1.7596 -1.6271 -2.8173
  507MOL0     H68405   3.697   5.152   5.655  0.3894 -0.7758  1.4228
  507MOL0     H68406   3.927   5.227   5.657 -2.0381 -0.3906  1.5317
  507MOL0     H68407   4.370   5.249   5.476 -1.6715 -3.0174  0.1348
  507MOL0     H68408   4.612   5.282   5.499  1.2233 -0.1578 -0.2114
  507MOL0     H68409   4.767   5.262   5.626  1.1532  0.6278  0.9886
  507MOL0     H68410   4.929   5.202   5.626 -0.5899  3.2376  0.6709
  507MOL0     H68411   4.794   5.272   5.365 -1.7848 -0.9150  1.5127
  507MOL0     H68412   4.905   5.382   5.465  1.7054 -1.3270  4.1443
  507MOL0     H68413   5.048   5.290   5.312 -0.9940 -0.4546 -2.2225
  507MOL0     H68414   5.066   5.182   5.463 -0.9982 -1.2061  0.4592
  507MOL0     H68415   4.876   5.119   5.238 -0.1100 -0.9343  0.9459
  507MOL0     H68416   4.962   5.008   5.331 -1.3193  0.1097 -1.5741
  507MOL0     H68417   5.191   5.101   5.234  2.0511  1.8428 -3.8763
  507MOL0     H68418   5.084   5.173   5.118 -0.7771 -1.4401 -2.0492
  507MOL0     H68419   5.108   4.873   5.199  2.7607 -2.1016 -2.2255
  507MOL0     H68420   5.014   4.937   5.054  2.2306  2.3679 -2.8740
  507MOL0     H68421   5.220   4.832   4.971  0.2621  1.2867 -1.6334
  507MOL0     H68422   5.312   4.913   5.099 -0.7232  0.6579  1.1630
  507MOL0     H68423   5.316   5.135   5.010  3.0977 -0.1292 -1.2044
  507MOL0     H68424   5.346   5.027   4.885  0.4878  3.2228 -0.5047
  507MOL0     H68425   4.635   4.835   5.505 -3.2687 -2.3020 -2.4574
  507MOL0     H68426   4.428   4.824   5.440  3.3170 -0.3782 -2.5266
  507MOL0     H68427   4.031   4.874   5.433 -0.6274  0.2465 -0.8006
  507MOL0     H68428   3.808   4.810   5.414 -1.4253  1.6481 -1.4573
  507MOL0     H68429   3.803   3.678   5.590  2.0644 -1.4490 -1.2687
  507MOL0     H68430   3.786   3.507   5.442 -0.5593 -0.9482 -0.2959
  507MOL0     H68431   3.500   3.134   5.329  0.7446  0.7841 -0.3909
  507MOL0     H68432   3.417   3.031   5.121  1.9403 -3.9407  2.9792
  507MOL0     H68433   3.429   2.853   4.969  1.5008 -1.2739  3.3600
  507MOL0     H68434   3.596   2.790   4.948  0.3394 -1.3852 -1.9997
  507MOL0     H68435   3.403   2.738   4.790 -2.0145  2.5326  1.8285
  507MOL0     H68436   3.565   2.761   4.713 -1.2671 -2.5060  0.6124
  507MOL0     H68437   3.486   2.991   4.660  0.1025  0.3935 -0.7446
  507MOL0     H68438   3.325   2.953   4.715  0.5572  0.7236  0.6001
  507MOL0     H68439   3.346   2.917   4.461  1.1083 -0.6264  0.0711
  507MOL0     H68440   3.454   2.800   4.482 -0.6120  3.8021 -5.2201
  507MOL0     H68441   3.077   2.617   4.581 -1.4243  3.4809  5.8831
  507MOL0     H68442   3.790   3.068   4.939  0.4187  1.2030 -0.5465
  507MOL0     H68443   3.977   3.241   5.197 -1.6146  2.0150 -0.0536
  507MOL0     H68444   3.950   3.170   5.031 -0.7532 -1.4440  0.0900
  507MOL0     H68445   3.906   3.337   5.079  0.3645 -0.1130  0.1456
  508MOL0     O68446   3.165   3.128   5.104  0.3764  0.5369  0.6722
  508MOL0     C68447   3.111   3.239   5.088  0.7662 -0.3747 -0.1952
  508MOL0     O68448   3.012   3.269   4.987  0.1306  0.2003 -0.6565
  508MOL0     C68449   2.986   3.188   4.876 -0.6814 -0.0425 -0.3978
  508MOL0     C68450   3.038   3.062   4.839  0.1267  0.7160  0.3046
  508MOL0     C68451   3.006   2.996   4.719  0.6054 -0.0962 -0.5795
  508MOL0     C68452   2.921   3.062   4.622 -0.0221 -0.6608  0.4093
  508MOL0     O68453   2.868   3.019   4.499 -0.3724 -0.1148 -0.0489
  508MOL0     C68454   2.969   2.950   4.420  0.0037  0.6818  0.3449
  508MOL0     C68455   2.924   2.920   4.280  0.6251 -0.8399 -0.7631
  508MOL0     C68456   3.047   2.897   4.189 -0.0731 -0.0811 -0.3297
  508MOL0     C68457   3.115   3.033   4.148  0.5748  0.4604 -0.6138
  508MOL0     C68458   3.252   3.016   4.083 -0.2692 -0.3828 -0.2435
  508MOL0     C68459   3.361   3.024   4.186  0.3304  0.4162 -0.6340
  508MOL0     C68460   3.498   3.044   4.111  0.9309 -1.3154  0.3567
  508MOL0     C68461   3.557   2.922   4.035 -0.1222  0.1991  0.1225
  508MOL0     N68462   3.698   2.949   4.004  0.3367  0.0027 -0.8466
  508MOL0     C68463   3.800   2.878   4.069  0.5381 -0.3787 -0.0206
  508MOL0     C68464   3.912   2.938   4.020  0.5280 -0.2489  0.1938
  508MOL0     C68465   4.041   2.914   4.071 -0.2348 -0.1346 -0.9784
  508MOL0     C68466   4.087   3.020   4.177 -0.0063 -0.0432  0.4229
  508MOL0     C68467   4.244   3.022   4.197 -0.5062  0.1123 -0.0212
  508MOL0     C68468   4.272   3.123   4.300 -0.7326 -0.0463  0.1801
  508MOL0     O68469   4.220   3.086   4.428  0.3334 -0.0163  0.2699
  508MOL0     C68470   4.239   3.164   4.533 -0.7778  0.1888 -0.4491
  508MOL0     C68471   4.171   3.131   4.649  1.5201 -0.1745 -0.6583
  508MOL0     C68472   4.171   3.215   4.756 -0.6251 -0.1142  0.2913
  508MOL0     C68473   4.240   3.337   4.756 -0.2758 -0.6739  0.6106
  508MOL0     C68474   4.235   3.440   4.867 -0.2384 -0.0811  0.6060
  508MOL0     O68475   4.130   3.431   4.949 -0.1258  0.4308  0.7232
  508MOL0     C68476   4.129   3.491   5.064 -0.2170  0.6680 -1.5974
  508MOL0     C68477   4.081   3.623   5.078  0.6311  0.1863 -0.2695
  508MOL0     C68478   4.090   3.685   5.199  0.1773 -0.6925 -0.5297
  508MOL0     C68479   4.125   3.612   5.309 -0.2253 -0.0885  0.1787
  508MOL0     O68480   4.120   3.694   5.423  0.0039  0.0406  0.0415
  508MOL0     C68481   4.170   3.658   5.549  0.0146  0.0359 -0.5207
  508MOL0     C68482   4.264   3.765   5.587  0.2576  0.2438 -0.5031
  508MOL0     C68483   4.378   3.703   5.675 -0.1989 -0.5784  0.3456
  508MOL0     C68484   4.470   3.817   5.714  0.3524 -0.5386  0.8546
  508MOL0     C68485   4.560   3.783   5.835 -0.1967 -0.3566 -0.8873
  508MOL0     C68486   4.623   3.643   5.814  0.6172  0.2806  0.2682
  508MOL0     C68487   4.746   3.631   5.911 -0.7090 -0.4358 -0.4845
  508MOL0     C68488   4.822   3.499   5.897  0.5158  0.4012 -0.5853
  508MOL0    Cl68489   4.835   3.446   5.730  0.4442  0.1464  0.0851
  508MOL0     C68490   4.170   3.477   5.302  0.4063  0.7249 -0.2417
  508MOL0     C68491   4.168   3.419   5.182 -0.3198 -0.0501  0.6059
  508MOL0     O68492   4.323   3.521   4.877  0.4961  0.1271  0.5748
  508MOL0     C68493   4.320   3.367   4.646  0.0978 -0.4420 -0.7831
  508MOL0     C68494   4.322   3.284   4.534  0.3638  0.4501 -0.4230
  508MOL0     N68495   3.881   3.033   3.935  0.0065 -0.2527  0.3322
  508MOL0     N68496   3.750   3.046   3.926 -0.6015  1.0208 -0.4380
  508MOL0     C68497   2.875   3.193   4.655  1.0930  0.4536 -0.3196
  508MOL0     C68498   2.912   3.250   4.780  0.2426 -1.5606  0.2926
  508MOL0     C68499   3.152   3.355   5.167 -0.4636 -0.1170  1.3779
  508MOL0     C68500   3.162   3.475   5.094  0.2371 -1.0243  0.6212
  508MOL0     C68501   3.196   3.597   5.156  0.5503  0.3503  1.2466
  508MOL0     C68502   3.233   3.602   5.289 -0.0621 -0.8604  0.1823
  508MOL0     O68503   3.241   3.729   5.344  0.2341  0.2136 -0.8484
  508MOL0     C68504   3.314   3.740   5.473 -1.2865  0.1943  0.3599
  508MOL0     C68505   3.355   3.887   5.473 -0.1383 -0.2767 -0.4555
  508MOL0     C68506   3.446   3.924   5.597  0.0544 -1.1604 -0.0293
  508MOL0     C68507   3.479   4.080   5.579 -1.1742 -0.8363  0.3956
  508MOL0     C68508   3.557   4.145   5.687  0.0731  0.8374  0.0932
  508MOL0     C68509   3.640   4.188   5.771 -0.1244 -0.9766 -0.0231
  508MOL0     C68510   3.242   3.487   5.357  0.0976 -0.1204 -1.0116
  508MOL0     C68511   3.202   3.362   5.301 -0.0914  0.4147  0.5838
  508MOL0     C68512   3.209   3.243   5.398  0.3987 -1.2761  0.8727
  508MOL0     H68513   3.108   3.012   4.905  0.4431 -0.1313 -0.6474
  508MOL0     H68514   3.031   2.892   4.697 -0.5462  0.0569 -3.0741
  508MOL0     H68515   3.057   3.012   4.406  2.6634 -2.9299 -0.2431
  508MOL0     H68516   2.992   2.853   4.465  1.5205  0.0863 -1.5916
  508MOL0     H68517   2.874   3.011   4.244 -0.6390 -0.3756  1.8994
  508MOL0     H68518   2.861   2.831   4.277  0.5028 -0.7238 -1.8186
  508MOL0     H68519   3.032   2.842   4.095 -0.1106  2.9600 -2.2391
  508MOL0     H68520   3.117   2.834   4.245 -2.1992 -0.4928  2.0253
  508MOL0     H68521   3.037   3.053   4.074 -0.1937 -3.2452 -0.9700
  508MOL0     H68522   3.111   3.099   4.236  1.3032  2.1533 -1.8001
  508MOL0     H68523   3.266   2.923   4.027 -1.7279 -1.0308  0.4316
  508MOL0     H68524   3.266   3.098   4.011  0.0228  1.3651  1.7057
  508MOL0     H68525   3.351   3.117   4.241  1.8758  1.1038 -1.4406
  508MOL0     H68526   3.356   2.931   4.243  0.1382  1.0545  0.4001
  508MOL0     H68527   3.570   3.068   4.190 -0.9109  2.1510  1.2162
  508MOL0     H68528   3.500   3.134   4.048  0.6084  0.9055  3.3004
  508MOL0     H68529   3.551   2.828   4.091 -1.4568 -3.0323 -4.8078
  508MOL0     H68530   3.496   2.904   3.946 -1.6894  0.8070  1.0122
  508MOL0     H68531   3.798   2.798   4.143 -0.4267 -0.6053 -0.2825
  508MOL0     H68532   4.033   2.818   4.124 -3.8701 -0.0283 -1.1013
  508MOL0     H68533   4.113   2.901   3.990  0.6884 -1.9441  0.0663
  508MOL0     H68534   4.047   3.120   4.156 -0.0751 -0.4490 -1.4777
  508MOL0     H68535   4.041   2.985   4.271  1.9301 -1.4395  0.8991
  508MOL0     H68536   4.290   3.048   4.101  0.4090  0.8063  0.5876
  508MOL0     H68537   4.299   2.931   4.224  0.5787  0.5862 -0.6268
  508MOL0     H68538   4.242   3.222   4.262  1.3226  1.3726  1.9991
  508MOL0     H68539   4.380   3.138   4.302 -0.8619  2.3012 -3.0454
  508MOL0     H68540   4.106   3.044   4.652  0.9616  0.2582  0.3326
  508MOL0     H68541   4.112   3.190   4.844  1.9890 -0.8593  1.9563
  508MOL0     H68542   4.038   3.672   4.991 -0.9767  1.7635  1.3367
  508MOL0     H68543   4.057   3.788   5.211  3.1900  0.3125 -0.0435
  508MOL0     H68544   4.104   3.653   5.636  1.8022  3.6154  1.2392
  508MOL0     H68545   4.226   3.564   5.553  3.1306  1.8009  1.9813
  508MOL0     H68546   4.308   3.822   5.504 -0.1639  0.0598 -0.8584
  508MOL0     H68547   4.209   3.828   5.657 -0.3005 -0.9777  0.1786
  508MOL0     H68548   4.338   3.642   5.756  2.5346 -1.6881  0.9678
  508MOL0     H68549   4.434   3.627   5.619  2.4848  1.9087 -0.6404
  508MOL0     H68550   4.417   3.911   5.732  2.6443  1.6339 -2.5852
  508MOL0     H68551   4.526   3.839   5.623 -1.3629  2.6090  0.4183
  508MOL0     H68552   4.519   3.790   5.936  1.0292 -0.2416 -0.3872
  508MOL0     H68553   4.644   3.853   5.831  0.4212 -0.9129  1.2943
  508MOL0     H68554   4.550   3.566   5.838  2.1171 -0.4025  3.1827
  508MOL0     H68555   4.657   3.633   5.711  1.5102  2.1998  0.3374
  508MOL0     H68556   4.704   3.640   6.012 -0.5063  0.4662 -0.4694
  508MOL0     H68557   4.824   3.705   5.892  1.2311 -3.0642 -3.8956
  508MOL0     H68558   4.913   3.496   5.957 -1.3167 -0.0051  2.3562
  508MOL0     H68559   4.760   3.434   5.960  0.6181  2.0894  1.3592
  508MOL0     H68560   4.205   3.419   5.387 -2.5504 -0.3792  0.3389
  508MOL0     H68561   4.204   3.319   5.163 -2.0557 -0.5829 -0.0691
  508MOL0     H68562   4.383   3.456   4.644  0.0474 -0.3445  0.8834
  508MOL0     H68563   4.372   3.322   4.445 -0.6342  0.3620 -1.0401
  508MOL0     H68564   2.804   3.248   4.594 -1.2547  0.2993  2.0932
  508MOL0     H68565   2.875   3.351   4.798 -1.1455 -2.0985  0.5328
  508MOL0     H68566   3.152   3.485   4.986  0.4682 -0.0930  0.6789
  508MOL0     H68567   3.201   3.689   5.099 -0.0513  0.6108  1.5991
  508MOL0     H68568   3.409   3.685   5.477 -2.4625 -2.4706 -3.3315
  508MOL0     H68569   3.254   3.711   5.560 -3.2583 -0.8852 -1.2934
  508MOL0     H68570   3.260   3.937   5.493 -0.1868 -0.8648  0.9379
  508MOL0     H68571   3.400   3.918   5.379 -0.2213 -1.5188 -0.9289
  508MOL0     H68572   3.537   3.863   5.593  1.1063  0.4181 -0.8476
  508MOL0     H68573   3.404   3.906   5.696 -2.8237 -0.2046 -0.9699
  508MOL0     H68574   3.537   4.090   5.487 -0.8093  0.6110  0.7526
  508MOL0     H68575   3.392   4.141   5.556 -0.2133  0.9152  1.1536
  508MOL0     H68576   3.695   4.246   5.843  1.3044 -0.3726 -1.5244
  508MOL0     H68577   3.254   3.496   5.465  0.0760  2.0912 -1.1470
  508MOL0     H68578   3.298   3.253   5.461  2.4005 -1.7893 -1.6985
  508MOL0     H68579   3.117   3.242   5.457 -0.0481 -2.4622  0.1909
  508MOL0     H68580   3.212   3.145   5.349  1.9706 -0.7349 -0.1615
  509MOL0     O68581   9.109  11.170   3.271  0.2924  0.6019 -0.0052
  509MOL0     C68582   9.030  11.070   3.281  0.1302 -1.2130 -0.0373
  509MOL0     O68583   9.060  10.931   3.287  0.4096  0.0841  0.8802
  509MOL0     C68584   9.183  10.885   3.318 -0.3364 -0.0161  0.1267
  509MOL0     C68585   9.245  10.909   3.445 -0.3627 -0.3294  0.0941
  509MOL0     C68586   9.376  10.873   3.465  0.0041 -0.2507 -1.2645
  509MOL0     C68587   9.446  10.792   3.382  0.3083  0.2794  0.8906
  509MOL0     O68588   9.575  10.733   3.393  0.1774 -0.6003  1.2048
  509MOL0     C68589   9.661  10.762   3.500 -0.3525 -0.1214  0.5395
  509MOL0     C68590   9.765  10.648   3.526  0.6246  0.6529  0.0765
  509MOL0     C68591   9.810  10.564   3.405 -0.4258 -0.0647  0.8667
  509MOL0     C68592   9.958  10.516   3.406 -0.4798 -0.1419 -1.0762
  509MOL0     C68593   9.992  10.444   3.277  0.3246 -0.0996  0.3531
  509MOL0     C68594  10.022  10.517   3.142  0.2541 -0.6793 -0.0251
  509MOL0     C68595  10.155  10.602   3.156  0.3195  0.5597  0.0644
  509MOL0     C68596  10.276  10.570   3.061 -0.2656 -0.4526  0.6013
  509MOL0     N68597  10.351  10.697   3.039 -0.0504  0.0394 -0.1419
  509MOL0     C68598  10.483  10.706   3.043  0.0916 -0.0226 -0.0241
  509MOL0     C68599  10.519  10.836   3.011  0.4651  1.2604 -0.9564
  509MOL0     C68600  10.654  10.890   3.009  0.3770 -0.1975  0.8420
  509MOL0     C68601  10.733  10.887   3.139 -0.2279  0.2250  0.6592
  509MOL0     C68602  10.831  11.006   3.156 -0.1021  0.1331  0.4096
  509MOL0     C68603  10.929  11.011   3.029  0.3814  0.7400  0.1370
  509MOL0     O68604  10.972  10.879   3.018 -0.6331  0.4327 -0.2786
  509MOL0     C68605  11.103  10.859   3.038  0.5829 -1.4748 -0.4126
  509MOL0     C68606  11.155  10.811   3.166 -0.9990 -0.5649  0.8511
  509MOL0     C68607  11.285  10.796   3.180 -0.1694  0.6422 -0.6016
  509MOL0     C68608  11.374  10.816   3.072  0.5593 -1.0012 -0.1417
  509MOL0     C68609  11.515  10.793   3.092  0.2316  0.8967 -0.6198
  509MOL0     O68610  11.586  10.841   2.990 -0.3620  0.3993 -0.3054
  509MOL0     C68611  11.721  10.827   2.977  0.4995 -0.3407 -0.1443
  509MOL0     C68612  11.802  10.745   3.061 -0.3151 -0.4769 -0.1214
  509MOL0     C68613  11.938  10.739   3.035  0.4523  0.4165  0.1086
  509MOL0     C68614  11.990  10.804   2.924 -0.9715 -0.0616 -0.2684
  509MOL0     O68615  12.126  10.798   2.900  0.0106  0.9692 -0.0029
  509MOL0     C68616  12.220  10.709   2.976  0.3331 -0.0586  1.6295
  509MOL0     C68617  12.358  10.762   2.953 -0.4020  0.7126 -0.0437
  509MOL0     C68618  12.424  10.717   2.817  0.0437 -0.0755  0.2387
  509MOL0     C68619  12.547  10.795   2.796 -0.3248 -0.1414  0.3740
  509MOL0     C68620  12.590  10.807   2.651 -0.4743  0.4845 -0.2904
  509MOL0     C68621  12.748  10.796   2.627  0.8553  0.6206  0.8081
  509MOL0     C68622  12.819  10.912   2.688 -0.2545  0.8119  0.5000
  509MOL0     C68623  12.963  10.926   2.634  0.1588 -0.1403  0.0592
  509MOL0    Cl68624  13.071  10.787   2.686 -0.4430 -0.4553  0.0412
  509MOL0     C68625  11.909  10.871   2.830  0.4070 -0.9370  0.1563
  509MOL0     C68626  11.774  10.893   2.864 -1.0410 -0.0650 -0.1132
  509MOL0     O68627  11.557  10.741   3.199 -0.8552  0.7369 -0.7264
  509MOL0     C68628  11.325  10.864   2.946  0.5268 -1.0349  0.1151
  509MOL0     C68629  11.193  10.883   2.928  0.4531 -0.2959 -0.5466
  509MOL0     N68630  10.403  10.899   2.975  0.1844 -0.6389  0.3840
  509MOL0     N68631  10.307  10.817   2.994  0.3310  0.1892 -0.2970
  509MOL0     C68632   9.379  10.761   3.259  0.4643  0.0072  0.1472
  509MOL0     C68633   9.261  10.818   3.223 -0.3918 -0.6588 -0.0900
  509MOL0     C68634   8.882  11.106   3.276 -0.1202 -0.5719  0.0498
  509MOL0     C68635   8.852  11.241   3.314  0.6211  0.4521 -0.3830
  509MOL0     C68636   8.724  11.291   3.317  0.4029 -0.1161  0.1051
  509MOL0     C68637   8.621  11.205   3.270 -0.0232  0.2921  0.1624
  509MOL0     O68638   8.497  11.263   3.259 -0.3029 -0.4044 -0.4204
  509MOL0     C68639   8.397  11.175   3.213  0.0724  0.4385  0.1226
  509MOL0     C68640   8.255  11.241   3.194 -0.4767 -1.1847 -0.3581
  509MOL0     C68641   8.273  11.371   3.105 -0.0477  0.1549  0.6422
  509MOL0     C68642   8.148  11.447   3.086 -1.1291  0.3105  0.0954
  509MOL0     C68643   8.092  11.481   3.218 -0.2444  0.1157  0.1837
  509MOL0     C68644   8.056  11.515   3.326 -0.1484  0.0175 -0.2814
  509MOL0     C68645   8.652  11.067   3.236  0.8089  1.1026 -0.2116
  509MOL0     C68646   8.783  11.019   3.237  0.3459 -0.3566 -0.3027
  509MOL0     C68647   8.802  10.876   3.186 -0.3682 -0.2668 -0.4066
  509MOL0     H68648   9.174  10.936   3.522 -1.0525  0.7544 -0.8883
  509MOL0     H68649   9.430  10.893   3.558  1.5653  0.2338 -2.2283
  509MOL0     H68650   9.709  10.848   3.452 -0.1538 -0.2453  0.5143
  509MOL0     H68651   9.603  10.792   3.587 -0.4334  1.6703 -0.0866
  509MOL0     H68652   9.708  10.581   3.591 -1.4051 -0.5204 -2.7403
  509MOL0     H68653   9.848  10.688   3.585  1.1076 -1.4636  0.9086
  509MOL0     H68654   9.771  10.615   3.317  0.5228  4.2415  2.6917
  509MOL0     H68655   9.752  10.472   3.422 -2.7302  1.3356  0.9640
  509MOL0     H68656  10.018  10.607   3.409  0.2920 -0.5901  3.5022
  509MOL0     H68657   9.982  10.463   3.498  2.6783 -0.1005 -1.7680
  509MOL0     H68658  10.072  10.374   3.300 -0.1621 -2.0251 -3.0773
  509MOL0     H68659   9.918  10.369   3.247 -0.1628  0.6152 -0.2868
  509MOL0     H68660  10.022  10.441   3.064  0.6806  0.7749 -1.4918
  509MOL0     H68661   9.937  10.581   3.117  0.2381 -1.5410 -2.4538
  509MOL0     H68662  10.183  10.603   3.262 -0.9023 -1.4946  0.4673
  509MOL0     H68663  10.126  10.706   3.140  0.0755  0.3682 -0.7750
  509MOL0     H68664  10.331  10.487   3.107 -1.7623 -2.4501 -1.0086
  509MOL0     H68665  10.234  10.538   2.965  2.8082  1.6254 -1.6092
  509MOL0     H68666  10.554  10.630   3.074  1.7603  1.8163  0.9033
  509MOL0     H68667  10.705  10.857   2.918  0.9533  1.3690  0.5604
  509MOL0     H68668  10.638  10.994   2.978  3.4014 -0.3994 -1.9603
  509MOL0     H68669  10.663  10.904   3.221 -0.3476  1.6074  0.3065
  509MOL0     H68670  10.774  10.786   3.142 -0.3870  0.0502 -1.4682
  509MOL0     H68671  10.884  10.989   3.251 -0.1864  3.2160  1.1370
  509MOL0     H68672  10.778  11.101   3.170  0.1624  0.3094  0.2147
  509MOL0     H68673  11.008  11.079   3.062  0.2664  0.5200  0.9039
  509MOL0     H68674  10.883  11.047   2.937 -0.2952  1.1375  0.6143
  509MOL0     H68675  11.099  10.783   3.255  1.7522 -1.8976  2.2892
  509MOL0     H68676  11.313  10.763   3.280 -1.4582 -4.9770 -1.7627
  509MOL0     H68677  11.774  10.684   3.147 -0.6401 -2.1026 -1.3373
  509MOL0     H68678  11.999  10.674   3.097  3.0605  1.1563 -1.5250
  509MOL0     H68679  12.207  10.718   3.084 -0.2985 -1.6648  1.7174
  509MOL0     H68680  12.209  10.603   2.952  0.3042  0.0665  1.0848
  509MOL0     H68681  12.360  10.871   2.966 -1.5822  0.9049 -1.2049
  509MOL0     H68682  12.410  10.711   3.034 -1.5516  1.8055  1.4450
  509MOL0     H68683  12.455  10.612   2.811 -0.4099 -0.1860 -5.1618
  509MOL0     H68684  12.351  10.728   2.737 -0.0512  2.9247  0.6213
  509MOL0     H68685  12.634  10.753   2.847  0.6782 -0.4151 -1.5009
  509MOL0     H68686  12.522  10.895   2.834  0.6546  0.3806 -0.3446
  509MOL0     H68687  12.561  10.906   2.613  2.2218  1.9016  1.0778
  509MOL0     H68688  12.542  10.740   2.578  0.3435  0.5562 -0.9119
  509MOL0     H68689  12.783  10.702   2.671  0.2573  1.0385  2.2343
  509MOL0     H68690  12.756  10.792   2.518 -1.7405 -1.2020  0.5881
  509MOL0     H68691  12.828  10.897   2.796 -1.1417 -1.4717  0.3158
  509MOL0     H68692  12.772  11.009   2.667  0.5117  0.7897 -1.5400
  509MOL0     H68693  12.960  10.943   2.526 -3.5272 -0.1684  0.0320
  509MOL0     H68694  13.010  11.012   2.685  1.4708 -0.6119 -0.3054
  509MOL0     H68695  11.952  10.912   2.739 -0.6250 -0.7835 -0.2718
  509MOL0     H68696  11.704  10.951   2.806  0.0302  0.2960 -1.0764
  509MOL0     H68697  11.393  10.880   2.863  1.2683 -1.1416  0.6961
  509MOL0     H68698  11.153  10.922   2.835 -2.9027  1.6956  1.5527
  509MOL0     H68699   9.423  10.690   3.191  0.1641 -0.9124  0.8971
  509MOL0     H68700   9.221  10.788   3.126  1.9501 -4.4280 -0.1252
  509MOL0     H68701   8.932  11.299   3.358 -0.9668  0.7776  2.3525
  509MOL0     H68702   8.700  11.395   3.336 -1.1741 -0.2507 -1.0185
  509MOL0     H68703   8.391  11.096   3.289  3.2325  0.6698  0.7814
  509MOL0     H68704   8.424  11.127   3.118  1.6952 -0.5063  1.0054
  509MOL0     H68705   8.208  11.269   3.289 -0.6422  2.6037 -1.3900
  509MOL0     H68706   8.190  11.167   3.146 -0.2908 -2.1740  0.8703
  509MOL0     H68707   8.314  11.345   3.007 -1.6241  0.5806 -0.1622
  509MOL0     H68708   8.351  11.433   3.150  1.6791 -1.6137  0.2402
  509MOL0     H68709   8.164  11.534   3.022  2.1541 -0.6862 -0.6527
  509MOL0     H68710   8.070  11.386   3.040 -0.8286 -0.4546  0.5810
  509MOL0     H68711   8.030  11.541   3.427 -0.1809 -2.5708  0.4472
  509MOL0     H68712   8.573  10.996   3.218 -0.0497  1.6765  1.1241
  509MOL0     H68713   8.713  10.830   3.143 -0.0186  1.4590 -3.2367
  509MOL0     H68714   8.874  10.886   3.105 -0.7213  0.0085 -0.6893
  509MOL0     H68715   8.843  10.819   3.271 -0.6424 -0.5373 -0.4542
  510MOL0     O68716   6.856   0.295   9.241 -1.0942  1.2729  0.5981
  510MOL0     C68717   6.879   0.190   9.181  0.2519  0.9258 -0.8512
  510MOL0     O68718   6.994   0.114   9.192  0.2467 -0.5214 -0.4151
  510MOL0     C68719   7.083   0.171   9.279  1.0630  0.3121 -0.4006
  510MOL0     C68720   7.109   0.104   9.398  0.3624  0.4131 -0.7302
  510MOL0     C68721   7.215   0.144   9.480 -0.0672  0.8547  0.1893
  510MOL0     C68722   7.291   0.260   9.453  0.8110  0.0109 -0.3274
  510MOL0     O68723   7.375   0.304   9.548  0.4356 -0.2576 -0.0229
  510MOL0     C68724   7.466   0.409   9.517  0.4670 -0.0439 -0.0480
  510MOL0     C68725   7.551   0.429   9.642  0.2094 -0.1015 -0.8598
  510MOL0     C68726   7.653   0.322   9.657  0.7421 -0.2726 -0.3593
  510MOL0     C68727   7.710   0.321   9.803  0.3740 -0.3055  1.1824
  510MOL0     C68728   7.852   0.271   9.805  0.0621  0.4999  0.6969
  510MOL0     C68729   7.910   0.263   9.942 -0.8625  0.3928  0.4139
  510MOL0     C68730   8.058   0.202   9.947  0.5185 -0.4933 -0.2762
  510MOL0     C68731   8.156   0.289   9.863  0.8152 -0.8766 -0.3167
  510MOL0     N68732   8.281   0.285   9.940  0.5164  0.2807  0.9250
  510MOL0     C68733   8.382   0.191   9.945 -0.6076 -0.1671 -1.0507
  510MOL0     C68734   8.473   0.246  10.033 -0.4000  0.3815 -0.8549
  510MOL0     C68735   8.594   0.164  10.079 -0.2898  0.0312 -0.4611
  510MOL0     C68736   8.710   0.178   9.983 -0.4168  0.0726  0.0919
  510MOL0     C68737   8.841   0.137  10.045 -0.1591  0.5389 -0.4903
  510MOL0     C68738   8.954   0.207   9.964  0.2842 -0.2117  0.3728
  510MOL0     O68739   9.082   0.157  10.015 -0.3430 -0.4853  0.4359
  510MOL0     C68740   9.199   0.182   9.944  0.4508 -0.4185  0.2278
  510MOL0     C68741   9.310   0.108   9.979  0.3976 -0.0476  0.1402
  510MOL0     C68742   9.428   0.124   9.907  0.5403  0.2785 -0.5906
  510MOL0     C68743   9.442   0.218   9.804 -0.4201  0.5913  1.3091
  510MOL0     C68744   9.574   0.248   9.742 -0.0264  0.0073 -0.0674
  510MOL0     O68745   9.678   0.158   9.770  0.2148  0.0092  0.6068
  510MOL0     C68746   9.793   0.171   9.699 -0.8500  0.4627 -0.4966
  510MOL0     C68747   9.858   0.298   9.670  0.4333 -0.2599  0.0097
  510MOL0     C68748   9.990   0.309   9.632 -0.6022 -0.7196  0.2587
  510MOL0     C68749  10.062   0.183   9.614 -0.0981 -0.1711 -0.8283
  510MOL0     O68750  10.192   0.205   9.580  0.1896  0.4994 -0.1283
  510MOL0     C68751  10.291   0.107   9.620  0.0383  0.2106  0.1678
  510MOL0     C68752  10.308  -0.001   9.503  0.1747 -0.9632 -0.5634
  510MOL0     C68753  10.413  -0.107   9.533  0.5458 -0.1290  0.2705
  510MOL0     C68754  10.452  -0.189   9.407  0.3224 -0.9338 -0.1946
  510MOL0     C68755  10.561  -0.293   9.430 -1.1978  0.5239  1.2507
  510MOL0     C68756  10.682  -0.239   9.492  0.4550 -0.4282 -0.2694
  510MOL0     C68757  10.814  -0.312   9.465 -0.9006 -0.2592  0.1446
  510MOL0     C68758  10.883  -0.351   9.599 -0.1732  0.4495  0.2718
  510MOL0    Cl68759  11.024  -0.457   9.541 -0.3388 -0.1334  0.0195
  510MOL0     C68760  10.002   0.061   9.653 -0.6683 -0.0627  0.8672
  510MOL0     C68761   9.862   0.055   9.666 -0.0370  0.0902 -0.2677
  510MOL0     O68762   9.586   0.338   9.662  0.2242  0.3156 -0.4558
  510MOL0     C68763   9.326   0.283   9.762 -0.1331 -0.9751 -0.4178
  510MOL0     C68764   9.204   0.270   9.829 -0.7079 -0.8927 -0.0163
  510MOL0     N68765   8.433   0.372  10.067  0.4337 -0.3632  0.7970
  510MOL0     N68766   8.316   0.392  10.010  0.0339 -0.1227 -0.3817
  510MOL0     C68767   7.258   0.325   9.333 -0.0951  0.1934  0.2519
  510MOL0     C68768   7.160   0.282   9.250 -0.0798  0.0371 -0.2994
  510MOL0     C68769   6.762   0.126   9.098  0.3681 -0.1779 -0.7186
  510MOL0     C68770   6.783  -0.005   9.054 -0.5016  0.7223  0.2226
  510MOL0     C68771   6.682  -0.089   8.994 -0.3728  0.2740 -0.0862
  510MOL0     C68772   6.563  -0.036   8.970 -0.5148 -0.3305  0.0086
  510MOL0     O68773   6.476  -0.103   8.888 -0.0133  0.4080  0.1375
  510MOL0     C68774   6.369  -0.158   8.958 -0.0126  0.4130  0.3368
  510MOL0     C68775   6.282  -0.250   8.867 -0.6237 -0.1227  0.1100
  510MOL0     C68776   6.176  -0.329   8.955  0.0759 -0.7221 -0.9784
  510MOL0     C68777   6.064  -0.402   8.884  0.5421 -0.3628  0.2988
  510MOL0     C68778   6.020  -0.309   8.779  0.4596 -0.4597 -0.3650
  510MOL0     C68779   5.990  -0.241   8.686  0.8690 -1.0775  0.2295
  510MOL0     C68780   6.540   0.102   9.004 -0.4868  0.8280 -0.0117
  510MOL0     C68781   6.639   0.180   9.066  1.0926  1.2548  0.5181
  510MOL0     C68782   6.612   0.319   9.106  0.0949 -0.2361 -0.1935
  510MOL0     H68783   7.063   0.012   9.431 -1.5004  0.6054 -2.5708
  510MOL0     H68784   7.236   0.084   9.567 -2.2002  0.3552  0.4183
  510MOL0     H68785   7.532   0.378   9.435  1.6969  1.2901  0.3823
  510MOL0     H68786   7.403   0.495   9.492 -0.3144 -0.3967  0.6666
  510MOL0     H68787   7.476   0.430   9.721  0.1796  1.2427 -0.8777
  510MOL0     H68788   7.596   0.528   9.630 -0.6020 -0.0180 -4.7359
  510MOL0     H68789   7.730   0.342   9.583  2.5925 -0.9212  1.2952
  510MOL0     H68790   7.602   0.227   9.638 -1.3482  1.1057 -2.1139
  510MOL0     H68791   7.702   0.421   9.847  1.6197  0.3653 -0.0373
  510MOL0     H68792   7.650   0.254   9.865 -1.1314  0.4956  0.6465
  510MOL0     H68793   7.831   0.176   9.756  0.0050  0.7786  0.1687
  510MOL0     H68794   7.907   0.325   9.728 -1.3509  0.4984 -0.3434
  510MOL0     H68795   7.909   0.364   9.983 -0.0846  0.4801  0.2356
  510MOL0     H68796   7.847   0.207  10.012  0.8541 -1.7163  0.4051
  510MOL0     H68797   8.059   0.097   9.915 -1.0795 -0.6318  0.0440
  510MOL0     H68798   8.082   0.194  10.053 -0.7786 -2.2025 -0.0717
  510MOL0     H68799   8.163   0.240   9.765  1.6343 -2.0112  0.2833
  510MOL0     H68800   8.121   0.392   9.854 -2.8273 -1.6410  2.7306
  510MOL0     H68801   8.398   0.092   9.903  0.0125 -1.0818  1.2121
  510MOL0     H68802   8.623   0.201  10.178 -2.0888 -1.6745  0.7857
  510MOL0     H68803   8.564   0.060  10.091  1.5531 -0.8636 -2.7871
  510MOL0     H68804   8.701   0.117   9.893  0.0548 -2.5132  1.6884
  510MOL0     H68805   8.725   0.284   9.964  2.0638 -0.1363  0.5141
  510MOL0     H68806   8.855   0.029  10.040 -0.4839  0.4578  0.2261
  510MOL0     H68807   8.862   0.166  10.148  1.6327 -0.2061 -0.6171
  510MOL0     H68808   8.953   0.315   9.979  2.2821 -0.3648  2.1749
  510MOL0     H68809   8.941   0.172   9.862 -1.7206 -0.7936  0.7938
  510MOL0     H68810   9.303   0.032  10.056  0.9890 -1.5440 -1.2211
  510MOL0     H68811   9.508   0.062   9.946 -0.5985 -0.2122  1.1069
  510MOL0     H68812   9.807   0.382   9.715  2.0136  1.5597 -1.4656
  510MOL0     H68813  10.033   0.405   9.607  1.3926 -1.7749 -0.5933
  510MOL0     H68814  10.381   0.165   9.644  1.2105 -1.1330 -0.8274
  510MOL0     H68815  10.259   0.048   9.706  2.0102  0.5945  1.2138
  510MOL0     H68816  10.205  -0.029   9.482 -0.9450  1.6953  0.9069
  510MOL0     H68817  10.338   0.057   9.416  2.2190  0.4424  0.9687
  510MOL0     H68818  10.504  -0.055   9.565  0.1513 -1.6214  4.4248
  510MOL0     H68819  10.388  -0.177   9.613 -0.0533 -0.3592 -0.1094
  510MOL0     H68820  10.498  -0.117   9.338  0.1682  0.5212  1.1615
  510MOL0     H68821  10.362  -0.230   9.362  0.7479 -0.8258 -1.1611
  510MOL0     H68822  10.590  -0.320   9.328 -0.8438  2.4258  0.8102
  510MOL0     H68823  10.532  -0.381   9.488 -2.2949 -0.1519 -0.2623
  510MOL0     H68824  10.696  -0.134   9.466  1.3946 -1.1416 -2.9163
  510MOL0     H68825  10.655  -0.244   9.598 -1.3152 -0.7878 -0.7045
  510MOL0     H68826  10.878  -0.240   9.413  1.9377 -1.8200  1.2481
  510MOL0     H68827  10.803  -0.400   9.401  2.2486 -1.8373  1.5679
  510MOL0     H68828  10.902  -0.260   9.656  0.6705  1.4011 -1.4587
  510MOL0     H68829  10.817  -0.406   9.668  0.9524 -1.8638 -0.3876
  510MOL0     H68830  10.063  -0.027   9.670 -1.5440 -0.9266 -0.3060
  510MOL0     H68831   9.820  -0.043   9.687  0.9147 -0.0031  1.3904
  510MOL0     H68832   9.336   0.362   9.688 -1.7690  2.2849  2.5487
  510MOL0     H68833   9.117   0.320   9.787 -0.6119 -0.5170  0.2297
  510MOL0     H68834   7.315   0.413   9.305 -0.9419  1.4020  2.1574
  510MOL0     H68835   7.143   0.334   9.157  1.6646 -1.4454 -1.5262
  510MOL0     H68836   6.878  -0.054   9.070 -0.7512 -1.1272 -3.1102
  510MOL0     H68837   6.693  -0.192   8.962 -1.2345 -0.4576  1.8712
  510MOL0     H68838   6.304  -0.076   8.990  1.7579  1.7645  0.6196
  510MOL0     H68839   6.410  -0.205   9.047  2.4277  0.4881 -0.6761
  510MOL0     H68840   6.344  -0.326   8.818 -0.3560 -0.3156  0.7381
  510MOL0     H68841   6.238  -0.186   8.790 -0.1017 -0.1945 -0.2507
  510MOL0     H68842   6.122  -0.259   9.020 -3.0685 -3.1655 -0.7143
  510MOL0     H68843   6.228  -0.402   9.018 -0.1260 -1.2934 -1.4641
  510MOL0     H68844   6.112  -0.489   8.839  1.4830 -1.4890  3.2869
  510MOL0     H68845   5.982  -0.433   8.950  1.6747  0.0306  1.9513
  510MOL0     H68846   5.963  -0.196   8.593  0.4673 -0.1097  0.7997
  510MOL0     H68847   6.442   0.144   8.983 -0.8156 -1.1819 -3.3856
  510MOL0     H68848   6.579   0.323   9.210  2.2048 -2.5419  0.6825
  510MOL0     H68849   6.697   0.387   9.096 -1.7998  2.5215  1.2871
  510MOL0     H68850   6.544   0.364   9.033  0.2706 -0.2741 -0.3818
  511MOL0     O68851   6.407  10.460  10.576  0.1355 -0.1972  0.1734
  511MOL0     C68852   6.287  10.477  10.589 -0.5732 -0.6526  0.3918
  511MOL0     O68853   6.232  10.599  10.631 -0.0729 -0.2493  0.5584
  511MOL0     C68854   6.329  10.690  10.661 -0.8955  0.0608 -0.5573
  511MOL0     C68855   6.390  10.767  10.565 -0.1588  0.8299 -0.6933
  511MOL0     C68856   6.484  10.859  10.602 -0.3267 -0.2184 -0.1537
  511MOL0     C68857   6.526  10.864  10.737 -0.0764  0.2163 -0.1716
  511MOL0     O68858   6.620  10.940  10.791 -0.5265 -0.2892  0.2803
  511MOL0     C68859   6.682  11.035  10.705  0.1952  0.2837 -0.2278
  511MOL0     C68860   6.736  11.142  10.799  0.5839 -0.0303  0.4800
  511MOL0     C68861   6.862  11.211  10.739  0.1351 -0.0564  0.0396
  511MOL0     C68862   6.984  11.148  10.802  0.1303  0.9717  0.1410
  511MOL0     C68863   7.120  11.203  10.755  1.0544 -0.2994 -0.0450
  511MOL0     C68864   7.230  11.147  10.836  0.0517 -0.5002  0.9548
  511MOL0     C68865   7.371  11.196  10.791  0.0936  0.0725  0.5316
  511MOL0     C68866   7.486  11.155  10.885 -0.3233 -0.1697  0.2489
  511MOL0     N68867   7.605  11.235  10.863 -1.0440  0.6940  0.0096
  511MOL0     C68868   7.649  11.301  10.752  0.2226 -0.7217  0.1712
  511MOL0     C68869   7.773  11.358  10.769 -0.1304  0.2992 -0.4299
  511MOL0     C68870   7.864  11.416  10.669  0.0929  0.2259 -0.6752
  511MOL0     C68871   7.919  11.548  10.701  0.3374 -0.2006  0.3297
  511MOL0     C68872   7.813  11.667  10.697 -0.2194  0.8216 -0.5162
  511MOL0     C68873   7.754  11.702  10.834 -0.3513  0.4630 -0.1693
  511MOL0     O68874   7.655  11.801  10.809 -0.3766 -0.0617 -1.1920
  511MOL0     C68875   7.532  11.769  10.756 -0.7992  0.2112  0.6990
  511MOL0     C68876   7.481  11.863  10.669  0.4981 -0.1166 -0.2267
  511MOL0     C68877   7.351  11.835  10.605 -0.6406 -0.2221 -0.3083
  511MOL0     C68878   7.293  11.713  10.627  0.2294  0.0148  1.4501
  511MOL0     C68879   7.177  11.691  10.550 -0.1791  0.2981 -0.5196
  511MOL0     O68880   7.149  11.563  10.523 -0.6967  0.7952 -0.3902
  511MOL0     C68881   7.071  11.531  10.411  0.0608 -1.3015 -0.0189
  511MOL0     C68882   6.926  11.530  10.410 -0.4658 -0.0025 -0.3006
  511MOL0     C68883   6.858  11.487  10.296  0.2461  0.1923 -0.1175
  511MOL0     C68884   6.926  11.460  10.180 -0.3598  0.7840  0.8048
  511MOL0     O68885   6.858  11.403  10.080  0.2943  0.5431  0.2444
  511MOL0     C68886   6.907  11.274  10.042 -0.5354  0.8329  0.2502
  511MOL0     C68887   6.818  11.231   9.931 -0.4617 -0.0622  0.7281
  511MOL0     C68888   6.855  11.301   9.797  0.0765  0.8942  0.4598
  511MOL0     C68889   6.740  11.336   9.705 -0.2169  0.6326  0.2975
  511MOL0     C68890   6.775  11.430   9.594  0.2189  0.0779 -0.8877
  511MOL0     C68891   6.666  11.426   9.485  0.0119  0.0901 -0.0568
  511MOL0     C68892   6.517  11.437   9.533 -0.6423 -1.0573 -0.5021
  511MOL0     C68893   6.422  11.435   9.411  0.0101  0.2533 -0.3906
  511MOL0    Cl68894   6.427  11.271   9.353  0.6317 -0.4156 -0.2147
  511MOL0     C68895   7.065  11.470  10.172 -0.4670  0.9476 -0.7718
  511MOL0     C68896   7.133  11.498  10.287 -0.1183 -0.1877  0.2962
  511MOL0     O68897   7.107  11.789  10.515 -0.5670 -0.0150 -0.5033
  511MOL0     C68898   7.348  11.617  10.707 -0.5659 -0.1506 -0.5833
  511MOL0     C68899   7.467  11.643  10.775 -0.6867  1.0754  0.1114
  511MOL0     N68900   7.790  11.347  10.903  0.1939  0.1735 -0.1404
  511MOL0     N68901   7.698  11.268  10.953 -0.5253  0.0327 -0.8979
  511MOL0     C68902   6.470  10.780  10.832  0.6694  0.1580  0.1573
  511MOL0     C68903   6.367  10.694  10.796 -0.9304 -0.0001  0.2223
  511MOL0     C68904   6.188  10.373  10.556  0.2716 -0.1788 -0.1259
  511MOL0     C68905   6.081  10.423  10.478  0.1957  0.3455  0.0543
  511MOL0     C68906   5.972  10.346  10.428 -0.2191 -0.6768 -0.0914
  511MOL0     C68907   5.973  10.204  10.449 -1.1219 -0.4498 -0.3286
  511MOL0     O68908   5.882  10.114  10.409  0.1762 -0.1336 -0.0860
  511MOL0     C68909   5.797  10.163  10.303 -0.3267  0.5810 -0.0535
  511MOL0     C68910   5.700  10.051  10.256 -0.7462  0.0812  0.6719
  511MOL0     C68911   5.620  10.072  10.132  0.3999  0.3999  0.5394
  511MOL0     C68912   5.534  10.192  10.131  0.1043 -0.0808  0.2437
  511MOL0     C68913   5.414  10.177  10.053 -0.3315  0.0888 -0.0311
  511MOL0     C68914   5.319  10.153   9.981 -0.2433  0.1428  0.4346
  511MOL0     C68915   6.086  10.154  10.527 -0.1657  1.0101 -0.5855
  511MOL0     C68916   6.192  10.231  10.575  0.0167  0.2901 -0.2511
  511MOL0     C68917   6.309  10.169  10.650  0.6085  0.2068  0.9485
  511MOL0     H68918   6.366  10.739  10.463  2.4068  0.3638 -1.2338
  511MOL0     H68919   6.528  10.914  10.520 -0.4862 -2.8206 -2.0998
  511MOL0     H68920   6.758  10.982  10.647 -0.3498 -2.6485  1.5303
  511MOL0     H68921   6.615  11.083  10.633  0.5231  2.4875  0.8516
  511MOL0     H68922   6.753  11.101  10.899  1.6591  2.1919  1.2858
  511MOL0     H68923   6.656  11.215  10.815  0.1475 -0.5167  0.5440
  511MOL0     H68924   6.866  11.313  10.778 -1.7152 -0.1490  0.5354
  511MOL0     H68925   6.862  11.219  10.630  0.3387 -1.7216 -0.1110
  511MOL0     H68926   6.975  11.173  10.908  0.5871 -2.1971  1.0286
  511MOL0     H68927   6.990  11.039  10.794  1.9767  1.0885 -0.3571
  511MOL0     H68928   7.129  11.183  10.647  1.0503  0.9576 -0.2896
  511MOL0     H68929   7.126  11.312  10.761 -0.3340 -0.2489  0.9136
  511MOL0     H68930   7.210  11.160  10.943  1.3741  0.1753  1.1427
  511MOL0     H68931   7.232  11.038  10.828 -0.7178 -0.7053  2.8781
  511MOL0     H68932   7.362  11.304  10.779  1.4552  0.7179  4.1417
  511MOL0     H68933   7.384  11.143  10.696  0.3920  1.3491 -0.1552
  511MOL0     H68934   7.461  11.168  10.991  1.4534  0.8640  0.5872
  511MOL0     H68935   7.506  11.048  10.870 -1.4253 -0.1338 -1.8541
  511MOL0     H68936   7.603  11.298  10.654  2.4016 -1.6994 -0.8720
  511MOL0     H68937   7.954  11.355  10.667 -0.3843 -0.4882 -0.9135
  511MOL0     H68938   7.821  11.413  10.568  0.6877 -2.6644 -0.9164
  511MOL0     H68939   7.980  11.553  10.791  1.4814 -0.4822 -0.4095
  511MOL0     H68940   7.987  11.573  10.619  0.6381  2.9702  1.4145
  511MOL0     H68941   7.734  11.646  10.625 -0.3374 -0.4233 -0.0615
  511MOL0     H68942   7.872  11.753  10.665  0.8079 -0.2447 -1.5936
  511MOL0     H68943   7.825  11.752  10.900 -0.5334  1.4250 -0.6775
  511MOL0     H68944   7.715  11.616  10.888 -0.9608  1.2702  0.6971
  511MOL0     H68945   7.537  11.953  10.646 -2.4426  1.6398 -1.0205
  511MOL0     H68946   7.308  11.915  10.545 -0.4460  1.9944  2.3050
  511MOL0     H68947   6.864  11.549  10.497 -1.4959 -0.9802 -0.8038
  511MOL0     H68948   6.752  11.464  10.295 -0.3096  2.5124 -0.1472
  511MOL0     H68949   7.009  11.276  10.002 -0.2437 -0.1808  0.9166
  511MOL0     H68950   6.902  11.194  10.116 -1.2429 -0.2235 -0.9123
  511MOL0     H68951   6.837  11.125   9.911 -0.6123  0.3673 -2.0532
  511MOL0     H68952   6.712  11.245   9.955 -1.1015  1.4329 -2.4018
  511MOL0     H68953   6.896  11.399   9.821  0.9303  0.8329 -0.6720
  511MOL0     H68954   6.936  11.255   9.739 -1.0926 -1.6072  0.6757
  511MOL0     H68955   6.660  11.377   9.767 -0.7467  1.3018 -0.8052
  511MOL0     H68956   6.709  11.246   9.651  0.2929  1.2192 -1.0130
  511MOL0     H68957   6.866  11.398   9.543 -0.3013  0.5529 -2.1767
  511MOL0     H68958   6.799  11.525   9.643  1.8051 -1.6202  1.8330
  511MOL0     H68959   6.686  11.495   9.402 -0.4173 -1.3266 -1.4019
  511MOL0     H68960   6.688  11.326   9.444  0.6066 -0.1692  0.8611
  511MOL0     H68961   6.499  11.535   9.578 -0.1665 -1.8143  1.4236
  511MOL0     H68962   6.496  11.359   9.607  1.2090  0.3481  1.6630
  511MOL0     H68963   6.328  11.469   9.456  1.3222  2.1489  1.0960
  511MOL0     H68964   6.443  11.500   9.326  0.0271  0.2003 -0.4260
  511MOL0     H68965   7.120  11.438  10.084 -1.2470  1.4217 -1.4515
  511MOL0     H68966   7.241  11.505  10.288 -0.1678  0.5832  0.2511
  511MOL0     H68967   7.292  11.526  10.727  1.3060 -1.1512  0.3786
  511MOL0     H68968   7.502  11.557  10.832  2.9127 -1.0670 -4.5992
  511MOL0     H68969   6.510  10.785  10.933  2.3895  0.3085 -0.4829
  511MOL0     H68970   6.328  10.619  10.864 -1.2153 -1.5742 -1.5799
  511MOL0     H68971   6.092  10.528  10.454  0.5603  0.7725  1.9598
  511MOL0     H68972   5.886  10.398  10.388 -0.4113 -1.1468 -0.3064
  511MOL0     H68973   5.866  10.174  10.219 -2.3030  3.0667 -1.4938
  511MOL0     H68974   5.755  10.261  10.328  1.8679  1.1359  1.8182
  511MOL0     H68975   5.639  10.017  10.340 -2.8526  0.3501 -0.6811
  511MOL0     H68976   5.763   9.963  10.239 -1.4926 -0.1010 -1.4057
  511MOL0     H68977   5.550   9.988  10.128 -1.1881  1.6715  0.5614
  511MOL0     H68978   5.688  10.068  10.046  0.4003  0.5550  0.5325
  511MOL0     H68979   5.512  10.217  10.235  0.3475  1.4467 -0.0497
  511MOL0     H68980   5.600  10.269  10.091 -0.8419  0.2572 -0.6998
  511MOL0     H68981   5.238  10.156   9.912 -0.9635 -1.3872  1.1418
  511MOL0     H68982   6.096  10.049  10.553  1.6352  1.1293 -0.7143
  511MOL0     H68983   6.318  10.061  10.644  0.9047  0.3074 -1.5328
  511MOL0     H68984   6.395  10.200  10.589  0.3357 -0.8132  0.0167
  511MOL0     H68985   6.325  10.200  10.753  0.5481 -3.8265  2.3012
  512MOL0     O68986   4.229   2.273  10.710  0.0236  0.4168 -0.2037
  512MOL0     C68987   4.113   2.315  10.709 -0.1639 -0.5862 -0.2615
  512MOL0     O68988   4.080   2.446  10.685 -0.3315 -1.1581  0.5710
  512MOL0     C68989   4.159   2.554  10.713 -1.7953 -0.2589 -0.0420
  512MOL0     C68990   4.282   2.548  10.796  0.0734  0.1789 -0.3206
  512MOL0     C68991   4.363   2.664  10.820  0.3334 -0.1751 -0.4556
  512MOL0     C68992   4.333   2.783  10.743  0.4009  0.0839 -0.6936
  512MOL0     O68993   4.421   2.887  10.772 -0.1914  0.0822  0.5638
  512MOL0     C68994   4.359   2.999  10.820  0.3548  0.5206  0.5260
  512MOL0     C68995   4.458   3.057  10.924  0.0590  0.4197  0.4463
  512MOL0     C68996   4.565   3.149  10.856  0.4190 -0.4603  0.5349
  512MOL0     C68997   4.671   3.187  10.966 -0.5390  0.4221 -0.9193
  512MOL0     C68998   4.781   3.285  10.916  0.5575  0.2132  0.2184
  512MOL0     C68999   4.881   3.313  11.023  0.1518  0.4614 -0.0614
  512MOL0     C69000   4.837   3.434  11.117 -0.6823  1.3514 -0.0834
  512MOL0     C69001   4.944   3.444  11.227  0.6280  0.5641  0.4255
  512MOL0     N69002   4.913   3.563  11.308  0.7331  0.0925  0.5669
  512MOL0     C69003   5.020   3.625  11.364 -0.1107  0.3609  0.9171
  512MOL0     C69004   4.967   3.721  11.444 -0.6133  0.5072  0.4873
  512MOL0     C69005   5.032   3.827  11.527  0.7767  0.3281 -0.2464
  512MOL0     C69006   5.109   3.925  11.447  0.4427  0.0738 -0.5181
  512MOL0     C69007   5.196   4.021  11.535  0.4039  0.4709  0.3968
  512MOL0     C69008   5.197   4.165  11.488 -0.2003  0.4852 -0.6874
  512MOL0     O69009   5.265   4.191  11.360  0.4778  0.6217  0.1357
  512MOL0     C69010   5.400   4.225  11.367  0.6756 -0.0758 -0.1309
  512MOL0     C69011   5.449   4.268  11.244 -1.1003 -0.3770 -0.7492
  512MOL0     C69012   5.584   4.306  11.241  0.1497 -0.5761  0.4121
  512MOL0     C69013   5.673   4.293  11.348 -1.0440  0.3235 -0.0873
  512MOL0     C69014   5.818   4.330  11.344  0.4981 -0.1094  0.2287
  512MOL0     O69015   5.895   4.298  11.457  0.3217 -0.2595  0.8773
  512MOL0     C69016   6.035   4.318  11.457  0.3565 -0.6307 -0.1090
  512MOL0     C69017   6.108   4.236  11.545 -0.3979  0.1526 -0.8834
  512MOL0     C69018   6.250   4.250  11.556  0.9574  1.1586 -0.3411
  512MOL0     C69019   6.315   4.340  11.469 -1.4395  0.8322 -0.1434
  512MOL0     O69020   6.452   4.351  11.485  0.3997 -0.2910  0.2281
  512MOL0     C69021   6.489   4.441  11.595  0.7959 -0.8438 -0.2671
  512MOL0     C69022   6.634   4.459  11.594  0.0931  1.1289  0.2547
  512MOL0     C69023   6.713   4.340  11.648  0.2017  1.2198  0.4403
  512MOL0     C69024   6.838   4.375  11.716 -0.6538 -0.0603 -0.2605
  512MOL0     C69025   6.929   4.266  11.767  0.7016 -0.6083 -0.7417
  512MOL0     C69026   6.995   4.196  11.648 -0.1875  0.1343  0.7560
  512MOL0     C69027   7.115   4.104  11.671 -1.0226 -0.0306 -1.1100
  512MOL0     C69028   7.230   4.168  11.745  0.1883 -0.0274 -1.0480
  512MOL0    Cl69029   7.282   4.313  11.663  0.0358 -0.3433  0.0889
  512MOL0     C69030   6.246   4.413  11.378 -0.3935 -0.0650  0.6690
  512MOL0     C69031   6.107   4.403  11.369  0.2937  0.4673  0.1537
  512MOL0     O69032   5.866   4.361  11.237 -0.3734  0.0688 -0.1289
  512MOL0     C69033   5.619   4.242  11.468 -0.2270  0.2886 -0.1305
  512MOL0     C69034   5.483   4.206  11.476 -0.5574 -0.0425  0.6539
  512MOL0     N69035   4.829   3.706  11.439  0.3550  0.2711  0.2585
  512MOL0     N69036   4.797   3.601  11.370 -0.4095  0.5145  1.2104
  512MOL0     C69037   4.214   2.786  10.672  0.2326  0.6228 -0.0609
  512MOL0     C69038   4.128   2.682  10.664 -0.4902  0.5342 -0.4582
  512MOL0     C69039   4.002   2.217  10.726 -0.0280 -0.5888  0.0425
  512MOL0     C69040   3.872   2.279  10.747 -0.2831 -0.0100 -0.3740
  512MOL0     C69041   3.763   2.201  10.767  0.2818  0.6840  0.0775
  512MOL0     C69042   3.768   2.063  10.770 -0.0301  0.7595  0.1892
  512MOL0     O69043   3.669   1.989  10.830  1.0506 -0.5452 -0.0490
  512MOL0     C69044   3.578   1.929  10.729 -0.6572 -0.8310 -0.1035
  512MOL0     C69045   3.436   1.939  10.774 -0.7653  0.2263  0.2648
  512MOL0     C69046   3.397   2.082  10.752  0.1743  0.3143 -0.3004
  512MOL0     C69047   3.249   2.098  10.770 -0.0165 -0.1625  0.2602
  512MOL0     C69048   3.213   2.228  10.726 -0.8196 -0.7683 -0.0871
  512MOL0     C69049   3.205   2.350  10.689 -0.0801  0.2079  0.2260
  512MOL0     C69050   3.893   2.001  10.729  0.4601  0.4832  0.1368
  512MOL0     C69051   4.010   2.072  10.708  0.5531 -0.0737 -0.4229
  512MOL0     C69052   4.137   1.996  10.666  0.0366  0.2867  0.4292
  512MOL0     H69053   4.324   2.453  10.825 -0.2790 -0.6002 -2.2111
  512MOL0     H69054   4.456   2.653  10.875 -0.4939 -0.5376  0.9142
  512MOL0     H69055   4.350   3.062  10.731  4.0984  0.3290 -0.1424
  512MOL0     H69056   4.262   2.976  10.865 -0.5777 -0.4018 -1.7907
  512MOL0     H69057   4.498   2.985  10.995 -0.8035 -0.5632 -0.0297
  512MOL0     H69058   4.392   3.121  10.984 -1.1029  0.1127 -0.4636
  512MOL0     H69059   4.523   3.236  10.805  0.0684  0.2863  2.0416
  512MOL0     H69060   4.614   3.089  10.779 -0.0971 -2.4286  1.6773
  512MOL0     H69061   4.616   3.235  11.047 -3.7408 -0.3813 -2.4531
  512MOL0     H69062   4.722   3.097  11.002 -1.0817  0.7769  0.8074
  512MOL0     H69063   4.813   3.233  10.825  3.1584 -2.3515  2.4186
  512MOL0     H69064   4.740   3.380  10.879 -0.8988 -1.4517 -2.7499
  512MOL0     H69065   4.892   3.227  11.090 -1.6901  0.8736  0.8349
  512MOL0     H69066   4.977   3.330  10.974 -0.3443 -1.8542 -2.0416
  512MOL0     H69067   4.738   3.423  11.162 -0.0323  0.0646  1.1284
  512MOL0     H69068   4.845   3.515  11.044  1.4804 -0.0167 -1.4803
  512MOL0     H69069   4.941   3.371  11.309  0.6734  1.2225  1.0329
  512MOL0     H69070   5.046   3.446  11.190  1.0269  0.6846  1.4802
  512MOL0     H69071   5.126   3.609  11.352 -0.3671 -2.2158  1.3816
  512MOL0     H69072   4.953   3.881  11.580  1.2103  0.6338  0.0946
  512MOL0     H69073   5.100   3.789  11.603 -1.2106  1.8544  2.4903
  512MOL0     H69074   5.164   3.883  11.362 -2.2675 -1.1240 -1.8061
  512MOL0     H69075   5.033   3.978  11.387  1.4362  1.6201 -0.4708
  512MOL0     H69076   5.299   3.984  11.538  0.6844  1.0975 -0.7347
  512MOL0     H69077   5.162   4.013  11.639  0.2238  2.3517  0.5256
  512MOL0     H69078   5.237   4.230  11.566  0.8162 -1.4513  0.4913
  512MOL0     H69079   5.096   4.205  11.474  0.5709  3.5689  1.5596
  512MOL0     H69080   5.386   4.273  11.156 -1.5881 -3.0172 -0.6315
  512MOL0     H69081   5.619   4.327  11.140 -0.0543 -2.2927 -0.0383
  512MOL0     H69082   6.045   4.171  11.604  0.8318 -1.9742 -1.7996
  512MOL0     H69083   6.306   4.192  11.629 -0.9801  0.8676  1.0048
  512MOL0     H69084   6.450   4.540  11.573  0.1038 -1.0503 -0.0027
  512MOL0     H69085   6.466   4.400  11.693  3.4163 -2.6860 -0.3158
  512MOL0     H69086   6.666   4.484  11.493  1.3983  0.8925  0.5885
  512MOL0     H69087   6.658   4.540  11.664  2.1997 -0.0609  0.9978
  512MOL0     H69088   6.649   4.289  11.720 -0.4032  1.0193 -0.2286
  512MOL0     H69089   6.730   4.258  11.577  2.3632 -1.1706  3.4438
  512MOL0     H69090   6.820   4.447  11.797  0.8801  0.9595 -0.7537
  512MOL0     H69091   6.896   4.436  11.645  0.5143 -0.2768  0.4814
  512MOL0     H69092   6.874   4.195  11.830  0.8480  2.5485  3.3440
  512MOL0     H69093   7.003   4.312  11.833 -0.3171 -2.1973  1.6645
  512MOL0     H69094   6.911   4.145  11.598 -1.1467  1.3482  1.0943
  512MOL0     H69095   7.026   4.271  11.575  2.1619 -1.4009  0.0298
  512MOL0     H69096   7.145   4.065  11.574 -3.0695 -0.2621 -1.6948
  512MOL0     H69097   7.084   4.026  11.741 -0.8261  2.2903  1.7521
  512MOL0     H69098   7.180   4.200  11.837 -0.6119 -1.6954 -0.8739
  512MOL0     H69099   7.317   4.111  11.777  0.2509 -0.8881 -2.6317
  512MOL0     H69100   6.293   4.473  11.301  2.5557 -4.2817 -1.2331
  512MOL0     H69101   6.049   4.470  11.306  2.8688  2.6877 -0.0200
  512MOL0     H69102   5.679   4.216  11.554  0.2015 -1.6598 -0.9566
  512MOL0     H69103   5.453   4.169  11.574 -3.3724 -2.1063 -0.8499
  512MOL0     H69104   4.183   2.873  10.616 -0.1456 -0.1152 -1.0260
  512MOL0     H69105   4.036   2.677  10.607 -0.3965 -2.5993 -0.5217
  512MOL0     H69106   3.871   2.387  10.750 -0.1350  0.0493 -1.7762
  512MOL0     H69107   3.670   2.256  10.774 -0.4829 -0.7068  1.4331
  512MOL0     H69108   3.606   1.824  10.723  0.6767 -0.4332 -1.3996
  512MOL0     H69109   3.601   1.974  10.632  3.3846  0.3440  1.1798
  512MOL0     H69110   3.424   1.894  10.873 -3.6294  0.2083 -0.0066
  512MOL0     H69111   3.378   1.875  10.707  0.5770 -0.0133 -0.7050
  512MOL0     H69112   3.421   2.106  10.648 -2.0113  1.0974 -0.6642
  512MOL0     H69113   3.447   2.142  10.828 -2.1246 -0.9463  2.3654
  512MOL0     H69114   3.189   2.036  10.703 -0.7906 -0.1457  0.9259
  512MOL0     H69115   3.216   2.072  10.871 -2.3004 -1.8907 -0.8346
  512MOL0     H69116   3.194   2.451  10.654 -1.0218 -0.0536 -0.2823
  512MOL0     H69117   3.904   1.893  10.720  1.2091  0.3803  1.8222
  512MOL0     H69118   4.117   1.897  10.623 -7.4191 -0.2143  3.4162
  512MOL0     H69119   4.183   2.058  10.589 -0.9944 -0.7613 -1.0671
  512MOL0     H69120   4.199   1.988  10.756  1.2160  2.1669 -0.1677
  513MOL0     O69121   2.002   1.891   8.188  0.1660 -0.2780 -0.8265
  513MOL0     C69122   2.001   1.958   8.083  0.5113  0.6454  1.2069
  513MOL0     O69123   2.079   2.069   8.059 -0.4224 -0.6664 -0.1803
  513MOL0     C69124   2.160   2.136   8.147  0.7173 -1.0026  0.4410
  513MOL0     C69125   2.279   2.200   8.105  0.6789 -0.5554  0.5664
  513MOL0     C69126   2.371   2.251   8.190  0.6613 -0.3815 -0.4055
  513MOL0     C69127   2.351   2.252   8.332 -0.0459 -0.7774 -0.0421
  513MOL0     O69128   2.440   2.317   8.409 -0.1661  0.1237  0.2987
  513MOL0     C69129   2.406   2.325   8.551  0.4225 -0.1109 -0.0667
  513MOL0     C69130   2.506   2.400   8.641 -0.3201 -0.3428 -0.3776
  513MOL0     C69131   2.647   2.328   8.632  0.1516  0.4444 -0.4148
  513MOL0     C69132   2.753   2.410   8.704 -0.1856 -1.2020 -0.9248
  513MOL0     C69133   2.887   2.363   8.661 -0.3948 -0.9426 -0.4956
  513MOL0     C69134   2.915   2.230   8.727 -0.6979 -1.0414 -0.1415
  513MOL0     C69135   3.066   2.221   8.789  0.8469  0.4342  0.3125
  513MOL0     C69136   3.166   2.219   8.667 -0.7485 -0.1653 -0.9478
  513MOL0     N69137   3.299   2.242   8.720 -0.7504  0.8567 -0.4156
  513MOL0     C69138   3.341   2.276   8.851  0.9911  0.0415  0.1229
  513MOL0     C69139   3.474   2.260   8.850  0.7898  0.3261 -0.8010
  513MOL0     C69140   3.569   2.296   8.960 -0.5947 -0.4013  0.0177
  513MOL0     C69141   3.593   2.182   9.071 -0.0948 -0.8204  0.8427
  513MOL0     C69142   3.521   2.205   9.198  0.3550 -1.1171 -0.2760
  513MOL0     C69143   3.587   2.315   9.285 -0.2006 -0.0348  0.5892
  513MOL0     O69144   3.715   2.275   9.312 -0.5904  0.4410 -0.5095
  513MOL0     C69145   3.823   2.366   9.293  0.6828  0.4787 -0.3865
  513MOL0     C69146   3.940   2.309   9.259 -0.1222  0.5500 -0.3054
  513MOL0     C69147   4.060   2.374   9.258  0.0590 -0.7630 -0.8123
  513MOL0     C69148   4.052   2.508   9.302 -0.6678  0.8309 -1.2056
  513MOL0     C69149   4.187   2.582   9.306 -0.1227  0.0480  0.3757
  513MOL0     O69150   4.308   2.520   9.287 -0.0804 -0.4171 -0.3170
  513MOL0     C69151   4.431   2.569   9.294 -0.5100 -0.5863  0.4174
  513MOL0     C69152   4.537   2.483   9.273 -0.5765 -0.6331 -0.5849
  513MOL0     C69153   4.669   2.512   9.298 -0.1591 -0.3896  0.2916
  513MOL0     C69154   4.695   2.638   9.359  0.7340  1.1075  0.9443
  513MOL0     O69155   4.819   2.680   9.397 -0.3810 -0.3989  0.2973
  513MOL0     C69156   4.933   2.653   9.307  0.5324  0.8304 -0.5096
  513MOL0     C69157   5.069   2.687   9.366 -0.5210  0.1563 -0.1777
  513MOL0     C69158   5.177   2.661   9.264 -0.6360  0.1214  0.3001
  513MOL0     C69159   5.311   2.654   9.335  0.1382  0.7374 -0.6272
  513MOL0     C69160   5.426   2.693   9.242 -0.0832 -0.7089  0.5581
  513MOL0     C69161   5.565   2.730   9.317 -0.7484  0.6171  0.2030
  513MOL0     C69162   5.677   2.749   9.217 -0.4733 -0.2634 -0.0001
  513MOL0     C69163   5.804   2.805   9.285  1.1746 -0.4260  0.3818
  513MOL0    Cl69164   5.775   2.978   9.300 -0.5131 -0.9094 -0.3789
  513MOL0     C69165   4.589   2.722   9.382 -0.0818  0.2674 -0.0258
  513MOL0     C69166   4.465   2.685   9.348 -0.3442 -0.0087 -0.9053
  513MOL0     O69167   4.176   2.706   9.304  0.8357  0.4831 -0.1366
  513MOL0     C69168   3.935   2.562   9.363 -0.4072  0.1015 -0.0557
  513MOL0     C69169   3.819   2.493   9.350 -0.4734  0.3889  0.1233
  513MOL0     N69170   3.505   2.187   8.735 -0.6231 -0.7359 -0.1840
  513MOL0     N69171   3.407   2.180   8.654  0.1981 -0.1747  0.4109
  513MOL0     C69172   2.227   2.196   8.374 -0.6565 -0.1468 -0.0929
  513MOL0     C69173   2.143   2.134   8.284  0.6365  0.3447 -0.4019
  513MOL0     C69174   1.921   1.910   7.972  0.2393 -0.0057 -0.4541
  513MOL0     C69175   1.789   1.873   7.998 -0.0967 -0.5626  0.7321
  513MOL0     C69176   1.694   1.847   7.895 -0.4036 -0.0427  0.1400
  513MOL0     C69177   1.729   1.862   7.764 -0.3270 -0.0764  0.3954
  513MOL0     O69178   1.633   1.847   7.667 -0.3113  0.1962  0.0038
  513MOL0     C69179   1.530   1.754   7.690  0.4367  0.6554  0.3619
  513MOL0     C69180   1.486   1.692   7.550  0.3626  0.0094 -0.6315
  513MOL0     C69181   1.598   1.603   7.489 -0.2220 -0.2360  0.3908
  513MOL0     C69182   1.561   1.550   7.357 -0.1765  0.2440 -0.0478
  513MOL0     C69183   1.652   1.440   7.326  0.0905 -1.0662  0.1449
  513MOL0     C69184   1.697   1.335   7.286  0.4316  0.0309  0.9067
  513MOL0     C69185   1.859   1.900   7.738 -0.0122 -0.2914 -0.2305
  513MOL0     C69186   1.962   1.927   7.833  0.3732  0.4255 -0.8077
  513MOL0     C69187   2.100   1.967   7.792  0.6685  0.1266  0.0332
  513MOL0     H69188   2.289   2.201   7.996  0.0233  0.7026  0.4942
  513MOL0     H69189   2.452   2.306   8.143  1.9635  0.3912  2.4814
  513MOL0     H69190   2.311   2.378   8.564  0.7085  0.6864 -1.0674
  513MOL0     H69191   2.406   2.223   8.589 -0.8322 -0.6868 -1.5055
  513MOL0     H69192   2.463   2.407   8.741 -0.3319 -2.2027 -0.2157
  513MOL0     H69193   2.513   2.504   8.607  1.9149  0.1291  1.2653
  513MOL0     H69194   2.680   2.307   8.530  0.5100  0.9252 -0.4026
  513MOL0     H69195   2.644   2.229   8.678  4.0717 -1.1453 -3.0003
  513MOL0     H69196   2.739   2.518   8.691  0.6319 -1.0088 -0.2830
  513MOL0     H69197   2.753   2.391   8.812 -3.0263 -2.5834 -1.0811
  513MOL0     H69198   2.886   2.349   8.552 -0.1811 -0.2909 -0.5879
  513MOL0     H69199   2.956   2.441   8.694  1.3108 -3.1961  1.5835
  513MOL0     H69200   2.849   2.224   8.814 -0.4083  3.4184  0.6188
  513MOL0     H69201   2.891   2.150   8.656  0.1632 -1.2070 -0.2666
  513MOL0     H69202   3.058   2.128   8.845 -1.7271  1.2071  1.3933
  513MOL0     H69203   3.086   2.311   8.847  1.9009  2.1908 -2.5654
  513MOL0     H69204   3.163   2.130   8.604 -1.7236 -1.3177  0.6492
  513MOL0     H69205   3.147   2.291   8.587 -0.4107 -1.7887 -2.5794
  513MOL0     H69206   3.285   2.321   8.932 -3.7014 -0.2017 -2.5922
  513MOL0     H69207   3.668   2.311   8.915 -0.4499 -0.5082  0.2987
  513MOL0     H69208   3.554   2.394   9.006  3.0396  0.3631 -0.0822
  513MOL0     H69209   3.558   2.088   9.026  1.6455 -0.4142 -1.5429
  513MOL0     H69210   3.701   2.175   9.087  0.3253  0.1953 -1.2661
  513MOL0     H69211   3.535   2.113   9.255 -0.4474  0.1143  2.0105
  513MOL0     H69212   3.416   2.236   9.203  0.4954 -0.8239  3.7179
  513MOL0     H69213   3.533   2.318   9.380 -4.4015 -3.3903 -1.3302
  513MOL0     H69214   3.583   2.413   9.237 -0.5786  0.3216  1.3294
  513MOL0     H69215   3.924   2.208   9.226  0.9693  1.2060 -3.1257
  513MOL0     H69216   4.146   2.333   9.206  0.8341  1.0312 -0.9996
  513MOL0     H69217   4.502   2.387   9.237 -2.1572  0.2512 -1.4823
  513MOL0     H69218   4.742   2.432   9.285 -0.0508 -0.5195  1.5352
  513MOL0     H69219   4.951   2.546   9.304  0.7005  0.8302  0.2179
  513MOL0     H69220   4.916   2.681   9.203  0.5799 -2.2609 -1.4427
  513MOL0     H69221   5.066   2.792   9.395 -2.8518  1.3416 -3.9381
  513MOL0     H69222   5.085   2.618   9.449 -2.4958  0.0821  0.1921
  513MOL0     H69223   5.162   2.560   9.225 -4.8045  0.4711  0.6073
  513MOL0     H69224   5.178   2.730   9.179 -0.7494 -1.8087 -1.3323
  513MOL0     H69225   5.322   2.547   9.358 -4.5768 -0.0373 -0.8430
  513MOL0     H69226   5.329   2.716   9.424  0.9227  0.6999 -0.7561
  513MOL0     H69227   5.396   2.781   9.185  0.3851 -1.8851 -1.6390
  513MOL0     H69228   5.435   2.611   9.170 -1.6276  0.5941 -1.1854
  513MOL0     H69229   5.544   2.818   9.380 -0.6317  0.4583  0.4654
  513MOL0     H69230   5.603   2.647   9.376  0.3361 -0.0752 -1.4175
  513MOL0     H69231   5.635   2.815   9.140 -1.2897  1.0112  1.4919
  513MOL0     H69232   5.703   2.649   9.180 -1.9037 -0.3118 -0.9789
  513MOL0     H69233   5.814   2.771   9.389  1.3044  1.2856  0.9577
  513MOL0     H69234   5.891   2.786   9.222  0.5195  0.6733 -0.8874
  513MOL0     H69235   4.605   2.821   9.423 -0.0324  0.7234 -1.0991
  513MOL0     H69236   4.386   2.757   9.368  0.9122  0.8087  1.5052
  513MOL0     H69237   3.940   2.655   9.419  3.5008  0.2709 -0.4276
  513MOL0     H69238   3.723   2.528   9.388 -2.2039 -0.8450 -2.7789
  513MOL0     H69239   2.194   2.194   8.477  0.7908 -0.1798  0.4041
  513MOL0     H69240   2.054   2.088   8.326 -0.6935  2.1312 -1.1394
  513MOL0     H69241   1.767   1.853   8.103 -0.6774 -1.5197  0.4382
  513MOL0     H69242   1.600   1.804   7.927 -0.3968 -1.6303 -1.7618
  513MOL0     H69243   1.438   1.796   7.733  1.5935  4.6600 -0.6527
  513MOL0     H69244   1.574   1.674   7.751  0.1795  1.3025  1.4178
  513MOL0     H69245   1.467   1.769   7.474 -0.4780  0.4131 -0.0317
  513MOL0     H69246   1.398   1.631   7.571 -1.4436  2.2442 -1.2768
  513MOL0     H69247   1.604   1.524   7.564  2.3741  0.4495  0.9885
  513MOL0     H69248   1.694   1.655   7.487 -0.7413  0.7444 -2.0156
  513MOL0     H69249   1.455   1.522   7.348  0.1146 -0.3834 -2.0292
  513MOL0     H69250   1.586   1.622   7.279  2.9060  0.2153  0.7973
  513MOL0     H69251   1.736   1.239   7.259 -0.7811 -0.6311  1.4337
  513MOL0     H69252   1.887   1.921   7.636  2.3125 -0.7996  0.2479
  513MOL0     H69253   2.099   2.076   7.787  2.8973  0.1685 -0.3616
  513MOL0     H69254   2.178   1.942   7.864  0.1574 -0.0039  0.5527
  513MOL0     H69255   2.138   1.930   7.696  0.4960 -0.1196  0.0572
  514MOL0     O69256   4.774   2.747   0.099  0.3555  0.5917 -0.4035
  514MOL0     C69257   4.729   2.700  -0.003  0.6360  0.3190  0.6020
  514MOL0     O69258   4.804   2.650  -0.109 -0.1437  0.0393 -0.9589
  514MOL0     C69259   4.924   2.702  -0.142 -0.2268 -0.2271  0.4885
  514MOL0     C69260   5.015   2.620  -0.208  0.0868  0.3854  0.0669
  514MOL0     C69261   5.138   2.670  -0.261  0.3754  0.0122 -0.5924
  514MOL0     C69262   5.179   2.805  -0.228 -0.3077  0.7939  0.6156
  514MOL0     O69263   5.294   2.868  -0.280 -0.1440 -0.1097  0.0657
  514MOL0     C69264   5.392   2.796  -0.355 -0.1583  0.3265 -0.5746
  514MOL0     C69265   5.498   2.737  -0.254 -0.2612  0.0202  0.1740
  514MOL0     C69266   5.554   2.816  -0.135  0.1461  0.2054 -0.1613
  514MOL0     C69267   5.640   2.935  -0.181  0.1654  0.5352 -0.8518
  514MOL0     C69268   5.687   3.024  -0.068  0.2184 -0.7033 -0.1835
  514MOL0     C69269   5.580   3.134  -0.070 -0.4364 -0.4493 -0.4345
  514MOL0     C69270   5.618   3.245   0.037  0.2235  0.6607  0.5895
  514MOL0     C69271   5.538   3.376   0.033  0.0677 -0.1680 -0.3122
  514MOL0     N69272   5.395   3.348   0.044 -0.1325  0.0226 -0.1968
  514MOL0     C69273   5.342   3.254   0.125  0.0090  0.6456  0.0698
  514MOL0     C69274   5.219   3.232   0.078 -0.4862 -0.1784 -0.4757
  514MOL0     C69275   5.115   3.145   0.143 -0.5032  0.0227  0.2303
  514MOL0     C69276   5.060   3.197   0.272  0.2132 -0.4713 -0.4319
  514MOL0     C69277   4.939   3.121   0.321  0.4151 -0.0777  0.0178
  514MOL0     C69278   4.834   3.078   0.216 -0.4859  0.0764  0.0118
  514MOL0     O69279   4.794   3.194   0.137  0.7657  0.1371  0.4695
  514MOL0     C69280   4.669   3.209   0.103 -0.1953  0.3001  0.6572
  514MOL0     C69281   4.621   3.343   0.089 -0.0886  0.3415  0.0088
  514MOL0     C69282   4.485   3.366   0.060  0.3781  0.3181 -0.5288
  514MOL0     C69283   4.398   3.253   0.029 -0.2867  0.5176 -0.6473
  514MOL0     C69284   4.259   3.285  -0.001 -0.8509  0.7182  0.0940
  514MOL0     O69285   4.181   3.180  -0.036  0.0814 -0.5160  0.1309
  514MOL0     C69286   4.062   3.204  -0.099  0.0098 -0.4016 -0.1392
  514MOL0     C69287   4.030   3.305  -0.196 -0.3503 -0.3218 -0.7872
  514MOL0     C69288   3.900   3.322  -0.250 -0.5283  0.5733  0.1891
  514MOL0     C69289   3.795   3.232  -0.214 -0.9546  0.2833 -1.1172
  514MOL0     O69290   3.664   3.265  -0.249  0.0899 -0.1052 -0.6988
  514MOL0     C69291   3.554   3.176  -0.210 -1.0296  0.0748 -0.3480
  514MOL0     C69292   3.428   3.257  -0.257 -0.4210 -0.2647 -0.2245
  514MOL0     C69293   3.297   3.216  -0.201 -0.1912 -0.0120  0.9136
  514MOL0     C69294   3.240   3.094  -0.286  0.2081  0.1919 -0.7040
  514MOL0     C69295   3.098   3.052  -0.237 -0.4356  0.1301 -0.8319
  514MOL0     C69296   3.068   2.917  -0.308  0.4627  0.6699  0.4875
  514MOL0     C69297   2.931   2.859  -0.273 -0.1932 -0.4247  0.3040
  514MOL0     C69298   2.935   2.779  -0.151  0.2973  1.0014 -0.5804
  514MOL0    Cl69299   2.764   2.720  -0.109 -0.2571  0.2409  0.0823
  514MOL0     C69300   3.824   3.129  -0.120  0.3124 -0.2094 -0.8391
  514MOL0     C69301   3.957   3.122  -0.065 -0.1305  1.0348 -0.2000
  514MOL0     O69302   4.218   3.396   0.028 -0.5603 -0.5355 -0.3146
  514MOL0     C69303   4.450   3.125   0.045  0.1444 -0.9287 -0.0366
  514MOL0     C69304   4.584   3.101   0.066 -0.4131  0.1582 -0.4087
  514MOL0     N69305   5.198   3.317  -0.028 -0.0267 -0.0445 -0.9588
  514MOL0     N69306   5.304   3.387  -0.048 -0.0179 -0.1820  0.4562
  514MOL0     C69307   5.085   2.878  -0.162  0.3381 -0.1686  0.1387
  514MOL0     C69308   4.959   2.835  -0.125 -0.1300 -0.2270  0.3682
  514MOL0     C69309   4.582   2.708  -0.027  0.3083 -0.2667 -0.3003
  514MOL0     C69310   4.542   2.756  -0.155  0.4316  0.5492  0.6792
  514MOL0     C69311   4.408   2.783  -0.189  0.5062  0.6026  0.6506
  514MOL0     C69312   4.307   2.771  -0.095 -0.5153  0.9053 -0.5446
  514MOL0     O69313   4.169   2.768  -0.121 -0.3803  0.6526  0.4244
  514MOL0     C69314   4.117   2.766  -0.253  0.5197  0.0881  0.7571
  514MOL0     C69315   3.970   2.785  -0.250 -0.8057 -0.3445  0.3585
  514MOL0     C69316   3.908   2.805  -0.388 -0.3532 -0.8959 -0.3456
  514MOL0     C69317   3.893   2.683  -0.465  0.0229  0.9682 -0.2647
  514MOL0     C69318   3.789   2.587  -0.431  0.1016 -0.8129  0.4952
  514MOL0     C69319   3.703   2.508  -0.410 -0.1740 -0.7587 -0.8346
  514MOL0     C69320   4.338   2.725   0.029 -0.0646  0.8742 -0.0883
  514MOL0     C69321   4.481   2.699   0.069  0.1183 -0.6962 -0.5560
  514MOL0     C69322   4.499   2.656   0.216 -0.3842 -0.2717 -0.0186
  514MOL0     H69323   4.983   2.518  -0.225 -0.4616  0.9579 -2.7248
  514MOL0     H69324   5.200   2.597  -0.312  1.3073 -0.6787  1.4418
  514MOL0     H69325   5.352   2.709  -0.407  4.1289 -1.8592 -0.7006
  514MOL0     H69326   5.432   2.859  -0.435  2.1702 -0.2715  0.0417
  514MOL0     H69327   5.581   2.712  -0.321 -0.1967  1.2761 -0.2418
  514MOL0     H69328   5.448   2.648  -0.216 -1.4468  0.9230  0.7840
  514MOL0     H69329   5.612   2.743  -0.079 -0.3529  0.1753  0.3207
  514MOL0     H69330   5.468   2.848  -0.075 -2.6937 -0.7907 -3.3653
  514MOL0     H69331   5.726   2.907  -0.243 -1.9711 -3.5142 -2.3427
  514MOL0     H69332   5.580   2.991  -0.254  0.5057  1.5297 -0.3909
  514MOL0     H69333   5.699   2.974   0.028  1.8099 -0.8985 -0.4669
  514MOL0     H69334   5.780   3.075  -0.096 -0.4439 -1.2875 -3.9150
  514MOL0     H69335   5.569   3.184  -0.167  1.1612  1.3817  0.2655
  514MOL0     H69336   5.478   3.099  -0.049 -0.2218 -1.3306 -0.7968
  514MOL0     H69337   5.726   3.267   0.036  0.9980 -2.6358  0.4710
  514MOL0     H69338   5.604   3.188   0.130 -1.1281  1.8039  1.1132
  514MOL0     H69339   5.569   3.448   0.110  1.8195  0.5718 -1.6207
  514MOL0     H69340   5.567   3.420  -0.063 -0.8216 -0.7068 -0.8367
  514MOL0     H69341   5.383   3.212   0.216 -0.8273 -1.7957 -0.6172
  514MOL0     H69342   5.038   3.138   0.065  0.6103  2.1311 -1.1605
  514MOL0     H69343   5.161   3.047   0.158  0.8336  0.5963  0.0571
  514MOL0     H69344   5.131   3.180   0.353 -2.5304 -4.8772  1.4079
  514MOL0     H69345   5.035   3.301   0.251  0.9171 -0.3745 -0.8188
  514MOL0     H69346   4.883   3.195   0.379 -2.2756 -0.4577 -1.9242
  514MOL0     H69347   4.963   3.030   0.377 -2.7031 -1.2652 -0.3567
  514MOL0     H69348   4.745   3.046   0.271 -0.3579  0.6674  0.5829
  514MOL0     H69349   4.885   2.995   0.167  1.1363  0.9624  0.1185
  514MOL0     H69350   4.683   3.430   0.106  2.3865 -1.0822 -1.0858
  514MOL0     H69351   4.439   3.464   0.060 -3.3040 -1.2227 -0.7914
  514MOL0     H69352   4.105   3.379  -0.222 -1.0733  0.8951  0.4520
  514MOL0     H69353   3.893   3.401  -0.325  1.1005  0.1047 -0.4938
  514MOL0     H69354   3.565   3.075  -0.251  0.0864 -0.1211  0.4002
  514MOL0     H69355   3.553   3.170  -0.100 -2.8128 -2.2503 -0.4120
  514MOL0     H69356   3.442   3.362  -0.230  1.0292 -0.6410  0.5917
  514MOL0     H69357   3.426   3.252  -0.367 -0.5358  2.5357 -0.4419
  514MOL0     H69358   3.304   3.190  -0.095  0.1777 -0.7604  0.7114
  514MOL0     H69359   3.233   3.304  -0.212  0.9725  1.0431  2.2110
  514MOL0     H69360   3.310   3.013  -0.263 -1.5295 -1.1008  0.2977
  514MOL0     H69361   3.248   3.112  -0.394 -1.2074 -0.9152 -1.0262
  514MOL0     H69362   3.030   3.135  -0.260 -0.3383  1.9425  4.0361
  514MOL0     H69363   3.091   3.038  -0.128 -5.0929 -0.1563 -0.9419
  514MOL0     H69364   3.076   2.928  -0.416 -0.6040 -1.9531  0.0863
  514MOL0     H69365   3.149   2.849  -0.282  1.3050  2.6217  3.6565
  514MOL0     H69366   2.893   2.789  -0.348 -0.7146  0.0145  0.1538
  514MOL0     H69367   2.861   2.941  -0.256  2.3066  2.2972 -1.5288
  514MOL0     H69368   3.004   2.695  -0.155  1.2034  1.5849  1.2269
  514MOL0     H69369   2.966   2.839  -0.064 -0.5338 -2.1816  2.1019
  514MOL0     H69370   3.752   3.056  -0.083  0.4273  1.0282  2.1594
  514MOL0     H69371   3.989   3.036  -0.008 -3.4327  0.3403  0.8559
  514MOL0     H69372   4.389   3.035   0.036 -1.7788  0.3026  0.1463
  514MOL0     H69373   4.625   3.001   0.065 -2.7601 -0.8722  0.4387
  514MOL0     H69374   5.115   2.982  -0.156  1.5229 -0.3877 -1.2155
  514MOL0     H69375   4.887   2.899  -0.075  1.2301  1.2059  0.5700
  514MOL0     H69376   4.620   2.751  -0.230  3.4476 -0.0167  3.6576
  514MOL0     H69377   4.362   2.810  -0.283 -1.3137 -0.2259  1.2355
  514MOL0     H69378   4.136   2.671  -0.305 -2.2544  0.1672 -0.6215
  514MOL0     H69379   4.167   2.846  -0.308  2.1463 -1.1583  0.3446
  514MOL0     H69380   3.954   2.866  -0.178  3.2081  0.3499  0.6872
  514MOL0     H69381   3.931   2.696  -0.199  1.2445 -0.1981  2.2981
  514MOL0     H69382   3.982   2.864  -0.441 -3.9866  3.2561 -1.3464
  514MOL0     H69383   3.813   2.858  -0.378  0.7413  1.1279 -0.2219
  514MOL0     H69384   3.865   2.706  -0.568 -2.9195 -0.7018  0.0635
  514MOL0     H69385   3.988   2.630  -0.470  0.2380  1.3126  0.0563
  514MOL0     H69386   3.609   2.461  -0.385 -1.5841  2.5843  0.6967
  514MOL0     H69387   4.258   2.711   0.100 -0.0600 -1.1921 -0.4207
  514MOL0     H69388   4.579   2.704   0.274  1.0328 -1.7854 -0.6113
  514MOL0     H69389   4.401   2.652   0.263 -0.4173  1.1249  0.0651
  514MOL0     H69390   4.544   2.556   0.217  1.8897  0.6898  0.4267
  515MOL0     O69391   7.568   9.534   5.354 -0.2964 -0.0751  0.1209
  515MOL0     C69392   7.483   9.617   5.359  0.0379 -0.2439  0.3659
  515MOL0     O69393   7.502   9.742   5.335 -0.4421  0.2105 -0.1511
  515MOL0     C69394   7.608   9.767   5.258 -0.2999 -0.6428  0.3756
  515MOL0     C69395   7.740   9.776   5.315  1.0858  0.2471  0.3491
  515MOL0     C69396   7.854   9.818   5.252 -0.1872  0.0143  0.3826
  515MOL0     C69397   7.835   9.877   5.123 -0.9197 -0.2160 -0.0096
  515MOL0     O69398   7.942   9.922   5.042  0.5084  0.6322  0.0601
  515MOL0     C69399   8.041   9.836   5.034  0.1986  0.1179 -0.1672
  515MOL0     C69400   8.172   9.903   5.009 -0.3710 -0.0981  0.4186
  515MOL0     C69401   8.225   9.965   5.143 -0.7657 -0.2337 -0.0041
  515MOL0     C69402   8.317   9.866   5.217  0.6169  0.5014 -0.7729
  515MOL0     C69403   8.463   9.875   5.186 -0.5282  0.1569 -0.2823
  515MOL0     C69404   8.529   9.770   5.269  0.2041  0.6200  0.0571
  515MOL0     C69405   8.683   9.776   5.259 -0.0599  0.5403  1.1123
  515MOL0     C69406   8.753   9.690   5.360  0.4333 -1.1031 -0.1640
  515MOL0     N69407   8.895   9.740   5.365  1.4083  0.6555 -0.6028
  515MOL0     C69408   8.974   9.760   5.254 -0.4082  1.0407  1.3610
  515MOL0     C69409   9.094   9.796   5.312 -0.3740  1.0225  1.4808
  515MOL0     C69410   9.226   9.816   5.250  0.1970  0.4499 -0.0694
  515MOL0     C69411   9.269   9.683   5.168  0.7276 -1.2693 -0.1555
  515MOL0     C69412   9.418   9.681   5.137  0.5816  0.6125  0.3793
  515MOL0     C69413   9.465   9.535   5.080 -0.0634 -0.2061  0.1932
  515MOL0     O69414   9.602   9.550   5.050 -0.8736  1.1187 -0.2712
  515MOL0     C69415   9.701   9.568   5.146 -0.6642  0.4232 -0.5956
  515MOL0     C69416   9.680   9.556   5.288  0.3000 -0.1107  0.1349
  515MOL0     C69417   9.786   9.574   5.373 -1.0544  0.4721 -0.1317
  515MOL0     C69418   9.920   9.593   5.325  0.5506  0.1636  0.4204
  515MOL0     C69419  10.031   9.592   5.413 -0.1649 -0.4088  0.7217
  515MOL0     O69420  10.153   9.589   5.347  0.7532  0.1698  0.2682
  515MOL0     C69421  10.275   9.598   5.408  0.7146  0.1041 -0.4987
  515MOL0     C69422  10.315   9.580   5.538 -0.6263  0.4332 -0.3406
  515MOL0     C69423  10.446   9.599   5.577  0.1424 -0.3109  0.5726
  515MOL0     C69424  10.549   9.640   5.481  0.2184 -1.3732 -0.4102
  515MOL0     O69425  10.675   9.665   5.534 -0.0627 -0.5253  0.0923
  515MOL0     C69426  10.785   9.693   5.448 -0.4152  1.1823  0.0641
  515MOL0     C69427  10.914   9.688   5.532 -1.0788 -0.1242 -0.8304
  515MOL0     C69428  10.953   9.822   5.578  0.7727 -0.9409  0.1637
  515MOL0     C69429  10.875   9.878   5.697  0.8397  0.1111  0.3664
  515MOL0     C69430  10.908  10.027   5.728  0.5039  0.3374 -0.1567
  515MOL0     C69431  10.832  10.127   5.629 -0.7413 -0.9242 -0.2976
  515MOL0     C69432  10.826  10.276   5.681  1.0383 -0.0137 -0.1839
  515MOL0     C69433  10.742  10.361   5.581  0.0446 -0.5123 -0.4969
  515MOL0    Cl69434  10.755  10.538   5.627  0.1142 -0.3671 -0.1374
  515MOL0     C69435  10.510   9.656   5.345  0.7854  0.5108  0.5343
  515MOL0     C69436  10.369   9.636   5.317 -0.1729 -0.6321 -0.9810
  515MOL0     O69437  10.016   9.617   5.529 -0.1968 -0.4823 -0.3377
  515MOL0     C69438   9.941   9.595   5.180  0.9535 -0.0733 -0.2380
  515MOL0     C69439   9.833   9.575   5.097  0.8665  0.2566 -0.4248
  515MOL0     N69440   9.076   9.789   5.454 -0.2611 -0.3222  0.3512
  515MOL0     N69441   8.959   9.750   5.480 -0.0207 -0.3173 -0.0384
  515MOL0     C69442   7.704   9.887   5.076 -0.5450 -0.0252  0.3627
  515MOL0     C69443   7.589   9.829   5.137 -0.3953  0.1276  0.4149
  515MOL0     C69444   7.346   9.577   5.380  0.5462  0.1800  0.7664
  515MOL0     C69445   7.321   9.455   5.444 -0.6623 -0.3615  0.1916
  515MOL0     C69446   7.191   9.408   5.472  0.4143  0.1079  1.0170
  515MOL0     C69447   7.073   9.481   5.438  0.2626 -0.1175 -0.0942
  515MOL0     O69448   6.944   9.442   5.479  0.9533  0.1721 -0.8162
  515MOL0     C69449   6.824   9.526   5.451 -0.6746  1.2684 -0.1509
  515MOL0     C69450   6.688   9.464   5.488  0.6358  0.0212 -0.1485
  515MOL0     C69451   6.571   9.497   5.389  0.3687  0.0546  0.5806
  515MOL0     C69452   6.437   9.437   5.437  0.4444  0.3304  0.5735
  515MOL0     C69453   6.333   9.474   5.338  0.0777 -0.6219 -0.1851
  515MOL0     C69454   6.238   9.491   5.269 -0.8139  0.5213  0.3426
  515MOL0     C69455   7.097   9.600   5.357 -0.9133 -0.3157 -0.5187
  515MOL0     C69456   7.227   9.645   5.341 -0.2248 -0.3981 -0.3947
  515MOL0     C69457   7.227   9.780   5.268 -0.2667  0.1325  0.0749
  515MOL0     H69458   7.744   9.725   5.410  0.2049  0.4701  0.5155
  515MOL0     H69459   7.953   9.807   5.294  0.3646 -0.1568 -0.9302
  515MOL0     H69460   8.061   9.777   5.125  0.6042 -0.1735 -0.4416
  515MOL0     H69461   8.011   9.769   4.953 -0.0497  2.5380 -2.1548
  515MOL0     H69462   8.162   9.989   4.941 -3.8770 -1.7158 -1.4164
  515MOL0     H69463   8.235   9.834   4.953 -0.3749 -1.5272  2.0937
  515MOL0     H69464   8.142  10.006   5.202 -0.4407 -0.2687  0.4807
  515MOL0     H69465   8.285  10.051   5.112  1.2198 -1.9782 -1.2519
  515MOL0     H69466   8.312   9.879   5.326 -0.1911  0.8108 -0.8423
  515MOL0     H69467   8.288   9.760   5.210  2.1369 -0.1078  1.1136
  515MOL0     H69468   8.488   9.865   5.080 -0.4801 -0.3149 -0.2279
  515MOL0     H69469   8.491   9.974   5.222  2.1767 -1.0057  1.1238
  515MOL0     H69470   8.494   9.784   5.372 -1.3850 -0.0672 -0.3651
  515MOL0     H69471   8.496   9.670   5.241  2.0891 -0.6425  1.9811
  515MOL0     H69472   8.704   9.882   5.275 -0.2035  0.4477  1.9853
  515MOL0     H69473   8.709   9.747   5.157 -1.2081  3.2726 -0.0536
  515MOL0     H69474   8.717   9.703   5.463  0.4206  0.2128 -0.3205
  515MOL0     H69475   8.749   9.582   5.340 -1.4580 -1.6815  2.7182
  515MOL0     H69476   8.951   9.727   5.153  1.6145 -2.1217  1.7912
  515MOL0     H69477   9.218   9.903   5.184 -3.8733  1.7133  1.7570
  515MOL0     H69478   9.294   9.844   5.331  0.8714 -0.7318 -0.2015
  515MOL0     H69479   9.254   9.595   5.231  0.8647 -3.1484 -2.5841
  515MOL0     H69480   9.199   9.660   5.087 -2.4624 -0.0106  2.0395
  515MOL0     H69481   9.472   9.695   5.231 -0.4224  1.0316  0.9124
  515MOL0     H69482   9.444   9.760   5.066 -0.0278 -0.8105 -1.5111
  515MOL0     H69483   9.404   9.514   4.992 -0.6621 -1.7062  0.9399
  515MOL0     H69484   9.439   9.451   5.144 -1.3477  1.3067  1.7455
  515MOL0     H69485   9.581   9.557   5.334 -0.9103  2.3653 -2.2500
  515MOL0     H69486   9.762   9.582   5.478 -0.9011 -0.8357  0.0219
  515MOL0     H69487  10.247   9.543   5.614 -1.8198 -0.1058 -1.6397
  515MOL0     H69488  10.476   9.595   5.681  0.7545  2.6469  0.6108
  515MOL0     H69489  10.802   9.609   5.380 -0.4746 -2.0685  3.6594
  515MOL0     H69490  10.773   9.788   5.395  1.1849  1.6273  0.4414
  515MOL0     H69491  10.904   9.619   5.617  1.0173 -1.9744 -2.0059
  515MOL0     H69492  10.995   9.654   5.468  1.2491  0.4442  1.6200
  515MOL0     H69493  11.057   9.829   5.610  0.3396  1.1645  1.3039
  515MOL0     H69494  10.951   9.888   5.490  0.8257 -1.1692 -0.0114
  515MOL0     H69495  10.888   9.812   5.783  2.5247  0.1636  0.1735
  515MOL0     H69496  10.770   9.885   5.664  1.0884  1.6904 -0.2011
  515MOL0     H69497  11.016  10.048   5.730  0.4460  1.0692  3.4465
  515MOL0     H69498  10.876  10.055   5.829 -0.3331  1.3966 -0.7034
  515MOL0     H69499  10.875  10.120   5.529  0.5591 -1.2638  0.2564
  515MOL0     H69500  10.730  10.090   5.630 -0.2236 -2.6111  2.8745
  515MOL0     H69501  10.924  10.324   5.686  1.1085 -0.2445  0.9586
  515MOL0     H69502  10.772  10.291   5.775  1.2791  2.2372 -0.3531
  515MOL0     H69503  10.788  10.356   5.483 -0.6487  3.1974 -1.1949
  515MOL0     H69504  10.642  10.316   5.580  1.1376 -3.1140  0.5550
  515MOL0     H69505  10.578   9.659   5.260 -1.1485 -0.3034 -1.1198
  515MOL0     H69506  10.329   9.636   5.216 -1.0631 -1.3193 -0.6476
  515MOL0     H69507  10.041   9.609   5.141  1.4052 -3.9377 -0.8279
  515MOL0     H69508   9.857   9.574   4.991 -2.8007 -1.5436 -1.3898
  515MOL0     H69509   7.676   9.936   4.983  2.9237 -0.6986 -1.2182
  515MOL0     H69510   7.490   9.837   5.092  0.1779 -0.8880 -1.1018
  515MOL0     H69511   7.405   9.408   5.495 -0.1706  0.3154  0.0191
  515MOL0     H69512   7.190   9.317   5.530 -1.2338 -1.3207 -1.1427
  515MOL0     H69513   6.833   9.543   5.344  4.2305 -0.6670 -0.2917
  515MOL0     H69514   6.835   9.624   5.498  1.2884  0.4218  1.2802
  515MOL0     H69515   6.661   9.503   5.586 -0.5212  0.9683 -0.8246
  515MOL0     H69516   6.699   9.355   5.488  2.2504  0.1462  1.1677
  515MOL0     H69517   6.594   9.474   5.284 -1.4193  1.5729 -0.1986
  515MOL0     H69518   6.543   9.602   5.376 -4.0077 -0.9641  0.4028
  515MOL0     H69519   6.444   9.328   5.446  1.1539  0.1009 -1.9058
  515MOL0     H69520   6.386   9.481   5.523 -1.4590 -1.9091  0.7025
  515MOL0     H69521   6.153   9.497   5.203  0.0472 -2.3194 -1.1527
  515MOL0     H69522   7.014   9.660   5.321 -1.3874 -0.5425  0.1756
  515MOL0     H69523   7.280   9.852   5.331  0.3272  0.9557 -1.3109
  515MOL0     H69524   7.290   9.780   5.178 -0.8919 -2.4477 -0.4578
  515MOL0     H69525   7.127   9.822   5.277  0.3651  1.9836 -0.9453
  516MOL0     O69526  11.129   7.898   2.207 -0.5055 -0.4732  0.3660
  516MOL0     C69527  11.185   7.794   2.250 -0.1586  0.1889  0.2668
  516MOL0     O69528  11.140   7.664   2.215 -0.1919  0.1587 -0.7621
  516MOL0     C69529  11.034   7.647   2.125  0.5217  0.1088 -0.3578
  516MOL0     C69530  11.044   7.694   1.988 -0.4257 -0.4990 -1.1081
  516MOL0     C69531  10.941   7.656   1.896  0.0560 -0.8957 -0.4027
  516MOL0     C69532  10.831   7.591   1.936 -0.6219  0.4643 -0.4680
  516MOL0     O69533  10.743   7.554   1.836  0.7047 -0.5527 -0.3376
  516MOL0     C69534  10.603   7.533   1.856 -0.5178 -0.5609  0.3450
  516MOL0     C69535  10.524   7.551   1.730 -0.5687 -0.8312  0.8244
  516MOL0     C69536  10.377   7.527   1.763  0.0139  1.1640 -0.8199
  516MOL0     C69537  10.295   7.652   1.721  0.1351  1.9774  0.7082
  516MOL0     C69538  10.148   7.611   1.688 -1.3260  0.0052  0.0140
  516MOL0     C69539  10.087   7.725   1.620 -0.2455 -0.6123 -0.0292
  516MOL0     C69540  10.039   7.836   1.718  0.5833  0.4909  1.1812
  516MOL0     C69541   9.923   7.914   1.668  0.4668  0.2550  0.0654
  516MOL0     N69542   9.942   7.982   1.542 -0.2527 -0.0347  0.5101
  516MOL0     C69543   9.951   7.933   1.413  0.4721 -0.5013 -0.4993
  516MOL0     C69544  10.006   8.031   1.334 -0.8344 -1.3562 -0.8971
  516MOL0     C69545  10.040   8.035   1.192  0.1781 -0.1662  0.6920
  516MOL0     C69546  10.105   8.168   1.152  0.3072  0.2011  0.6719
  516MOL0     C69547  10.169   8.174   1.007 -0.3405  0.5990  0.5557
  516MOL0     C69548  10.321   8.147   1.018 -0.3764  0.2174  0.0947
  516MOL0     O69549  10.337   8.010   1.004 -0.1566 -0.3521  0.2982
  516MOL0     C69550  10.461   7.949   1.005  0.6028  0.3175  0.2323
  516MOL0     C69551  10.477   7.819   0.965  1.3518 -0.3023  0.0505
  516MOL0     C69552  10.594   7.753   0.972  1.0969  0.1853 -0.4761
  516MOL0     C69553  10.706   7.812   1.030  0.0339  0.2562  0.3084
  516MOL0     C69554  10.846   7.748   1.036  0.0048  0.3113  0.4380
  516MOL0     O69555  10.960   7.813   1.078  0.0513 -0.2003  0.1631
  516MOL0     C69556  11.086   7.757   1.071  0.7242 -0.1768  0.6746
  516MOL0     C69557  11.177   7.807   1.158 -0.2831 -0.4614 -0.0952
  516MOL0     C69558  11.308   7.758   1.169  0.2868  0.2251  0.2050
  516MOL0     C69559  11.355   7.665   1.079 -0.2937  0.1942 -0.1584
  516MOL0     O69560  11.476   7.605   1.071 -0.2046  0.1479 -0.0105
  516MOL0     C69561  11.585   7.689   1.102 -0.0208 -0.2505  1.0963
  516MOL0     C69562  11.711   7.661   1.014  1.4628  0.2271 -0.1631
  516MOL0     C69563  11.698   7.732   0.867 -0.5867  0.2625  0.0789
  516MOL0     C69564  11.788   7.669   0.759 -0.2224  0.3131  0.0818
  516MOL0     C69565  11.939   7.668   0.809 -0.4867 -0.2958 -0.0064
  516MOL0     C69566  12.008   7.804   0.814  1.6708 -0.6264 -0.5210
  516MOL0     C69567  12.150   7.791   0.754  0.3533 -0.0711 -0.2011
  516MOL0     C69568  12.234   7.903   0.815 -0.4098 -0.0080 -0.5755
  516MOL0    Cl69569  12.397   7.931   0.752 -0.0636  0.4290 -0.0439
  516MOL0     C69570  11.259   7.611   0.984 -0.2665  0.7053 -0.2525
  516MOL0     C69571  11.130   7.658   0.985  0.5467  0.2410  0.0420
  516MOL0     O69572  10.843   7.631   1.001  0.1527 -0.1727 -1.0839
  516MOL0     C69573  10.698   7.945   1.070  0.1080 -1.0053  0.0046
  516MOL0     C69574  10.577   8.012   1.058  1.0229 -0.3954  0.5263
  516MOL0     N69575  10.033   8.135   1.416  0.0582 -0.1600 -0.3068
  516MOL0     N69576   9.994   8.104   1.530 -0.4168 -0.0492 -0.1104
  516MOL0     C69577  10.814   7.565   2.074  0.0972 -0.5907 -0.3197
  516MOL0     C69578  10.918   7.585   2.169 -0.0005  0.2697 -0.3706
  516MOL0     C69579  11.307   7.793   2.340  0.0414 -0.4511  0.9070
  516MOL0     C69580  11.352   7.914   2.378  0.2054 -0.3276 -0.3846
  516MOL0     C69581  11.462   7.938   2.459 -0.3554 -0.1677 -1.5687
  516MOL0     C69582  11.528   7.829   2.509 -0.3282 -0.0146  0.5552
  516MOL0     O69583  11.635   7.822   2.593 -0.1066 -0.1586  0.0015
  516MOL0     C69584  11.678   7.939   2.655 -0.5111 -0.8490  0.0018
  516MOL0     C69585  11.736   7.900   2.787 -0.2922 -0.0153 -0.2210
  516MOL0     C69586  11.755   8.023   2.888  0.2340 -0.1454 -0.9161
  516MOL0     C69587  11.773   7.964   3.030 -0.6739 -0.3246 -0.5955
  516MOL0     C69588  11.891   7.878   3.065 -0.2822 -0.9808 -0.3059
  516MOL0     C69589  11.982   7.809   3.094 -0.2175  0.7918 -0.8896
  516MOL0     C69590  11.479   7.697   2.469 -0.2155 -0.7224 -0.3663
  516MOL0     C69591  11.374   7.681   2.390  0.1662 -0.3703 -0.4926
  516MOL0     C69592  11.328   7.538   2.372 -0.0384 -0.6862 -0.0946
  516MOL0     H69593  11.136   7.746   1.962 -0.0873 -0.8469 -0.6318
  516MOL0     H69594  10.937   7.679   1.790  0.2637  2.2419  0.1845
  516MOL0     H69595  10.599   7.426   1.879  1.2337 -1.1908 -1.9335
  516MOL0     H69596  10.559   7.605   1.926 -3.5493 -0.4369 -1.4689
  516MOL0     H69597  10.561   7.473   1.663 -2.4281 -1.6442  0.6923
  516MOL0     H69598  10.535   7.656   1.702 -2.3051 -0.5568  1.0460
  516MOL0     H69599  10.356   7.509   1.869 -1.4333  0.7554 -1.1501
  516MOL0     H69600  10.345   7.430   1.724  0.3612 -0.0360  1.7267
  516MOL0     H69601  10.303   7.735   1.793 -0.5600  3.0915 -0.4573
  516MOL0     H69602  10.328   7.690   1.624 -4.6879 -0.1798 -2.0886
  516MOL0     H69603  10.147   7.528   1.616 -0.3365  0.3125 -0.3727
  516MOL0     H69604  10.095   7.584   1.779 -0.2306  0.0810  0.6862
  516MOL0     H69605  10.149   7.770   1.542 -1.8203  0.8264 -0.5049
  516MOL0     H69606  10.008   7.687   1.553  1.2405 -0.5346 -1.9233
  516MOL0     H69607  10.125   7.904   1.723 -0.2204  1.6151  0.3596
  516MOL0     H69608  10.020   7.791   1.816 -0.0368  0.8842  1.2525
  516MOL0     H69609   9.830   7.857   1.663  0.1153  0.9339 -2.1723
  516MOL0     H69610   9.896   7.989   1.742 -2.4496  0.3535 -0.9638
  516MOL0     H69611   9.929   7.834   1.375  0.6040 -0.2732 -1.1877
  516MOL0     H69612  10.116   7.959   1.171  1.0421 -0.2213  3.6395
  516MOL0     H69613   9.950   8.023   1.130 -2.0529  3.5599  2.8607
  516MOL0     H69614  10.026   8.242   1.166  0.0402 -0.3778  2.4535
  516MOL0     H69615  10.183   8.198   1.223  0.2280  1.5465  0.2234
  516MOL0     H69616  10.157   8.275   0.967 -0.3343  1.3043  2.2256
  516MOL0     H69617  10.120   8.102   0.941  0.1128  0.5927  0.2193
  516MOL0     H69618  10.360   8.175   1.117  3.1718 -0.3743 -0.9939
  516MOL0     H69619  10.375   8.209   0.946  0.3684  0.9032  1.1961
  516MOL0     H69620  10.392   7.776   0.913  0.8369  0.5603  0.1708
  516MOL0     H69621  10.608   7.648   0.946 -0.7262 -1.2276  3.4473
  516MOL0     H69622  11.148   7.897   1.211  3.0434 -0.9725  2.9884
  516MOL0     H69623  11.375   7.784   1.250 -0.6551  1.9788  0.4621
  516MOL0     H69624  11.552   7.793   1.109  0.0601  0.3683 -4.0499
  516MOL0     H69625  11.604   7.653   1.204 -1.5751 -0.4354  1.3342
  516MOL0     H69626  11.803   7.699   1.059  0.3444  5.0582 -1.3617
  516MOL0     H69627  11.708   7.557   0.979 -1.6022  0.4110 -0.7453
  516MOL0     H69628  11.595   7.720   0.832 -1.6527  0.4450  2.8723
  516MOL0     H69629  11.733   7.835   0.866 -1.7185  0.6666 -1.6846
  516MOL0     H69630  11.777   7.723   0.665  1.4323  2.7334  1.1793
  516MOL0     H69631  11.759   7.566   0.737  0.4492 -0.3984  2.2622
  516MOL0     H69632  11.992   7.611   0.732 -2.1759  1.4018 -2.5858
  516MOL0     H69633  11.947   7.616   0.905 -2.4687  1.6550  1.3103
  516MOL0     H69634  11.948   7.877   0.758 -3.1138  1.2891  5.8619
  516MOL0     H69635  12.016   7.841   0.916  1.0856 -1.3984 -0.1853
  516MOL0     H69636  12.131   7.794   0.646 -4.1289  0.5542  0.4182
  516MOL0     H69637  12.194   7.693   0.775  0.4041  0.1652  0.8791
  516MOL0     H69638  12.168   7.990   0.810 -0.7664 -0.1223  1.4586
  516MOL0     H69639  12.233   7.870   0.919 -2.8664  1.4251 -0.0671
  516MOL0     H69640  11.283   7.533   0.913 -1.3617  1.4269 -1.4534
  516MOL0     H69641  11.065   7.612   0.911  1.8934 -2.1323  0.2282
  516MOL0     H69642  10.790   7.999   1.093 -0.8104  1.2763 -1.3830
  516MOL0     H69643  10.571   8.115   1.091  2.2482 -0.5819  1.3684
  516MOL0     H69644  10.714   7.532   2.097 -0.7197  1.3482 -0.8808
  516MOL0     H69645  10.908   7.560   2.274  3.0456  0.6803  0.1025
  516MOL0     H69646  11.308   8.006   2.341 -1.2768 -0.4059  1.0648
  516MOL0     H69647  11.488   8.040   2.486 -1.8363  0.2775 -1.7247
  516MOL0     H69648  11.599   8.013   2.666 -2.6326 -2.9260 -0.4304
  516MOL0     H69649  11.764   7.983   2.605 -1.5083  0.6385 -0.4820
  516MOL0     H69650  11.827   7.846   2.761 -0.8005  0.4566 -3.3427
  516MOL0     H69651  11.665   7.834   2.838  3.2534 -4.1922 -0.0624
  516MOL0     H69652  11.674   8.096   2.896 -0.0523 -0.2716 -2.4343
  516MOL0     H69653  11.842   8.078   2.852 -0.6755 -0.1437 -3.2420
  516MOL0     H69654  11.769   8.040   3.109  0.3024 -1.5627  0.6970
  516MOL0     H69655  11.689   7.896   3.042  0.3279 -1.8234 -1.6478
  516MOL0     H69656  12.071   7.760   3.130  0.2245  0.8062 -1.9092
  516MOL0     H69657  11.530   7.608   2.506 -1.3864 -0.0700  3.2840
  516MOL0     H69658  11.350   7.494   2.274  1.8541  1.9085 -0.9589
  516MOL0     H69659  11.370   7.468   2.445 -1.6442 -1.7687 -0.1649
  516MOL0     H69660  11.222   7.512   2.382  0.1044 -0.8139  1.3340
  517MOL0     O69661   4.905   5.011   9.276  0.2164 -0.1397  0.6303
  517MOL0     C69662   4.890   4.967   9.391  0.2890  0.5678 -0.4411
  517MOL0     O69663   4.988   4.926   9.481 -0.2492 -0.2388  0.5010
  517MOL0     C69664   5.110   4.985   9.469 -0.4290 -0.2875  0.9034
  517MOL0     C69665   5.119   5.117   9.514 -0.8380 -0.4096 -0.2367
  517MOL0     C69666   5.245   5.175   9.510  1.1082  0.4640 -0.3795
  517MOL0     C69667   5.357   5.100   9.468 -0.4878 -0.2085 -0.2284
  517MOL0     O69668   5.474   5.173   9.481 -0.0353  0.3541  0.4824
  517MOL0     C69669   5.599   5.139   9.416  0.8955 -0.0164 -0.2278
  517MOL0     C69670   5.687   5.258   9.440 -0.0254 -0.6479  0.5382
  517MOL0     C69671   5.818   5.234   9.356 -0.7807 -0.1043 -1.8659
  517MOL0     C69672   5.910   5.355   9.361 -0.7359  0.6813 -0.1948
  517MOL0     C69673   6.047   5.330   9.293 -0.1616 -0.5861 -0.0552
  517MOL0     C69674   6.116   5.469   9.302  0.3109 -0.5821  0.5615
  517MOL0     C69675   6.256   5.474   9.236  0.3876 -0.3557 -0.4827
  517MOL0     C69676   6.304   5.622   9.260  0.2180 -0.3849  0.7012
  517MOL0     N69677   6.449   5.621   9.235 -0.5756 -0.6147  0.2840
  517MOL0     C69678   6.494   5.665   9.114 -0.1521  0.5493  0.9392
  517MOL0     C69679   6.623   5.617   9.115 -0.0668 -0.5181  0.4534
  517MOL0     C69680   6.718   5.622   9.010 -0.3036 -0.1593  0.1102
  517MOL0     C69681   6.846   5.539   9.043  0.6267 -0.0027 -1.3289
  517MOL0     C69682   6.919   5.501   8.912  0.0067 -0.2699  1.0113
  517MOL0     C69683   6.989   5.623   8.852  0.3378  0.0701  0.0387
  517MOL0     O69684   7.080   5.682   8.942 -0.5049  0.1917 -1.1665
  517MOL0     C69685   7.214   5.642   8.951 -0.3018  0.8033  0.0573
  517MOL0     C69686   7.256   5.515   9.000 -0.3865  0.0120  0.6835
  517MOL0     C69687   7.386   5.476   9.003 -1.4524  0.2729 -0.2421
  517MOL0     C69688   7.481   5.563   8.951  0.2055 -0.1145 -0.0809
  517MOL0     C69689   7.623   5.528   8.948 -0.0026 -0.6520  0.5001
  517MOL0     O69690   7.697   5.577   8.843 -0.1001  0.0595 -0.9170
  517MOL0     C69691   7.830   5.581   8.843  0.7024 -0.3595 -0.8871
  517MOL0     C69692   7.889   5.709   8.837  0.3605  0.1233  0.5118
  517MOL0     C69693   8.024   5.734   8.824 -0.3659 -0.0658  0.0580
  517MOL0     C69694   8.105   5.627   8.832 -0.3278  0.6698 -1.0822
  517MOL0     O69695   8.242   5.652   8.819 -0.0452 -0.3224  0.2529
  517MOL0     C69696   8.331   5.537   8.844 -0.2602 -0.6303  0.0608
  517MOL0     C69697   8.469   5.599   8.861 -0.1314 -0.4820  0.2738
  517MOL0     C69698   8.587   5.499   8.845 -0.2537  0.2063 -0.2272
  517MOL0     C69699   8.715   5.570   8.886  0.0867  0.2017 -0.3917
  517MOL0     C69700   8.805   5.465   8.960  0.6805  0.0352  0.6457
  517MOL0     C69701   8.916   5.541   9.023 -0.4126 -0.3990  0.3733
  517MOL0     C69702   8.907   5.560   9.169  0.9634  0.2337  0.3945
  517MOL0     C69703   9.031   5.628   9.230 -0.7716 -0.7014 -0.7094
  517MOL0    Cl69704   9.184   5.537   9.181 -0.1180 -0.0472  0.5788
  517MOL0     C69705   8.056   5.493   8.848  0.3530  0.0456  0.3806
  517MOL0     C69706   7.921   5.478   8.850  0.1180  0.3164 -0.5801
  517MOL0     O69707   7.659   5.436   9.032 -0.3339 -0.7505  0.2804
  517MOL0     C69708   7.449   5.687   8.887  0.2116 -0.3323  0.4335
  517MOL0     C69709   7.307   5.727   8.885  0.2280 -0.4406 -1.0780
  517MOL0     N69710   6.646   5.568   9.241 -0.1346 -0.4412 -0.7521
  517MOL0     N69711   6.545   5.565   9.312  0.0353 -0.6892  0.0253
  517MOL0     C69712   5.346   4.966   9.440 -0.0956  0.1476 -0.5870
  517MOL0     C69713   5.222   4.905   9.436  0.4191 -0.1810 -0.2101
  517MOL0     C69714   4.758   4.931   9.449 -0.0212 -0.2253  0.4317
  517MOL0     C69715   4.742   4.983   9.578 -0.0661 -0.5837 -0.3171
  517MOL0     C69716   4.619   4.984   9.644  0.6165 -0.0770  0.1431
  517MOL0     C69717   4.515   4.918   9.578  0.1618  0.0948  0.2224
  517MOL0     O69718   4.393   4.913   9.644  0.1357 -0.4887  0.2652
  517MOL0     C69719   4.319   5.035   9.608 -0.4428 -0.0899 -0.1161
  517MOL0     C69720   4.175   5.035   9.677 -0.8405 -0.5270  0.0535
  517MOL0     C69721   4.102   4.905   9.641 -0.6189  0.2742  0.4440
  517MOL0     C69722   4.015   4.900   9.512 -0.3572 -0.1566  0.6021
  517MOL0     C69723   3.887   4.961   9.537  0.2851  0.9748  0.6036
  517MOL0     C69724   3.774   5.010   9.540 -0.3654 -0.0037  0.0550
  517MOL0     C69725   4.532   4.864   9.450 -0.3754 -0.0104  0.5181
  517MOL0     C69726   4.656   4.869   9.375 -0.7690 -0.2602  0.9761
  517MOL0     C69727   4.655   4.823   9.229  0.8013  0.4669  0.4673
  517MOL0     H69728   5.036   5.171   9.558 -0.2940 -2.2298  3.4593
  517MOL0     H69729   5.272   5.271   9.551  1.4807  0.9444 -1.7199
  517MOL0     H69730   5.640   5.046   9.457  1.2956 -0.1437 -0.9001
  517MOL0     H69731   5.587   5.115   9.310 -2.5886  1.4525 -0.3015
  517MOL0     H69732   5.710   5.282   9.545  1.1006  2.5921 -0.3265
  517MOL0     H69733   5.640   5.348   9.400 -0.1431 -0.3532  1.3149
  517MOL0     H69734   5.788   5.213   9.253 -2.4597 -2.6018 -0.9863
  517MOL0     H69735   5.874   5.153   9.403 -3.1264 -1.1234 -0.6510
  517MOL0     H69736   5.868   5.441   9.307 -0.6977  0.2459 -0.9333
  517MOL0     H69737   5.931   5.385   9.464  1.0494  3.0901 -1.1905
  517MOL0     H69738   6.100   5.266   9.364 -2.4918 -2.7391 -0.0964
  517MOL0     H69739   6.045   5.279   9.197  3.9105 -0.7554 -0.2014
  517MOL0     H69740   6.049   5.545   9.262  2.9500  1.4920 -0.2556
  517MOL0     H69741   6.135   5.507   9.403  0.2156  0.7594  0.0892
  517MOL0     H69742   6.254   5.446   9.131 -2.8493 -1.0909 -0.3253
  517MOL0     H69743   6.325   5.410   9.291  0.6087 -0.4374 -0.8525
  517MOL0     H69744   6.247   5.689   9.195 -1.4515 -0.4564  2.0296
  517MOL0     H69745   6.285   5.650   9.364 -3.1425 -0.2832  0.1754
  517MOL0     H69746   6.448   5.724   9.035  0.4300 -0.3171 -0.0690
  517MOL0     H69747   6.675   5.573   8.921  2.4045 -1.8414 -0.3872
  517MOL0     H69748   6.747   5.726   8.993 -0.0305 -0.6377 -3.0360
  517MOL0     H69749   6.902   5.576   9.130  0.9520 -1.7928 -0.7218
  517MOL0     H69750   6.812   5.441   9.080  0.2452  0.3676 -0.6710
  517MOL0     H69751   6.850   5.455   8.841 -1.1909  1.0582  1.2640
  517MOL0     H69752   6.988   5.419   8.932 -1.0101 -1.7007 -1.0243
  517MOL0     H69753   6.914   5.697   8.822  0.7569 -0.1158 -1.5768
  517MOL0     H69754   7.033   5.606   8.753 -0.4740 -0.4065 -0.2518
  517MOL0     H69755   7.187   5.442   9.042 -0.2826 -2.0676 -2.3594
  517MOL0     H69756   7.402   5.378   9.046 -3.2635  0.1522  0.2679
  517MOL0     H69757   7.821   5.793   8.842  0.2450 -0.0368  2.1506
  517MOL0     H69758   8.075   5.830   8.830  2.5046 -1.5587  3.9625
  517MOL0     H69759   8.313   5.484   8.938  3.6718 -0.4462  1.0802
  517MOL0     H69760   8.322   5.469   8.758 -2.0179  0.3682 -0.5967
  517MOL0     H69761   8.478   5.669   8.778  2.5363 -0.9513  0.0494
  517MOL0     H69762   8.475   5.637   8.964 -2.3243 -2.5883  1.2689
  517MOL0     H69763   8.577   5.398   8.888  0.9762 -1.7973 -4.1354
  517MOL0     H69764   8.597   5.469   8.740 -0.0157  1.6372 -0.6256
  517MOL0     H69765   8.689   5.655   8.949  0.0616  0.6022 -0.9330
  517MOL0     H69766   8.764   5.607   8.795 -0.3386  2.7695  0.3453
  517MOL0     H69767   8.838   5.397   8.880 -1.5154  2.1754 -2.3204
  517MOL0     H69768   8.744   5.406   9.029 -1.1289  1.9289  0.7664
  517MOL0     H69769   9.004   5.479   9.004  0.7612  1.5896 -0.9689
  517MOL0     H69770   8.929   5.632   8.963  0.7944 -0.7323  0.1137
  517MOL0     H69771   8.876   5.465   9.212 -2.4870 -0.9450 -3.8839
  517MOL0     H69772   8.818   5.619   9.190  0.9689  0.7655 -0.9688
  517MOL0     H69773   9.029   5.732   9.195 -0.8092 -1.0449 -1.7403
  517MOL0     H69774   9.029   5.637   9.339 -0.1193  0.0983 -0.7505
  517MOL0     H69775   8.125   5.410   8.863  0.2701 -0.3019 -1.0281
  517MOL0     H69776   7.882   5.377   8.859 -1.6508  1.0858  0.9817
  517MOL0     H69777   7.518   5.748   8.829  3.8923 -3.8020  0.6824
  517MOL0     H69778   7.280   5.821   8.839 -1.4349  0.0490  0.7345
  517MOL0     H69779   5.431   4.902   9.417  0.4441  0.0696  1.4858
  517MOL0     H69780   5.207   4.798   9.428  0.3936 -0.4540  2.4943
  517MOL0     H69781   4.823   5.037   9.626 -0.5735  0.9615 -1.1112
  517MOL0     H69782   4.598   5.022   9.744 -0.6001  0.8967 -0.4440
  517MOL0     H69783   4.300   5.041   9.500  3.2055  2.3258 -0.8041
  517MOL0     H69784   4.367   5.131   9.628 -1.9309  0.4617  0.9995
  517MOL0     H69785   4.122   5.122   9.639  1.1376  1.1744  1.0055
  517MOL0     H69786   4.190   5.036   9.786  0.2946 -0.5410 -0.0935
  517MOL0     H69787   4.027   4.880   9.717  1.0183 -2.4197  1.3102
  517MOL0     H69788   4.176   4.825   9.653 -1.0960  0.1284  2.8921
  517MOL0     H69789   4.059   4.958   9.431 -3.2494 -1.5280 -2.1272
  517MOL0     H69790   4.018   4.794   9.484  1.8189  0.6236 -2.6104
  517MOL0     H69791   3.684   5.063   9.514  0.4222  1.3566 -0.0029
  517MOL0     H69792   4.447   4.832   9.390 -1.8145  1.4301  1.7066
  517MOL0     H69793   4.751   4.787   9.192  1.9714  2.6504  1.2403
  517MOL0     H69794   4.576   4.749   9.211  0.1085  1.0305  1.1326
  517MOL0     H69795   4.633   4.911   9.168 -1.0873 -0.1139  0.2297
  518MOL0     O69796   2.089   5.068   7.486  0.3397 -0.9513  0.1304
  518MOL0     C69797   2.020   5.006   7.565  0.6640 -0.0592 -0.1903
  518MOL0     O69798   2.026   4.866   7.586 -0.6537  0.0657 -1.0095
  518MOL0     C69799   2.100   4.789   7.502  0.1958  0.3893  0.6111
  518MOL0     C69800   2.027   4.688   7.438 -0.3724 -0.3431  0.0183
  518MOL0     C69801   2.098   4.607   7.342  0.1534 -0.1138 -0.8376
  518MOL0     C69802   2.230   4.616   7.319 -0.2957 -0.1201 -0.3051
  518MOL0     O69803   2.287   4.530   7.229  0.1020 -0.2405  0.0581
  518MOL0     C69804   2.386   4.448   7.291 -0.1867 -0.3660 -0.0630
  518MOL0     C69805   2.467   4.350   7.201 -0.0528 -0.5286 -0.6905
  518MOL0     C69806   2.598   4.308   7.263 -0.0088 -0.6417 -0.2237
  518MOL0     C69807   2.684   4.228   7.158  0.0595  0.2761 -0.1578
  518MOL0     C69808   2.629   4.086   7.133  0.9320 -0.4942  0.5048
  518MOL0     C69809   2.598   4.002   7.257 -0.1598 -0.2821 -0.1062
  518MOL0     C69810   2.717   3.988   7.347 -0.2057  0.5839 -0.5963
  518MOL0     C69811   2.819   3.891   7.273  0.9901 -0.6382  0.4470
  518MOL0     N69812   2.942   3.866   7.342  0.7290  0.6266 -0.4760
  518MOL0     C69813   3.053   3.934   7.326  0.1059 -0.7279  0.5748
  518MOL0     C69814   3.125   3.920   7.440 -0.3209  0.5115  1.3258
  518MOL0     C69815   3.270   3.963   7.456  0.2039  0.1811 -0.4906
  518MOL0     C69816   3.359   3.836   7.433 -0.6786  0.0651  0.2535
  518MOL0     C69817   3.515   3.869   7.438 -1.0954  0.0952  0.1045
  518MOL0     C69818   3.598   3.747   7.500 -0.4059  0.4417  0.2050
  518MOL0     O69819   3.735   3.787   7.527 -1.3523 -0.6306  0.8528
  518MOL0     C69820   3.828   3.694   7.553 -0.0180 -0.6737  0.0023
  518MOL0     C69821   3.807   3.558   7.552 -0.3995 -0.0152  0.2283
  518MOL0     C69822   3.910   3.478   7.583  0.0638  1.2286 -0.5544
  518MOL0     C69823   4.039   3.522   7.616  0.3511  0.0484 -0.0291
  518MOL0     C69824   4.142   3.422   7.630 -0.3871 -0.1382  0.4238
  518MOL0     O69825   4.110   3.291   7.618  0.2988 -0.3103  0.7036
  518MOL0     C69826   4.197   3.195   7.642 -0.4206 -0.2897 -0.0609
  518MOL0     C69827   4.233   3.102   7.541  0.2139 -0.8253  0.4404
  518MOL0     C69828   4.336   3.003   7.564  0.0831 -0.1630  0.2586
  518MOL0     C69829   4.403   2.993   7.694  0.7284  0.1732 -0.1978
  518MOL0     O69830   4.500   2.901   7.722 -0.3622 -0.1453 -0.7913
  518MOL0     C69831   4.609   2.877   7.631 -0.0321 -0.6406  0.6728
  518MOL0     C69832   4.671   2.742   7.665 -0.2029 -0.5031 -0.0143
  518MOL0     C69833   4.720   2.730   7.811 -1.2356  0.1396  0.3354
  518MOL0     C69834   4.814   2.843   7.859  0.0036 -0.0569  0.0800
  518MOL0     C69835   4.942   2.861   7.775  0.7400 -0.3054 -0.5845
  518MOL0     C69836   5.061   2.925   7.842  0.0466 -0.5044 -0.2104
  518MOL0     C69837   5.157   2.981   7.735 -0.3127 -0.2525  0.2826
  518MOL0     C69838   5.278   3.062   7.774  0.3660 -0.3725 -0.6444
  518MOL0    Cl69839   5.228   3.200   7.871  0.1464  0.1895 -0.1035
  518MOL0     C69840   4.361   3.084   7.797  0.1148 -0.6242 -0.1499
  518MOL0     C69841   4.263   3.180   7.767  0.1478 -0.3147  0.3072
  518MOL0     O69842   4.260   3.464   7.638  0.2648 -0.1897  0.0462
  518MOL0     C69843   4.057   3.663   7.616 -0.4514 -0.0530 -0.1032
  518MOL0     C69844   3.949   3.745   7.587 -0.8293 -0.1842 -0.3549
  518MOL0     N69845   3.063   3.824   7.512 -0.5778  0.1886  0.5001
  518MOL0     N69846   2.955   3.790   7.455  0.6438  0.6278 -0.2006
  518MOL0     C69847   2.303   4.722   7.376  0.2221  0.0004 -0.6741
  518MOL0     C69848   2.232   4.814   7.463  0.8574 -0.1847 -0.2082
  518MOL0     C69849   1.911   5.088   7.635  0.0511 -0.0935 -0.9217
  518MOL0     C69850   1.941   5.220   7.682  0.4855  0.3354  0.6652
  518MOL0     C69851   1.858   5.298   7.755  0.7701  0.2867 -0.3725
  518MOL0     C69852   1.734   5.245   7.786  0.1758 -0.4822 -0.1426
  518MOL0     O69853   1.638   5.315   7.862 -0.2614 -0.0412  0.1703
  518MOL0     C69854   1.670   5.438   7.924 -1.1493  0.6841 -0.6605
  518MOL0     C69855   1.567   5.488   8.021  0.0968  0.4919 -0.5199
  518MOL0     C69856   1.431   5.533   7.954  0.6478 -0.2975 -0.8397
  518MOL0     C69857   1.319   5.532   8.067  0.2933 -0.9081  0.0487
  518MOL0     C69858   1.213   5.622   8.015 -0.3904  1.1403 -0.1603
  518MOL0     C69859   1.139   5.688   7.942  0.2061 -0.7284 -0.4220
  518MOL0     C69860   1.696   5.115   7.735 -0.2717 -0.4569  0.5648
  518MOL0     C69861   1.786   5.034   7.656 -0.7579  0.6418 -0.0598
  518MOL0     C69862   1.735   4.899   7.613 -0.2379 -0.5914 -0.2963
  518MOL0     H69863   1.920   4.675   7.448 -0.2257 -2.3283 -0.5516
  518MOL0     H69864   2.029   4.546   7.285 -0.3268 -2.9116  2.3934
  518MOL0     H69865   2.459   4.512   7.342 -0.9752  1.3619 -1.0330
  518MOL0     H69866   2.334   4.385   7.364  1.3810 -0.5515  0.9581
  518MOL0     H69867   2.498   4.408   7.114 -2.6392 -0.1905 -1.4424
  518MOL0     H69868   2.409   4.272   7.151  0.5597  0.2186 -2.6611
  518MOL0     H69869   2.564   4.238   7.340 -0.3781 -1.5798 -1.1967
  518MOL0     H69870   2.654   4.393   7.301 -1.3919  1.0343 -1.7534
  518MOL0     H69871   2.691   4.276   7.060  1.0845  0.5424  0.0343
  518MOL0     H69872   2.784   4.230   7.201 -0.5449  1.1182  1.2669
  518MOL0     H69873   2.547   4.099   7.062  1.2525 -0.0610  0.2074
  518MOL0     H69874   2.700   4.035   7.068  1.3063 -0.8660  1.1912
  518MOL0     H69875   2.511   4.023   7.319 -2.7539 -1.6942 -2.9841
  518MOL0     H69876   2.574   3.905   7.213 -0.2323  0.1178 -0.9669
  518MOL0     H69877   2.682   3.943   7.441  1.7749 -2.0780 -0.9955
  518MOL0     H69878   2.764   4.084   7.369  0.8129  0.5360 -2.3940
  518MOL0     H69879   2.766   3.795   7.277  0.0921 -0.2701 -1.3876
  518MOL0     H69880   2.843   3.935   7.176 -3.2038  0.4920 -0.2550
  518MOL0     H69881   3.081   3.995   7.240 -2.7998  0.6923  0.5226
  518MOL0     H69882   3.290   4.041   7.382 -0.4969  0.5025 -0.3547
  518MOL0     H69883   3.288   4.010   7.552 -2.5362 -1.8862  1.2064
  518MOL0     H69884   3.336   3.755   7.503 -1.2390 -0.7272 -0.8010
  518MOL0     H69885   3.332   3.788   7.338 -0.5016 -4.2026  2.1194
  518MOL0     H69886   3.531   3.961   7.495  3.5557 -0.1225 -0.4202
  518MOL0     H69887   3.555   3.882   7.337  3.3777  3.5610  1.9626
  518MOL0     H69888   3.593   3.671   7.422 -1.1332  0.3267  0.3633
  518MOL0     H69889   3.556   3.708   7.593  1.1653 -0.4753  0.5677
  518MOL0     H69890   3.714   3.505   7.534  0.6100 -1.8145  0.0685
  518MOL0     H69891   3.882   3.373   7.584 -0.3427  1.3155  2.0455
  518MOL0     H69892   4.197   3.116   7.440  1.5322  2.6392  0.3328
  518MOL0     H69893   4.372   2.936   7.487  2.6677 -0.4279  1.6022
  518MOL0     H69894   4.560   2.872   7.533 -2.8252 -0.8303  1.9665
  518MOL0     H69895   4.681   2.959   7.627 -0.1361 -0.6179 -1.7652
  518MOL0     H69896   4.591   2.675   7.632  0.3304 -1.0878 -0.1451
  518MOL0     H69897   4.761   2.720   7.607  0.3558  1.3003  0.0833
  518MOL0     H69898   4.629   2.718   7.871 -4.2010 -1.6018 -3.9336
  518MOL0     H69899   4.770   2.633   7.811 -2.7655 -0.6961 -0.2303
  518MOL0     H69900   4.832   2.810   7.962 -2.1651 -0.8120  0.2732
  518MOL0     H69901   4.756   2.936   7.860 -3.6790 -1.9664 -3.6629
  518MOL0     H69902   4.907   2.921   7.690  0.4086 -0.6123 -0.6698
  518MOL0     H69903   4.978   2.760   7.753 -1.6108 -1.9865  2.5905
  518MOL0     H69904   5.023   3.010   7.900 -2.9734  0.4694 -3.2616
  518MOL0     H69905   5.120   2.849   7.895  1.0429 -1.3720 -2.4359
  518MOL0     H69906   5.102   3.045   7.666 -1.5257 -2.7609 -1.1703
  518MOL0     H69907   5.191   2.891   7.683 -0.0343 -1.6051  2.6649
  518MOL0     H69908   5.343   2.997   7.834 -0.7406 -0.3670  0.5832
  518MOL0     H69909   5.334   3.113   7.695 -0.5334  2.4654  0.4516
  518MOL0     H69910   4.409   3.082   7.895 -0.7862 -0.4940  0.3011
  518MOL0     H69911   4.228   3.240   7.851  1.6816  0.3515  0.4941
  518MOL0     H69912   4.153   3.710   7.629 -0.5166  1.0657 -2.8770
  518MOL0     H69913   3.962   3.852   7.599 -0.7562  0.1737 -2.9310
  518MOL0     H69914   2.406   4.741   7.348  0.9566 -1.4718  0.8290
  518MOL0     H69915   2.282   4.906   7.491  0.2316  0.2478 -0.4842
  518MOL0     H69916   2.031   5.267   7.644  0.4928  0.3144  0.6561
  518MOL0     H69917   1.895   5.400   7.769  3.4788 -0.7300  0.5501
  518MOL0     H69918   1.681   5.506   7.839 -3.5020  0.9982 -0.7922
  518MOL0     H69919   1.771   5.431   7.966 -0.3898 -0.2288 -2.5176
  518MOL0     H69920   1.612   5.573   8.073  1.2059 -0.3818 -0.0021
  518MOL0     H69921   1.554   5.416   8.103  3.7182  1.2757  0.9368
  518MOL0     H69922   1.411   5.471   7.866  2.0308  0.4525 -1.7154
  518MOL0     H69923   1.452   5.631   7.910  2.3466 -0.0264  0.4518
  518MOL0     H69924   1.272   5.433   8.077  1.0359 -1.2011  0.7551
  518MOL0     H69925   1.360   5.565   8.163 -0.3898  1.1335 -0.3135
  518MOL0     H69926   1.080   5.739   7.867 -0.9369 -0.8175  0.3996
  518MOL0     H69927   1.593   5.084   7.753 -1.7030  1.2743 -3.4119
  518MOL0     H69928   1.626   4.899   7.622 -0.1518 -1.9088  1.0173
  518MOL0     H69929   1.766   4.871   7.512  1.0472 -2.8932  0.6727
  518MOL0     H69930   1.766   4.826   7.688  1.2528  1.1886  0.9026
  519MOL0     O69931   9.143   3.349   7.041 -0.3501  0.2807  0.2458
  519MOL0     C69932   9.060   3.418   7.108  0.3453  0.2431 -0.0937
  519MOL0     O69933   9.081   3.480   7.228 -0.2161  0.3990 -0.7086
  519MOL0     C69934   9.204   3.515   7.274  0.0162  0.4001 -1.1069
  519MOL0     C69935   9.333   3.486   7.227 -0.7085 -0.6658 -0.5295
  519MOL0     C69936   9.447   3.552   7.283  0.4020 -0.9195  1.1381
  519MOL0     C69937   9.425   3.644   7.387 -0.3204 -0.8582  0.6114
  519MOL0     O69938   9.524   3.737   7.424  0.1506  0.3661  0.3437
  519MOL0     C69939   9.659   3.687   7.419  1.0432 -0.3272 -0.1975
  519MOL0     C69940   9.748   3.795   7.483  0.1285  0.2130  0.8675
  519MOL0     C69941   9.882   3.727   7.504  0.0997  0.1708 -0.3788
  519MOL0     C69942   9.884   3.646   7.639  0.2992 -0.0049  0.8278
  519MOL0     C69943  10.003   3.564   7.659  0.0929 -0.7799 -0.0302
  519MOL0     C69944   9.986   3.439   7.576 -0.7301 -0.2772  0.6217
  519MOL0     C69945  10.108   3.340   7.598 -0.2872 -0.5256 -0.0622
  519MOL0     C69946  10.086   3.206   7.529  0.7465 -0.1367 -0.8156
  519MOL0     N69947  10.002   3.106   7.586 -0.0114  0.4463  0.6251
  519MOL0     C69948  10.053   3.014   7.680  0.8879  0.1753  0.5093
  519MOL0     C69949   9.960   2.909   7.693 -0.6550 -0.3135  0.1956
  519MOL0     C69950   9.981   2.787   7.782 -0.7776 -0.7858 -0.3072
  519MOL0     C69951  10.088   2.817   7.886 -0.0998  0.5166 -0.3240
  519MOL0     C69952  10.094   2.719   8.006 -0.3494  0.1786  0.8120
  519MOL0     C69953   9.974   2.724   8.106  0.6477  0.1544  0.5260
  519MOL0     O69954   9.987   2.861   8.151  0.2809  0.0347  0.1562
  519MOL0     C69955  10.030   2.850   8.282 -0.4529  0.1618  0.1131
  519MOL0     C69956   9.940   2.815   8.381  0.7838  0.4736 -0.6723
  519MOL0     C69957   9.980   2.836   8.520  0.0725 -0.3254 -0.0239
  519MOL0     C69958  10.103   2.892   8.551  0.0053 -0.2723  0.2812
  519MOL0     C69959  10.136   2.924   8.700 -0.5126 -0.0654 -0.5618
  519MOL0     O69960  10.265   2.954   8.715 -0.1480  0.7546  0.5309
  519MOL0     C69961  10.318   2.999   8.835  0.4709  0.5670  1.1954
  519MOL0     C69962  10.407   2.917   8.896 -0.9962  1.0298  0.5092
  519MOL0     C69963  10.477   2.970   8.999  0.5977  0.4620 -0.2537
  519MOL0     C69964  10.446   3.100   9.040 -0.0373 -0.6331 -0.0289
  519MOL0     O69965  10.529   3.164   9.138 -0.2715 -0.4054  0.2551
  519MOL0     C69966  10.551   3.302   9.121  0.7046  0.7986 -0.2042
  519MOL0     C69967  10.682   3.351   9.186 -0.2777  0.0367  0.1016
  519MOL0     C69968  10.796   3.262   9.163  0.0583 -0.0909 -0.1373
  519MOL0     C69969  10.908   3.297   9.257 -0.1611 -1.4212  0.5032
  519MOL0     C69970  11.038   3.215   9.232  0.3595  0.6379 -0.2531
  519MOL0     C69971  11.026   3.069   9.262 -0.0204 -0.4096  1.1663
  519MOL0     C69972  11.163   2.998   9.289 -0.2627  0.1557  0.2847
  519MOL0     C69973  11.159   2.843   9.305 -0.6646  0.4525 -0.4518
  519MOL0    Cl69974  11.325   2.784   9.320 -0.1675  0.0795  0.0937
  519MOL0     C69975  10.328   3.163   9.001 -0.6356 -0.2617 -0.0907
  519MOL0     C69976  10.263   3.117   8.894 -0.0947  0.2609  0.4152
  519MOL0     O69977  10.054   2.905   8.788  0.1698 -0.0885  0.6995
  519MOL0     C69978  10.194   2.913   8.449 -1.2770 -0.2241  0.2436
  519MOL0     C69979  10.155   2.896   8.314 -0.0387 -1.0230  0.3871
  519MOL0     N69980   9.850   2.948   7.627  0.3428  0.6941 -0.4545
  519MOL0     N69981   9.871   3.055   7.559 -0.3611 -0.9251  0.3907
  519MOL0     C69982   9.295   3.666   7.429 -0.1142  0.4378  0.2342
  519MOL0     C69983   9.185   3.608   7.380 -0.6438  0.8158  1.2494
  519MOL0     C69984   8.924   3.427   7.047 -0.2651 -0.8050 -0.3458
  519MOL0     C69985   8.871   3.310   6.989 -0.2550  1.0827 -0.2802
  519MOL0     C69986   8.740   3.303   6.941  0.2471 -0.9204  0.4860
  519MOL0     C69987   8.670   3.424   6.931 -0.0445  0.2325 -0.5138
  519MOL0     O69988   8.543   3.409   6.876  0.0203  0.7079 -0.3014
  519MOL0     C69989   8.438   3.380   6.977  0.0466  0.5650 -0.1501
  519MOL0     C69990   8.432   3.240   7.031  0.5427  0.2302  0.4146
  519MOL0     C69991   8.397   3.129   6.931 -0.3350  0.3444 -0.1307
  519MOL0     C69992   8.250   3.089   6.941  0.4677  0.1703 -0.0082
  519MOL0     C69993   8.220   2.994   6.836 -0.1988 -0.0890  0.3971
  519MOL0     C69994   8.193   2.906   6.758  0.6796 -0.2994  0.9750
  519MOL0     C69995   8.723   3.545   6.989 -0.0144 -0.2794 -0.2523
  519MOL0     C69996   8.845   3.547   7.050 -0.4264 -0.5263  0.4268
  519MOL0     C69997   8.884   3.676   7.113  1.2024 -0.3212 -0.1961
  519MOL0     H69998   9.344   3.423   7.140  0.5694 -2.0897  0.6001
  519MOL0     H69999   9.543   3.530   7.239 -0.6427  0.6751 -2.2617
  519MOL0     H70000   9.682   3.586   7.454  1.0752  0.0535  0.9158
  519MOL0     H70001   9.685   3.687   7.313  1.8983 -0.5877  0.0029
  519MOL0     H70002   9.709   3.827   7.580  0.0485 -3.2676  2.1277
  519MOL0     H70003   9.763   3.880   7.417 -0.6327 -0.3870 -0.1153
  519MOL0     H70004   9.937   3.820   7.516  0.6029 -0.2401  0.6369
  519MOL0     H70005   9.910   3.671   7.414 -3.2952 -0.9461 -0.8869
  519MOL0     H70006   9.871   3.715   7.723  0.9252  0.2291  0.7313
  519MOL0     H70007   9.801   3.575   7.637  0.3609 -0.0913  1.2962
  519MOL0     H70008  10.090   3.626   7.636  0.3019 -0.8657  0.4982
  519MOL0     H70009  10.006   3.533   7.764  0.6529 -1.9645 -0.3731
  519MOL0     H70010   9.899   3.381   7.607 -0.8688 -0.5763 -0.2863
  519MOL0     H70011   9.977   3.461   7.469  2.7920  2.7594  0.7565
  519MOL0     H70012  10.131   3.312   7.701 -3.9918 -1.8363  0.5366
  519MOL0     H70013  10.199   3.385   7.556 -0.3169 -0.7152 -0.3356
  519MOL0     H70014  10.053   3.219   7.426 -0.9676  1.7130 -0.0974
  519MOL0     H70015  10.185   3.160   7.521  0.0558 -1.9366  0.2849
  519MOL0     H70016  10.154   3.003   7.718  2.6161 -3.9121 -4.1419
  519MOL0     H70017   9.886   2.776   7.835 -0.0200 -1.9538  0.8841
  519MOL0     H70018  10.009   2.693   7.732 -1.5702 -1.2456  0.0963
  519MOL0     H70019  10.187   2.827   7.840  0.1380  0.2552  0.1297
  519MOL0     H70020  10.078   2.912   7.940 -0.2742  0.3257 -0.0185
  519MOL0     H70021  10.192   2.728   8.053 -0.4528  0.4651  0.9760
  519MOL0     H70022  10.096   2.620   7.960  1.9901 -0.3522  1.9328
  519MOL0     H70023   9.991   2.648   8.183  2.7404 -0.6590 -0.6425
  519MOL0     H70024   9.877   2.713   8.056  0.5751 -0.4636  0.7850
  519MOL0     H70025   9.838   2.790   8.354  0.8396  0.6482 -1.0566
  519MOL0     H70026   9.913   2.802   8.599  0.0168  2.3342  1.1819
  519MOL0     H70027  10.427   2.817   8.861 -0.7579  1.2923 -0.1161
  519MOL0     H70028  10.549   2.900   9.042 -2.2340 -3.7767 -1.6907
  519MOL0     H70029  10.586   3.307   9.018  0.1208  0.9924 -0.3997
  519MOL0     H70030  10.461   3.363   9.139 -0.1558 -0.2677 -0.7745
  519MOL0     H70031  10.715   3.446   9.143  1.6188 -0.4791  0.3255
  519MOL0     H70032  10.670   3.363   9.295 -0.5279  0.9057 -0.0143
  519MOL0     H70033  10.770   3.160   9.192  0.4325  0.1907  1.2892
  519MOL0     H70034  10.827   3.262   9.058  0.2439  0.6179 -0.0910
  519MOL0     H70035  10.877   3.288   9.361 -0.0816 -2.3219  0.4543
  519MOL0     H70036  10.922   3.406   9.253 -3.0704 -0.9991 -2.6698
  519MOL0     H70037  11.110   3.256   9.304 -0.7160  2.6557 -0.2406
  519MOL0     H70038  11.084   3.242   9.137 -1.7351  1.1950 -1.1737
  519MOL0     H70039  10.978   3.059   9.359 -1.1408 -1.5955  0.5223
  519MOL0     H70040  10.967   3.023   9.181 -1.1586  5.1903 -1.6622
  519MOL0     H70041  11.218   3.032   9.377  0.5926 -2.0093  0.6598
  519MOL0     H70042  11.232   3.026   9.209  1.7428  1.0203  2.1961
  519MOL0     H70043  11.101   2.812   9.392  0.1286  2.0396  0.6908
  519MOL0     H70044  11.124   2.801   9.210  0.8157  0.9032 -1.2358
  519MOL0     H70045  10.288   3.248   9.056  0.3006  0.7151 -0.8634
  519MOL0     H70046  10.171   3.165   8.864 -1.0610 -2.1666 -0.8383
  519MOL0     H70047  10.294   2.949   8.471 -0.5314 -2.4713  0.8195
  519MOL0     H70048  10.218   2.911   8.227 -0.8281 -4.4683 -0.9251
  519MOL0     H70049   9.291   3.750   7.497  2.0622 -0.0227  0.9944
  519MOL0     H70050   9.089   3.639   7.420 -3.1882 -3.5288 -0.7736
  519MOL0     H70051   8.934   3.222   6.985 -1.6117  0.0578  0.1091
  519MOL0     H70052   8.711   3.213   6.888  3.4217  0.5132 -4.3505
  519MOL0     H70053   8.343   3.419   6.941 -0.5064 -0.9129 -0.3443
  519MOL0     H70054   8.460   3.439   7.066 -0.4964 -2.7056  2.3317
  519MOL0     H70055   8.362   3.227   7.113 -0.3813  3.3732  0.2432
  519MOL0     H70056   8.524   3.213   7.083 -0.5032 -3.3015  0.6974
  519MOL0     H70057   8.462   3.042   6.946 -0.1122 -0.1789 -3.4444
  519MOL0     H70058   8.413   3.154   6.826 -0.5622 -0.7456 -0.4315
  519MOL0     H70059   8.218   3.052   7.038  0.0088  0.5183 -0.0186
  519MOL0     H70060   8.194   3.182   6.925  2.2799  1.7667  2.2205
  519MOL0     H70061   8.181   2.836   6.677  3.6354  3.3545 -3.1475
  519MOL0     H70062   8.655   3.630   6.988  0.7250  0.3243 -0.6687
  519MOL0     H70063   8.810   3.749   7.080  0.6857 -1.2988 -1.2797
  519MOL0     H70064   8.885   3.659   7.221 -0.2308 -0.9484 -0.2552
  519MOL0     H70065   8.976   3.723   7.078  0.7117  0.5044 -0.3955
  520MOL0     O70066   3.133   3.134   6.913 -0.8467  0.0703 -0.3140
  520MOL0     C70067   3.180   3.219   6.851 -1.4626 -0.2385  0.3654
  520MOL0     O70068   3.315   3.234   6.836 -0.4422  0.6650 -0.4946
  520MOL0     C70069   3.413   3.190   6.922  0.0219  0.8946 -0.0218
  520MOL0     C70070   3.382   3.159   7.056  0.5918 -1.2125  0.2877
  520MOL0     C70071   3.482   3.126   7.146  0.6159 -0.4844 -0.0157
  520MOL0     C70072   3.612   3.103   7.107  0.1577 -0.1096 -0.5254
  520MOL0     O70073   3.701   3.069   7.212 -0.1448  0.0376 -0.2941
  520MOL0     C70074   3.842   3.113   7.187  0.5650  0.0516 -0.2589
  520MOL0     C70075   3.938   3.018   7.125  0.3301  0.5315 -0.1931
  520MOL0     C70076   3.945   2.877   7.182  0.1858  0.0503  0.5764
  520MOL0     C70077   3.951   2.750   7.092  1.1097 -0.4760 -0.5662
  520MOL0     C70078   4.083   2.760   7.012  0.0667  0.8598 -0.6156
  520MOL0     C70079   4.084   2.628   6.928  0.1627 -0.0087 -0.1345
  520MOL0     C70080   4.209   2.638   6.830  0.2407 -0.2529 -0.5443
  520MOL0     C70081   4.211   2.524   6.736 -1.0938  0.9787  0.6229
  520MOL0     N70082   4.354   2.507   6.695 -0.0028 -0.2989 -0.4502
  520MOL0     C70083   4.438   2.613   6.682 -0.2947  0.1740  0.0546
  520MOL0     C70084   4.548   2.562   6.614 -0.2613  0.0600 -0.6043
  520MOL0     C70085   4.671   2.624   6.565 -0.0710  0.0569 -0.1973
  520MOL0     C70086   4.783   2.583   6.668 -0.4436 -0.9909 -0.0105
  520MOL0     C70087   4.781   2.651   6.807  0.7523  0.8066 -0.6497
  520MOL0     C70088   4.915   2.652   6.882  0.8800 -0.3583 -1.1303
  520MOL0     O70089   4.974   2.523   6.878  0.0887 -0.2105  0.7905
  520MOL0     C70090   5.078   2.490   6.966 -0.0738  0.4945  0.3684
  520MOL0     C70091   5.175   2.589   7.001  0.6946 -0.3829 -0.2273
  520MOL0     C70092   5.280   2.552   7.087 -0.5393 -1.1339 -0.0648
  520MOL0     C70093   5.285   2.421   7.148  0.1761 -0.2063 -0.6348
  520MOL0     C70094   5.389   2.365   7.239  0.3768 -0.5294 -0.4520
  520MOL0     O70095   5.512   2.428   7.220 -0.0990  0.5768  0.3584
  520MOL0     C70096   5.626   2.404   7.298 -0.9978 -0.1110  0.2926
  520MOL0     C70097   5.646   2.281   7.353 -1.3185 -0.6363 -0.0322
  520MOL0     C70098   5.759   2.265   7.437  0.7982  0.0803  0.3653
  520MOL0     C70099   5.849   2.376   7.451 -0.3119 -0.6559  0.3052
  520MOL0     O70100   5.951   2.372   7.546  0.5255 -0.5361  0.2565
  520MOL0     C70101   5.921   2.299   7.663 -0.2539  0.0632  0.6154
  520MOL0     C70102   6.026   2.343   7.763  0.1772  0.0247  0.3660
  520MOL0     C70103   6.056   2.241   7.877  0.2310 -0.3900 -0.6206
  520MOL0     C70104   6.167   2.276   7.969 -0.1302 -0.5162  0.6413
  520MOL0     C70105   6.210   2.167   8.070 -0.4673  0.1494  0.3720
  520MOL0     C70106   6.132   2.160   8.195  0.3138  0.8457  0.1514
  520MOL0     C70107   5.993   2.087   8.198 -0.5618 -0.2520  0.0226
  520MOL0     C70108   5.941   2.095   8.341  0.0138 -0.2010 -0.2151
  520MOL0    Cl70109   5.764   2.094   8.355 -0.2203 -0.1777 -0.1923
  520MOL0     C70110   5.833   2.498   7.386  0.3164  0.9917  1.0465
  520MOL0     C70111   5.717   2.515   7.303  0.5308  0.5427  0.8163
  520MOL0     O70112   5.360   2.277   7.317  0.3143  0.0643 -0.2394
  520MOL0     C70113   5.189   2.332   7.107 -0.2603 -0.2499 -0.5397
  520MOL0     C70114   5.097   2.357   7.006  0.4160  0.7922  0.4682
  520MOL0     N70115   4.515   2.433   6.583 -0.9608  0.6208  0.2404
  520MOL0     N70116   4.410   2.399   6.633 -0.2459  0.3071 -0.2308
  520MOL0     C70117   3.651   3.134   6.973  0.0036 -0.6509  0.0569
  520MOL0     C70118   3.545   3.167   6.882 -0.3858 -0.3076  0.6330
  520MOL0     C70119   3.085   3.304   6.785  0.1325 -0.4654 -0.6398
  520MOL0     C70120   2.958   3.322   6.841  0.0975 -0.5501  0.0317
  520MOL0     C70121   2.853   3.387   6.771  0.3282 -0.6955 -1.5525
  520MOL0     C70122   2.875   3.449   6.645 -0.1344 -0.1114 -0.7696
  520MOL0     O70123   2.770   3.508   6.577 -0.7502  0.3638 -1.2027
  520MOL0     C70124   2.639   3.524   6.639 -0.1386  0.4601  0.2438
  520MOL0     C70125   2.650   3.646   6.735  0.2542  0.4277 -0.5026
  520MOL0     C70126   2.496   3.679   6.769  0.3788  0.5185  0.3141
  520MOL0     C70127   2.465   3.808   6.857  0.4119 -0.2170  0.2197
  520MOL0     C70128   2.339   3.864   6.805  0.0970  0.4318  0.2880
  520MOL0     C70129   2.239   3.908   6.760  0.6259 -0.1225 -0.7995
  520MOL0     C70130   3.003   3.437   6.593 -0.0531  0.5596  0.3410
  520MOL0     C70131   3.106   3.364   6.658  0.4763  0.5245 -0.6495
  520MOL0     C70132   3.233   3.364   6.584  0.6929  0.1095 -0.6283
  520MOL0     H70133   3.283   3.169   7.098 -0.5063 -3.2030 -1.6811
  520MOL0     H70134   3.458   3.113   7.251 -3.2422 -0.6072 -0.7633
  520MOL0     H70135   3.841   3.199   7.120 -0.0769  0.1440 -0.1353
  520MOL0     H70136   3.884   3.129   7.286  0.5089 -3.4107  0.4669
  520MOL0     H70137   4.036   3.063   7.145  1.2574 -2.4525  2.8838
  520MOL0     H70138   3.924   3.012   7.016  3.5222  3.3371 -0.9131
  520MOL0     H70139   3.851   2.860   7.236  0.7129  0.6136  1.6955
  520MOL0     H70140   4.029   2.877   7.252  2.9503 -0.7980 -2.5366
  520MOL0     H70141   3.941   2.656   7.146  0.3762  0.1122  0.3457
  520MOL0     H70142   3.863   2.764   7.028  1.8223  1.7449 -1.1459
  520MOL0     H70143   4.073   2.844   6.943 -0.7723 -0.6036 -2.3691
  520MOL0     H70144   4.165   2.771   7.084 -0.2548  0.4506 -0.1774
  520MOL0     H70145   4.090   2.540   6.992 -0.9012 -0.1438 -0.2146
  520MOL0     H70146   3.993   2.614   6.870  0.6487  0.0820 -0.9258
  520MOL0     H70147   4.296   2.645   6.894 -0.3382 -0.7977  0.3224
  520MOL0     H70148   4.199   2.728   6.767 -2.4880  0.4694  0.7411
  520MOL0     H70149   4.193   2.432   6.792  0.1941  0.4748  0.2329
  520MOL0     H70150   4.149   2.529   6.646  1.0782 -0.7308 -1.0601
  520MOL0     H70151   4.430   2.715   6.720 -1.3147 -0.4429  1.5786
  520MOL0     H70152   4.692   2.573   6.470  1.3687  1.7117 -0.8323
  520MOL0     H70153   4.661   2.730   6.540  1.3600  0.2360 -0.1337
  520MOL0     H70154   4.787   2.474   6.667 -1.9878 -1.0933  0.7409
  520MOL0     H70155   4.879   2.605   6.622  0.0575 -1.1295  0.9515
  520MOL0     H70156   4.706   2.599   6.868 -0.3153 -0.6204 -3.0015
  520MOL0     H70157   4.746   2.754   6.792 -1.3109  0.1268 -0.8046
  520MOL0     H70158   4.900   2.683   6.986  1.2888 -0.6365 -0.9861
  520MOL0     H70159   4.980   2.727   6.836 -0.0549 -0.5553 -2.8193
  520MOL0     H70160   5.162   2.692   6.971 -2.2336 -0.6589 -0.2627
  520MOL0     H70161   5.366   2.617   7.102 -0.8299 -0.9612  1.0021
  520MOL0     H70162   5.589   2.192   7.327  0.2497 -1.4319 -0.9402
  520MOL0     H70163   5.777   2.173   7.491 -0.5781 -0.8151 -0.6218
  520MOL0     H70164   5.817   2.304   7.695 -0.8121 -2.6453 -0.4222
  520MOL0     H70165   5.943   2.195   7.635 -0.6512  0.1487 -0.0372
  520MOL0     H70166   6.124   2.357   7.717  0.3440 -3.4544 -0.6174
  520MOL0     H70167   5.998   2.434   7.818  1.3396 -0.5528  1.9889
  520MOL0     H70168   5.975   2.222   7.948  5.2581 -1.2735  5.8599
  520MOL0     H70169   6.082   2.143   7.836  1.8839 -0.2401  0.0071
  520MOL0     H70170   6.148   2.372   8.018 -3.7483 -0.5739 -0.3739
  520MOL0     H70171   6.254   2.297   7.907 -0.2288  0.2411  0.7587
  520MOL0     H70172   6.315   2.193   8.088 -0.3580  0.2090 -0.3329
  520MOL0     H70173   6.213   2.067   8.027 -0.7346  1.0000 -1.7265
  520MOL0     H70174   6.192   2.100   8.265 -1.6436 -1.2829  0.1000
  520MOL0     H70175   6.123   2.268   8.209  2.2418  1.0548  0.1279
  520MOL0     H70176   6.002   1.985   8.161 -0.4621  0.0827 -0.9062
  520MOL0     H70177   5.925   2.139   8.130 -1.0429  0.0405  0.7060
  520MOL0     H70178   5.970   2.005   8.395 -1.9799 -2.3713 -2.4996
  520MOL0     H70179   5.961   2.195   8.381 -1.8989 -1.0602  3.2783
  520MOL0     H70180   5.903   2.581   7.399  2.2575 -0.3017 -0.4686
  520MOL0     H70181   5.695   2.611   7.258  2.7307  0.5343 -0.3825
  520MOL0     H70182   5.194   2.230   7.142 -4.7872  0.0116  1.4882
  520MOL0     H70183   5.032   2.274   6.979 -0.4383  2.3479 -2.5872
  520MOL0     H70184   3.750   3.137   6.929  0.0755 -1.5845  0.1276
  520MOL0     H70185   3.577   3.191   6.781 -1.6876  0.7330  0.4453
  520MOL0     H70186   2.947   3.273   6.937  0.5980 -0.9036 -0.0872
  520MOL0     H70187   2.763   3.392   6.831  0.4385  3.0946 -1.4699
  520MOL0     H70188   2.611   3.430   6.687 -0.3058  0.8766  0.9637
  520MOL0     H70189   2.563   3.548   6.564 -1.8542  0.1755  1.8187
  520MOL0     H70190   2.686   3.726   6.669  1.0119 -0.0633 -0.7019
  520MOL0     H70191   2.711   3.629   6.825  0.1552 -1.7198 -0.7961
  520MOL0     H70192   2.470   3.594   6.833 -0.8030 -1.7343 -2.9034
  520MOL0     H70193   2.426   3.668   6.686  1.0414  0.8558 -0.3027
  520MOL0     H70194   2.444   3.769   6.957 -1.3905 -2.5043 -0.9670
  520MOL0     H70195   2.554   3.871   6.861  0.5559 -0.4055  0.0136
  520MOL0     H70196   2.142   3.941   6.727 -0.1950 -1.6091 -0.0181
  520MOL0     H70197   3.013   3.497   6.503 -1.6157  0.1164 -0.1566
  520MOL0     H70198   3.295   3.432   6.644  0.2595 -1.5452  1.8603
  520MOL0     H70199   3.283   3.267   6.585 -0.4094 -0.4955 -1.4790
  520MOL0     H70200   3.218   3.383   6.478  2.8464 -2.4066 -1.4819
  521MOL0     O70201   3.262   8.646   6.701 -0.0497 -0.7458 -0.2560
  521MOL0     C70202   3.245   8.525   6.676  0.4512 -0.5917 -0.3756
  521MOL0     O70203   3.318   8.426   6.720 -0.5901 -0.0374  0.5517
  521MOL0     C70204   3.452   8.464   6.748  0.0503  0.0156 -0.6553
  521MOL0     C70205   3.499   8.526   6.869  0.0488  0.6101  0.5091
  521MOL0     C70206   3.631   8.555   6.888 -0.4256 -0.7256  0.3747
  521MOL0     C70207   3.722   8.516   6.794 -0.8026 -0.3078  0.0464
  521MOL0     O70208   3.857   8.550   6.815 -0.0082 -0.2142 -1.1340
  521MOL0     C70209   3.954   8.449   6.803 -0.2441  1.1418 -0.2674
  521MOL0     C70210   4.086   8.505   6.857 -0.2367 -0.1161  0.3095
  521MOL0     C70211   4.205   8.412   6.835  0.2072  0.7268 -0.2341
  521MOL0     C70212   4.344   8.467   6.888  0.7849  0.6996  0.0202
  521MOL0     C70213   4.445   8.348   6.876 -0.6546 -0.3814  0.6189
  521MOL0     C70214   4.576   8.383   6.954 -0.4970 -0.8225 -0.2561
  521MOL0     C70215   4.695   8.295   6.925  0.8854  0.2032 -0.3778
  521MOL0     C70216   4.813   8.337   6.994 -0.0252  0.0359 -0.1363
  521MOL0     N70217   4.880   8.223   7.057  0.6183 -1.0263  0.3283
  521MOL0     C70218   4.872   8.190   7.192 -0.7693 -0.2226  0.1040
  521MOL0     C70219   4.968   8.099   7.207 -0.9693  0.3835  0.8404
  521MOL0     C70220   5.013   8.023   7.328  0.0407 -0.3959  0.5146
  521MOL0     C70221   4.991   7.876   7.317  0.2202  0.2729 -0.1067
  521MOL0     C70222   5.049   7.789   7.426  0.6724 -0.4329 -1.3195
  521MOL0     C70223   5.191   7.789   7.449  0.6727 -0.5935 -0.4758
  521MOL0     O70224   5.237   7.915   7.503 -0.4544 -0.0024 -0.7616
  521MOL0     C70225   5.370   7.919   7.536  0.5268  0.8211 -0.3978
  521MOL0     C70226   5.441   8.029   7.491 -0.5926  0.1656 -0.2011
  521MOL0     C70227   5.576   8.043   7.534 -0.3656 -0.0781  0.0015
  521MOL0     C70228   5.635   7.964   7.635  0.1802  1.1511  0.2653
  521MOL0     C70229   5.761   8.011   7.700  0.0018  0.3037  0.6854
  521MOL0     O70230   5.812   7.951   7.811  0.3341 -0.4805 -0.4636
  521MOL0     C70231   5.918   7.994   7.882  0.3306  0.2408 -0.2085
  521MOL0     C70232   5.919   7.935   8.005  0.3072  0.4054 -0.7546
  521MOL0     C70233   6.011   7.986   8.096 -1.1204 -0.6777  0.8079
  521MOL0     C70234   6.120   8.076   8.067  0.8380 -0.5078 -0.2283
  521MOL0     O70235   6.220   8.116   8.150 -0.2432  0.3772  0.1897
  521MOL0     C70236   6.251   8.026   8.256  0.3557 -0.6174  0.5718
  521MOL0     C70237   6.390   8.065   8.294 -0.6197 -0.0805 -0.1632
  521MOL0     C70238   6.426   7.996   8.419 -0.0314  0.8304  0.1564
  521MOL0     C70239   6.571   7.961   8.427 -0.7152  0.1408  0.7038
  521MOL0     C70240   6.600   7.889   8.552 -0.1951 -0.2471 -0.4688
  521MOL0     C70241   6.749   7.858   8.566 -0.8491 -0.0145  0.3667
  521MOL0     C70242   6.785   7.792   8.694  0.2296  0.2831  0.0146
  521MOL0     C70243   6.741   7.655   8.702  0.2936 -0.1682 -0.5973
  521MOL0    Cl70244   6.782   7.614   8.878  0.0453 -0.4128  0.2888
  521MOL0     C70245   6.121   8.117   7.934  0.7213  0.2634  1.0270
  521MOL0     C70246   6.018   8.081   7.845 -0.1267  0.3880  0.2558
  521MOL0     O70247   5.816   8.104   7.639 -0.1117 -0.4443 -0.1864
  521MOL0     C70248   5.549   7.868   7.685 -0.9867  0.3116 -0.0386
  521MOL0     C70249   5.427   7.836   7.632 -0.3166 -0.1294  0.1666
  521MOL0     N70250   5.042   8.101   7.093  0.6562  0.6353 -0.5092
  521MOL0     N70251   4.987   8.165   6.997  0.1233 -0.4991 -0.4727
  521MOL0     C70252   3.674   8.460   6.668 -0.1976  0.1855  0.4154
  521MOL0     C70253   3.542   8.418   6.654 -0.1533 -0.2872 -0.1070
  521MOL0     C70254   3.123   8.503   6.597 -0.0804  0.3037  0.3541
  521MOL0     C70255   3.061   8.380   6.598 -0.2124  0.3398 -0.8061
  521MOL0     C70256   2.936   8.354   6.535  0.2777  0.5917 -1.4175
  521MOL0     C70257   2.889   8.443   6.454 -0.0419  0.3069  0.0926
  521MOL0     O70258   2.775   8.421   6.394  0.2746  0.0846 -0.4596
  521MOL0     C70259   2.662   8.504   6.439  0.6935 -0.2903 -0.4243
  521MOL0     C70260   2.534   8.458   6.382 -0.1063  0.5250 -0.4398
  521MOL0     C70261   2.495   8.322   6.443  0.0845  0.5846  0.7590
  521MOL0     C70262   2.373   8.281   6.369  0.1077  0.1782  0.6391
  521MOL0     C70263   2.249   8.289   6.448  0.0444 -0.2282 -0.0510
  521MOL0     C70264   2.152   8.287   6.532 -0.0321  0.4320 -0.4571
  521MOL0     C70265   2.952   8.565   6.440 -0.0523 -0.0206 -0.4776
  521MOL0     C70266   3.072   8.593   6.502  0.0958 -0.1818 -0.1234
  521MOL0     C70267   3.139   8.734   6.485  0.1906  0.0695 -0.1186
  521MOL0     H70268   3.442   8.557   6.956  2.0098 -0.0704  2.1112
  521MOL0     H70269   3.675   8.613   6.969  1.7247  0.9622 -1.8604
  521MOL0     H70270   3.910   8.368   6.862 -2.8071  0.4331 -2.8890
  521MOL0     H70271   3.973   8.410   6.702  0.8721  0.8577  0.0426
  521MOL0     H70272   4.076   8.508   6.966  0.9281 -2.7398  0.5431
  521MOL0     H70273   4.098   8.606   6.817 -2.4507 -0.4451 -1.3508
  521MOL0     H70274   4.201   8.414   6.726 -0.3964 -2.7696 -0.3881
  521MOL0     H70275   4.183   8.315   6.880  0.8308  0.9299  0.5282
  521MOL0     H70276   4.385   8.548   6.826 -0.6875  1.8227  0.4640
  521MOL0     H70277   4.335   8.502   6.991  0.0144  0.5609  0.0091
  521MOL0     H70278   4.393   8.262   6.917 -2.0217  0.4448  0.7025
  521MOL0     H70279   4.480   8.327   6.774  1.8253  0.1456  1.3113
  521MOL0     H70280   4.597   8.488   6.934 -0.9850 -0.4914  0.8426
  521MOL0     H70281   4.545   8.372   7.059 -0.5798 -0.3976 -0.2362
  521MOL0     H70282   4.724   8.301   6.820 -1.5980  0.4436 -1.1170
  521MOL0     H70283   4.657   8.194   6.947  0.9186  0.2191 -0.2449
  521MOL0     H70284   4.889   8.387   6.933  2.5694  0.0628  2.8792
  521MOL0     H70285   4.790   8.418   7.063 -3.0273  0.7166 -1.7619
  521MOL0     H70286   4.805   8.214   7.274  3.0348 -2.5728  4.2978
  521MOL0     H70287   5.120   8.043   7.336  0.1018 -0.9222  1.0556
  521MOL0     H70288   4.960   8.060   7.417  0.3917  3.8275 -0.8046
  521MOL0     H70289   4.883   7.856   7.307 -0.3924  2.6007  1.0998
  521MOL0     H70290   5.042   7.832   7.231  3.5445  0.7787  1.4466
  521MOL0     H70291   5.005   7.689   7.416 -3.3732  1.2033 -2.1095
  521MOL0     H70292   5.003   7.828   7.517 -0.9019 -0.0508 -2.2333
  521MOL0     H70293   5.253   7.764   7.362  3.7911  2.3221  0.6827
  521MOL0     H70294   5.217   7.712   7.522  3.0583 -0.0292 -0.6234
  521MOL0     H70295   5.415   8.111   7.425  2.2236  1.2746 -0.0721
  521MOL0     H70296   5.630   8.126   7.489 -2.3262  0.2602 -1.8649
  521MOL0     H70297   5.859   7.848   8.029 -1.8391  1.7415 -0.9802
  521MOL0     H70298   6.016   7.929   8.188 -1.4145 -1.1620  0.5310
  521MOL0     H70299   6.186   8.038   8.343  0.0874  1.1424  0.1705
  521MOL0     H70300   6.257   7.924   8.217 -0.4935  0.8789 -4.1135
  521MOL0     H70301   6.462   8.023   8.223 -1.5381 -2.1209  0.0499
  521MOL0     H70302   6.405   8.173   8.309  0.1343 -0.4201  1.7784
  521MOL0     H70303   6.389   8.051   8.507 -3.3742 -2.0303  0.7627
  521MOL0     H70304   6.371   7.902   8.427 -2.1713  1.9145 -0.9084
  521MOL0     H70305   6.627   8.055   8.420 -0.4568  0.0163  1.0413
  521MOL0     H70306   6.601   7.900   8.342 -1.2582 -0.8403  1.1974
  521MOL0     H70307   6.546   7.794   8.550 -3.2383  1.3128  0.6225
  521MOL0     H70308   6.562   7.951   8.634 -0.2278  0.2810 -0.8760
  521MOL0     H70309   6.785   7.796   8.484  0.7533 -0.7834  1.5905
  521MOL0     H70310   6.807   7.951   8.566 -0.5579 -0.1730 -1.3873
  521MOL0     H70311   6.753   7.849   8.782  0.9257  2.6315 -1.1651
  521MOL0     H70312   6.892   7.788   8.717  0.4083  3.2090  0.1135
  521MOL0     H70313   6.633   7.650   8.684 -0.0435 -0.5399  1.3315
  521MOL0     H70314   6.784   7.577   8.638 -3.2042 -1.2236 -1.8857
  521MOL0     H70315   6.195   8.189   7.900 -2.4499  3.1194 -0.3194
  521MOL0     H70316   6.028   8.130   7.749  1.8508 -1.0775 -0.3496
  521MOL0     H70317   5.590   7.816   7.770 -1.0758 -1.4138 -1.0129
  521MOL0     H70318   5.367   7.760   7.682 -0.6585  1.1481  1.8200
  521MOL0     H70319   3.734   8.427   6.584 -0.2953 -0.5411  0.6235
  521MOL0     H70320   3.495   8.367   6.570 -2.0107  1.0908  0.0268
  521MOL0     H70321   3.110   8.304   6.658 -0.2693 -0.0377 -1.2342
  521MOL0     H70322   2.893   8.254   6.538  2.6555 -0.4824  0.0141
  521MOL0     H70323   2.686   8.605   6.407  4.0012 -0.0167  2.3825
  521MOL0     H70324   2.644   8.504   6.547 -2.3751  2.5317 -0.7631
  521MOL0     H70325   2.538   8.453   6.273  0.1435  0.6490 -0.4351
  521MOL0     H70326   2.453   8.525   6.414  0.3587  0.6555  0.5074
  521MOL0     H70327   2.480   8.338   6.550 -0.7951  0.2572  0.6972
  521MOL0     H70328   2.571   8.245   6.427 -1.4377 -1.3929  2.3978
  521MOL0     H70329   2.362   8.330   6.272 -0.8775 -2.5095 -0.7242
  521MOL0     H70330   2.382   8.173   6.350  2.2238  0.5208 -0.6061
  521MOL0     H70331   2.077   8.253   6.601  1.4972 -0.5040  0.8344
  521MOL0     H70332   2.907   8.638   6.374 -3.3831 -0.8951  0.6366
  521MOL0     H70333   3.244   8.720   6.460 -0.4005 -2.6120 -1.5065
  521MOL0     H70334   3.099   8.790   6.400 -0.5057 -0.6786 -0.2986
  521MOL0     H70335   3.120   8.801   6.569 -2.1242 -0.5053 -0.0970
  522MOL0     O70336   6.625   6.770  11.164 -0.3046 -0.3854 -0.0482
  522MOL0     C70337   6.531   6.697  11.125 -0.0471 -0.5705  0.0004
  522MOL0     O70338   6.544   6.572  11.064  0.3467  0.5106 -0.2646
  522MOL0     C70339   6.663   6.527  11.032  1.4430  0.0601 -0.1651
  522MOL0     C70340   6.698   6.513  10.898 -0.3250  0.9793 -0.3897
  522MOL0     C70341   6.827   6.472  10.862  0.8308 -0.1706  0.4054
  522MOL0     C70342   6.924   6.448  10.957  0.0216 -0.3658 -0.5126
  522MOL0     O70343   7.056   6.426  10.943  0.6958  0.2333  0.3327
  522MOL0     C70344   7.097   6.383  10.811 -1.6679  0.2807  0.2051
  522MOL0     C70345   7.060   6.241  10.787 -0.6079  0.4099 -0.1319
  522MOL0     C70346   7.129   6.193  10.660  0.2735  0.6064 -0.7790
  522MOL0     C70347   7.065   6.056  10.596 -0.2353 -0.4532 -0.0804
  522MOL0     C70348   6.931   6.088  10.533 -0.7015  0.4302 -0.1191
  522MOL0     C70349   6.889   5.961  10.446 -0.5639 -0.2277  0.1617
  522MOL0     C70350   6.858   5.840  10.545  0.4130  0.1739  0.2597
  522MOL0     C70351   6.845   5.720  10.455  0.9026  0.1277 -0.5349
  522MOL0     N70352   6.969   5.663  10.416 -0.5880  0.9741 -0.5423
  522MOL0     C70353   7.073   5.633  10.506  0.4154  0.4709  0.0630
  522MOL0     C70354   7.187   5.603  10.427 -0.0672  0.1075 -0.6893
  522MOL0     C70355   7.316   5.547  10.469 -0.9464  0.3156  0.4925
  522MOL0     C70356   7.399   5.495  10.356 -0.3753  0.6193 -0.5474
  522MOL0     C70357   7.532   5.444  10.418 -0.0083  0.9050  0.4135
  522MOL0     C70358   7.620   5.376  10.317  0.2094  0.2817  0.7539
  522MOL0     O70359   7.564   5.241  10.299 -0.3528  0.4908  0.2696
  522MOL0     C70360   7.656   5.137  10.293  0.3852  0.0122 -0.6035
  522MOL0     C70361   7.608   5.013  10.256  0.4905 -0.0613  0.5185
  522MOL0     C70362   7.688   4.898  10.238 -0.6303 -0.5880  0.3544
  522MOL0     C70363   7.823   4.914  10.260  0.1126  1.4078 -0.0440
  522MOL0     C70364   7.905   4.792  10.267  0.1729 -0.3215  0.5139
  522MOL0     O70365   8.025   4.814  10.320  0.6303  0.1556 -0.6743
  522MOL0     C70366   8.115   4.708  10.306 -0.4834 -0.6966 -0.5451
  522MOL0     C70367   8.087   4.580  10.353  0.8268 -1.1567  0.0749
  522MOL0     C70368   8.169   4.480  10.311 -0.5055  0.6348 -0.7539
  522MOL0     C70369   8.287   4.507  10.237 -0.1200  0.0492  0.6014
  522MOL0     O70370   8.375   4.412  10.198  0.2682  0.3902 -0.3149
  522MOL0     C70371   8.333   4.282  10.158  1.0276  0.6087 -0.1991
  522MOL0     C70372   8.440   4.204  10.068  0.1549 -0.5444 -0.5934
  522MOL0     C70373   8.404   4.058  10.045  0.1323  1.6346  1.1133
  522MOL0     C70374   8.521   3.995   9.955 -0.6877 -0.8250  0.0405
  522MOL0     C70375   8.667   4.002  10.010  0.1145  0.2010  1.3162
  522MOL0     C70376   8.749   3.893   9.939  0.2844 -0.3360 -0.4582
  522MOL0     C70377   8.903   3.884   9.962  0.0177  0.4548 -0.0714
  522MOL0     C70378   8.965   3.766   9.896  0.9749 -0.7495 -0.3413
  522MOL0    Cl70379   8.961   3.798   9.721 -0.3996  0.0905  0.1853
  522MOL0     C70380   8.319   4.635  10.203  0.6442  0.1798  0.1933
  522MOL0     C70381   8.230   4.737  10.231  0.1490 -0.4212 -0.4928
  522MOL0     O70382   7.865   4.683  10.218  0.1211 -0.2152  0.5805
  522MOL0     C70383   7.875   5.039  10.299 -0.6132  0.4569  0.7810
  522MOL0     C70384   7.795   5.148  10.322  0.1636 -0.0511 -0.1166
  522MOL0     N70385   7.140   5.620  10.293  0.3416 -0.3654 -0.0761
  522MOL0     N70386   7.013   5.645  10.291 -0.5424 -0.1278  0.4061
  522MOL0     C70387   6.883   6.459  11.093 -0.0284 -0.5762 -0.1707
  522MOL0     C70388   6.753   6.493  11.135 -0.0326  0.1350 -0.3302
  522MOL0     C70389   6.389   6.748  11.151  0.3678 -0.3908 -0.0721
  522MOL0     C70390   6.369   6.851  11.249 -0.1061 -0.1417 -0.2032
  522MOL0     C70391   6.241   6.917  11.257 -0.8798 -0.2927  0.6529
  522MOL0     C70392   6.130   6.870  11.191 -0.7273  1.1405 -0.2768
  522MOL0     O70393   6.015   6.941  11.196  0.1182 -0.4897 -0.9349
  522MOL0     C70394   5.908   6.851  11.209  0.2382 -0.3649 -0.3060
  522MOL0     C70395   5.773   6.927  11.198 -0.2883  0.3106  0.5997
  522MOL0     C70396   5.741   7.013  11.310 -0.9006 -0.3113 -0.4813
  522MOL0     C70397   5.625   7.102  11.273 -0.3567 -0.1359 -0.6046
  522MOL0     C70398   5.501   7.032  11.288  1.1927  0.2302  0.0952
  522MOL0     C70399   5.402   6.963  11.301  0.6074  0.7183 -0.1136
  522MOL0     C70400   6.150   6.774  11.093  0.5358 -0.1543 -1.1973
  522MOL0     C70401   6.271   6.705  11.079  0.6680 -0.0533 -0.3441
  522MOL0     C70402   6.285   6.571  11.005  0.5409 -1.2339  0.2755
  522MOL0     H70403   6.624   6.549  10.827 -2.4598  0.6551  1.5713
  522MOL0     H70404   6.845   6.482  10.756 -2.0806  0.8529 -0.0764
  522MOL0     H70405   7.058   6.452  10.736  0.7166  0.3294 -1.0769
  522MOL0     H70406   7.206   6.392  10.806 -1.4374 -2.1275 -2.1894
  522MOL0     H70407   6.951   6.237  10.775 -0.8912  2.4283  1.4109
  522MOL0     H70408   7.090   6.173  10.867 -1.4598 -1.3311 -1.2177
  522MOL0     H70409   7.235   6.172  10.677  0.1178  1.1623  1.0306
  522MOL0     H70410   7.125   6.267  10.580  0.4135  0.0057 -1.3507
  522MOL0     H70411   7.139   6.019  10.524  2.4527  0.0691  2.2563
  522MOL0     H70412   7.068   5.973  10.667  0.1782 -2.0101 -1.8185
  522MOL0     H70413   6.861   6.123  10.609  1.1813  2.2058  0.8981
  522MOL0     H70414   6.949   6.172  10.465 -1.6283 -0.8451 -2.0410
  522MOL0     H70415   6.803   5.990  10.385  0.2330 -3.6026 -2.9247
  522MOL0     H70416   6.967   5.923  10.379  0.2918  1.2665  0.2611
  522MOL0     H70417   6.759   5.855  10.589 -1.2609  0.5395 -3.2555
  522MOL0     H70418   6.933   5.818  10.621  1.4467  1.2305 -0.4177
  522MOL0     H70419   6.780   5.652  10.510 -3.4957  1.1898 -3.7972
  522MOL0     H70420   6.791   5.746  10.363  1.3855  1.2250 -0.5196
  522MOL0     H70421   7.071   5.637  10.614 -0.3709  0.0541  0.0695
  522MOL0     H70422   7.372   5.631  10.512  0.0507  0.3788 -0.8584
  522MOL0     H70423   7.306   5.473  10.550 -0.8732 -0.9962 -0.6566
  522MOL0     H70424   7.355   5.406  10.311  2.3824 -1.2484  0.1533
  522MOL0     H70425   7.429   5.565  10.278 -0.0858  2.3977  1.0768
  522MOL0     H70426   7.514   5.387  10.510 -3.1078 -0.3842 -0.8693
  522MOL0     H70427   7.587   5.533  10.449  0.2815  1.0453 -0.4803
  522MOL0     H70428   7.724   5.385  10.348  1.7440  1.4775 -3.9833
  522MOL0     H70429   7.619   5.431  10.223 -0.0271 -1.0634 -0.0660
  522MOL0     H70430   7.500   5.005  10.248  0.7684 -5.3476 -3.2586
  522MOL0     H70431   7.642   4.805  10.207 -0.8926 -1.1815  2.3864
  522MOL0     H70432   7.996   4.561  10.410  0.6820  0.5754  0.4685
  522MOL0     H70433   8.155   4.376  10.339  2.5299  1.2571  4.3329
  522MOL0     H70434   8.290   4.217  10.235 -0.0632  1.2869 -0.2032
  522MOL0     H70435   8.249   4.292  10.088  1.0042  0.8032 -0.1441
  522MOL0     H70436   8.450   4.249   9.969  3.6577 -1.8241 -0.9654
  522MOL0     H70437   8.532   4.205  10.126 -2.1102  0.1051  3.3552
  522MOL0     H70438   8.393   4.002  10.138 -0.7794  0.2127  0.1835
  522MOL0     H70439   8.311   4.039   9.992  1.5802 -0.9595 -0.7413
  522MOL0     H70440   8.513   4.041   9.856  2.3344  2.4865  1.1289
  522MOL0     H70441   8.503   3.888   9.945 -2.3737 -0.7974  1.9625
  522MOL0     H70442   8.650   3.986  10.117 -2.6108  2.5623  1.3530
  522MOL0     H70443   8.726   4.093   9.999 -0.7776  0.4611 -3.1048
  522MOL0     H70444   8.716   3.797   9.980 -0.9448 -0.2789 -1.2561
  522MOL0     H70445   8.718   3.901   9.835 -1.2625  0.4738  0.0373
  522MOL0     H70446   8.920   3.867  10.069  0.9599 -1.8194 -0.5224
  522MOL0     H70447   8.968   3.963   9.925 -0.3922  0.8163 -0.0287
  522MOL0     H70448   9.065   3.745   9.936  1.4171  0.5692 -0.7213
  522MOL0     H70449   8.902   3.683   9.931  1.9939 -0.5669  2.1226
  522MOL0     H70450   8.403   4.649  10.136 -3.0995  1.5934 -4.7763
  522MOL0     H70451   8.254   4.837  10.195 -2.0683  1.3037  2.3263
  522MOL0     H70452   7.980   5.055  10.321 -0.3013  1.8148 -1.4346
  522MOL0     H70453   7.844   5.242  10.345 -0.6237 -0.2625  2.9046
  522MOL0     H70454   6.960   6.435  11.166 -1.5110 -1.3356  1.2179
  522MOL0     H70455   6.726   6.511  11.239  2.7022 -4.1548  1.4003
  522MOL0     H70456   6.452   6.890  11.306  1.2695 -0.5431 -1.8456
  522MOL0     H70457   6.236   7.000  11.327  1.8040 -1.8212  2.8497
  522MOL0     H70458   5.903   6.783  11.294  1.4019 -2.3321 -1.7378
  522MOL0     H70459   5.896   6.791  11.118 -0.6411  0.7682 -0.9612
  522MOL0     H70460   5.700   6.846  11.201 -0.3636  0.2212 -1.7269
  522MOL0     H70461   5.768   6.973  11.098 -0.5507 -2.9041 -0.9874
  522MOL0     H70462   5.829   7.077  11.326 -0.0763 -1.5496  0.1155
  522MOL0     H70463   5.720   6.955  11.401 -1.7751  0.5731 -0.1047
  522MOL0     H70464   5.613   7.183  11.346  2.0852 -0.2097 -0.0378
  522MOL0     H70465   5.636   7.146  11.174 -4.2064 -2.0504 -2.1063
  522MOL0     H70466   5.322   6.892  11.306  0.7035  0.6026 -0.2330
  522MOL0     H70467   6.065   6.745  11.031  1.3427 -1.2917 -1.8359
  522MOL0     H70468   6.305   6.488  11.074 -0.9046 -0.9624  1.0692
  522MOL0     H70469   6.186   6.547  10.965  0.1962  2.2161 -1.2694
  522MOL0     H70470   6.349   6.584  10.918 -0.9471  3.2815 -0.4281
  523MOL0     O70471  11.033   3.082   1.701 -1.1340  0.0437  0.1328
  523MOL0     C70472  10.987   3.061   1.589  0.4894 -0.1292  0.4049
  523MOL0     O70473  11.055   3.012   1.487  0.2349  0.1331  0.2407
  523MOL0     C70474  11.186   2.973   1.491  0.7367 -0.0009 -0.7490
  523MOL0     C70475  11.238   2.859   1.554  1.3245 -0.3129  0.4785
  523MOL0     C70476  11.374   2.831   1.547  0.5362 -0.6683 -0.4844
  523MOL0     C70477  11.463   2.912   1.475 -0.6325  0.1856 -0.1427
  523MOL0     O70478  11.591   2.871   1.472 -0.5987 -0.3036 -0.4862
  523MOL0     C70479  11.680   2.982   1.500  0.4473  0.5094  0.1178
  523MOL0     C70480  11.819   2.923   1.536  0.2112  0.3042  0.2292
  523MOL0     C70481  11.911   3.009   1.627 -0.0937 -0.2487  0.5636
  523MOL0     C70482  11.992   3.117   1.556  1.4460 -0.2761 -0.0284
  523MOL0     C70483  12.142   3.084   1.546 -1.3646 -0.5786 -0.0539
  523MOL0     C70484  12.215   3.108   1.678 -0.0190 -0.1163 -0.0561
  523MOL0     C70485  12.357   3.080   1.660  0.4099 -0.9481 -0.4313
  523MOL0     C70486  12.395   2.937   1.645  0.4388  0.2376  1.3644
  523MOL0     N70487  12.534   2.935   1.587  0.2175  0.6044 -0.2645
  523MOL0     C70488  12.650   3.001   1.629 -0.2149 -0.1505  0.5648
  523MOL0     C70489  12.734   2.980   1.522 -1.1070  0.7255 -0.1229
  523MOL0     C70490  12.880   3.023   1.513 -0.0663 -0.3697  0.4540
  523MOL0     C70491  12.972   2.931   1.598 -0.7177 -0.6079  0.4571
  523MOL0     C70492  12.989   2.796   1.524 -0.2044 -0.3475  0.6487
  523MOL0     C70493  13.036   2.679   1.611  0.3307  0.1892  0.0187
  523MOL0     O70494  12.929   2.656   1.702  0.3630 -0.3457 -0.1055
  523MOL0     C70495  12.828   2.577   1.668  0.0312  0.2847 -0.1029
  523MOL0     C70496  12.854   2.446   1.619 -0.5689 -0.2191  0.5534
  523MOL0     C70497  12.748   2.348   1.598  0.2307 -0.2179  0.4071
  523MOL0     C70498  12.615   2.391   1.630  0.6120  0.6282  0.2285
  523MOL0     C70499  12.492   2.304   1.624  0.0637  0.6577  1.1918
  523MOL0     O70500  12.377   2.348   1.679  0.5839 -0.0719 -0.4470
  523MOL0     C70501  12.288   2.270   1.738 -1.1150  0.2798 -0.1504
  523MOL0     C70502  12.279   2.129   1.750  0.1983 -0.4633 -0.5487
  523MOL0     C70503  12.168   2.063   1.809 -0.1296 -1.0136 -0.1509
  523MOL0     C70504  12.066   2.142   1.865 -0.0381 -0.3251 -0.1411
  523MOL0     O70505  11.966   2.067   1.932  0.3590 -0.1783  0.3267
  523MOL0     C70506  11.996   2.062   2.072  0.1293 -0.2724  0.2269
  523MOL0     C70507  11.886   1.985   2.142 -0.0156  0.3438  0.1536
  523MOL0     C70508  11.748   2.058   2.151 -0.1198 -0.5411 -0.0051
  523MOL0     C70509  11.647   1.967   2.214 -0.0330 -0.9253  0.0397
  523MOL0     C70510  11.511   2.041   2.232  0.1274 -0.1952  0.4436
  523MOL0     C70511  11.424   1.984   2.340  0.3479 -0.1290 -0.3235
  523MOL0     C70512  11.456   2.030   2.478  0.2552 -0.3296  0.4161
  523MOL0     C70513  11.366   1.961   2.587 -1.6160 -0.1637  0.1008
  523MOL0    Cl70514  11.206   2.044   2.581 -0.3282  0.3576 -0.1525
  523MOL0     C70515  12.082   2.284   1.870 -0.1327  0.2005  0.6483
  523MOL0     C70516  12.190   2.347   1.808 -0.2193  1.1156 -0.4870
  523MOL0     O70517  12.492   2.201   1.560 -0.4919 -1.3340 -0.1263
  523MOL0     C70518  12.594   2.519   1.684 -0.1259 -0.2595  1.5509
  523MOL0     C70519  12.699   2.615   1.691  0.5724  0.2256  0.3923
  523MOL0     N70520  12.668   2.909   1.424 -0.3978 -0.1703 -0.9257
  523MOL0     N70521  12.546   2.888   1.464 -0.1513 -0.4204  0.7639
  523MOL0     C70522  11.407   3.016   1.396 -0.0045  0.0563 -0.9142
  523MOL0     C70523  11.269   3.041   1.406  0.4424 -0.3664  0.1842
  523MOL0     C70524  10.846   3.110   1.568 -0.3288  0.8445 -0.6818
  523MOL0     C70525  10.756   3.115   1.684 -0.5294 -0.5795  0.2576
  523MOL0     C70526  10.625   3.161   1.672  0.4924  0.2689  0.6479
  523MOL0     C70527  10.579   3.207   1.550 -0.7266  1.0662  0.0571
  523MOL0     O70528  10.452   3.254   1.530  0.2792  0.4128  0.0886
  523MOL0     C70529  10.351   3.215   1.622 -0.3476  0.0959 -0.1701
  523MOL0     C70530  10.209   3.263   1.569 -0.7128 -0.4079 -1.0309
  523MOL0     C70531  10.210   3.416   1.560 -0.1165 -0.5141  0.1604
  523MOL0     C70532  10.075   3.487   1.546  0.4083  0.5243  0.1445
  523MOL0     C70533  10.017   3.447   1.419 -0.5022  0.0785 -0.0229
  523MOL0     C70534   9.961   3.415   1.314  0.0761  0.8977 -0.1694
  523MOL0     C70535  10.660   3.202   1.442  0.3566 -0.5057  0.6505
  523MOL0     C70536  10.795   3.157   1.443  0.7928  0.4310  1.0112
  523MOL0     C70537  10.862   3.171   1.314 -0.4592  0.0252  0.8522
  523MOL0     H70538  11.177   2.792   1.614  5.1572 -3.0812  1.7018
  523MOL0     H70539  11.413   2.744   1.600 -0.6189 -1.6767 -1.2282
  523MOL0     H70540  11.679   3.043   1.409 -1.3068 -1.0906 -1.0140
  523MOL0     H70541  11.646   3.044   1.584  1.6515 -0.2595  1.2125
  523MOL0     H70542  11.875   2.893   1.447  0.3198  1.8502 -0.2497
  523MOL0     H70543  11.803   2.833   1.597  1.7979  1.3595  2.3843
  523MOL0     H70544  11.977   2.936   1.676 -2.7678 -2.8706  0.5286
  523MOL0     H70545  11.844   3.066   1.693 -0.7064  4.8881 -3.7889
  523MOL0     H70546  11.964   3.136   1.452  0.9763  0.1312  0.1683
  523MOL0     H70547  11.968   3.215   1.599  0.5998  0.0534 -1.1851
  523MOL0     H70548  12.161   2.988   1.497 -0.5507 -0.6594  0.4072
  523MOL0     H70549  12.168   3.171   1.486 -0.7197  0.5847  1.8246
  523MOL0     H70550  12.205   3.209   1.717  2.2892  0.7829 -1.6162
  523MOL0     H70551  12.171   3.044   1.756 -2.8599 -0.0481 -1.4647
  523MOL0     H70552  12.415   3.112   1.746 -1.5778 -1.9910  1.4025
  523MOL0     H70553  12.385   3.142   1.574 -0.7414  2.4093  1.4002
  523MOL0     H70554  12.397   2.882   1.739  0.8038  0.6235  1.5869
  523MOL0     H70555  12.321   2.895   1.577 -0.1155  0.3837  1.8708
  523MOL0     H70556  12.651   3.056   1.722 -0.8618 -2.2127  1.8656
  523MOL0     H70557  12.914   3.021   1.409  1.8987 -0.4169  1.0599
  523MOL0     H70558  12.885   3.121   1.562 -3.0204 -1.7768  4.0326
  523MOL0     H70559  13.072   2.975   1.595  0.3645 -2.8765 -2.6346
  523MOL0     H70560  12.953   2.922   1.706  0.8205  2.3689  1.0986
  523MOL0     H70561  13.062   2.820   1.446 -0.2702  3.3203  1.5572
  523MOL0     H70562  12.896   2.767   1.472  0.4709  0.5743 -1.1768
  523MOL0     H70563  13.130   2.713   1.657  0.3635  1.7792 -1.1256
  523MOL0     H70564  13.052   2.592   1.546  1.3970 -2.0984  3.1221
  523MOL0     H70565  12.955   2.413   1.595 -0.9667 -2.5806  1.8544
  523MOL0     H70566  12.763   2.253   1.547 -1.9784  0.5415 -1.8904
  523MOL0     H70567  12.355   2.068   1.701  1.5925 -0.4871  1.5015
  523MOL0     H70568  12.139   1.959   1.821 -0.6670 -0.8778 -0.2389
  523MOL0     H70569  12.089   2.008   2.087  1.6384  2.0044 -0.4995
  523MOL0     H70570  12.007   2.162   2.113 -0.0213  0.4892 -1.5248
  523MOL0     H70571  11.865   1.887   2.098 -3.0118  0.9129  0.1262
  523MOL0     H70572  11.922   1.961   2.242  0.5098 -1.0496 -0.3447
  523MOL0     H70573  11.771   2.153   2.200 -1.6178  1.0160 -2.1570
  523MOL0     H70574  11.711   2.080   2.050  1.5357 -0.0710 -0.5482
  523MOL0     H70575  11.669   1.919   2.310 -3.3586 -4.4437 -0.6617
  523MOL0     H70576  11.624   1.883   2.147 -1.8630 -0.2068 -0.2961
  523MOL0     H70577  11.456   2.030   2.138 -1.9453  0.8142  1.4796
  523MOL0     H70578  11.525   2.149   2.244 -2.6590  0.8350 -3.4487
  523MOL0     H70579  11.320   2.016   2.330 -0.5066 -1.1500  3.3706
  523MOL0     H70580  11.433   1.875   2.348  0.3935 -0.0546  0.9950
  523MOL0     H70581  11.461   2.139   2.488 -4.6590 -0.0305  2.1092
  523MOL0     H70582  11.557   1.993   2.502 -1.0060 -1.8584  4.1350
  523MOL0     H70583  11.357   1.854   2.565  0.5616 -0.2242 -0.7103
  523MOL0     H70584  11.410   1.960   2.687  1.0887 -0.3423 -1.0104
  523MOL0     H70585  12.017   2.342   1.936  1.2013  0.5127  1.7359
  523MOL0     H70586  12.201   2.452   1.833  1.0629  0.4858  1.9283
  523MOL0     H70587  12.501   2.563   1.718 -0.7996  0.7601 -1.3108
  523MOL0     H70588  12.673   2.716   1.721 -2.0713 -0.6527  1.3486
  523MOL0     H70589  11.473   3.078   1.336 -0.1371  0.0658 -1.0498
  523MOL0     H70590  11.228   3.123   1.348  3.1537  0.4201 -0.7578
  523MOL0     H70591  10.798   3.078   1.777 -2.4506 -0.3098  1.2802
  523MOL0     H70592  10.558   3.161   1.756 -1.1987 -0.6768 -0.6419
  523MOL0     H70593  10.374   3.252   1.723 -2.5368 -0.4185  0.5673
  523MOL0     H70594  10.346   3.106   1.637  2.0674 -0.3810 -2.1464
  523MOL0     H70595  10.126   3.224   1.628 -2.1197  2.9046 -0.5797
  523MOL0     H70596  10.193   3.224   1.468 -0.4709 -3.6464  0.0678
  523MOL0     H70597  10.279   3.445   1.480 -0.5681 -0.4867 -0.2193
  523MOL0     H70598  10.253   3.457   1.652  0.0937 -0.4760  0.0480
  523MOL0     H70599  10.009   3.457   1.628  0.9705 -1.4830 -0.0821
  523MOL0     H70600  10.091   3.595   1.555  1.2737  0.2761  2.0906
  523MOL0     H70601   9.924   3.374   1.222  1.1206  1.0924 -0.6962
  523MOL0     H70602  10.608   3.235   1.353 -0.7207 -1.2788  0.9626
  523MOL0     H70603  10.878   3.272   1.275  0.3813 -0.7750 -1.0156
  523MOL0     H70604  10.962   3.129   1.326 -1.0081 -1.0829  1.6479
  523MOL0     H70605  10.813   3.110   1.237 -0.2690 -0.2319  0.9321
  524MOL0     O70606   8.011   2.580   7.198 -0.2120 -0.2638 -0.0232
  524MOL0     C70607   8.114   2.532   7.147  0.4501  0.5550 -0.0866
  524MOL0     O70608   8.116   2.462   7.035 -0.1371 -0.0399  0.3935
  524MOL0     C70609   8.023   2.479   6.935  0.4582  0.2148 -0.2894
  524MOL0     C70610   7.991   2.604   6.886  0.4111  0.3324 -0.2055
  524MOL0     C70611   7.906   2.600   6.772  0.2794 -0.3218  0.5143
  524MOL0     C70612   7.856   2.485   6.706 -0.1927 -0.3592  0.3836
  524MOL0     O70613   7.776   2.496   6.586 -0.1384 -0.3788 -0.2437
  524MOL0     C70614   7.699   2.374   6.558 -0.0897 -0.1647 -0.0809
  524MOL0     C70615   7.583   2.381   6.456 -0.2792 -1.0592  0.8658
  524MOL0     C70616   7.642   2.405   6.311  0.2737 -0.2717 -0.6930
  524MOL0     C70617   7.649   2.552   6.270 -0.8973 -0.3880  0.2270
  524MOL0     C70618   7.707   2.575   6.133 -0.1145  0.9164  0.3777
  524MOL0     C70619   7.859   2.561   6.134  0.1176 -0.5128 -1.4203
  524MOL0     C70620   7.914   2.580   5.984 -0.3128  0.0998 -0.9586
  524MOL0     C70621   8.052   2.659   5.990 -0.9216 -0.8382  0.3677
  524MOL0     N70622   8.090   2.715   5.855 -0.8483  0.3824 -0.0569
  524MOL0     C70623   8.124   2.648   5.740  0.7042  0.1466 -0.1486
  524MOL0     C70624   8.182   2.744   5.659 -0.4750 -0.9427 -0.1946
  524MOL0     C70625   8.233   2.711   5.525  0.5088 -0.5587  0.4440
  524MOL0     C70626   8.175   2.810   5.422 -0.3978  0.1111 -0.4444
  524MOL0     C70627   8.205   2.760   5.286  0.0005 -0.0580  0.2773
  524MOL0     C70628   8.161   2.851   5.171 -0.5556 -0.1514 -0.0205
  524MOL0     O70629   8.204   2.781   5.053 -0.3430  0.8059  0.2005
  524MOL0     C70630   8.167   2.837   4.932 -0.0544 -1.0642 -0.0870
  524MOL0     C70631   8.208   2.765   4.824 -1.6823 -0.7360  1.4392
  524MOL0     C70632   8.200   2.815   4.688 -0.6108  0.5026 -0.3967
  524MOL0     C70633   8.117   2.926   4.662 -0.1842  0.1007  0.7226
  524MOL0     C70634   8.104   2.991   4.523 -0.8295  0.6325 -0.4773
  524MOL0     O70635   8.196   2.954   4.429 -0.3241  0.2057  0.2349
  524MOL0     C70636   8.211   3.038   4.324  0.8046  1.1634  0.0768
  524MOL0     C70637   8.208   2.990   4.188 -0.0313 -0.4676 -0.8500
  524MOL0     C70638   8.228   3.064   4.075 -0.1355 -1.3307 -0.7072
  524MOL0     C70639   8.246   3.204   4.100 -0.1247  0.9361 -0.5174
  524MOL0     O70640   8.247   3.299   3.993  0.6849 -0.0057 -0.0581
  524MOL0     C70641   8.265   3.266   3.854  0.2233 -0.6140  0.1632
  524MOL0     C70642   8.404   3.214   3.822  0.3778  0.0718  0.1211
  524MOL0     C70643   8.507   3.334   3.838  1.0489 -0.3539 -0.0991
  524MOL0     C70644   8.557   3.340   3.979  0.1701  0.1264  0.1745
  524MOL0     C70645   8.695   3.412   3.975  0.0954 -0.0502 -0.9309
  524MOL0     C70646   8.762   3.426   4.113  0.2644  0.3243 -0.2218
  524MOL0     C70647   8.685   3.496   4.215 -0.4549 -0.2828 -0.3627
  524MOL0     C70648   8.776   3.502   4.346  0.3919 -0.5268  0.3370
  524MOL0    Cl70649   8.799   3.344   4.426 -0.0194 -0.1105  0.0421
  524MOL0     C70650   8.259   3.254   4.234  0.2673 -0.2839  0.3594
  524MOL0     C70651   8.242   3.166   4.343  0.0735 -0.6834  0.9829
  524MOL0     O70652   8.007   3.062   4.508  0.0727 -0.0049 -0.8182
  524MOL0     C70653   8.067   2.998   4.774 -0.4169 -0.3215 -0.6787
  524MOL0     C70654   8.095   2.952   4.905  0.2047  0.2884 -0.4579
  524MOL0     N70655   8.177   2.867   5.728  0.0389  0.4436  0.2742
  524MOL0     N70656   8.118   2.847   5.837 -0.7758  0.8579  0.5137
  524MOL0     C70657   7.889   2.361   6.763  0.5346 -0.3075  0.7667
  524MOL0     C70658   7.966   2.362   6.875  1.4252  0.2255 -1.6174
  524MOL0     C70659   8.237   2.541   7.223  0.4021 -0.0762  0.9660
  524MOL0     C70660   8.228   2.532   7.364  0.5318  0.4174 -0.8427
  524MOL0     C70661   8.335   2.521   7.447  0.3978  0.9642  0.6480
  524MOL0     C70662   8.466   2.550   7.392  0.4904  0.2131 -0.5891
  524MOL0     O70663   8.567   2.531   7.481  0.1889 -0.2978 -0.1376
  524MOL0     C70664   8.701   2.529   7.430  0.9866 -0.7368 -0.2910
  524MOL0     C70665   8.789   2.492   7.544  0.6965 -0.7174  0.7503
  524MOL0     C70666   8.791   2.583   7.665  0.6898  0.2974 -0.4999
  524MOL0     C70667   8.921   2.577   7.740 -0.4997 -0.3420 -0.0108
  524MOL0     C70668   9.024   2.648   7.665  0.6200 -0.3218  0.0447
  524MOL0     C70669   9.113   2.715   7.623 -1.3488  0.1374 -0.5806
  524MOL0     C70670   8.475   2.565   7.250  0.9756 -0.5233  0.0878
  524MOL0     C70671   8.362   2.550   7.162 -0.5303  0.0304  0.2896
  524MOL0     C70672   8.396   2.542   7.018  0.2317 -0.3402 -0.3907
  524MOL0     H70673   8.036   2.693   6.930  2.6126  0.1082 -1.8422
  524MOL0     H70674   7.881   2.694   6.724  0.1481  0.0586  1.3013
  524MOL0     H70675   7.766   2.292   6.529 -1.5848 -0.7863 -2.0065
  524MOL0     H70676   7.643   2.351   6.648 -2.4269  1.2302 -1.0943
  524MOL0     H70677   7.514   2.464   6.477 -0.0160 -0.4270 -0.6074
  524MOL0     H70678   7.529   2.287   6.465 -0.7955 -1.0102 -1.2616
  524MOL0     H70679   7.566   2.364   6.244 -2.5607 -0.2263  2.2337
  524MOL0     H70680   7.740   2.360   6.296  1.2373  1.7519 -0.7339
  524MOL0     H70681   7.549   2.595   6.277 -0.6466  0.0196  1.9735
  524MOL0     H70682   7.709   2.609   6.342 -0.4622 -1.7005  0.9556
  524MOL0     H70683   7.665   2.506   6.059  2.4784  1.2905 -1.5579
  524MOL0     H70684   7.684   2.677   6.103 -0.2582  0.0445 -2.8797
  524MOL0     H70685   7.891   2.639   6.203 -2.4796  0.6681 -1.4202
  524MOL0     H70686   7.889   2.462   6.170 -0.4185 -0.6706 -1.3986
  524MOL0     H70687   7.844   2.627   5.914 -1.4907 -1.7853 -1.1074
  524MOL0     H70688   7.937   2.483   5.938  0.0665  1.2835 -3.4341
  524MOL0     H70689   8.057   2.734   6.070  0.6142 -1.5361  0.9610
  524MOL0     H70690   8.134   2.592   6.016  0.9604  1.6032  1.1220
  524MOL0     H70691   8.131   2.541   5.724  3.2772 -0.0158  1.4424
  524MOL0     H70692   8.342   2.707   5.528  0.4494 -1.9265  1.3800
  524MOL0     H70693   8.204   2.607   5.507  0.1352 -0.5068  0.7303
  524MOL0     H70694   8.065   2.811   5.420 -0.3927  0.5240 -1.7458
  524MOL0     H70695   8.216   2.909   5.444 -0.2130 -0.1837  0.5709
  524MOL0     H70696   8.157   2.662   5.279 -0.8724  0.4769 -2.3025
  524MOL0     H70697   8.313   2.743   5.279 -0.4100 -3.0806  0.2678
  524MOL0     H70698   8.227   2.938   5.161 -0.2232 -0.4344 -0.3318
  524MOL0     H70699   8.057   2.883   5.169 -0.5961 -0.2889 -1.5745
  524MOL0     H70700   8.272   2.678   4.837  2.5878  1.7979 -0.3491
  524MOL0     H70701   8.230   2.749   4.608 -1.1147 -1.0514  0.6366
  524MOL0     H70702   8.184   2.886   4.167  0.8362 -0.9992  0.6135
  524MOL0     H70703   8.220   3.029   3.973 -1.1589  1.2123 -1.5628
  524MOL0     H70704   8.191   3.195   3.815 -1.2609  1.5443 -1.1700
  524MOL0     H70705   8.248   3.354   3.793  1.8162 -0.0870  0.4302
  524MOL0     H70706   8.436   3.128   3.882 -1.2865 -0.6369  0.0363
  524MOL0     H70707   8.411   3.193   3.714  1.6941  0.8707  0.0251
  524MOL0     H70708   8.593   3.318   3.772  1.5823  0.4979  0.3727
  524MOL0     H70709   8.456   3.427   3.811  1.1051 -0.0133  0.9284
  524MOL0     H70710   8.566   3.240   4.022 -1.4051 -0.0691  0.1275
  524MOL0     H70711   8.482   3.397   4.036 -1.2542  0.2196 -1.6823
  524MOL0     H70712   8.694   3.515   3.937  0.7767  0.4678  0.3696
  524MOL0     H70713   8.768   3.356   3.917  1.8408  0.3058  0.8283
  524MOL0     H70714   8.781   3.326   4.153  3.0460  1.9989  3.3042
  524MOL0     H70715   8.864   3.466   4.110  0.7735 -0.6994  1.6315
  524MOL0     H70716   8.587   3.453   4.237 -0.5453  0.4708  0.7910
  524MOL0     H70717   8.674   3.600   4.183  1.9029  0.5605  1.2699
  524MOL0     H70718   8.877   3.524   4.311 -0.8662  0.0525 -3.2756
  524MOL0     H70719   8.730   3.573   4.415 -0.8101 -2.4144  1.5836
  524MOL0     H70720   8.287   3.359   4.237 -0.3994  0.0087 -1.9390
  524MOL0     H70721   8.261   3.215   4.438 -2.4021  2.4668  0.0277
  524MOL0     H70722   8.007   3.083   4.745 -1.0013 -1.1850 -2.1165
  524MOL0     H70723   8.043   2.999   4.988 -0.2398 -1.4711  0.2927
  524MOL0     H70724   7.846   2.263   6.747  0.9203 -0.6036  1.4942
  524MOL0     H70725   8.008   2.267   6.907  2.8075  1.3072 -0.0667
  524MOL0     H70726   8.134   2.520   7.416  1.8373  0.2696  1.6171
  524MOL0     H70727   8.313   2.512   7.553 -3.1089 -0.9299 -0.1204
  524MOL0     H70728   8.731   2.627   7.390 -0.1982 -0.2606 -0.0486
  524MOL0     H70729   8.716   2.454   7.352  2.6402  3.0655 -4.0525
  524MOL0     H70730   8.889   2.493   7.500  0.0776  1.6624 -0.7706
  524MOL0     H70731   8.768   2.390   7.578 -2.1319 -0.7539 -0.8454
  524MOL0     H70732   8.707   2.559   7.731  1.6978  1.3318  1.2358
  524MOL0     H70733   8.774   2.684   7.626  1.3403  0.3412 -0.6809
  524MOL0     H70734   8.919   2.627   7.838  1.3788 -2.5124  1.2697
  524MOL0     H70735   8.954   2.474   7.759  1.6644  0.2860 -0.0424
  524MOL0     H70736   9.188   2.788   7.598 -1.1828  0.8990  1.8934
  524MOL0     H70737   8.575   2.578   7.210  0.9020 -0.4772 -0.0858
  524MOL0     H70738   8.337   2.612   6.957  1.5405  0.9383 -0.2573
  524MOL0     H70739   8.500   2.572   7.000  0.4542  1.0215  2.6162
  524MOL0     H70740   8.375   2.443   6.978 -4.7566  0.4208 -0.2440
  525MOL0     O70741   9.659   6.327  10.903 -0.0163 -0.2645  0.6472
  525MOL0     C70742   9.724   6.308  11.004  0.4506  0.1096 -0.5098
  525MOL0     O70743   9.855   6.325  11.014 -0.1393 -0.7875 -0.0625
  525MOL0     C70744   9.948   6.315  10.915  0.4972  1.3401 -0.1743
  525MOL0     C70745  10.076   6.361  10.959  0.6466 -0.4323 -0.0884
  525MOL0     C70746  10.178   6.353  10.868  0.5037 -1.1054  0.0715
  525MOL0     C70747  10.157   6.319  10.731  1.0266  0.0665  0.1194
  525MOL0     O70748  10.249   6.303  10.633 -0.6144 -0.0766 -0.2729
  525MOL0     C70749  10.385   6.351  10.655  1.3307  0.3343 -0.0331
  525MOL0     C70750  10.414   6.449  10.546 -0.5826 -1.2503 -0.3124
  525MOL0     C70751  10.567   6.471  10.538  0.8631  0.3393 -0.3052
  525MOL0     C70752  10.594   6.566  10.425  0.7916 -0.4719 -0.7776
  525MOL0     C70753  10.740   6.563  10.376  0.3170 -0.0661  0.1167
  525MOL0     C70754  10.767   6.652  10.262  0.6841 -0.4390 -0.1418
  525MOL0     C70755  10.902   6.625  10.193  0.6213  1.0176  0.2527
  525MOL0     C70756  10.891   6.708  10.068  0.6326 -1.2528 -0.4340
  525MOL0     N70757  11.018   6.694   9.993  0.7705  1.1314 -0.1307
  525MOL0     C70758  11.150   6.703  10.036  1.1729  0.2565  0.3315
  525MOL0     C70759  11.215   6.667   9.924  0.7377  0.3518 -0.1967
  525MOL0     C70760  11.362   6.670   9.913 -0.3093  0.7998  0.0292
  525MOL0     C70761  11.404   6.591   9.792  0.9098  0.3826 -0.6199
  525MOL0     C70762  11.399   6.435   9.823  0.6191  0.3373 -0.1259
  525MOL0     C70763  11.491   6.375   9.926  0.3656 -0.1281 -0.2717
  525MOL0     O70764  11.626   6.389   9.865 -0.3463  0.9111 -0.3131
  525MOL0     C70765  11.727   6.328   9.937 -0.4056  0.4138 -0.1946
  525MOL0     C70766  11.847   6.291   9.876 -0.1706 -0.3596  0.0230
  525MOL0     C70767  11.951   6.220   9.940 -0.7793 -0.3753 -0.0215
  525MOL0     C70768  11.943   6.197  10.081 -0.3855  0.3972  1.4049
  525MOL0     C70769  12.038   6.123  10.165  0.5033 -0.0797  0.1300
  525MOL0     O70770  12.127   6.051  10.099  0.2128  0.5353  0.2023
  525MOL0     C70771  12.245   5.994  10.157 -0.0865  0.1593 -0.1614
  525MOL0     C70772  12.298   6.019  10.278 -0.9175  0.0324 -0.2085
  525MOL0     C70773  12.419   5.966  10.315  0.3690 -0.0438 -1.7040
  525MOL0     C70774  12.481   5.876  10.223 -0.8776  0.2003 -0.0921
  525MOL0     O70775  12.592   5.805  10.255  0.3039 -0.4612  0.0399
  525MOL0     C70776  12.666   5.851  10.368  0.6636  0.6152  0.6696
  525MOL0     C70777  12.782   5.747  10.375  0.6107  0.2749 -0.2706
  525MOL0     C70778  12.871   5.723  10.241  0.7337 -0.1560  0.1373
  525MOL0     C70779  12.988   5.822  10.246  0.3700  0.6081  0.4446
  525MOL0     C70780  13.055   5.852  10.105 -0.2388 -0.3386  0.4436
  525MOL0     C70781  13.202   5.905  10.110 -0.1120  0.8447 -0.5097
  525MOL0     C70782  13.260   5.904   9.974 -0.7171  0.2285 -0.2434
  525MOL0     C70783  13.405   5.958   9.969  0.7222 -0.6654 -0.3716
  525MOL0    Cl70784  13.528   5.827   9.991  0.1388  0.0162 -0.4616
  525MOL0     C70785  12.425   5.839  10.101  0.0788  0.0274  0.5644
  525MOL0     C70786  12.313   5.905  10.065  0.5730  0.1840 -0.0369
  525MOL0     O70787  12.027   6.134  10.288  0.2569 -0.4514 -0.5183
  525MOL0     C70788  11.817   6.228  10.134 -0.0259  0.1263  0.4387
  525MOL0     C70789  11.716   6.299  10.073 -0.2231 -0.1939 -0.0116
  525MOL0     N70790  11.123   6.638   9.823 -0.1002 -0.3377  0.4639
  525MOL0     N70791  11.004   6.644   9.865  0.2753  0.1461 -0.0467
  525MOL0     C70792  10.030   6.283  10.695  0.4729 -1.3830 -0.1649
  525MOL0     C70793   9.923   6.280  10.783  0.3640  0.6091 -0.3378
  525MOL0     C70794   9.655   6.291  11.133 -0.5753 -0.5488  0.5347
  525MOL0     C70795   9.519   6.265  11.133  0.0895  0.1294  0.0435
  525MOL0     C70796   9.448   6.229  11.252 -0.6552 -0.3496  0.3256
  525MOL0     C70797   9.509   6.215  11.379  0.5158  1.5128  0.5407
  525MOL0     O70798   9.446   6.175  11.492  0.0541 -0.5545  0.6671
  525MOL0     C70799   9.308   6.215  11.514  0.4944 -0.7724 -0.6514
  525MOL0     C70800   9.296   6.365  11.515 -0.7918  0.3607 -0.1079
  525MOL0     C70801   9.354   6.414  11.645  0.7532 -0.8571  0.7775
  525MOL0     C70802   9.304   6.555  11.670 -0.2763 -0.5945 -0.3890
  525MOL0     C70803   9.360   6.660  11.582 -0.7514  0.3713 -0.4725
  525MOL0     C70804   9.373   6.752  11.502  0.8311  0.1844 -0.6720
  525MOL0     C70805   9.642   6.239  11.379  0.3159  0.0536 -0.3454
  525MOL0     C70806   9.715   6.283  11.260  0.3728  0.3301  0.0817
  525MOL0     C70807   9.852   6.335  11.288  0.1177  0.2194 -0.2105
  525MOL0     H70808  10.089   6.393  11.062  1.9057  1.3972 -0.7550
  525MOL0     H70809  10.270   6.391  10.909  0.1431  1.1200 -1.0188
  525MOL0     H70810  10.399   6.403  10.750  0.3862  2.0365 -0.7903
  525MOL0     H70811  10.451   6.263  10.653  0.6335 -0.1857 -1.2220
  525MOL0     H70812  10.362   6.546  10.554 -3.3660 -2.7167  0.7674
  525MOL0     H70813  10.396   6.411  10.445  1.5107  0.5194 -1.4316
  525MOL0     H70814  10.627   6.380  10.522  2.0908  1.1256 -0.3238
  525MOL0     H70815  10.610   6.506  10.632  1.1722 -0.5270 -0.1038
  525MOL0     H70816  10.529   6.543  10.340 -0.6092  3.4589 -0.9613
  525MOL0     H70817  10.569   6.663  10.467  1.6016  0.0050 -1.3698
  525MOL0     H70818  10.814   6.585  10.454 -1.1394  1.0058  1.2636
  525MOL0     H70819  10.774   6.462  10.350 -0.1371 -0.8658  2.3967
  525MOL0     H70820  10.683   6.627  10.196  0.7717 -0.3579 -0.2844
  525MOL0     H70821  10.768   6.755  10.297  3.1018 -1.7295  4.3280
  525MOL0     H70822  10.900   6.522  10.159  2.1241 -0.1948  3.4407
  525MOL0     H70823  10.988   6.648  10.257 -0.7992  2.4562  1.7512
  525MOL0     H70824  10.811   6.679  10.000  1.8881 -1.0268 -2.0770
  525MOL0     H70825  10.882   6.814  10.093  1.1544 -1.0506 -1.0601
  525MOL0     H70826  11.188   6.727  10.135 -0.2060  0.3658  0.8498
  525MOL0     H70827  11.384   6.776   9.898 -1.4353  0.7339 -2.5618
  525MOL0     H70828  11.408   6.635  10.006  1.8027  1.0312 -0.8751
  525MOL0     H70829  11.327   6.605   9.715 -0.4164 -2.1733  0.0967
  525MOL0     H70830  11.500   6.623   9.750  1.9069  1.8673  2.5220
  525MOL0     H70831  11.405   6.397   9.721 -3.6584  2.4004 -1.3744
  525MOL0     H70832  11.298   6.397   9.838  0.4541 -0.9063 -3.4664
  525MOL0     H70833  11.476   6.268   9.946 -1.6633  0.2708  0.5984
  525MOL0     H70834  11.484   6.433  10.018  1.9417  1.8892 -1.3639
  525MOL0     H70835  11.852   6.314   9.770  3.5441  0.5332  0.2753
  525MOL0     H70836  12.042   6.195   9.887 -1.1179 -2.2827  0.2337
  525MOL0     H70837  12.248   6.080  10.352 -1.4741  1.4800 -1.7147
  525MOL0     H70838  12.454   5.987  10.416 -2.2771  1.4663 -1.0069
  525MOL0     H70839  12.705   5.951  10.347 -1.3301  1.7821  2.1180
  525MOL0     H70840  12.603   5.837  10.457  0.2639 -1.8538  0.0591
  525MOL0     H70841  12.841   5.774  10.463 -0.3011  3.9144 -0.6102
  525MOL0     H70842  12.741   5.651  10.408  0.9103  0.3470  0.3170
  525MOL0     H70843  12.907   5.620  10.241  1.7283  0.1601  1.5637
  525MOL0     H70844  12.810   5.743  10.152  1.8016 -0.5649 -0.7007
  525MOL0     H70845  13.063   5.767  10.304 -0.2508  0.3541  1.0223
  525MOL0     H70846  12.958   5.910  10.303  1.6224  0.0899  1.9692
  525MOL0     H70847  12.997   5.925  10.048 -0.2056  0.5558  1.5397
  525MOL0     H70848  13.062   5.756  10.053 -0.1434  0.7501 -1.6675
  525MOL0     H70849  13.204   6.002  10.161 -0.7312  0.2118  0.7711
  525MOL0     H70850  13.257   5.834  10.173  1.0368  0.6618 -1.6720
  525MOL0     H70851  13.198   5.970   9.912  1.1157  1.5087 -0.8068
  525MOL0     H70852  13.262   5.803   9.932  2.6663 -0.1152  0.5010
  525MOL0     H70853  13.413   6.002   9.869  0.3829 -2.2729 -1.1426
  525MOL0     H70854  13.425   6.026  10.052  0.1592 -1.7592  0.6888
  525MOL0     H70855  12.460   5.751  10.048  0.5417 -1.5175  3.2570
  525MOL0     H70856  12.283   5.893   9.961 -2.8559 -2.8228  1.0955
  525MOL0     H70857  11.792   6.194  10.234 -4.4065  0.6149 -0.2914
  525MOL0     H70858  11.624   6.308  10.130  0.0342  1.3308  0.1886
  525MOL0     H70859  10.005   6.259  10.593  0.4126 -0.4310 -0.3855
  525MOL0     H70860   9.827   6.240  10.750  0.9610 -0.3396 -1.0117
  525MOL0     H70861   9.466   6.272  11.038 -0.4963  0.5840  0.3922
  525MOL0     H70862   9.348   6.194  11.228 -0.5240  0.2223 -1.1001
  525MOL0     H70863   9.259   6.182  11.605  2.0779  0.2650  0.6344
  525MOL0     H70864   9.248   6.178  11.431 -1.3947  0.6248  0.0350
  525MOL0     H70865   9.190   6.390  11.505 -1.2705 -1.2329  0.6026
  525MOL0     H70866   9.340   6.416  11.428 -2.9355  0.0966 -1.4196
  525MOL0     H70867   9.463   6.404  11.650  1.1777 -0.5275 -3.8420
  525MOL0     H70868   9.320   6.352  11.729 -1.5173 -0.8031 -0.0124
  525MOL0     H70869   9.194   6.553  11.670 -0.2959 -0.5641  1.0774
  525MOL0     H70870   9.336   6.576  11.772 -3.2475  1.4745  0.2545
  525MOL0     H70871   9.390   6.836  11.438  3.2564 -0.1922 -0.5973
  525MOL0     H70872   9.687   6.237  11.478 -2.9137 -2.7574  1.2794
  525MOL0     H70873   9.924   6.262  11.250 -0.5269 -0.8277  0.5323
  525MOL0     H70874   9.866   6.428  11.232 -1.6917  0.1969 -0.7560
  525MOL0     H70875   9.881   6.352  11.392 -1.8438 -0.9677  0.5852
  526MOL0     O70876   1.381   7.306  11.181 -0.1754  0.5170  0.6184
  526MOL0     C70877   1.356   7.424  11.208 -0.5784 -0.0756  0.1017
  526MOL0     O70878   1.451   7.528  11.202  0.1755 -0.0036  0.2752
  526MOL0     C70879   1.577   7.491  11.178  0.1104  0.3751  0.1903
  526MOL0     C70880   1.642   7.411  11.281 -0.4355 -0.3595  0.1754
  526MOL0     C70881   1.775   7.378  11.261  0.4664 -0.1188 -0.3324
  526MOL0     C70882   1.846   7.416  11.147  0.3602 -0.1206 -0.3666
  526MOL0     O70883   1.971   7.367  11.117 -0.0409  0.6012 -0.0491
  526MOL0     C70884   2.066   7.335  11.215  0.1378 -0.6164  0.0616
  526MOL0     C70885   2.200   7.319  11.153  0.7999  1.5514 -0.8009
  526MOL0     C70886   2.313   7.321  11.255  0.8741  0.5833  0.8550
  526MOL0     C70887   2.440   7.255  11.205 -0.3327 -0.9540 -0.0353
  526MOL0     C70888   2.556   7.239  11.313  0.0804  0.4240  0.0909
  526MOL0     C70889   2.697   7.211  11.264 -0.4222 -0.7399 -0.8421
  526MOL0     C70890   2.737   7.328  11.167  0.4840 -0.1783  0.1942
  526MOL0     C70891   2.886   7.336  11.139  0.2141 -0.3640 -0.0789
  526MOL0     N70892   2.975   7.372  11.247  0.3825  0.6226  0.3706
  526MOL0     C70893   2.984   7.504  11.289  0.6792  0.8330  0.2458
  526MOL0     C70894   3.077   7.491  11.384 -0.6769 -0.5063 -0.1757
  526MOL0     C70895   3.122   7.596  11.476 -1.0113  0.1350 -0.4703
  526MOL0     C70896   3.179   7.544  11.601 -0.7407  0.0857  0.2875
  526MOL0     C70897   3.245   7.659  11.682  0.0600  1.1866  0.7551
  526MOL0     C70898   3.277   7.620  11.831 -0.3753 -0.6638 -0.4401
  526MOL0     O70899   3.383   7.527  11.852 -0.0492  0.5538 -0.0435
  526MOL0     C70900   3.517   7.553  11.828 -0.0241  0.0577  1.7426
  526MOL0     C70901   3.593   7.454  11.762 -0.5089  0.6757 -1.3394
  526MOL0     C70902   3.720   7.488  11.718  0.1616  0.3964  0.7676
  526MOL0     C70903   3.766   7.624  11.708 -0.4203  0.8419  0.6243
  526MOL0     C70904   3.894   7.646  11.644  0.8387 -0.8247 -0.2526
  526MOL0     O70905   3.934   7.781  11.649  0.4471  0.5158  0.0342
  526MOL0     C70906   4.054   7.814  11.621  0.1796 -0.4590 -0.2048
  526MOL0     C70907   4.171   7.762  11.676  0.2322  1.7550 -0.4872
  526MOL0     C70908   4.296   7.810  11.645 -0.8519  0.1507 -0.2104
  526MOL0     C70909   4.314   7.913  11.555 -0.3003 -0.8482  1.0627
  526MOL0     O70910   4.441   7.958  11.531 -0.8662 -0.6094 -0.5680
  526MOL0     C70911   4.469   8.054  11.425  0.9772 -0.4830  0.2107
  526MOL0     C70912   4.623   8.079  11.424  0.2295 -0.1782  0.4021
  526MOL0     C70913   4.665   8.175  11.533 -0.0279 -0.0221 -0.6826
  526MOL0     C70914   4.823   8.180  11.564  0.5694  0.8600 -0.6236
  526MOL0     C70915   4.861   8.305  11.651  1.3621  1.2121  0.2136
  526MOL0     C70916   5.021   8.291  11.671  0.7226  0.7272  0.5539
  526MOL0     C70917   5.044   8.194  11.784  0.0532 -0.1346 -0.7380
  526MOL0     C70918   5.189   8.155  11.774 -0.2061  0.4742  0.5503
  526MOL0    Cl70919   5.302   8.287  11.808  0.3864  0.5614  0.1090
  526MOL0     C70920   4.197   7.969  11.492  0.2455  0.7972 -0.2081
  526MOL0     C70921   4.075   7.917  11.530  0.7154 -0.1923 -0.6510
  526MOL0     O70922   3.959   7.555  11.592  0.2829  0.3673 -0.4500
  526MOL0     C70923   3.693   7.722  11.776  1.1494  0.3123 -0.3997
  526MOL0     C70924   3.577   7.682  11.846 -0.5640 -0.2728 -0.7641
  526MOL0     N70925   3.112   7.360  11.403  0.4552  0.1054  0.2756
  526MOL0     N70926   3.052   7.285  11.315  0.3954  0.6105  0.0497
  526MOL0     C70927   1.776   7.494  11.048 -0.0420 -0.1979 -0.3560
  526MOL0     C70928   1.645   7.537  11.068  0.3447 -0.6580  1.2304
  526MOL0     C70929   1.213   7.456  11.220  0.0883  0.2021  0.5511
  526MOL0     C70930   1.126   7.358  11.164  0.5001 -0.2681 -0.0886
  526MOL0     C70931   0.986   7.373  11.166 -0.4168 -0.0009 -0.1057
  526MOL0     C70932   0.925   7.479  11.237 -0.0080 -0.2102 -1.3354
  526MOL0     O70933   0.793   7.485  11.259  0.1294 -0.3909 -0.5676
  526MOL0     C70934   0.693   7.415  11.181  0.3949 -0.0397  0.3043
  526MOL0     C70935   0.653   7.286  11.247  1.3839  0.3649 -0.4134
  526MOL0     C70936   0.558   7.200  11.154  0.1263 -0.0308 -0.6944
  526MOL0     C70937   0.628   7.130  11.042 -1.2540 -0.3256  0.0012
  526MOL0     C70938   0.733   7.043  11.095  0.5201  0.1330  0.0828
  526MOL0     C70939   0.824   6.970  11.114 -0.3334  0.2572  0.3556
  526MOL0     C70940   1.006   7.566  11.309  0.1241  0.3204  0.1777
  526MOL0     C70941   1.148   7.557  11.293  0.1469  0.7010  0.1144
  526MOL0     C70942   1.231   7.648  11.379  0.4045 -0.6719 -0.4575
  526MOL0     H70943   1.593   7.366  11.367  0.2063  1.0928  1.3524
  526MOL0     H70944   1.823   7.318  11.338 -1.2220  1.5742  2.2053
  526MOL0     H70945   2.069   7.411  11.294 -3.2686  1.2756 -1.4271
  526MOL0     H70946   2.039   7.244  11.271 -0.4829 -0.7558 -0.4488
  526MOL0     H70947   2.220   7.402  11.084  1.1432  2.5981  0.5144
  526MOL0     H70948   2.181   7.227  11.098 -2.6917  2.0317 -0.6696
  526MOL0     H70949   2.274   7.248  11.327  2.5574  1.6532  2.9774
  526MOL0     H70950   2.330   7.422  11.295  0.3291  0.2517  1.9692
  526MOL0     H70951   2.407   7.164  11.155 -0.4957 -1.1575  0.4355
  526MOL0     H70952   2.475   7.334  11.138 -0.1570  0.7044  1.8719
  526MOL0     H70953   2.555   7.330  11.373  3.0806  0.6437 -0.0325
  526MOL0     H70954   2.528   7.151  11.371 -1.4977  2.1725  2.0834
  526MOL0     H70955   2.767   7.213  11.348 -0.8688  1.8415 -0.4605
  526MOL0     H70956   2.705   7.111  11.221  1.5770 -2.2490  2.6152
  526MOL0     H70957   2.701   7.429  11.191  1.3608 -0.2198  1.7910
  526MOL0     H70958   2.687   7.294  11.076  0.4487 -0.2749  0.2499
  526MOL0     H70959   2.914   7.240  11.093  2.2023  1.2200 -2.4110
  526MOL0     H70960   2.914   7.412  11.066  1.2544 -0.0655  0.6165
  526MOL0     H70961   2.912   7.577  11.257  0.6409  0.9595  0.6164
  526MOL0     H70962   3.200   7.644  11.417  0.9949  1.2764  2.8554
  526MOL0     H70963   3.038   7.658  11.509 -1.2956 -1.1428  1.3401
  526MOL0     H70964   3.101   7.490  11.655  1.1107 -0.9460  2.1228
  526MOL0     H70965   3.259   7.472  11.580  0.5605 -0.1025  4.7927
  526MOL0     H70966   3.170   7.738  11.685 -1.1725  0.0803  0.0509
  526MOL0     H70967   3.344   7.673  11.637  1.4196 -3.9905  1.5029
  526MOL0     H70968   3.185   7.575  11.871 -0.5697 -1.2737 -1.5189
  526MOL0     H70969   3.290   7.711  11.890 -0.4066  0.5246 -2.1651
  526MOL0     H70970   3.554   7.355  11.740 -1.9069  1.2628 -1.6161
  526MOL0     H70971   3.780   7.415  11.664 -0.1868 -0.5400  1.6237
  526MOL0     H70972   4.173   7.682  11.749  0.8727  2.0455 -0.1810
  526MOL0     H70973   4.384   7.767  11.691 -0.7952  0.3277 -0.1512
  526MOL0     H70974   4.433   8.018  11.328 -1.6777 -1.8535  1.5774
  526MOL0     H70975   4.408   8.144  11.440 -2.2214 -2.3168 -0.7468
  526MOL0     H70976   4.672   7.987  11.457 -1.9947 -0.9940  1.6596
  526MOL0     H70977   4.658   8.110  11.325 -0.1801 -2.7518 -0.6155
  526MOL0     H70978   4.644   8.278  11.505  1.9173  0.7843  0.5901
  526MOL0     H70979   4.613   8.170  11.629  1.1619  3.1215  0.2395
  526MOL0     H70980   4.895   8.172  11.482 -0.4839  0.9238 -1.5628
  526MOL0     H70981   4.844   8.085  11.614 -3.0842 -0.9136 -2.1474
  526MOL0     H70982   4.802   8.325  11.741  1.2369 -2.5307  1.1298
  526MOL0     H70983   4.840   8.390  11.584 -0.8115 -0.7854 -1.8377
  526MOL0     H70984   5.074   8.252  11.583 -0.2763  1.6734 -0.4975
  526MOL0     H70985   5.066   8.387  11.697  0.0313  0.6763  2.0061
  526MOL0     H70986   4.977   8.109  11.774 -0.5777  0.4542 -1.7557
  526MOL0     H70987   5.021   8.251  11.875  3.6652  0.8524 -0.2581
  526MOL0     H70988   5.206   8.082  11.854  1.3575  0.6199  0.3849
  526MOL0     H70989   5.228   8.120  11.678 -0.5598  1.5584 -0.0004
  526MOL0     H70990   4.205   8.046  11.416  1.5504 -0.4316 -1.3723
  526MOL0     H70991   3.978   7.955  11.499 -1.2958 -1.2262  3.5642
  526MOL0     H70992   3.723   7.826  11.783 -1.5139  1.0765  0.7761
  526MOL0     H70993   3.529   7.762  11.902 -1.0493 -1.7929  1.1196
  526MOL0     H70994   1.832   7.540  10.968  1.0214  1.1931  1.1198
  526MOL0     H70995   1.595   7.605  11.000 -0.3500 -0.2579  2.1220
  526MOL0     H70996   1.158   7.280  11.096 -0.7476  1.6808 -3.1191
  526MOL0     H70997   0.909   7.306  11.130 -1.7346  1.2027  0.3556
  526MOL0     H70998   0.725   7.392  11.079 -0.7974 -1.2833  0.1887
  526MOL0     H70999   0.607   7.482  11.177 -0.8899 -1.6548  0.0851
  526MOL0     H71000   0.604   7.311  11.341  2.8677 -0.2975  0.5751
  526MOL0     H71001   0.743   7.229  11.273  0.5817 -0.2447  1.1476
  526MOL0     H71002   0.477   7.265  11.120 -1.7532 -0.9545  1.6940
  526MOL0     H71003   0.501   7.130  11.216 -0.1094  0.6866 -0.0742
  526MOL0     H71004   0.564   7.063  10.984  1.4415 -0.7035 -2.8187
  526MOL0     H71005   0.677   7.198  10.973  3.0573 -4.0195 -1.1018
  526MOL0     H71006   0.913   6.911  11.119 -0.5270 -0.7284 -4.0148
  526MOL0     H71007   0.955   7.633  11.377 -1.3257 -1.0592  0.4958
  526MOL0     H71008   1.334   7.613  11.390  0.3466 -1.5119 -2.1653
  526MOL0     H71009   1.239   7.744  11.328 -0.5907 -1.3377 -1.9628
  526MOL0     H71010   1.196   7.664  11.481  0.4084 -0.5001 -0.4831
  527MOL0     O71011   5.949   1.349   5.423  0.4374  0.1143 -0.0641
  527MOL0     C71012   5.839   1.392   5.426  0.1920 -0.6851  1.0590
  527MOL0     O71013   5.780   1.457   5.536  0.3370 -0.1521 -0.2814
  527MOL0     C71014   5.816   1.424   5.666  0.3243 -0.4262 -0.1620
  527MOL0     C71015   5.817   1.531   5.766  0.5257  0.4936  1.0709
  527MOL0     C71016   5.850   1.503   5.899 -0.6499  0.7588  0.6964
  527MOL0     C71017   5.887   1.378   5.943 -0.8844 -0.0486  0.3016
  527MOL0     O71018   5.917   1.354   6.075  0.1220  0.0059  0.4101
  527MOL0     C71019   5.940   1.467   6.164  0.9370  0.6911  0.4691
  527MOL0     C71020   6.014   1.409   6.284 -0.0171  0.1720  0.0778
  527MOL0     C71021   6.154   1.344   6.260 -0.5464  0.5983  1.7049
  527MOL0     C71022   6.205   1.244   6.363 -0.3064  0.1130 -0.4210
  527MOL0     C71023   6.355   1.237   6.377  0.5578 -0.3150 -0.3235
  527MOL0     C71024   6.404   1.108   6.455 -0.1130 -0.7634 -0.0352
  527MOL0     C71025   6.536   1.125   6.529 -0.5981 -0.3141 -0.5341
  527MOL0     C71026   6.651   1.172   6.435 -0.4927 -0.5462 -0.3175
  527MOL0     N71027   6.785   1.157   6.509  0.9754  0.4698  0.0004
  527MOL0     C71028   6.907   1.122   6.459  0.6649  0.5903  0.8458
  527MOL0     C71029   6.993   1.156   6.558 -0.9069 -0.5343 -0.3792
  527MOL0     C71030   7.133   1.111   6.558 -0.3094  0.3264  0.3403
  527MOL0     C71031   7.199   1.145   6.428  0.5301 -0.1890  0.2483
  527MOL0     C71032   7.342   1.202   6.452  0.0599 -0.5957  0.3489
  527MOL0     C71033   7.431   1.221   6.331  0.3242 -0.1071  0.7969
  527MOL0     O71034   7.517   1.107   6.308 -0.8416 -0.4091  0.2068
  527MOL0     C71035   7.616   1.118   6.213  0.0825 -0.4274 -0.5387
  527MOL0     C71036   7.735   1.061   6.231 -0.3288  0.5311  0.4963
  527MOL0     C71037   7.844   1.069   6.151  1.0561 -0.2136 -0.0430
  527MOL0     C71038   7.834   1.134   6.031  0.7169  0.3835 -0.8164
  527MOL0     C71039   7.957   1.164   5.949  1.4908 -0.1280  0.9151
  527MOL0     O71040   8.074   1.114   5.992  0.2537 -0.0976  0.9494
  527MOL0     C71041   8.201   1.139   5.938  0.0162  0.7109  0.4355
  527MOL0     C71042   8.234   1.231   5.840 -0.0710 -0.3114  0.2331
  527MOL0     C71043   8.367   1.246   5.797  0.5562 -0.2542  0.5169
  527MOL0     C71044   8.460   1.156   5.841  0.3806 -0.9828 -0.3319
  527MOL0     O71045   8.598   1.179   5.804 -0.5750 -0.1895 -0.5107
  527MOL0     C71046   8.689   1.146   5.908 -0.1182 -0.3665  0.1260
  527MOL0     C71047   8.831   1.194   5.883 -1.2462 -0.8310 -0.3039
  527MOL0     C71048   8.857   1.343   5.842  0.2034  0.7887 -0.6340
  527MOL0     C71049   9.007   1.373   5.849  0.0094  0.7914 -0.3852
  527MOL0     C71050   9.080   1.317   5.723  0.8059  0.5800 -0.1980
  527MOL0     C71051   9.223   1.369   5.702 -0.2826  0.6985  0.6794
  527MOL0     C71052   9.324   1.280   5.779  0.2518  0.4009  0.0246
  527MOL0     C71053   9.468   1.301   5.731  0.1782 -0.3747  0.2676
  527MOL0    Cl71054   9.571   1.171   5.800 -0.1831  0.1711  0.3733
  527MOL0     C71055   8.434   1.065   5.942  0.7704 -0.7390 -0.0537
  527MOL0     C71056   8.303   1.056   5.991  0.3076 -0.0000 -0.4355
  527MOL0     O71057   7.939   1.242   5.853 -0.9490  0.1090  0.3525
  527MOL0     C71058   7.710   1.194   6.005 -0.6619  0.4707 -0.5264
  527MOL0     C71059   7.613   1.196   6.093  0.6753  0.2958 -0.9550
  527MOL0     N71060   6.940   1.217   6.669  0.8723  0.1882  0.7522
  527MOL0     N71061   6.812   1.219   6.632 -0.3367  0.3750  0.2005
  527MOL0     C71062   5.877   1.273   5.847 -0.0597 -0.3464 -0.0135
  527MOL0     C71063   5.847   1.296   5.710 -0.4032 -0.2357  0.4275
  527MOL0     C71064   5.766   1.387   5.294  0.0381 -0.6466 -0.1350
  527MOL0     C71065   5.658   1.472   5.274  0.1150 -0.1446  0.1232
  527MOL0     C71066   5.568   1.455   5.170 -0.2782  0.2202  0.7915
  527MOL0     C71067   5.604   1.371   5.064  1.0403 -0.6082  0.5812
  527MOL0     O71068   5.514   1.373   4.963  0.1767  0.8177 -0.3012
  527MOL0     C71069   5.515   1.268   4.854  0.7803 -0.6000 -0.1682
  527MOL0     C71070   5.389   1.285   4.765  0.4069  0.0008 -0.3869
  527MOL0     C71071   5.249   1.289   4.837  0.2054  0.7550 -0.2017
  527MOL0     C71072   5.135   1.283   4.742 -0.1125 -0.4002  0.6941
  527MOL0     C71073   5.123   1.153   4.665  0.2011 -0.0738  0.2742
  527MOL0     C71074   5.110   1.062   4.586  0.4461 -0.2514  0.3304
  527MOL0     C71075   5.717   1.287   5.077 -0.0718  0.3558 -0.3646
  527MOL0     C71076   5.800   1.299   5.188 -0.7834  0.4064  0.1534
  527MOL0     C71077   5.906   1.200   5.191 -0.7213 -0.4759  0.0104
  527MOL0     H71078   5.786   1.628   5.730  0.1767  0.5802  1.6006
  527MOL0     H71079   5.840   1.570   5.984 -3.2008 -1.1755  2.0633
  527MOL0     H71080   6.009   1.538   6.116 -0.5410  1.3992 -0.6780
  527MOL0     H71081   5.846   1.516   6.189 -0.9662 -2.4804 -0.0484
  527MOL0     H71082   5.963   1.330   6.340  0.2192 -0.1559 -0.1703
  527MOL0     H71083   6.026   1.487   6.360 -1.6173 -0.0902  0.6466
  527MOL0     H71084   6.223   1.429   6.265  1.9023 -1.0399 -0.8489
  527MOL0     H71085   6.157   1.296   6.161  0.1360  1.3777  1.3386
  527MOL0     H71086   6.163   1.276   6.460 -0.9939 -1.5198 -0.1361
  527MOL0     H71087   6.160   1.150   6.332  1.4134 -0.2848 -1.8347
  527MOL0     H71088   6.399   1.237   6.276  1.8625  2.8015  0.1354
  527MOL0     H71089   6.391   1.330   6.421  0.1680 -0.9057  1.3060
  527MOL0     H71090   6.333   1.091   6.536  1.0752  0.4820  1.3081
  527MOL0     H71091   6.410   1.017   6.395 -1.7090  0.1808 -1.7408
  527MOL0     H71092   6.564   1.029   6.573 -0.3006  0.4177  0.9124
  527MOL0     H71093   6.522   1.185   6.619 -4.2651 -4.4099  2.0156
  527MOL0     H71094   6.652   1.119   6.339 -0.0472 -2.1211  0.5124
  527MOL0     H71095   6.642   1.278   6.413 -0.9546  0.0939  2.4969
  527MOL0     H71096   6.929   1.055   6.377  3.0494  1.1482  0.9452
  527MOL0     H71097   7.178   1.179   6.631 -0.3694  2.8433 -1.8142
  527MOL0     H71098   7.146   1.005   6.581 -1.2968  0.1288 -0.0022
  527MOL0     H71099   7.206   1.052   6.371 -1.9724  0.5568 -1.4328
  527MOL0     H71100   7.137   1.214   6.370 -1.3122 -0.4388  1.7896
  527MOL0     H71101   7.400   1.140   6.521  1.2083 -0.3611 -0.3807
  527MOL0     H71102   7.342   1.303   6.494 -0.2113  0.0490 -1.1509
  527MOL0     H71103   7.489   1.313   6.347 -0.5455  1.4035 -3.5266
  527MOL0     H71104   7.369   1.257   6.248 -0.8475  2.4654  2.6155
  527MOL0     H71105   7.760   1.016   6.326 -0.2998  0.3582  0.4070
  527MOL0     H71106   7.934   1.026   6.194 -0.3786 -0.1669  3.2734
  527MOL0     H71107   8.169   1.301   5.787  0.9464 -0.7673 -1.7340
  527MOL0     H71108   8.395   1.330   5.734  1.0722 -2.0380 -1.7404
  527MOL0     H71109   8.659   1.186   6.005 -2.1977 -0.5075 -0.4085
  527MOL0     H71110   8.694   1.037   5.911 -2.0996 -0.5977 -1.8815
  527MOL0     H71111   8.892   1.184   5.973  0.8995 -0.6895 -1.6957
  527MOL0     H71112   8.867   1.132   5.801 -1.7323 -0.5741 -0.7205
  527MOL0     H71113   8.800   1.362   5.751  1.2876  1.2496 -1.2300
  527MOL0     H71114   8.819   1.413   5.917  0.2285  0.0994  0.0349
  527MOL0     H71115   9.045   1.346   5.948  0.5635  0.3171 -0.7207
  527MOL0     H71116   9.004   1.482   5.851  0.4906  0.8452 -1.5841
  527MOL0     H71117   9.028   1.366   5.639  0.8716  2.8887  1.0253
  527MOL0     H71118   9.076   1.208   5.725 -0.1959  0.6086  1.1587
  527MOL0     H71119   9.256   1.357   5.599 -2.5477 -3.3227  0.2409
  527MOL0     H71120   9.223   1.477   5.723  1.2571  0.9868 -0.6310
  527MOL0     H71121   9.288   1.181   5.750  0.2089  0.4649 -0.1374
  527MOL0     H71122   9.308   1.286   5.887 -1.5416  0.0222 -0.1868
  527MOL0     H71123   9.481   1.290   5.623  0.3868 -2.4006  0.4586
  527MOL0     H71124   9.500   1.406   5.735  1.4168 -0.6299 -1.4455
  527MOL0     H71125   8.508   1.007   5.996  1.0046 -0.1143  0.2893
  527MOL0     H71126   8.282   0.986   6.072 -1.2424 -0.7000 -1.3955
  527MOL0     H71127   7.713   1.264   5.922  2.4097  0.6000 -0.4294
  527MOL0     H71128   7.540   1.272   6.066  0.6977  0.7497  0.2322
  527MOL0     H71129   5.909   1.172   5.870 -0.2088 -0.8088 -1.7524
  527MOL0     H71130   5.841   1.215   5.637 -1.5469 -0.4484  0.7490
  527MOL0     H71131   5.620   1.527   5.360 -1.2206 -2.3773  1.0500
  527MOL0     H71132   5.465   1.489   5.161 -0.4216  0.2982  2.4060
  527MOL0     H71133   5.523   1.177   4.914  1.1385  0.6232  1.7397
  527MOL0     H71134   5.611   1.283   4.804  2.9307  0.8411  3.8831
  527MOL0     H71135   5.384   1.212   4.684 -1.6562 -1.1269  0.6765
  527MOL0     H71136   5.390   1.388   4.728 -0.8563  1.1700  2.4606
  527MOL0     H71137   5.245   1.371   4.909 -0.5077 -1.4570  2.4553
  527MOL0     H71138   5.244   1.198   4.898 -2.5368  1.0535  0.1329
  527MOL0     H71139   5.042   1.295   4.798  0.8668 -1.2167  2.5933
  527MOL0     H71140   5.144   1.358   4.663  2.8170 -1.9169 -0.5798
  527MOL0     H71141   5.064   0.988   4.525 -0.3713  0.7215 -0.2580
  527MOL0     H71142   5.745   1.230   4.989  0.3652  1.8291 -1.2072
  527MOL0     H71143   5.917   1.149   5.287  0.4026  0.0740  0.1859
  527MOL0     H71144   5.895   1.113   5.125 -1.0681 -0.1784 -0.3251
  527MOL0     H71145   5.995   1.254   5.158  0.0749 -2.3522 -1.0800
  528MOL0     O71146   3.514   1.957  11.184  0.3433  0.0446 -0.4209
  528MOL0     C71147   3.601   2.040  11.169 -0.3847 -0.4179 -0.2273
  528MOL0     O71148   3.581   2.178  11.211 -0.1444  0.1721  0.4656
  528MOL0     C71149   3.448   2.216  11.202  0.9414  0.4053 -0.3858
  528MOL0     C71150   3.406   2.274  11.089 -0.0559  0.2477  0.5066
  528MOL0     C71151   3.271   2.328  11.076 -0.9186 -0.4664  1.4505
  528MOL0     C71152   3.186   2.336  11.190  0.2363  0.2579  0.1552
  528MOL0     O71153   3.060   2.395  11.166 -0.2079  0.1808 -1.0295
  528MOL0     C71154   2.976   2.391  11.281  0.4464  0.0067  0.1702
  528MOL0     C71155   2.830   2.403  11.229  0.4361 -0.0811 -0.3872
  528MOL0     C71156   2.770   2.267  11.211  0.2999 -1.0402  0.2912
  528MOL0     C71157   2.681   2.262  11.087  0.6785 -0.1059 -0.6016
  528MOL0     C71158   2.595   2.135  11.095 -0.2704 -1.0438 -0.0736
  528MOL0     C71159   2.506   2.137  10.981 -0.8441 -0.3544  0.3169
  528MOL0     C71160   2.457   1.999  10.955 -0.6759 -0.3326  0.4105
  528MOL0     C71161   2.335   1.999  10.860 -0.7652  0.4536 -0.4487
  528MOL0     N71162   2.366   2.017  10.724 -0.2797 -0.5351 -0.2969
  528MOL0     C71163   2.335   2.128  10.659 -1.0749 -0.2243 -0.4071
  528MOL0     C71164   2.390   2.115  10.531 -0.0547  0.5600 -0.1009
  528MOL0     C71165   2.363   2.208  10.416  0.2784  1.4069 -0.2968
  528MOL0     C71166   2.240   2.155  10.337  0.0272 -0.4178 -0.8603
  528MOL0     C71167   2.240   2.216  10.198  1.0915 -0.0071 -0.4265
  528MOL0     C71168   2.197   2.112  10.095 -0.3155 -0.4752 -0.5475
  528MOL0     O71169   2.282   1.995  10.075 -0.8266  0.3201  0.3978
  528MOL0     C71170   2.425   2.013  10.090  0.3174  0.2564  0.0304
  528MOL0     C71171   2.495   1.915  10.154  0.3426 -0.6614  0.8092
  528MOL0     C71172   2.632   1.925  10.167  0.8776  0.2307  0.2319
  528MOL0     C71173   2.700   2.031  10.117 -0.6641  0.0057  0.1654
  528MOL0     C71174   2.849   2.036  10.121  0.5888 -0.2105  0.1529
  528MOL0     O71175   2.913   1.915  10.150 -0.2056 -0.3520 -0.6435
  528MOL0     C71176   3.047   1.900  10.177  0.2716  0.1958 -0.1264
  528MOL0     C71177   3.084   1.818  10.286 -0.4083 -0.3783 -0.5801
  528MOL0     C71178   3.217   1.808  10.332 -0.4341 -0.4429 -0.0096
  528MOL0     C71179   3.320   1.877  10.269 -1.0476 -0.2822  0.7900
  528MOL0     O71180   3.445   1.891  10.328 -0.2507 -0.2272 -0.5360
  528MOL0     C71181   3.562   1.891  10.244  0.5584 -0.9900  0.0543
  528MOL0     C71182   3.677   1.927  10.339  0.2830  0.7833 -0.2520
  528MOL0     C71183   3.807   1.930  10.251  0.1506 -0.1088 -0.1882
  528MOL0     C71184   3.930   1.948  10.340  0.3899 -0.1793 -0.0034
  528MOL0     C71185   4.051   1.887  10.269 -0.4929  0.0050 -0.0232
  528MOL0     C71186   4.191   1.879  10.342 -0.5383 -0.4443  0.9935
  528MOL0     C71187   4.305   1.829  10.251 -0.6916  0.0217  0.7291
  528MOL0     C71188   4.431   1.791  10.331 -0.4716 -0.5330  0.1404
  528MOL0    Cl71189   4.402   1.630  10.415  0.2397  0.1637  0.0428
  528MOL0     C71190   3.286   1.955  10.149 -0.4682 -0.4533 -0.0216
  528MOL0     C71191   3.148   1.970  10.115  0.5789 -0.7335 -0.3750
  528MOL0     O71192   2.902   2.147  10.102  0.2683 -0.1506 -0.8453
  528MOL0     C71193   2.622   2.145  10.077  0.5013  1.1539 -0.4805
  528MOL0     C71194   2.486   2.137  10.060 -0.7307  0.4479 -0.1006
  528MOL0     N71195   2.444   1.983  10.521 -0.7142 -0.7244 -0.5444
  528MOL0     N71196   2.406   1.926  10.633  0.3416 -0.2845  0.3200
  528MOL0     C71197   3.239   2.284  11.308 -0.4506  0.1774 -0.3901
  528MOL0     C71198   3.365   2.221  11.312 -0.2587  0.7128  0.1276
  528MOL0     C71199   3.741   2.001  11.121  0.6366  0.0124  0.0626
  528MOL0     C71200   3.831   2.106  11.128 -1.2905  0.2302  0.1677
  528MOL0     C71201   3.964   2.079  11.112 -0.1733 -0.4471  0.2952
  528MOL0     C71202   4.014   1.951  11.090  1.1733  0.1234  0.3504
  528MOL0     O71203   4.147   1.939  11.076  0.6706  0.1645  0.7040
  528MOL0     C71204   4.204   1.810  11.095  0.4289  0.4677 -0.0637
  528MOL0     C71205   4.343   1.814  11.111 -0.6471 -0.3458  0.0252
  528MOL0     C71206   4.407   1.836  10.977  0.0669  0.2968 -0.2144
  528MOL0     C71207   4.562   1.835  10.984  0.7320  0.3938 -0.7203
  528MOL0     C71208   4.616   1.839  10.848 -0.6260  0.4467 -0.3109
  528MOL0     C71209   4.665   1.825  10.735  0.2323 -1.0417 -0.7726
  528MOL0     C71210   3.918   1.847  11.072 -0.8384 -0.5818 -0.1878
  528MOL0     C71211   3.781   1.868  11.086  0.1322  0.1680  0.2864
  528MOL0     C71212   3.689   1.747  11.078 -0.6034  0.9741 -1.5528
  528MOL0     H71213   3.455   2.294  10.994 -2.0076  3.0033 -0.0540
  528MOL0     H71214   3.242   2.380  10.985 -0.8090  0.6363  2.0315
  528MOL0     H71215   2.992   2.293  11.328 -1.0632 -0.4156 -0.1439
  528MOL0     H71216   3.006   2.479  11.339 -1.5893  1.6564 -1.1094
  528MOL0     H71217   2.818   2.462  11.138  1.4213  0.1963 -0.3463
  528MOL0     H71218   2.763   2.458  11.295  2.2776  3.4772 -1.2451
  528MOL0     H71219   2.717   2.237  11.301 -1.4914 -1.5196 -0.8764
  528MOL0     H71220   2.846   2.189  11.198  2.5145  1.0626 -0.0758
  528MOL0     H71221   2.617   2.350  11.075  0.7484 -0.4227 -4.8540
  528MOL0     H71222   2.737   2.257  10.993  0.3805  0.8091 -0.8408
  528MOL0     H71223   2.667   2.053  11.085 -0.3558 -1.0568 -0.5553
  528MOL0     H71224   2.536   2.127  11.187 -1.0293  2.1889 -0.1542
  528MOL0     H71225   2.418   2.200  10.995 -1.5575 -0.9330 -1.2534
  528MOL0     H71226   2.565   2.172  10.895  2.5233  2.0174  3.3246
  528MOL0     H71227   2.427   1.942  11.043 -1.8180  1.1846  1.0661
  528MOL0     H71228   2.538   1.942  10.911 -0.1733 -0.1524  1.0816
  528MOL0     H71229   2.274   1.909  10.871  0.7519 -0.3827  1.7664
  528MOL0     H71230   2.263   2.078  10.885 -1.9571 -0.0276 -2.1453
  528MOL0     H71231   2.263   2.197  10.702 -0.7042  0.6041 -1.0757
  528MOL0     H71232   2.342   2.307  10.458 -3.0702  0.7281 -0.1167
  528MOL0     H71233   2.448   2.221  10.349  0.4165  1.0006 -0.2032
  528MOL0     H71234   2.254   2.046  10.338 -0.2532 -0.4535 -0.6564
  528MOL0     H71235   2.150   2.177  10.396  1.7046 -0.6040  1.9365
  528MOL0     H71236   2.329   2.277  10.180 -0.1680  2.0438 -0.1080
  528MOL0     H71237   2.165   2.296  10.202 -1.2155 -1.9975 -1.5592
  528MOL0     H71238   2.186   2.164  10.000  1.4955 -1.1898 -1.1954
  528MOL0     H71239   2.094   2.086  10.123 -0.5671  0.4709 -0.5709
  528MOL0     H71240   2.445   1.830  10.198 -0.7540 -1.5368 -1.9068
  528MOL0     H71241   2.688   1.849  10.221  1.1185  2.3153  3.1599
  528MOL0     H71242   3.005   1.768  10.341 -1.3670  0.2988 -1.3081
  528MOL0     H71243   3.249   1.748  10.417 -0.2328  1.2975  1.1889
  528MOL0     H71244   3.575   1.793  10.198 -3.1584 -3.0095  2.7753
  528MOL0     H71245   3.560   1.970  10.168  3.6016  0.2771  1.1768
  528MOL0     H71246   3.656   2.027  10.377  3.1961 -0.1268  4.4552
  528MOL0     H71247   3.688   1.849  10.414  0.5151 -0.5214 -1.5987
  528MOL0     H71248   3.819   1.847  10.181  0.7680  0.9816 -1.4187
  528MOL0     H71249   3.794   2.012  10.180 -0.4110 -0.7677 -0.8672
  528MOL0     H71250   3.914   1.892  10.432 -2.4370  0.1968 -0.1556
  528MOL0     H71251   3.968   2.049  10.362 -2.2845  1.5486 -2.4699
  528MOL0     H71252   4.053   1.947  10.177  0.2815 -0.0790 -0.0675
  528MOL0     H71253   4.032   1.784  10.240 -0.0777  0.7030 -3.2341
  528MOL0     H71254   4.221   1.976  10.384 -1.7888 -0.2677  1.5257
  528MOL0     H71255   4.183   1.804  10.422 -0.0918 -0.3530  1.1278
  528MOL0     H71256   4.338   1.907  10.182 -2.5729 -1.4397 -1.9974
  528MOL0     H71257   4.281   1.736  10.199 -1.3093  0.0343  0.9926
  528MOL0     H71258   4.508   1.772  10.255 -1.6009  2.4017 -1.9437
  528MOL0     H71259   4.462   1.869  10.401 -0.3418  0.1157 -0.6234
  528MOL0     H71260   3.350   2.015  10.085 -1.3987 -1.3184 -1.8385
  528MOL0     H71261   3.114   2.035  10.035 -3.9442 -1.0560  1.0480
  528MOL0     H71262   2.673   2.235  10.044  0.6723  0.9353 -0.8146
  528MOL0     H71263   2.431   2.221  10.021  1.1375  1.1041 -1.4474
  528MOL0     H71264   3.182   2.288  11.400 -1.4632 -0.5615 -0.9585
  528MOL0     H71265   3.407   2.175  11.400  2.2265  1.2170 -0.7234
  528MOL0     H71266   3.786   2.200  11.155 -5.4317 -1.8497  1.3530
  528MOL0     H71267   4.048   2.148  11.106 -0.8119  0.2388 -3.4455
  528MOL0     H71268   4.176   1.747  11.010  0.0224 -0.2113  0.5606
  528MOL0     H71269   4.163   1.757  11.182  1.9662 -3.1376 -1.3353
  528MOL0     H71270   4.387   1.726  11.160  1.8568  1.5568  1.4279
  528MOL0     H71271   4.366   1.895  11.182  0.6163 -0.4092 -0.2750
  528MOL0     H71272   4.387   1.937  10.941 -2.3931  0.3003  0.9461
  528MOL0     H71273   4.372   1.767  10.899 -0.6788  0.3240  0.0883
  528MOL0     H71274   4.598   1.923  11.038 -1.2708  0.8590 -0.0588
  528MOL0     H71275   4.577   1.741  11.038 -3.3046 -0.6102 -1.0567
  528MOL0     H71276   4.706   1.820  10.637 -0.3985  0.2100 -1.1227
  528MOL0     H71277   3.953   1.747  11.049 -0.8476 -0.6984  0.2927
  528MOL0     H71278   3.598   1.761  11.019 -1.2066 -1.9352 -1.4677
  528MOL0     H71279   3.744   1.667  11.028  0.4717  0.6754  0.0573
  528MOL0     H71280   3.660   1.719  11.179  2.5986 -1.7096 -1.2086
  529MOL0     O71281   6.071   5.214   5.027  0.1713  0.2237  0.0997
  529MOL0     C71282   6.011   5.304   5.097 -0.5500 -0.0871  0.7640
  529MOL0     O71283   6.053   5.438   5.102 -0.0065  0.3253  0.0078
  529MOL0     C71284   6.174   5.467   5.042  0.0843 -0.0638 -0.7480
  529MOL0     C71285   6.176   5.525   4.916 -0.1596  0.1150  1.4870
  529MOL0     C71286   6.294   5.571   4.864  1.1163 -0.0949  1.0968
  529MOL0     C71287   6.417   5.540   4.922  1.0309 -0.0057  0.1749
  529MOL0     O71288   6.535   5.589   4.870  0.7292  0.0796 -0.1230
  529MOL0     C71289   6.544   5.663   4.747  0.0137  0.2991 -0.2264
  529MOL0     C71290   6.691   5.711   4.717 -0.2080 -0.8694 -0.8133
  529MOL0     C71291   6.745   5.779   4.842 -0.4562  0.1050  0.7116
  529MOL0     C71292   6.891   5.820   4.827  0.2850  0.5515 -0.0830
  529MOL0     C71293   6.953   5.890   4.947  0.3164 -1.0290 -0.2396
  529MOL0     C71294   7.105   5.905   4.938 -0.2224 -0.4308  0.3870
  529MOL0     C71295   7.158   5.989   4.824  0.0286 -0.0607 -0.8531
  529MOL0     C71296   7.312   6.002   4.825 -0.0192 -0.6598 -0.0806
  529MOL0     N71297   7.359   6.087   4.940  0.3629 -0.1608 -0.8278
  529MOL0     C71298   7.432   6.200   4.921 -0.5429  0.2712 -0.1175
  529MOL0     C71299   7.472   6.234   5.046 -0.5397  0.4777 -0.0808
  529MOL0     C71300   7.573   6.343   5.095 -0.5915 -0.1224 -0.2963
  529MOL0     C71301   7.702   6.285   5.151 -0.2202  0.4285  0.6203
  529MOL0     C71302   7.794   6.392   5.222 -0.0487  0.2337 -0.7024
  529MOL0     C71303   7.879   6.306   5.312  0.1503  0.1570 -0.1169
  529MOL0     O71304   7.985   6.397   5.350  0.2577  0.3815 -0.0579
  529MOL0     C71305   8.071   6.362   5.448 -0.4822  0.9862 -0.7664
  529MOL0     C71306   8.074   6.245   5.521 -0.0306 -0.3037  0.0912
  529MOL0     C71307   8.173   6.215   5.615  0.7848 -0.0914 -0.2420
  529MOL0     C71308   8.271   6.304   5.645 -0.5150 -1.3897  0.0833
  529MOL0     C71309   8.369   6.272   5.750 -0.6739 -0.8097 -0.2767
  529MOL0     O71310   8.435   6.377   5.809 -0.0579  0.3784 -0.1964
  529MOL0     C71311   8.547   6.345   5.871 -0.5533  0.1636 -0.1890
  529MOL0     C71312   8.649   6.277   5.796  0.1135 -0.0507 -0.1883
  529MOL0     C71313   8.783   6.264   5.860 -0.1464  0.0224 -0.3471
  529MOL0     C71314   8.820   6.323   5.991  0.5074  0.4087  0.3448
  529MOL0     O71315   8.950   6.334   6.029 -0.2720  0.2181 -0.4667
  529MOL0     C71316   8.991   6.423   6.137  0.0724 -0.6703  0.6917
  529MOL0     C71317   9.128   6.471   6.134  0.2385  0.6028 -0.8494
  529MOL0     C71318   9.221   6.377   6.046  0.5170  0.4096 -0.6952
  529MOL0     C71319   9.369   6.429   6.041 -0.2025 -0.0006 -0.1069
  529MOL0     C71320   9.461   6.314   5.980 -0.1961  0.3354  0.0090
  529MOL0     C71321   9.432   6.270   5.841 -0.7211  0.6987 -0.1301
  529MOL0     C71322   9.488   6.379   5.746 -0.0452 -0.1890 -0.6959
  529MOL0     C71323   9.441   6.354   5.602  0.6680 -0.0745 -0.1917
  529MOL0    Cl71324   9.548   6.469   5.508  0.2984  0.3985 -0.0104
  529MOL0     C71325   8.712   6.384   6.052 -0.6420 -0.8597  0.6901
  529MOL0     C71326   8.585   6.403   5.989  0.4756  0.8714 -1.0005
  529MOL0     O71327   8.374   6.157   5.785  0.1777 -0.5443 -0.4092
  529MOL0     C71328   8.268   6.424   5.579 -0.1851 -0.7899  0.3160
  529MOL0     C71329   8.175   6.446   5.479 -0.3012  0.4451 -0.6230
  529MOL0     N71330   7.423   6.142   5.134 -0.0987 -0.8590 -0.1219
  529MOL0     N71331   7.364   6.046   5.065 -0.6485  0.0947  0.5163
  529MOL0     C71332   6.414   5.471   5.044  0.1797  0.0806 -0.6937
  529MOL0     C71333   6.286   5.439   5.104  0.6356 -0.0481  0.0671
  529MOL0     C71334   5.872   5.257   5.135 -0.1212  0.1666 -0.2736
  529MOL0     C71335   5.847   5.251   5.277  0.9062 -0.6895 -0.0847
  529MOL0     C71336   5.716   5.232   5.325  0.3794  0.4396 -0.2761
  529MOL0     C71337   5.609   5.201   5.235 -0.2070  0.0517  0.1492
  529MOL0     O71338   5.481   5.164   5.270  0.5458  0.4136  0.4210
  529MOL0     C71339   5.447   5.129   5.404  0.3330  0.1015 -0.2087
  529MOL0     C71340   5.494   4.989   5.433  0.1766  0.1568 -0.4129
  529MOL0     C71341   5.425   4.894   5.339 -0.3799  0.0751 -0.5971
  529MOL0     C71342   5.432   4.750   5.398 -0.0472 -0.2687 -0.5732
  529MOL0     C71343   5.385   4.664   5.282  0.1674  0.1996 -0.0959
  529MOL0     C71344   5.357   4.587   5.188 -0.5030 -1.0312 -0.7270
  529MOL0     C71345   5.640   5.207   5.096 -0.1651 -0.4695 -0.8395
  529MOL0     C71346   5.764   5.233   5.046  0.8647 -0.3722 -0.2436
  529MOL0     C71347   5.787   5.244   4.897 -0.1834  0.0202  1.4118
  529MOL0     H71348   6.084   5.536   4.859 -1.0709  1.5135  3.1384
  529MOL0     H71349   6.297   5.616   4.765 -4.7518  0.3483  0.7582
  529MOL0     H71350   6.507   5.607   4.660  1.0672  0.5439 -0.8428
  529MOL0     H71351   6.481   5.753   4.750 -2.0161 -1.0765  0.2969
  529MOL0     H71352   6.681   5.788   4.640 -0.5741  1.7695  1.6895
  529MOL0     H71353   6.759   5.633   4.679  2.0223 -0.9719  2.9179
  529MOL0     H71354   6.730   5.738   4.942  0.0265  3.8010  2.4777
  529MOL0     H71355   6.682   5.868   4.833 -1.9411 -1.0746 -1.2777
  529MOL0     H71356   6.944   5.729   4.800 -0.8450  0.2179 -1.2969
  529MOL0     H71357   6.898   5.863   4.727 -1.3068 -3.0236 -1.9271
  529MOL0     H71358   6.919   5.994   4.944  2.0623 -0.4144  0.1061
  529MOL0     H71359   6.934   5.833   5.039 -0.7061 -3.2541 -1.7283
  529MOL0     H71360   7.124   5.966   5.027  0.6370 -0.1273  0.0021
  529MOL0     H71361   7.155   5.808   4.947 -0.0564 -0.3162  0.7337
  529MOL0     H71362   7.115   6.090   4.822  0.7341  0.2679  0.0489
  529MOL0     H71363   7.131   5.945   4.727 -0.7293  0.9590 -1.1265
  529MOL0     H71364   7.348   5.899   4.830  0.8072 -0.3870 -0.4059
  529MOL0     H71365   7.352   6.037   4.730 -1.7755 -1.1486 -1.0433
  529MOL0     H71366   7.440   6.242   4.821 -4.6166 -0.3101 -0.8794
  529MOL0     H71367   7.583   6.413   5.012 -0.9747  1.4295  0.9155
  529MOL0     H71368   7.532   6.406   5.175 -0.9008 -2.1071  1.2040
  529MOL0     H71369   7.666   6.208   5.220 -0.3861  1.0563  1.2382
  529MOL0     H71370   7.762   6.232   5.077  1.7547  2.2134  0.8329
  529MOL0     H71371   7.732   6.456   5.286 -1.5838 -1.7506 -0.1323
  529MOL0     H71372   7.844   6.438   5.136 -1.0105  1.6071 -0.5648
  529MOL0     H71373   7.917   6.218   5.260 -0.5758 -0.1160 -0.1954
  529MOL0     H71374   7.823   6.271   5.398 -1.0328 -1.6646 -1.5612
  529MOL0     H71375   7.998   6.168   5.517 -3.5002  2.6121  2.8268
  529MOL0     H71376   8.153   6.123   5.669 -1.5355 -0.2385 -1.2017
  529MOL0     H71377   8.628   6.227   5.702 -2.3220 -0.2343  0.3986
  529MOL0     H71378   8.855   6.204   5.804 -1.1001 -0.6958 -0.8275
  529MOL0     H71379   8.931   6.514   6.139  0.7819 -0.1721 -0.0292
  529MOL0     H71380   8.971   6.372   6.232 -1.9539 -0.0669  0.6356
  529MOL0     H71381   9.127   6.572   6.093 -1.1003  2.0881  2.4649
  529MOL0     H71382   9.170   6.477   6.235 -1.6524  0.9873 -0.0477
  529MOL0     H71383   9.216   6.271   6.073  1.7817  0.5912  0.3393
  529MOL0     H71384   9.183   6.384   5.944 -0.3112 -3.1007 -0.7776
  529MOL0     H71385   9.406   6.452   6.141 -0.6735  2.9292 -0.5122
  529MOL0     H71386   9.354   6.525   5.991 -1.5777 -0.5925 -0.8887
  529MOL0     H71387   9.463   6.230   6.051 -0.3807 -0.7400 -1.2141
  529MOL0     H71388   9.561   6.357   5.990  0.4828 -1.5006  1.7217
  529MOL0     H71389   9.479   6.174   5.821  1.1903  1.8395 -1.4249
  529MOL0     H71390   9.326   6.254   5.820 -0.2501 -0.6377 -1.6731
  529MOL0     H71391   9.597   6.380   5.747  0.0260  1.1644 -2.9484
  529MOL0     H71392   9.455   6.477   5.783  0.0367 -0.7347  0.9019
  529MOL0     H71393   9.454   6.250   5.574  1.5183 -0.4050  1.2999
  529MOL0     H71394   9.339   6.392   5.595 -0.3040 -2.6423 -0.6901
  529MOL0     H71395   8.729   6.425   6.151  1.9956  0.8951 -0.3800
  529MOL0     H71396   8.510   6.469   6.031  0.7614  0.7638 -0.3118
  529MOL0     H71397   8.349   6.496   5.587 -0.2712 -0.7159  0.5068
  529MOL0     H71398   8.177   6.527   5.407  0.9910 -0.5696 -1.7990
  529MOL0     H71399   6.510   5.449   5.089  0.7786 -2.1706 -2.8777
  529MOL0     H71400   6.267   5.390   5.199  0.4547 -0.3130 -0.1033
  529MOL0     H71401   5.928   5.277   5.345  0.3798 -2.3228  1.2206
  529MOL0     H71402   5.703   5.233   5.433 -0.6966 -1.1672 -0.3507
  529MOL0     H71403   5.339   5.137   5.423  0.2447 -0.9755 -0.2064
  529MOL0     H71404   5.483   5.199   5.480  0.2821  0.8301 -0.8400
  529MOL0     H71405   5.488   4.963   5.540 -0.7178  1.3670 -0.1508
  529MOL0     H71406   5.601   4.984   5.413  0.8564  0.6627  2.5876
  529MOL0     H71407   5.461   4.894   5.236  1.2080 -0.6665 -0.0773
  529MOL0     H71408   5.321   4.927   5.341 -0.5216 -0.3290  1.2719
  529MOL0     H71409   5.531   4.717   5.431 -1.2376 -2.5039  1.0033
  529MOL0     H71410   5.372   4.729   5.487 -0.1273  2.5198  0.1382
  529MOL0     H71411   5.331   4.515   5.113  2.1414  0.7851 -3.6443
  529MOL0     H71412   5.560   5.190   5.025 -1.2341  0.9703 -0.0474
  529MOL0     H71413   5.721   5.321   4.855  2.4577  0.4108 -2.5257
  529MOL0     H71414   5.890   5.273   4.875 -0.8110  0.6710 -0.8616
  529MOL0     H71415   5.771   5.147   4.850 -1.6396 -0.7148  3.2775
  530MOL0     O71416   6.860   5.636  11.346 -0.4676 -0.3572  0.4102
  530MOL0     C71417   6.890   5.731  11.274  0.0732 -0.0078 -0.0327
  530MOL0     O71418   7.011   5.791  11.275  0.7905 -0.4042  0.6859
  530MOL0     C71419   7.113   5.734  11.347 -1.2826 -0.0293 -0.1800
  530MOL0     C71420   7.150   5.595  11.355  0.1548 -0.2281  0.0786
  530MOL0     C71421   7.253   5.553  11.432  0.1314  0.3652 -0.4114
  530MOL0     C71422   7.344   5.642  11.492 -0.5548  0.0520  0.4981
  530MOL0     O71423   7.463   5.611  11.561 -0.1737 -0.1260 -0.1462
  530MOL0     C71424   7.464   5.488  11.633 -0.4850 -0.0429  0.0996
  530MOL0     C71425   7.601   5.465  11.695  0.0519  0.3419 -0.0402
  530MOL0     C71426   7.711   5.424  11.602 -0.2552  0.3904 -0.2511
  530MOL0     C71427   7.842   5.398  11.673  0.3305  0.0607  0.3811
  530MOL0     C71428   7.955   5.337  11.590 -0.5287 -0.8330  0.1859
  530MOL0     C71429   8.083   5.317  11.672 -0.6753 -0.0864 -0.1059
  530MOL0     C71430   8.152   5.446  11.721 -0.4461 -1.3638 -0.0969
  530MOL0     C71431   8.289   5.421  11.791 -0.3738  0.1196  0.2781
  530MOL0     N71432   8.377   5.341  11.719  0.4272 -0.1072  0.6556
  530MOL0     C71433   8.497   5.385  11.663  0.3799 -0.1192  0.1209
  530MOL0     C71434   8.568   5.269  11.632  0.3800 -1.7135 -0.2775
  530MOL0     C71435   8.703   5.258  11.568 -0.0303 -0.3297  0.1306
  530MOL0     C71436   8.809   5.278  11.683  0.0908  0.1033 -0.8155
  530MOL0     C71437   8.848   5.430  11.709  0.6862  0.0746  0.6505
  530MOL0     C71438   8.935   5.443  11.832 -0.0005  0.0187 -1.2399
  530MOL0     O71439   9.054   5.369  11.814  0.1499 -1.0259  0.8535
  530MOL0     C71440   9.154   5.375  11.908  0.2859  0.5616 -0.3997
  530MOL0     C71441   9.141   5.440  12.025 -0.0157 -0.8234 -0.6511
  530MOL0     C71442   9.257   5.448  12.109 -0.4853 -0.0017 -0.2265
  530MOL0     C71443   9.380   5.392  12.078  0.2115  0.7109  0.4872
  530MOL0     C71444   9.483   5.398  12.185 -0.2048  0.2067  0.7185
  530MOL0     O71445   9.438   5.436  12.313 -0.1559 -0.0786  0.1603
  530MOL0     C71446   9.531   5.447  12.421  0.4664  0.5956 -0.3269
  530MOL0     C71447   9.671   5.425  12.428 -0.9487 -0.0109  0.5046
  530MOL0     C71448   9.753   5.423  12.543  0.2233  1.4390 -0.2456
  530MOL0     C71449   9.703   5.461  12.664  0.0012 -0.2054 -0.1312
  530MOL0     O71450   9.782   5.452  12.778  0.0009 -0.0631  0.2023
  530MOL0     C71451   9.764   5.549  12.883 -0.3075  0.1005 -0.0526
  530MOL0     C71452   9.861   5.527  13.000  0.5188  0.0754 -0.0193
  530MOL0     C71453  10.007   5.530  12.954 -0.3927  0.2441  0.4815
  530MOL0     C71454  10.097   5.576  13.071 -0.8495  0.2869  0.4200
  530MOL0     C71455  10.244   5.567  13.036 -0.5838 -0.4087  0.9928
  530MOL0     C71456  10.323   5.587  13.168 -0.0707  0.1932 -0.4065
  530MOL0     C71457  10.461   5.536  13.151 -0.6869  0.1311 -0.8061
  530MOL0     C71458  10.532   5.609  13.045 -1.0197 -0.2473 -0.5687
  530MOL0    Cl71459  10.707   5.563  13.025  0.0100  0.0846 -0.3723
  530MOL0     C71460   9.564   5.495  12.662 -0.6038 -0.0540 -0.5254
  530MOL0     C71461   9.482   5.484  12.542 -0.5754 -1.3688 -0.4910
  530MOL0     O71462   9.598   5.353  12.148 -0.2975  0.3939 -0.0092
  530MOL0     C71463   9.391   5.317  11.957  0.1675  0.2282 -0.1837
  530MOL0     C71464   9.276   5.317  11.875  0.3738 -0.2329  0.3800
  530MOL0     N71465   8.494   5.161  11.677  0.2751  0.1940  0.6306
  530MOL0     N71466   8.384   5.205  11.731 -1.0274  0.7391  0.4043
  530MOL0     C71467   7.308   5.781  11.491  0.4762 -0.3625 -0.3650
  530MOL0     C71468   7.191   5.829  11.420  0.5370 -0.3767  0.4534
  530MOL0     C71469   6.779   5.799  11.192 -0.6998 -0.1374 -0.5300
  530MOL0     C71470   6.812   5.935  11.156  0.1881 -0.0536  0.5191
  530MOL0     C71471   6.715   6.017  11.108 -0.7649 -0.6188  0.4328
  530MOL0     C71472   6.589   5.978  11.077  0.9189 -0.0402 -0.4728
  530MOL0     O71473   6.494   6.049  11.019  0.0550  0.1269  0.1130
  530MOL0     C71474   6.529   6.161  10.933 -0.2784  0.2429  0.7856
  530MOL0     C71475   6.404   6.171  10.835  0.6020 -0.1040 -0.0517
  530MOL0     C71476   6.365   6.043  10.761 -0.4047 -1.0146  0.8526
  530MOL0     C71477   6.477   6.000  10.659  0.3634 -0.6348 -0.1295
  530MOL0     C71478   6.439   5.888  10.570 -0.5775 -0.2386 -0.7997
  530MOL0     C71479   6.412   5.808  10.476 -0.5658  0.0671  0.2662
  530MOL0     C71480   6.550   5.849  11.117  0.4197 -0.5566  0.3611
  530MOL0     C71481   6.642   5.756  11.176 -0.4822 -0.3145  0.4807
  530MOL0     C71482   6.583   5.625  11.225  0.3363 -0.3367 -0.0618
  530MOL0     H71483   7.090   5.517  11.310 -0.0026  0.9489 -1.8579
  530MOL0     H71484   7.259   5.447  11.455 -0.5180  0.7542  1.8104
  530MOL0     H71485   7.382   5.486  11.705 -1.1228 -2.2312 -0.6046
  530MOL0     H71486   7.436   5.413  11.558  0.6019  1.1312 -1.5428
  530MOL0     H71487   7.580   5.380  11.761 -0.0815 -0.4431 -1.0708
  530MOL0     H71488   7.635   5.555  11.747  1.7293 -0.9092  1.1304
  530MOL0     H71489   7.714   5.498  11.521  2.6870 -1.8184 -2.3636
  530MOL0     H71490   7.682   5.332  11.551 -7.3898  2.6094 -1.3492
  530MOL0     H71491   7.882   5.489  11.718  2.4553 -0.1077 -1.0189
  530MOL0     H71492   7.822   5.322  11.748  1.5811  0.2051  0.8816
  530MOL0     H71493   7.918   5.243  11.549 -1.4818 -0.4613  0.1613
  530MOL0     H71494   7.995   5.400  11.510  0.3684 -0.7551  0.6757
  530MOL0     H71495   8.060   5.263  11.764 -0.9142  2.1530  1.2326
  530MOL0     H71496   8.160   5.262  11.618  0.2230  1.4586 -0.4653
  530MOL0     H71497   8.090   5.500  11.792  0.0227 -0.7083 -0.1768
  530MOL0     H71498   8.174   5.516  11.639 -1.4457 -0.5064  0.3398
  530MOL0     H71499   8.333   5.516  11.822  0.2829 -0.1956  0.3324
  530MOL0     H71500   8.271   5.378  11.890  4.0206 -0.9388  0.7963
  530MOL0     H71501   8.538   5.485  11.669  2.1360 -0.7740 -0.2595
  530MOL0     H71502   8.715   5.162  11.517  2.0814 -0.5313  0.9221
  530MOL0     H71503   8.724   5.332  11.490 -3.7391  1.1242  0.2934
  530MOL0     H71504   8.789   5.220  11.774  1.1566 -0.0671 -0.6722
  530MOL0     H71505   8.898   5.226  11.645  0.5676 -0.6430  1.1759
  530MOL0     H71506   8.755   5.485  11.725  0.2155  0.3651 -2.3775
  530MOL0     H71507   8.900   5.475  11.623 -1.2749 -0.0553 -0.6765
  530MOL0     H71508   8.877   5.397  11.912 -0.4909 -1.7979 -2.5860
  530MOL0     H71509   8.951   5.550  11.850  1.7462 -0.4973  0.7490
  530MOL0     H71510   9.051   5.484  12.067  0.1897  2.5768 -3.3748
  530MOL0     H71511   9.238   5.502  12.202 -1.4241 -1.4068  0.4244
  530MOL0     H71512   9.725   5.411  12.335 -2.1334  1.3224 -0.4264
  530MOL0     H71513   9.855   5.387  12.535  0.2457  1.4008  0.1893
  530MOL0     H71514   9.782   5.649  12.844  0.9130  0.3348  1.0424
  530MOL0     H71515   9.665   5.547  12.929  0.2407 -1.1655  1.1479
  530MOL0     H71516   9.842   5.606  13.073 -2.9457  1.5425 -2.2659
  530MOL0     H71517   9.840   5.430  13.045 -1.9851 -0.4549 -2.0787
  530MOL0     H71518  10.026   5.424  12.936  0.8037  0.0836  2.4428
  530MOL0     H71519  10.030   5.586  12.862  0.7749 -0.9803 -0.0032
  530MOL0     H71520  10.080   5.515  13.161 -2.1893  0.1183  0.0750
  530MOL0     H71521  10.067   5.679  13.092 -3.4587  0.4633 -3.3393
  530MOL0     H71522  10.266   5.641  12.959  1.0152 -2.4258 -0.5844
  530MOL0     H71523  10.259   5.473  12.984 -0.4014  0.2776 -0.2170
  530MOL0     H71524  10.310   5.691  13.200  1.2042  0.2583 -0.0436
  530MOL0     H71525  10.279   5.515  13.238  0.8652 -0.3188 -0.3357
  530MOL0     H71526  10.458   5.427  13.141 -0.3929  0.0878 -0.4641
  530MOL0     H71527  10.528   5.545  13.238 -1.0637 -0.8250 -0.4088
  530MOL0     H71528  10.485   5.578  12.951 -0.6439  0.0180 -0.8452
  530MOL0     H71529  10.525   5.718  13.046 -0.4521 -0.2115 -0.0761
  530MOL0     H71530   9.508   5.512  12.753  1.7546  1.3141  0.7803
  530MOL0     H71531   9.379   5.517  12.542  0.2913  1.5549 -0.5128
  530MOL0     H71532   9.477   5.260  11.925 -0.0718 -0.1263 -0.2064
  530MOL0     H71533   9.301   5.262  11.784  0.0319  1.5668 -0.8539
  530MOL0     H71534   7.372   5.861  11.526 -0.3769  1.6001 -2.9750
  530MOL0     H71535   7.164   5.934  11.419 -0.6284 -0.6197  2.3508
  530MOL0     H71536   6.899   5.986  11.195 -0.8434  0.9136  1.6462
  530MOL0     H71537   6.735   6.121  11.083 -0.7559 -0.3530  1.4880
  530MOL0     H71538   6.617   6.127  10.878 -0.4210 -1.4360  1.5385
  530MOL0     H71539   6.551   6.252  10.988  2.5186 -1.8236  3.4307
  530MOL0     H71540   6.421   6.254  10.766 -1.7086  0.9850  0.5725
  530MOL0     H71541   6.317   6.201  10.895  1.2957 -1.2725  1.6327
  530MOL0     H71542   6.270   6.064  10.710 -1.3487 -1.6213  2.2988
  530MOL0     H71543   6.348   5.960  10.830 -0.8507 -0.4309  1.4672
  530MOL0     H71544   6.522   6.088  10.612 -0.2209 -1.1706 -1.7471
  530MOL0     H71545   6.556   5.961  10.724  0.4638  1.0577  0.8271
  530MOL0     H71546   6.394   5.749  10.388 -0.3738 -0.3024  0.4764
  530MOL0     H71547   6.449   5.816  11.094 -0.6892 -0.0370  3.8970
  530MOL0     H71548   6.504   5.585  11.161 -1.9931  2.6182  0.7029
  530MOL0     H71549   6.661   5.550  11.237  0.8086 -0.6965 -4.1198
  530MOL0     H71550   6.542   5.656  11.322 -2.9603  0.9311 -1.6911
  531MOL0     O71551   6.193   5.794   7.455 -0.1525  0.2710 -0.0951
  531MOL0     C71552   6.130   5.838   7.356 -0.1972 -0.6978 -1.1502
  531MOL0     O71553   6.177   5.943   7.280 -0.0031 -0.7361  0.3790
  531MOL0     C71554   6.296   6.002   7.314 -0.5409  0.3029  0.2278
  531MOL0     C71555   6.419   5.936   7.294 -0.3868  1.2806  0.1833
  531MOL0     C71556   6.527   6.015   7.327 -0.2369  0.8716 -0.3122
  531MOL0     C71557   6.522   6.149   7.364  0.2064  0.1846 -0.7023
  531MOL0     O71558   6.628   6.222   7.400  0.4564 -0.1464 -0.2616
  531MOL0     C71559   6.733   6.147   7.466  0.6613 -0.4453 -0.5801
  531MOL0     C71560   6.837   6.238   7.525 -0.0181 -0.4645 -0.5442
  531MOL0     C71561   6.904   6.330   7.429  0.6570 -0.5676  0.9883
  531MOL0     C71562   7.021   6.399   7.498 -0.5025  0.3513 -0.7798
  531MOL0     C71563   7.067   6.518   7.410  0.1053  0.2990  0.3307
  531MOL0     C71564   7.162   6.611   7.491 -0.5503  0.5445  0.3763
  531MOL0     C71565   7.286   6.554   7.557  0.3950 -0.4084  0.7773
  531MOL0     C71566   7.396   6.520   7.456 -0.1485 -0.2182  0.7817
  531MOL0     N71567   7.444   6.641   7.390  0.3530 -0.3031  0.3587
  531MOL0     C71568   7.475   6.629   7.257  0.2097 -0.0472  1.2058
  531MOL0     C71569   7.510   6.758   7.219  0.4088  0.3686  0.0370
  531MOL0     C71570   7.573   6.788   7.093 -0.0665  0.7549 -1.3206
  531MOL0     C71571   7.549   6.939   7.071  1.0067  0.3597  1.4217
  531MOL0     C71572   7.615   6.971   6.941 -0.3156  0.0648 -0.6991
  531MOL0     C71573   7.754   7.029   6.969 -0.6251  0.1279  0.2944
  531MOL0     O71574   7.824   7.060   6.838  0.1340 -0.0305 -0.4194
  531MOL0     C71575   7.961   7.067   6.842  0.3101  0.0924 -0.3178
  531MOL0     C71576   8.027   7.063   6.719 -0.7737 -0.0562 -0.7784
  531MOL0     C71577   8.162   7.067   6.703  1.1562 -0.1977  0.5566
  531MOL0     C71578   8.240   7.075   6.821  0.1651 -0.7115  0.3975
  531MOL0     C71579   8.385   7.060   6.815 -0.4414  0.2920  0.4039
  531MOL0     O71580   8.460   7.113   6.918 -0.5009  0.3520  0.3903
  531MOL0     C71581   8.597   7.104   6.921  0.6270  0.6313  0.1272
  531MOL0     C71582   8.654   7.134   7.051 -0.8203  0.6992 -0.5818
  531MOL0     C71583   8.798   7.127   7.074 -0.3986 -0.0349  0.8093
  531MOL0     C71584   8.885   7.098   6.967  0.5603  0.8335 -0.8858
  531MOL0     O71585   9.025   7.089   6.986 -0.5816 -0.4253  0.2530
  531MOL0     C71586   9.090   7.154   7.104  0.4156 -0.4162  0.5439
  531MOL0     C71587   9.233   7.150   7.086  0.1029  0.0808 -0.2536
  531MOL0     C71588   9.302   7.213   7.208  0.5907  0.3595  0.3344
  531MOL0     C71589   9.454   7.186   7.213 -0.8193 -0.0690  0.5458
  531MOL0     C71590   9.497   7.055   7.273  1.2630 -0.0553  0.8167
  531MOL0     C71591   9.644   7.044   7.284 -0.4529 -0.5174 -0.5217
  531MOL0     C71592   9.690   6.922   7.356  0.6421 -0.6352  0.9377
  531MOL0     C71593   9.841   6.910   7.387  0.6147  0.6077 -0.1370
  531MOL0    Cl71594   9.947   6.962   7.253 -0.2634 -0.1064 -0.5000
  531MOL0     C71595   8.825   7.075   6.838  0.3514 -0.3476 -0.8999
  531MOL0     C71596   8.684   7.081   6.813 -0.7666  0.9380  0.3195
  531MOL0     O71597   8.425   7.002   6.710 -0.2646  0.1617 -0.0086
  531MOL0     C71598   8.182   7.084   6.943  0.5791 -0.3220  0.2943
  531MOL0     C71599   8.041   7.075   6.956 -0.2584  0.0462  0.1684
  531MOL0     N71600   7.465   6.849   7.311 -0.2152  0.9350  0.6581
  531MOL0     N71601   7.431   6.773   7.419  0.0946  0.8519  0.1611
  531MOL0     C71602   6.399   6.208   7.380  1.2765  0.4516  0.2336
  531MOL0     C71603   6.283   6.136   7.354  0.9023 -0.2241 -0.0337
  531MOL0     C71604   6.017   5.764   7.283  0.3296  0.2472 -0.1713
  531MOL0     C71605   5.950   5.814   7.170 -0.1064 -0.3500  0.4864
  531MOL0     C71606   5.843   5.753   7.120  0.4398  0.1817  0.5451
  531MOL0     C71607   5.788   5.635   7.170 -0.3924 -0.6701 -0.1171
  531MOL0     O71608   5.679   5.584   7.110 -0.2268 -1.0054 -0.0049
  531MOL0     C71609   5.617   5.463   7.165  0.2484 -0.7734 -0.3804
  531MOL0     C71610   5.480   5.447   7.113 -0.5479 -0.2772  0.4093
  531MOL0     C71611   5.442   5.295   7.106 -0.3510  0.0302  0.6677
  531MOL0     C71612   5.290   5.276   7.110  0.3536 -0.1125  0.2286
  531MOL0     C71613   5.265   5.141   7.149 -0.5419  0.1476 -0.6727
  531MOL0     C71614   5.206   5.034   7.191 -0.4878 -0.6781 -0.5715
  531MOL0     C71615   5.859   5.575   7.272  0.8721 -0.2611  0.7584
  531MOL0     C71616   5.971   5.638   7.329 -0.8051 -0.2976 -0.2676
  531MOL0     C71617   6.027   5.579   7.461  0.1146  0.4293 -0.6748
  531MOL0     H71618   6.425   5.833   7.258  1.4636  1.8682 -1.3910
  531MOL0     H71619   6.624   5.971   7.305 -0.3073  1.8461 -2.8159
  531MOL0     H71620   6.685   6.083   7.540  2.0715  0.5879  1.3399
  531MOL0     H71621   6.789   6.089   7.391 -0.0681 -3.2725  0.9048
  531MOL0     H71622   6.917   6.183   7.577 -0.6243  0.5946  1.6412
  531MOL0     H71623   6.799   6.310   7.598  1.9574  0.5178 -0.4157
  531MOL0     H71624   6.825   6.400   7.400  0.5539 -0.5354  1.3442
  531MOL0     H71625   6.931   6.277   7.337  0.1901  1.3550 -0.2980
  531MOL0     H71626   7.000   6.432   7.600  0.8680  0.1834 -0.4216
  531MOL0     H71627   7.102   6.327   7.511 -0.0302  1.4085  3.8893
  531MOL0     H71628   7.123   6.482   7.324  1.8858  2.0055  0.7030
  531MOL0     H71629   6.983   6.569   7.363  2.0208  3.5245  0.1120
  531MOL0     H71630   7.187   6.694   7.425 -2.6118  2.8501  2.2674
  531MOL0     H71631   7.091   6.658   7.560 -1.1023  2.3436 -1.3185
  531MOL0     H71632   7.261   6.464   7.614  1.9412 -3.3914 -2.8831
  531MOL0     H71633   7.322   6.616   7.640 -1.5975  1.1019  0.6087
  531MOL0     H71634   7.480   6.474   7.509  1.7241 -1.8643 -3.2319
  531MOL0     H71635   7.362   6.453   7.376  1.1134 -0.8528  0.7574
  531MOL0     H71636   7.500   6.547   7.191  1.6400  0.8663  0.5791
  531MOL0     H71637   7.679   6.762   7.100  0.6592  3.7243  1.1971
  531MOL0     H71638   7.516   6.722   7.028 -1.4562 -2.4871  2.7517
  531MOL0     H71639   7.442   6.961   7.071  0.9416  0.0499  0.9134
  531MOL0     H71640   7.590   7.006   7.147  1.3920  1.3496  0.3569
  531MOL0     H71641   7.570   7.048   6.878  0.6366  1.8008  0.6335
  531MOL0     H71642   7.619   6.885   6.874 -0.3850  2.1393 -3.5558
  531MOL0     H71643   7.815   6.962   7.030 -0.6664 -0.5947 -0.4404
  531MOL0     H71644   7.746   7.125   7.020  1.1206  0.0906  0.7041
  531MOL0     H71645   7.965   7.050   6.630  1.0909 -0.9063 -2.0203
  531MOL0     H71646   8.211   7.078   6.606 -2.5871  0.6973 -1.4522
  531MOL0     H71647   8.581   7.157   7.127 -1.7509 -3.6484  0.1077
  531MOL0     H71648   8.827   7.153   7.175 -0.5463  3.2047  0.1426
  531MOL0     H71649   9.056   7.256   7.124  0.5684 -0.6020  1.8565
  531MOL0     H71650   9.056   7.092   7.187  1.8180  0.3593  1.7268
  531MOL0     H71651   9.265   7.045   7.080 -1.7589 -0.5418  0.1417
  531MOL0     H71652   9.251   7.222   7.006 -3.9948  1.0158 -0.5729
  531MOL0     H71653   9.290   7.322   7.209 -0.5841  0.2518  0.9372
  531MOL0     H71654   9.256   7.172   7.299 -1.4251  2.6459  0.4701
  531MOL0     H71655   9.521   7.260   7.258 -0.8984  0.2601  0.1213
  531MOL0     H71656   9.476   7.180   7.106  2.8457  0.2867  1.1520
  531MOL0     H71657   9.447   6.974   7.219 -1.2924 -0.1841  3.1646
  531MOL0     H71658   9.455   7.048   7.374 -1.6051  0.8957 -0.2090
  531MOL0     H71659   9.680   7.042   7.180  1.6926  0.2840  0.1386
  531MOL0     H71660   9.696   7.127   7.334  1.5878 -2.3623  0.5568
  531MOL0     H71661   9.663   6.854   7.275 -0.9537  2.7831 -1.7050
  531MOL0     H71662   9.631   6.910   7.447 -1.4778  0.8925 -0.1478
  531MOL0     H71663   9.867   6.958   7.481 -0.0776 -0.2887  0.5272
  531MOL0     H71664   9.854   6.804   7.406  2.2845  0.6185 -1.0568
  531MOL0     H71665   8.890   7.039   6.759  0.2185 -0.7124 -0.8418
  531MOL0     H71666   8.656   7.043   6.715  3.1397 -1.7000 -0.0462
  531MOL0     H71667   8.242   7.092   7.034  2.8146 -0.7284 -1.0693
  531MOL0     H71668   8.000   7.086   7.056 -1.4690  0.9173 -0.3987
  531MOL0     H71669   6.404   6.314   7.403 -1.8500  0.4084  1.7088
  531MOL0     H71670   6.190   6.186   7.380  0.3209  0.9056 -3.6814
  531MOL0     H71671   5.992   5.904   7.128  4.6671 -1.0145  3.1521
  531MOL0     H71672   5.782   5.794   7.040  1.1623 -1.5536 -0.9516
  531MOL0     H71673   5.615   5.469   7.274  0.5243 -2.1265 -0.2799
  531MOL0     H71674   5.683   5.378   7.144  2.9360  1.0055  0.4331
  531MOL0     H71675   5.473   5.511   7.025  1.2055 -0.7139 -0.0797
  531MOL0     H71676   5.415   5.490   7.190 -3.2304 -3.1044 -0.0840
  531MOL0     H71677   5.491   5.261   7.198  3.2278 -1.3685 -1.5352
  531MOL0     H71678   5.485   5.236   7.024 -2.9629 -0.3308 -0.5469
  531MOL0     H71679   5.240   5.340   7.184  0.9264  0.9629 -0.2895
  531MOL0     H71680   5.243   5.297   7.014  1.7781  0.8574 -0.2835
  531MOL0     H71681   5.146   4.952   7.223  0.1091 -0.9698 -0.1814
  531MOL0     H71682   5.813   5.487   7.317  0.5995 -0.0723  0.8492
  531MOL0     H71683   6.025   5.660   7.534  1.4534 -0.6795  0.6656
  531MOL0     H71684   5.962   5.507   7.512  1.1325  0.4559  0.7161
  531MOL0     H71685   6.129   5.540   7.451 -0.4912 -2.0602  1.7263
  532MOL0     O71686   0.802   9.855   1.118 -0.1763  1.1074 -0.0060
  532MOL0     C71687   0.741   9.842   1.014  1.0915  0.1253  0.3768
  532MOL0     O71688   0.788   9.776   0.902  0.0319  0.2314 -0.0330
  532MOL0     C71689   0.926   9.757   0.910 -0.5110  0.8326 -0.3041
  532MOL0     C71690   0.973   9.641   0.979  0.1396  0.2751  0.3086
  532MOL0     C71691   1.103   9.602   0.976  0.1098 -0.4318  0.8223
  532MOL0     C71692   1.186   9.673   0.891  0.1532 -0.3651  0.0727
  532MOL0     O71693   1.322   9.632   0.891 -0.5744  0.4451  0.2422
  532MOL0     C71694   1.430   9.732   0.855  0.8987  1.0985 -0.3243
  532MOL0     C71695   1.565   9.668   0.842 -0.6873  0.8194  0.5136
  532MOL0     C71696   1.681   9.755   0.800 -0.3318  0.2465  0.3442
  532MOL0     C71697   1.805   9.689   0.746 -0.0685  0.1614  0.1714
  532MOL0     C71698   1.924   9.782   0.727  0.5990 -1.3455  1.0224
  532MOL0     C71699   2.051   9.712   0.671  0.0967  0.4442 -0.3802
  532MOL0     C71700   2.177   9.798   0.664 -0.3393  0.8668 -0.6583
  532MOL0     C71701   2.162   9.907   0.558 -0.0009 -0.4122 -0.8277
  532MOL0     N71702   2.263  10.012   0.586  0.1642  0.1319 -0.2947
  532MOL0     C71703   2.390  10.008   0.537 -1.0519 -0.2484 -0.5668
  532MOL0     C71704   2.449  10.131   0.570 -0.0019  0.2339  0.7176
  532MOL0     C71705   2.577  10.187   0.508  0.2341  1.0947  0.4844
  532MOL0     C71706   2.708  10.119   0.540 -0.2811  0.4534 -0.4094
  532MOL0     C71707   2.825  10.200   0.492 -0.7048 -0.1600  0.2753
  532MOL0     C71708   2.955  10.124   0.523 -0.6434 -0.2753  0.1899
  532MOL0     O71709   2.962  10.006   0.444 -1.0073 -0.2312  0.1030
  532MOL0     C71710   3.079   9.931   0.450  0.1006 -0.8058  0.5829
  532MOL0     C71711   3.075   9.810   0.377 -0.5336  0.7752  0.7387
  532MOL0     C71712   3.182   9.717   0.375 -0.0622  0.3123  0.4767
  532MOL0     C71713   3.297   9.733   0.448 -0.0449  0.4345 -0.4476
  532MOL0     C71714   3.408   9.627   0.454 -0.4663  0.0749 -0.6156
  532MOL0     O71715   3.530   9.666   0.514 -0.0024  0.1889  0.4604
  532MOL0     C71716   3.623   9.565   0.509  0.2834  0.1834  0.7284
  532MOL0     C71717   3.716   9.564   0.405 -0.2160  0.5204  0.0581
  532MOL0     C71718   3.828   9.469   0.397  0.3856 -1.7032 -0.1106
  532MOL0     C71719   3.850   9.381   0.498 -0.8972  0.5946 -0.3983
  532MOL0     O71720   3.944   9.284   0.477 -0.3087  0.3702  0.8465
  532MOL0     C71721   3.967   9.196   0.591 -0.4442  0.2858 -0.7509
  532MOL0     C71722   4.087   9.103   0.576  0.7011  0.0824  0.9509
  532MOL0     C71723   4.103   8.999   0.691 -0.6441  0.7468 -0.1125
  532MOL0     C71724   4.223   8.916   0.668  0.7319  1.1139 -0.3276
  532MOL0     C71725   4.217   8.773   0.726  0.2485 -1.4622 -0.0997
  532MOL0     C71726   4.348   8.696   0.715  0.4443  0.1868 -0.3398
  532MOL0     C71727   4.322   8.548   0.734  0.2418  0.0905 -0.1403
  532MOL0     C71728   4.288   8.496   0.866 -0.3347 -0.7941 -0.3150
  532MOL0    Cl71729   4.420   8.487   0.991 -0.2920  0.0902  0.1015
  532MOL0     C71730   3.763   9.383   0.605 -0.2328 -0.5901 -0.2532
  532MOL0     C71731   3.646   9.467   0.604 -0.5061  1.0066  1.0281
  532MOL0     O71732   3.385   9.514   0.409 -0.1443 -0.0525  0.5131
  532MOL0     C71733   3.304   9.857   0.522  0.1886  0.2221 -0.6410
  532MOL0     C71734   3.196   9.949   0.530 -0.6224 -1.0006 -0.0350
  532MOL0     N71735   2.354  10.203   0.645  0.7862  0.3102 -0.3388
  532MOL0     N71736   2.247  10.132   0.645  0.6697  0.4588 -0.1691
  532MOL0     C71737   1.139   9.795   0.829  0.0284 -0.3360 -0.8554
  532MOL0     C71738   1.008   9.839   0.847  0.2919  0.3582  0.1255
  532MOL0     C71739   0.592   9.870   1.011 -0.3767  0.2427  0.3558
  532MOL0     C71740   0.554   9.952   0.904 -0.7919 -0.0120  0.2072
  532MOL0     C71741   0.426   9.991   0.896 -0.1581 -0.9772  0.2724
  532MOL0     C71742   0.335   9.967   0.998  0.1889  0.5625  0.0770
  532MOL0     O71743   0.208  10.013   0.972 -0.9063 -1.1953  1.3894
  532MOL0     C71744   0.107   9.990   1.063  0.0461  0.7851  0.9077
  532MOL0     C71745   0.115  10.099   1.169 -1.0837 -1.2055 -0.5231
  532MOL0     C71746   0.002  10.128   1.262  0.4534  0.2357 -0.4426
  532MOL0     C71747  -0.031  10.016   1.365  0.5518  1.0009 -0.3230
  532MOL0     C71748  -0.153  10.045   1.446  0.0991 -0.4218 -0.0476
  532MOL0     C71749  -0.255  10.089   1.493 -0.6437  0.1864 -0.9321
  532MOL0     C71750   0.372   9.895   1.105  0.2454  0.1582  0.3030
  532MOL0     C71751   0.502   9.840   1.109 -0.7248  1.2834 -0.0792
  532MOL0     C71752   0.524   9.739   1.219  0.0145 -0.0095 -0.1962
  532MOL0     H71753   0.892   9.583   1.022 -3.7992  4.0798 -1.1540
  532MOL0     H71754   1.144   9.511   1.020  3.2396  0.5479  0.2014
  532MOL0     H71755   1.418   9.778   0.757 -0.3620  1.9533  0.2086
  532MOL0     H71756   1.428   9.821   0.918 -0.6761  1.7497 -1.2683
  532MOL0     H71757   1.564   9.588   0.767 -1.0052  2.1913 -0.9845
  532MOL0     H71758   1.596   9.627   0.939  0.4927  0.1841 -0.1023
  532MOL0     H71759   1.723   9.810   0.885  2.0990 -1.0256  0.0618
  532MOL0     H71760   1.649   9.833   0.731  3.9013 -0.3182 -2.6502
  532MOL0     H71761   1.833   9.605   0.810  2.0372  0.4396 -0.3003
  532MOL0     H71762   1.782   9.655   0.645  3.9856 -0.8213 -0.6095
  532MOL0     H71763   1.889   9.858   0.657 -1.1964 -2.1946  0.9492
  532MOL0     H71764   1.937   9.843   0.817 -0.0826  1.9017 -0.9231
  532MOL0     H71765   2.070   9.631   0.742 -1.1809  0.5966  0.1646
  532MOL0     H71766   2.026   9.667   0.575 -2.1222  1.1290 -0.1822
  532MOL0     H71767   2.269   9.739   0.663 -1.6226 -1.2422 -1.8271
  532MOL0     H71768   2.178   9.850   0.760 -3.3441 -3.2475  1.9087
  532MOL0     H71769   2.171   9.873   0.454 -1.9181 -2.4371 -0.4079
  532MOL0     H71770   2.061   9.951   0.557 -0.8710 -2.3076 -0.6646
  532MOL0     H71771   2.421   9.928   0.471  0.5859  0.1181 -0.2663
  532MOL0     H71772   2.570  10.183   0.399 -0.7783  1.0700  0.5480
  532MOL0     H71773   2.571  10.296   0.523  1.4925  0.9968  1.9840
  532MOL0     H71774   2.712  10.101   0.648 -2.3296 -2.7819 -0.7361
  532MOL0     H71775   2.706  10.017   0.501 -2.3817  0.6117 -0.7975
  532MOL0     H71776   2.821  10.300   0.538 -1.2968  0.8110 -1.7656
  532MOL0     H71777   2.819  10.212   0.383 -0.2322 -1.5654  0.0769
  532MOL0     H71778   2.958  10.095   0.628 -2.0742 -1.6128 -0.1038
  532MOL0     H71779   3.046  10.180   0.501  1.5073 -2.0609  3.7631
  532MOL0     H71780   2.983   9.779   0.329 -0.5994  1.7806  0.1712
  532MOL0     H71781   3.176   9.628   0.314  1.7214  0.0817  0.5805
  532MOL0     H71782   3.700   9.646   0.335 -3.7720  1.0134  1.2294
  532MOL0     H71783   3.898   9.459   0.315  1.4390  2.5301  0.0792
  532MOL0     H71784   3.992   9.262   0.674 -0.9831 -1.1390  0.5874
  532MOL0     H71785   3.883   9.131   0.618  0.1412 -1.4124 -2.7413
  532MOL0     H71786   4.088   9.038   0.489  1.5753  1.3550 -0.0241
  532MOL0     H71787   4.180   9.159   0.572  1.4024 -1.1157 -0.0378
  532MOL0     H71788   4.111   9.046   0.789  1.4825  1.0367 -0.3872
  532MOL0     H71789   4.014   8.934   0.693  0.4350 -0.8865 -1.7245
  532MOL0     H71790   4.310   8.973   0.702  1.0582 -0.9261  2.5245
  532MOL0     H71791   4.226   8.893   0.561  0.5877  2.0297 -0.5397
  532MOL0     H71792   4.136   8.726   0.670 -1.4615  2.1443 -1.0060
  532MOL0     H71793   4.188   8.768   0.832 -1.0918 -1.5656 -0.4530
  532MOL0     H71794   4.379   8.716   0.612 -2.9142  2.7503 -1.0571
  532MOL0     H71795   4.430   8.718   0.783  0.2847 -1.0552  0.2749
  532MOL0     H71796   4.412   8.495   0.703 -2.1654 -2.3439 -3.8097
  532MOL0     H71797   4.249   8.518   0.658 -0.0046  0.4555 -0.0524
  532MOL0     H71798   4.207   8.559   0.904 -0.4135 -0.3099 -1.2558
  532MOL0     H71799   4.253   8.393   0.860 -0.0159 -1.1527  2.4322
  532MOL0     H71800   3.778   9.323   0.694 -0.0818  0.7958  0.7014
  532MOL0     H71801   3.590   9.493   0.694  1.6687  0.8139  2.4919
  532MOL0     H71802   3.388   9.866   0.591 -0.4608 -2.2450  0.6075
  532MOL0     H71803   3.204  10.038   0.592  0.6058 -1.2322  0.1739
  532MOL0     H71804   1.184   9.849   0.746 -2.4062 -0.9568 -2.7034
  532MOL0     H71805   0.975   9.923   0.788  4.3559  0.7880 -1.8897
  532MOL0     H71806   0.633   9.980   0.835  1.2871 -3.0768  1.1520
  532MOL0     H71807   0.389  10.050   0.813  0.6574 -0.8327  0.0042
  532MOL0     H71808   0.096   9.890   1.106 -0.5125  0.2684 -0.3757
  532MOL0     H71809   0.010  10.006   1.017  0.9584  1.9508 -0.6802
  532MOL0     H71810   0.121  10.202   1.133 -1.3428 -0.7183  0.7520
  532MOL0     H71811   0.211  10.083   1.219  0.1026  0.9545 -1.9398
  532MOL0     H71812  -0.083  10.150   1.197 -0.8238 -2.5578  0.1361
  532MOL0     H71813   0.020  10.219   1.319  0.6288  0.0462 -0.1920
  532MOL0     H71814  -0.040   9.922   1.310  2.6264  0.6080 -0.0773
  532MOL0     H71815   0.060  10.008   1.426  0.1292  1.2246  0.3558
  532MOL0     H71816  -0.338  10.142   1.536 -0.1287  0.8272 -0.7244
  532MOL0     H71817   0.304   9.868   1.185 -0.5897  1.2399 -0.0181
  532MOL0     H71818   0.592   9.774   1.297  0.3395  1.9751 -1.3179
  532MOL0     H71819   0.434   9.687   1.255 -0.2261  0.2267 -0.4489
  532MOL0     H71820   0.584   9.653   1.186  1.2522  0.9012 -0.3680
  533MOL0     O71821   6.314  10.028  11.070 -0.0519 -0.1882  0.1880
  533MOL0     C71822   6.234  10.104  11.009 -0.3155 -0.6567 -0.3231
  533MOL0     O71823   6.242  10.245  11.015  0.9009 -0.1562  0.6158
  533MOL0     C71824   6.357  10.320  11.051  0.4522 -0.7827 -0.0383
  533MOL0     C71825   6.423  10.403  10.958  0.3633 -0.5757 -0.2316
  533MOL0     C71826   6.531  10.485  11.003 -0.0597  0.7461 -0.3084
  533MOL0     C71827   6.594  10.459  11.126  0.7877 -1.2420  0.6239
  533MOL0     O71828   6.717  10.527  11.139  0.5171  0.6918  0.0099
  533MOL0     C71829   6.791  10.490  11.260  0.1125  0.1315 -0.2847
  533MOL0     C71830   6.917  10.562  11.294 -0.0964  0.0628  0.0388
  533MOL0     C71831   7.019  10.480  11.376 -0.6289 -0.0249 -0.3854
  533MOL0     C71832   7.128  10.583  11.404  0.5340  0.2387  0.2850
  533MOL0     C71833   7.246  10.520  11.461 -0.6318  1.1784 -0.5152
  533MOL0     C71834   7.367  10.613  11.486 -0.3489  0.0421 -0.8065
  533MOL0     C71835   7.488  10.510  11.510 -0.5029  0.3363  0.0530
  533MOL0     C71836   7.623  10.581  11.486  1.7389  0.9113 -0.1099
  533MOL0     N71837   7.637  10.701  11.571  0.2089 -0.0946  1.8247
  533MOL0     C71838   7.627  10.837  11.524 -0.0523 -0.2496 -0.9928
  533MOL0     C71839   7.626  10.903  11.647  0.3019 -0.0216 -0.0513
  533MOL0     C71840   7.657  11.047  11.671  1.4580 -0.6376  0.2245
  533MOL0     C71841   7.800  11.091  11.675  0.2498  0.2422 -0.0380
  533MOL0     C71842   7.862  11.085  11.532 -0.1988 -0.4610 -0.5728
  533MOL0     C71843   8.007  11.155  11.537  0.9464  0.2750 -0.5780
  533MOL0     O71844   8.084  11.093  11.636  0.3557 -0.4472  0.0513
  533MOL0     C71845   8.195  11.165  11.686  0.2733  0.8797  0.6873
  533MOL0     C71846   8.189  11.247  11.799  0.3761  0.1042  0.8836
  533MOL0     C71847   8.275  11.344  11.819 -0.5756  0.1968 -0.3008
  533MOL0     C71848   8.395  11.354  11.742 -0.0617 -0.3869 -0.4380
  533MOL0     C71849   8.482  11.464  11.758 -0.6855 -0.4725 -0.2585
  533MOL0     O71850   8.445  11.568  11.841 -0.3578 -0.1161  0.3779
  533MOL0     C71851   8.530  11.670  11.863 -0.4297  1.2959  0.3966
  533MOL0     C71852   8.668  11.656  11.885 -0.0866  0.7263 -0.3344
  533MOL0     C71853   8.746  11.768  11.913 -0.9394  0.6143 -0.0654
  533MOL0     C71854   8.693  11.893  11.904  0.6198  0.1743 -0.1772
  533MOL0     O71855   8.769  12.005  11.929 -0.1493  0.0232  0.4626
  533MOL0     C71856   8.747  12.126  11.848 -0.5964  0.7197 -0.1189
  533MOL0     C71857   8.885  12.169  11.790  0.8038  1.0355 -0.2689
  533MOL0     C71858   8.958  12.040  11.731  0.3784  0.2174  0.4076
  533MOL0     C71859   9.092  12.074  11.684  0.1635 -0.1832  0.0913
  533MOL0     C71860   9.177  11.964  11.631 -0.0932  0.6028  0.4897
  533MOL0     C71861   9.311  12.008  11.576 -0.0047 -0.5811 -0.4463
  533MOL0     C71862   9.386  11.887  11.527  0.1790 -0.3498 -0.2232
  533MOL0     C71863   9.358  11.831  11.389 -0.0566 -0.4862  0.1131
  533MOL0    Cl71864   9.492  11.706  11.348  0.1656  0.0029  0.1044
  533MOL0     C71865   8.556  11.904  11.882 -0.1933 -0.6291  0.8541
  533MOL0     C71866   8.477  11.795  11.873  0.0288 -0.3011 -0.6055
  533MOL0     O71867   8.587  11.456  11.692 -0.4675 -0.0718  0.0111
  533MOL0     C71868   8.414  11.258  11.646  0.5722  0.4495 -0.0616
  533MOL0     C71869   8.312  11.167  11.614  0.7401  1.0786 -0.0562
  533MOL0     N71870   7.643  10.812  11.749 -0.1124 -0.0904 -0.2361
  533MOL0     N71871   7.653  10.699  11.700 -0.4999  0.8515 -0.0119
  533MOL0     C71872   6.529  10.374  11.214  0.5119 -0.2054 -0.8774
  533MOL0     C71873   6.412  10.311  11.176 -0.2571 -1.0780  0.4952
  533MOL0     C71874   6.120  10.048  10.930  0.6415 -0.3616  0.4847
  533MOL0     C71875   6.010  10.141  10.921  0.4458  0.3475  0.0361
  533MOL0     C71876   5.897  10.105  10.844  0.2264  0.1753  0.5354
  533MOL0     C71877   5.896   9.978  10.775  0.0716  0.0631  0.2825
  533MOL0     O71878   5.781   9.951  10.702  0.1056 -0.6829  0.5182
  533MOL0     C71879   5.770   9.844  10.621 -0.0461  0.5840 -0.4034
  533MOL0     C71880   5.628   9.811  10.588  0.4653 -0.1201 -0.7145
  533MOL0     C71881   5.524   9.817  10.701 -0.4159 -0.2697 -0.6238
  533MOL0     C71882   5.396   9.739  10.661  0.3715  0.2096  0.0714
  533MOL0     C71883   5.321   9.815  10.563  0.0125  0.7518  0.8644
  533MOL0     C71884   5.254   9.880  10.482 -0.4955  0.7033 -1.1770
  533MOL0     C71885   6.001   9.897  10.786 -0.5125 -0.0461 -0.1159
  533MOL0     C71886   6.113   9.927  10.863  0.4873 -0.9260 -0.8858
  533MOL0     C71887   6.217   9.826  10.871  0.2640 -0.0658 -0.1841
  533MOL0     H71888   6.389  10.407  10.855 -2.6564 -3.6954  0.4729
  533MOL0     H71889   6.577  10.550  10.929 -1.0762  1.5817 -0.2232
  533MOL0     H71890   6.725  10.505  11.346 -1.6619  0.0703 -1.5873
  533MOL0     H71891   6.819  10.384  11.254  2.1317  0.6117 -0.2083
  533MOL0     H71892   6.884  10.648  11.353 -3.5008  0.6507 -2.4193
  533MOL0     H71893   6.957  10.604  11.201  2.7453 -2.3159  0.0171
  533MOL0     H71894   7.064  10.397  11.320 -0.5303 -1.7728  2.1320
  533MOL0     H71895   6.976  10.448  11.471 -0.7715  0.8997 -0.1255
  533MOL0     H71896   7.145  10.621  11.303 -2.4741 -0.3011 -0.5016
  533MOL0     H71897   7.090  10.655  11.478 -1.5119  2.7499 -2.9589
  533MOL0     H71898   7.210  10.479  11.556 -1.4431  2.3063 -0.3096
  533MOL0     H71899   7.287  10.441  11.398  1.5379  0.9374  1.0860
  533MOL0     H71900   7.395  10.670  11.397  1.7816 -1.9232 -1.4961
  533MOL0     H71901   7.353  10.650  11.588 -2.8598 -3.2883  0.2458
  533MOL0     H71902   7.481  10.434  11.432 -0.3480  1.1828 -0.7953
  533MOL0     H71903   7.473  10.456  11.604  3.0066  0.4305  0.8039
  533MOL0     H71904   7.700  10.505  11.505 -0.5232 -1.0753  1.7393
  533MOL0     H71905   7.625  10.620  11.384 -0.6976  0.1846 -0.4904
  533MOL0     H71906   7.633  10.876  11.423  2.0837 -1.0412 -1.2272
  533MOL0     H71907   7.609  11.091  11.584  0.2789 -1.6908  0.3023
  533MOL0     H71908   7.610  11.081  11.764  2.9878 -2.7837  1.9000
  533MOL0     H71909   7.804  11.193  11.713 -0.5200 -0.8324  3.2256
  533MOL0     H71910   7.864  11.038  11.747  0.1619  2.2318  1.5847
  533MOL0     H71911   7.799  11.147  11.467 -0.5550  0.4833  0.6247
  533MOL0     H71912   7.855  10.982  11.497 -1.3401 -0.8431  0.6853
  533MOL0     H71913   7.992  11.261  11.558 -0.0779  0.3336 -1.4793
  533MOL0     H71914   8.061  11.146  11.442  1.8272 -0.3035 -0.0336
  533MOL0     H71915   8.093  11.238  11.850 -1.1724 -0.0891 -1.8542
  533MOL0     H71916   8.258  11.424  11.890  1.4845  2.0365 -1.7489
  533MOL0     H71917   8.719  11.560  11.886  1.2729  1.4197 -0.2565
  533MOL0     H71918   8.851  11.747  11.930 -0.4717  0.8371 -2.2761
  533MOL0     H71919   8.676  12.105  11.767 -0.9544 -2.3260  0.8444
  533MOL0     H71920   8.719  12.208  11.913  2.4573  1.3824  0.5170
  533MOL0     H71921   8.868  12.248  11.717 -0.6657 -0.3667 -1.5297
  533MOL0     H71922   8.944  12.211  11.872  1.6889  2.7260 -1.7312
  533MOL0     H71923   8.969  11.953  11.795 -0.9665  1.0219  1.8095
  533MOL0     H71924   8.898  12.003  11.647  0.4806 -2.1719  1.3184
  533MOL0     H71925   9.146  12.132  11.760 -0.8181  1.5910 -0.5139
  533MOL0     H71926   9.068  12.148  11.607 -4.6831  0.8266  2.2319
  533MOL0     H71927   9.122  11.912  11.552  1.9213  1.1196 -1.3583
  533MOL0     H71928   9.215  11.909  11.718 -1.9897  0.7599  1.4889
  533MOL0     H71929   9.297  12.090  11.504  2.6733  0.3866  0.0191
  533MOL0     H71930   9.372  12.049  11.657 -0.2956 -1.2073  0.0906
  533MOL0     H71931   9.369  11.812  11.605 -0.6693 -0.1811 -0.2397
  533MOL0     H71932   9.489  11.925  11.535 -0.0145 -0.2165  2.1606
  533MOL0     H71933   9.263  11.776  11.397  1.4751 -3.8362 -2.4228
  533MOL0     H71934   9.362  11.909  11.312 -1.5143  0.1391  0.6264
  533MOL0     H71935   8.501  11.998  11.887  0.3217 -0.3410  1.3607
  533MOL0     H71936   8.372  11.814  11.850 -0.6036 -1.0981  1.3658
  533MOL0     H71937   8.487  11.267  11.567 -0.7884  0.2551 -1.3972
  533MOL0     H71938   8.324  11.103  11.527  0.7282  0.6037  0.2867
  533MOL0     H71939   6.568  10.342  11.309  2.8783  0.4828 -1.5577
  533MOL0     H71940   6.359  10.239  11.237 -1.0560  0.4258  1.6316
  533MOL0     H71941   5.994  10.235  10.973  1.0231 -0.0160  0.8932
  533MOL0     H71942   5.816  10.175  10.827  0.4922  0.4212  0.2633
  533MOL0     H71943   5.796   9.754  10.677 -2.0236 -0.5326 -1.1901
  533MOL0     H71944   5.831   9.855  10.531 -0.3709 -0.1581 -0.7258
  533MOL0     H71945   5.632   9.712  10.541 -0.0513 -1.5302  2.0159
  533MOL0     H71946   5.592   9.884  10.515 -1.6202 -1.3682 -1.0319
  533MOL0     H71947   5.501   9.920  10.729  1.5205 -0.5131  2.2285
  533MOL0     H71948   5.572   9.770  10.787 -1.3546 -3.4176 -1.6607
  533MOL0     H71949   5.415   9.643  10.612 -3.5965 -0.5633 -0.3197
  533MOL0     H71950   5.329   9.725  10.747 -3.0568  2.3449 -2.0326
  533MOL0     H71951   5.205   9.935  10.403 -1.7807 -0.7090 -1.4130
  533MOL0     H71952   5.993   9.805  10.729  0.5479  2.3619 -4.5707
  533MOL0     H71953   6.199   9.740  10.806 -0.7937  0.0611 -0.0694
  533MOL0     H71954   6.303   9.878  10.829 -0.3052  1.7226  0.7694
  533MOL0     H71955   6.253   9.796  10.970 -0.4947 -0.9695 -0.1631
  534MOL0     O71956   3.578   5.924   0.635  0.3025  0.0202  0.2595
  534MOL0     C71957   3.604   5.858   0.537 -0.4087 -0.4148 -0.7731
  534MOL0     O71958   3.721   5.783   0.526  0.7631  0.7761 -0.3804
  534MOL0     C71959   3.793   5.737   0.639 -0.3414 -0.2256  0.3044
  534MOL0     C71960   3.923   5.688   0.618 -0.1879 -0.2684 -0.3472
  534MOL0     C71961   4.000   5.642   0.720 -0.8117  0.4898 -0.5269
  534MOL0     C71962   3.953   5.646   0.851  0.7438  0.3686 -0.8071
  534MOL0     O71963   4.053   5.609   0.945  0.7354  0.3915 -0.8056
  534MOL0     C71964   4.013   5.594   1.078 -0.9210 -0.6259 -0.1819
  534MOL0     C71965   4.122   5.527   1.161 -0.3655 -0.2159 -0.5911
  534MOL0     C71966   4.254   5.596   1.161 -1.0227 -0.6137  0.1178
  534MOL0     C71967   4.369   5.511   1.209  0.7162 -0.3913 -0.3565
  534MOL0     C71968   4.395   5.506   1.362 -0.0084 -0.3963 -0.3774
  534MOL0     C71969   4.464   5.636   1.416  0.6446 -0.3483  0.0534
  534MOL0     C71970   4.489   5.618   1.570 -0.1360  0.1358 -0.5482
  534MOL0     C71971   4.511   5.744   1.654 -0.1269  0.3383  0.2351
  534MOL0     N71972   4.645   5.799   1.639 -0.2447 -0.0353 -0.2240
  534MOL0     C71973   4.766   5.741   1.680  0.0001  0.2987  0.8716
  534MOL0     C71974   4.858   5.822   1.628  0.1522  0.8135  0.3212
  534MOL0     C71975   5.010   5.803   1.637  1.2354  0.8003  0.9590
  534MOL0     C71976   5.077   5.896   1.742 -0.1477  0.9657 -0.0133
  534MOL0     C71977   5.096   5.813   1.869  1.3911 -0.7066 -0.0266
  534MOL0     C71978   5.127   5.912   1.987  0.4877  0.2279 -0.5133
  534MOL0     O71979   5.248   5.988   1.978  0.2273 -0.0904 -0.0004
  534MOL0     C71980   5.361   5.917   1.958  0.2043 -0.0247 -0.3744
  534MOL0     C71981   5.389   5.782   1.980  0.4855 -0.5282  0.0542
  534MOL0     C71982   5.521   5.726   1.955  0.8232  0.7066 -1.2893
  534MOL0     C71983   5.632   5.805   1.925  0.2559  0.0739 -1.0102
  534MOL0     C71984   5.769   5.755   1.913  0.5696 -0.7087 -0.7674
  534MOL0     O71985   5.814   5.653   1.995  0.0775 -0.2167  0.3191
  534MOL0     C71986   5.951   5.627   1.981  0.1159  0.2200 -0.4109
  534MOL0     C71987   5.983   5.510   1.910 -0.0629  0.2093 -0.9774
  534MOL0     C71988   6.121   5.470   1.899 -0.0577 -0.3742  0.5974
  534MOL0     C71989   6.221   5.545   1.969  0.3933 -1.3365  0.3587
  534MOL0     O71990   6.356   5.525   1.946  0.8041  0.8755 -0.2260
  534MOL0     C71991   6.432   5.644   1.924 -0.0688  0.3909 -0.5673
  534MOL0     C71992   6.560   5.590   1.870 -0.5965  0.3126  0.4504
  534MOL0     C71993   6.663   5.701   1.879 -0.6365 -0.1504 -0.3504
  534MOL0     C71994   6.801   5.635   1.837 -0.3312  0.2381  0.7950
  534MOL0     C71995   6.922   5.720   1.818 -1.5586  0.8991  0.0708
  534MOL0     C71996   6.952   5.818   1.935  0.2661 -0.3495 -0.0758
  534MOL0     C71997   7.097   5.867   1.943 -0.1280 -0.6635  0.2691
  534MOL0     C71998   7.142   5.965   1.831  0.5757  0.1023 -0.3076
  534MOL0    Cl71999   7.289   6.054   1.893  0.6061  0.6414  0.1277
  534MOL0     C72000   6.180   5.657   2.044 -0.1761 -0.3597  1.3697
  534MOL0     C72001   6.047   5.695   2.048  0.8302  0.3601  0.1279
  534MOL0     O72002   5.839   5.826   1.843 -0.1868  0.5307  0.7753
  534MOL0     C72003   5.598   5.947   1.911  0.5313 -0.8012  0.2130
  534MOL0     C72004   5.470   5.998   1.924 -0.1562  0.0872 -0.2685
  534MOL0     N72005   4.796   5.940   1.594  0.9157  0.0120 -0.6076
  534MOL0     N72006   4.674   5.927   1.601 -1.0090 -0.8390  1.0465
  534MOL0     C72007   3.812   5.684   0.869 -1.4498 -1.1995 -0.1327
  534MOL0     C72008   3.735   5.722   0.765  0.1981 -0.5002  0.5716
  534MOL0     C72009   3.505   5.845   0.432  0.6299  0.2180  0.7921
  534MOL0     C72010   3.543   5.759   0.318 -0.5584  0.4322 -0.1176
  534MOL0     C72011   3.472   5.748   0.201  0.2660 -0.2868 -0.3075
  534MOL0     C72012   3.368   5.834   0.181  0.6495  0.7884  0.5786
  534MOL0     O72013   3.290   5.813   0.068  0.6052  0.0931 -0.9931
  534MOL0     C72014   3.180   5.725   0.108  0.6630 -0.1203  0.2776
  534MOL0     C72015   3.184   5.592   0.024  0.5106 -0.7121 -0.6897
  534MOL0     C72016   3.066   5.572  -0.075  0.3352  0.4730 -0.5792
  534MOL0     C72017   3.062   5.675  -0.187 -0.0270  0.1096  0.0929
  534MOL0     C72018   2.934   5.665  -0.253  0.0519 -0.6258 -0.4468
  534MOL0     C72019   2.823   5.640  -0.294 -0.2545 -1.0209 -0.6046
  534MOL0     C72020   3.329   5.921   0.279  0.1716 -0.2005  0.1028
  534MOL0     C72021   3.395   5.934   0.409  0.1921  0.8762  0.8982
  534MOL0     C72022   3.335   6.034   0.500 -0.4793 -0.2205  0.3246
  534MOL0     H72023   3.955   5.690   0.515  3.4887  1.6213  0.6644
  534MOL0     H72024   4.103   5.611   0.712 -0.9892 -0.7455  1.2863
  534MOL0     H72025   3.997   5.693   1.123  0.1640 -0.4505 -0.1552
  534MOL0     H72026   3.917   5.544   1.086 -1.8981  1.0043 -1.0938
  534MOL0     H72027   4.137   5.425   1.124 -0.6969 -0.9538  1.2182
  534MOL0     H72028   4.082   5.516   1.262  4.8996 -0.1198  1.8762
  534MOL0     H72029   4.239   5.691   1.213  0.4857  0.7266 -1.7998
  534MOL0     H72030   4.272   5.600   1.054 -3.0252 -3.4779 -0.4716
  534MOL0     H72031   4.354   5.408   1.174 -0.1644 -0.2534 -0.4143
  534MOL0     H72032   4.460   5.546   1.158  0.6488 -1.9881 -1.6510
  534MOL0     H72033   4.303   5.485   1.417  0.1357  0.6767  0.3151
  534MOL0     H72034   4.455   5.421   1.398  0.4535 -0.6212 -1.6341
  534MOL0     H72035   4.560   5.661   1.369  0.5277  5.8380  2.1764
  534MOL0     H72036   4.405   5.724   1.389 -0.9166 -1.5114 -0.4935
  534MOL0     H72037   4.569   5.548   1.594  1.4585  1.3852 -1.9059
  534MOL0     H72038   4.397   5.582   1.617 -0.9039  2.0754 -0.4865
  534MOL0     H72039   4.433   5.814   1.624  0.1587  0.6244  0.1638
  534MOL0     H72040   4.503   5.722   1.761  1.2508 -1.1186  0.0760
  534MOL0     H72041   4.774   5.639   1.717 -1.7661 -0.0998  0.2673
  534MOL0     H72042   5.046   5.701   1.657 -0.1345  0.4757  1.8908
  534MOL0     H72043   5.053   5.838   1.543  1.0657 -0.3410  0.4292
  534MOL0     H72044   5.166   5.936   1.692  1.2842 -2.1554 -0.1969
  534MOL0     H72045   5.006   5.980   1.745 -1.3769 -0.0143 -0.5115
  534MOL0     H72046   5.173   5.737   1.852  1.2362 -0.6263 -1.1236
  534MOL0     H72047   5.003   5.757   1.886  1.3093 -0.4886  0.2708
  534MOL0     H72048   5.116   5.857   2.081 -3.6680 -1.3005 -1.7019
  534MOL0     H72049   5.051   5.990   1.989 -1.1049 -0.9800 -4.6865
  534MOL0     H72050   5.317   5.708   2.013  2.6140 -1.9228  1.8771
  534MOL0     H72051   5.541   5.620   1.961  2.6631  1.0861  0.9378
  534MOL0     H72052   5.909   5.446   1.863 -1.2950  2.1549 -1.8150
  534MOL0     H72053   6.140   5.374   1.853  0.1577 -0.8341  1.6257
  534MOL0     H72054   6.397   5.734   1.873 -3.1679 -1.0792 -1.3083
  534MOL0     H72055   6.461   5.680   2.023 -0.8571  3.1741 -1.2723
  534MOL0     H72056   6.590   5.500   1.924  1.1755 -1.2192 -2.7876
  534MOL0     H72057   6.554   5.553   1.767  2.5672 -2.2817  1.0259
  534MOL0     H72058   6.621   5.776   1.812 -0.8477 -1.3162 -1.5755
  534MOL0     H72059   6.675   5.724   1.986  0.3147  0.1183 -0.5082
  534MOL0     H72060   6.798   5.584   1.740  2.3048 -1.8207  1.6935
  534MOL0     H72061   6.834   5.559   1.909 -1.3408 -1.3781 -0.3526
  534MOL0     H72062   6.913   5.776   1.724 -0.7804 -2.5374 -2.2181
  534MOL0     H72063   7.010   5.656   1.806 -0.5984  2.2548 -0.4840
  534MOL0     H72064   6.896   5.911   1.921 -0.7397 -0.0983  4.1516
  534MOL0     H72065   6.926   5.783   2.035 -0.7897  0.5595 -0.0200
  534MOL0     H72066   7.173   5.788   1.955  2.6939  1.1561 -3.5013
  534MOL0     H72067   7.085   5.925   2.034 -1.9725 -2.2303  1.1003
  534MOL0     H72068   7.165   5.907   1.742 -1.6009 -0.9260 -0.2584
  534MOL0     H72069   7.058   6.035   1.823  0.4571  0.0604  0.4908
  534MOL0     H72070   6.261   5.704   2.100 -0.5116  1.4043  0.4226
  534MOL0     H72071   6.017   5.781   2.107 -0.2671 -1.3430  2.2289
  534MOL0     H72072   5.667   6.019   1.869  1.5634 -2.7267 -1.5814
  534MOL0     H72073   5.454   6.105   1.908  0.1765  0.2411  0.4135
  534MOL0     H72074   3.770   5.688   0.969 -1.4920  0.8653 -0.2041
  534MOL0     H72075   3.632   5.754   0.776 -0.4033 -2.5331  1.3029
  534MOL0     H72076   3.632   5.699   0.336 -0.3910  1.3435  2.7151
  534MOL0     H72077   3.516   5.682   0.127  1.4136  1.1156 -0.9217
  534MOL0     H72078   3.090   5.785   0.092  0.1727 -1.4581 -2.5208
  534MOL0     H72079   3.193   5.699   0.214  1.0995  0.5484  0.3957
  534MOL0     H72080   3.210   5.507   0.089  1.9556 -0.5659 -1.0570
  534MOL0     H72081   3.276   5.592  -0.034  3.0838  0.2322  3.0018
  534MOL0     H72082   2.972   5.574  -0.020 -2.2927 -0.2691 -4.5957
  534MOL0     H72083   3.072   5.472  -0.120  0.2299 -0.0966  0.6369
  534MOL0     H72084   3.073   5.775  -0.144 -0.9565  0.4152 -0.3443
  534MOL0     H72085   3.143   5.662  -0.260  1.7588 -2.6417  2.3491
  534MOL0     H72086   2.726   5.617  -0.335 -0.6361  1.8424 -1.5144
  534MOL0     H72087   3.243   5.982   0.255 -0.9254 -1.0935  1.6426
  534MOL0     H72088   3.268   6.101   0.444  0.4188  1.5336  1.2560
  534MOL0     H72089   3.283   5.977   0.577 -1.3746  0.1152 -0.0121
  534MOL0     H72090   3.417   6.095   0.538 -0.3220  0.1373 -0.5552
  535MOL0     O72091  10.795   7.659   2.507  0.7472 -0.1870  0.4241
  535MOL0     C72092  10.788   7.754   2.587 -0.5236  0.1290 -0.3316
  535MOL0     O72093  10.747   7.888   2.556  0.1748  0.6976  0.2169
  535MOL0     C72094  10.713   7.905   2.427 -0.3030 -0.3378  0.3892
  535MOL0     C72095  10.806   7.903   2.323 -0.6037 -0.7510 -0.4929
  535MOL0     C72096  10.767   7.910   2.186 -0.0722 -0.7699 -0.4413
  535MOL0     C72097  10.624   7.919   2.155 -0.4884  0.1256 -0.1064
  535MOL0     O72098  10.582   7.909   2.026  0.8905 -0.0744  0.4521
  535MOL0     C72099  10.462   7.978   1.981  0.1281  0.7305 -0.3615
  535MOL0     C72100  10.464   8.135   1.977  0.3542  0.6388 -0.2685
  535MOL0     C72101  10.594   8.191   1.922  0.5418  0.1329  0.5445
  535MOL0     C72102  10.578   8.348   1.955 -0.8948  1.0087 -0.3411
  535MOL0     C72103  10.687   8.436   1.902  0.5415 -0.1319 -0.0304
  535MOL0     C72104  10.651   8.467   1.752  0.7814  0.0062  0.6928
  535MOL0     C72105  10.743   8.573   1.683  0.6302  0.3083 -0.5241
  535MOL0     C72106  10.732   8.719   1.734  0.6629 -0.6542  0.1746
  535MOL0     N72107  10.650   8.810   1.641 -0.6714 -0.2166  0.6463
  535MOL0     C72108  10.530   8.782   1.578 -0.7377  0.1509  1.1531
  535MOL0     C72109  10.498   8.893   1.519 -0.2282  0.0957  0.8134
  535MOL0     C72110  10.379   8.932   1.441 -0.4360 -0.9957  0.5953
  535MOL0     C72111  10.250   8.947   1.523 -0.3466 -0.8703  0.2090
  535MOL0     C72112  10.231   9.075   1.613 -0.0632  0.3810  0.0721
  535MOL0     C72113  10.275   9.200   1.531  0.4609  0.5892  0.4340
  535MOL0     O72114  10.240   9.323   1.600  0.3239  0.3631 -0.0166
  535MOL0     C72115  10.117   9.394   1.574  0.1254  0.6612  0.1102
  535MOL0     C72116  10.114   9.518   1.626  0.6122 -0.6127  0.3296
  535MOL0     C72117  10.007   9.605   1.589 -0.1886  0.4977  0.5816
  535MOL0     C72118   9.913   9.565   1.498  0.1217  0.4666  0.0497
  535MOL0     C72119   9.807   9.651   1.449 -0.7747 -0.4761 -0.7247
  535MOL0     O72120   9.691   9.584   1.402 -0.3439  0.0372  0.2018
  535MOL0     C72121   9.577   9.653   1.360 -0.3289 -0.5373  0.0757
  535MOL0     C72122   9.554   9.791   1.350  1.2416  0.1630 -0.9409
  535MOL0     C72123   9.430   9.834   1.317  0.0023  0.1906 -0.8708
  535MOL0     C72124   9.328   9.742   1.284  0.9572  0.4089  1.1370
  535MOL0     O72125   9.205   9.799   1.245  0.3301  0.0258 -0.6624
  535MOL0     C72126   9.087   9.716   1.256 -0.5159  0.4581  0.3406
  535MOL0     C72127   8.966   9.789   1.203 -0.3159  1.0703 -0.0245
  535MOL0     C72128   8.845   9.695   1.203  0.2884  0.1208 -0.0179
  535MOL0     C72129   8.718   9.759   1.176  0.5548  0.3435  0.1540
  535MOL0     C72130   8.611   9.658   1.130  0.1587 -0.7378  0.2250
  535MOL0     C72131   8.568   9.557   1.249 -0.4675 -0.8808  0.0254
  535MOL0     C72132   8.527   9.638   1.375  0.1897  0.7775 -0.6555
  535MOL0     C72133   8.468   9.540   1.467  0.5112 -0.0430  0.0190
  535MOL0    Cl72134   8.314   9.479   1.397 -0.0512 -0.1098  0.1204
  535MOL0     C72135   9.352   9.602   1.281 -0.4236  0.2161  0.6917
  535MOL0     C72136   9.479   9.564   1.318 -0.2390 -0.6000  0.5027
  535MOL0     O72137   9.830   9.777   1.449  0.0610  1.0510 -0.3405
  535MOL0     C72138   9.916   9.428   1.448  0.2533  0.6416 -0.0484
  535MOL0     C72139  10.008   9.339   1.501  0.2439  0.1953 -0.8545
  535MOL0     N72140  10.596   8.990   1.538 -0.6901  0.2420  0.2277
  535MOL0     N72141  10.694   8.939   1.608 -0.7504  0.3195 -0.2484
  535MOL0     C72142  10.531   7.915   2.255 -0.5576 -0.2971  0.2221
  535MOL0     C72143  10.576   7.912   2.384 -0.1327 -0.1815  0.1632
  535MOL0     C72144  10.838   7.742   2.722 -0.3284  0.8820 -0.0177
  535MOL0     C72145  10.882   7.856   2.781 -0.1243 -0.0600 -0.3766
  535MOL0     C72146  10.957   7.841   2.895  0.3728 -0.4540 -0.6614
  535MOL0     C72147  10.967   7.716   2.971  1.0216 -0.8830 -0.6805
  535MOL0     O72148  11.023   7.723   3.104 -0.7199 -0.3217 -1.0195
  535MOL0     C72149  11.059   7.612   3.179 -0.0593 -0.2582 -0.3619
  535MOL0     C72150  11.165   7.652   3.292 -0.0228 -0.1128  0.4908
  535MOL0     C72151  11.109   7.755   3.390 -0.0510  0.3128 -0.0388
  535MOL0     C72152  11.213   7.761   3.513  0.6216 -0.1524 -0.0575
  535MOL0     C72153  11.223   7.627   3.576 -0.1768 -0.2384  0.0820
  535MOL0     C72154  11.224   7.522   3.637 -0.3828 -0.0498 -0.3841
  535MOL0     C72155  10.917   7.604   2.920  0.5885  1.4502  0.0147
  535MOL0     C72156  10.862   7.613   2.787  0.1222 -0.7774 -0.6090
  535MOL0     C72157  10.816   7.482   2.719 -0.3451  0.2768 -0.6621
  535MOL0     H72158  10.914   7.898   2.340 -0.2357 -1.7976 -2.7859
  535MOL0     H72159  10.837   7.923   2.104 -0.4038  1.0040 -0.4871
  535MOL0     H72160  10.441   7.943   1.880 -1.3412 -1.0234  0.4976
  535MOL0     H72161  10.374   7.948   2.038  1.0468  1.1492  1.3506
  535MOL0     H72162  10.457   8.164   2.083  0.1318 -1.7156  0.4166
  535MOL0     H72163  10.377   8.182   1.929 -0.3268 -0.6881 -0.3861
  535MOL0     H72164  10.600   8.166   1.815 -0.6762 -0.7613  0.6703
  535MOL0     H72165  10.679   8.148   1.976  1.2673  2.4978  1.4214
  535MOL0     H72166  10.482   8.378   1.910  0.2748  0.1580 -3.7714
  535MOL0     H72167  10.577   8.344   2.064  1.1221 -1.4035 -0.3210
  535MOL0     H72168  10.682   8.530   1.957  1.5258  1.1309 -1.9804
  535MOL0     H72169  10.787   8.395   1.917  0.5915  0.3149  0.8821
  535MOL0     H72170  10.655   8.372   1.698 -3.4156 -0.5102  0.9598
  535MOL0     H72171  10.546   8.496   1.740  1.2428  1.9377  1.0393
  535MOL0     H72172  10.729   8.571   1.574  0.3070 -0.8517 -0.4720
  535MOL0     H72173  10.841   8.526   1.694 -0.6067 -3.0815 -2.5050
  535MOL0     H72174  10.690   8.721   1.835 -3.6466  0.2830 -1.4208
  535MOL0     H72175  10.832   8.762   1.737  0.3869 -0.0321  1.0572
  535MOL0     H72176  10.461   8.699   1.585  0.0133 -0.3627  3.2407
  535MOL0     H72177  10.393   9.027   1.388 -0.2741 -1.0126  0.6058
  535MOL0     H72178  10.349   8.872   1.355 -0.1227  2.4345 -2.1507
  535MOL0     H72179  10.166   8.955   1.453 -0.8715 -0.0870  0.9091
  535MOL0     H72180  10.240   8.858   1.584 -1.7647 -1.1797 -0.4275
  535MOL0     H72181  10.292   9.066   1.703 -1.8376  2.2940  1.5903
  535MOL0     H72182  10.126   9.081   1.644  0.3606 -0.4159  1.7467
  535MOL0     H72183  10.228   9.194   1.433  0.1831  1.3620  0.5101
  535MOL0     H72184  10.383   9.196   1.516  0.5418  0.9992  0.8588
  535MOL0     H72185  10.183   9.556   1.701  2.8719 -0.0089 -1.8708
  535MOL0     H72186  10.008   9.703   1.636 -2.7385  0.4113  0.9468
  535MOL0     H72187   9.605   9.880   1.385 -0.8991  0.4742  1.7515
  535MOL0     H72188   9.404   9.939   1.326  0.5261  0.4298 -2.0129
  535MOL0     H72189   9.107   9.627   1.196  0.3474  0.0477  1.2105
  535MOL0     H72190   9.072   9.681   1.359 -0.5767 -0.0799  0.1530
  535MOL0     H72191   8.949   9.868   1.277  1.2994 -1.7852  3.7426
  535MOL0     H72192   8.980   9.825   1.101 -0.5100 -2.3078 -1.3666
  535MOL0     H72193   8.853   9.619   1.126 -0.2319  0.2064 -0.1598
  535MOL0     H72194   8.839   9.649   1.302 -1.4000  1.2058  0.4246
  535MOL0     H72195   8.737   9.814   1.083  3.0513  0.6855  0.8160
  535MOL0     H72196   8.687   9.831   1.252 -0.8272 -0.0947  0.0406
  535MOL0     H72197   8.652   9.606   1.043  2.6355  0.3209  0.6605
  535MOL0     H72198   8.517   9.693   1.087  0.2919 -1.1203 -0.4028
  535MOL0     H72199   8.487   9.495   1.211 -2.1979  1.6484 -0.6514
  535MOL0     H72200   8.650   9.487   1.270  0.0531 -0.1867  0.3486
  535MOL0     H72201   8.452   9.711   1.342  0.2464  1.3443  0.4278
  535MOL0     H72202   8.605   9.694   1.426 -1.6395  1.0765  2.0570
  535MOL0     H72203   8.541   9.458   1.471 -0.7304 -1.3383 -2.0249
  535MOL0     H72204   8.450   9.589   1.563  0.0926 -1.9723  0.9790
  535MOL0     H72205   9.271   9.541   1.242  0.5880  0.7144 -2.4429
  535MOL0     H72206   9.502   9.458   1.309  1.7890 -0.1436  0.0084
  535MOL0     H72207   9.859   9.380   1.369  1.4507 -2.4935  0.8261
  535MOL0     H72208  10.015   9.236   1.468 -0.1868 -1.0499  2.5622
  535MOL0     H72209  10.425   7.920   2.232 -0.1675  3.2480 -1.5820
  535MOL0     H72210  10.502   7.918   2.464 -1.4943  1.0427 -1.1271
  535MOL0     H72211  10.861   7.954   2.740 -1.8108 -0.6446 -1.0013
  535MOL0     H72212  10.992   7.937   2.933 -2.1498  0.0473  0.5949
  535MOL0     H72213  11.105   7.535   3.115  0.0933 -0.1742 -0.3542
  535MOL0     H72214  10.965   7.572   3.218 -0.8252  2.1934  0.4498
  535MOL0     H72215  11.269   7.676   3.267 -0.2931  1.1017  0.4533
  535MOL0     H72216  11.167   7.559   3.350 -1.3987 -0.4237  0.0823
  535MOL0     H72217  11.007   7.723   3.413 -1.1701  0.4300 -3.9891
  535MOL0     H72218  11.104   7.852   3.340  0.5768  0.6215  0.4941
  535MOL0     H72219  11.307   7.787   3.462 -1.1444  4.1295 -1.6200
  535MOL0     H72220  11.198   7.832   3.595 -0.3510  1.0522 -1.2396
  535MOL0     H72221  11.239   7.434   3.696 -1.2219  0.0960  0.0609
  535MOL0     H72222  10.923   7.500   2.951 -2.6784  0.6379 -1.6339
  535MOL0     H72223  10.708   7.482   2.705 -0.5815  2.1201  0.8536
  535MOL0     H72224  10.870   7.466   2.625  0.0246  1.0126 -0.5782
  535MOL0     H72225  10.827   7.390   2.777 -1.6361  0.2585 -0.4116
  536MOL0     O72226   3.369   5.377   2.664 -0.1448  0.3169  0.4045
  536MOL0     C72227   3.285   5.461   2.630 -0.1028 -1.4430  0.2173
  536MOL0     O72228   3.308   5.593   2.594 -0.3745 -0.2348  0.4665
  536MOL0     C72229   3.449   5.622   2.590  0.3849  0.5211 -0.0880
  536MOL0     C72230   3.494   5.730   2.664 -0.0296  0.4940 -0.1776
  536MOL0     C72231   3.612   5.784   2.643  0.8648 -0.3718  0.8477
  536MOL0     C72232   3.703   5.728   2.542 -0.0301  0.2169 -0.5446
  536MOL0     O72233   3.826   5.786   2.532  0.0754  0.7040  0.1010
  536MOL0     C72234   3.922   5.742   2.435  0.5339 -0.5835 -0.2549
  536MOL0     C72235   4.044   5.833   2.445 -0.0631 -0.6500  0.4130
  536MOL0     C72236   4.139   5.811   2.574 -0.0560 -0.2921 -0.1629
  536MOL0     C72237   4.254   5.919   2.587  0.5517  0.6290  0.4252
  536MOL0     C72238   4.334   5.890   2.715  0.3008  0.5425  0.4071
  536MOL0     C72239   4.470   5.966   2.736  0.6450  1.0075 -0.5717
  536MOL0     C72240   4.449   6.104   2.774  0.1442 -0.1271  0.6087
  536MOL0     C72241   4.424   6.112   2.929  0.2909 -0.4659  0.0715
  536MOL0     N72242   4.435   6.251   2.989 -0.4958  0.4276  1.0834
  536MOL0     C72243   4.489   6.279   3.112 -0.1052 -1.2177  0.9809
  536MOL0     C72244   4.462   6.412   3.138 -0.1594  0.7348 -0.0987
  536MOL0     C72245   4.514   6.500   3.247 -0.0171 -0.0095 -0.2276
  536MOL0     C72246   4.651   6.578   3.211  0.1889 -0.2400 -0.6208
  536MOL0     C72247   4.769   6.479   3.191  0.4193 -0.7540 -0.6885
  536MOL0     C72248   4.900   6.548   3.171 -0.4765 -0.5445  0.0140
  536MOL0     O72249   4.954   6.599   3.290 -1.2168 -0.0263  0.5809
  536MOL0     C72250   5.087   6.640   3.287 -0.2420  0.2828 -0.1750
  536MOL0     C72251   5.155   6.671   3.406 -0.4832 -0.5106 -0.4523
  536MOL0     C72252   5.294   6.696   3.416  0.3907 -0.1430 -0.4350
  536MOL0     C72253   5.371   6.700   3.292  1.3561  0.0035  0.9015
  536MOL0     C72254   5.505   6.752   3.296  0.4726 -0.2348  0.5059
  536MOL0     O72255   5.558   6.783   3.418  0.6143  0.3076 -0.6324
  536MOL0     C72256   5.687   6.837   3.430  0.2634  0.1945 -0.5240
  536MOL0     C72257   5.705   6.975   3.455  0.1393 -0.8259  0.7062
  536MOL0     C72258   5.831   7.033   3.474  0.0983 -1.0575 -0.5515
  536MOL0     C72259   5.943   6.945   3.469  0.7112  0.3769 -0.0319
  536MOL0     O72260   6.065   6.997   3.501  0.2429  0.3937 -0.0038
  536MOL0     C72261   6.146   7.036   3.396  0.7610  0.1101 -0.1963
  536MOL0     C72262   6.117   7.185   3.371 -0.2301  0.7862  0.1514
  536MOL0     C72263   6.210   7.237   3.262 -0.6275 -0.3204 -0.2873
  536MOL0     C72264   6.198   7.388   3.226 -0.5971  0.5650  0.2695
  536MOL0     C72265   6.086   7.426   3.127  0.4122  0.7018  0.0617
  536MOL0     C72266   6.119   7.388   2.983 -0.1748  0.1659 -0.8223
  536MOL0     C72267   6.039   7.482   2.887 -0.5469  0.0206 -0.3723
  536MOL0     C72268   5.994   7.421   2.757 -0.1505 -0.5357  0.4240
  536MOL0    Cl72269   5.896   7.534   2.644 -0.2458 -0.2545 -0.2678
  536MOL0     C72270   5.927   6.809   3.448  0.0552  0.8032  0.5052
  536MOL0     C72271   5.803   6.759   3.430 -0.9720  0.0860 -0.1267
  536MOL0     O72272   5.547   6.786   3.189 -0.3575  0.0474  0.3647
  536MOL0     C72273   5.301   6.667   3.168 -0.0897  0.2680 -0.5050
  536MOL0     C72274   5.166   6.639   3.172  0.6543 -0.4074  0.2078
  536MOL0     N72275   4.375   6.450   3.036 -0.1392 -0.6417 -0.3704
  536MOL0     N72276   4.347   6.353   2.953  0.3282 -0.4434  0.2756
  536MOL0     C72277   3.660   5.622   2.465  0.2306 -0.1310 -0.0007
  536MOL0     C72278   3.536   5.574   2.484  0.4246  0.0492  1.0093
  536MOL0     C72279   3.139   5.435   2.642  0.0550 -0.7854  0.2927
  536MOL0     C72280   3.056   5.523   2.574  0.3989 -0.2655  0.5279
  536MOL0     C72281   2.920   5.500   2.577  0.0406 -0.3006  1.0980
  536MOL0     C72282   2.861   5.386   2.642 -0.3541 -0.2396 -0.8731
  536MOL0     O72283   2.728   5.379   2.648 -0.0960  0.6171 -0.2470
  536MOL0     C72284   2.656   5.268   2.709  0.4961  0.1887  0.0406
  536MOL0     C72285   2.689   5.131   2.641  0.4931 -1.1761 -0.2774
  536MOL0     C72286   2.653   5.018   2.735 -0.3756  0.1609 -0.3683
  536MOL0     C72287   2.503   4.986   2.729 -0.0203 -0.4421  0.4529
  536MOL0     C72288   2.456   4.943   2.604  0.6988  0.8427 -0.1443
  536MOL0     C72289   2.393   4.927   2.500  0.4112 -0.5824 -0.2059
  536MOL0     C72290   2.952   5.306   2.719 -0.0190 -0.0267 -0.0939
  536MOL0     C72291   3.088   5.329   2.720  0.2585  0.1895 -0.4797
  536MOL0     C72292   3.170   5.232   2.809  0.7763  0.4825  0.1651
  536MOL0     H72293   3.426   5.763   2.742  0.6740 -0.6432  0.9485
  536MOL0     H72294   3.635   5.873   2.701 -4.3520  1.6738  0.2549
  536MOL0     H72295   3.954   5.640   2.455 -0.7350 -1.8642 -3.8902
  536MOL0     H72296   3.881   5.753   2.334  1.6197  0.3709 -0.6114
  536MOL0     H72297   4.012   5.937   2.456  1.7627  0.1361 -1.1225
  536MOL0     H72298   4.097   5.839   2.349  0.5331 -0.3419  0.7586
  536MOL0     H72299   4.192   5.717   2.558 -1.9190 -2.1551  3.4951
  536MOL0     H72300   4.077   5.795   2.662  2.6014 -0.4938  1.7643
  536MOL0     H72301   4.327   5.896   2.509  1.4820 -1.4943  1.8119
  536MOL0     H72302   4.204   6.016   2.586 -1.1666 -0.2085 -0.1169
  536MOL0     H72303   4.281   5.905   2.809  2.4694  1.0314  1.6107
  536MOL0     H72304   4.356   5.784   2.707  3.1002  1.1267 -0.8569
  536MOL0     H72305   4.520   5.914   2.818  0.0084  0.6559 -0.4048
  536MOL0     H72306   4.539   5.956   2.652  2.4091 -0.6068  0.9869
  536MOL0     H72307   4.370   6.153   2.716 -0.3885 -1.5042  0.1296
  536MOL0     H72308   4.545   6.144   2.741 -0.7702 -0.3796 -2.7510
  536MOL0     H72309   4.323   6.071   2.940 -1.0686  1.3329 -3.6431
  536MOL0     H72310   4.483   6.043   2.989 -0.9331  1.7982  4.2739
  536MOL0     H72311   4.554   6.220   3.175  2.9500  1.5849  0.7113
  536MOL0     H72312   4.441   6.575   3.278 -1.0533 -1.7664  1.8385
  536MOL0     H72313   4.527   6.437   3.336 -4.6004 -0.8895  0.0420
  536MOL0     H72314   4.639   6.641   3.123 -0.1387  0.2352 -0.2442
  536MOL0     H72315   4.671   6.645   3.296  1.5362  2.5899 -2.9807
  536MOL0     H72316   4.751   6.414   3.105 -0.0846  1.1664 -2.0927
  536MOL0     H72317   4.779   6.412   3.277  0.8994 -1.5504 -1.3496
  536MOL0     H72318   4.881   6.631   3.102  0.0015  0.4704  1.0822
  536MOL0     H72319   4.964   6.469   3.130 -0.4134 -1.0567  1.0798
  536MOL0     H72320   5.104   6.691   3.500  1.3945 -3.6297  1.4298
  536MOL0     H72321   5.335   6.709   3.516 -1.7473 -0.4667  0.5494
  536MOL0     H72322   5.621   7.044   3.455  1.5989  1.0723 -0.2317
  536MOL0     H72323   5.840   7.136   3.505 -1.9036 -0.6871 -1.0623
  536MOL0     H72324   6.249   7.013   3.425  0.4256 -1.8657 -0.4038
  536MOL0     H72325   6.114   6.978   3.309 -5.6401 -1.7729  2.8519
  536MOL0     H72326   6.018   7.184   3.324  0.6978 -0.0779 -1.8929
  536MOL0     H72327   6.130   7.243   3.463  0.3311 -1.9391  1.9051
  536MOL0     H72328   6.315   7.236   3.293 -0.2289 -0.3600 -1.5489
  536MOL0     H72329   6.210   7.170   3.175  0.6817  1.4476 -1.7510
  536MOL0     H72330   6.295   7.427   3.193 -1.8256  2.9508 -0.7367
  536MOL0     H72331   6.180   7.433   3.324  0.1549 -1.7102  1.5440
  536MOL0     H72332   6.076   7.535   3.116 -0.1406  0.5282 -1.4417
  536MOL0     H72333   5.987   7.386   3.154  0.0905  2.2331  1.3307
  536MOL0     H72334   6.226   7.400   2.963 -0.3579 -0.0153 -1.9331
  536MOL0     H72335   6.102   7.280   2.976 -0.0358  0.0874 -0.0461
  536MOL0     H72336   6.101   7.567   2.857  0.5720 -0.8771 -0.6980
  536MOL0     H72337   5.948   7.522   2.933 -1.1293  1.3192 -2.5437
  536MOL0     H72338   6.077   7.379   2.699 -0.6798 -1.8164  0.5613
  536MOL0     H72339   5.931   7.334   2.776 -0.4383 -0.5669 -0.5872
  536MOL0     H72340   6.017   6.748   3.457  0.5474  1.6100  1.1067
  536MOL0     H72341   5.787   6.657   3.397 -2.5587  0.3249 -0.1828
  536MOL0     H72342   5.362   6.644   3.081  2.3198 -4.2507  2.0319
  536MOL0     H72343   5.118   6.632   3.075 -2.5568  0.2874  1.6069
  536MOL0     H72344   3.726   5.581   2.389 -0.8273 -0.6954 -0.6373
  536MOL0     H72345   3.491   5.500   2.418  1.8079  2.1607 -2.5841
  536MOL0     H72346   3.085   5.606   2.510  0.1393 -0.3950  0.2458
  536MOL0     H72347   2.864   5.570   2.517  1.6206 -1.4807 -1.9989
  536MOL0     H72348   2.548   5.286   2.718  0.4623 -0.2660  0.6149
  536MOL0     H72349   2.677   5.266   2.816 -3.6105 -0.0035  1.0317
  536MOL0     H72350   2.796   5.129   2.621  0.5180 -3.4089 -0.1716
  536MOL0     H72351   2.637   5.118   2.546  0.8869  0.1397 -0.6988
  536MOL0     H72352   2.686   5.038   2.837 -0.1661 -1.1618 -0.1568
  536MOL0     H72353   2.709   4.925   2.718 -0.4995 -0.7670  3.3661
  536MOL0     H72354   2.493   4.905   2.802 -1.9365 -0.0228  0.7338
  536MOL0     H72355   2.430   5.055   2.773  1.1349  1.6028 -0.6896
  536MOL0     H72356   2.332   4.915   2.413 -1.4989 -1.6916  1.2117
  536MOL0     H72357   2.918   5.225   2.783 -1.5867  2.0409  1.8889
  536MOL0     H72358   3.227   5.155   2.755  1.1158  0.0488  1.1176
  536MOL0     H72359   3.246   5.292   2.860  4.0326 -1.5151 -1.9416
  536MOL0     H72360   3.118   5.187   2.894 -0.9298  3.9469  1.1506
  537MOL0     O72361   3.574   6.049   5.604  0.7768 -0.3729 -0.2720
  537MOL0     C72362   3.584   5.959   5.691  0.1933  0.5128 -0.0544
  537MOL0     O72363   3.470   5.898   5.745  0.0927  0.3724  0.3891
  537MOL0     C72364   3.349   5.955   5.710 -0.1211 -0.3313 -0.5847
  537MOL0     C72365   3.276   6.033   5.800 -1.1913 -0.7196  0.1566
  537MOL0     C72366   3.167   6.108   5.756 -0.4602 -0.3336 -1.3148
  537MOL0     C72367   3.117   6.101   5.630  1.1561  0.5539 -0.1646
  537MOL0     O72368   3.009   6.163   5.570 -0.5271 -0.1103 -0.1031
  537MOL0     C72369   2.908   6.213   5.659  0.0849 -0.5567 -0.5209
  537MOL0     C72370   2.791   6.275   5.580  0.4428 -0.4678  0.4904
  537MOL0     C72371   2.713   6.195   5.485 -0.1230  1.2955  0.3686
  537MOL0     C72372   2.580   6.267   5.470  0.0986  0.2210 -0.3329
  537MOL0     C72373   2.509   6.200   5.342  0.1137  0.5760  1.7920
  537MOL0     C72374   2.568   6.245   5.202 -0.1756 -0.0482 -0.5920
  537MOL0     C72375   2.589   6.407   5.195  0.4579  0.7667  0.5509
  537MOL0     C72376   2.627   6.451   5.063 -0.1359  0.2835 -0.0005
  537MOL0     N72377   2.737   6.373   5.006  1.1118  0.0882  1.2128
  537MOL0     C72378   2.871   6.399   5.026 -1.0272  0.0812 -0.5544
  537MOL0     C72379   2.936   6.316   4.950 -0.2478  0.2010  0.1914
  537MOL0     C72380   3.086   6.330   4.919 -0.6618  0.1854  0.3188
  537MOL0     C72381   3.102   6.453   4.834  0.7113  1.0858  0.2435
  537MOL0     C72382   3.244   6.485   4.788  0.3602 -0.2466 -0.0410
  537MOL0     C72383   3.348   6.529   4.890  0.0186  0.7156  0.8157
  537MOL0     O72384   3.476   6.543   4.827 -0.1227 -0.1691  0.7488
  537MOL0     C72385   3.580   6.564   4.911 -1.1224 -0.2905 -0.1477
  537MOL0     C72386   3.580   6.659   5.020 -0.4508  0.4209  0.5933
  537MOL0     C72387   3.699   6.679   5.084 -0.2531  0.3440  0.0703
  537MOL0     C72388   3.821   6.611   5.051 -0.0619 -0.7169 -0.1519
  537MOL0     C72389   3.947   6.644   5.124 -0.4896  0.7403  0.1004
  537MOL0     O72390   4.052   6.549   5.114 -0.1440  0.5675 -0.1684
  537MOL0     C72391   4.178   6.591   5.144  0.5480 -0.4143 -0.1545
  537MOL0     C72392   4.231   6.718   5.121 -0.4729  0.1568 -1.3993
  537MOL0     C72393   4.359   6.750   5.159 -0.0652 -0.4413  0.0485
  537MOL0     C72394   4.450   6.656   5.209  0.8585 -0.1197  0.0855
  537MOL0     O72395   4.579   6.682   5.206 -0.1482 -0.3502  0.2490
  537MOL0     C72396   4.668   6.624   5.311  0.7056 -0.1534 -0.7640
  537MOL0     C72397   4.793   6.706   5.329 -0.0206 -0.2536 -0.9032
  537MOL0     C72398   4.915   6.642   5.276  0.5555 -0.2044  0.6385
  537MOL0     C72399   5.048   6.713   5.321 -0.6331  0.6988  1.5102
  537MOL0     C72400   5.173   6.669   5.239  0.8045  0.0793  0.2516
  537MOL0     C72401   5.231   6.545   5.304  0.5210 -0.5923 -0.2335
  537MOL0     C72402   5.356   6.494   5.226 -0.1866  0.1566  0.1350
  537MOL0     C72403   5.466   6.602   5.204 -0.1842  1.0007 -0.6272
  537MOL0    Cl72404   5.518   6.650   5.361  0.3022  0.0477  0.1905
  537MOL0     C72405   4.398   6.528   5.234 -0.3254 -0.1605 -0.6965
  537MOL0     C72406   4.267   6.493   5.196  0.6726 -0.7889  0.2470
  537MOL0     O72407   3.938   6.739   5.200 -1.1912 -0.0212 -0.1905
  537MOL0     C72408   3.819   6.513   4.952 -0.1628  0.8082 -0.4386
  537MOL0     C72409   3.700   6.490   4.880  0.1412 -0.5291  0.3247
  537MOL0     N72410   2.837   6.245   4.876  0.2246 -0.2928  0.1662
  537MOL0     N72411   2.717   6.277   4.913  0.2669 -0.5051 -0.4565
  537MOL0     C72412   3.189   6.023   5.529  0.3361  0.2303 -0.5014
  537MOL0     C72413   3.307   5.959   5.570  0.3181  0.3913  0.2035
  537MOL0     C72414   3.721   5.906   5.728 -0.2809  0.0624 -0.4710
  537MOL0     C72415   3.828   5.994   5.706 -0.1346  1.2574  0.1219
  537MOL0     C72416   3.964   5.951   5.734  0.0532  0.4212  0.2528
  537MOL0     C72417   3.997   5.827   5.779 -0.1402 -0.3474 -0.6428
  537MOL0     O72418   4.132   5.783   5.795 -0.0616 -0.0459  0.5638
  537MOL0     C72419   4.163   5.645   5.795 -0.4882 -0.5644  0.4383
  537MOL0     C72420   4.315   5.621   5.808 -0.3892  0.4084 -0.2631
  537MOL0     C72421   4.405   5.644   5.683 -0.1091  0.0504  0.2096
  537MOL0     C72422   4.361   5.553   5.578  0.3342  0.2360 -0.2958
  537MOL0     C72423   4.457   5.539   5.459  0.1596 -0.9868  0.8424
  537MOL0     C72424   4.535   5.530   5.370  0.6904 -0.7827  0.1563
  537MOL0     C72425   3.893   5.739   5.791 -0.0209  0.1212 -0.0907
  537MOL0     C72426   3.757   5.775   5.781  0.2265  0.4702 -0.1038
  537MOL0     C72427   3.651   5.673   5.817  0.2263 -0.2101  0.3711
  537MOL0     H72428   3.315   6.030   5.901 -0.3020 -0.3760 -0.1709
  537MOL0     H72429   3.113   6.166   5.830 -2.3167 -0.0412 -2.8135
  537MOL0     H72430   2.881   6.127   5.721  0.0875  1.4507  2.4505
  537MOL0     H72431   2.934   6.290   5.732 -0.2044 -0.2879 -0.6998
  537MOL0     H72432   2.839   6.349   5.515  2.6699  0.0023  2.5397
  537MOL0     H72433   2.727   6.333   5.647  1.5606  0.7372  0.5513
  537MOL0     H72434   2.702   6.098   5.534  5.2281  0.2086 -0.0182
  537MOL0     H72435   2.764   6.163   5.394 -3.0402 -1.3385 -0.5133
  537MOL0     H72436   2.521   6.250   5.560 -1.8203 -2.0173 -1.9034
  537MOL0     H72437   2.597   6.375   5.456 -0.6311  0.4094  0.2084
  537MOL0     H72438   2.516   6.092   5.355 -1.2270  0.3232  0.6769
  537MOL0     H72439   2.401   6.214   5.342 -0.2062 -0.1518 -2.8401
  537MOL0     H72440   2.663   6.191   5.201 -0.4787 -1.1856  4.5311
  537MOL0     H72441   2.497   6.199   5.133  1.3227 -0.6396 -1.7958
  537MOL0     H72442   2.665   6.444   5.265  1.3266 -3.0837  1.8764
  537MOL0     H72443   2.492   6.456   5.212 -0.0712  0.8197 -2.1069
  537MOL0     H72444   2.540   6.455   4.996  0.1427 -0.8768 -0.4536
  537MOL0     H72445   2.651   6.554   5.092  0.1422 -0.3650  2.2541
  537MOL0     H72446   2.909   6.470   5.099  1.2631 -2.2056  0.6446
  537MOL0     H72447   3.143   6.336   5.012  2.6062  0.1038 -1.5412
  537MOL0     H72448   3.114   6.240   4.863  0.9888  0.9708 -0.1694
  537MOL0     H72449   3.045   6.438   4.742 -0.4773  4.5339  0.2652
  537MOL0     H72450   3.068   6.536   4.897 -0.1102  1.6380 -0.8909
  537MOL0     H72451   3.241   6.567   4.716 -0.0131  0.2895  0.5632
  537MOL0     H72452   3.274   6.394   4.736 -1.7493 -0.2696 -1.3546
  537MOL0     H72453   3.364   6.441   4.953  4.0395 -0.3227 -1.3064
  537MOL0     H72454   3.314   6.614   4.949  0.4433  1.9338 -0.6405
  537MOL0     H72455   3.490   6.711   5.049 -0.7292  1.0040 -1.1952
  537MOL0     H72456   3.712   6.758   5.157 -1.2152  0.5363  0.0449
  537MOL0     H72457   4.177   6.799   5.073 -0.3394 -0.3383 -2.4211
  537MOL0     H72458   4.376   6.857   5.148 -2.3491 -0.0041  0.1285
  537MOL0     H72459   4.608   6.619   5.402  0.8544  2.7904 -0.3956
  537MOL0     H72460   4.699   6.524   5.280  0.8722  0.4148 -2.5810
  537MOL0     H72461   4.776   6.806   5.288 -1.1699  0.2899  0.7462
  537MOL0     H72462   4.814   6.719   5.436  0.1336  1.3760 -1.1141
  537MOL0     H72463   4.902   6.543   5.321 -3.2475  1.2244  3.1471
  537MOL0     H72464   4.901   6.641   5.167 -0.1810 -0.2440  0.7325
  537MOL0     H72465   5.052   6.692   5.428 -2.5478 -0.6426  1.3724
  537MOL0     H72466   5.026   6.817   5.295 -1.9759 -0.1792 -1.1916
  537MOL0     H72467   5.244   6.753   5.237 -2.1512  2.7781 -0.6225
  537MOL0     H72468   5.134   6.646   5.140  2.9418 -1.5770 -0.2887
  537MOL0     H72469   5.257   6.556   5.410 -2.7362 -1.8716  0.8361
  537MOL0     H72470   5.160   6.462   5.307  1.1575 -1.1494  2.9869
  537MOL0     H72471   5.322   6.469   5.125  2.5047 -1.5502 -0.4561
  537MOL0     H72472   5.394   6.404   5.274  0.2528 -1.5662 -3.1402
  537MOL0     H72473   5.553   6.554   5.159 -0.4601 -0.6818  0.5540
  537MOL0     H72474   5.424   6.687   5.150 -0.7231  0.4269 -1.1300
  537MOL0     H72475   4.468   6.455   5.272 -2.4685 -0.4750  3.1340
  537MOL0     H72476   4.241   6.392   5.228  1.1506 -1.1125 -0.3442
  537MOL0     H72477   3.914   6.464   4.932 -2.0379 -2.8590 -1.3308
  537MOL0     H72478   3.699   6.414   4.803 -0.6702 -1.1227  0.8934
  537MOL0     H72479   3.150   6.016   5.428 -0.4033 -0.3128 -0.1865
  537MOL0     H72480   3.371   5.901   5.504 -1.1354 -1.3239  0.2523
  537MOL0     H72481   3.820   6.091   5.658 -0.5201  0.4850 -1.4585
  537MOL0     H72482   4.055   6.010   5.722  1.1037 -0.7539  1.9926
  537MOL0     H72483   4.125   5.595   5.705  0.7023 -1.8956  0.6457
  537MOL0     H72484   4.106   5.596   5.874 -2.0163 -0.7080 -0.7011
  537MOL0     H72485   4.331   5.518   5.841 -1.0653  0.4597  0.2538
  537MOL0     H72486   4.344   5.696   5.881 -1.3094  1.5837 -1.0551
  537MOL0     H72487   4.509   5.622   5.711  1.6191  1.2816 -4.4455
  537MOL0     H72488   4.400   5.745   5.644 -0.3594  0.0512  0.2423
  537MOL0     H72489   4.361   5.454   5.626  3.2107  0.9013  1.2879
  537MOL0     H72490   4.261   5.579   5.541  0.4794 -0.1460 -0.9912
  537MOL0     H72491   4.598   5.517   5.284 -1.4182  2.1542 -2.0199
  537MOL0     H72492   3.904   5.632   5.805  0.9147  0.0991 -0.9023
  537MOL0     H72493   3.696   5.576   5.839  0.2184 -0.1771  0.5323
  537MOL0     H72494   3.602   5.706   5.909 -1.5440  2.3966 -1.3562
  537MOL0     H72495   3.588   5.668   5.728  1.9048 -0.3086 -0.8566
  538MOL0     O72496   8.308   2.640   9.295 -0.2821  0.2252 -0.4569
  538MOL0     C72497   8.304   2.625   9.418  0.9505  0.2974 -0.2528
  538MOL0     O72498   8.411   2.638   9.500  0.2555 -0.3003 -0.0624
  538MOL0     C72499   8.527   2.679   9.440  0.6054 -0.2195 -1.0591
  538MOL0     C72500   8.633   2.583   9.408 -0.8369  0.3551  0.2777
  538MOL0     C72501   8.759   2.624   9.371  0.3353 -0.0195 -0.2455
  538MOL0     C72502   8.790   2.763   9.353  0.0486  0.1066 -0.1885
  538MOL0     O72503   8.912   2.807   9.310 -0.1088 -0.3386  0.0248
  538MOL0     C72504   9.013   2.712   9.264 -0.3599 -0.1101 -0.4933
  538MOL0     C72505   9.126   2.798   9.202  0.1186 -0.0354 -0.2981
  538MOL0     C72506   9.266   2.726   9.217  0.1531  0.2726  0.1282
  538MOL0     C72507   9.363   2.784   9.123 -0.0206 -0.3644 -0.6032
  538MOL0     C72508   9.496   2.718   9.135  0.3782  0.1557  0.7955
  538MOL0     C72509   9.595   2.728   9.015  0.7404 -0.8803  0.0058
  538MOL0     C72510   9.707   2.621   9.022  0.1306 -0.3156  0.5799
  538MOL0     C72511   9.638   2.486   8.994 -0.6999 -1.0577 -0.1365
  538MOL0     N72512   9.738   2.395   8.931  0.6928  0.2900 -0.6629
  538MOL0     C72513   9.779   2.280   8.991 -0.2789  1.1684  0.2040
  538MOL0     C72514   9.871   2.241   8.895 -1.3561  0.6521 -0.7827
  538MOL0     C72515   9.959   2.126   8.915 -0.1595  0.4184  0.6589
  538MOL0     C72516  10.107   2.152   8.859  0.2686 -1.0510 -0.1610
  538MOL0     C72517  10.197   2.031   8.885 -1.2853  0.6270  0.7704
  538MOL0     C72518  10.342   2.045   8.823  0.3415  1.0357  0.8984
  538MOL0     O72519  10.438   1.995   8.915 -0.4204  0.3715 -0.0376
  538MOL0     C72520  10.575   2.006   8.882 -0.0884  0.2798 -0.6030
  538MOL0     C72521  10.634   2.033   8.758 -0.4742 -0.1493  0.0027
  538MOL0     C72522  10.771   2.056   8.754 -0.1823  0.7741  0.8367
  538MOL0     C72523  10.860   2.033   8.863  0.2245 -0.2302 -0.3081
  538MOL0     C72524  10.999   2.041   8.857  0.1861  0.2392 -0.0665
  538MOL0     O72525  11.061   2.010   8.976  0.0705 -0.3598  0.4466
  538MOL0     C72526  11.198   2.003   8.958  0.4253  0.4727 -0.6458
  538MOL0     C72527  11.279   2.099   9.017 -0.0094 -0.2874 -0.5152
  538MOL0     C72528  11.427   2.084   9.034  0.5515 -0.2981  0.3226
  538MOL0     C72529  11.479   1.968   8.978  0.2465 -0.3511  1.2416
  538MOL0     O72530  11.614   1.950   8.978 -0.2706 -0.1763 -0.7212
  538MOL0     C72531  11.668   1.824   9.037 -0.0211 -0.7155  0.1167
  538MOL0     C72532  11.689   1.837   9.188 -0.3497 -0.2353  0.6915
  538MOL0     C72533  11.786   1.715   9.227 -0.2186 -0.9481 -0.4365
  538MOL0     C72534  11.932   1.765   9.206 -0.4329 -0.0293 -1.1497
  538MOL0     C72535  12.035   1.660   9.256 -0.0644 -0.1600 -0.2207
  538MOL0     C72536  12.174   1.679   9.211  0.0349  0.2621  0.3397
  538MOL0     C72537  12.277   1.566   9.226  0.3331 -0.0011  0.2979
  538MOL0     C72538  12.420   1.591   9.186 -0.3172  0.1458  1.4524
  538MOL0    Cl72539  12.507   1.449   9.239  0.1760 -0.5584 -0.2201
  538MOL0     C72540  11.395   1.868   8.924 -0.6967 -0.6053  0.7212
  538MOL0     C72541  11.261   1.881   8.912 -0.0526 -0.1095 -0.0489
  538MOL0     O72542  11.050   2.084   8.749 -0.5004  0.6563  0.5078
  538MOL0     C72543  10.791   2.017   8.993  0.7319 -0.1817  0.0365
  538MOL0     C72544  10.653   1.994   8.997 -0.1941 -0.3210  0.8880
  538MOL0     N72545   9.869   2.318   8.778 -0.1339 -0.2848 -0.1000
  538MOL0     N72546   9.777   2.403   8.800  0.6920 -0.3991  0.5246
  538MOL0     C72547   8.690   2.857   9.377  0.0865  0.7274 -0.7725
  538MOL0     C72548   8.566   2.814   9.432  0.0401 -0.1585 -0.3699
  538MOL0     C72549   8.171   2.595   9.475  1.4600  0.0388 -0.0132
  538MOL0     C72550   8.059   2.608   9.393 -0.2426  0.4650  0.1214
  538MOL0     C72551   7.946   2.556   9.420  0.6390 -0.8226  0.4477
  538MOL0     C72552   7.927   2.501   9.553  0.4873 -0.1557  0.0821
  538MOL0     O72553   7.810   2.434   9.585  0.2008 -0.5323 -0.7909
  538MOL0     C72554   7.694   2.451   9.502  0.5752  0.4431  0.3309
  538MOL0     C72555   7.579   2.379   9.576  0.1638  0.2880 -0.0394
  538MOL0     C72556   7.554   2.438   9.719  0.5801 -0.3796  0.0260
  538MOL0     C72557   7.430   2.361   9.789  0.1827  0.9150 -0.0250
  538MOL0     C72558   7.302   2.388   9.709 -0.2500  0.2124  0.4255
  538MOL0     C72559   7.210   2.403   9.635  0.1980 -0.9422 -0.0757
  538MOL0     C72560   8.027   2.507   9.640  0.2260  0.6412 -0.8255
  538MOL0     C72561   8.154   2.550   9.611 -0.6811 -0.4801  0.2523
  538MOL0     C72562   8.264   2.527   9.715 -0.3254 -1.1527  0.5210
  538MOL0     H72563   8.609   2.477   9.412  0.5327 -0.0898 -1.6540
  538MOL0     H72564   8.824   2.538   9.356 -0.5654 -0.9644  1.0912
  538MOL0     H72565   9.065   2.656   9.343  0.9135 -1.0052 -1.8932
  538MOL0     H72566   8.973   2.628   9.205 -1.7817 -2.0078  2.8957
  538MOL0     H72567   9.122   2.896   9.249 -2.3893  0.4651 -1.3743
  538MOL0     H72568   9.108   2.802   9.094  3.1925  1.5685 -0.8470
  538MOL0     H72569   9.247   2.618   9.209  1.5231  0.0844 -1.1822
  538MOL0     H72570   9.300   2.742   9.320  1.6626  1.2285 -0.4963
  538MOL0     H72571   9.329   2.789   9.019 -2.3009 -1.6136  0.0131
  538MOL0     H72572   9.381   2.889   9.145  2.8665 -0.4075 -2.3186
  538MOL0     H72573   9.544   2.763   9.222 -0.9927  0.3809  1.4652
  538MOL0     H72574   9.475   2.611   9.145 -0.4167  0.1457 -0.6698
  538MOL0     H72575   9.534   2.719   8.924 -1.0106  1.3526  0.8594
  538MOL0     H72576   9.638   2.829   9.013 -2.3775  0.6454  1.7757
  538MOL0     H72577   9.762   2.615   9.116  1.5066 -2.2046 -0.2671
  538MOL0     H72578   9.780   2.645   8.944  0.5196  1.2398  1.3881
  538MOL0     H72579   9.610   2.441   9.090 -1.0224 -1.1402 -0.2692
  538MOL0     H72580   9.549   2.510   8.935  0.6836  3.5731 -0.7335
  538MOL0     H72581   9.775   2.237   9.091  0.8642  0.1466 -0.1582
  538MOL0     H72582   9.971   2.114   9.023 -0.2887 -2.1884  0.4461
  538MOL0     H72583   9.909   2.036   8.878 -2.9575  1.9390  0.4831
  538MOL0     H72584  10.107   2.184   8.755 -1.8953  1.3841  0.4976
  538MOL0     H72585  10.147   2.237   8.916 -1.0437 -1.5387  1.5811
  538MOL0     H72586  10.148   1.947   8.834 -1.5203 -1.9996  4.8548
  538MOL0     H72587  10.213   2.008   8.991  2.8187  0.7736  0.3173
  538MOL0     H72588  10.360   2.151   8.802  0.9304  0.9152  0.7818
  538MOL0     H72589  10.344   1.988   8.730 -2.8827  2.8632 -0.4716
  538MOL0     H72590  10.592   2.032   8.658  3.2202 -2.8938 -1.7631
  538MOL0     H72591  10.808   2.066   8.652  2.3753 -5.8431  0.6073
  538MOL0     H72592  11.221   2.176   9.066 -0.3955 -1.6768  1.3226
  538MOL0     H72593  11.483   2.160   9.087  0.3112  0.8707 -1.0590
  538MOL0     H72594  11.598   1.740   9.031  0.2123 -1.0129  1.2464
  538MOL0     H72595  11.757   1.805   8.977 -1.6376 -3.4562 -1.6188
  538MOL0     H72596  11.728   1.932   9.224  0.4622  0.6504 -2.1989
  538MOL0     H72597  11.594   1.824   9.241  1.1486 -1.1233  3.3271
  538MOL0     H72598  11.763   1.689   9.331 -0.1342 -0.9282 -0.4125
  538MOL0     H72599  11.752   1.631   9.166 -1.3244 -1.8725  1.3537
  538MOL0     H72600  11.963   1.862   9.245  0.7768 -0.6397 -0.5179
  538MOL0     H72601  11.936   1.772   9.097  0.6034 -0.4540 -1.1554
  538MOL0     H72602  11.995   1.566   9.217 -3.0631  0.8194  0.2559
  538MOL0     H72603  12.027   1.647   9.365  1.4662 -0.1591 -0.0819
  538MOL0     H72604  12.178   1.713   9.107  0.6985  2.0734  0.9079
  538MOL0     H72605  12.216   1.759   9.274 -0.3675  1.1407 -0.4821
  538MOL0     H72606  12.246   1.472   9.179 -1.8760 -0.9576  3.3788
  538MOL0     H72607  12.272   1.542   9.333 -0.7756  0.0015  0.2575
  538MOL0     H72608  12.431   1.593   9.077 -1.3945 -1.2283  1.2913
  538MOL0     H72609  12.450   1.686   9.231  2.0245 -0.7206  1.8580
  538MOL0     H72610  11.444   1.780   8.883  1.9711 -0.0635  2.5297
  538MOL0     H72611  11.222   1.786   8.876 -0.9068  0.7312 -1.4075
  538MOL0     H72612  10.840   2.035   9.088  2.7884  1.5455 -1.2678
  538MOL0     H72613  10.600   1.972   9.089 -0.1455  0.4856  1.1178
  538MOL0     H72614   8.700   2.964   9.361 -0.6722  0.4832 -3.4152
  538MOL0     H72615   8.503   2.898   9.461  0.5576 -0.4700  1.8362
  538MOL0     H72616   8.056   2.646   9.292 -3.3722 -1.4967 -0.6419
  538MOL0     H72617   7.878   2.528   9.340  0.5826  1.8777 -0.5731
  538MOL0     H72618   7.705   2.421   9.398 -0.6550  0.6913  0.1085
  538MOL0     H72619   7.665   2.556   9.499  0.2704  0.3432 -0.3363
  538MOL0     H72620   7.612   2.276   9.592  3.9760  1.3574 -0.1002
  538MOL0     H72621   7.492   2.391   9.510  0.8487  4.0752 -0.5195
  538MOL0     H72622   7.530   2.544   9.709  0.0185 -0.6573 -1.8971
  538MOL0     H72623   7.640   2.430   9.787 -1.4683  0.9238  3.0057
  538MOL0     H72624   7.467   2.259   9.793 -0.0295  0.8496  3.5878
  538MOL0     H72625   7.408   2.396   9.890 -2.2490 -0.6418  0.0627
  538MOL0     H72626   7.127   2.389   9.569 -1.5897  0.0693  1.8472
  538MOL0     H72627   8.007   2.466   9.739  1.3207  0.3699 -0.7015
  538MOL0     H72628   8.221   2.501   9.812 -2.4733  1.7930  0.5150
  538MOL0     H72629   8.330   2.449   9.676  2.6055  0.9880  0.9194
  538MOL0     H72630   8.320   2.620   9.717  1.0621 -1.7338 -3.1567
  539MOL0     O72631   3.382   2.842   2.104 -0.3289  0.6201 -0.0142
  539MOL0     C72632   3.321   2.926   2.172 -0.3616  0.6681 -0.3782
  539MOL0     O72633   3.379   3.033   2.231  0.0155 -0.7775 -0.0479
  539MOL0     C72634   3.514   3.061   2.229  0.1721 -0.2979  0.1039
  539MOL0     C72635   3.612   3.012   2.135  0.3918  0.2036  0.0902
  539MOL0     C72636   3.746   3.032   2.169 -0.1128  0.2670  0.3756
  539MOL0     C72637   3.782   3.119   2.270  0.9769  0.5007 -0.0632
  539MOL0     O72638   3.912   3.142   2.294 -0.5436 -0.1460 -0.2027
  539MOL0     C72639   3.979   3.109   2.421  0.1327 -0.2192 -0.1945
  539MOL0     C72640   4.128   3.099   2.400  0.1298 -0.1956  0.4467
  539MOL0     C72641   4.192   3.048   2.527 -0.1215 -0.6955  1.3479
  539MOL0     C72642   4.340   3.008   2.505  0.3634  1.0397  0.2488
  539MOL0     C72643   4.443   3.122   2.520 -0.5198 -1.1284  0.2018
  539MOL0     C72644   4.587   3.064   2.502  0.3580  0.1869  0.8492
  539MOL0     C72645   4.694   3.168   2.502 -0.1557  0.1472 -0.1790
  539MOL0     C72646   4.696   3.255   2.620 -0.0444 -0.7398  0.1497
  539MOL0     N72647   4.749   3.182   2.739 -0.0584  0.2834  0.2504
  539MOL0     C72648   4.872   3.120   2.746  0.0818  0.7951 -0.4156
  539MOL0     C72649   4.903   3.096   2.875  0.4269 -0.2485  0.2654
  539MOL0     C72650   5.008   3.009   2.928  0.1102  0.4314 -0.0366
  539MOL0     C72651   5.147   3.074   2.923 -0.1730 -0.4785  0.1515
  539MOL0     C72652   5.245   2.995   3.008  0.6242  0.2652 -0.2257
  539MOL0     C72653   5.387   3.047   2.972  0.3239 -0.7930 -0.3396
  539MOL0     O72654   5.492   2.958   3.007  0.0175 -0.0333  0.0194
  539MOL0     C72655   5.619   3.014   3.005  0.1213 -0.1281  0.6942
  539MOL0     C72656   5.718   2.936   3.070  0.2774 -1.2729  1.2443
  539MOL0     C72657   5.851   2.982   3.089  0.2331  0.0797 -0.3889
  539MOL0     C72658   5.885   3.109   3.033  0.7759 -0.0784 -0.8467
  539MOL0     C72659   6.034   3.153   3.063  0.0812 -0.8257 -0.2496
  539MOL0     O72660   6.126   3.060   3.110  0.4089 -0.1089 -0.2811
  539MOL0     C72661   6.246   3.092   3.177 -0.0594 -0.0201 -0.2207
  539MOL0     C72662   6.337   2.985   3.213  0.2695 -0.0453 -0.7778
  539MOL0     C72663   6.448   3.004   3.296  0.0440  0.2635 -0.0653
  539MOL0     C72664   6.480   3.137   3.340  0.4089 -0.3553 -0.0165
  539MOL0     O72665   6.594   3.152   3.407 -0.0580  0.4456  0.5105
  539MOL0     C72666   6.640   3.284   3.443  0.4526 -0.1856 -0.7211
  539MOL0     C72667   6.795   3.289   3.454  0.1580  0.4472 -0.1811
  539MOL0     C72668   6.845   3.234   3.590 -0.6148  0.1809  0.3050
  539MOL0     C72669   7.001   3.259   3.583 -0.1312  0.3980 -0.1336
  539MOL0     C72670   7.059   3.243   3.725 -1.0895  0.7690  0.6849
  539MOL0     C72671   7.202   3.274   3.737 -0.2658  0.0014  0.0202
  539MOL0     C72672   7.295   3.179   3.657  0.3242  0.6035 -0.1844
  539MOL0     C72673   7.431   3.210   3.704 -1.0439  1.4248 -0.1668
  539MOL0    Cl72674   7.487   3.368   3.645 -0.0286 -0.3819 -0.2023
  539MOL0     C72675   6.392   3.244   3.296  0.2446  0.2473 -0.6923
  539MOL0     C72676   6.277   3.225   3.224  0.1138  0.7157 -0.4253
  539MOL0     O72677   6.063   3.265   3.033  0.3179  0.1304  1.3264
  539MOL0     C72678   5.790   3.181   2.964 -0.6922 -0.7841 -0.0470
  539MOL0     C72679   5.659   3.135   2.953 -0.1583 -0.6886 -0.3774
  539MOL0     N72680   4.798   3.163   2.945 -0.2145 -0.1402 -0.7796
  539MOL0     N72681   4.716   3.221   2.866  0.4110 -0.6638  0.1618
  539MOL0     C72682   3.683   3.174   2.357 -0.5065 -0.9725  0.7601
  539MOL0     C72683   3.554   3.151   2.328 -0.3575  0.2643 -0.3851
  539MOL0     C72684   3.171   2.910   2.198  0.3023 -0.0098  0.6371
  539MOL0     C72685   3.112   2.976   2.306 -0.1208 -0.7521  1.1749
  539MOL0     C72686   2.974   2.955   2.331 -0.3358  0.4716  0.5191
  539MOL0     C72687   2.894   2.893   2.234  0.4475 -0.3061  0.0528
  539MOL0     O72688   2.767   2.861   2.246  0.6683  0.0696 -0.2305
  539MOL0     C72689   2.693   2.875   2.364 -0.3498  0.2834 -0.3786
  539MOL0     C72690   2.563   2.791   2.365 -1.1741  0.3720  0.2763
  539MOL0     C72691   2.595   2.641   2.411 -0.9771  0.3867 -0.1347
  539MOL0     C72692   2.477   2.556   2.417  0.5638 -0.9009  0.0431
  539MOL0     C72693   2.407   2.551   2.292  0.3424  0.8133 -0.6037
  539MOL0     C72694   2.359   2.565   2.189 -0.1694 -0.7090  0.5291
  539MOL0     C72695   2.946   2.848   2.115 -0.1174  0.0977  0.0870
  539MOL0     C72696   3.084   2.848   2.097 -0.8461  0.7023 -0.2037
  539MOL0     C72697   3.124   2.781   1.970 -0.6674  0.2990  0.8169
  539MOL0     H72698   3.605   2.935   2.059 -1.7552 -0.6353  1.0449
  539MOL0     H72699   3.829   3.019   2.099  1.1468 -0.0283  1.8720
  539MOL0     H72700   3.950   3.171   2.506  0.2350 -1.1767  0.5616
  539MOL0     H72701   3.939   3.016   2.463 -0.2844  0.8035  1.8432
  539MOL0     H72702   4.158   3.202   2.379 -0.9901  0.5268  2.1517
  539MOL0     H72703   4.157   3.035   2.316  0.3955  1.4888 -0.8001
  539MOL0     H72704   4.141   2.955   2.554 -0.0005 -0.4203  2.6078
  539MOL0     H72705   4.184   3.123   2.606  1.1166  1.7897 -0.7385
  539MOL0     H72706   4.360   2.924   2.573  3.2560 -0.0889 -1.7775
  539MOL0     H72707   4.348   2.966   2.404  2.7852  1.2949  0.2886
  539MOL0     H72708   4.404   3.195   2.448  1.1725 -0.7572 -0.3854
  539MOL0     H72709   4.428   3.168   2.618 -5.4477 -0.9805 -0.3735
  539MOL0     H72710   4.594   2.993   2.585 -0.1202 -1.9639 -0.8539
  539MOL0     H72711   4.587   3.014   2.405 -1.6934 -1.2742  1.5297
  539MOL0     H72712   4.687   3.228   2.410 -1.4359 -0.7265 -0.6906
  539MOL0     H72713   4.793   3.121   2.499 -0.3709 -0.2774 -1.6651
  539MOL0     H72714   4.783   3.320   2.603  1.0098 -2.7385 -3.0790
  539MOL0     H72715   4.607   3.318   2.631  1.5732  1.4333  1.4732
  539MOL0     H72716   4.948   3.099   2.672  3.0952  1.2095  2.3452
  539MOL0     H72717   4.983   2.981   3.031 -0.8471  1.4485  0.0118
  539MOL0     H72718   5.008   2.919   2.865 -5.4811  0.3332 -0.3347
  539MOL0     H72719   5.191   3.075   2.823  0.2104  0.9465  0.3198
  539MOL0     H72720   5.144   3.179   2.952 -3.9660 -0.6215  0.7725
  539MOL0     H72721   5.235   2.890   2.980  1.9595  0.4203 -1.4361
  539MOL0     H72722   5.221   3.006   3.114 -0.3273 -2.2370 -0.1037
  539MOL0     H72723   5.398   3.146   3.017  1.0123 -1.4721  1.0545
  539MOL0     H72724   5.382   3.076   2.867 -0.5754  1.5953  0.2707
  539MOL0     H72725   5.689   2.837   3.103 -1.3996 -1.4077 -0.4837
  539MOL0     H72726   5.918   2.917   3.144 -1.2002 -2.5396 -1.5667
  539MOL0     H72727   6.289   2.893   3.180 -0.2528  0.9270 -2.9385
  539MOL0     H72728   6.516   2.925   3.325 -1.4872 -0.3501  2.1268
  539MOL0     H72729   6.615   3.339   3.352 -1.2311 -0.4750 -0.4776
  539MOL0     H72730   6.578   3.327   3.523  0.1197  0.7336 -1.4546
  539MOL0     H72731   6.849   3.238   3.374  1.9520 -0.1793  1.3661
  539MOL0     H72732   6.815   3.396   3.446 -0.5607  0.6929  1.0125
  539MOL0     H72733   6.801   3.292   3.672 -3.3955 -0.1961 -0.8403
  539MOL0     H72734   6.831   3.127   3.602  3.1650 -0.3255  1.7166
  539MOL0     H72735   7.015   3.360   3.543 -0.3413  0.7565  0.6745
  539MOL0     H72736   7.039   3.182   3.516 -1.2645 -0.1760 -0.1436
  539MOL0     H72737   7.043   3.141   3.763  3.4487 -0.4923 -0.2192
  539MOL0     H72738   7.009   3.312   3.792 -1.5491 -2.5682  4.1187
  539MOL0     H72739   7.217   3.374   3.695 -1.8686 -0.2519 -1.2717
  539MOL0     H72740   7.228   3.285   3.843  2.4952 -1.6568 -0.4012
  539MOL0     H72741   7.285   3.205   3.551 -0.5063 -1.5779 -0.6973
  539MOL0     H72742   7.273   3.072   3.667  0.9813  0.3137 -1.6115
  539MOL0     H72743   7.437   3.203   3.813 -2.3908 -1.1090 -0.1932
  539MOL0     H72744   7.496   3.137   3.656 -3.3783 -2.7634  2.4374
  539MOL0     H72745   6.414   3.349   3.309  0.7621  0.1934 -1.0838
  539MOL0     H72746   6.201   3.303   3.221 -1.1124 -0.2389  2.5098
  539MOL0     H72747   5.808   3.286   2.942 -1.7448  0.4760  4.1701
  539MOL0     H72748   5.590   3.195   2.895  2.2499  2.2336 -0.4629
  539MOL0     H72749   3.706   3.242   2.437 -4.2378  1.8648 -0.2936
  539MOL0     H72750   3.479   3.199   2.390  0.8422  1.0827  0.4778
  539MOL0     H72751   3.170   3.034   2.376  2.2873  1.6711 -2.4515
  539MOL0     H72752   2.934   2.978   2.429  1.9162  0.1118  1.5902
  539MOL0     H72753   2.663   2.980   2.375 -0.4160  0.0672  2.0692
  539MOL0     H72754   2.754   2.851   2.451 -0.1641 -1.8873 -1.0606
  539MOL0     H72755   2.535   2.794   2.260  0.2221  1.4047 -0.0963
  539MOL0     H72756   2.485   2.837   2.426 -2.8470 -1.8244 -0.0674
  539MOL0     H72757   2.635   2.647   2.513  2.1343  2.1061 -1.3317
  539MOL0     H72758   2.667   2.595   2.343 -0.1935  3.2442 -1.3743
  539MOL0     H72759   2.506   2.455   2.445 -1.8108 -1.8011 -0.4688
  539MOL0     H72760   2.407   2.587   2.496  2.5887  0.9517  1.2317
  539MOL0     H72761   2.323   2.579   2.089 -1.0818 -1.9894  0.6482
  539MOL0     H72762   2.880   2.797   2.045  1.3199 -0.2960 -1.0317
  539MOL0     H72763   3.042   2.774   1.898 -0.2731  4.5293 -0.3448
  539MOL0     H72764   3.206   2.829   1.915  0.5869 -3.0176 -0.4498
  539MOL0     H72765   3.157   2.678   1.983  1.2931  0.5685 -1.2824
  540MOL0     O72766   3.124  10.543  11.117  0.7760  0.4321  0.4637
  540MOL0     C72767   3.128  10.655  11.162 -0.2387  0.2902 -0.1080
  540MOL0     O72768   3.244  10.716  11.195  0.0059  0.1882 -0.2510
  540MOL0     C72769   3.355  10.694  11.113  0.9651 -0.7024  0.0935
  540MOL0     C72770   3.451  10.603  11.152 -0.2606  0.6512 -0.3870
  540MOL0     C72771   3.576  10.594  11.089 -0.3171  0.2587 -0.2237
  540MOL0     C72772   3.608  10.676  10.983  0.1047  0.2645 -0.1190
  540MOL0     O72773   3.726  10.689  10.915 -0.5715 -0.1259 -0.1644
  540MOL0     C72774   3.832  10.590  10.936 -0.0604  0.6026  0.3860
  540MOL0     C72775   3.976  10.639  10.914  0.1208  0.6061  0.1656
  540MOL0     C72776   4.030  10.710  11.040 -0.0176 -0.5230 -0.2586
  540MOL0     C72777   4.184  10.749  11.023  1.1152 -0.1258  0.6206
  540MOL0     C72778   4.240  10.795  11.150  0.1931  0.8703  0.0656
  540MOL0     C72779   4.366  10.880  11.125  0.7849 -0.2413 -1.0309
  540MOL0     C72780   4.430  10.910  11.262  0.6121 -0.2725 -0.2389
  540MOL0     C72781   4.376  11.036  11.339 -0.4477  0.3866 -0.8524
  540MOL0     N72782   4.437  11.039  11.469 -0.2468  0.5332 -0.2094
  540MOL0     C72783   4.572  11.033  11.508 -0.8106  0.2809 -1.2422
  540MOL0     C72784   4.572  11.059  11.647 -0.0140 -0.0978 -0.2982
  540MOL0     C72785   4.694  11.039  11.733  1.2603 -1.2318  0.3349
  540MOL0     C72786   4.766  11.172  11.733  0.1309 -0.8172 -0.5860
  540MOL0     C72787   4.701  11.290  11.814  0.1708  0.2479 -0.6785
  540MOL0     C72788   4.794  11.395  11.840 -0.1229 -0.6352 -0.4649
  540MOL0     O72789   4.894  11.336  11.917 -0.4050 -0.7584 -0.2510
  540MOL0     C72790   4.992  11.399  11.995 -0.8258  0.2041  0.3729
  540MOL0     C72791   5.054  11.327  12.096  0.0362 -0.3781 -0.2547
  540MOL0     C72792   5.160  11.382  12.175 -0.0225 -0.5357  0.1626
  540MOL0     C72793   5.179  11.522  12.159 -0.5614 -0.0706  0.3825
  540MOL0     C72794   5.294  11.589  12.230  0.4548 -0.5280 -0.0826
  540MOL0     O72795   5.405  11.521  12.265 -0.1634  0.0198 -0.0244
  540MOL0     C72796   5.523  11.577  12.309 -0.3194 -0.6145 -0.5888
  540MOL0     C72797   5.642  11.509  12.294 -0.1368 -0.0037 -0.0182
  540MOL0     C72798   5.765  11.560  12.342 -0.1655  0.4981 -0.9915
  540MOL0     C72799   5.765  11.679  12.414 -0.7311 -0.6452 -0.0532
  540MOL0     O72800   5.890  11.736  12.460  0.7396 -0.1807  0.4995
  540MOL0     C72801   6.015  11.708  12.391  0.4366 -0.0685  0.1236
  540MOL0     C72802   6.113  11.801  12.455  0.2440  0.1592 -0.5380
  540MOL0     C72803   6.247  11.780  12.382  0.0049  0.6480 -0.5476
  540MOL0     C72804   6.336  11.677  12.460 -0.4886  0.0089 -0.7016
  540MOL0     C72805   6.477  11.664  12.404  0.5000  0.0484  0.1193
  540MOL0     C72806   6.560  11.783  12.423  0.1137 -0.2009 -0.1008
  540MOL0     C72807   6.690  11.778  12.350 -0.8134  0.3257 -0.4108
  540MOL0     C72808   6.763  11.913  12.363  0.6074 -0.3595  0.2122
  540MOL0    Cl72809   6.922  11.894  12.278  0.1190 -0.0333  0.0721
  540MOL0     C72810   5.651  11.753  12.427  0.5535 -0.0151  0.1003
  540MOL0     C72811   5.532  11.699  12.383 -1.5459 -0.2967 -0.4811
  540MOL0     O72812   5.279  11.709  12.250  0.9318  0.1367  0.2490
  540MOL0     C72813   5.105  11.595  12.067  0.0296  0.8082  0.6585
  540MOL0     C72814   5.005  11.537  11.992 -0.1118 -0.1115  0.0835
  540MOL0     N72815   4.441  11.084  11.683  0.3681 -0.8518 -1.0761
  540MOL0     N72816   4.371  11.073  11.585  0.0211  0.2361 -0.4637
  540MOL0     C72817   3.517  10.768  10.931  0.5376  0.0505  0.1022
  540MOL0     C72818   3.392  10.777  11.000  1.1037 -0.2830  0.1804
  540MOL0     C72819   2.999  10.720  11.194 -0.7463  0.6028  0.1103
  540MOL0     C72820   2.980  10.779  11.316  0.2203 -0.3032 -0.2600
  540MOL0     C72821   2.849  10.829  11.347 -0.5136  0.3799 -0.6031
  540MOL0     C72822   2.742  10.827  11.254 -0.1841 -0.7740 -0.2244
  540MOL0     O72823   2.634  10.901  11.291 -0.1864  0.0579  0.1052
  540MOL0     C72824   2.512  10.859  11.229 -0.1484 -0.3383  0.9768
  540MOL0     C72825   2.388  10.893  11.305 -0.3477  0.1382  0.1812
  540MOL0     C72826   2.402  10.841  11.445  0.4551 -0.6640 -0.7263
  540MOL0     C72827   2.264  10.884  11.507  0.4414 -0.3263 -0.7133
  540MOL0     C72828   2.249  10.835  11.646 -0.2636 -0.4221 -0.2773
  540MOL0     C72829   2.216  10.812  11.760 -0.2827 -0.6003 -0.1513
  540MOL0     C72830   2.762  10.760  11.135 -0.3341  1.0429  0.0631
  540MOL0     C72831   2.891  10.709  11.106  0.2371 -0.7294 -0.1704
  540MOL0     C72832   2.890  10.654  10.967  0.5998 -0.9960  0.0053
  540MOL0     H72833   3.414  10.547  11.238 -0.3358  0.5676 -0.4733
  540MOL0     H72834   3.661  10.540  11.129  1.8194 -0.5324 -5.1382
  540MOL0     H72835   3.827  10.546  11.036  0.1251 -0.2073  0.0511
  540MOL0     H72836   3.807  10.516  10.859  0.5285  0.1708  0.5988
  540MOL0     H72837   3.968  10.714  10.835  3.0885 -0.4606 -1.3186
  540MOL0     H72838   4.040  10.555  10.884 -2.4173 -1.5914  0.5448
  540MOL0     H72839   4.017  10.646  11.127  0.0426  0.2231  0.3040
  540MOL0     H72840   3.965  10.796  11.060  0.7972 -0.4596  2.5321
  540MOL0     H72841   4.232  10.658  10.986  0.3835 -0.5789  0.7559
  540MOL0     H72842   4.204  10.823  10.944 -0.0831 -0.6308 -0.1838
  540MOL0     H72843   4.163  10.855  11.199 -0.4400 -1.4930  2.1863
  540MOL0     H72844   4.260  10.705  11.209  2.7200 -0.8492 -3.0760
  540MOL0     H72845   4.438  10.832  11.058 -0.3475 -0.5666 -2.0447
  540MOL0     H72846   4.345  10.978  11.080  2.0481 -0.2383 -1.6847
  540MOL0     H72847   4.534  10.934  11.240  0.7009  0.1472  0.5951
  540MOL0     H72848   4.419  10.826  11.331 -0.3455  1.0259  1.2651
  540MOL0     H72849   4.407  11.129  11.289  1.8129  1.9838  3.0861
  540MOL0     H72850   4.270  11.030  11.363 -0.2935  0.0644 -0.2519
  540MOL0     H72851   4.657  10.998  11.450 -2.0090 -2.4597 -1.5501
  540MOL0     H72852   4.680  11.004  11.835 -3.8576 -2.0158 -0.3943
  540MOL0     H72853   4.747  10.964  11.674  1.8134  0.9196 -2.1083
  540MOL0     H72854   4.869  11.143  11.757  1.1736  1.4247 -2.0295
  540MOL0     H72855   4.769  11.196  11.626 -0.6431 -2.5673 -1.0496
  540MOL0     H72856   4.665  11.257  11.911 -3.6249  1.3655 -1.5126
  540MOL0     H72857   4.618  11.330  11.754  1.4456  4.3300 -0.0584
  540MOL0     H72858   4.747  11.474  11.899  1.2475  0.1060 -0.3465
  540MOL0     H72859   4.837  11.444  11.752  0.6459  2.8723  1.6836
  540MOL0     H72860   5.024  11.226  12.121 -0.8911  0.5079  2.5645
  540MOL0     H72861   5.218  11.324  12.245  2.4793 -0.8474 -2.0379
  540MOL0     H72862   5.627  11.414  12.242  0.9748  0.4329 -1.1991
  540MOL0     H72863   5.853  11.496  12.339  0.3765  1.1277  0.5035
  540MOL0     H72864   6.045  11.605  12.412 -3.1722 -1.1659  0.5785
  540MOL0     H72865   6.006  11.734  12.285 -1.6552 -2.5817 -0.4243
  540MOL0     H72866   6.070  11.899  12.430 -1.6310 -0.3587  0.4875
  540MOL0     H72867   6.118  11.796  12.564  1.1302  1.9760 -0.4480
  540MOL0     H72868   6.232  11.734  12.283 -1.7651 -1.6916  0.6840
  540MOL0     H72869   6.288  11.881  12.376 -2.8880  1.8834 -1.2520
  540MOL0     H72870   6.283  11.584  12.479 -0.7084  0.5646  1.8302
  540MOL0     H72871   6.355  11.725  12.557  4.1179  1.1896 -1.8962
  540MOL0     H72872   6.466  11.653  12.296  2.0769 -1.3222  0.0425
  540MOL0     H72873   6.523  11.567  12.428 -0.0107 -0.2768 -0.1980
  540MOL0     H72874   6.499  11.859  12.374 -1.2083 -1.5945 -0.7062
  540MOL0     H72875   6.574  11.795  12.531 -1.7742  1.0173  0.0429
  540MOL0     H72876   6.681  11.750  12.245  0.6941  0.5908 -0.6405
  540MOL0     H72877   6.759  11.705  12.394  0.4154  1.2401 -0.7847
  540MOL0     H72878   6.689  11.986  12.329 -0.6245 -2.2244 -1.3273
  540MOL0     H72879   6.795  11.922  12.467 -2.0574  0.2692  1.0713
  540MOL0     H72880   5.657  11.852  12.473 -0.6449  0.7537 -1.3237
  540MOL0     H72881   5.439  11.751  12.404  0.2847  1.3887  5.6980
  540MOL0     H72882   5.140  11.697  12.051 -0.5571  0.5632 -3.1577
  540MOL0     H72883   4.954  11.588  11.911 -2.2277 -2.1673  0.0020
  540MOL0     H72884   3.531  10.840  10.851  0.9634 -1.3129 -1.0861
  540MOL0     H72885   3.317  10.850  10.972  0.4489 -1.1116 -0.2479
  540MOL0     H72886   3.053  10.775  11.396 -0.3670  2.6483  0.5508
  540MOL0     H72887   2.839  10.881  11.442  0.9036 -0.3608 -0.0095
  540MOL0     H72888   2.518  10.750  11.219  0.2037 -0.1686 -1.0972
  540MOL0     H72889   2.498  10.905  11.130 -0.0790 -0.0333  1.1070
  540MOL0     H72890   2.307  10.832  11.263  0.9258 -0.8795 -0.8870
  540MOL0     H72891   2.371  11.001  11.296  1.0951  0.2651 -1.4850
  540MOL0     H72892   2.477  10.900  11.498 -1.2703  0.6754  0.3410
  540MOL0     H72893   2.419  10.733  11.443 -3.0736 -1.4997  2.2830
  540MOL0     H72894   2.265  10.993  11.502 -0.0289 -0.2925 -0.1073
  540MOL0     H72895   2.175  10.853  11.451  0.5611 -3.6794  0.6991
  540MOL0     H72896   2.201  10.781  11.861 -0.4464 -1.4631 -0.4397
  540MOL0     H72897   2.675  10.743  11.071  0.1133  0.1037 -0.3097
  540MOL0     H72898   2.814  10.576  10.960  1.3141 -1.9567  2.0373
  540MOL0     H72899   2.891  10.726  10.885  1.7468 -2.7930 -1.6547
  540MOL0     H72900   2.979  10.591  10.950 -0.0299 -3.1504  3.5871
  541MOL0     O72901   7.989   8.244   2.323  0.4985 -0.0338 -0.4894
  541MOL0     C72902   7.934   8.141   2.283  0.9119  0.2715  0.0565
  541MOL0     O72903   7.909   8.035   2.360 -0.0228 -0.1343 -0.0377
  541MOL0     C72904   8.007   7.963   2.414  0.0801  0.1211  0.1506
  541MOL0     C72905   8.145   7.978   2.383  0.0316 -0.7857  0.0824
  541MOL0     C72906   8.238   7.887   2.433 -0.1772 -1.1299 -0.8815
  541MOL0     C72907   8.197   7.775   2.506 -0.0005  0.0032 -0.6576
  541MOL0     O72908   8.288   7.686   2.549 -0.2106 -0.4698 -0.3234
  541MOL0     C72909   8.301   7.677   2.696  0.3682  0.1136  0.3287
  541MOL0     C72910   8.404   7.779   2.748 -0.7481 -0.5332 -0.2101
  541MOL0     C72911   8.542   7.770   2.685  0.4754  0.1985 -0.2272
  541MOL0     C72912   8.625   7.879   2.734 -0.4510 -0.5577  0.1080
  541MOL0     C72913   8.770   7.864   2.672 -0.0692  0.5471 -0.4129
  541MOL0     C72914   8.850   7.775   2.771 -0.3651 -0.5923 -0.0196
  541MOL0     C72915   8.997   7.759   2.731 -0.0918  0.3556  0.0915
  541MOL0     C72916   9.062   7.638   2.803  1.1275 -0.9567  0.4793
  541MOL0     N72917   9.200   7.624   2.759 -0.3873 -0.3048  0.5133
  541MOL0     C72918   9.312   7.663   2.820 -0.1828 -0.0211  0.3132
  541MOL0     C72919   9.409   7.641   2.730  0.4663  0.0644  0.5098
  541MOL0     C72920   9.553   7.655   2.743 -0.3173  0.7884  0.2534
  541MOL0     C72921   9.610   7.546   2.831 -0.3458  0.2625 -0.2976
  541MOL0     C72922   9.764   7.522   2.822  0.0788 -0.1869 -0.3531
  541MOL0     C72923   9.816   7.400   2.904  0.5900  0.6106 -0.1928
  541MOL0     O72924   9.782   7.407   3.041  0.3796 -0.7697  0.4428
  541MOL0     C72925   9.838   7.316   3.121  0.7650  1.1051 -0.1088
  541MOL0     C72926   9.893   7.193   3.086  0.4373 -0.9739 -0.4257
  541MOL0     C72927   9.930   7.102   3.180 -0.1007 -0.0955  0.1807
  541MOL0     C72928   9.929   7.135   3.317 -0.7594  0.0702  0.2127
  541MOL0     C72929   9.996   7.049   3.414  0.7433  0.8472  0.2365
  541MOL0     O72930  10.049   6.933   3.362  0.0602 -0.2655 -0.1708
  541MOL0     C72931  10.118   6.845   3.437 -0.7809  0.5951  0.5065
  541MOL0     C72932  10.133   6.718   3.374  0.3891  1.1684 -0.9684
  541MOL0     C72933  10.211   6.613   3.425 -0.4693  0.7239  0.4048
  541MOL0     C72934  10.288   6.645   3.540 -0.1037  0.7720  0.0535
  541MOL0     O72935  10.379   6.563   3.601 -0.1913  0.6776  0.4255
  541MOL0     C72936  10.440   6.463   3.514 -1.2404  0.2054  0.2497
  541MOL0     C72937  10.568   6.413   3.583 -0.8390  0.0202 -0.5420
  541MOL0     C72938  10.671   6.347   3.481  0.7547 -0.0059 -0.3304
  541MOL0     C72939  10.798   6.300   3.552 -0.4556 -0.3562 -0.4827
  541MOL0     C72940  10.910   6.285   3.434  0.7949  0.0588 -0.4934
  541MOL0     C72941  10.990   6.425   3.416  0.7302  0.7779  0.4480
  541MOL0     C72942  11.103   6.406   3.313  0.5299  0.3561 -0.0833
  541MOL0     C72943  11.167   6.540   3.288  0.8514  0.8120  0.0726
  541MOL0    Cl72944  11.069   6.647   3.188 -0.1740 -0.6210 -0.6717
  541MOL0     C72945  10.281   6.773   3.603  0.4839  0.2213  0.8993
  541MOL0     C72946  10.196   6.869   3.557 -0.9353  0.0732  0.0929
  541MOL0     O72947  10.026   7.102   3.520 -0.2838 -0.7876 -0.4284
  541MOL0     C72948   9.875   7.260   3.356  0.1440 -0.2147 -0.4944
  541MOL0     C72949   9.828   7.341   3.257  0.2988  0.1797  0.2605
  541MOL0     N72950   9.349   7.595   2.615  0.8217 -0.3056  0.6063
  541MOL0     N72951   9.221   7.576   2.633 -0.1380 -0.1292  0.1289
  541MOL0     C72952   8.060   7.744   2.525  1.0994 -0.4228  0.7002
  541MOL0     C72953   7.967   7.848   2.482  0.0763  0.3784  0.1004
  541MOL0     C72954   7.875   8.131   2.144 -0.0167  0.4150  0.3931
  541MOL0     C72955   7.805   8.011   2.119 -0.8475  0.2964  0.2500
  541MOL0     C72956   7.746   7.991   1.997 -0.9428  0.0995  0.1687
  541MOL0     C72957   7.755   8.084   1.894  0.5138 -0.2954  0.3027
  541MOL0     O72958   7.710   8.036   1.776  0.2375  0.0612 -0.1846
  541MOL0     C72959   7.737   8.114   1.660  0.6456  0.1389  0.5823
  541MOL0     C72960   7.697   8.028   1.539 -0.4477  0.3758  0.6687
  541MOL0     C72961   7.541   8.009   1.546 -0.2735 -0.1270  0.3739
  541MOL0     C72962   7.490   7.912   1.442 -0.5566 -0.2012 -0.4553
  541MOL0     C72963   7.554   7.780   1.466 -0.6577 -0.3025  1.0666
  541MOL0     C72964   7.622   7.674   1.469 -0.7692  0.1512 -0.3228
  541MOL0     C72965   7.824   8.204   1.916 -0.3609 -0.0938 -0.5299
  541MOL0     C72966   7.884   8.230   2.043 -0.4742 -0.1445 -0.0873
  541MOL0     C72967   7.949   8.367   2.060 -0.3440 -0.6051 -0.1971
  541MOL0     H72968   8.174   8.066   2.327  0.1998 -0.6677  0.3543
  541MOL0     H72969   8.345   7.896   2.418 -0.2976  1.2825 -0.6677
  541MOL0     H72970   8.212   7.688   2.759  1.2537 -1.0439  1.8469
  541MOL0     H72971   8.342   7.576   2.707  0.8760  0.2780 -0.0034
  541MOL0     H72972   8.418   7.770   2.856  3.1340  2.2037 -0.2774
  541MOL0     H72973   8.347   7.872   2.732 -1.9184 -1.5430 -2.4267
  541MOL0     H72974   8.537   7.780   2.576 -1.4333 -1.3161 -0.3438
  541MOL0     H72975   8.576   7.668   2.705 -1.0615 -0.6151 -1.5433
  541MOL0     H72976   8.582   7.973   2.699 -1.0408 -1.0182 -0.4306
  541MOL0     H72977   8.627   7.869   2.843  0.3399  0.3783  0.1953
  541MOL0     H72978   8.774   7.813   2.575 -0.2906 -0.4783  0.1085
  541MOL0     H72979   8.814   7.964   2.666  0.4621  0.4106  0.8875
  541MOL0     H72980   8.855   7.831   2.865  1.2379 -3.2273  1.5898
  541MOL0     H72981   8.796   7.686   2.804 -0.5114 -0.2471  0.6830
  541MOL0     H72982   9.058   7.843   2.766 -0.2848  0.4845  0.1181
  541MOL0     H72983   9.019   7.743   2.625  0.5734  4.6027 -0.5644
  541MOL0     H72984   9.055   7.645   2.912 -0.7147  1.2237  0.2935
  541MOL0     H72985   9.005   7.552   2.767  1.4408 -2.1371  2.6187
  541MOL0     H72986   9.335   7.684   2.924 -0.2059 -1.6579  0.6829
  541MOL0     H72987   9.590   7.639   2.642 -1.4329 -1.4559  0.1503
  541MOL0     H72988   9.589   7.749   2.787 -1.0125  1.6763 -1.0272
  541MOL0     H72989   9.594   7.560   2.939 -1.0608 -0.1760 -0.3438
  541MOL0     H72990   9.566   7.450   2.802  2.6159 -0.7046 -2.0124
  541MOL0     H72991   9.802   7.617   2.861  0.5769  1.3430 -4.0770
  541MOL0     H72992   9.778   7.507   2.714  0.2399  1.3999 -0.5794
  541MOL0     H72993   9.924   7.412   2.891  0.7641 -1.6322 -1.4142
  541MOL0     H72994   9.789   7.308   2.851 -0.5796  1.8160 -1.8123
  541MOL0     H72995   9.891   7.156   2.984 -1.9956  0.7323 -1.0925
  541MOL0     H72996   9.966   7.006   3.147  1.0943  0.2942  0.2939
  541MOL0     H72997  10.077   6.704   3.282 -0.2130  0.9485 -0.5747
  541MOL0     H72998  10.206   6.519   3.371 -0.4291  1.1691 -0.4017
  541MOL0     H72999  10.378   6.373   3.515 -1.1015  0.0224 -2.2018
  541MOL0     H73000  10.461   6.504   3.415  0.5963  0.9243  0.8948
  541MOL0     H73001  10.619   6.494   3.635  1.2592  0.3520 -2.9378
  541MOL0     H73002  10.537   6.343   3.662 -1.8145  0.7857 -0.2247
  541MOL0     H73003  10.633   6.268   3.415  1.9045  0.2973 -1.3896
  541MOL0     H73004  10.692   6.434   3.419 -1.6744 -0.1342 -1.4809
  541MOL0     H73005  10.786   6.217   3.623  0.0000  0.7874  0.9762
  541MOL0     H73006  10.825   6.388   3.611 -1.0452 -1.4450  1.5344
  541MOL0     H73007  10.875   6.254   3.335 -1.9884  3.0615 -0.6355
  541MOL0     H73008  10.983   6.211   3.468  0.8347 -0.3032 -1.3486
  541MOL0     H73009  10.923   6.494   3.365  0.6090 -1.0132 -1.9795
  541MOL0     H73010  11.035   6.461   3.510  0.2422  2.6102  0.0138
  541MOL0     H73011  11.065   6.364   3.219  3.1002 -0.5260 -0.8059
  541MOL0     H73012  11.181   6.341   3.353  3.0089  3.0542 -0.1185
  541MOL0     H73013  11.190   6.586   3.385  1.4039 -0.0403  0.3508
  541MOL0     H73014  11.260   6.520   3.235  0.7469  2.3984 -0.7716
  541MOL0     H73015  10.339   6.791   3.692 -1.7200  3.3108  1.8638
  541MOL0     H73016  10.191   6.962   3.613  1.6715  0.8607 -0.8246
  541MOL0     H73017   9.877   7.287   3.461  1.8233  0.1937 -0.6104
  541MOL0     H73018   9.773   7.428   3.290 -0.2024  0.5890 -1.5613
  541MOL0     H73019   8.024   7.650   2.564 -2.8998  0.5823 -0.1422
  541MOL0     H73020   7.859   7.840   2.482 -0.2890  2.9602  3.2137
  541MOL0     H73021   7.802   7.926   2.186 -0.5929 -1.1482 -1.5317
  541MOL0     H73022   7.701   7.893   1.980 -0.2581 -0.2244  0.1837
  541MOL0     H73023   7.840   8.147   1.643  1.9170 -3.8807 -0.4927
  541MOL0     H73024   7.671   8.202   1.660  1.7401  1.0972 -2.7121
  541MOL0     H73025   7.757   7.936   1.546  0.4211  0.7945 -0.7774
  541MOL0     H73026   7.720   8.076   1.444  0.0781  1.8527  1.5042
  541MOL0     H73027   7.484   8.103   1.541  2.0733  1.4450  1.6002
  541MOL0     H73028   7.510   7.962   1.640 -0.8619 -1.6347 -0.5358
  541MOL0     H73029   7.387   7.895   1.476  0.4514  0.7116  3.6285
  541MOL0     H73030   7.492   7.934   1.335 -2.4673  0.0430 -0.4732
  541MOL0     H73031   7.675   7.582   1.484 -1.2053 -0.1698 -0.7303
  541MOL0     H73032   7.846   8.273   1.835 -1.1772  0.4441 -0.2994
  541MOL0     H73033   7.932   8.409   2.160  0.9366 -0.9687  0.1857
  541MOL0     H73034   8.057   8.351   2.050 -0.1157  0.9362 -0.4619
  541MOL0     H73035   7.912   8.434   1.982 -0.4082 -1.8596 -1.2789
  542MOL0     O73036   2.061  10.635   9.595  0.0759  0.3548  0.1286
  542MOL0     C73037   2.016  10.681   9.492  0.1321 -0.8491  0.3786
  542MOL0     O73038   2.092  10.718   9.388 -0.6796  0.3446  0.5250
  542MOL0     C73039   2.221  10.752   9.387 -0.7566 -0.8589  0.3416
  542MOL0     C73040   2.282  10.833   9.478 -0.1072  0.0701  0.1555
  542MOL0     C73041   2.422  10.850   9.486 -0.0528  0.2258 -0.5710
  542MOL0     C73042   2.505  10.786   9.391  0.3372 -0.0246  0.4519
  542MOL0     O73043   2.638  10.809   9.393 -0.0277 -1.1315 -0.3156
  542MOL0     C73044   2.684  10.929   9.334  0.2623  1.2569  0.3866
  542MOL0     C73045   2.834  10.963   9.363  0.4893 -0.3140  0.5953
  542MOL0     C73046   2.936  10.857   9.338  0.6101 -0.3727 -0.3335
  542MOL0     C73047   3.072  10.900   9.398  0.0453  0.1408  0.4373
  542MOL0     C73048   3.183  10.809   9.342  0.7249 -0.1529 -0.1852
  542MOL0     C73049   3.298  10.788   9.450  0.3251 -0.4104  0.1703
  542MOL0     C73050   3.434  10.706   9.400  0.6013 -0.0404 -0.5167
  542MOL0     C73051   3.518  10.681   9.526  0.8139 -1.0189  0.4185
  542MOL0     N73052   3.656  10.632   9.501  0.0322  0.2077  0.4756
  542MOL0     C73053   3.773  10.701   9.533  0.5212  0.7691 -0.1082
  542MOL0     C73054   3.866  10.606   9.504 -1.1987 -0.4133  0.6805
  542MOL0     C73055   4.017  10.612   9.515  0.5711 -0.2600 -0.0699
  542MOL0     C73056   4.057  10.746   9.448 -0.5838  0.0806  0.4584
  542MOL0     C73057   4.193  10.736   9.380 -0.2862  0.5884 -0.0756
  542MOL0     C73058   4.250  10.870   9.339  0.2871 -0.4646  0.8678
  542MOL0     O73059   4.382  10.855   9.304 -0.0209 -0.5331 -0.9023
  542MOL0     C73060   4.440  10.967   9.251  0.2445 -0.2675 -0.0564
  542MOL0     C73061   4.380  11.079   9.197  0.0964  0.0502 -0.2700
  542MOL0     C73062   4.453  11.182   9.129 -0.4105  0.2130 -0.4957
  542MOL0     C73063   4.593  11.181   9.145 -0.1854  0.4498 -0.0151
  542MOL0     C73064   4.682  11.282   9.105 -0.3920  0.2703 -0.0066
  542MOL0     O73065   4.628  11.396   9.057 -0.0044  0.4015 -0.4835
  542MOL0     C73066   4.710  11.488   9.000 -0.4740  0.1247  0.2563
  542MOL0     C73067   4.690  11.519   8.870  0.1946 -0.3166  1.2678
  542MOL0     C73068   4.775  11.597   8.795  0.5904 -0.0707 -0.3818
  542MOL0     C73069   4.884  11.660   8.862  0.1344  0.0162  0.3716
  542MOL0     O73070   4.968  11.728   8.781  0.2685 -0.6822 -0.4832
  542MOL0     C73071   5.102  11.672   8.751  0.7526  0.1843  0.6474
  542MOL0     C73072   5.206  11.781   8.704 -0.0815  0.4972 -0.2018
  542MOL0     C73073   5.343  11.724   8.697 -0.4525  0.5438 -0.4407
  542MOL0     C73074   5.448  11.839   8.696  0.5288 -0.6988  0.2845
  542MOL0     C73075   5.588  11.791   8.665  0.8646  0.2531 -0.0001
  542MOL0     C73076   5.643  11.708   8.783 -0.1247 -0.9405 -0.5403
  542MOL0     C73077   5.678  11.793   8.905 -0.1820  0.5620  0.1679
  542MOL0     C73078   5.726  11.703   9.015  0.3242 -0.2951 -0.3359
  542MOL0    Cl73079   5.784  11.780   9.166  0.1001 -0.3471 -0.3317
  542MOL0     C73080   4.908  11.629   9.001 -0.9591 -0.6838  1.1845
  542MOL0     C73081   4.821  11.538   9.068 -0.1456  0.0271  0.5256
  542MOL0     O73082   4.800  11.258   9.104 -0.7053  0.1900  1.3641
  542MOL0     C73083   4.650  11.064   9.198 -0.2044 -0.2470  0.1236
  542MOL0     C73084   4.581  10.957   9.248  1.2096 -0.0842  0.4211
  542MOL0     N73085   3.809  10.484   9.461  0.5723  0.2474 -0.1490
  542MOL0     N73086   3.689  10.507   9.450  0.3184 -0.3802  0.1465
  542MOL0     C73087   2.445  10.707   9.299 -1.0135 -0.3842 -0.5990
  542MOL0     C73088   2.311  10.678   9.298  0.6355 -0.5750 -0.9702
  542MOL0     C73089   1.875  10.692   9.493  1.0677  0.3937  0.4300
  542MOL0     C73090   1.797  10.576   9.520  0.3332  0.3673  0.1999
  542MOL0     C73091   1.652  10.576   9.513 -0.4810  0.0561 -0.5679
  542MOL0     C73092   1.593  10.694   9.488 -0.4068  1.0112 -0.4785
  542MOL0     O73093   1.462  10.716   9.470 -0.0523 -0.0706  0.5603
  542MOL0     C73094   1.358  10.622   9.455  0.2522 -0.2408 -0.3042
  542MOL0     C73095   1.221  10.695   9.477  0.0572  0.0063 -0.0189
  542MOL0     C73096   1.209  10.763   9.610  0.4445 -0.3190  0.6852
  542MOL0     C73097   1.211  10.674   9.747 -0.1924  0.5695 -1.1356
  542MOL0     C73098   1.109  10.571   9.732  0.3060 -0.3148  0.4437
  542MOL0     C73099   1.019  10.489   9.707 -0.9327 -0.5913 -0.1475
  542MOL0     C73100   1.669  10.806   9.461  0.1214  0.6436  0.6733
  542MOL0     C73101   1.804  10.806   9.450 -0.8571 -0.6523 -0.7420
  542MOL0     C73102   1.874  10.930   9.423 -0.8285 -0.6842  0.1225
  542MOL0     H73103   2.220  10.880   9.555 -0.1362  1.2630 -0.5635
  542MOL0     H73104   2.462  10.914   9.565  0.6567 -2.4452  1.3970
  542MOL0     H73105   2.672  10.911   9.226  0.7816  2.4634  0.1056
  542MOL0     H73106   2.618  11.014   9.356 -0.8068  1.1237 -1.9303
  542MOL0     H73107   2.833  10.993   9.468 -1.8837 -0.3240  0.6341
  542MOL0     H73108   2.859  11.049   9.301  3.0277 -2.3499 -1.4259
  542MOL0     H73109   2.950  10.844   9.230  0.6910 -2.1312 -0.1423
  542MOL0     H73110   2.908  10.761   9.382  1.8057 -0.3770  0.4680
  542MOL0     H73111   3.097  11.005   9.376  2.4311 -0.4190  0.2627
  542MOL0     H73112   3.070  10.881   9.505  2.5025 -0.9124  0.3594
  542MOL0     H73113   3.143  10.709   9.321 -2.9321  0.5465  2.4091
  542MOL0     H73114   3.227  10.855   9.254 -0.4977  1.5953  0.0768
  542MOL0     H73115   3.322  10.885   9.494  1.5801 -1.1691  1.2470
  542MOL0     H73116   3.265  10.730   9.536  0.5332  0.9715  1.2138
  542MOL0     H73117   3.487  10.761   9.322  1.0016  1.5765  0.8370
  542MOL0     H73118   3.414  10.609   9.353 -1.2641  0.9959 -1.9753
  542MOL0     H73119   3.532  10.776   9.579  0.2134 -1.3717  1.2274
  542MOL0     H73120   3.464  10.610   9.589 -0.3410 -0.6447 -0.1257
  542MOL0     H73121   3.774  10.798   9.582  1.3945  1.2516 -1.0514
  542MOL0     H73122   4.047  10.619   9.620  2.0891  1.2518 -0.5680
  542MOL0     H73123   4.068  10.525   9.472 -0.3102  0.2773 -2.3460
  542MOL0     H73124   3.988  10.784   9.373 -1.5321 -0.6975  0.9187
  542MOL0     H73125   4.067  10.815   9.532  1.7742  0.7983 -0.3344
  542MOL0     H73126   4.186  10.682   9.285 -1.3883 -0.9595  0.8382
  542MOL0     H73127   4.264  10.686   9.447 -2.8227 -0.8092  1.7325
  542MOL0     H73128   4.244  10.935   9.426 -2.5839  0.7678 -0.1257
  542MOL0     H73129   4.193  10.913   9.256  1.3816  0.1560  0.4059
  542MOL0     H73130   4.273  11.094   9.196  0.1796  0.7307 -1.3922
  542MOL0     H73131   4.400  11.263   9.081 -3.6662 -1.0061  0.7856
  542MOL0     H73132   4.612  11.472   8.810 -1.1876 -0.5713  3.1708
  542MOL0     H73133   4.772  11.615   8.688  1.1061  1.0665 -0.2244
  542MOL0     H73134   5.137  11.623   8.842 -0.5571  1.5442  1.9381
  542MOL0     H73135   5.092  11.605   8.665  2.2738 -0.7026  1.1332
  542MOL0     H73136   5.178  11.822   8.607  0.8408  2.9580  0.5066
  542MOL0     H73137   5.206  11.854   8.786  2.7743 -1.7927  2.1103
  542MOL0     H73138   5.366  11.670   8.790  3.5908  1.3981 -0.7569
  542MOL0     H73139   5.355  11.653   8.615 -3.1173 -2.1489  1.2923
  542MOL0     H73140   5.449  11.906   8.782 -1.0674  0.8861 -0.8589
  542MOL0     H73141   5.416  11.903   8.614  2.4590 -0.2150 -0.1570
  542MOL0     H73142   5.647  11.880   8.643  1.2195  0.0283  0.0395
  542MOL0     H73143   5.577  11.730   8.574 -1.0465  1.9061 -0.9513
  542MOL0     H73144   5.578  11.626   8.816 -2.4180  1.0844  0.2791
  542MOL0     H73145   5.742  11.672   8.752  1.7275  0.9643  2.6643
  542MOL0     H73146   5.590  11.851   8.936  0.0920  1.2753 -0.3500
  542MOL0     H73147   5.754  11.858   8.861 -0.2169  0.5145  0.0354
  542MOL0     H73148   5.644  11.638   9.045 -0.1593 -0.0876 -1.1801
  542MOL0     H73149   5.805  11.638   8.975 -1.7186 -3.3574  0.2238
  542MOL0     H73150   4.998  11.665   9.050 -0.7630 -1.4063  1.3609
  542MOL0     H73151   4.839  11.505   9.170  0.8072  1.1362  0.7367
  542MOL0     H73152   4.755  11.041   9.185 -0.3852 -1.6798  0.9870
  542MOL0     H73153   4.633  10.865   9.272  1.4607 -0.5985 -1.8583
  542MOL0     H73154   2.500  10.657   9.220  0.9616  0.2645  0.3045
  542MOL0     H73155   2.254  10.606   9.240 -2.3937  0.4862  0.4205
  542MOL0     H73156   1.849  10.486   9.551 -0.9885 -1.0773 -1.5573
  542MOL0     H73157   1.598  10.485   9.535  1.3883 -0.5451  2.0044
  542MOL0     H73158   1.366  10.543   9.531 -0.7800  1.8763  2.1455
  542MOL0     H73159   1.370  10.567   9.361  1.4679 -0.2932 -0.1312
  542MOL0     H73160   1.144  10.619   9.460 -1.2972  1.2316  0.4313
  542MOL0     H73161   1.202  10.768   9.399  1.3688  1.8289  1.2746
  542MOL0     H73162   1.114  10.816   9.612  0.4079 -0.1962 -1.9383
  542MOL0     H73163   1.293  10.834   9.611 -1.0711  1.5577  1.7863
  542MOL0     H73164   1.312  10.638   9.769 -1.2855 -0.9136  2.1863
  542MOL0     H73165   1.194  10.744   9.830  3.7282  1.5822 -0.9849
  542MOL0     H73166   0.952  10.407   9.693  0.9787 -1.8578 -2.7136
  542MOL0     H73167   1.608  10.890   9.430  2.3766  1.0598 -3.2914
  542MOL0     H73168   1.966  10.933   9.482 -1.0687 -0.3364  0.4825
  542MOL0     H73169   1.909  10.935   9.319  0.6506 -1.3264  0.5633
  542MOL0     H73170   1.816  11.022   9.438 -1.9875 -1.4150  0.2000
  543MOL0     O73171   3.561   4.185   7.085  0.6202  0.8325  0.3773
  543MOL0     C73172   3.538   4.257   7.180 -0.9749  0.0423 -0.0057
  543MOL0     O73173   3.640   4.332   7.236 -0.3752  0.6802 -0.6993
  543MOL0     C73174   3.757   4.271   7.258 -0.0296  0.2587 -0.3299
  543MOL0     C73175   3.865   4.357   7.248  0.8825 -0.0926 -0.0074
  543MOL0     C73176   3.992   4.313   7.276  0.1033 -0.6098  0.7650
  543MOL0     C73177   4.020   4.179   7.313  0.2529  0.0420  0.3015
  543MOL0     O73178   4.145   4.146   7.337  0.4975  0.2019 -0.3042
  543MOL0     C73179   4.181   4.030   7.402  0.2477  0.4512  0.1005
  543MOL0     C73180   4.312   4.044   7.467  0.3025 -0.0454  0.0527
  543MOL0     C73181   4.360   3.901   7.515  0.5101  0.0602 -0.2358
  543MOL0     C73182   4.500   3.904   7.580  0.4106 -0.1218 -0.5331
  543MOL0     C73183   4.543   3.754   7.608  0.1441  0.9588  0.8409
  543MOL0     C73184   4.698   3.742   7.608 -0.8382 -0.2133  0.4784
  543MOL0     C73185   4.750   3.804   7.737  0.4205  0.1573  0.3111
  543MOL0     C73186   4.876   3.737   7.776 -0.4299 -0.7099 -0.3467
  543MOL0     N73187   4.919   3.773   7.911 -0.3667  0.6932  0.2246
  543MOL0     C73188   4.861   3.726   8.030  0.4895  0.0937  0.7841
  543MOL0     C73189   4.931   3.780   8.134  0.2605 -0.3078  0.8144
  543MOL0     C73190   4.894   3.766   8.280 -0.8621 -0.2766  0.3823
  543MOL0     C73191   4.782   3.858   8.320  0.5293 -0.1254 -0.6423
  543MOL0     C73192   4.707   3.805   8.441  0.0405  0.1232 -0.0914
  543MOL0     C73193   4.570   3.872   8.450  0.3169 -0.4357 -0.6743
  543MOL0     O73194   4.477   3.803   8.362 -0.3373 -0.3470  0.4249
  543MOL0     C73195   4.345   3.827   8.354  1.2425 -0.3999 -0.4083
  543MOL0     C73196   4.278   3.754   8.253  0.2856  0.4329 -1.1344
  543MOL0     C73197   4.139   3.761   8.236  0.7721 -1.2654  0.2381
  543MOL0     C73198   4.062   3.850   8.323 -0.7258 -0.4565  1.0003
  543MOL0     C73199   3.918   3.856   8.302 -0.0919  0.3241 -0.8465
  543MOL0     O73200   3.846   3.905   8.402  0.2299 -0.4746 -0.4512
  543MOL0     C73201   3.708   3.907   8.403 -0.1404  0.0016  0.0264
  543MOL0     C73202   3.636   3.964   8.297 -0.3509 -0.8773  0.5896
  543MOL0     C73203   3.499   3.989   8.302 -0.5601  0.0763 -0.9841
  543MOL0     C73204   3.431   3.961   8.421  0.4204  0.2130  0.5277
  543MOL0     O73205   3.305   4.008   8.437  0.0224 -0.2906 -0.6219
  543MOL0     C73206   3.197   3.914   8.420  0.5924 -0.6205 -0.0195
  543MOL0     C73207   3.082   3.983   8.483 -0.1340 -0.2049  1.2582
  543MOL0     C73208   3.037   4.113   8.404 -1.4763  0.6201  0.5914
  543MOL0     C73209   2.906   4.162   8.456 -0.1218  0.0290  0.9110
  543MOL0     C73210   2.845   4.278   8.374  0.0041 -0.2808 -1.0489
  543MOL0     C73211   2.753   4.357   8.461 -0.3596 -1.4050  0.0323
  543MOL0     C73212   2.612   4.297   8.488 -0.1542  0.3021 -0.1227
  543MOL0     C73213   2.519   4.392   8.558  0.5235 -0.3260  0.1971
  543MOL0    Cl73214   2.363   4.308   8.598 -0.1252  0.0060  0.0045
  543MOL0     C73215   3.504   3.894   8.527  0.2698 -0.4246 -0.2792
  543MOL0     C73216   3.643   3.866   8.515 -0.1426 -1.0735 -0.5884
  543MOL0     O73217   3.869   3.802   8.205 -0.2209  0.2261 -0.5422
  543MOL0     C73218   4.128   3.914   8.428  0.2613 -0.9113  0.3340
  543MOL0     C73219   4.264   3.901   8.446  0.2327 -0.0270 -0.4283
  543MOL0     N73220   5.042   3.847   8.079 -0.1898  0.4221 -0.4556
  543MOL0     N73221   5.030   3.843   7.947  1.1497 -0.5558 -0.2289
  543MOL0     C73222   3.920   4.086   7.310  0.3879  0.6231  0.4691
  543MOL0     C73223   3.788   4.134   7.279 -0.1812  0.0752 -0.1985
  543MOL0     C73224   3.400   4.262   7.226  0.5360  0.2883  0.5346
  543MOL0     C73225   3.370   4.369   7.318  0.0626  0.0105  0.2153
  543MOL0     C73226   3.233   4.409   7.344 -0.2394  0.1239  1.0789
  543MOL0     C73227   3.124   4.353   7.272  0.9359  0.2019  0.3944
  543MOL0     O73228   2.997   4.401   7.283 -0.3382 -0.2842  0.0702
  543MOL0     C73229   2.983   4.539   7.236  1.1815 -0.1782 -0.4434
  543MOL0     C73230   2.864   4.569   7.139 -0.9753  0.3338 -0.4865
  543MOL0     C73231   2.849   4.714   7.109 -0.6651 -0.4990 -0.0506
  543MOL0     C73232   2.705   4.762   7.114 -0.7183 -0.2098 -0.5831
  543MOL0     C73233   2.619   4.700   7.012  0.2594  0.0153  0.9605
  543MOL0     C73234   2.533   4.660   6.935  0.5336 -0.5708  1.0378
  543MOL0     C73235   3.148   4.248   7.183  0.3535  0.1815  0.3636
  543MOL0     C73236   3.286   4.199   7.159  0.1800 -0.0654 -0.4614
  543MOL0     C73237   3.297   4.100   7.042 -0.3285  0.5793 -0.0358
  543MOL0     H73238   3.848   4.463   7.234  2.6397  0.3992  1.1943
  543MOL0     H73239   4.071   4.384   7.255  3.6955 -4.5546 -0.3164
  543MOL0     H73240   4.113   4.010   7.485 -1.5946  0.4204 -1.3346
  543MOL0     H73241   4.189   3.946   7.333  0.8739 -1.5126  2.4505
  543MOL0     H73242   4.304   4.102   7.560  1.5510  0.9961 -0.4600
  543MOL0     H73243   4.381   4.083   7.392  0.7748 -4.7753 -2.3466
  543MOL0     H73244   4.365   3.831   7.431  1.2055  0.1289 -0.2571
  543MOL0     H73245   4.285   3.854   7.579  0.8741 -0.2931 -0.0642
  543MOL0     H73246   4.574   3.947   7.512  3.0544 -1.6986  1.1247
  543MOL0     H73247   4.488   3.961   7.673 -3.1979 -1.8250  0.2170
  543MOL0     H73248   4.498   3.716   7.700 -0.2690  1.6083  0.9120
  543MOL0     H73249   4.507   3.683   7.532  0.0928  1.4388  0.4124
  543MOL0     H73250   4.735   3.639   7.599  0.1652 -0.0444  2.3127
  543MOL0     H73251   4.748   3.793   7.526  1.2728 -1.7058  0.7519
  543MOL0     H73252   4.668   3.794   7.809  0.0064 -0.0851 -0.1925
  543MOL0     H73253   4.761   3.913   7.730 -1.6101  0.6567  2.9205
  543MOL0     H73254   4.857   3.630   7.772 -1.5620 -0.4909 -1.6939
  543MOL0     H73255   4.948   3.770   7.700 -0.6336  0.1939 -0.1590
  543MOL0     H73256   4.771   3.666   8.028  0.2461  0.3196  3.0129
  543MOL0     H73257   4.856   3.666   8.305 -2.3222 -0.0232 -0.7047
  543MOL0     H73258   4.981   3.800   8.338 -0.9114  0.5745 -0.0353
  543MOL0     H73259   4.825   3.958   8.336  1.4576 -0.3383 -1.6202
  543MOL0     H73260   4.719   3.875   8.232 -0.1043 -2.0763 -0.6081
  543MOL0     H73261   4.781   3.825   8.519  3.4049  2.0242 -3.4337
  543MOL0     H73262   4.691   3.696   8.445 -0.4190  0.2316  2.0682
  543MOL0     H73263   4.568   3.979   8.429  2.0352 -0.2677 -0.1231
  543MOL0     H73264   4.539   3.867   8.555 -0.1067  2.5797 -0.5674
  543MOL0     H73265   4.342   3.691   8.192  1.0666  0.5986 -0.5151
  543MOL0     H73266   4.098   3.706   8.152 -1.6197  2.5727 -1.4262
  543MOL0     H73267   3.698   4.007   8.218 -0.0631  0.4674  1.5188
  543MOL0     H73268   3.436   4.047   8.235 -2.4110 -0.3800  0.2732
  543MOL0     H73269   3.180   3.894   8.314 -0.4050  2.2386 -0.4746
  543MOL0     H73270   3.218   3.820   8.472  2.7569  0.1456  0.6011
  543MOL0     H73271   2.998   3.916   8.502  0.0266 -0.5836  0.6679
  543MOL0     H73272   3.099   4.014   8.586 -1.2829  2.3539  0.7559
  543MOL0     H73273   3.109   4.195   8.406  0.4607 -0.9327 -1.0438
  543MOL0     H73274   3.019   4.098   8.297  1.4345  0.5498  0.0445
  543MOL0     H73275   2.919   4.181   8.563 -0.4330  0.9441  0.7911
  543MOL0     H73276   2.833   4.080   8.459 -1.1912  0.9645  0.9282
  543MOL0     H73277   2.804   4.238   8.280 -1.5578 -0.8887 -0.1456
  543MOL0     H73278   2.927   4.345   8.346 -1.6731  1.2070 -2.6536
  543MOL0     H73279   2.799   4.380   8.557 -0.9239  0.3899 -0.0784
  543MOL0     H73280   2.747   4.455   8.412 -1.4795 -0.3576  2.1108
  543MOL0     H73281   2.639   4.214   8.554  3.4109  3.3977  2.8217
  543MOL0     H73282   2.563   4.267   8.395 -1.3062 -0.4952  0.7204
  543MOL0     H73283   2.560   4.424   8.654 -1.1612 -1.2739  1.2675
  543MOL0     H73284   2.499   4.474   8.487  0.3131 -0.7724 -0.2665
  543MOL0     H73285   3.451   3.876   8.619 -1.7907 -0.2690 -1.3728
  543MOL0     H73286   3.706   3.842   8.600  0.9387 -0.7910 -1.2845
  543MOL0     H73287   4.070   3.982   8.489 -1.6117 -2.5340  0.4735
  543MOL0     H73288   4.302   3.957   8.531 -0.8480  4.3536 -2.5669
  543MOL0     H73289   3.933   3.979   7.325 -0.1232  0.2820 -1.3088
  543MOL0     H73290   3.708   4.061   7.281  1.1251 -1.4871 -2.2043
  543MOL0     H73291   3.448   4.426   7.369  1.0920 -1.7797  0.7272
  543MOL0     H73292   3.215   4.486   7.418 -0.1564 -0.7612  2.0225
  543MOL0     H73293   3.068   4.573   7.175  2.7473  2.4348  2.8991
  543MOL0     H73294   2.980   4.608   7.321  2.0823 -3.3319  2.3589
  543MOL0     H73295   2.777   4.526   7.188  1.5434 -0.4261  3.8421
  543MOL0     H73296   2.888   4.508   7.051  1.6742 -0.6169  0.7927
  543MOL0     H73297   2.889   4.753   7.015  0.2419 -0.8164  0.1975
  543MOL0     H73298   2.900   4.777   7.182 -0.8264 -0.0435 -0.3243
  543MOL0     H73299   2.661   4.753   7.213 -2.2807  1.3558 -1.0929
  543MOL0     H73300   2.713   4.868   7.088 -0.9584 -1.1399 -5.4734
  543MOL0     H73301   2.451   4.635   6.870  0.8955 -0.1593  0.4022
  543MOL0     H73302   3.072   4.197   7.126  0.5968 -0.7149  0.8207
  543MOL0     H73303   3.346   4.155   6.961  0.1459  1.1683  0.6271
  543MOL0     H73304   3.359   4.016   7.074 -2.7842 -1.5541 -0.5713
  543MOL0     H73305   3.197   4.066   7.016 -0.7655  1.7708  0.0212
  544MOL0     O73306   4.032   6.461   2.605  0.7613 -0.1441  0.2501
  544MOL0     C73307   3.943   6.511   2.680  0.5605  0.4051  0.5443
  544MOL0     O73308   3.948   6.623   2.746 -0.2112 -0.6575  0.2733
  544MOL0     C73309   4.064   6.690   2.739 -0.4982  0.4099 -0.1980
  544MOL0     C73310   4.164   6.651   2.825 -0.9886  0.3664  0.9762
  544MOL0     C73311   4.288   6.721   2.819  0.1517 -0.6825 -0.0449
  544MOL0     C73312   4.302   6.835   2.735 -0.0041  0.7389  0.4427
  544MOL0     O73313   4.429   6.880   2.707  0.8557  0.0267  0.5418
  544MOL0     C73314   4.502   6.947   2.815  0.6273 -0.0632 -0.1113
  544MOL0     C73315   4.571   7.067   2.768 -0.1351  0.2255 -0.3681
  544MOL0     C73316   4.683   7.035   2.680 -0.4878 -1.4198  0.0480
  544MOL0     C73317   4.652   7.052   2.528  0.2591  0.3830  0.5002
  544MOL0     C73318   4.756   6.983   2.442 -0.4697 -0.1381  0.0754
  544MOL0     C73319   4.749   7.033   2.303  0.6138  0.8212  0.3790
  544MOL0     C73320   4.836   6.949   2.213  0.0885 -0.6567 -0.4778
  544MOL0     C73321   4.815   6.800   2.218  0.8175 -0.2410  0.0412
  544MOL0     N73322   4.672   6.766   2.171  0.0948 -0.4789 -0.3150
  544MOL0     C73323   4.565   6.733   2.244 -0.0607 -0.3446 -0.0617
  544MOL0     C73324   4.464   6.704   2.167  0.1777  0.3643  0.4400
  544MOL0     C73325   4.330   6.652   2.219 -0.5703  0.0226 -0.4473
  544MOL0     C73326   4.338   6.563   2.344  0.6738 -0.1696  0.1658
  544MOL0     C73327   4.395   6.431   2.323 -0.3914 -0.3597  0.7822
  544MOL0     C73328   4.373   6.349   2.448  0.2319 -0.2240  0.6318
  544MOL0     O73329   4.506   6.312   2.495  0.0384 -0.2947  0.1503
  544MOL0     C73330   4.580   6.411   2.545  0.0356 -0.0144 -0.4517
  544MOL0     C73331   4.711   6.424   2.501 -0.1863  0.0984  0.1753
  544MOL0     C73332   4.801   6.519   2.562  0.0645 -0.3656 -0.5155
  544MOL0     C73333   4.758   6.593   2.674  1.0651 -0.6688  0.4001
  544MOL0     C73334   4.850   6.685   2.739  0.0155  0.0105  0.3984
  544MOL0     O73335   4.962   6.713   2.668 -0.1138 -0.7172 -0.6525
  544MOL0     C73336   5.058   6.806   2.700  0.6761  0.3812  0.5967
  544MOL0     C73337   5.126   6.851   2.584  0.0125 -1.6938  0.8601
  544MOL0     C73338   5.226   6.952   2.587 -0.2100  0.3456 -0.9227
  544MOL0     C73339   5.258   7.019   2.709 -0.2570  0.6269  0.3124
  544MOL0     O73340   5.347   7.126   2.713 -0.1345 -0.0882 -0.2973
  544MOL0     C73341   5.413   7.160   2.590  0.0589 -0.1733  0.3913
  544MOL0     C73342   5.532   7.263   2.625 -0.3209 -0.1861 -0.0721
  544MOL0     C73343   5.483   7.406   2.689 -0.0456 -0.0048  0.7724
  544MOL0     C73344   5.405   7.480   2.594  0.0986  0.0976 -0.7248
  544MOL0     C73345   5.462   7.499   2.451 -0.2221  0.1224 -0.0239
  544MOL0     C73346   5.603   7.573   2.460 -0.9359 -0.1038 -0.5163
  544MOL0     C73347   5.624   7.662   2.334  0.5577  0.8524  0.3458
  544MOL0     C73348   5.767   7.668   2.270  0.3334  0.5606  0.1269
  544MOL0    Cl73349   5.791   7.516   2.186 -0.0983 -0.2023 -0.2358
  544MOL0     C73350   5.195   6.965   2.826  0.1411 -0.3172  0.5112
  544MOL0     C73351   5.088   6.871   2.821 -0.5569 -0.3610 -0.3306
  544MOL0     O73352   4.818   6.734   2.846  0.2883  0.3050  0.3830
  544MOL0     C73353   4.626   6.570   2.739  0.5884 -0.0075  0.6956
  544MOL0     C73354   4.540   6.485   2.666 -0.0897  0.2624  0.6295
  544MOL0     N73355   4.514   6.725   2.037 -0.6157 -0.6737 -0.1518
  544MOL0     N73356   4.639   6.759   2.040  0.4298 -0.3455 -0.3036
  544MOL0     C73357   4.200   6.867   2.638 -0.0482  0.9958 -0.1588
  544MOL0     C73358   4.083   6.792   2.648 -0.4908 -0.3097 -0.3904
  544MOL0     C73359   3.818   6.431   2.693  1.5504 -0.1060  0.2315
  544MOL0     C73360   3.701   6.502   2.722  0.0771  0.6254 -0.8075
  544MOL0     C73361   3.584   6.437   2.752  1.0785  0.3402 -0.4421
  544MOL0     C73362   3.579   6.291   2.761  0.4500  0.4443 -0.2045
  544MOL0     O73363   3.450   6.245   2.776  0.4599  0.0657 -0.2314
  544MOL0     C73364   3.426   6.113   2.726 -0.2637  0.4593 -0.7449
  544MOL0     C73365   3.274   6.081   2.734  0.0477  0.9869  0.6513
  544MOL0     C73366   3.224   6.060   2.873  0.2605  0.5996  0.0917
  544MOL0     C73367   3.075   6.048   2.879 -0.1089  0.1238  0.2109
  544MOL0     C73368   3.026   5.933   2.800 -0.7528  0.7688  0.7251
  544MOL0     C73369   2.976   5.840   2.746 -0.2953 -0.2899 -0.2546
  544MOL0     C73370   3.696   6.225   2.733  0.4718  0.1849  0.6156
  544MOL0     C73371   3.815   6.287   2.693  0.0709  0.4155  0.1548
  544MOL0     C73372   3.941   6.203   2.674 -0.0943 -0.0288 -0.2182
  544MOL0     H73373   4.154   6.591   2.914  0.8653  1.5347  2.0347
  544MOL0     H73374   4.367   6.705   2.891 -0.2580 -0.0840  0.5478
  544MOL0     H73375   4.436   6.973   2.897  1.8891 -1.5347  1.4479
  544MOL0     H73376   4.577   6.880   2.859  1.7589  0.9725 -0.3877
  544MOL0     H73377   4.595   7.126   2.857 -2.3472  3.3517 -1.6627
  544MOL0     H73378   4.505   7.135   2.714  1.0137 -0.0719 -2.2721
  544MOL0     H73379   4.720   6.934   2.701 -0.9566 -1.5095  0.4536
  544MOL0     H73380   4.765   7.099   2.712 -1.7998 -0.8395  2.4988
  544MOL0     H73381   4.552   7.014   2.506  0.3216 -0.9680  2.3129
  544MOL0     H73382   4.646   7.159   2.504  1.8795 -0.3607 -4.1988
  544MOL0     H73383   4.854   7.001   2.486 -1.2206  2.4611  0.8678
  544MOL0     H73384   4.728   6.878   2.432  0.8348 -0.3543 -1.5776
  544MOL0     H73385   4.647   7.032   2.262  0.6407 -1.9220  0.1415
  544MOL0     H73386   4.790   7.133   2.294  0.4122  0.9660  1.0635
  544MOL0     H73387   4.940   6.972   2.238 -0.3594 -0.7802  1.7298
  544MOL0     H73388   4.827   6.965   2.106 -0.0378  0.1692 -0.3526
  544MOL0     H73389   4.884   6.755   2.146  1.8414 -1.5172  1.7494
  544MOL0     H73390   4.837   6.758   2.317 -4.9846  0.7702  2.1227
  544MOL0     H73391   4.577   6.711   2.350  2.2025 -4.3947 -0.9208
  544MOL0     H73392   4.269   6.741   2.238  1.2922  0.7631  2.9115
  544MOL0     H73393   4.272   6.603   2.140 -3.7576  1.0382  1.0793
  544MOL0     H73394   4.396   6.622   2.415  1.7564 -0.3106 -0.5908
  544MOL0     H73395   4.234   6.549   2.378  0.6499 -1.8098 -0.4881
  544MOL0     H73396   4.498   6.435   2.285 -0.1878 -0.1604  1.3443
  544MOL0     H73397   4.344   6.386   2.238  3.3268 -0.6530 -1.5443
  544MOL0     H73398   4.322   6.258   2.416 -2.7777  1.5356  0.0796
  544MOL0     H73399   4.313   6.395   2.527 -0.5983 -0.5148  0.1737
  544MOL0     H73400   4.753   6.374   2.415 -1.3667  0.3571 -0.5749
  544MOL0     H73401   4.906   6.524   2.534  0.7238 -1.3983  1.5774
  544MOL0     H73402   5.095   6.808   2.489  0.1294  2.3457 -1.2338
  544MOL0     H73403   5.262   6.994   2.493 -0.1816 -0.5901 -1.3344
  544MOL0     H73404   5.459   7.073   2.543 -0.9275 -0.3935 -0.1929
  544MOL0     H73405   5.338   7.197   2.519 -0.3743 -3.5388 -1.0969
  544MOL0     H73406   5.592   7.222   2.707 -0.3861 -2.2187 -0.9599
  544MOL0     H73407   5.602   7.276   2.542  0.3943 -2.5010  0.0804
  544MOL0     H73408   5.422   7.388   2.777 -2.1859  0.0603 -0.6275
  544MOL0     H73409   5.565   7.467   2.729 -0.7342  0.1214  2.0388
  544MOL0     H73410   5.371   7.573   2.642 -2.4239 -1.3664  0.5128
  544MOL0     H73411   5.316   7.417   2.584  0.4898 -1.3276  3.2710
  544MOL0     H73412   5.390   7.552   2.388  0.9203  2.1370  0.3036
  544MOL0     H73413   5.480   7.404   2.398  0.0826  0.7880 -1.1477
  544MOL0     H73414   5.602   7.641   2.545 -0.3869  0.6334 -1.0872
  544MOL0     H73415   5.686   7.502   2.473  0.3784  1.6179  0.8969
  544MOL0     H73416   5.595   7.764   2.361 -0.7546  0.3903  0.7674
  544MOL0     H73417   5.563   7.627   2.250  2.5757 -0.2671 -0.7334
  544MOL0     H73418   5.770   7.757   2.206 -2.0948  1.2713  0.8706
  544MOL0     H73419   5.847   7.681   2.344  0.1476  2.1945  0.0881
  544MOL0     H73420   5.212   7.016   2.920 -0.5900 -3.2033  2.3353
  544MOL0     H73421   5.043   6.839   2.915 -0.1706 -0.8280 -0.3052
  544MOL0     H73422   4.588   6.630   2.821 -1.2768  0.4680 -0.4602
  544MOL0     H73423   4.438   6.465   2.699  0.8743 -0.7678  3.2626
  544MOL0     H73424   4.219   6.936   2.557  3.1181  0.1515 -0.2656
  544MOL0     H73425   4.000   6.824   2.586 -3.7682 -2.5713  2.3676
  544MOL0     H73426   3.687   6.609   2.726  2.9985  1.1183  3.0481
  544MOL0     H73427   3.492   6.487   2.780  1.8164  0.3951  2.1385
  544MOL0     H73428   3.467   6.038   2.795  0.6208  0.3784 -1.3451
  544MOL0     H73429   3.464   6.090   2.626 -0.0612 -0.3544 -0.4867
  544MOL0     H73430   3.252   5.985   2.687  0.7546  1.0818  0.1041
  544MOL0     H73431   3.216   6.163   2.690 -0.1224  1.4656  1.7258
  544MOL0     H73432   3.260   6.137   2.942  3.0277  0.8688 -1.5457
  544MOL0     H73433   3.279   5.975   2.913  1.7219  0.4200 -2.1646
  544MOL0     H73434   3.054   6.040   2.986 -2.7788  3.0840  0.0425
  544MOL0     H73435   3.032   6.138   2.836  3.5120  1.2719 -1.4602
  544MOL0     H73436   2.909   5.763   2.714 -1.7236  0.2741  1.2714
  544MOL0     H73437   3.704   6.117   2.738 -0.2136 -0.0709 -2.3883
  544MOL0     H73438   3.928   6.103   2.718 -0.9878 -0.0336 -0.4785
  544MOL0     H73439   3.961   6.193   2.566  1.2369 -0.3955  0.0380
  544MOL0     H73440   4.026   6.245   2.728  0.8956 -3.6195  1.3635
  545MOL0     O73441   5.103   4.960  11.303 -0.2799 -0.3434  0.4069
  545MOL0     C73442   5.005   4.908  11.347  1.4049  0.6401  0.1015
  545MOL0     O73443   4.998   4.778  11.396  0.6118 -0.0268 -0.2207
  545MOL0     C73444   5.118   4.728  11.427 -0.0911  0.1249 -0.2344
  545MOL0     C73445   5.201   4.789  11.523  0.3818 -0.0759 -0.2163
  545MOL0     C73446   5.332   4.756  11.555 -0.2582 -0.0645  0.7088
  545MOL0     C73447   5.390   4.656  11.472  0.1152 -0.1012 -0.0546
  545MOL0     O73448   5.519   4.613  11.473  0.0926  0.1887 -0.3305
  545MOL0     C73449   5.610   4.668  11.568 -0.7601 -1.2969  0.1284
  545MOL0     C73450   5.750   4.602  11.557 -0.2403  0.6197  0.2850
  545MOL0     C73451   5.846   4.701  11.624  0.4194 -0.1232 -0.7752
  545MOL0     C73452   5.984   4.633  11.629  0.2057  0.3343  0.2525
  545MOL0     C73453   6.063   4.705  11.745 -0.2260 -0.4130 -0.1946
  545MOL0     C73454   6.205   4.651  11.753 -0.1571  0.0978  0.4515
  545MOL0     C73455   6.290   4.722  11.865 -0.2287 -0.8164 -0.0676
  545MOL0     C73456   6.441   4.709  11.863  0.6657 -0.5818  0.0278
  545MOL0     N73457   6.489   4.605  11.957 -0.2211 -0.4782 -0.8852
  545MOL0     C73458   6.610   4.619  12.023 -0.1094  0.1001 -0.1915
  545MOL0     C73459   6.628   4.502  12.091  0.2853  0.0154 -0.7680
  545MOL0     C73460   6.732   4.466  12.186  0.2759  0.6927 -0.6417
  545MOL0     C73461   6.867   4.451  12.115 -1.1596 -0.5273 -0.5073
  545MOL0     C73462   6.985   4.422  12.211 -0.1895 -0.1631 -0.8954
  545MOL0     C73463   7.116   4.403  12.143  0.1256 -0.1637 -1.2740
  545MOL0     O73464   7.219   4.386  12.249  0.3282  0.1607 -0.5071
  545MOL0     C73465   7.339   4.332  12.212 -0.5116  0.4372  0.2765
  545MOL0     C73466   7.401   4.338  12.090  0.5967 -0.1845  0.1590
  545MOL0     C73467   7.532   4.292  12.073  0.1750 -0.5332 -0.1831
  545MOL0     C73468   7.600   4.236  12.180  0.1058  0.6180 -1.0794
  545MOL0     C73469   7.744   4.204  12.163  1.0910 -0.2273 -0.1154
  545MOL0     O73470   7.814   4.227  12.050  0.3794 -1.0725  0.1191
  545MOL0     C73471   7.936   4.181  12.021 -0.3449  0.7723  0.8088
  545MOL0     C73472   8.012   4.080  12.089 -0.0284 -0.3818 -0.5962
  545MOL0     C73473   8.133   4.033  12.040  0.2042 -0.4843  0.2764
  545MOL0     C73474   8.178   4.086  11.915  0.2353  0.8695 -0.3664
  545MOL0     O73475   8.305   4.054  11.858  0.8161  0.2232 -0.0175
  545MOL0     C73476   8.393   3.966  11.933 -0.5964 -0.0860 -0.5196
  545MOL0     C73477   8.522   3.928  11.848 -0.3763 -0.2560  0.4519
  545MOL0     C73478   8.641   4.021  11.898  0.3936 -1.0200  0.0200
  545MOL0     C73479   8.743   4.025  11.794 -0.7029  0.1517 -0.4464
  545MOL0     C73480   8.868   4.106  11.842  1.1077 -1.0403  0.2274
  545MOL0     C73481   8.951   4.135  11.716  0.2306 -0.5657 -0.0316
  545MOL0     C73482   9.070   4.224  11.733 -0.0487 -0.2299 -0.3780
  545MOL0     C73483   9.145   4.253  11.610  0.2526 -0.3591  0.1767
  545MOL0    Cl73484   9.051   4.380  11.514 -0.1742 -0.2818  0.0923
  545MOL0     C73485   8.110   4.185  11.850  0.1791  0.4307 -0.6328
  545MOL0     C73486   7.990   4.228  11.900 -0.2834 -0.3695  0.5821
  545MOL0     O73487   7.794   4.170  12.264 -0.8642  0.1980 -0.1168
  545MOL0     C73488   7.541   4.227  12.308  0.1548 -0.2536 -0.2398
  545MOL0     C73489   7.404   4.276  12.320  0.6068 -0.4230  0.5011
  545MOL0     N73490   6.517   4.423  12.064 -0.8079  0.1714  0.9639
  545MOL0     N73491   6.435   4.486  11.977  0.3684 -0.5058 -0.0793
  545MOL0     C73492   5.314   4.594  11.381 -0.0400  0.7308 -0.2459
  545MOL0     C73493   5.173   4.619  11.357  0.4799 -0.2182 -0.4924
  545MOL0     C73494   4.884   4.990  11.365  0.8034 -0.4303 -0.2790
  545MOL0     C73495   4.752   4.925  11.391 -0.8077 -1.0931  0.3318
  545MOL0     C73496   4.637   5.007  11.412 -1.1825  0.3641  0.3659
  545MOL0     C73497   4.653   5.153  11.421 -0.1354  1.4256  0.1017
  545MOL0     O73498   4.540   5.234  11.415 -0.5286 -0.1536 -0.1219
  545MOL0     C73499   4.407   5.184  11.450  0.6319  0.0952  0.7110
  545MOL0     C73500   4.333   5.133  11.328  0.2219 -0.2489 -0.6440
  545MOL0     C73501   4.177   5.156  11.324 -0.2874  0.3255  0.0119
  545MOL0     C73502   4.103   5.084  11.442 -0.7871  0.2049 -0.8512
  545MOL0     C73503   3.970   5.120  11.436 -0.1795 -0.2290  0.6616
  545MOL0     C73504   3.851   5.142  11.439  0.7565 -0.8217  0.0794
  545MOL0     C73505   4.779   5.208  11.405 -0.9424  1.2392 -0.4418
  545MOL0     C73506   4.892   5.134  11.372 -0.8728  0.8906  0.5614
  545MOL0     C73507   5.020   5.215  11.358  0.2995  0.3752 -0.5980
  545MOL0     H73508   5.171   4.873  11.585 -1.6939 -2.9451  3.0765
  545MOL0     H73509   5.400   4.796  11.629  0.2688  2.9260 -1.1859
  545MOL0     H73510   5.608   4.777  11.566 -0.3053 -1.2143  1.9555
  545MOL0     H73511   5.559   4.648  11.663 -0.7150 -4.0562 -0.3237
  545MOL0     H73512   5.782   4.583  11.454 -4.2526 -1.0719 -0.8438
  545MOL0     H73513   5.736   4.502  11.599 -1.0891  0.8229  0.5043
  545MOL0     H73514   5.795   4.735  11.714  0.5150 -1.3466 -0.2401
  545MOL0     H73515   5.853   4.795  11.568  2.5094  0.2824  0.0610
  545MOL0     H73516   5.973   4.525  11.644 -1.5076  0.4944  0.2688
  545MOL0     H73517   6.046   4.647  11.540  0.4798  1.0034  0.5415
  545MOL0     H73518   6.054   4.812  11.725 -2.1973 -0.7006 -1.1416
  545MOL0     H73519   6.006   4.687  11.837 -0.2994  2.2424  0.3483
  545MOL0     H73520   6.206   4.546  11.784  0.4558  0.3485  1.3083
  545MOL0     H73521   6.256   4.661  11.656 -0.3429 -0.9816  0.2294
  545MOL0     H73522   6.248   4.699  11.963  1.7822 -0.2999  0.9802
  545MOL0     H73523   6.278   4.829  11.846  3.9241  0.0023  0.8054
  545MOL0     H73524   6.477   4.692  11.761 -2.0339  1.1037 -1.3206
  545MOL0     H73525   6.478   4.812  11.876  1.1143 -0.0041 -4.3040
  545MOL0     H73526   6.672   4.707  12.034 -1.5045  1.0203  0.6666
  545MOL0     H73527   6.732   4.532  12.273 -2.1182 -1.8118  1.4380
  545MOL0     H73528   6.715   4.365  12.224  1.1585  1.0377  0.7362
  545MOL0     H73529   6.855   4.382  12.030 -1.5424  0.4743 -1.2917
  545MOL0     H73530   6.881   4.549  12.068 -1.4916  0.1224  0.6998
  545MOL0     H73531   6.956   4.335  12.270  0.2476  0.0862 -0.3038
  545MOL0     H73532   7.003   4.503  12.282  0.1794 -2.3189  1.6224
  545MOL0     H73533   7.136   4.493  12.083 -0.4120  2.2382  1.9073
  545MOL0     H73534   7.104   4.325  12.067 -1.3929  0.6907 -1.9478
  545MOL0     H73535   7.339   4.379  12.011 -0.7208  1.7959  2.1082
  545MOL0     H73536   7.563   4.300  11.969 -0.9903 -1.5567 -0.6446
  545MOL0     H73537   7.979   4.046  12.187  1.2256  1.1267  0.4159
  545MOL0     H73538   8.187   3.955  12.092  0.1488  0.5587  1.9749
  545MOL0     H73539   8.423   4.012  12.027  1.0778 -0.0610 -1.0337
  545MOL0     H73540   8.351   3.867  11.953  0.3415 -1.1921 -3.4802
  545MOL0     H73541   8.547   3.824  11.869  0.0846 -0.3200 -0.3914
  545MOL0     H73542   8.503   3.935  11.741 -1.9362 -0.7934  0.6663
  545MOL0     H73543   8.593   4.118  11.915 -0.8368 -1.6606  0.2540
  545MOL0     H73544   8.686   3.992  11.994  4.1446 -0.2843 -1.3393
  545MOL0     H73545   8.690   4.059  11.705  0.2896  0.5280 -0.9076
  545MOL0     H73546   8.775   3.925  11.763 -2.1546 -0.8478  1.0739
  545MOL0     H73547   8.921   4.055  11.923  0.0666 -2.4866  0.0178
  545MOL0     H73548   8.831   4.204  11.875  0.3008 -0.9996 -0.7392
  545MOL0     H73549   8.985   4.037  11.681 -2.8891 -1.7720 -0.0498
  545MOL0     H73550   8.881   4.176  11.643 -1.5851 -0.2879  1.7464
  545MOL0     H73551   9.140   4.183  11.807 -1.8891 -0.6358  1.2117
  545MOL0     H73552   9.050   4.322  11.778  1.6808 -1.1672  2.7762
  545MOL0     H73553   9.249   4.285  11.619 -0.3029  1.7106 -0.3634
  545MOL0     H73554   9.149   4.158  11.556 -1.4165  0.1460 -0.9283
  545MOL0     H73555   8.149   4.223  11.756 -1.8665 -2.4514 -2.8387
  545MOL0     H73556   7.929   4.291  11.836  0.9536 -1.2094 -1.5427
  545MOL0     H73557   7.595   4.189  12.394  1.3878 -0.8692 -1.2512
  545MOL0     H73558   7.356   4.265  12.416 -0.1114  0.6050  0.2769
  545MOL0     H73559   5.350   4.520  11.310  0.1751  0.4728  0.1343
  545MOL0     H73560   5.110   4.567  11.285  2.0855 -1.2658 -1.1962
  545MOL0     H73561   4.748   4.816  11.392 -4.4340 -1.0929 -0.4563
  545MOL0     H73562   4.542   4.956  11.424 -1.5660  1.0078  0.0908
  545MOL0     H73563   4.356   5.275  11.482 -1.3515  0.7277 -3.4898
  545MOL0     H73564   4.402   5.101  11.520  0.4336 -1.1007 -0.6623
  545MOL0     H73565   4.344   5.025  11.326  1.0703 -0.2576  1.6898
  545MOL0     H73566   4.375   5.182  11.239 -0.1011  0.0736 -0.6244
  545MOL0     H73567   4.138   5.122  11.228 -0.5129  2.3936 -0.6818
  545MOL0     H73568   4.162   5.264  11.326  3.9038  1.0755  0.7499
  545MOL0     H73569   4.119   4.975  11.437  3.0500  0.6201 -0.4356
  545MOL0     H73570   4.141   5.124  11.536 -1.3807  0.6905 -0.8178
  545MOL0     H73571   3.747   5.160  11.456  0.0310 -1.8176 -2.7986
  545MOL0     H73572   4.786   5.316  11.407 -1.3688  1.3320 -2.1563
  545MOL0     H73573   5.015   5.318  11.394 -2.1972  0.2333 -0.3723
  545MOL0     H73574   5.108   5.175  11.409 -0.0144 -2.5946 -2.1398
  545MOL0     H73575   5.048   5.215  11.252 -2.4099 -2.3758 -1.4780
  546MOL0     O73576   2.120   5.857   0.362 -0.8362 -0.4722  0.1019
  546MOL0     C73577   2.095   5.741   0.400 -0.3948 -1.6024  0.1856
  546MOL0     O73578   2.008   5.704   0.494  0.3266 -0.1487 -0.5464
  546MOL0     C73579   1.958   5.803   0.575 -0.7058 -0.1138 -0.1335
  546MOL0     C73580   2.036   5.866   0.674 -0.0241  0.5420  0.6014
  546MOL0     C73581   1.985   5.966   0.751 -0.2089  0.8980 -0.7678
  546MOL0     C73582   1.843   5.993   0.741  0.3519 -0.7196 -0.2421
  546MOL0     O73583   1.768   6.084   0.808  0.0124 -0.5930  0.5782
  546MOL0     C73584   1.838   6.160   0.907 -0.2727  0.5430 -0.7464
  546MOL0     C73585   1.723   6.222   0.983 -0.7588  0.2743  0.0657
  546MOL0     C73586   1.773   6.340   1.081  0.6767 -0.7752  0.9978
  546MOL0     C73587   1.768   6.483   1.010  0.0101  1.3714  0.6989
  546MOL0     C73588   1.814   6.594   1.102 -1.2184  1.0530 -0.8367
  546MOL0     C73589   1.700   6.604   1.208 -0.3543  0.1485  0.6857
  546MOL0     C73590   1.728   6.723   1.303 -0.8450 -0.3001 -0.0858
  546MOL0     C73591   1.605   6.730   1.402 -0.6975 -0.0554  0.7054
  546MOL0     N73592   1.624   6.835   1.508  0.6745  0.8370  1.0362
  546MOL0     C73593   1.631   6.975   1.485 -0.9612 -0.1330  0.3028
  546MOL0     C73594   1.651   7.022   1.612 -1.1049  0.6710  0.2976
  546MOL0     C73595   1.664   7.170   1.659  1.3677 -0.6402 -0.1710
  546MOL0     C73596   1.807   7.229   1.654 -0.2330 -0.4999  0.7029
  546MOL0     C73597   1.809   7.375   1.701 -0.2233  0.3078 -0.6203
  546MOL0     C73598   1.950   7.419   1.751  0.1146  0.3270 -0.2252
  546MOL0     O73599   2.048   7.375   1.668 -0.4060  0.0250 -0.6692
  546MOL0     C73600   2.180   7.376   1.703  0.0696 -0.1584 -0.0569
  546MOL0     C73601   2.262   7.345   1.600  0.3499 -0.5144 -0.4832
  546MOL0     C73602   2.396   7.378   1.596 -0.6443  0.2580 -0.9688
  546MOL0     C73603   2.454   7.438   1.716  0.3606  0.9944  0.0501
  546MOL0     C73604   2.592   7.464   1.735 -0.4130  0.3856  0.6131
  546MOL0     O73605   2.672   7.398   1.645 -0.3742  0.6118 -0.3258
  546MOL0     C73606   2.803   7.372   1.657 -1.0180 -0.5250  0.0017
  546MOL0     C73607   2.887   7.410   1.760  0.4978 -0.4613 -0.3512
  546MOL0     C73608   3.029   7.388   1.759  0.6962 -0.0700  0.3453
  546MOL0     C73609   3.081   7.317   1.643  0.5650 -0.3613  0.0219
  546MOL0     O73610   3.207   7.274   1.622  0.1701  0.0520 -1.0414
  546MOL0     C73611   3.303   7.267   1.729  1.0054  0.1596 -0.2647
  546MOL0     C73612   3.416   7.180   1.694 -1.3615 -0.7653 -0.0625
  546MOL0     C73613   3.374   7.045   1.632 -0.7205 -0.3006  0.6432
  546MOL0     C73614   3.488   6.964   1.587  0.0192  0.4770 -0.1173
  546MOL0     C73615   3.440   6.835   1.527 -0.2468  0.0955 -0.4634
  546MOL0     C73616   3.547   6.721   1.527 -0.5404  0.1985 -0.8473
  546MOL0     C73617   3.627   6.703   1.397  0.1369  0.5545  0.0422
  546MOL0     C73618   3.737   6.594   1.393 -0.2954  0.3638  0.5947
  546MOL0    Cl73619   3.865   6.637   1.510 -0.3384  0.1957 -0.2427
  546MOL0     C73620   2.995   7.283   1.537 -0.1817 -0.5642  0.0003
  546MOL0     C73621   2.860   7.310   1.548 -0.9418 -0.0154  0.3804
  546MOL0     O73622   2.635   7.561   1.800 -0.6421 -0.4044  0.3455
  546MOL0     C73623   2.369   7.489   1.813 -0.1669 -0.4169 -0.4350
  546MOL0     C73624   2.231   7.451   1.813 -0.4961  0.0510  0.4119
  546MOL0     N73625   1.662   6.915   1.703 -0.4018  0.9664 -0.2444
  546MOL0     N73626   1.640   6.807   1.637 -0.6314  0.2691 -0.8120
  546MOL0     C73627   1.766   5.929   0.649 -0.1695  0.1740  0.1800
  546MOL0     C73628   1.823   5.829   0.566 -0.3173 -0.4338  0.0965
  546MOL0     C73629   2.168   5.648   0.320  0.0918 -0.3055  0.6314
  546MOL0     C73630   2.304   5.672   0.294 -0.9588 -0.9424 -0.4714
  546MOL0     C73631   2.387   5.573   0.242 -0.6128 -0.4680  0.3192
  546MOL0     C73632   2.342   5.438   0.225  0.1237 -0.2024 -0.1294
  546MOL0     O73633   2.420   5.336   0.193  0.0761 -0.3780  0.2754
  546MOL0     C73634   2.537   5.362   0.110  0.1175 -0.2005 -0.4895
  546MOL0     C73635   2.592   5.230   0.050 -0.5835 -0.8868  0.2157
  546MOL0     C73636   2.696   5.265  -0.064 -0.7080 -0.9133  0.6330
  546MOL0     C73637   2.816   5.345  -0.007 -0.9861 -0.5767 -0.6008
  546MOL0     C73638   2.898   5.272   0.089  0.1193  0.4598  0.4575
  546MOL0     C73639   2.966   5.222   0.174 -0.3014  0.1811  0.0138
  546MOL0     C73640   2.207   5.419   0.244 -0.5688 -0.6958 -0.4590
  546MOL0     C73641   2.115   5.514   0.287 -0.0759  0.6860  0.5104
  546MOL0     C73642   1.972   5.467   0.311  0.5292 -0.6971  0.5747
  546MOL0     H73643   2.138   5.830   0.665  0.1990  1.1035  0.8969
  546MOL0     H73644   2.040   6.019   0.828 -0.0294 -0.6156  0.1873
  546MOL0     H73645   1.908   6.104   0.970 -1.7871  1.0781  1.5255
  546MOL0     H73646   1.904   6.231   0.857  4.0842 -1.8243  1.1035
  546MOL0     H73647   1.672   6.140   1.035 -0.8180  0.6370  0.5893
  546MOL0     H73648   1.650   6.269   0.917 -1.5820 -0.9485  0.0665
  546MOL0     H73649   1.875   6.311   1.106  0.9737 -2.1509 -1.4684
  546MOL0     H73650   1.707   6.335   1.168  1.2324  0.0182  1.4763
  546MOL0     H73651   1.836   6.472   0.925 -0.8868 -0.3357  0.1556
  546MOL0     H73652   1.671   6.505   0.964 -0.0927 -1.8972 -0.9233
  546MOL0     H73653   1.904   6.559   1.153 -3.0124 -2.9361 -0.0671
  546MOL0     H73654   1.841   6.683   1.044  1.6755  0.7569 -0.0902
  546MOL0     H73655   1.614   6.637   1.150  1.2249  2.7174 -0.3776
  546MOL0     H73656   1.690   6.513   1.269  0.1015  1.9917  3.7499
  546MOL0     H73657   1.730   6.818   1.250 -1.2470  0.6966  1.5963
  546MOL0     H73658   1.816   6.699   1.363 -1.9386 -2.4527  0.7624
  546MOL0     H73659   1.510   6.758   1.355  0.1893 -0.9051 -1.7212
  546MOL0     H73660   1.585   6.637   1.456 -1.3302 -0.4418 -0.1824
  546MOL0     H73661   1.615   7.027   1.390  2.7960  2.1089  0.6923
  546MOL0     H73662   1.595   7.233   1.602  2.2161 -1.3923 -2.1329
  546MOL0     H73663   1.628   7.163   1.761 -2.0733  2.9336 -0.8966
  546MOL0     H73664   1.863   7.156   1.713  1.0817  0.0902  0.2170
  546MOL0     H73665   1.841   7.221   1.550 -3.9037  0.8543 -0.7875
  546MOL0     H73666   1.732   7.374   1.779  2.1757 -3.8639  2.0734
  546MOL0     H73667   1.774   7.440   1.620 -1.3844  2.3104  1.3577
  546MOL0     H73668   1.969   7.369   1.847 -0.9200 -1.3186 -0.8367
  546MOL0     H73669   1.959   7.528   1.753 -1.0106  0.4624 -1.2431
  546MOL0     H73670   2.202   7.307   1.517  1.6505  2.6355 -3.0874
  546MOL0     H73671   2.459   7.362   1.510 -1.4965 -0.5360 -1.4586
  546MOL0     H73672   2.833   7.455   1.842 -0.0322 -2.0843  0.2247
  546MOL0     H73673   3.096   7.434   1.830 -2.4625  2.9550  1.6085
  546MOL0     H73674   3.341   7.365   1.761  0.0968  0.3069  0.3846
  546MOL0     H73675   3.262   7.224   1.820  0.2118  0.4129 -0.4963
  546MOL0     H73676   3.475   7.239   1.623  0.1349 -1.8762  0.2080
  546MOL0     H73677   3.484   7.158   1.777  1.3676 -1.5395 -2.3597
  546MOL0     H73678   3.320   6.989   1.709 -0.2981  1.0080  1.9223
  546MOL0     H73679   3.313   7.060   1.542  0.8215 -1.2759 -0.6164
  546MOL0     H73680   3.557   6.943   1.670  0.2100  1.5375  0.0005
  546MOL0     H73681   3.551   7.022   1.519  1.5361 -1.0523 -0.0844
  546MOL0     H73682   3.406   6.856   1.425 -0.9205  4.6532  0.4690
  546MOL0     H73683   3.355   6.792   1.581  0.7884 -2.4937 -0.7323
  546MOL0     H73684   3.620   6.737   1.606 -2.0147 -1.9114  1.0864
  546MOL0     H73685   3.501   6.622   1.535 -0.9789  0.5789  2.8286
  546MOL0     H73686   3.673   6.801   1.381  1.7323 -0.1294  0.2851
  546MOL0     H73687   3.554   6.695   1.315 -1.1368  4.6007  0.5129
  546MOL0     H73688   3.679   6.505   1.420  0.1472  0.0609  0.5607
  546MOL0     H73689   3.769   6.564   1.292  2.2491  1.5708  0.9901
  546MOL0     H73690   3.019   7.239   1.440 -3.8596 -1.4066 -0.6994
  546MOL0     H73691   2.792   7.283   1.467 -0.7342 -2.4861  0.9650
  546MOL0     H73692   2.402   7.544   1.901 -0.7753  0.5633 -0.8033
  546MOL0     H73693   2.178   7.460   1.907 -0.4139  0.1842  0.4451
  546MOL0     H73694   1.659   5.948   0.647 -0.0522  1.1900 -2.9392
  546MOL0     H73695   1.776   5.765   0.491  1.5833  0.5628 -2.0482
  546MOL0     H73696   2.349   5.770   0.309 -1.9063 -0.6052  0.2639
  546MOL0     H73697   2.491   5.597   0.220  0.0505 -3.5768 -0.3907
  546MOL0     H73698   2.615   5.408   0.170 -0.5711  0.3407  0.0043
  546MOL0     H73699   2.521   5.441   0.036 -0.7297 -1.9780 -2.3283
  546MOL0     H73700   2.511   5.170   0.007 -0.7867 -0.4820  0.0302
  546MOL0     H73701   2.657   5.179   0.122 -0.1945 -1.2826 -0.4048
  546MOL0     H73702   2.659   5.340  -0.133  2.0980  1.3705  1.3950
  546MOL0     H73703   2.730   5.174  -0.116  0.4619 -0.6358  0.8760
  546MOL0     H73704   2.879   5.352  -0.096 -0.3439 -1.1182 -0.1944
  546MOL0     H73705   2.782   5.440   0.036 -1.1814  0.3813 -2.7581
  546MOL0     H73706   3.032   5.179   0.246  0.3965 -0.4013 -0.9381
  546MOL0     H73707   2.170   5.317   0.233 -0.7890 -0.5612 -1.0179
  546MOL0     H73708   1.905   5.547   0.278  0.2685 -1.9433 -2.1860
  546MOL0     H73709   1.955   5.370   0.265  5.4797 -0.3933 -2.6962
  546MOL0     H73710   1.970   5.462   0.421  0.1913  0.5662  0.6431
  547MOL0     O73711  11.165   1.643   4.755 -0.9044 -0.0747 -0.3219
  547MOL0     C73712  11.129   1.539   4.698  0.1759  0.7528  0.1090
  547MOL0     O73713  11.204   1.446   4.644 -0.7882 -0.3101 -0.2216
  547MOL0     C73714  11.324   1.434   4.717  0.6175  0.3649  0.3581
  547MOL0     C73715  11.427   1.416   4.628 -0.1763  0.7548  0.0484
  547MOL0     C73716  11.561   1.416   4.680  0.5133 -0.2564 -0.1803
  547MOL0     C73717  11.577   1.423   4.820  0.0333 -0.4005  0.1948
  547MOL0     O73718  11.699   1.417   4.891 -0.4590  0.2013 -0.1482
  547MOL0     C73719  11.815   1.406   4.816  0.1595  0.1813  0.5451
  547MOL0     C73720  11.932   1.403   4.907 -1.3168  0.2722  0.4156
  547MOL0     C73721  11.965   1.556   4.950 -1.1824 -0.0610  0.3787
  547MOL0     C73722  12.057   1.555   5.068  0.7861  0.0977  0.7805
  547MOL0     C73723  12.110   1.694   5.096 -0.4042 -0.9823  0.0835
  547MOL0     C73724  12.213   1.706   5.199  0.1962 -0.5216  0.3985
  547MOL0     C73725  12.166   1.666   5.335 -0.4294 -0.2172 -0.2335
  547MOL0     C73726  12.253   1.719   5.449 -0.3030  0.3836  0.1688
  547MOL0     N73727  12.391   1.674   5.451 -0.0155  0.4219  0.2738
  547MOL0     C73728  12.485   1.727   5.523 -0.0669 -0.4593  0.4004
  547MOL0     C73729  12.593   1.656   5.496 -0.1095  0.0815 -0.1341
  547MOL0     C73730  12.726   1.682   5.573 -0.2942  0.4403  0.2598
  547MOL0     C73731  12.788   1.551   5.625 -0.7489 -0.4667  0.0948
  547MOL0     C73732  12.940   1.572   5.673  0.4338 -0.2855  0.2816
  547MOL0     C73733  13.004   1.431   5.701  0.3710  0.4467  0.1837
  547MOL0     O73734  13.116   1.445   5.793 -0.7952 -1.6970 -0.2126
  547MOL0     C73735  13.221   1.523   5.761 -1.0984  0.1553  0.7833
  547MOL0     C73736  13.253   1.570   5.628  0.9595  0.1117 -0.7669
  547MOL0     C73737  13.365   1.640   5.605  0.1185  0.4413 -0.0439
  547MOL0     C73738  13.462   1.662   5.707  0.7478 -0.3906 -0.1658
  547MOL0     C73739  13.598   1.704   5.679  0.6099 -1.2286  0.2150
  547MOL0     O73740  13.684   1.702   5.783  0.4922  0.3890  0.5850
  547MOL0     C73741  13.819   1.739   5.776 -0.0249  0.1085 -0.9705
  547MOL0     C73742  13.864   1.832   5.686  0.8111  0.4016  0.6042
  547MOL0     C73743  13.998   1.862   5.677 -0.5502 -0.2309 -0.1009
  547MOL0     C73744  14.093   1.803   5.761 -0.4326  0.2520 -0.0566
  547MOL0     O73745  14.220   1.847   5.738  0.2009  0.2936  0.2528
  547MOL0     C73746  14.330   1.780   5.811  0.0334 -0.4870 -0.5703
  547MOL0     C73747  14.457   1.863   5.795  0.3960 -0.7157 -0.6656
  547MOL0     C73748  14.452   1.990   5.887 -0.4933 -0.0960 -0.6519
  547MOL0     C73749  14.578   2.074   5.871  0.3348  1.3912  0.2328
  547MOL0     C73750  14.589   2.183   5.972 -0.1725  0.6134  0.0300
  547MOL0     C73751  14.647   2.147   6.105  0.2857  0.4498 -0.7229
  547MOL0     C73752  14.803   2.142   6.095 -0.0424 -0.2779  0.3135
  547MOL0     C73753  14.852   2.142   6.240  0.4946 -0.9324  1.0351
  547MOL0    Cl73754  15.024   2.190   6.253  0.3426 -0.0815 -0.3388
  547MOL0     C73755  14.043   1.716   5.856  0.1461 -0.4234  0.3367
  547MOL0     C73756  13.906   1.684   5.872 -0.0300 -0.1088 -0.2679
  547MOL0     O73757  13.625   1.718   5.563  0.1146  0.8700  0.8516
  547MOL0     C73758  13.422   1.628   5.839  0.1603 -0.4391  0.8116
  547MOL0     C73759  13.304   1.557   5.864  0.3372  0.8397 -0.9073
  547MOL0     N73760  12.571   1.566   5.392  0.2835 -0.2398 -0.1541
  547MOL0     N73761  12.443   1.570   5.373  0.0431  0.1445  0.1179
  547MOL0     C73762  11.469   1.441   4.907 -0.0802  0.3638 -0.1044
  547MOL0     C73763  11.336   1.438   4.861  0.1170 -0.2026 -0.2399
  547MOL0     C73764  10.982   1.512   4.702 -0.9888 -0.6082  0.1555
  547MOL0     C73765  10.902   1.592   4.782  0.0373  0.7274  0.0487
  547MOL0     C73766  10.768   1.568   4.807  0.0408  1.0556 -0.1084
  547MOL0     C73767  10.706   1.458   4.748  0.9992  0.1035  0.1504
  547MOL0     O73768  10.577   1.419   4.770 -0.4500 -0.7015 -0.3873
  547MOL0     C73769  10.510   1.445   4.886 -0.1014 -0.6659  0.9072
  547MOL0     C73770  10.376   1.370   4.893  0.9218 -0.2441 -0.4669
  547MOL0     C73771  10.273   1.439   4.795 -0.2121  0.4811 -1.0471
  547MOL0     C73772  10.123   1.399   4.833 -1.3333  0.7550 -0.2709
  547MOL0     C73773  10.098   1.252   4.827  0.0636 -0.6734 -0.5779
  547MOL0     C73774  10.075   1.135   4.797 -0.7667 -0.0775 -0.3658
  547MOL0     C73775  10.781   1.383   4.653 -0.3746 -0.0603  0.0616
  547MOL0     C73776  10.914   1.411   4.628  0.4129  0.4792 -0.5597
  547MOL0     C73777  10.979   1.318   4.530  0.6382  0.0631  0.6650
  547MOL0     H73778  11.403   1.418   4.522  3.0252  2.9915 -0.7944
  547MOL0     H73779  11.648   1.404   4.615  0.5437  0.2040 -0.2240
  547MOL0     H73780  11.808   1.312   4.761 -3.6765 -0.1780  1.4034
  547MOL0     H73781  11.833   1.485   4.742  1.8745  0.1287  0.8596
  547MOL0     H73782  12.021   1.367   4.855 -0.5563 -0.0835  1.9178
  547MOL0     H73783  11.907   1.351   5.000 -0.8364 -0.2064  0.2799
  547MOL0     H73784  11.870   1.606   4.971 -1.7814 -2.1786  3.3546
  547MOL0     H73785  12.013   1.593   4.858  0.1840  1.6083  1.6899
  547MOL0     H73786  12.001   1.518   5.155  1.4004 -1.4087  0.5666
  547MOL0     H73787  12.147   1.495   5.052  0.5656 -0.0165 -0.0403
  547MOL0     H73788  12.164   1.719   5.004 -1.5991 -2.4379 -1.0580
  547MOL0     H73789  12.035   1.770   5.118 -3.5630 -4.0653  0.7029
  547MOL0     H73790  12.299   1.645   5.170 -2.0985 -4.3610  1.0157
  547MOL0     H73791  12.241   1.812   5.208  1.9587 -0.3277 -4.5521
  547MOL0     H73792  12.159   1.557   5.338  1.1375 -0.3233  1.2967
  547MOL0     H73793  12.064   1.705   5.344  0.4545  2.7626 -1.8462
  547MOL0     H73794  12.247   1.828   5.452  1.5193  0.5530  4.5644
  547MOL0     H73795  12.201   1.694   5.542  0.7338  0.9228  0.9083
  547MOL0     H73796  12.466   1.804   5.596 -0.6782 -1.5496  1.4261
  547MOL0     H73797  12.796   1.736   5.508 -1.1759 -0.2947 -1.3548
  547MOL0     H73798  12.703   1.732   5.668 -0.1055 -1.6798  1.4953
  547MOL0     H73799  12.731   1.535   5.717  0.3893 -0.1979  0.8744
  547MOL0     H73800  12.773   1.477   5.546 -2.2396 -0.2921  0.1811
  547MOL0     H73801  12.941   1.636   5.761  4.1031 -1.0738  0.9882
  547MOL0     H73802  12.996   1.629   5.599  3.5990 -1.5053  1.5740
  547MOL0     H73803  13.035   1.380   5.609 -3.2454 -1.0149 -0.3942
  547MOL0     H73804  12.931   1.366   5.750  1.1584 -0.1449  0.6017
  547MOL0     H73805  13.199   1.542   5.537 -0.0329  0.5795 -0.3334
  547MOL0     H73806  13.381   1.673   5.503 -0.1856 -2.6556 -1.2244
  547MOL0     H73807  13.789   1.894   5.638 -0.4194  1.1482  3.2516
  547MOL0     H73808  14.031   1.933   5.602 -1.9353  2.2771  1.5216
  547MOL0     H73809  14.307   1.769   5.918  1.6842 -1.4806 -0.2784
  547MOL0     H73810  14.342   1.684   5.761  2.6862 -0.3758 -0.2922
  547MOL0     H73811  14.538   1.795   5.825 -0.8561 -2.0056 -0.0777
  547MOL0     H73812  14.469   1.894   5.691 -1.8710 -0.1070 -0.7863
  547MOL0     H73813  14.358   2.038   5.860  0.4000  1.9578 -0.2682
  547MOL0     H73814  14.437   1.967   5.993 -0.6912 -1.0212 -0.8657
  547MOL0     H73815  14.567   2.123   5.773  1.9833  0.7631 -0.3105
  547MOL0     H73816  14.668   2.011   5.868 -1.5967 -1.7409  2.4542
  547MOL0     H73817  14.489   2.224   5.986 -0.4610 -0.2451  0.5756
  547MOL0     H73818  14.648   2.262   5.926 -1.1127  0.8417 -0.8219
  547MOL0     H73819  14.611   2.210   6.187  0.4257 -1.7000  1.0917
  547MOL0     H73820  14.615   2.047   6.134  6.8988 -1.7748  0.6994
  547MOL0     H73821  14.849   2.227   6.043  1.8552 -2.2613 -1.4700
  547MOL0     H73822  14.842   2.051   6.048  2.5922 -0.3814  2.4637
  547MOL0     H73823  14.798   2.212   6.305  2.1195  3.0447 -1.5302
  547MOL0     H73824  14.849   2.041   6.282  0.2186 -0.8317  1.2550
  547MOL0     H73825  14.119   1.668   5.917  1.9721  2.7471  0.8162
  547MOL0     H73826  13.885   1.610   5.948 -0.5835 -0.2568 -0.5615
  547MOL0     H73827  13.490   1.643   5.923  1.3913 -1.4382  0.0278
  547MOL0     H73828  13.281   1.519   5.963 -1.7757  0.2977 -1.5639
  547MOL0     H73829  11.479   1.432   5.015 -1.7155 -3.1932 -0.1101
  547MOL0     H73830  11.252   1.454   4.928  2.3471  2.1934  2.2239
  547MOL0     H73831  10.950   1.673   4.836  1.0954 -1.0747  1.9811
  547MOL0     H73832  10.718   1.627   4.884 -0.3439 -1.1190  1.3936
  547MOL0     H73833  10.494   1.552   4.902  0.8141 -0.9833  4.8643
  547MOL0     H73834  10.566   1.407   4.971  0.3881  0.1181  0.9503
  547MOL0     H73835  10.334   1.377   4.994  0.6189 -2.8772 -0.3330
  547MOL0     H73836  10.391   1.268   4.857  1.7489  0.0843 -1.0930
  547MOL0     H73837  10.289   1.398   4.695 -2.8491 -0.6375 -1.1068
  547MOL0     H73838  10.281   1.548   4.796  0.0942  0.4581  0.1850
  547MOL0     H73839  10.106   1.434   4.935  1.5024 -2.0232  1.3351
  547MOL0     H73840  10.047   1.450   4.773 -0.8698  1.5728 -0.1899
  547MOL0     H73841  10.051   1.031   4.792 -0.5895 -0.3409  2.7890
  547MOL0     H73842  10.727   1.306   4.599 -1.9003  0.9416  0.0789
  547MOL0     H73843  11.036   1.241   4.582  2.5694  2.0915  1.6961
  547MOL0     H73844  10.905   1.280   4.458  1.4309  0.8042 -0.5711
  547MOL0     H73845  11.044   1.372   4.461  2.1088 -1.8027  0.4992
  548MOL0     O73846   5.043   2.231   0.678  0.4305  0.2363 -0.5686
  548MOL0     C73847   5.105   2.130   0.718 -0.5673 -0.6266  0.6416
  548MOL0     O73848   5.051   2.046   0.818  0.2009  0.4579  0.0060
  548MOL0     C73849   4.924   2.034   0.868 -0.7101 -0.1139 -0.9349
  548MOL0     C73850   4.824   2.120   0.856 -0.0617 -0.8476  0.4840
  548MOL0     C73851   4.699   2.095   0.911 -0.7234 -0.9946 -0.4860
  548MOL0     C73852   4.672   1.985   0.985  0.3720  0.2064  0.3282
  548MOL0     O73853   4.544   1.960   1.043  0.1577 -1.3163 -0.1304
  548MOL0     C73854   4.507   1.821   1.049  0.2307  0.5613 -0.5619
  548MOL0     C73855   4.357   1.823   1.074  0.5806  1.1456 -0.1816
  548MOL0     C73856   4.307   1.697   1.141 -0.2094 -0.0798 -0.0972
  548MOL0     C73857   4.154   1.704   1.149 -1.1342  0.4797  0.8402
  548MOL0     C73858   4.098   1.644   1.016 -0.1288 -0.6786 -0.6941
  548MOL0     C73859   4.081   1.494   1.010 -0.1444  0.0131  0.3233
  548MOL0     C73860   4.078   1.442   0.864  0.9316 -0.3451 -0.3006
  548MOL0     C73861   4.056   1.287   0.850 -0.3701  0.0205  0.0456
  548MOL0     N73862   4.152   1.204   0.916 -0.8975  0.3155 -0.1649
  548MOL0     C73863   4.285   1.202   0.898  0.2721 -0.8236  0.4925
  548MOL0     C73864   4.331   1.110   0.979  0.2910  0.3606 -0.2540
  548MOL0     C73865   4.474   1.071   1.016  0.1683  0.3490  0.3566
  548MOL0     C73866   4.564   1.200   1.022  0.0990 -0.8452 -0.6773
  548MOL0     C73867   4.602   1.279   0.892  0.4994  0.7250 -0.5735
  548MOL0     C73868   4.753   1.275   0.873  0.1880 -0.0168 -0.7626
  548MOL0     O73869   4.791   1.396   0.801  0.9560  0.8474  0.2560
  548MOL0     C73870   4.920   1.442   0.809 -0.0955 -0.7297 -0.2100
  548MOL0     C73871   4.939   1.580   0.773 -0.3170 -0.0249 -0.1199
  548MOL0     C73872   5.066   1.633   0.769 -0.6758 -0.4069 -0.2948
  548MOL0     C73873   5.180   1.557   0.805 -0.1793 -0.7147 -0.2320
  548MOL0     C73874   5.308   1.618   0.807  0.9702 -0.0508  0.2525
  548MOL0     O73875   5.415   1.539   0.788 -0.7650 -0.1101 -0.5100
  548MOL0     C73876   5.536   1.602   0.764 -0.4776 -0.1234 -1.0770
  548MOL0     C73877   5.603   1.667   0.869 -0.1125 -0.2817 -0.0553
  548MOL0     C73878   5.720   1.737   0.847  0.3337 -0.8196  0.0526
  548MOL0     C73879   5.779   1.731   0.717  0.5526 -0.4026 -0.3854
  548MOL0     O73880   5.899   1.791   0.689 -0.0275 -0.0074  0.2680
  548MOL0     C73881   6.004   1.790   0.786  0.6604 -0.4021 -0.5474
  548MOL0     C73882   6.118   1.720   0.720 -0.6152  0.3728 -0.2903
  548MOL0     C73883   6.251   1.686   0.800  0.7727  0.8027  0.7618
  548MOL0     C73884   6.346   1.606   0.705  0.9755 -0.3419 -0.4236
  548MOL0     C73885   6.483   1.573   0.763  0.1550 -1.1092 -0.3237
  548MOL0     C73886   6.477   1.457   0.870 -0.0397  0.5336 -0.2007
  548MOL0     C73887   6.615   1.440   0.938 -0.2424  0.5360 -0.0612
  548MOL0     C73888   6.625   1.331   1.051  0.2349  0.7870 -0.3240
  548MOL0    Cl73889   6.544   1.178   0.997 -0.4030  0.2269  0.0005
  548MOL0     C73890   5.710   1.678   0.612 -0.2046 -0.2928  1.0067
  548MOL0     C73891   5.592   1.601   0.634  0.0304 -0.6530 -1.3537
  548MOL0     O73892   5.308   1.742   0.826 -0.2323  0.1086 -0.4665
  548MOL0     C73893   5.166   1.419   0.856  1.0621 -0.0771 -0.3901
  548MOL0     C73894   5.037   1.371   0.858  0.2376 -0.6672  1.1573
  548MOL0     N73895   4.222   1.040   1.036 -0.3943  0.5884 -0.0873
  548MOL0     N73896   4.119   1.099   0.997  0.2106 -0.0756  0.6206
  548MOL0     C73897   4.776   1.895   1.003 -0.3509  0.5610 -0.5781
  548MOL0     C73898   4.898   1.912   0.934  0.1055  0.9686  0.5976
  548MOL0     C73899   5.231   2.099   0.652  0.3591  0.1691 -0.3530
  548MOL0     C73900   5.317   2.026   0.725  0.3356 -0.2726 -0.8802
  548MOL0     C73901   5.441   1.988   0.670 -0.2524  0.1962 -0.7896
  548MOL0     C73902   5.482   2.027   0.549  0.0081  0.1276  0.1245
  548MOL0     O73903   5.604   1.988   0.511 -0.7658  0.3113 -0.2336
  548MOL0     C73904   5.702   2.068   0.572  0.8303 -0.2298  0.3190
  548MOL0     C73905   5.843   2.055   0.509  0.7118 -0.4676  0.2090
  548MOL0     C73906   5.943   2.168   0.536  0.1685  1.2082 -0.2516
  548MOL0     C73907   6.078   2.157   0.469 -0.5370  0.0370 -0.5960
  548MOL0     C73908   6.186   2.208   0.547 -0.2930  0.9464 -0.0647
  548MOL0     C73909   6.278   2.239   0.615  0.4334  0.3014  0.3234
  548MOL0     C73910   5.398   2.100   0.477  0.4683 -0.1299  0.7548
  548MOL0     C73911   5.271   2.144   0.525  0.2463 -0.1019  0.9141
  548MOL0     C73912   5.200   2.254   0.447 -1.0530  0.2676 -0.0255
  548MOL0     H73913   4.848   2.208   0.796  0.7945 -1.6819 -0.4312
  548MOL0     H73914   4.620   2.165   0.887 -1.3160 -1.7443 -0.7714
  548MOL0     H73915   4.533   1.771   0.956  1.4048 -0.4168  0.2616
  548MOL0     H73916   4.564   1.769   1.127  1.3011  3.0062  0.3948
  548MOL0     H73917   4.317   1.829   0.973  1.7850  1.9640 -0.6428
  548MOL0     H73918   4.334   1.911   1.136 -0.9762 -0.9673  2.4401
  548MOL0     H73919   4.347   1.694   1.243 -2.6154  0.1546  0.9213
  548MOL0     H73920   4.345   1.606   1.094 -0.2355  0.4277 -1.1277
  548MOL0     H73921   4.120   1.639   1.230 -0.5885 -0.5163  0.2866
  548MOL0     H73922   4.128   1.808   1.167 -0.1578  0.2643  4.0736
  548MOL0     H73923   4.004   1.694   0.994 -0.2189  0.6681  2.2476
  548MOL0     H73924   4.161   1.679   0.933 -0.5628 -3.1341 -2.1283
  548MOL0     H73925   4.160   1.444   1.066 -0.0839  0.4696  0.6598
  548MOL0     H73926   3.983   1.475   1.056 -0.2327 -1.6729 -0.5219
  548MOL0     H73927   4.175   1.455   0.814  0.9845  0.6635  0.0396
  548MOL0     H73928   4.000   1.497   0.811 -0.9391 -3.0424 -0.5275
  548MOL0     H73929   3.957   1.266   0.892  0.5968 -4.3372  0.6129
  548MOL0     H73930   4.056   1.271   0.742  0.7364  0.3664 -0.0248
  548MOL0     H73931   4.341   1.276   0.842  0.6742 -1.0311  0.6162
  548MOL0     H73932   4.486   1.020   1.112  0.5381 -2.1841 -0.9641
  548MOL0     H73933   4.522   1.004   0.943  1.5491  0.3867  1.1971
  548MOL0     H73934   4.524   1.279   1.086  1.1756 -2.2273  1.8455
  548MOL0     H73935   4.664   1.168   1.053 -0.5900 -1.3929  1.0632
  548MOL0     H73936   4.563   1.381   0.900  0.6059  0.6904  0.6047
  548MOL0     H73937   4.554   1.234   0.805 -0.3861 -0.4705  0.4823
  548MOL0     H73938   4.769   1.185   0.812  1.6824  0.6701 -1.4515
  548MOL0     H73939   4.818   1.258   0.959 -1.6690 -1.9402  0.3516
  548MOL0     H73940   4.851   1.636   0.743 -1.7962 -1.4293  1.3754
  548MOL0     H73941   5.080   1.735   0.734  0.7283  0.3485  2.2251
  548MOL0     H73942   5.557   1.656   0.967 -1.6034 -2.7740 -0.9236
  548MOL0     H73943   5.768   1.791   0.928 -1.5407 -2.7109  2.6065
  548MOL0     H73944   6.033   1.892   0.817  1.6622 -0.4099 -1.3994
  548MOL0     H73945   5.971   1.731   0.872  1.1953  3.2248  2.4405
  548MOL0     H73946   6.067   1.630   0.684 -0.5613  0.8094 -1.5316
  548MOL0     H73947   6.138   1.781   0.631 -2.6187  0.2558 -0.8857
  548MOL0     H73948   6.304   1.778   0.827  0.3259  1.0068  0.9478
  548MOL0     H73949   6.227   1.622   0.885  1.6375 -0.7526 -0.1046
  548MOL0     H73950   6.371   1.674   0.623  1.9899  0.3450  0.4209
  548MOL0     H73951   6.300   1.520   0.656  0.2314  0.1620 -0.6339
  548MOL0     H73952   6.540   1.659   0.798  0.7829 -0.7481 -2.1284
  548MOL0     H73953   6.539   1.525   0.682 -3.1561 -1.9608 -2.3135
  548MOL0     H73954   6.407   1.481   0.950  1.2662  3.4841  0.1748
  548MOL0     H73955   6.456   1.365   0.813 -1.8916  1.3747 -0.9610
  548MOL0     H73956   6.642   1.537   0.980  2.0173  0.7541 -1.8293
  548MOL0     H73957   6.683   1.416   0.856 -0.4655 -0.7796  0.1115
  548MOL0     H73958   6.729   1.306   1.075 -0.0524 -3.8165 -2.7188
  548MOL0     H73959   6.572   1.375   1.136  1.6978  0.9463  0.5581
  548MOL0     H73960   5.754   1.686   0.513 -1.3178 -0.3640  0.4863
  548MOL0     H73961   5.539   1.542   0.560  1.9065 -2.2446 -1.5165
  548MOL0     H73962   5.242   1.356   0.901  1.2545 -2.3027 -3.5672
  548MOL0     H73963   5.021   1.265   0.878 -0.8730 -1.0578 -1.3393
  548MOL0     H73964   4.777   1.802   1.059  1.1561  1.2194  0.5522
  548MOL0     H73965   4.972   1.834   0.947 -0.8528  0.2138  1.7481
  548MOL0     H73966   5.292   2.008   0.829 -1.1626 -2.6122 -1.5663
  548MOL0     H73967   5.510   1.931   0.732  2.1248  1.2907 -2.3246
  548MOL0     H73968   5.705   2.024   0.673 -0.0993 -2.1234 -0.4312
  548MOL0     H73969   5.669   2.172   0.569  0.6337 -0.2753  0.7899
  548MOL0     H73970   5.833   2.057   0.400  1.4867  1.9164  0.1335
  548MOL0     H73971   5.883   1.955   0.530 -3.1760 -1.7851  2.4366
  548MOL0     H73972   5.966   2.174   0.642 -2.0263 -0.6038  0.4006
  548MOL0     H73973   5.895   2.260   0.501  0.7765  2.1032  1.1671
  548MOL0     H73974   6.096   2.050   0.453  0.3815  0.2682 -1.1556
  548MOL0     H73975   6.061   2.201   0.371 -2.5310  1.9896  0.5469
  548MOL0     H73976   6.357   2.262   0.684 -2.2008  0.0524  3.7041
  548MOL0     H73977   5.435   2.115   0.376  0.1077 -1.2468  0.4472
  548MOL0     H73978   5.106   2.217   0.404  0.8597 -2.1484 -2.5007
  548MOL0     H73979   5.198   2.346   0.506  3.9497  2.6987 -3.0117
  548MOL0     H73980   5.268   2.271   0.363  1.6848 -2.2134  1.4734
  549MOL0     O73981   8.981   0.906  10.558  0.3655 -0.7098 -0.1286
  549MOL0     C73982   9.069   0.821  10.556  1.7812 -0.6371  0.5732
  549MOL0     O73983   9.051   0.690  10.600  0.4077  0.7322 -0.3066
  549MOL0     C73984   8.939   0.663  10.676  0.0920  0.0120 -0.8007
  549MOL0     C73985   8.817   0.631  10.615 -0.4864 -0.2691  0.4211
  549MOL0     C73986   8.707   0.593  10.697 -1.5307  1.2539 -0.4084
  549MOL0     C73987   8.711   0.591  10.841  0.4199 -0.4788  0.1511
  549MOL0     O73988   8.615   0.549  10.935 -0.1134  0.1053 -0.3298
  549MOL0     C73989   8.522   0.449  10.899 -0.6099 -0.2210  0.2916
  549MOL0     C73990   8.386   0.518  10.858 -0.4878 -0.4240  0.8446
  549MOL0     C73991   8.267   0.414  10.846  0.6549 -0.1429  0.1507
  549MOL0     C73992   8.123   0.483  10.821  0.4410 -0.3945 -0.4939
  549MOL0     C73993   8.131   0.580  10.701  1.1458  0.6409 -0.0240
  549MOL0     C73994   8.150   0.499  10.570  0.5759 -0.4660  0.1567
  549MOL0     C73995   8.121   0.584  10.445  0.7420  0.2113  0.4928
  549MOL0     C73996   8.149   0.513  10.310  0.4247  0.1349 -1.0029
  549MOL0     N73997   8.159   0.601  10.193  0.6382  0.0409 -0.3096
  549MOL0     C73998   8.237   0.711  10.176 -0.1096 -1.1591  0.0520
  549MOL0     C73999   8.218   0.757  10.050  0.2023 -0.1217 -0.6795
  549MOL0     C74000   8.275   0.879   9.992 -1.3892 -0.8529  0.7693
  549MOL0     C74001   8.430   0.878   9.979  0.6914 -0.5492 -0.2360
  549MOL0     C74002   8.501   0.995  10.048 -0.4513  0.2345 -0.3267
  549MOL0     C74003   8.648   0.998  10.003 -0.7155 -0.1895 -0.4062
  549MOL0     O74004   8.682   1.069   9.884  0.0584  0.5607 -0.2992
  549MOL0     C74005   8.803   1.037   9.824 -0.4282 -0.6365  0.0534
  549MOL0     C74006   8.925   1.079   9.875 -0.1601  0.1320  0.2316
  549MOL0     C74007   9.041   1.045   9.801 -0.3433 -1.2471 -0.2079
  549MOL0     C74008   9.043   0.965   9.684  0.3459  0.2207 -0.1401
  549MOL0     C74009   9.170   0.938   9.610 -0.4874 -0.4843 -0.0762
  549MOL0     O74010   9.169   0.872   9.489  0.1163  0.1020  0.0781
  549MOL0     C74011   9.287   0.868   9.411  0.4062 -0.2257  0.6223
  549MOL0     C74012   9.347   0.743   9.381 -0.0349  0.3257  0.5272
  549MOL0     C74013   9.436   0.724   9.284  0.4323  0.9029 -0.7551
  549MOL0     C74014   9.481   0.834   9.213  0.3273  0.1291  0.5228
  549MOL0     O74015   9.573   0.803   9.110  0.5211  0.5132 -0.1648
  549MOL0     C74016   9.541   0.867   8.983 -0.9890  1.4206  0.6154
  549MOL0     C74017   9.590   0.761   8.872 -0.6772  0.4983  0.7254
  549MOL0     C74018   9.550   0.610   8.892 -0.1010  0.2157 -0.0208
  549MOL0     C74019   9.406   0.588   8.943  0.8632 -0.3211 -0.3734
  549MOL0     C74020   9.339   0.461   8.895 -0.0022  0.2693 -0.1920
  549MOL0     C74021   9.186   0.462   8.926  0.0166  0.5174  0.0508
  549MOL0     C74022   9.145   0.443   9.074 -0.1901  0.4212 -0.4041
  549MOL0     C74023   9.033   0.541   9.109 -0.4332 -0.5131 -0.1258
  549MOL0    Cl74024   9.091   0.712   9.120  0.3850  0.0667 -0.1365
  549MOL0     C74025   9.442   0.967   9.253  0.0779  0.2741 -0.6056
  549MOL0     C74026   9.344   0.982   9.354  1.3041 -0.1177  0.6713
  549MOL0     O74027   9.273   0.972   9.676  0.3246 -0.3359 -0.7931
  549MOL0     C74028   8.912   0.915   9.636 -0.4041 -1.0654  0.1956
  549MOL0     C74029   8.801   0.949   9.714  0.1737 -0.0276  0.5054
  549MOL0     N74030   8.132   0.667   9.987  0.0899  0.3518 -0.2780
  549MOL0     N74031   8.104   0.573  10.073  0.3548 -0.2661 -0.4957
  549MOL0     C74032   8.817   0.647  10.904  0.0325  0.3860  0.6968
  549MOL0     C74033   8.933   0.673  10.820  1.6886  0.3102 -0.3299
  549MOL0     C74034   9.208   0.868  10.543 -0.5383 -0.6818  0.0590
  549MOL0     C74035   9.310   0.772  10.549  0.1048 -0.5149 -0.3510
  549MOL0     C74036   9.434   0.808  10.511 -0.5990  0.6835  0.0719
  549MOL0     C74037   9.472   0.933  10.477 -0.5687 -0.0793  0.4162
  549MOL0     O74038   9.595   0.942  10.427 -0.0751  0.1674 -0.0768
  549MOL0     C74039   9.654   1.061  10.385 -0.2670  0.3386 -0.5487
  549MOL0     C74040   9.755   1.027  10.282 -0.4394 -0.7312 -0.1550
  549MOL0     C74041   9.882   0.953  10.329 -0.4365 -0.1662  0.4827
  549MOL0     C74042   9.970   0.935  10.205 -0.0022  0.2805  0.4650
  549MOL0     C74043  10.107   0.908  10.236 -0.0001 -0.0988  1.0635
  549MOL0     C74044  10.227   0.893  10.254  0.7407 -0.4527 -0.3815
  549MOL0     C74045   9.375   1.030  10.475  0.0432 -0.5699 -0.5032
  549MOL0     C74046   9.246   0.996  10.516 -0.2468  0.4391  0.2834
  549MOL0     C74047   9.146   1.106  10.512 -0.5433  0.1234 -0.0684
  549MOL0     H74048   8.829   0.624  10.507  2.0233  0.8671  0.5865
  549MOL0     H74049   8.618   0.554  10.648 -1.2564  1.3196 -0.9598
  549MOL0     H74050   8.566   0.381  10.825  1.2143 -0.2933  1.3824
  549MOL0     H74051   8.495   0.384  10.983 -1.8438  0.4754  0.4533
  549MOL0     H74052   8.392   0.573  10.763 -0.1595 -0.0427  1.0808
  549MOL0     H74053   8.366   0.599  10.929  0.2415  1.3963 -0.9203
  549MOL0     H74054   8.265   0.353  10.937 -0.4993 -2.4029 -1.2898
  549MOL0     H74055   8.310   0.358  10.763  0.2075 -0.2662 -0.0013
  549MOL0     H74056   8.036   0.421  10.801 -0.6685  1.5441 -2.1234
  549MOL0     H74057   8.097   0.544  10.908 -0.3118 -1.3634 -0.0261
  549MOL0     H74058   8.037   0.636  10.706  1.4919  1.1921  0.4677
  549MOL0     H74059   8.208   0.657  10.706  1.8626 -0.0056 -0.8636
  549MOL0     H74060   8.254   0.465  10.570  1.2025  1.3508  0.7431
  549MOL0     H74061   8.089   0.409  10.579  0.8999 -0.4732  3.1991
  549MOL0     H74062   8.167   0.683  10.436 -0.0259  0.4576 -1.5011
  549MOL0     H74063   8.016   0.615  10.454  0.0283 -2.3854  2.4059
  549MOL0     H74064   8.249   0.471  10.324  1.0526  1.6661 -0.7181
  549MOL0     H74065   8.084   0.428  10.287 -0.3024  0.3607  0.1249
  549MOL0     H74066   8.303   0.763  10.245 -0.2697  0.8434 -1.2305
  549MOL0     H74067   8.239   0.885   9.889 -0.6004  1.4545  0.5716
  549MOL0     H74068   8.249   0.971  10.046  2.2823 -0.1473  1.6516
  549MOL0     H74069   8.475   0.780  10.002 -1.5108 -1.1866  1.7536
  549MOL0     H74070   8.450   0.882   9.871 -1.9428 -2.4138 -0.8813
  549MOL0     H74071   8.501   0.973  10.155 -0.9236  0.4878 -0.2661
  549MOL0     H74072   8.451   1.091  10.031 -1.3009  0.0041  0.7032
  549MOL0     H74073   8.676   0.893  10.010 -1.5546 -0.3056  2.7928
  549MOL0     H74074   8.708   1.044  10.082  0.4712  0.2421 -1.5102
  549MOL0     H74075   8.934   1.147   9.959 -0.2191 -0.4432  0.7096
  549MOL0     H74076   9.134   1.087   9.840 -0.5654 -2.2988  1.5365
  549MOL0     H74077   9.318   0.657   9.440 -1.4906 -0.8966 -1.8528
  549MOL0     H74078   9.474   0.625   9.261  1.8953  1.3824 -0.5004
  549MOL0     H74079   9.434   0.888   8.977 -1.6374 -1.6649  0.0554
  549MOL0     H74080   9.593   0.964   8.974  0.3895  0.6324 -0.3957
  549MOL0     H74081   9.553   0.786   8.772  0.7037 -0.0769  0.0411
  549MOL0     H74082   9.698   0.772   8.859 -0.3695 -0.5664  2.1370
  549MOL0     H74083   9.562   0.549   8.802 -1.0780 -0.0519  0.0205
  549MOL0     H74084   9.619   0.567   8.966  2.3711  3.6068 -0.0937
  549MOL0     H74085   9.357   0.676   8.901  0.1495 -0.1703  0.7248
  549MOL0     H74086   9.398   0.590   9.052  0.2849 -2.0823 -0.3575
  549MOL0     H74087   9.379   0.369   8.938 -1.8276  0.2173  1.5077
  549MOL0     H74088   9.358   0.452   8.787  1.3368 -1.9719  0.1656
  549MOL0     H74089   9.151   0.562   8.900 -2.1156  0.6618  3.0193
  549MOL0     H74090   9.130   0.388   8.868  0.0504  0.2301  0.3785
  549MOL0     H74091   9.226   0.453   9.147  0.5942 -1.1681 -1.0280
  549MOL0     H74092   9.113   0.339   9.079 -1.7818  0.7860 -1.9029
  549MOL0     H74093   8.946   0.540   9.042 -2.1880  0.0116  2.0120
  549MOL0     H74094   8.994   0.515   9.208  1.2618  0.9582  0.9732
  549MOL0     H74095   9.471   1.058   9.201  0.9389  1.5549  1.9028
  549MOL0     H74096   9.297   1.078   9.374  0.5628 -1.2198  5.1305
  549MOL0     H74097   8.910   0.853   9.547 -5.4477 -1.0810  0.0591
  549MOL0     H74098   8.712   0.897   9.679 -0.7958 -1.7758  4.8896
  549MOL0     H74099   8.817   0.636  11.012 -0.6233 -1.6541  0.5369
  549MOL0     H74100   9.009   0.721  10.881  1.0546 -0.7611  1.3845
  549MOL0     H74101   9.297   0.671  10.587  0.7424 -0.7019 -0.6203
  549MOL0     H74102   9.515   0.735  10.510 -1.2507 -0.0989 -2.5272
  549MOL0     H74103   9.702   1.115  10.468  1.5697 -2.4955  0.3727
  549MOL0     H74104   9.585   1.131  10.336  1.3155  1.0284 -1.8986
  549MOL0     H74105   9.791   1.118  10.234 -1.2085  0.7848  1.9649
  549MOL0     H74106   9.711   0.960  10.208 -1.5713 -2.4662  1.9892
  549MOL0     H74107   9.871   0.849  10.362  2.5520 -0.3856  1.0828
  549MOL0     H74108   9.935   1.012  10.404 -1.1927  0.7019  0.3450
  549MOL0     H74109   9.929   0.854  10.144 -0.6942  1.3298 -0.5071
  549MOL0     H74110   9.973   1.031  10.152 -4.1198  0.0897 -0.4820
  549MOL0     H74111  10.327   0.893  10.292  0.1764 -1.5106  1.2487
  549MOL0     H74112   9.406   1.128  10.440 -0.1643  0.0102  0.8818
  549MOL0     H74113   9.191   1.206  10.505  2.5529 -0.8267  3.4808
  549MOL0     H74114   9.084   1.088  10.424  4.1178 -2.1922 -3.3146
  549MOL0     H74115   9.089   1.111  10.604 -1.2603 -1.5654 -0.3859
  550MOL0     O74116   3.430   4.644   1.991 -0.1555 -0.5505 -0.5383
  550MOL0     C74117   3.381   4.673   1.885 -0.3541 -0.2940 -0.4569
  550MOL0     O74118   3.305   4.588   1.811 -0.4679  0.0893  0.2806
  550MOL0     C74119   3.260   4.473   1.875  0.0371 -0.3526  0.2463
  550MOL0     C74120   3.339   4.353   1.882  0.1655  0.7119  0.8921
  550MOL0     C74121   3.308   4.247   1.965 -1.4352  0.4258 -0.5870
  550MOL0     C74122   3.186   4.246   2.038  0.6213  0.1081  0.1483
  550MOL0     O74123   3.145   4.150   2.129  0.5327 -0.0603 -0.3904
  550MOL0     C74124   3.217   4.027   2.131 -0.2514 -0.2743 -0.1018
  550MOL0     C74125   3.173   3.946   2.261  0.1125 -0.1136 -0.0648
  550MOL0     C74126   3.250   3.814   2.256 -0.2474 -0.3729  0.2185
  550MOL0     C74127   3.204   3.710   2.154 -0.1037  0.1613  0.2273
  550MOL0     C74128   3.272   3.565   2.182  0.6334  0.1102 -1.0533
  550MOL0     C74129   3.208   3.468   2.077  0.3102 -0.4538 -0.1882
  550MOL0     C74130   3.304   3.344   2.085 -0.5933  0.5348 -0.3854
  550MOL0     C74131   3.288   3.262   1.954  0.0191  0.1015 -0.2252
  550MOL0     N74132   3.151   3.257   1.906 -0.6204 -0.4498 -0.7466
  550MOL0     C74133   3.060   3.173   1.953  0.6375 -0.0167  1.0157
  550MOL0     C74134   2.948   3.200   1.881  0.3256  0.1317 -0.5627
  550MOL0     C74135   2.832   3.113   1.871 -0.2957 -0.2323  0.2496
  550MOL0     C74136   2.723   3.158   1.963  0.4825  0.2872 -0.4581
  550MOL0     C74137   2.601   3.063   1.973 -0.1537  0.2560 -0.1204
  550MOL0     C74138   2.523   3.045   1.840  0.3208  0.3290  0.4637
  550MOL0     O74139   2.419   2.948   1.854  0.8559  0.8326  0.7901
  550MOL0     C74140   2.303   2.993   1.899  0.5730  0.0283 -0.9892
  550MOL0     C74141   2.193   2.909   1.890  0.0250 -0.0221 -0.5807
  550MOL0     C74142   2.065   2.952   1.933 -0.7822  0.9234 -0.9621
  550MOL0     C74143   2.043   3.076   1.993  0.3284  0.3340 -0.4396
  550MOL0     C74144   1.902   3.111   2.029  0.4651  0.0360 -0.4141
  550MOL0     O74145   1.817   3.024   1.980 -0.1707  0.2195  0.0632
  550MOL0     C74146   1.673   3.036   1.982  0.4929  0.6833  0.6521
  550MOL0     C74147   1.602   2.915   1.955  0.0830 -0.2438  0.3156
  550MOL0     C74148   1.459   2.915   1.960  0.8313 -0.8237  0.5883
  550MOL0     C74149   1.392   3.034   2.003 -0.2380 -0.0082 -0.2862
  550MOL0     O74150   1.256   3.018   2.023  0.5231  0.6830 -0.3827
  550MOL0     C74151   1.168   3.115   2.077  0.2237  0.7557  0.8019
  550MOL0     C74152   1.148   3.112   2.232 -1.0405 -0.1812 -0.0309
  550MOL0     C74153   1.079   2.984   2.293 -0.3504  0.7457 -0.2352
  550MOL0     C74154   1.138   2.952   2.432  1.2698 -0.0026 -0.3801
  550MOL0     C74155   1.069   2.827   2.488 -0.7892  0.9139  0.2561
  550MOL0     C74156   0.915   2.812   2.507 -0.0297  0.0803  0.2066
  550MOL0     C74157   0.853   2.936   2.575 -0.2839 -0.1607 -0.3046
  550MOL0     C74158   0.703   2.923   2.609  0.1895 -0.1881 -0.0825
  550MOL0    Cl74159   0.605   2.900   2.464  0.2282 -0.3019  0.1472
  550MOL0     C74160   1.454   3.148   2.023  0.5193 -0.5349 -0.5063
  550MOL0     C74161   1.591   3.152   2.007  0.1093 -0.1671 -0.0236
  550MOL0     O74162   1.874   3.212   2.086 -0.6494 -0.5473  0.3833
  550MOL0     C74163   2.152   3.152   2.008  0.1339  0.0235 -0.6022
  550MOL0     C74164   2.285   3.117   1.970  0.3914  0.1907  0.0699
  550MOL0     N74165   2.971   3.304   1.802  0.8196 -0.1203 -0.0267
  550MOL0     N74166   3.097   3.333   1.810 -0.2741  0.1206  0.7045
  550MOL0     C74167   3.105   4.356   2.021 -0.0194 -0.3748 -0.1518
  550MOL0     C74168   3.133   4.466   1.937 -0.3444 -0.5544  0.0853
  550MOL0     C74169   3.409   4.808   1.817  0.3241  0.4541 -0.0702
  550MOL0     C74170   3.392   4.806   1.675 -0.0738 -0.7062  0.0598
  550MOL0     C74171   3.429   4.915   1.602 -0.1897  0.8347 -0.1353
  550MOL0     C74172   3.458   5.040   1.668 -0.8747  0.8179 -0.0177
  550MOL0     O74173   3.492   5.148   1.584  0.3716  0.1089  0.0578
  550MOL0     C74174   3.494   5.283   1.634  0.8561 -0.5234 -0.7245
  550MOL0     C74175   3.346   5.334   1.666  0.4954  0.2888  0.0235
  550MOL0     C74176   3.349   5.484   1.705  0.9398 -0.0838  0.2118
  550MOL0     C74177   3.208   5.545   1.704 -0.0683 -0.5931 -0.2505
  550MOL0     C74178   3.132   5.531   1.577  0.8459 -1.0332  0.0232
  550MOL0     C74179   3.060   5.529   1.476 -0.3294 -0.7569 -0.2192
  550MOL0     C74180   3.457   5.039   1.805 -0.0147  0.6259 -0.6864
  550MOL0     C74181   3.420   4.928   1.883  0.2005 -0.4664  0.4530
  550MOL0     C74182   3.374   4.937   2.023 -0.5966 -0.0911  0.5190
  550MOL0     H74183   3.434   4.365   1.830  0.3864 -2.8238  0.2637
  550MOL0     H74184   3.391   4.180   1.987 -2.4266 -1.4721 -2.3015
  550MOL0     H74185   3.200   3.972   2.038  0.8490 -1.1143  0.1700
  550MOL0     H74186   3.322   4.055   2.135 -0.5653  1.0632  4.3000
  550MOL0     H74187   3.066   3.926   2.261  0.0489  0.1967  0.6342
  550MOL0     H74188   3.201   4.007   2.348  0.3754  0.4603 -0.5380
  550MOL0     H74189   3.224   3.780   2.357 -2.4766 -1.0988 -0.5589
  550MOL0     H74190   3.357   3.827   2.236 -0.5812 -1.2084 -2.4831
  550MOL0     H74191   3.095   3.704   2.156 -0.0654 -0.5801  2.1062
  550MOL0     H74192   3.217   3.755   2.055 -2.9526  0.5146 -0.0922
  550MOL0     H74193   3.380   3.579   2.181  0.5036  1.3683 -0.5209
  550MOL0     H74194   3.246   3.534   2.283 -0.1119 -0.2560 -1.3493
  550MOL0     H74195   3.105   3.442   2.105  0.1929  0.6874  0.5230
  550MOL0     H74196   3.214   3.510   1.977  1.3691 -1.4280 -0.5407
  550MOL0     H74197   3.280   3.274   2.167  1.1758 -0.9162 -1.0391
  550MOL0     H74198   3.405   3.380   2.103 -1.0482  1.3115  0.7620
  550MOL0     H74199   3.357   3.315   1.888  1.0405 -0.2116  0.5456
  550MOL0     H74200   3.333   3.162   1.961  0.0670  0.2229  2.4039
  550MOL0     H74201   3.094   3.085   2.007  1.4981 -2.1908 -2.7603
  550MOL0     H74202   2.787   3.108   1.771  0.6281 -1.8575 -0.1128
  550MOL0     H74203   2.873   3.016   1.897 -1.8225 -0.3245  2.5730
  550MOL0     H74204   2.773   3.158   2.060 -2.1431 -2.9957  1.0874
  550MOL0     H74205   2.685   3.257   1.935 -0.5332 -0.0533 -0.3325
  550MOL0     H74206   2.537   3.106   2.051  2.1674  3.6042  0.1281
  550MOL0     H74207   2.641   2.965   2.001 -0.5730 -0.4312 -1.8328
  550MOL0     H74208   2.588   3.017   1.757  0.3572  1.3363  0.1423
  550MOL0     H74209   2.489   3.145   1.813  1.9552  1.1765  1.3968
  550MOL0     H74210   2.195   2.812   1.840 -2.3912 -0.3583 -0.1498
  550MOL0     H74211   1.977   2.892   1.917 -0.4525  0.5479 -1.3884
  550MOL0     H74212   1.662   2.830   1.924  1.4927  0.1910  1.7049
  550MOL0     H74213   1.392   2.836   1.930  0.4410  0.1710 -1.3530
  550MOL0     H74214   1.197   3.212   2.035 -0.5828  1.0718  0.9709
  550MOL0     H74215   1.072   3.092   2.030  2.0844  0.1443 -3.1302
  550MOL0     H74216   1.245   3.132   2.279 -2.6263  2.4535  2.5368
  550MOL0     H74217   1.081   3.195   2.255 -0.8666  0.9866 -3.2882
  550MOL0     H74218   0.970   2.992   2.298 -0.7948 -1.5189 -3.3707
  550MOL0     H74219   1.110   2.899   2.232 -0.9861 -2.5369  3.5417
  550MOL0     H74220   1.129   3.039   2.498  2.6960 -0.5011  0.5247
  550MOL0     H74221   1.245   2.935   2.418  1.8052 -1.1730  3.7895
  550MOL0     H74222   1.115   2.812   2.586 -2.5809 -2.0298  0.7970
  550MOL0     H74223   1.099   2.746   2.421  0.4359  1.7348 -0.2208
  550MOL0     H74224   0.868   2.794   2.409  1.5332 -1.2004 -0.3435
  550MOL0     H74225   0.902   2.720   2.564  1.9102 -2.0911 -2.5656
  550MOL0     H74226   0.863   3.027   2.516 -3.7516  0.6803  0.1489
  550MOL0     H74227   0.902   2.955   2.671  0.1121  1.1694 -0.7509
  550MOL0     H74228   0.683   2.845   2.684  1.1966  3.6364  4.7308
  550MOL0     H74229   0.669   3.011   2.664 -2.0742  0.4399 -2.2859
  550MOL0     H74230   1.395   3.235   2.048  1.2494 -0.0962 -0.2903
  550MOL0     H74231   1.652   3.242   2.009 -1.3090  0.8114  0.9790
  550MOL0     H74232   2.138   3.241   2.069 -2.5046 -0.3846 -0.5079
  550MOL0     H74233   2.365   3.186   1.995 -0.1512  0.0624  2.3850
  550MOL0     H74234   3.017   4.364   2.084 -2.1406 -1.7652 -2.7579
  550MOL0     H74235   3.072   4.555   1.934 -0.1557 -0.2810  2.4161
  550MOL0     H74236   3.368   4.714   1.624  0.1142 -0.8585  0.2446
  550MOL0     H74237   3.439   4.913   1.494 -2.9265 -2.2963 -0.4885
  550MOL0     H74238   3.517   5.347   1.549  1.7449 -1.7127 -1.4067
  550MOL0     H74239   3.550   5.298   1.727 -2.0472  0.9785  0.9315
  550MOL0     H74240   3.297   5.283   1.749  1.1701  0.5630  0.6032
  550MOL0     H74241   3.287   5.310   1.577  1.3124  1.0812 -0.7592
  550MOL0     H74242   3.427   5.531   1.645  3.6489 -2.3722  1.6721
  550MOL0     H74243   3.389   5.467   1.806  0.5322 -1.5730  0.1523
  550MOL0     H74244   3.145   5.518   1.789 -3.1538  3.0535 -1.1266
  550MOL0     H74245   3.225   5.651   1.723  1.5209 -1.0039  0.7754
  550MOL0     H74246   3.002   5.533   1.385 -2.7485  1.5583  1.2933
  550MOL0     H74247   3.476   5.132   1.858 -2.0216  0.3553  0.6014
  550MOL0     H74248   3.267   4.951   2.038 -0.8309 -1.9449  0.7474
  550MOL0     H74249   3.411   4.860   2.090 -1.0045  0.3851  1.3040
  550MOL0     H74250   3.425   5.019   2.074 -2.2616 -0.3670  2.7404
  551MOL0     O74251   7.732   2.490   9.150  0.4025  0.1533 -0.1916
  551MOL0     C74252   7.650   2.527   9.065 -0.0223 -0.2278 -0.0111
  551MOL0     O74253   7.692   2.560   8.936  0.0313  0.3012  0.4208
  551MOL0     C74254   7.823   2.586   8.908  0.5310 -0.7754 -0.3349
  551MOL0     C74255   7.862   2.548   8.782  0.1309  0.6124  1.3212
  551MOL0     C74256   7.994   2.558   8.733  1.2058 -0.0754 -0.3562
  551MOL0     C74257   8.092   2.612   8.826 -0.0682  0.2890 -0.1920
  551MOL0     O74258   8.225   2.612   8.798  0.3682 -0.1459 -0.2148
  551MOL0     C74259   8.294   2.486   8.802 -0.1922  0.3352  0.2951
  551MOL0     C74260   8.407   2.493   8.907 -0.0458  0.2583  0.3887
  551MOL0     C74261   8.467   2.352   8.923 -0.4483  0.5177 -0.0840
  551MOL0     C74262   8.581   2.348   9.025  0.9125  0.4479  0.2640
  551MOL0     C74263   8.656   2.220   9.008 -0.0449 -0.0844 -0.4139
  551MOL0     C74264   8.799   2.242   9.064  0.0193  0.6884  0.6028
  551MOL0     C74265   8.882   2.116   9.041  0.3895  0.1351 -0.7272
  551MOL0     C74266   9.015   2.129   9.121 -0.4315  0.6070 -0.6192
  551MOL0     N74267   9.115   2.187   9.035  0.4337  0.2370  1.0731
  551MOL0     C74268   9.216   2.110   8.967 -0.2921 -1.1810 -0.2737
  551MOL0     C74269   9.313   2.200   8.934  0.4421  0.3763  0.1135
  551MOL0     C74270   9.436   2.188   8.846  0.7292 -0.2241  0.5306
  551MOL0     C74271   9.374   2.201   8.707 -0.3157 -0.1232 -0.2500
  551MOL0     C74272   9.478   2.238   8.598  0.0261  0.5048 -0.0863
  551MOL0     C74273   9.563   2.103   8.585  0.6891  0.1478 -0.0778
  551MOL0     O74274   9.694   2.121   8.529  0.3913  0.4661  0.2002
  551MOL0     C74275   9.792   2.029   8.535  0.3675  0.2368  0.4581
  551MOL0     C74276   9.922   2.066   8.521 -0.2413 -0.0202  0.0753
  551MOL0     C74277  10.021   1.967   8.514  0.4761 -0.1628 -0.1019
  551MOL0     C74278   9.993   1.835   8.533  0.7579  0.6133  0.0696
  551MOL0     C74279  10.110   1.737   8.552  0.2521 -0.4249 -1.1441
  551MOL0     O74280  10.090   1.598   8.574 -0.7410  0.0737 -0.1999
  551MOL0     C74281  10.198   1.509   8.573  0.0515  0.6561  0.0244
  551MOL0     C74282  10.182   1.393   8.652 -0.1116 -1.0230  1.1004
  551MOL0     C74283  10.281   1.301   8.654  0.2165  0.2861  0.2271
  551MOL0     C74284  10.401   1.317   8.584 -0.3142  0.1496 -0.7572
  551MOL0     O74285  10.501   1.227   8.592 -0.8550 -0.0325  0.0615
  551MOL0     C74286  10.487   1.092   8.633 -0.4691  0.6742 -0.4016
  551MOL0     C74287  10.509   1.069   8.785 -0.2413  0.1420 -0.5034
  551MOL0     C74288  10.655   1.113   8.818  0.3357  0.1376  0.1657
  551MOL0     C74289  10.670   1.158   8.964  0.4055 -0.1861  0.0518
  551MOL0     C74290  10.794   1.233   8.982  0.2967  0.2588  0.9359
  551MOL0     C74291  10.907   1.127   8.994 -0.8941 -0.2636 -1.1419
  551MOL0     C74292  11.028   1.200   9.072  0.1680  0.5709 -0.6429
  551MOL0     C74293  11.159   1.133   9.032  0.1820  0.8307  0.2240
  551MOL0    Cl74294  11.147   0.965   9.090 -0.0775  0.7090 -0.3631
  551MOL0     C74295  10.422   1.437   8.510 -0.0800  0.2749 -0.2724
  551MOL0     C74296  10.315   1.526   8.508  1.0934  0.1026 -0.2448
  551MOL0     O74297  10.219   1.794   8.557 -0.7273 -0.1842 -0.0579
  551MOL0     C74298   9.859   1.794   8.550 -0.2946  0.2496 -0.3195
  551MOL0     C74299   9.760   1.890   8.553  0.2493 -0.5481  0.2608
  551MOL0     N74300   9.272   2.321   8.982  0.1553 -0.3850 -0.1421
  551MOL0     N74301   9.154   2.309   9.041  0.1108  0.4313 -0.0622
  551MOL0     C74302   8.055   2.664   8.950 -0.4607  0.3942  0.3878
  551MOL0     C74303   7.920   2.654   8.992  0.0317  0.0592 -0.0963
  551MOL0     C74304   7.511   2.546   9.099  0.2212 -0.3931 -0.2491
  551MOL0     C74305   7.471   2.465   9.213 -0.5106  0.6841  1.0821
  551MOL0     C74306   7.343   2.457   9.250  0.7844  0.3008  0.2820
  551MOL0     C74307   7.246   2.517   9.168 -0.7342  0.2429 -0.3239
  551MOL0     O74308   7.112   2.484   9.202  0.0985  0.4460 -0.4474
  551MOL0     C74309   7.022   2.587   9.169  0.2249 -0.4183 -0.1374
  551MOL0     C74310   6.898   2.577   9.258  0.4428  0.5821 -0.9917
  551MOL0     C74311   6.903   2.615   9.409  0.5237 -0.5071  0.5339
  551MOL0     C74312   6.956   2.756   9.433  0.6535  0.7474  0.5659
  551MOL0     C74313   7.102   2.740   9.447  0.7940  0.2898 -0.3820
  551MOL0     C74314   7.217   2.702   9.475 -0.4904  0.3986  0.3408
  551MOL0     C74315   7.282   2.584   9.051 -1.7517 -0.4796  0.4653
  551MOL0     C74316   7.411   2.611   9.023 -0.2705  0.3141  0.4160
  551MOL0     C74317   7.441   2.692   8.897  0.4088 -0.3886 -0.7250
  551MOL0     H74318   7.785   2.493   8.729  1.0331 -2.3596  2.9051
  551MOL0     H74319   8.025   2.521   8.636  0.4579  0.8584 -0.9776
  551MOL0     H74320   8.227   2.409   8.842  2.3622 -2.7335 -0.8678
  551MOL0     H74321   8.335   2.473   8.701 -2.4388  2.6937 -1.0268
  551MOL0     H74322   8.365   2.522   9.004 -0.9020  0.7362 -0.1069
  551MOL0     H74323   8.487   2.559   8.872  2.7940 -2.8351  0.5323
  551MOL0     H74324   8.507   2.314   8.829  1.3080 -1.2895  1.3083
  551MOL0     H74325   8.387   2.289   8.963 -0.8125  0.3497 -1.0565
  551MOL0     H74326   8.644   2.433   9.000  1.4620 -0.6126 -2.2989
  551MOL0     H74327   8.543   2.354   9.127  1.2118 -1.3673  0.5222
  551MOL0     H74328   8.615   2.141   9.071 -0.9613 -0.1888 -1.1101
  551MOL0     H74329   8.670   2.179   8.907  0.9365 -0.9556  0.0597
  551MOL0     H74330   8.840   2.322   9.002  0.8023  0.5836  0.9761
  551MOL0     H74331   8.805   2.276   9.167 -2.0509 -2.0492  1.7573
  551MOL0     H74332   8.899   2.107   8.934  0.9769 -1.8880 -0.5041
  551MOL0     H74333   8.822   2.036   9.086 -0.0769  0.8218 -0.1162
  551MOL0     H74334   9.001   2.188   9.212 -3.5071 -1.3395  0.3223
  551MOL0     H74335   9.053   2.034   9.160 -0.6529  0.0114 -1.8061
  551MOL0     H74336   9.213   2.006   8.939 -0.1767 -0.7157 -2.1369
  551MOL0     H74337   9.513   2.263   8.865 -0.7265  1.6845 -0.6707
  551MOL0     H74338   9.484   2.092   8.864  2.4449  0.6265  0.6477
  551MOL0     H74339   9.318   2.112   8.678  2.9244 -1.1455 -4.4129
  551MOL0     H74340   9.303   2.284   8.709 -1.3339 -0.9807  1.1686
  551MOL0     H74341   9.534   2.321   8.640 -0.9215  0.9158  0.4023
  551MOL0     H74342   9.430   2.273   8.506 -0.1305  1.9041  0.5115
  551MOL0     H74343   9.500   2.042   8.519 -0.1376 -0.1607  0.9881
  551MOL0     H74344   9.584   2.052   8.679 -2.5148  0.2755  0.8202
  551MOL0     H74345   9.957   2.169   8.521  3.8434 -1.1955 -2.5609
  551MOL0     H74346  10.126   1.996   8.507  0.4263  1.5132  3.6367
  551MOL0     H74347  10.089   1.368   8.702  0.1480 -3.0452  0.6649
  551MOL0     H74348  10.258   1.204   8.696 -0.7407  0.9057  1.2016
  551MOL0     H74349  10.391   1.046   8.607 -0.9472  0.1831  2.0032
  551MOL0     H74350  10.569   1.046   8.578 -0.1794  0.4742  0.1869
  551MOL0     H74351  10.436   1.128   8.841 -0.1583 -0.5021  0.3123
  551MOL0     H74352  10.501   0.963   8.812 -1.2299  0.7312  1.8179
  551MOL0     H74353  10.723   1.031   8.797  1.2997 -0.3542  4.3710
  551MOL0     H74354  10.688   1.195   8.753  3.3125  2.0075  3.6698
  551MOL0     H74355  10.652   1.082   9.041 -3.9215  1.1621  0.6501
  551MOL0     H74356  10.593   1.230   8.993  1.6009  0.9724  0.4618
  551MOL0     H74357  10.787   1.294   9.073 -1.0556  0.8569  0.4395
  551MOL0     H74358  10.809   1.304   8.901 -0.7314 -2.3389 -1.7261
  551MOL0     H74359  10.872   1.043   9.055  1.1358 -0.0966  0.3618
  551MOL0     H74360  10.938   1.088   8.896  2.3278 -0.2625 -0.2600
  551MOL0     H74361  11.019   1.190   9.180  4.0418  4.0760  0.2852
  551MOL0     H74362  11.038   1.305   9.044  3.2683  0.0480 -1.9392
  551MOL0     H74363  11.173   1.125   8.924 -0.7368  1.1540  0.0739
  551MOL0     H74364  11.246   1.180   9.080 -0.3179  0.3945  1.6153
  551MOL0     H74365  10.510   1.459   8.451 -0.7052 -2.1038 -2.2564
  551MOL0     H74366  10.329   1.612   8.442 -0.4541 -1.1409 -2.3099
  551MOL0     H74367   9.827   1.691   8.568  0.0556  0.2976  0.6079
  551MOL0     H74368   9.654   1.866   8.553  0.2576 -0.5850  0.1494
  551MOL0     H74369   8.142   2.702   9.003  1.9846 -1.8609 -1.6798
  551MOL0     H74370   7.901   2.698   9.089 -1.7028 -1.4567  0.3056
  551MOL0     H74371   7.545   2.411   9.270  3.1041 -1.5369 -4.8285
  551MOL0     H74372   7.316   2.396   9.336 -0.6518  1.7094  0.8853
  551MOL0     H74373   6.988   2.585   9.065  5.0620  3.3147 -2.1898
  551MOL0     H74374   7.063   2.688   9.175 -0.9912  0.0318  1.1182
  551MOL0     H74375   6.877   2.470   9.246  0.5238  0.5745 -1.0734
  551MOL0     H74376   6.809   2.623   9.214  0.0543  0.4550 -0.3502
  551MOL0     H74377   6.966   2.539   9.455 -0.8763 -1.8612  0.2976
  551MOL0     H74378   6.805   2.605   9.457 -0.7573  0.0807 -1.7880
  551MOL0     H74379   6.924   2.822   9.351 -0.7540  1.8086  1.9270
  551MOL0     H74380   6.921   2.801   9.526  2.7047  0.6028  1.4659
  551MOL0     H74381   7.319   2.671   9.476 -0.8580 -1.0095  2.5970
  551MOL0     H74382   7.211   2.618   8.977  0.4276  2.4146 -0.4930
  551MOL0     H74383   7.349   2.749   8.885 -1.9275 -2.9072  3.1751
  551MOL0     H74384   7.530   2.754   8.911 -0.4167  0.6233  0.1968
  551MOL0     H74385   7.445   2.612   8.822 -1.1538 -0.1542 -1.0903
  552MOL0     O74386   4.822   7.498  10.673  0.3616  0.6309 -0.0203
  552MOL0     C74387   4.728   7.430  10.706 -0.4280  0.5033  1.0759
  552MOL0     O74388   4.659   7.451  10.818  0.5640  0.1172 -0.1454
  552MOL0     C74389   4.717   7.532  10.913  0.3302  0.1965 -0.4734
  552MOL0     C74390   4.642   7.619  10.985 -0.5586 -0.6226 -0.6908
  552MOL0     C74391   4.693   7.697  11.084 -0.2719  0.0040 -0.5684
  552MOL0     C74392   4.832   7.701  11.115 -0.9848  0.6625 -0.4125
  552MOL0     O74393   4.886   7.787  11.205  0.3039  0.5696  0.3446
  552MOL0     C74394   4.867   7.925  11.166 -0.3666  0.0522  0.2056
  552MOL0     C74395   4.962   8.003  11.251  0.4931  0.0110 -0.5853
  552MOL0     C74396   5.107   7.995  11.221  0.1505 -0.2201 -0.2454
  552MOL0     C74397   5.192   8.052  11.343 -0.2740 -0.3929  0.5317
  552MOL0     C74398   5.338   8.037  11.301  0.1015 -0.6890 -0.2057
  552MOL0     C74399   5.429   8.093  11.415  0.4321  0.4183 -0.9597
  552MOL0     C74400   5.580   8.079  11.392  0.1189  0.8388  0.8235
  552MOL0     C74401   5.655   8.122  11.517  0.0642 -0.5073 -0.6883
  552MOL0     N74402   5.796   8.094  11.527 -0.1080  0.0846  0.0122
  552MOL0     C74403   5.847   7.972  11.547 -0.0305  1.2750 -0.5919
  552MOL0     C74404   5.983   7.985  11.530  0.6735 -0.2724  0.7440
  552MOL0     C74405   6.089   7.879  11.536  0.1705  0.4646 -0.8137
  552MOL0     C74406   6.073   7.769  11.648 -0.2269  0.8633 -0.2831
  552MOL0     C74407   6.111   7.806  11.792 -0.5961 -0.4226  0.7940
  552MOL0     C74408   6.253   7.864  11.800 -0.0902 -0.9745  0.1775
  552MOL0     O74409   6.290   7.874  11.939  0.2589 -0.4076  0.0571
  552MOL0     C74410   6.412   7.929  11.974 -0.0732 -0.5644 -0.1131
  552MOL0     C74411   6.448   7.934  12.113  0.1020 -0.4430  0.6048
  552MOL0     C74412   6.563   7.998  12.163  0.3096  0.6918  0.7062
  552MOL0     C74413   6.654   8.046  12.072  0.8405 -1.2789  0.5500
  552MOL0     C74414   6.757   8.140  12.114 -0.4884 -0.6170 -0.4181
  552MOL0     O74415   6.808   8.216  12.017  0.0649 -0.3762 -0.3805
  552MOL0     C74416   6.924   8.288  12.045  0.2408  0.4773 -0.0995
  552MOL0     C74417   7.044   8.217  12.083  0.2604  0.4415  0.0230
  552MOL0     C74418   7.159   8.286  12.122 -0.0444 -0.1759  0.0466
  552MOL0     C74419   7.153   8.429  12.137  0.3801 -0.6299 -0.2288
  552MOL0     O74420   7.256   8.511  12.163  0.5459  0.3298 -0.4998
  552MOL0     C74421   7.392   8.470  12.151 -1.1712 -0.0757 -0.1526
  552MOL0     C74422   7.436   8.427  12.291  0.5564  0.2383 -0.1713
  552MOL0     C74423   7.464   8.545  12.393  0.3262  0.2765  0.0565
  552MOL0     C74424   7.336   8.593  12.473 -0.0450 -0.2394  0.0631
  552MOL0     C74425   7.377   8.702  12.572 -0.5092 -0.1229 -0.0392
  552MOL0     C74426   7.455   8.656  12.694 -0.7524 -0.2199  0.0785
  552MOL0     C74427   7.424   8.753  12.812 -0.0569 -0.3924 -0.5226
  552MOL0     C74428   7.463   8.685  12.947 -0.0889 -0.4159 -0.3508
  552MOL0    Cl74429   7.637   8.624  12.971  0.5672 -0.2503  0.1483
  552MOL0     C74430   7.036   8.494  12.099 -0.2900  0.3088 -0.8310
  552MOL0     C74431   6.922   8.422  12.060  0.2026 -0.2148 -0.1468
  552MOL0     O74432   6.784   8.148  12.235  1.1081 -0.1475 -0.2877
  552MOL0     C74433   6.636   8.037  11.933  0.0074 -0.3155  0.4277
  552MOL0     C74434   6.518   7.971  11.885  1.3603 -0.1424 -0.0061
  552MOL0     N74435   6.009   8.116  11.496 -0.2166 -0.4829  0.7412
  552MOL0     N74436   5.894   8.176  11.487 -0.4365 -0.2921 -0.4422
  552MOL0     C74437   4.914   7.604  11.048  0.0868 -0.0767 -1.2238
  552MOL0     C74438   4.853   7.516  10.951 -0.8622  0.1625  0.6789
  552MOL0     C74439   4.695   7.325  10.604  1.1395 -0.0681 -0.7799
  552MOL0     C74440   4.558   7.304  10.580 -0.1783  0.3851  0.0173
  552MOL0     C74441   4.522   7.230  10.469 -0.0606 -0.5657  0.0973
  552MOL0     C74442   4.611   7.175  10.371  0.6807  0.4779 -1.0292
  552MOL0     O74443   4.576   7.094  10.265 -0.1919  0.0256  0.0822
  552MOL0     C74444   4.508   6.966  10.288 -0.1017  0.2818  0.3473
  552MOL0     C74445   4.540   6.867  10.184 -0.3590 -0.1954  0.0614
  552MOL0     C74446   4.526   6.915  10.042  0.3906  0.5838 -0.4983
  552MOL0     C74447   4.578   6.809   9.943  0.2537  0.0498 -0.5742
  552MOL0     C74448   4.718   6.778   9.970 -0.2549 -0.1518 -0.7942
  552MOL0     C74449   4.842   6.749   9.976  0.8221  0.5929 -0.0828
  552MOL0     C74450   4.742   7.187  10.401 -1.0227  0.3116 -0.9344
  552MOL0     C74451   4.788   7.261  10.516  0.1860 -0.0573  0.1131
  552MOL0     C74452   4.937   7.243  10.553  0.2665 -0.1226 -0.6945
  552MOL0     H74453   4.538   7.632  10.957 -0.5924  4.0463  0.7653
  552MOL0     H74454   4.635   7.777  11.130  0.5773  0.6000 -0.5056
  552MOL0     H74455   4.889   7.938  11.060 -0.4229 -3.8582 -0.4572
  552MOL0     H74456   4.762   7.947  11.189  0.2930  3.5040  0.3853
  552MOL0     H74457   4.949   7.973  11.356  3.0699  0.1833 -0.1506
  552MOL0     H74458   4.925   8.105  11.238 -2.3435 -1.1306 -2.4622
  552MOL0     H74459   5.124   8.064  11.138 -0.7859  0.5329  0.1662
  552MOL0     H74460   5.134   7.893  11.194  1.4320 -0.0695  0.3601
  552MOL0     H74461   5.165   8.154  11.373 -0.5917  0.1968 -1.5527
  552MOL0     H74462   5.173   7.998  11.436 -3.7017  1.1439  0.8900
  552MOL0     H74463   5.366   7.934  11.279 -2.4291 -1.3340 -0.7189
  552MOL0     H74464   5.358   8.099  11.213 -2.1111  1.2382  0.5390
  552MOL0     H74465   5.396   8.195  11.435  0.4865  0.5426 -1.4679
  552MOL0     H74466   5.399   8.029  11.498  0.0882  2.2854  0.4199
  552MOL0     H74467   5.614   8.130  11.301 -3.6242  0.7035 -0.8469
  552MOL0     H74468   5.596   7.971  11.389 -1.5038  0.5546  1.3691
  552MOL0     H74469   5.647   8.231  11.513  1.3069 -0.4510 -2.3434
  552MOL0     H74470   5.600   8.086  11.605  1.6471 -3.6944 -0.8777
  552MOL0     H74471   5.799   7.877  11.571 -0.1880  1.5104  0.0539
  552MOL0     H74472   6.081   7.824  11.442 -0.9763  2.4772 -1.9539
  552MOL0     H74473   6.189   7.923  11.528 -0.2551  1.3623 -1.2487
  552MOL0     H74474   5.973   7.725  11.657  0.4587 -1.0740 -1.4866
  552MOL0     H74475   6.134   7.684  11.616 -0.0712  0.3902  1.1716
  552MOL0     H74476   6.104   7.722  11.862 -2.9983 -0.0526  1.0889
  552MOL0     H74477   6.044   7.886  11.822 -0.7382  0.1512 -0.9557
  552MOL0     H74478   6.275   7.958  11.748 -2.9478  0.3866  1.2505
  552MOL0     H74479   6.326   7.795  11.756  2.4253  2.3830 -1.3876
  552MOL0     H74480   6.365   7.903  12.175 -0.2280  0.3257  0.5520
  552MOL0     H74481   6.576   8.018  12.269  1.8267  2.7938  0.2065
  552MOL0     H74482   7.042   8.109  12.079  0.8243  0.3516  1.6261
  552MOL0     H74483   7.240   8.215  12.136 -0.9090 -1.1688  0.1745
  552MOL0     H74484   7.427   8.384  12.093  0.9252  0.5821  0.0608
  552MOL0     H74485   7.453   8.559  12.134  2.0048 -2.0215  0.1942
  552MOL0     H74486   7.369   8.356  12.341 -0.5502  0.8549 -0.7386
  552MOL0     H74487   7.532   8.373  12.288  0.3448 -0.1169 -1.0658
  552MOL0     H74488   7.533   8.509  12.469 -0.7539 -0.8055  0.5668
  552MOL0     H74489   7.519   8.621  12.336  2.0185 -1.6938 -1.0935
  552MOL0     H74490   7.292   8.513  12.533 -4.3992  2.4427  0.8673
  552MOL0     H74491   7.258   8.631  12.407 -1.2816 -1.8435  0.5339
  552MOL0     H74492   7.282   8.744  12.606  0.4515  1.3157  0.9858
  552MOL0     H74493   7.429   8.777  12.512  2.3082 -3.5015 -2.2456
  552MOL0     H74494   7.417   8.560  12.730  1.7794 -0.7535  1.5174
  552MOL0     H74495   7.558   8.641  12.660 -1.2484  0.0245 -1.6615
  552MOL0     H74496   7.324   8.796  12.823  0.2925  0.5148 -0.7388
  552MOL0     H74497   7.496   8.835  12.800  0.6000 -1.0662 -1.3384
  552MOL0     H74498   7.450   8.758  13.028  1.2913  0.5064 -0.9309
  552MOL0     H74499   7.393   8.602  12.957  0.6731 -0.8801  1.7487
  552MOL0     H74500   7.022   8.599  12.125 -4.0842 -0.7705  2.6092
  552MOL0     H74501   6.827   8.476  12.056  0.1361 -0.3911 -3.1918
  552MOL0     H74502   6.701   8.096  11.868  1.0568 -1.2030  0.6385
  552MOL0     H74503   6.503   7.985  11.778 -2.1739  1.0137  0.5306
  552MOL0     H74504   5.021   7.611  11.065  0.6067 -0.7110 -3.8393
  552MOL0     H74505   4.914   7.440  10.905 -1.8338  0.0265 -0.4508
  552MOL0     H74506   4.473   7.339  10.638 -1.7978 -3.1474  0.0140
  552MOL0     H74507   4.417   7.201  10.463  0.6547 -3.1616 -1.8551
  552MOL0     H74508   4.401   6.988  10.279 -0.4563 -1.7537 -1.1582
  552MOL0     H74509   4.550   6.926  10.381  0.7250 -2.8181 -1.2039
  552MOL0     H74510   4.475   6.779  10.189 -1.6364  0.7636  1.0873
  552MOL0     H74511   4.647   6.846  10.197  0.0477  0.0449 -2.3842
  552MOL0     H74512   4.586   7.005  10.027 -0.7922  1.8509  1.8247
  552MOL0     H74513   4.426   6.950  10.015 -0.0995 -0.3943 -0.0233
  552MOL0     H74514   4.520   6.716   9.944 -3.9205  2.4031  0.2188
  552MOL0     H74515   4.570   6.857   9.846 -1.7271 -0.5754 -0.7547
  552MOL0     H74516   4.941   6.710   9.990  0.8863  0.8540  0.2239
  552MOL0     H74517   4.809   7.143  10.328 -1.6177  0.6872 -1.7168
  552MOL0     H74518   4.940   7.142  10.593  0.3107  0.6099  1.2696
  552MOL0     H74519   4.990   7.256  10.458 -2.4504  1.2630 -2.1548
  552MOL0     H74520   4.983   7.307  10.629  3.1522 -0.1266 -2.2794
  553MOL0     O74521   2.506  11.111   1.225  0.1734  0.0306 -0.9007
  553MOL0     C74522   2.434  11.024   1.181  0.5167 -0.8144 -0.0270
  553MOL0     O74523   2.458  10.893   1.170 -0.3693  0.1572 -0.5542
  553MOL0     C74524   2.581  10.839   1.169 -0.5133 -0.7534 -0.3280
  553MOL0     C74525   2.621  10.773   1.282  0.0397 -0.2593 -0.2300
  553MOL0     C74526   2.746  10.709   1.289  0.2830  0.7887  0.0940
  553MOL0     C74527   2.830  10.702   1.174  0.4420 -1.5925  0.6928
  553MOL0     O74528   2.941  10.628   1.153  0.9535 -0.1329  0.4187
  553MOL0     C74529   2.998  10.563   1.270  0.3068  0.5781 -0.7023
  553MOL0     C74530   3.129  10.487   1.245 -0.5582 -0.4026  0.4134
  553MOL0     C74531   3.235  10.574   1.177  0.2932  0.4904  0.4008
  553MOL0     C74532   3.377  10.513   1.172  0.0334 -0.0674  0.5645
  553MOL0     C74533   3.451  10.587   1.056  0.3188 -0.6595  0.0962
  553MOL0     C74534   3.504  10.724   1.095  0.3542  0.4270 -0.2060
  553MOL0     C74535   3.604  10.718   1.200  0.5427 -0.2563  0.4274
  553MOL0     C74536   3.658  10.855   1.225 -0.4343 -0.1292  0.0845
  553MOL0     N74537   3.761  10.852   1.326  0.7942 -0.3144  0.5788
  553MOL0     C74538   3.887  10.791   1.322 -0.4989  0.2343 -0.1667
  553MOL0     C74539   3.945  10.805   1.443 -1.3466 -0.0711 -0.5380
  553MOL0     C74540   4.081  10.775   1.499 -0.3016 -0.1442  1.4813
  553MOL0     C74541   4.181  10.877   1.441  0.4806 -1.1276 -0.5270
  553MOL0     C74542   4.300  10.806   1.394  0.5543  0.8967 -0.5163
  553MOL0     C74543   4.414  10.899   1.363 -0.2014 -0.3931  0.6703
  553MOL0     O74544   4.459  10.951   1.493  0.4581 -0.4071 -0.2317
  553MOL0     C74545   4.574  11.027   1.490  0.2177  0.4615  0.2376
  553MOL0     C74546   4.650  11.054   1.376 -0.9214 -0.8189  0.3254
  553MOL0     C74547   4.767  11.131   1.382  0.4071 -0.5850  0.8004
  553MOL0     C74548   4.811  11.179   1.500  0.2039 -0.8255 -0.7706
  553MOL0     C74549   4.937  11.257   1.505  0.4999 -0.1899  0.5149
  553MOL0     O74550   4.945  11.355   1.608  0.4631  1.4069 -1.3717
  553MOL0     C74551   5.050  11.439   1.602  0.1504 -0.7228 -0.4174
  553MOL0     C74552   5.148  11.444   1.702  0.5467  0.0306  0.6795
  553MOL0     C74553   5.254  11.541   1.707  0.3380 -0.1232 -0.4247
  553MOL0     C74554   5.264  11.631   1.598  0.0721 -0.7106  1.0456
  553MOL0     O74555   5.369  11.724   1.582  0.4739  0.6948 -0.2679
  553MOL0     C74556   5.474  11.721   1.684  0.1504  0.6257  0.3848
  553MOL0     C74557   5.579  11.808   1.623  0.6293 -0.3196 -0.2473
  553MOL0     C74558   5.708  11.813   1.700 -0.9851 -0.0477  0.5780
  553MOL0     C74559   5.815  11.876   1.609 -0.2909 -0.3618 -0.0124
  553MOL0     C74560   5.955  11.872   1.678 -0.1772 -0.8215  0.0271
  553MOL0     C74561   6.067  11.940   1.593  0.3226 -0.3579 -1.1084
  553MOL0     C74562   6.196  11.927   1.666 -0.2098  0.2994 -0.2591
  553MOL0     C74563   6.312  11.987   1.586  0.6398  0.0762  0.2615
  553MOL0    Cl74564   6.340  12.160   1.593  0.0262 -0.2439 -0.2132
  553MOL0     C74565   5.169  11.631   1.500  0.2583 -0.4331 -1.1615
  553MOL0     C74566   5.056  11.543   1.509 -0.2272  0.1412  0.1233
  553MOL0     O74567   5.013  11.265   1.403  0.5863  0.0411  0.7608
  553MOL0     C74568   4.736  11.165   1.619 -0.5003 -0.8092 -0.5737
  553MOL0     C74569   4.612  11.094   1.613  0.8131 -0.5133  0.3925
  553MOL0     N74570   3.855  10.881   1.512  0.3439 -0.2183 -0.3173
  553MOL0     N74571   3.744  10.899   1.454  0.2810  0.6120  0.1572
  553MOL0     C74572   2.784  10.768   1.058 -1.1467 -0.7469  1.0087
  553MOL0     C74573   2.661  10.835   1.059  0.7454  0.2666  0.9476
  553MOL0     C74574   2.290  11.059   1.145  0.0930  0.2370  0.4141
  553MOL0     C74575   2.185  10.958   1.167  0.6967  0.1795  0.1812
  553MOL0     C74576   2.057  10.988   1.129 -0.0211 -1.0413 -0.2990
  553MOL0     C74577   2.016  11.107   1.071  0.4885  0.5498 -0.4226
  553MOL0     O74578   1.885  11.120   1.025  0.1104  0.1990  0.3555
  553MOL0     C74579   1.841  11.245   0.977  1.1670  0.1187  0.2500
  553MOL0     C74580   1.825  11.237   0.827 -0.2181 -1.0103  0.4664
  553MOL0     C74581   1.788  11.377   0.773 -0.0464 -0.2402  0.4651
  553MOL0     C74582   1.830  11.409   0.630 -0.5535 -0.0137  0.4995
  553MOL0     C74583   1.719  11.379   0.543  0.4886 -0.5744 -0.1897
  553MOL0     C74584   1.618  11.347   0.480 -0.6023 -0.0594  0.0167
  553MOL0     C74585   2.122  11.201   1.045  0.7244  0.3534  0.3246
  553MOL0     C74586   2.258  11.178   1.075  0.1159 -0.1099 -0.2410
  553MOL0     C74587   2.351  11.300   1.046  0.2678  0.8954  0.2957
  553MOL0     H74588   2.564  10.783   1.373  2.8641 -2.1740  1.9204
  553MOL0     H74589   2.785  10.654   1.374  1.4360 -1.4483 -1.7667
  553MOL0     H74590   3.017  10.639   1.347  3.6186  0.6776 -1.4636
  553MOL0     H74591   2.924  10.503   1.324  0.4779  1.8085  0.9994
  553MOL0     H74592   3.103  10.398   1.187  0.2738 -1.5922  1.7883
  553MOL0     H74593   3.172  10.450   1.339 -1.6926  0.0644  1.1530
  553MOL0     H74594   3.237  10.661   1.244  1.4637  1.1575 -0.4812
  553MOL0     H74595   3.199  10.608   1.080  2.3410  2.1994  0.1710
  553MOL0     H74596   3.435  10.526   1.264 -0.5439 -4.9717  1.8996
  553MOL0     H74597   3.360  10.405   1.168  0.0338 -0.1917  2.7669
  553MOL0     H74598   3.532  10.515   1.043  1.6743  0.7857  0.2612
  553MOL0     H74599   3.384  10.591   0.969 -0.0474 -3.5399  0.1516
  553MOL0     H74600   3.537  10.778   1.006  0.2280  2.6628  1.0296
  553MOL0     H74601   3.420  10.781   1.136 -0.9965 -2.2707  1.0200
  553MOL0     H74602   3.688  10.663   1.158  1.0452  0.7922  0.0316
  553MOL0     H74603   3.565  10.673   1.292  0.2901 -1.3216 -0.1858
  553MOL0     H74604   3.699  10.900   1.134  3.1233 -0.6458  1.2383
  553MOL0     H74605   3.582  10.931   1.246  2.6658  3.3865 -0.2077
  553MOL0     H74606   3.943  10.751   1.238  1.7409 -0.4969  1.5581
  553MOL0     H74607   4.090  10.794   1.606 -1.2757  0.4334  1.4782
  553MOL0     H74608   4.117  10.673   1.481 -0.9302 -1.2597  5.6203
  553MOL0     H74609   4.141  10.948   1.368  2.1452  3.6259  2.6714
  553MOL0     H74610   4.214  10.951   1.514  2.2524 -1.5156 -0.8818
  553MOL0     H74611   4.284  10.747   1.304  1.0908  2.3253 -1.5699
  553MOL0     H74612   4.332  10.734   1.471 -5.4234  0.4705  2.1119
  553MOL0     H74613   4.374  10.978   1.299 -1.4595 -2.5342 -1.3397
  553MOL0     H74614   4.496  10.846   1.313 -1.5228 -2.7335  0.8510
  553MOL0     H74615   4.620  11.019   1.278 -0.7308  0.0217 -0.0359
  553MOL0     H74616   4.823  11.140   1.289 -2.0072 -1.4421 -0.8189
  553MOL0     H74617   5.135  11.371   1.781 -1.7290 -0.7495 -0.3386
  553MOL0     H74618   5.311  11.551   1.799  1.5096 -2.2143 -0.8594
  553MOL0     H74619   5.459  11.761   1.784  1.2137 -2.5792  1.9950
  553MOL0     H74620   5.516  11.619   1.690  2.4434  1.4874  0.1529
  553MOL0     H74621   5.606  11.769   1.524  1.0801  3.7825 -1.9570
  553MOL0     H74622   5.537  11.908   1.610 -0.5052 -0.8133 -0.5079
  553MOL0     H74623   5.686  11.874   1.788  0.6579  1.3229  0.0945
  553MOL0     H74624   5.741  11.714   1.730 -0.3229  0.6759  2.3588
  553MOL0     H74625   5.786  11.979   1.587 -0.9025 -0.1425  1.7587
  553MOL0     H74626   5.828  11.816   1.518  1.3590  0.8848 -0.6541
  553MOL0     H74627   5.990  11.770   1.696  2.4926 -0.1557 -0.8589
  553MOL0     H74628   5.948  11.916   1.778 -0.3426 -1.3090  0.2282
  553MOL0     H74629   6.075  11.891   1.495 -0.0695 -1.2953 -0.6799
  553MOL0     H74630   6.049  12.047   1.583  0.3979  0.1338  2.6796
  553MOL0     H74631   6.214  11.822   1.690 -0.9790  0.0948 -0.5504
  553MOL0     H74632   6.191  11.989   1.757 -0.2326 -0.9207  0.5890
  553MOL0     H74633   6.406  11.939   1.614  1.1232  0.2882 -0.9655
  553MOL0     H74634   6.304  11.968   1.479  3.7063 -0.6715  0.0755
  553MOL0     H74635   5.174  11.705   1.421  0.5952  1.3346  0.4508
  553MOL0     H74636   4.976  11.569   1.441 -2.0688  0.8333  2.3892
  553MOL0     H74637   4.766  11.222   1.706  1.7494  0.4120 -2.0506
  553MOL0     H74638   4.556  11.097   1.706 -0.5531 -0.9952 -0.3878
  553MOL0     H74639   2.842  10.772   0.966 -3.4029 -0.2268 -0.4705
  553MOL0     H74640   2.632  10.887   0.968 -1.0605 -0.6429  0.9506
  553MOL0     H74641   2.202  10.855   1.199 -1.7363 -1.8681 -4.2016
  553MOL0     H74642   1.982  10.910   1.124 -1.1076  0.0095 -0.7142
  553MOL0     H74643   1.897  11.327   1.022 -0.4469  0.1589  2.3533
  553MOL0     H74644   1.743  11.268   1.019  1.8293  1.0217  1.3376
  553MOL0     H74645   1.743  11.171   0.798 -2.8931  2.5106 -0.8178
  553MOL0     H74646   1.916  11.216   0.770 -1.4139  1.8710 -2.8496
  553MOL0     H74647   1.827  11.453   0.842  0.4220 -1.0370  1.1034
  553MOL0     H74648   1.682  11.392   0.795 -0.0011  0.0776  0.4661
  553MOL0     H74649   1.848  11.517   0.622 -0.9883 -0.0618 -1.8166
  553MOL0     H74650   1.922  11.363   0.592 -0.4157  0.1327  0.6506
  553MOL0     H74651   1.531  11.326   0.420 -2.0399  3.1049  0.7734
  553MOL0     H74652   2.107  11.292   0.987 -3.3861  0.5124  1.3418
  553MOL0     H74653   2.437  11.273   0.984  1.5988  1.4272  1.8316
  553MOL0     H74654   2.294  11.374   0.989 -5.6218 -0.5711  3.4344
  553MOL0     H74655   2.395  11.337   1.139 -0.0344 -2.8808  2.1633
  554MOL0     O74656   3.059   0.921   0.923 -0.0046  0.7511 -0.6098
  554MOL0     C74657   2.972   0.899   0.831  0.1019 -0.2438 -0.5270
  554MOL0     O74658   2.989   0.821   0.725  0.1245 -0.2573 -0.3764
  554MOL0     C74659   3.120   0.793   0.691  0.4370 -0.5310 -0.3286
  554MOL0     C74660   3.185   0.874   0.594 -0.0623 -0.4793  0.3199
  554MOL0     C74661   3.322   0.850   0.565  1.0056 -0.1427 -0.8160
  554MOL0     C74662   3.393   0.748   0.625 -0.2724 -0.0408  0.2607
  554MOL0     O74663   3.528   0.730   0.591  0.2016  0.7608  0.2565
  554MOL0     C74664   3.599   0.635   0.670  0.0637 -0.2293  0.1923
  554MOL0     C74665   3.740   0.647   0.639 -0.1651  0.0070  0.6740
  554MOL0     C74666   3.769   0.614   0.485  0.3095  0.6345 -0.3962
  554MOL0     C74667   3.919   0.644   0.421  0.4450 -0.2724 -0.1669
  554MOL0     C74668   3.954   0.553   0.311  0.1817 -0.8228  0.3141
  554MOL0     C74669   3.848   0.564   0.200  0.2774  0.2094 -0.7188
  554MOL0     C74670   3.881   0.471   0.077 -0.0450 -0.8639 -0.1769
  554MOL0     C74671   4.001   0.498   0.006  0.4083 -0.0216 -0.3599
  554MOL0     N74672   4.133   0.461   0.061  0.0801 -0.0508 -0.0128
  554MOL0     C74673   4.190   0.340   0.046 -0.0341 -0.2629  0.4219
  554MOL0     C74674   4.318   0.365   0.056 -0.1430  0.3940 -0.3210
  554MOL0     C74675   4.433   0.269   0.050 -1.1917 -0.1661  0.2748
  554MOL0     C74676   4.497   0.262  -0.084 -0.4010  0.7171  0.7525
  554MOL0     C74677   4.574   0.397  -0.132 -0.3401 -0.3711 -0.6886
  554MOL0     C74678   4.684   0.442  -0.034 -0.9115  0.3148 -0.2863
  554MOL0     O74679   4.771   0.548  -0.088  0.4711 -0.0911  0.3378
  554MOL0     C74680   4.900   0.561  -0.043 -0.7659  0.8478  0.2585
  554MOL0     C74681   4.978   0.639  -0.117 -0.1190  0.2886 -0.2423
  554MOL0     C74682   5.119   0.658  -0.086  0.3413  0.0914  0.6685
  554MOL0     C74683   5.179   0.577   0.011 -0.0512  0.2076  0.4659
  554MOL0     C74684   5.324   0.569   0.035 -0.0281  0.1234  0.7031
  554MOL0     O74685   5.354   0.493   0.143  0.0636  0.1675 -0.2080
  554MOL0     C74686   5.485   0.482   0.166  1.0820 -0.2068  0.2890
  554MOL0     C74687   5.560   0.587   0.222  0.0085 -0.0287 -0.0836
  554MOL0     C74688   5.686   0.567   0.260 -0.6690  0.3062  0.5005
  554MOL0     C74689   5.750   0.449   0.221 -0.5792  0.5598  0.7051
  554MOL0     O74690   5.880   0.426   0.260  1.3734 -0.4070  0.1382
  554MOL0     C74691   5.973   0.532   0.249 -0.7825 -0.6099 -0.0105
  554MOL0     C74692   6.121   0.471   0.239 -0.2802  0.0272  0.5790
  554MOL0     C74693   6.238   0.576   0.232  0.7396 -0.2374 -0.2921
  554MOL0     C74694   6.380   0.524   0.249  0.1360  0.0823 -0.0802
  554MOL0     C74695   6.484   0.624   0.227  0.1937  0.8236  0.8945
  554MOL0     C74696   6.560   0.620   0.089  0.4269  0.6448  0.0288
  554MOL0     C74697   6.645   0.492   0.058 -0.4701  0.5729 -0.5761
  554MOL0     C74698   6.604   0.400  -0.060  0.1270 -0.5660  0.0463
  554MOL0    Cl74699   6.638   0.495  -0.208 -0.4141 -0.0310 -0.1238
  554MOL0     C74700   5.691   0.341   0.161  0.2623 -0.1348  0.0617
  554MOL0     C74701   5.549   0.360   0.141 -0.2426  0.2713  0.7030
  554MOL0     O74702   5.398   0.618  -0.046  0.6919 -0.9151 -0.0853
  554MOL0     C74703   5.100   0.494   0.088  0.8814 -0.1889  0.1854
  554MOL0     C74704   4.957   0.492   0.063 -0.0852  0.1908  0.2723
  554MOL0     N74705   4.336   0.502   0.101  0.6793 -0.1947  0.6882
  554MOL0     N74706   4.223   0.557   0.080  0.4251 -0.4127 -0.0546
  554MOL0     C74707   3.325   0.665   0.718 -0.2555 -0.0989  0.6372
  554MOL0     C74708   3.195   0.693   0.757  1.0943  0.2900 -0.2383
  554MOL0     C74709   2.845   0.973   0.850  0.0350  0.1544 -0.1640
  554MOL0     C74710   2.727   0.897   0.819  0.2004  1.0815  0.5297
  554MOL0     C74711   2.600   0.951   0.846 -0.1614  0.6438 -0.4963
  554MOL0     C74712   2.583   1.081   0.899 -0.3409  0.0426  0.0792
  554MOL0     O74713   2.468   1.132   0.947 -0.5651 -0.1715  0.2983
  554MOL0     C74714   2.361   1.044   0.955  0.3807  0.4500 -0.0856
  554MOL0     C74715   2.249   1.100   1.038  1.1903 -0.1840 -0.6542
  554MOL0     C74716   2.213   1.238   0.995 -0.0373  0.1790  0.4511
  554MOL0     C74717   2.288   1.352   1.057 -0.5227 -0.6507  0.2772
  554MOL0     C74718   2.265   1.476   0.986  0.1394  0.4182 -0.6952
  554MOL0     C74719   2.250   1.583   0.929 -0.3748  0.1325  0.1456
  554MOL0     C74720   2.700   1.157   0.918 -0.1712 -0.3905  0.1205
  554MOL0     C74721   2.830   1.107   0.898 -0.3092  1.0222  1.1375
  554MOL0     C74722   2.937   1.204   0.923  0.3091 -0.6053  0.6970
  554MOL0     H74723   3.138   0.962   0.550  1.5322  0.8371  1.1177
  554MOL0     H74724   3.368   0.910   0.487 -3.0089  0.0469 -3.3394
  554MOL0     H74725   3.590   0.649   0.779 -1.3813 -2.6856  0.4561
  554MOL0     H74726   3.586   0.528   0.656  0.7227 -0.1475 -1.1297
  554MOL0     H74727   3.792   0.568   0.694  0.4872 -0.2162 -0.2328
  554MOL0     H74728   3.778   0.745   0.669 -0.6744  1.5419 -3.1086
  554MOL0     H74729   3.697   0.666   0.422 -2.3218 -2.4309 -0.1766
  554MOL0     H74730   3.742   0.509   0.469 -0.6097  0.5179  1.5675
  554MOL0     H74731   3.921   0.744   0.379  1.1385 -0.6758 -1.1205
  554MOL0     H74732   3.987   0.640   0.506 -1.1850  0.5306  1.2404
  554MOL0     H74733   4.054   0.566   0.268 -0.4738 -3.0324 -2.1439
  554MOL0     H74734   3.946   0.455   0.359  0.8725 -0.6166  0.8625
  554MOL0     H74735   3.748   0.536   0.236  1.4403 -0.3786  2.4283
  554MOL0     H74736   3.842   0.670   0.175 -1.4132 -0.0693 -1.6362
  554MOL0     H74737   3.801   0.486   0.004 -0.7445  0.7175  0.8464
  554MOL0     H74738   3.869   0.365   0.098 -0.9650 -1.0464 -1.5608
  554MOL0     H74739   4.005   0.444  -0.089  1.0918 -1.6799  0.5797
  554MOL0     H74740   4.004   0.603  -0.026 -3.0677 -0.5242 -3.0013
  554MOL0     H74741   4.141   0.244   0.031 -1.6731  0.7096 -0.7629
  554MOL0     H74742   4.512   0.289   0.124 -1.1218 -2.0342  0.7755
  554MOL0     H74743   4.402   0.168   0.082 -0.1963 -0.0324  1.7972
  554MOL0     H74744   4.573   0.184  -0.089  0.8788  1.8302  1.9430
  554MOL0     H74745   4.414   0.260  -0.156  1.7742  3.2669 -2.1041
  554MOL0     H74746   4.498   0.475  -0.143 -0.2589  0.2425  2.2683
  554MOL0     H74747   4.619   0.389  -0.231  2.0682  0.5710  0.2519
  554MOL0     H74748   4.743   0.353  -0.011 -0.5445  1.0590  1.8350
  554MOL0     H74749   4.643   0.483   0.058 -0.8982  1.2708 -0.6931
  554MOL0     H74750   4.921   0.669  -0.204 -1.4503  0.2408  0.5944
  554MOL0     H74751   5.181   0.722  -0.148 -1.6799  2.6906  1.1493
  554MOL0     H74752   5.520   0.684   0.252  3.4494  2.7270 -3.4779
  554MOL0     H74753   5.744   0.650   0.299 -1.3391  2.0035 -1.8693
  554MOL0     H74754   5.950   0.589   0.158  0.0624  1.1381  0.8219
  554MOL0     H74755   5.976   0.605   0.331 -2.1867  0.1974 -0.6428
  554MOL0     H74756   6.140   0.410   0.328 -0.4829 -0.7497  0.1016
  554MOL0     H74757   6.140   0.404   0.154 -1.8167  0.9589 -0.5632
  554MOL0     H74758   6.222   0.643   0.147 -2.8426  0.2483  0.6055
  554MOL0     H74759   6.223   0.639   0.319  0.9442 -0.3563 -0.1704
  554MOL0     H74760   6.397   0.442   0.178  3.4074 -2.1863  2.9945
  554MOL0     H74761   6.401   0.475   0.344  0.5085 -1.0360 -0.7223
  554MOL0     H74762   6.553   0.620   0.311  2.5297  0.6375 -0.9319
  554MOL0     H74763   6.434   0.720   0.240 -1.4050  0.0118  1.0713
  554MOL0     H74764   6.487   0.630   0.009  0.6607 -1.2202 -0.4579
  554MOL0     H74765   6.627   0.706   0.090  0.0019  1.1246 -3.1887
  554MOL0     H74766   6.658   0.444   0.155 -1.4367  1.9301  0.2526
  554MOL0     H74767   6.747   0.519   0.026  1.0728 -3.4631  0.3257
  554MOL0     H74768   6.670   0.313  -0.065  2.1861  0.7949  1.6369
  554MOL0     H74769   6.500   0.371  -0.046  0.5242 -2.0162  0.1222
  554MOL0     H74770   5.725   0.238   0.157 -1.2666 -0.6195 -1.2030
  554MOL0     H74771   5.495   0.269   0.115 -0.6425  0.2470  1.5796
  554MOL0     H74772   5.132   0.425   0.165 -1.9110 -2.1779 -0.2561
  554MOL0     H74773   4.911   0.413   0.121 -1.6662  1.6615  1.1180
  554MOL0     H74774   3.371   0.590   0.781  0.4760 -1.5355 -1.5160
  554MOL0     H74775   3.135   0.630   0.821 -0.5798 -1.3665 -3.2290
  554MOL0     H74776   2.723   0.798   0.775 -2.2269  0.7775  1.3134
  554MOL0     H74777   2.510   0.891   0.839 -0.0559  0.0750  2.1001
  554MOL0     H74778   2.387   0.944   0.993  1.3350  0.6078 -0.3066
  554MOL0     H74779   2.329   1.024   0.852  0.2595 -4.8541  0.6742
  554MOL0     H74780   2.281   1.109   1.142 -2.1563  3.0737  0.2811
  554MOL0     H74781   2.166   1.029   1.033 -0.6899  1.9262 -1.1761
  554MOL0     H74782   2.107   1.261   1.009 -0.3694  0.1160 -1.5659
  554MOL0     H74783   2.220   1.236   0.885  0.2692 -1.3761  0.4726
  554MOL0     H74784   2.265   1.368   1.163 -2.9467  0.2549 -0.2994
  554MOL0     H74785   2.395   1.335   1.045 -0.0961  0.3024  2.3699
  554MOL0     H74786   2.240   1.673   0.871  0.3024  0.0825 -0.0599
  554MOL0     H74787   2.680   1.255   0.959  1.5911  0.0248  0.0844
  554MOL0     H74788   2.904   1.295   0.874  1.8638 -0.8770 -0.9423
  554MOL0     H74789   2.942   1.224   1.031 -1.1693 -0.8810  0.8411
  554MOL0     H74790   3.038   1.179   0.892  2.3692  4.2217  2.6087
  555MOL0     O74791   7.583   1.484   1.534 -0.1295  1.2631 -0.2427
  555MOL0     C74792   7.545   1.393   1.459  0.3013  0.1018 -0.7757
  555MOL0     O74793   7.604   1.375   1.335  0.6013  0.1757  0.2078
  555MOL0     C74794   7.729   1.413   1.304  0.1012 -0.5089 -0.7772
  555MOL0     C74795   7.770   1.473   1.184 -0.6279  0.7141 -0.2230
  555MOL0     C74796   7.910   1.504   1.167  0.4863 -0.1421  0.8944
  555MOL0     C74797   8.005   1.478   1.265 -0.2358 -0.4224  0.0128
  555MOL0     O74798   8.137   1.489   1.254 -0.2949  0.2854 -0.0457
  555MOL0     C74799   8.180   1.562   1.133  0.4930  0.4218  0.1597
  555MOL0     C74800   8.325   1.577   1.124  0.3863  0.2449 -0.5748
  555MOL0     C74801   8.364   1.648   0.992 -0.6443 -0.0229 -0.1639
  555MOL0     C74802   8.345   1.803   1.005  0.2238 -0.5667  0.2479
  555MOL0     C74803   8.309   1.881   0.871 -0.2618 -0.0065  0.3075
  555MOL0     C74804   8.383   1.835   0.746 -0.8418 -0.2727 -0.6250
  555MOL0     C74805   8.322   1.872   0.618  0.0932 -0.4789  0.0666
  555MOL0     C74806   8.218   1.777   0.565  0.2472  0.7673  0.2649
  555MOL0     N74807   8.245   1.626   0.593  0.5940  0.1597  0.2515
  555MOL0     C74808   8.185   1.560   0.694  0.1755 -0.0603 -0.1582
  555MOL0     C74809   8.202   1.431   0.666 -0.8609 -0.0105  0.5841
  555MOL0     C74810   8.149   1.317   0.751  0.0560 -0.2685  0.3380
  555MOL0     C74811   8.260   1.227   0.816  0.5687  0.2281 -0.4667
  555MOL0     C74812   8.390   1.305   0.864  0.2071  0.1716 -0.2894
  555MOL0     C74813   8.470   1.210   0.946  0.4150  0.1567 -0.3415
  555MOL0     O74814   8.589   1.263   0.995  0.7427 -0.1398 -0.4926
  555MOL0     C74815   8.691   1.232   0.911 -0.3703  0.0010  0.4555
  555MOL0     C74816   8.743   1.337   0.832  0.5045  0.8503  0.6454
  555MOL0     C74817   8.858   1.324   0.747  1.3793 -0.6180 -0.0449
  555MOL0     C74818   8.929   1.207   0.759  0.4617  0.2169  0.3869
  555MOL0     C74819   9.053   1.184   0.679 -0.6333  0.6589 -0.3661
  555MOL0     O74820   9.097   1.050   0.680 -0.1839 -0.4221 -0.2523
  555MOL0     C74821   9.210   1.004   0.617 -0.1323  1.2003 -0.2487
  555MOL0     C74822   9.199   0.868   0.583  0.7559 -0.2930 -1.7529
  555MOL0     C74823   9.305   0.812   0.519 -0.6313  0.1238  0.6497
  555MOL0     C74824   9.417   0.886   0.476  0.0918  1.3138 -0.0009
  555MOL0     O74825   9.512   0.821   0.396  1.0929  0.0820  0.2809
  555MOL0     C74826   9.631   0.893   0.357 -0.2450  0.8556 -0.6443
  555MOL0     C74827   9.713   0.813   0.257 -0.3232  0.6997 -0.0520
  555MOL0     C74828   9.775   0.679   0.312 -0.1505  0.3129  0.4984
  555MOL0     C74829   9.871   0.617   0.208  0.4129  0.4778  0.9584
  555MOL0     C74830   9.793   0.565   0.089  1.5257  1.2942  0.0151
  555MOL0     C74831   9.876   0.507  -0.025  0.5131 -0.2741 -0.0683
  555MOL0     C74832   9.951   0.605  -0.107 -0.2246  0.0051 -0.1484
  555MOL0     C74833   9.870   0.695  -0.195  0.5023 -0.2908 -0.0837
  555MOL0    Cl74834   9.913   0.672  -0.362 -0.3541 -0.0228  0.3536
  555MOL0     C74835   9.440   1.016   0.523  0.2169  0.0657  0.4112
  555MOL0     C74836   9.329   1.067   0.588  1.0021  0.9910 -0.2011
  555MOL0     O74837   9.100   1.272   0.609  0.0813 -0.1315 -0.4825
  555MOL0     C74838   8.874   1.102   0.837 -0.0979 -0.1996 -0.7906
  555MOL0     C74839   8.760   1.107   0.924  0.0376  0.3350 -0.0103
  555MOL0     N74840   8.259   1.429   0.537 -0.0211 -0.0703 -0.1588
  555MOL0     N74841   8.293   1.542   0.499 -0.0347 -0.4831 -1.3671
  555MOL0     C74842   7.964   1.414   1.376  0.0958  0.0324 -0.1384
  555MOL0     C74843   7.834   1.382   1.392  0.6134 -0.5436 -0.0303
  555MOL0     C74844   7.443   1.301   1.499  0.8294 -0.3047 -0.4109
  555MOL0     C74845   7.442   1.181   1.429 -0.1875  0.4276 -0.5415
  555MOL0     C74846   7.357   1.081   1.448  1.0761  0.0609 -0.2263
  555MOL0     C74847   7.249   1.101   1.531 -0.0107 -0.5779  0.0701
  555MOL0     O74848   7.155   1.007   1.568  0.1553 -0.0120  0.3157
  555MOL0     C74849   7.138   0.884   1.494 -0.2824 -0.8820 -0.9764
  555MOL0     C74850   7.081   0.884   1.350  0.7661 -0.1935 -0.0352
  555MOL0     C74851   6.948   0.962   1.337 -0.3181  0.8927  0.2162
  555MOL0     C74852   6.875   0.951   1.197  0.9180  0.2217 -0.4741
  555MOL0     C74853   6.905   1.062   1.108 -0.5280  0.1247 -0.0624
  555MOL0     C74854   6.929   1.157   1.029  0.4872 -0.5503 -1.0830
  555MOL0     C74855   7.238   1.223   1.606 -0.7010  0.3122 -0.0174
  555MOL0     C74856   7.341   1.313   1.600  0.1002 -0.2656 -1.2193
  555MOL0     C74857   7.326   1.421   1.702  0.2603 -0.3942  0.7185
  555MOL0     H74858   7.700   1.489   1.103 -1.4320 -1.3101  0.0240
  555MOL0     H74859   7.923   1.554   1.072  2.7884 -2.1166  0.0639
  555MOL0     H74860   8.135   1.503   1.052  2.4467  1.2731 -1.6195
  555MOL0     H74861   8.135   1.661   1.120  1.1521  0.6857 -0.1559
  555MOL0     H74862   8.378   1.482   1.124  0.3177  0.1570 -2.5362
  555MOL0     H74863   8.355   1.629   1.216 -2.5564 -0.2564  0.7896
  555MOL0     H74864   8.289   1.616   0.918 -1.7479  2.1982 -0.0958
  555MOL0     H74865   8.464   1.623   0.956 -0.3497  0.3220  0.4072
  555MOL0     H74866   8.265   1.825   1.077 -0.4099 -0.7463 -0.3869
  555MOL0     H74867   8.435   1.850   1.047 -0.1220 -1.2235  1.8227
  555MOL0     H74868   8.202   1.892   0.850  0.0031 -0.6018 -1.4382
  555MOL0     H74869   8.343   1.985   0.878 -0.5399  0.1922 -1.0702
  555MOL0     H74870   8.481   1.883   0.734 -0.5524 -1.4385 -3.9536
  555MOL0     H74871   8.397   1.727   0.737 -2.7967 -0.4040 -3.0350
  555MOL0     H74872   8.399   1.873   0.540 -0.0366  0.4794 -0.0548
  555MOL0     H74873   8.281   1.973   0.626  1.6806  0.0883  2.1044
  555MOL0     H74874   8.120   1.792   0.610  0.8607  0.4792  1.7637
  555MOL0     H74875   8.207   1.803   0.459  1.2676  0.7906  0.1510
  555MOL0     H74876   8.131   1.596   0.781 -2.2190 -3.5777  0.0205
  555MOL0     H74877   8.086   1.357   0.831 -0.6898 -0.7252 -0.0061
  555MOL0     H74878   8.100   1.249   0.680 -0.6494  1.8221 -1.3120
  555MOL0     H74879   8.214   1.172   0.898  2.3905  1.5890  1.5649
  555MOL0     H74880   8.284   1.158   0.735  1.1165  0.1894 -0.2741
  555MOL0     H74881   8.363   1.398   0.915  0.8097  0.5077 -0.5688
  555MOL0     H74882   8.444   1.345   0.778  0.7815  0.4287  0.1821
  555MOL0     H74883   8.486   1.111   0.902 -0.8332 -1.0984  1.7880
  555MOL0     H74884   8.402   1.188   1.029 -3.7026 -0.1199 -3.5029
  555MOL0     H74885   8.696   1.435   0.824 -1.8874 -0.2818 -0.0150
  555MOL0     H74886   8.880   1.410   0.684 -1.1173 -0.4490 -0.8108
  555MOL0     H74887   9.112   0.812   0.615 -1.6674  3.1388 -1.7011
  555MOL0     H74888   9.306   0.707   0.493 -1.3475  0.2907 -0.0621
  555MOL0     H74889   9.607   0.986   0.304  0.8099  1.2919 -0.3696
  555MOL0     H74890   9.692   0.911   0.446  0.6406  0.7283 -1.2184
  555MOL0     H74891   9.641   0.790   0.178  0.1225  0.1426 -0.2954
  555MOL0     H74892   9.787   0.877   0.208 -1.0797  0.1614 -2.0072
  555MOL0     H74893   9.853   0.701   0.386  2.8564 -1.7719 -1.8066
  555MOL0     H74894   9.697   0.613   0.354 -1.7631  0.8977 -1.4137
  555MOL0     H74895   9.919   0.535   0.262 -0.1379 -0.3701  0.1880
  555MOL0     H74896   9.946   0.691   0.180  1.6014 -1.2167 -0.6344
  555MOL0     H74897   9.721   0.634   0.043  0.2494  0.5387  0.8136
  555MOL0     H74898   9.734   0.482   0.129  2.4375  0.4979 -0.2469
  555MOL0     H74899   9.950   0.444   0.025  1.9244  0.6833 -0.8960
  555MOL0     H74900   9.821   0.437  -0.089  1.3066  0.0734 -1.1614
  555MOL0     H74901  10.025   0.546  -0.163  0.2827  0.4049  0.1006
  555MOL0     H74902  10.014   0.664  -0.039  0.3525 -1.7510  0.9168
  555MOL0     H74903   9.765   0.666  -0.191  1.1372 -2.7521  0.0477
  555MOL0     H74904   9.881   0.800  -0.167  1.9990 -0.3193 -0.4567
  555MOL0     H74905   9.528   1.077   0.504 -0.1288  0.1004 -1.1836
  555MOL0     H74906   9.343   1.166   0.629  1.5979  1.1064 -0.6521
  555MOL0     H74907   8.930   1.009   0.844  0.3505  0.1630  0.6597
  555MOL0     H74908   8.742   1.022   0.988 -0.3059 -0.9984 -1.8043
  555MOL0     H74909   8.044   1.383   1.441  0.4520 -0.8656 -0.9675
  555MOL0     H74910   7.798   1.342   1.486  0.8893  2.1106  1.3035
  555MOL0     H74911   7.515   1.165   1.351 -0.7553 -0.5132 -0.8900
  555MOL0     H74912   7.367   0.987   1.393 -0.3637 -0.9223  1.1083
  555MOL0     H74913   7.067   0.832   1.559  0.3122  0.6551  1.0171
  555MOL0     H74914   7.225   0.819   1.494 -0.9230 -1.8216  1.1429
  555MOL0     H74915   7.076   0.782   1.311  0.7854 -0.4295  0.5607
  555MOL0     H74916   7.154   0.944   1.295 -1.5173  4.1226  1.2081
  555MOL0     H74917   6.969   1.069   1.350 -0.1671  0.9861 -0.7364
  555MOL0     H74918   6.886   0.917   1.415 -0.1599 -0.7164 -0.5508
  555MOL0     H74919   6.897   0.854   1.151  3.0109  1.2058 -1.6772
  555MOL0     H74920   6.768   0.956   1.219  0.6206 -3.3963 -0.5032
  555MOL0     H74921   6.946   1.236   0.959 -0.0121  1.0591  0.5382
  555MOL0     H74922   7.162   1.243   1.681 -1.6552 -1.3004 -0.4988
  555MOL0     H74923   7.249   1.404   1.778  0.7117 -2.9366  0.6944
  555MOL0     H74924   7.422   1.423   1.754 -0.5035  0.8166  2.1673
  555MOL0     H74925   7.311   1.519   1.655 -1.1370 -2.2463 -3.1964
  556MOL0     O74926   6.845  10.794   0.692 -0.2422 -0.5722  0.1615
  556MOL0     C74927   6.806  10.912   0.689 -0.7248  0.3530  0.5119
  556MOL0     O74928   6.859  11.008   0.772  0.0063 -0.3738 -0.3660
  556MOL0     C74929   6.968  10.983   0.851  0.0811  0.2664  0.6612
  556MOL0     C74930   7.048  10.867   0.876  0.2654  0.1968 -0.1439
  556MOL0     C74931   7.151  10.865   0.972  0.3319 -0.5805  0.3208
  556MOL0     C74932   7.175  10.980   1.048  0.6163 -0.0563 -0.0580
  556MOL0     O74933   7.277  10.980   1.138  0.6753 -0.7171  0.5078
  556MOL0     C74934   7.357  11.104   1.155 -0.1736  0.7469 -0.0738
  556MOL0     C74935   7.490  11.055   1.218 -1.0445  0.1968  0.5533
  556MOL0     C74936   7.578  10.959   1.133  0.7561  0.2640  0.4138
  556MOL0     C74937   7.691  10.882   1.206  0.1681 -0.0157  0.3879
  556MOL0     C74938   7.767  10.777   1.122  0.1326  0.0225 -0.1091
  556MOL0     C74939   7.870  10.709   1.204  0.0485  0.3192 -0.0464
  556MOL0     C74940   7.925  10.574   1.138 -0.3824  0.0873 -0.1371
  556MOL0     C74941   8.011  10.593   1.013  0.5595 -0.0993  0.0192
  556MOL0     N74942   8.081  10.470   0.971 -0.0343  0.1339  0.4521
  556MOL0     C74943   8.067  10.415   0.845 -0.0010 -0.1183 -0.3330
  556MOL0     C74944   8.151  10.301   0.845 -0.0608  0.2249  0.1132
  556MOL0     C74945   8.175  10.203   0.731 -0.0779  0.8963 -0.6968
  556MOL0     C74946   8.196  10.275   0.600  0.2603  0.2457 -0.3759
  556MOL0     C74947   8.248  10.177   0.493  0.1310  0.0891 -0.4540
  556MOL0     C74948   8.265  10.241   0.360  0.2348  0.6310 -0.7920
  556MOL0     O74949   8.396  10.272   0.328 -0.7667  0.0046  0.4239
  556MOL0     C74950   8.459  10.382   0.379 -0.4886 -0.0887 -1.2353
  556MOL0     C74951   8.398  10.503   0.368  0.6895 -0.4238 -0.4442
  556MOL0     C74952   8.452  10.620   0.422 -0.7542  0.3475  0.0434
  556MOL0     C74953   8.573  10.615   0.489 -0.2075  0.0469 -0.1758
  556MOL0     C74954   8.648  10.733   0.542  0.0242  0.7777 -0.0519
  556MOL0     O74955   8.606  10.859   0.503  0.5287 -0.0161 -0.4355
  556MOL0     C74956   8.661  10.982   0.539  0.1665  0.9788 -0.1935
  556MOL0     C74957   8.569  11.092   0.561  0.2071 -0.2582  0.0158
  556MOL0     C74958   8.608  11.212   0.623 -0.5011  0.5299 -0.4660
  556MOL0     C74959   8.747  11.224   0.641 -0.1778 -0.9743  0.0413
  556MOL0     O74960   8.794  11.348   0.686 -0.3698  0.1448 -0.3812
  556MOL0     C74961   8.883  11.333   0.802  0.1201 -0.3614 -0.4997
  556MOL0     C74962   8.896  11.477   0.865  0.0251 -0.4025 -0.3595
  556MOL0     C74963   8.795  11.506   0.975  0.4474  1.0008  0.2038
  556MOL0     C74964   8.770  11.654   1.022 -0.6007  0.4145 -0.1744
  556MOL0     C74965   8.712  11.656   1.166 -0.2456  0.1491 -0.0162
  556MOL0     C74966   8.670  11.782   1.224 -0.2086 -0.8638  0.3777
  556MOL0     C74967   8.512  11.804   1.232 -0.3898  0.6807  0.7764
  556MOL0     C74968   8.456  11.736   1.355  0.2027  0.1043 -0.0192
  556MOL0    Cl74969   8.510  11.826   1.504  0.0087 -0.5135 -0.1619
  556MOL0     C74970   8.837  11.121   0.613  0.3061 -0.7621 -1.2231
  556MOL0     C74971   8.799  10.996   0.569  0.0994  0.3174  0.0543
  556MOL0     O74972   8.740  10.705   0.622 -0.1323  0.0008 -0.6219
  556MOL0     C74973   8.639  10.492   0.500  0.1387  0.4314  0.0473
  556MOL0     C74974   8.582  10.376   0.443 -0.3169 -0.6772 -0.5612
  556MOL0     N74975   8.201  10.290   0.974  0.4669  0.4231 -0.3279
  556MOL0     N74976   8.143  10.383   1.051  0.2968 -0.1573  0.3474
  556MOL0     C74977   7.104  11.099   1.028 -0.5231 -0.0645 -0.3482
  556MOL0     C74978   7.004  11.098   0.929  0.3780  0.2029 -0.4931
  556MOL0     C74979   6.698  10.944   0.598 -0.0969 -0.1758  0.6166
  556MOL0     C74980   6.693  11.078   0.542 -0.2995  0.2120  0.1473
  556MOL0     C74981   6.580  11.125   0.479 -0.2881  0.6047  0.5374
  556MOL0     C74982   6.473  11.038   0.442  0.3116 -0.3549  0.0711
  556MOL0     O74983   6.362  11.068   0.359  0.2876  0.9825  0.8784
  556MOL0     C74984   6.347  11.187   0.282  0.4518  0.0135  0.7790
  556MOL0     C74985   6.201  11.232   0.291 -0.3465  0.4381  0.1572
  556MOL0     C74986   6.093  11.147   0.232  0.7178  0.3329  0.5432
  556MOL0     C74987   6.061  11.171   0.086 -0.6724 -1.1333  0.2756
  556MOL0     C74988   5.976  11.064   0.047  0.1332  0.3465 -0.1566
  556MOL0     C74989   5.914  10.971   0.029 -0.7834  0.3308  0.9387
  556MOL0     C74990   6.485  10.901   0.486  0.0038 -0.3039 -0.6119
  556MOL0     C74991   6.593  10.854   0.567  0.7724  1.4915 -0.2310
  556MOL0     C74992   6.586  10.707   0.602 -0.1107 -0.2528 -0.6468
  556MOL0     H74993   7.025  10.773   0.826 -1.9985 -0.8517  2.6140
  556MOL0     H74994   7.210  10.774   0.983  2.4055  0.5846 -0.6293
  556MOL0     H74995   7.383  11.162   1.066  3.6653 -0.2349  0.2151
  556MOL0     H74996   7.304  11.161   1.231 -3.4659 -2.2704  0.1690
  556MOL0     H74997   7.472  11.018   1.319 -1.1827  0.7560  0.7371
  556MOL0     H74998   7.549  11.145   1.238 -0.9631  0.5067 -0.9817
  556MOL0     H74999   7.628  11.004   1.046  1.0321 -0.5561  0.1430
  556MOL0     H75000   7.509  10.886   1.090  3.0015 -0.5339 -2.1286
  556MOL0     H75001   7.760  10.965   1.229  0.7127  0.0188 -1.2485
  556MOL0     H75002   7.655  10.836   1.298  1.5124 -2.1836 -0.1135
  556MOL0     H75003   7.699  10.697   1.090  1.4072 -0.8872 -0.6319
  556MOL0     H75004   7.812  10.824   1.034 -2.3455 -2.7315 -3.1363
  556MOL0     H75005   7.956  10.774   1.223 -0.4889  0.9626  0.2125
  556MOL0     H75006   7.817  10.693   1.298 -2.2064  3.1087 -0.6820
  556MOL0     H75007   7.837  10.510   1.137 -0.0704 -0.5725  3.1397
  556MOL0     H75008   7.991  10.521   1.207  1.8778  1.5585 -1.0550
  556MOL0     H75009   7.945  10.627   0.932 -0.4597 -0.6183  0.6189
  556MOL0     H75010   8.082  10.676   1.013 -1.4842  1.7795 -0.7479
  556MOL0     H75011   8.021  10.477   0.769  4.7458 -1.0279 -4.4538
  556MOL0     H75012   8.265  10.150   0.760 -0.6377  0.2246 -0.1394
  556MOL0     H75013   8.095  10.130   0.712  1.0236 -0.3246 -0.7211
  556MOL0     H75014   8.103  10.323   0.570  0.3960  0.3827 -0.5834
  556MOL0     H75015   8.276  10.349   0.607  0.6000 -0.0175 -1.3535
  556MOL0     H75016   8.177  10.093   0.486  0.1365 -0.1275  1.4567
  556MOL0     H75017   8.346  10.137   0.518 -1.1075 -1.4072  2.5664
  556MOL0     H75018   8.197  10.326   0.346 -2.3040 -0.9500  1.2126
  556MOL0     H75019   8.219  10.171   0.291  0.5257 -0.2555 -0.1051
  556MOL0     H75020   8.296  10.508   0.333 -0.8101 -0.1429  3.5087
  556MOL0     H75021   8.411  10.715   0.389 -1.2308  0.1076 -0.0767
  556MOL0     H75022   8.466  11.071   0.535  0.5538 -0.2376 -1.4892
  556MOL0     H75023   8.550  11.294   0.665  2.4016  1.2728  2.4632
  556MOL0     H75024   8.843  11.260   0.873  1.1731 -0.3946  0.0800
  556MOL0     H75025   8.980  11.295   0.768  0.6952 -0.3921  1.0651
  556MOL0     H75026   8.994  11.483   0.912 -0.0796  1.7535 -0.3001
  556MOL0     H75027   8.900  11.550   0.784 -3.3411 -0.4035 -0.6819
  556MOL0     H75028   8.695  11.479   0.940  0.6866  0.0101  0.2463
  556MOL0     H75029   8.821  11.439   1.057 -2.0805  0.0313  0.3206
  556MOL0     H75030   8.721  11.708   0.941  0.8214  0.4258 -1.0536
  556MOL0     H75031   8.867  11.705   1.030 -1.6905  2.9406 -1.8964
  556MOL0     H75032   8.785  11.607   1.230  1.5672  1.3056 -1.1138
  556MOL0     H75033   8.624  11.591   1.167 -2.2843  2.7688  0.1791
  556MOL0     H75034   8.714  11.790   1.323  2.1345  0.0485 -0.6714
  556MOL0     H75035   8.720  11.865   1.173 -0.7337  0.5242  2.0488
  556MOL0     H75036   8.462  11.768   1.141  1.4669 -0.6276  0.2076
  556MOL0     H75037   8.498  11.912   1.223 -0.5508  0.8287  2.5294
  556MOL0     H75038   8.347  11.740   1.360  0.1677 -1.0303  0.4934
  556MOL0     H75039   8.476  11.629   1.364 -2.0404 -0.1782  3.2508
  556MOL0     H75040   8.944  11.137   0.623  0.4997 -1.6660 -1.7502
  556MOL0     H75041   8.879  10.923   0.567  1.7843  1.9923  1.9351
  556MOL0     H75042   8.738  10.484   0.545  0.0667  1.4633  0.4277
  556MOL0     H75043   8.636  10.282   0.438  3.7492  1.4698 -1.6631
  556MOL0     H75044   7.120  11.184   1.093 -1.2532  0.5238 -0.9262
  556MOL0     H75045   6.933  11.177   0.908 -0.6004 -1.6380 -5.9218
  556MOL0     H75046   6.768  11.155   0.556  1.0567 -0.9840 -0.2610
  556MOL0     H75047   6.565  11.230   0.454  0.2514  0.8802  1.3259
  556MOL0     H75048   6.389  11.170   0.183  2.1801  2.2065  1.0763
  556MOL0     H75049   6.406  11.268   0.325 -0.4756  0.5181  1.1268
  556MOL0     H75050   6.196  11.331   0.247  2.6300 -0.4564 -2.5991
  556MOL0     H75051   6.173  11.234   0.397  1.4135 -0.1921  0.6816
  556MOL0     H75052   6.006  11.176   0.292  1.4066  2.5983  0.5224
  556MOL0     H75053   6.110  11.041   0.254 -1.5350  0.0157  0.9937
  556MOL0     H75054   6.010  11.267   0.077  0.2374 -0.7193 -0.6668
  556MOL0     H75055   6.145  11.177   0.016 -1.3508  2.2478 -0.4204
  556MOL0     H75056   5.833  10.902   0.023 -0.1830 -0.3436  0.5088
  556MOL0     H75057   6.407  10.828   0.465 -0.1462 -0.3324  0.0213
  556MOL0     H75058   6.486  10.663   0.592 -0.6321  1.2695 -2.5582
  556MOL0     H75059   6.639  10.640   0.534  0.4014 -1.1115  0.5444
  556MOL0     H75060   6.614  10.684   0.706 -1.1460 -3.6617 -1.0121
  557MOL0     O75061   9.041   1.117   1.485  0.0397 -0.6276  0.0604
  557MOL0     C75062   8.985   1.069   1.584  0.9976  0.8533  0.2986
  557MOL0     O75063   8.954   0.937   1.610  0.4167  0.5307  0.4589
  557MOL0     C75064   8.998   0.824   1.550 -0.0254 -1.0631  0.1053
  557MOL0     C75065   9.061   0.822   1.425  0.0232  0.4138  0.0840
  557MOL0     C75066   9.098   0.691   1.378  0.1406 -0.4286  0.3344
  557MOL0     C75067   9.073   0.574   1.447  0.6322  0.4265 -0.1702
  557MOL0     O75068   9.098   0.457   1.380  0.6792 -0.3129 -0.6648
  557MOL0     C75069   9.029   0.345   1.419 -0.6689  0.1851 -0.2661
  557MOL0     C75070   9.108   0.219   1.393 -0.1045  0.0065 -0.0020
  557MOL0     C75071   9.256   0.216   1.457 -0.7181 -0.4525  0.1777
  557MOL0     C75072   9.340   0.090   1.405 -0.0271 -1.2710 -0.6202
  557MOL0     C75073   9.494   0.117   1.414  0.2538 -0.5246 -0.3142
  557MOL0     C75074   9.557   0.051   1.537  0.1381  0.1561  0.9888
  557MOL0     C75075   9.701   0.097   1.559 -0.0084 -0.1888 -0.0808
  557MOL0     C75076   9.800   0.040   1.467  0.0423 -0.0239 -0.2949
  557MOL0     N75077   9.922   0.121   1.459  0.6809 -0.0416  0.6147
  557MOL0     C75078  10.003   0.173   1.564 -0.1392  0.7535  1.1591
  557MOL0     C75079  10.118   0.208   1.501  0.0085 -0.6627  0.3056
  557MOL0     C75080  10.232   0.270   1.579  0.2613 -0.5259 -0.6167
  557MOL0     C75081  10.238   0.420   1.548  0.1867 -0.3256  0.3920
  557MOL0     C75082  10.347   0.491   1.620 -1.0155  0.2292 -0.0248
  557MOL0     C75083  10.337   0.538   1.762 -0.8450  0.3562  0.4713
  557MOL0     O75084  10.320   0.438   1.861 -0.0402 -0.1678 -0.3918
  557MOL0     C75085  10.432   0.377   1.908 -0.3358  1.0055  0.8970
  557MOL0     C75086  10.411   0.292   2.019  0.4690  0.1771  0.9136
  557MOL0     C75087  10.502   0.218   2.077 -0.8004  0.6620 -1.1812
  557MOL0     C75088  10.635   0.214   2.029  0.3143  0.7625 -0.2996
  557MOL0     C75089  10.737   0.121   2.097  0.9647 -0.2957 -0.3269
  557MOL0     O75090  10.853   0.099   2.034 -0.4925  0.5139  0.1851
  557MOL0     C75091  10.936   0.005   2.085 -0.3852 -0.0668  0.3478
  557MOL0     C75092  10.981  -0.092   1.992 -1.2867  0.4011  0.2933
  557MOL0     C75093  11.078  -0.187   2.034  0.9851  0.4894  0.9284
  557MOL0     C75094  11.113  -0.185   2.160  0.0826  0.5746 -1.2149
  557MOL0     O75095  11.202  -0.272   2.215  0.0099  0.1164 -0.7042
  557MOL0     C75096  11.338  -0.222   2.210  0.7337 -0.3032  0.4095
  557MOL0     C75097  11.424  -0.314   2.127  0.1052  0.0085 -0.9081
  557MOL0     C75098  11.575  -0.269   2.121  0.9833  0.3774  0.2306
  557MOL0     C75099  11.666  -0.397   2.129 -0.6432 -0.1672  0.3571
  557MOL0     C75100  11.685  -0.459   1.993  0.6153  0.5756  0.0402
  557MOL0     C75101  11.771  -0.593   2.001 -0.2256 -0.7123 -0.4388
  557MOL0     C75102  11.778  -0.646   1.856  0.7053  0.5178  0.1508
  557MOL0     C75103  11.837  -0.784   1.851 -0.5800 -0.1993 -0.4198
  557MOL0    Cl75104  12.021  -0.763   1.875  0.0560 -0.1840  0.4551
  557MOL0     C75105  11.070  -0.089   2.253  0.1259 -0.3170 -0.6119
  557MOL0     C75106  10.975   0.000   2.216  0.3606 -0.5516 -0.3337
  557MOL0     O75107  10.707   0.070   2.205  0.3721 -0.1205  0.2974
  557MOL0     C75108  10.670   0.295   1.923  0.8240  0.4813 -0.3763
  557MOL0     C75109  10.569   0.374   1.860  0.0610  0.5923 -0.4357
  557MOL0     N75110  10.099   0.219   1.367  0.4823 -0.1085  0.1069
  557MOL0     N75111   9.981   0.165   1.342 -0.2976  0.5528 -0.2589
  557MOL0     C75112   8.996   0.586   1.565 -1.0847  0.3047 -0.1044
  557MOL0     C75113   8.967   0.710   1.614 -0.0852 -0.0162 -0.7624
  557MOL0     C75114   8.918   1.164   1.679 -0.1610 -0.0127  0.0937
  557MOL0     C75115   8.794   1.138   1.737  0.7241  0.4286  0.5029
  557MOL0     C75116   8.740   1.217   1.840  0.8847  0.6156 -0.0819
  557MOL0     C75117   8.795   1.338   1.866 -0.3798  0.6102 -0.1459
  557MOL0     O75118   8.759   1.431   1.959 -0.5674  0.0276  0.3117
  557MOL0     C75119   8.633   1.417   2.021  0.7437  0.0500 -0.2353
  557MOL0     C75120   8.523   1.486   1.940 -0.9608 -0.7251 -0.2013
  557MOL0     C75121   8.383   1.477   2.002 -0.6200  0.0878  0.4575
  557MOL0     C75122   8.322   1.336   2.001  0.3920  0.1399 -0.9547
  557MOL0     C75123   8.187   1.330   2.054  0.5753 -0.1526  0.3450
  557MOL0     C75124   8.070   1.364   2.084 -0.3235  0.1240 -0.2904
  557MOL0     C75125   8.910   1.367   1.799  0.7571 -0.8427  0.1755
  557MOL0     C75126   8.983   1.283   1.716  0.5057  0.5852 -0.3737
  557MOL0     C75127   9.121   1.330   1.670  0.9471 -0.5592 -0.0085
  557MOL0     H75128   9.088   0.907   1.364  5.1305 -1.2056 -0.3856
  557MOL0     H75129   9.151   0.684   1.283 -1.8680  0.6132 -0.9479
  557MOL0     H75130   9.014   0.341   1.527  2.5533 -1.0960  0.2437
  557MOL0     H75131   8.935   0.348   1.363 -1.7127  1.5941  1.4785
  557MOL0     H75132   9.120   0.204   1.285  2.6646  1.1605  0.0422
  557MOL0     H75133   9.064   0.125   1.425  1.1754 -1.4233 -2.1339
  557MOL0     H75134   9.250   0.207   1.566 -2.3597  2.0102  0.3733
  557MOL0     H75135   9.316   0.303   1.431  1.8845 -2.5430 -1.3919
  557MOL0     H75136   9.313  -0.004   1.454 -1.3058 -2.8139 -3.9621
  557MOL0     H75137   9.310   0.073   1.301 -1.1794  0.3792 -0.5825
  557MOL0     H75138   9.546   0.082   1.324 -0.1321  2.8127 -1.9617
  557MOL0     H75139   9.500   0.226   1.419  0.0378 -0.5519  0.7770
  557MOL0     H75140   9.519   0.083   1.634  2.5405  0.8849  1.7756
  557MOL0     H75141   9.537  -0.056   1.542 -1.4120  0.3973  0.3943
  557MOL0     H75142   9.735   0.078   1.661 -1.4167  0.9726  0.6404
  557MOL0     H75143   9.715   0.206   1.554 -1.9124  0.4934  4.1945
  557MOL0     H75144   9.835  -0.059   1.497 -0.4692  0.3483  1.6334
  557MOL0     H75145   9.760   0.049   1.365  1.4443  0.2173 -0.8447
  557MOL0     H75146   9.970   0.187   1.667 -2.5949 -0.5742  0.6332
  557MOL0     H75147  10.213   0.260   1.686  0.5281  0.5277 -0.4600
  557MOL0     H75148  10.330   0.227   1.554  1.8397  0.6938  2.8728
  557MOL0     H75149  10.252   0.438   1.441  0.1986 -1.6232  0.1521
  557MOL0     H75150  10.139   0.455   1.578 -0.9361 -2.4277 -0.5890
  557MOL0     H75151  10.360   0.586   1.568  2.8804 -1.4886 -2.7553
  557MOL0     H75152  10.443   0.443   1.599 -0.1652  1.7767  0.2040
  557MOL0     H75153  10.248   0.601   1.776 -1.3600 -0.5455  1.3599
  557MOL0     H75154  10.423   0.601   1.787  0.2412 -1.0033  0.3198
  557MOL0     H75155  10.310   0.290   2.059  0.2112  1.6418  0.4215
  557MOL0     H75156  10.473   0.163   2.166 -2.0300  4.0044  0.6147
  557MOL0     H75157  10.938  -0.079   1.893 -0.1138  0.6443 -0.1994
  557MOL0     H75158  11.117  -0.259   1.963 -0.8313 -0.7883  1.1616
  557MOL0     H75159  11.337  -0.119   2.172  1.3035  0.1971  1.7060
  557MOL0     H75160  11.375  -0.221   2.313  0.8409 -2.2909  0.4117
  557MOL0     H75161  11.401  -0.411   2.172 -1.8057  1.5538  1.7581
  557MOL0     H75162  11.379  -0.310   2.027 -2.3232 -1.2737  0.0649
  557MOL0     H75163  11.574  -0.215   2.026  0.3377  0.8263  0.4862
  557MOL0     H75164  11.596  -0.204   2.207 -1.9192  1.0215  0.5617
  557MOL0     H75165  11.631  -0.479   2.192  1.8886 -2.7563 -1.3208
  557MOL0     H75166  11.762  -0.359   2.163 -0.3157  2.0373 -2.5707
  557MOL0     H75167  11.740  -0.395   1.923  1.5775  1.6728  1.7330
  557MOL0     H75168  11.581  -0.474   1.961  0.2993  0.0935  1.2261
  557MOL0     H75169  11.870  -0.561   2.031 -1.8402  1.2336  3.4149
  557MOL0     H75170  11.741  -0.668   2.075 -1.2109 -0.2503 -0.3576
  557MOL0     H75171  11.824  -0.576   1.786  1.3793  0.5275  0.5967
  557MOL0     H75172  11.673  -0.658   1.826 -0.1610  0.4588  2.8810
  557MOL0     H75173  11.801  -0.839   1.939  0.0307 -2.1222 -1.3076
  557MOL0     H75174  11.810  -0.827   1.754 -1.0197 -0.5540 -0.1453
  557MOL0     H75175  11.097  -0.095   2.358  0.3867  0.5997 -0.6241
  557MOL0     H75176  10.939   0.077   2.284  1.8772 -0.1779  0.0834
  557MOL0     H75177  10.771   0.284   1.886  1.4231 -1.0335  1.5337
  557MOL0     H75178  10.598   0.426   1.769  0.2570  1.9859  0.3898
  557MOL0     H75179   8.975   0.500   1.629  0.4938 -0.6231 -0.7724
  557MOL0     H75180   8.899   0.712   1.699  1.8946  1.2946  0.8888
  557MOL0     H75181   8.744   1.052   1.694  0.8295  1.9436 -3.0063
  557MOL0     H75182   8.650   1.187   1.892 -0.5180 -1.9582 -3.5742
  557MOL0     H75183   8.626   1.455   2.123  3.0556  0.3482 -0.1318
  557MOL0     H75184   8.599   1.315   2.040 -0.2126  0.4652  0.3470
  557MOL0     H75185   8.527   1.436   1.843 -0.2329 -1.5144  0.2237
  557MOL0     H75186   8.552   1.590   1.920  3.1726 -0.9732  3.1766
  557MOL0     H75187   8.320   1.544   1.943 -0.5398 -0.9132 -0.8074
  557MOL0     H75188   8.403   1.504   2.106  1.1708  1.9891 -0.3209
  557MOL0     H75189   8.336   1.289   1.904  0.2371  2.5227 -2.2145
  557MOL0     H75190   8.379   1.278   2.074 -1.8311  0.3826  1.0958
  557MOL0     H75191   7.967   1.377   2.108 -0.6705  0.0730 -1.6368
  557MOL0     H75192   8.942   1.469   1.818 -2.1980  0.3658 -0.8136
  557MOL0     H75193   9.104   1.358   1.566  0.4294  0.6314  0.3837
  557MOL0     H75194   9.148   1.423   1.721  1.3487 -0.8091  0.2374
  557MOL0     H75195   9.189   1.244   1.672  1.9798  0.1800 -1.7650
  558MOL0     O75196   1.420   6.655   5.961  1.1847 -0.4374 -0.1718
  558MOL0     C75197   1.440   6.610   5.845  0.3323  0.0693 -0.1300
  558MOL0     O75198   1.336   6.569   5.761 -0.4831  0.2024 -0.2609
  558MOL0     C75199   1.221   6.524   5.831 -0.9626  0.3697  0.2456
  558MOL0     C75200   1.222   6.444   5.955 -0.8099 -0.0918  0.3118
  558MOL0     C75201   1.102   6.404   6.014 -0.1224  0.8126  0.0435
  558MOL0     C75202   0.979   6.422   5.942 -0.4798 -0.6486  0.2191
  558MOL0     O75203   0.860   6.371   5.980  0.1966 -0.3306 -0.3443
  558MOL0     C75204   0.825   6.401   6.115 -0.4898 -0.0661 -0.4409
  558MOL0     C75205   0.817   6.549   6.137  0.2669  0.4495 -0.0854
  558MOL0     C75206   0.769   6.591   6.281  1.3057 -0.5545  0.6707
  558MOL0     C75207   0.855   6.547   6.400 -0.7321 -0.7981  0.3666
  558MOL0     C75208   0.765   6.529   6.529 -1.3097 -0.0252  0.4646
  558MOL0     C75209   0.732   6.672   6.582  0.5155  0.1615 -0.6246
  558MOL0     C75210   0.608   6.684   6.672  0.0885  0.1003 -0.4910
  558MOL0     C75211   0.602   6.595   6.795 -0.2741  0.2460  0.5696
  558MOL0     N75212   0.487   6.627   6.872 -0.0056 -0.3450 -0.2786
  558MOL0     C75213   0.389   6.534   6.893 -0.0307 -1.1540  0.4311
  558MOL0     C75214   0.317   6.578   6.997  0.9134  0.5814 -0.6596
  558MOL0     C75215   0.189   6.516   7.063  0.5706 -0.3113  1.0671
  558MOL0     C75216   0.102   6.630   7.116 -0.7468  0.1240  0.7615
  558MOL0     C75217  -0.036   6.582   7.179 -1.2862 -0.4877 -0.4669
  558MOL0     C75218  -0.108   6.481   7.089 -1.0742  0.0715  0.2953
  558MOL0     O75219  -0.247   6.490   7.109  0.4372 -0.3252  0.3635
  558MOL0     C75220  -0.318   6.436   7.214  1.0917 -0.9185 -0.0862
  558MOL0     C75221  -0.267   6.349   7.310  0.9368  0.7645  0.4784
  558MOL0     C75222  -0.347   6.287   7.404  0.3383  0.1289  0.0538
  558MOL0     C75223  -0.489   6.318   7.409 -0.8061 -0.6758  0.0277
  558MOL0     C75224  -0.575   6.255   7.507 -0.3323  0.5225 -0.9851
  558MOL0     O75225  -0.524   6.154   7.592 -0.5792 -0.3971  0.2798
  558MOL0     C75226  -0.619   6.075   7.645 -0.0733 -0.4092 -0.3922
  558MOL0     C75227  -0.695   5.988   7.565  0.0613  0.7833  0.6287
  558MOL0     C75228  -0.804   5.920   7.615 -0.0858  0.9354  0.1754
  558MOL0     C75229  -0.841   5.928   7.748 -0.1070  0.4903 -0.0082
  558MOL0     O75230  -0.943   5.853   7.797  0.2073 -1.1203 -0.7339
  558MOL0     C75231  -0.944   5.718   7.786  0.1471  0.7304 -1.2539
  558MOL0     C75232  -1.087   5.667   7.742 -0.2440 -0.1388  0.3673
  558MOL0     C75233  -1.204   5.736   7.808  0.4501 -0.4860  0.1931
  558MOL0     C75234  -1.187   5.724   7.955  0.8390 -0.1127 -0.1336
  558MOL0     C75235  -1.305   5.771   8.034 -0.1984  0.2734  0.1522
  558MOL0     C75236  -1.272   5.786   8.180  0.3843 -0.7276 -0.4770
  558MOL0     C75237  -1.377   5.866   8.261  0.6229 -0.1763  0.9524
  558MOL0     C75238  -1.409   6.021   8.234 -0.6922 -0.1558 -0.3014
  558MOL0    Cl75239  -1.587   6.065   8.233 -0.0831  0.4110  0.4282
  558MOL0     C75240  -0.765   6.016   7.827  0.3819  0.5364 -0.0997
  558MOL0     C75241  -0.651   6.079   7.779 -0.1054 -0.0847 -0.7377
  558MOL0     O75242  -0.696   6.287   7.501  0.4134 -0.5387  0.3912
  558MOL0     C75243  -0.544   6.406   7.310  0.0873 -0.5393  0.8144
  558MOL0     C75244  -0.460   6.449   7.205  0.9645 -1.3835  0.2539
  558MOL0     N75245   0.372   6.701   7.034 -0.6628  0.6065  0.0228
  558MOL0     N75246   0.484   6.710   6.976 -0.3966 -1.2649 -0.9946
  558MOL0     C75247   0.989   6.484   5.814 -0.1340 -0.4791 -0.5021
  558MOL0     C75248   1.105   6.531   5.756  0.2919 -0.7395 -0.6791
  558MOL0     C75249   1.575   6.605   5.787  0.2949 -0.3451  0.3094
  558MOL0     C75250   1.578   6.581   5.648 -0.3378  0.2105  0.1529
  558MOL0     C75251   1.702   6.570   5.587 -0.1137  0.1760  0.5368
  558MOL0     C75252   1.817   6.599   5.660  0.6055 -0.5237  0.3233
  558MOL0     O75253   1.932   6.580   5.601  0.2300  0.0757 -0.0055
  558MOL0     C75254   1.966   6.691   5.514 -1.4088  0.0219 -0.1617
  558MOL0     C75255   2.119   6.688   5.484 -0.1400 -0.2120  0.1533
  558MOL0     C75256   2.168   6.545   5.445  0.6711  1.1781  0.9221
  558MOL0     C75257   2.310   6.554   5.397  0.0889 -0.1224  0.5380
  558MOL0     C75258   2.341   6.640   5.277 -0.4132  0.1454  0.3114
  558MOL0     C75259   2.368   6.721   5.186 -1.5713  1.0603  0.3774
  558MOL0     C75260   1.816   6.637   5.799  0.6509  0.0234 -0.5498
  558MOL0     C75261   1.696   6.639   5.858  0.2776 -0.6937  0.0943
  558MOL0     C75262   1.697   6.659   6.005  0.2951  0.3665 -0.9088
  558MOL0     H75263   1.310   6.418   6.013 -0.3037 -1.6677 -1.0652
  558MOL0     H75264   1.115   6.356   6.111  0.6544 -0.8145 -0.8072
  558MOL0     H75265   0.731   6.351   6.143 -0.7469  0.1356 -0.9272
  558MOL0     H75266   0.906   6.368   6.180  1.7865 -0.5719 -3.2956
  558MOL0     H75267   0.741   6.586   6.068 -2.0309 -3.0164  0.3503
  558MOL0     H75268   0.911   6.602   6.119 -0.1097  1.1991  0.1093
  558MOL0     H75269   0.671   6.544   6.296  1.2063 -1.3179 -1.9431
  558MOL0     H75270   0.758   6.700   6.277 -0.4706 -0.7263 -0.0310
  558MOL0     H75271   0.908   6.454   6.377  0.1482 -0.1275 -0.4197
  558MOL0     H75272   0.934   6.618   6.426  0.9637 -1.9623 -1.3626
  558MOL0     H75273   0.675   6.469   6.508 -1.4083  1.2603 -3.7319
  558MOL0     H75274   0.829   6.479   6.602 -1.5000 -2.5718 -0.9949
  558MOL0     H75275   0.813   6.708   6.646 -1.0977 -0.4008  1.8363
  558MOL0     H75276   0.708   6.740   6.499 -1.3616  0.1171 -0.1472
  558MOL0     H75277   0.518   6.666   6.613  1.8275 -2.9902 -2.4813
  558MOL0     H75278   0.589   6.787   6.703 -1.6493  0.0050 -1.1737
  558MOL0     H75279   0.598   6.495   6.751  2.3858  0.2455  0.1896
  558MOL0     H75280   0.698   6.609   6.846  3.3490 -1.1223 -4.9096
  558MOL0     H75281   0.366   6.443   6.838  0.5686 -0.0415 -1.7945
  558MOL0     H75282   0.130   6.452   6.997  0.4556 -0.3941  1.2492
  558MOL0     H75283   0.226   6.458   7.148  2.1908  2.6455  2.5304
  558MOL0     H75284   0.163   6.684   7.188 -1.6830  2.9045 -0.3766
  558MOL0     H75285   0.093   6.701   7.034  1.3098 -0.4757 -0.0388
  558MOL0     H75286  -0.100   6.670   7.192 -1.9483 -1.3065  2.6633
  558MOL0     H75287  -0.022   6.535   7.276  1.1352 -0.3903 -0.7155
  558MOL0     H75288  -0.069   6.380   7.109 -2.3586 -1.1674 -2.7689
  558MOL0     H75289  -0.097   6.499   6.981 -0.4631 -2.9497 -0.2593
  558MOL0     H75290  -0.161   6.329   7.313  1.2723  2.4675  1.6135
  558MOL0     H75291  -0.301   6.229   7.483  0.5577  1.4865  0.9434
  558MOL0     H75292  -0.678   5.994   7.458 -1.8852 -0.6073  0.1801
  558MOL0     H75293  -0.872   5.858   7.558  0.6966 -0.2836  0.5346
  558MOL0     H75294  -0.872   5.673   7.716  0.8810  1.1407 -0.7701
  558MOL0     H75295  -0.911   5.673   7.880 -1.4811  0.3343 -0.8434
  558MOL0     H75296  -1.094   5.686   7.634  1.0519  1.4092  0.5077
  558MOL0     H75297  -1.099   5.560   7.760  0.5777 -0.2938  0.0271
  558MOL0     H75298  -1.225   5.841   7.788  5.5218  0.7887  0.1854
  558MOL0     H75299  -1.288   5.675   7.773  0.7671 -2.7543  3.0155
  558MOL0     H75300  -1.105   5.792   7.980  1.0384 -0.8028  1.1679
  558MOL0     H75301  -1.166   5.620   7.982 -0.3882 -0.3137  0.1041
  558MOL0     H75302  -1.384   5.696   8.028 -0.8060  0.9938 -2.3215
  558MOL0     H75303  -1.350   5.855   7.980  1.1126  0.9426  0.0570
  558MOL0     H75304  -1.279   5.683   8.217 -4.6612  0.2762  2.3607
  558MOL0     H75305  -1.172   5.829   8.189 -0.1829  1.0622 -1.9682
  558MOL0     H75306  -1.372   5.845   8.368 -0.4633  0.3547  1.1196
  558MOL0     H75307  -1.470   5.817   8.229 -0.0114  1.9874 -0.8048
  558MOL0     H75308  -1.352   6.080   8.307 -0.6714 -3.1151  2.2653
  558MOL0     H75309  -1.375   6.057   8.136 -1.4940  3.8218  0.7170
  558MOL0     H75310  -0.779   6.015   7.935  3.0057  0.6059  0.3283
  558MOL0     H75311  -0.579   6.111   7.855  1.0647 -0.0849 -1.8099
  558MOL0     H75312  -0.648   6.439   7.307 -0.9525 -3.4881 -0.6293
  558MOL0     H75313  -0.509   6.494   7.120 -0.4769  0.2458  1.8680
  558MOL0     H75314   0.904   6.484   5.747 -0.8457 -5.9301 -0.1028
  558MOL0     H75315   1.089   6.570   5.656 -1.3143  1.2233  0.2669
  558MOL0     H75316   1.487   6.555   5.595  0.0104 -3.2633  0.9966
  558MOL0     H75317   1.712   6.548   5.482  1.1601 -1.5361  0.9606
  558MOL0     H75318   1.942   6.784   5.567  1.5468  0.3372  0.7962
  558MOL0     H75319   1.924   6.679   5.414  0.5841 -2.4478 -0.7839
  558MOL0     H75320   2.178   6.730   5.566  1.1108  2.3047 -1.9022
  558MOL0     H75321   2.149   6.757   5.405 -0.6718 -0.3091 -0.1409
  558MOL0     H75322   2.115   6.504   5.359  4.0312 -1.3989 -0.1365
  558MOL0     H75323   2.149   6.480   5.532 -1.1229 -3.3661 -2.4787
  558MOL0     H75324   2.375   6.598   5.473  0.3633 -1.3756  1.0618
  558MOL0     H75325   2.349   6.455   5.370 -1.4963  0.0290 -2.8198
  558MOL0     H75326   2.413   6.781   5.110  1.4157 -2.2486 -0.7095
  558MOL0     H75327   1.901   6.659   5.864 -0.8760  0.5799  1.3577
  558MOL0     H75328   1.664   6.760   6.031 -0.9031  0.5633 -3.0272
  558MOL0     H75329   1.624   6.593   6.053  1.7201 -2.5175 -2.4295
  558MOL0     H75330   1.793   6.625   6.047 -0.8804 -1.5362  0.3939
  559MOL0     O75331   2.744   9.996   5.719 -0.2554 -0.1639  0.6712
  559MOL0     C75332   2.675   9.959   5.620 -0.1739 -0.1894  0.4691
  559MOL0     O75333   2.717   9.953   5.498  0.2471 -0.2121  0.6359
  559MOL0     C75334   2.851   9.989   5.482  0.0240 -1.0922  0.1977
  559MOL0     C75335   2.950   9.892   5.450  0.4310 -0.0489  0.1785
  559MOL0     C75336   3.081   9.927   5.411 -0.9001  0.0802  0.5059
  559MOL0     C75337   3.114  10.065   5.412 -0.8622  0.8308 -0.1686
  559MOL0     O75338   3.232  10.107   5.356 -0.4850  0.2604 -0.2368
  559MOL0     C75339   3.216  10.126   5.211 -0.1381  0.6024 -0.6190
  559MOL0     C75340   3.344  10.183   5.166 -0.6956 -0.6254  0.3131
  559MOL0     C75341   3.367  10.177   5.008  0.3261  0.6141  0.5538
  559MOL0     C75342   3.504  10.243   4.962  0.4812  1.4995  0.0001
  559MOL0     C75343   3.558  10.181   4.837 -0.1068  0.8716 -0.6823
  559MOL0     C75344   3.668  10.263   4.774 -0.1621  0.1011  0.2227
  559MOL0     C75345   3.727  10.212   4.642  0.1844 -0.3921 -0.9992
  559MOL0     C75346   3.837  10.301   4.584  0.3366 -0.6400  0.6685
  559MOL0     N75347   3.962  10.273   4.651 -0.8206  0.9560 -0.5082
  559MOL0     C75348   4.025  10.150   4.660  0.3851  0.6059  0.1120
  559MOL0     C75349   4.150  10.179   4.715  0.6711  0.6239  0.8962
  559MOL0     C75350   4.260  10.084   4.760 -0.7774 -0.2406 -0.3643
  559MOL0     C75351   4.391  10.103   4.674 -0.2118 -0.1371  0.6601
  559MOL0     C75352   4.388  10.075   4.521  0.6040 -0.8637 -0.4635
  559MOL0     C75353   4.325  10.181   4.428 -0.1506 -0.0623  0.1903
  559MOL0     O75354   4.344  10.316   4.455  0.9142 -0.4960  0.0189
  559MOL0     C75355   4.452  10.381   4.420  0.4527 -1.4804  0.1842
  559MOL0     C75356   4.479  10.514   4.474 -0.3394 -0.1305  0.1781
  559MOL0     C75357   4.597  10.583   4.461 -0.5887  0.3582 -0.9156
  559MOL0     C75358   4.702  10.527   4.376 -0.6088  0.1034 -0.8567
  559MOL0     C75359   4.837  10.591   4.355  0.3244  0.0104  0.3253
  559MOL0     O75360   4.880  10.678   4.452  0.4651 -0.0822  0.1542
  559MOL0     C75361   5.009  10.727   4.442  0.6711  0.2220 -0.3664
  559MOL0     C75362   5.020  10.865   4.444 -0.4861  0.4799 -0.5223
  559MOL0     C75363   5.140  10.922   4.414 -0.3109  0.0974 -0.0886
  559MOL0     C75364   5.253  10.842   4.388  1.0923  0.7343  0.0752
  559MOL0     O75365   5.366  10.909   4.353 -0.3844  0.2021 -0.4756
  559MOL0     C75366   5.487  10.853   4.412 -0.3018 -0.3720  0.2283
  559MOL0     C75367   5.598  10.976   4.414  0.0913  0.1865 -0.6642
  559MOL0     C75368   5.736  10.920   4.448  0.3747 -0.1179 -0.8029
  559MOL0     C75369   5.832  11.037   4.459 -0.4321 -0.1205 -0.0807
  559MOL0     C75370   5.974  10.996   4.474 -0.1782 -0.5993 -0.4671
  559MOL0     C75371   6.048  10.970   4.341 -1.1354  0.4149  0.2717
  559MOL0     C75372   6.205  10.936   4.360  0.8831  0.2465 -0.3945
  559MOL0     C75373   6.295  11.052   4.424 -0.9095  0.2442  0.4819
  559MOL0    Cl75374   6.469  10.999   4.424 -0.1832 -0.1566  0.1618
  559MOL0     C75375   5.239  10.708   4.397  0.0622 -0.1245 -0.3915
  559MOL0     C75376   5.115  10.644   4.415 -0.5386  0.3693 -0.3536
  559MOL0     O75377   4.908  10.543   4.265 -0.1069 -0.2382  0.0960
  559MOL0     C75378   4.671  10.405   4.311 -0.8581 -0.3228 -0.1025
  559MOL0     C75379   4.549  10.334   4.336  0.0584 -0.3972  0.8839
  559MOL0     N75380   4.155  10.314   4.736 -0.0933 -0.0208  0.3040
  559MOL0     N75381   4.050  10.366   4.691  0.5072 -0.2833 -1.1525
  559MOL0     C75382   3.024  10.160   5.453  0.4667 -0.1499 -0.8047
  559MOL0     C75383   2.893  10.124   5.482  0.6312 -0.0370 -0.0065
  559MOL0     C75384   2.528   9.927   5.629  1.3133  0.5678 -0.3463
  559MOL0     C75385   2.442   9.952   5.523  0.9847 -0.5371  0.5073
  559MOL0     C75386   2.300   9.906   5.537 -0.2335 -0.9656  0.0168
  559MOL0     C75387   2.254   9.835   5.647 -0.3871  0.7657 -0.7938
  559MOL0     O75388   2.118   9.808   5.654 -0.5648  1.0122 -0.0302
  559MOL0     C75389   2.050   9.816   5.775 -0.5412  0.2743 -0.2051
  559MOL0     C75390   1.908   9.761   5.775 -0.0125 -0.3998  0.0441
  559MOL0     C75391   1.898   9.617   5.713  0.0831  0.4388 -0.0223
  559MOL0     C75392   1.788   9.625   5.611  0.0800  0.3502 -0.3272
  559MOL0     C75393   1.748   9.489   5.592  0.8814  0.1569 -0.1111
  559MOL0     C75394   1.716   9.376   5.569  0.4106  0.7609 -0.4566
  559MOL0     C75395   2.345   9.812   5.754  0.1798 -0.2717  0.5562
  559MOL0     C75396   2.475   9.854   5.742  0.3001 -0.5198 -0.9431
  559MOL0     C75397   2.563   9.813   5.863  0.3716 -0.6907 -1.1309
  559MOL0     H75398   2.926   9.786   5.461  0.5802  0.1672  3.5103
  559MOL0     H75399   3.161   9.862   5.376 -1.9364 -0.6062 -0.6756
  559MOL0     H75400   3.190  10.036   5.155 -1.3551  0.8881 -0.5452
  559MOL0     H75401   3.132  10.195   5.202 -3.3164 -1.9718  4.3352
  559MOL0     H75402   3.425  10.123   5.207  2.4387  2.1487 -1.3238
  559MOL0     H75403   3.357  10.283   5.208  1.3324 -1.0466  0.7635
  559MOL0     H75404   3.284  10.226   4.956  1.5948  0.2078 -1.9785
  559MOL0     H75405   3.364  10.071   4.982  0.8258  1.4566 -3.6068
  559MOL0     H75406   3.498  10.350   4.942  1.9669  1.7097  0.5818
  559MOL0     H75407   3.575  10.234   5.044  1.8118  1.2478 -1.1437
  559MOL0     H75408   3.599  10.081   4.859 -0.9203  0.4564 -1.0273
  559MOL0     H75409   3.467  10.182   4.777 -0.1777  1.9523 -0.5653
  559MOL0     H75410   3.614  10.356   4.754 -0.4220 -0.2561 -0.8041
  559MOL0     H75411   3.746  10.270   4.850 -0.0471 -4.0788  0.6714
  559MOL0     H75412   3.649  10.205   4.566  0.5089  0.2520 -1.4010
  559MOL0     H75413   3.763  10.111   4.665 -2.4102 -1.0324  0.7270
  559MOL0     H75414   3.834  10.284   4.476  3.0868  3.4138 -0.3154
  559MOL0     H75415   3.803  10.404   4.600  2.8665  0.5800 -1.1266
  559MOL0     H75416   3.995  10.051   4.628 -0.8004  1.1542 -0.5285
  559MOL0     H75417   4.288  10.099   4.865  0.0886 -1.5668 -0.3943
  559MOL0     H75418   4.230   9.979   4.754  2.1157 -1.2957  1.4340
  559MOL0     H75419   4.428  10.205   4.690  3.3652 -1.3195  0.7952
  559MOL0     H75420   4.475  10.048   4.717  0.3577  0.0068 -0.2435
  559MOL0     H75421   4.335   9.979   4.513  2.6083 -2.2657  1.7302
  559MOL0     H75422   4.491  10.051   4.492  1.2788 -3.7650  3.5701
  559MOL0     H75423   4.217  10.162   4.423 -0.3903  1.0110  0.9000
  559MOL0     H75424   4.346  10.159   4.323 -2.0628  1.2809 -0.5386
  559MOL0     H75425   4.400  10.568   4.525  1.5142 -0.0264  3.2065
  559MOL0     H75426   4.606  10.671   4.523  0.9005 -2.5473  3.5194
  559MOL0     H75427   4.933  10.923   4.475  1.4011  2.3869  1.6029
  559MOL0     H75428   5.156  11.029   4.405  1.5595 -0.3177 -2.5008
  559MOL0     H75429   5.474  10.812   4.513 -1.3299  0.1593  0.3265
  559MOL0     H75430   5.540  10.772   4.363  1.7832 -0.1517  1.9362
  559MOL0     H75431   5.616  11.015   4.314  2.3260 -1.5176 -1.0050
  559MOL0     H75432   5.574  11.062   4.477 -0.2515  1.2620 -2.2059
  559MOL0     H75433   5.748  10.865   4.542  2.5290 -4.5821 -3.3379
  559MOL0     H75434   5.781  10.856   4.372 -1.1939 -2.8277  0.3987
  559MOL0     H75435   5.798  11.091   4.549 -1.9426  0.5807 -1.0282
  559MOL0     H75436   5.844  11.105   4.374 -0.7101  1.0794  0.8082
  559MOL0     H75437   5.983  10.911   4.543  0.2179 -1.8969 -2.0552
  559MOL0     H75438   6.036  11.079   4.508  4.2915 -2.2068 -3.7165
  559MOL0     H75439   6.010  10.897   4.270 -0.8520  0.7093 -0.1863
  559MOL0     H75440   6.055  11.065   4.289  0.4734  0.5806  0.7098
  559MOL0     H75441   6.241  10.915   4.259 -0.7685 -0.3085 -0.9027
  559MOL0     H75442   6.223  10.853   4.429 -1.7913  0.7180  1.0002
  559MOL0     H75443   6.279  11.140   4.362  3.1518  1.7222  1.2418
  559MOL0     H75444   6.282  11.071   4.531  2.9148  1.9650  0.8041
  559MOL0     H75445   5.329  10.651   4.374  1.5663  1.7065  0.6877
  559MOL0     H75446   5.106  10.537   4.403  1.4142  0.2057 -0.6680
  559MOL0     H75447   4.732  10.359   4.234  0.6353  0.9209  0.2871
  559MOL0     H75448   4.546  10.231   4.302 -3.2172  0.7914 -3.2599
  559MOL0     H75449   3.054  10.264   5.457  0.6348 -0.1658  3.9135
  559MOL0     H75450   2.813  10.196   5.498 -0.6884 -1.5922  0.7139
  559MOL0     H75451   2.468  10.002   5.431 -2.5677 -2.1105 -1.5724
  559MOL0     H75452   2.235   9.931   5.454  0.4416 -1.8627 -0.8109
  559MOL0     H75453   2.044   9.918   5.814 -1.9048  0.1821 -0.1083
  559MOL0     H75454   2.097   9.756   5.853  0.8495  2.9890  1.1832
  559MOL0     H75455   1.847   9.835   5.721  0.2735 -1.1464 -1.3584
  559MOL0     H75456   1.868   9.758   5.877 -0.7451  1.9195 -0.1224
  559MOL0     H75457   1.873   9.546   5.792 -0.1635  1.9512  1.3100
  559MOL0     H75458   1.984   9.584   5.655  0.7157  1.4749  0.2912
  559MOL0     H75459   1.700   9.686   5.633  0.7554  1.8798 -1.6572
  559MOL0     H75460   1.830   9.660   5.517 -1.2509  1.3340 -0.5778
  559MOL0     H75461   1.703   9.271   5.554  0.2645  0.3183  2.3343
  559MOL0     H75462   2.312   9.765   5.846  3.0186 -1.8399  0.8960
  559MOL0     H75463   2.510   9.747   5.932 -3.1135  1.2793 -1.6613
  559MOL0     H75464   2.663   9.778   5.836  0.9854  1.1528 -1.4117
  559MOL0     H75465   2.596   9.900   5.921 -0.1530 -0.5238 -1.0740
  560MOL0     O75466   6.124   7.468   6.035 -0.4714 -0.5013  0.4147
  560MOL0     C75467   6.148   7.443   5.913 -0.4749 -0.1507 -0.4977
  560MOL0     O75468   6.054   7.434   5.819 -0.4063 -0.2169  0.1464
  560MOL0     C75469   5.927   7.481   5.850  0.8024 -0.4019 -0.3291
  560MOL0     C75470   5.848   7.403   5.932 -0.1011  0.0706 -0.0999
  560MOL0     C75471   5.718   7.459   5.960  0.5063  0.8710  0.4404
  560MOL0     C75472   5.680   7.587   5.915 -0.7416 -0.1556 -0.4253
  560MOL0     O75473   5.553   7.632   5.950 -0.0958 -0.1926  0.5124
  560MOL0     C75474   5.506   7.767   5.913 -0.3875 -0.2006  0.8211
  560MOL0     C75475   5.360   7.782   5.945  0.6239  0.1566 -0.9673
  560MOL0     C75476   5.296   7.723   6.071 -0.3825  0.2642 -0.3588
  560MOL0     C75477   5.147   7.755   6.067 -0.3114 -0.9222 -0.9193
  560MOL0     C75478   5.082   7.646   5.988  0.4334 -0.1278 -0.3012
  560MOL0     C75479   4.932   7.621   6.028 -0.1031  0.4805 -1.0326
  560MOL0     C75480   4.855   7.517   5.948 -0.4478  0.2668  0.0849
  560MOL0     C75481   4.706   7.538   5.951  0.0827 -0.2702 -0.3761
  560MOL0     N75482   4.647   7.562   6.090  0.8794  0.3725  0.3168
  560MOL0     C75483   4.600   7.466   6.181  1.5932  0.0532  0.4088
  560MOL0     C75484   4.548   7.536   6.288  0.2809  0.1653 -0.3947
  560MOL0     C75485   4.467   7.474   6.396 -0.2105 -0.5062  0.0706
  560MOL0     C75486   4.504   7.520   6.537 -0.7060 -0.0348  0.1050
  560MOL0     C75487   4.611   7.432   6.606 -0.0659 -0.0781 -0.8282
  560MOL0     C75488   4.740   7.406   6.523  0.0672  0.4186 -0.3121
  560MOL0     O75489   4.811   7.531   6.503 -0.5800 -0.1007 -0.0337
  560MOL0     C75490   4.941   7.541   6.459  0.4723  0.1658 -0.3342
  560MOL0     C75491   5.012   7.665   6.473  0.7161  0.0085  0.0661
  560MOL0     C75492   5.148   7.677   6.445  0.5436  0.4011  0.0226
  560MOL0     C75493   5.227   7.559   6.407 -0.1309 -0.1918  1.0286
  560MOL0     C75494   5.374   7.574   6.381  0.1324 -0.4665  0.9480
  560MOL0     O75495   5.425   7.699   6.405  0.2308 -0.4215 -0.3104
  560MOL0     C75496   5.553   7.741   6.375  0.4896  0.0671  0.5127
  560MOL0     C75497   5.634   7.679   6.277  0.1584  0.1524  0.4154
  560MOL0     C75498   5.766   7.731   6.246 -0.4027 -0.3401 -0.1665
  560MOL0     C75499   5.808   7.853   6.298 -0.2565  0.0133 -0.7660
  560MOL0     O75500   5.923   7.911   6.252 -0.0950  0.1950 -0.6893
  560MOL0     C75501   6.029   7.824   6.220  0.2743  0.5046  0.0295
  560MOL0     C75502   6.158   7.908   6.240 -1.2302 -0.4544 -0.3208
  560MOL0     C75503   6.279   7.838   6.186  0.6524  0.7473  1.0548
  560MOL0     C75504   6.398   7.924   6.148 -0.4656  1.3805  0.3365
  560MOL0     C75505   6.509   7.824   6.099 -0.2736  0.4638 -0.0650
  560MOL0     C75506   6.627   7.918   6.080 -0.3207  0.2862  0.6627
  560MOL0     C75507   6.756   7.842   6.030  0.5238 -0.0784  0.0171
  560MOL0     C75508   6.737   7.754   5.911 -0.4541  0.0671 -0.3537
  560MOL0    Cl75509   6.876   7.767   5.803 -0.0213  0.2710  0.0946
  560MOL0     C75510   5.726   7.910   6.400 -0.3291 -0.0356 -0.6803
  560MOL0     C75511   5.593   7.862   6.432  0.4359 -0.3341 -0.2824
  560MOL0     O75512   5.438   7.479   6.342  0.1715 -0.7534 -0.1549
  560MOL0     C75513   5.157   7.444   6.392 -1.1265  0.0622  0.2163
  560MOL0     C75514   5.017   7.432   6.411 -0.8499 -0.1290  0.3093
  560MOL0     N75515   4.554   7.666   6.264 -0.5456 -0.1003 -0.5130
  560MOL0     N75516   4.624   7.683   6.150  0.1125 -0.1467 -0.7701
  560MOL0     C75517   5.790   7.663   5.854  0.4254  0.5170 -0.1365
  560MOL0     C75518   5.911   7.616   5.827  0.3131 -0.4673  0.6402
  560MOL0     C75519   6.295   7.423   5.869  0.9193  0.2747 -0.9661
  560MOL0     C75520   6.322   7.384   5.738  0.9124 -0.2418  0.4537
  560MOL0     C75521   6.445   7.374   5.689 -0.4952  1.3898  0.8021
  560MOL0     C75522   6.554   7.374   5.772  0.2808 -0.4604 -0.6522
  560MOL0     O75523   6.686   7.371   5.722  0.7208  0.5588  0.9819
  560MOL0     C75524   6.711   7.333   5.585  0.3457 -0.0876 -0.3992
  560MOL0     C75525   6.866   7.314   5.573 -0.7350  0.0163  0.0788
  560MOL0     C75526   6.885   7.302   5.420  0.6178 -0.2665 -0.3857
  560MOL0     C75527   6.859   7.161   5.377 -0.5442 -0.4587  0.3978
  560MOL0     C75528   6.866   7.180   5.233 -0.8012  0.4957  0.2940
  560MOL0     C75529   6.875   7.217   5.116 -0.3557  0.0233  0.3304
  560MOL0     C75530   6.535   7.395   5.909  0.1385  0.1316  0.1046
  560MOL0     C75531   6.405   7.420   5.964 -0.2511 -0.2490 -0.5010
  560MOL0     C75532   6.403   7.436   6.113  1.1694  0.3156 -0.0842
  560MOL0     H75533   5.874   7.303   5.966  0.8038  0.3356 -0.0129
  560MOL0     H75534   5.639   7.401   6.008 -2.7237  2.9426 -2.0192
  560MOL0     H75535   5.560   7.844   5.969 -0.1657 -0.2666  0.7009
  560MOL0     H75536   5.512   7.784   5.805 -2.3212  1.9686  0.9898
  560MOL0     H75537   5.296   7.730   5.872 -0.3993  1.5872 -1.1329
  560MOL0     H75538   5.338   7.889   5.941  0.5855  0.2560  1.0901
  560MOL0     H75539   5.343   7.768   6.160 -0.4539  1.9724 -1.1473
  560MOL0     H75540   5.312   7.615   6.073  0.8863  0.3087 -3.2651
  560MOL0     H75541   5.100   7.746   6.166 -0.3069  2.1331 -0.5672
  560MOL0     H75542   5.139   7.856   6.028  3.8443  0.6220  1.5073
  560MOL0     H75543   5.087   7.672   5.881 -0.1237 -0.2558 -0.3652
  560MOL0     H75544   5.132   7.550   6.006 -1.4563 -0.8712  1.3401
  560MOL0     H75545   4.912   7.600   6.133 -1.7932 -1.0650 -1.6123
  560MOL0     H75546   4.888   7.717   5.998 -0.2805  0.7842  0.1530
  560MOL0     H75547   4.877   7.414   5.978  1.5066  0.5581 -0.2470
  560MOL0     H75548   4.889   7.536   5.846 -1.0667  1.8783  0.1395
  560MOL0     H75549   4.682   7.624   5.888 -0.2709  0.4797  0.7368
  560MOL0     H75550   4.658   7.445   5.919  1.0536 -1.2772  0.9481
  560MOL0     H75551   4.616   7.358   6.181  0.7808 -0.0902  1.7496
  560MOL0     H75552   4.364   7.505   6.378  0.2112  2.1724  1.8682
  560MOL0     H75553   4.477   7.366   6.379 -0.5032 -0.3934 -0.8701
  560MOL0     H75554   4.541   7.623   6.531 -1.4264  0.1325 -2.5323
  560MOL0     H75555   4.415   7.523   6.600 -0.7128 -2.8534  0.3346
  560MOL0     H75556   4.565   7.342   6.647  1.4875  0.5030  2.5251
  560MOL0     H75557   4.642   7.477   6.701 -0.5209 -1.3285 -0.0608
  560MOL0     H75558   4.717   7.356   6.428  0.2391  0.1291 -0.2036
  560MOL0     H75559   4.795   7.328   6.576 -0.5736  0.4440  0.3992
  560MOL0     H75560   4.956   7.750   6.512 -1.1545 -0.8282 -0.6649
  560MOL0     H75561   5.180   7.780   6.456  0.7296  0.2537  0.9183
  560MOL0     H75562   5.606   7.586   6.228  0.8877  0.6546 -1.0186
  560MOL0     H75563   5.821   7.689   6.162  0.8256 -1.4548  1.1298
  560MOL0     H75564   6.022   7.742   6.293 -0.1045  0.2400 -0.3037
  560MOL0     H75565   6.016   7.784   6.119  1.0729 -0.1635  0.1761
  560MOL0     H75566   6.138   7.995   6.176 -2.7028 -2.3274 -2.5806
  560MOL0     H75567   6.187   7.939   6.340  1.2497 -0.4425 -0.9842
  560MOL0     H75568   6.307   7.755   6.251 -0.8539 -1.1268 -0.5390
  560MOL0     H75569   6.239   7.790   6.096  0.7120  0.6633  1.0732
  560MOL0     H75570   6.416   7.979   6.241 -1.5456  0.1088  1.3404
  560MOL0     H75571   6.369   7.995   6.070 -5.3319 -0.2937  0.2800
  560MOL0     H75572   6.480   7.788   6.000  0.2384  3.4628 -1.4038
  560MOL0     H75573   6.534   7.749   6.175  1.3744 -0.7919 -1.7447
  560MOL0     H75574   6.601   7.996   6.007  0.3272 -1.6277 -1.7427
  560MOL0     H75575   6.648   7.966   6.176 -0.8936  2.0722 -0.0546
  560MOL0     H75576   6.789   7.777   6.111  1.1946 -0.8608 -0.8616
  560MOL0     H75577   6.835   7.916   6.013  0.1137  0.3739  0.0574
  560MOL0     H75578   6.733   7.650   5.944  0.3325 -0.1310 -0.8591
  560MOL0     H75579   6.642   7.766   5.859  0.2200  0.9245 -1.4284
  560MOL0     H75580   5.761   7.999   6.452 -0.2829  1.0025 -2.4018
  560MOL0     H75581   5.545   7.906   6.519 -1.0055  1.5987 -1.9528
  560MOL0     H75582   5.223   7.368   6.353  1.3492  1.8747  0.6231
  560MOL0     H75583   4.961   7.342   6.388  0.0329 -0.6516  0.1474
  560MOL0     H75584   5.774   7.763   5.817  2.7967 -0.3267 -3.9544
  560MOL0     H75585   5.995   7.674   5.790  0.3090  1.1888  2.9815
  560MOL0     H75586   6.249   7.365   5.660 -0.5580 -1.8378  2.1257
  560MOL0     H75587   6.453   7.362   5.582 -1.1297 -2.2488  1.0361
  560MOL0     H75588   6.685   7.422   5.528  0.5130  1.5602  1.9639
  560MOL0     H75589   6.655   7.244   5.556  1.4071 -2.4452  3.8991
  560MOL0     H75590   6.903   7.223   5.620 -4.0997 -0.7800  1.4891
  560MOL0     H75591   6.919   7.403   5.609  1.1398 -0.4818 -1.3347
  560MOL0     H75592   6.986   7.332   5.390  1.5400  0.4827  3.0370
  560MOL0     H75593   6.828   7.381   5.369  2.4867  1.0435 -0.5598
  560MOL0     H75594   6.935   7.098   5.423 -0.3232 -0.4131  0.1010
  560MOL0     H75595   6.763   7.127   5.414 -1.3280  2.4778  1.3799
  560MOL0     H75596   6.878   7.257   5.017  0.9827 -3.0874 -1.0175
  560MOL0     H75597   6.619   7.410   5.974 -0.9262  1.7044  1.1815
  560MOL0     H75598   6.320   7.373   6.149  2.5687 -0.4000  2.0963
  560MOL0     H75599   6.497   7.401   6.157  0.9704 -0.0300  0.0806
  560MOL0     H75600   6.382   7.538   6.144  0.1575 -0.6280  2.6468
  561MOL0     O75601   6.179  11.154   6.718  0.1661 -0.2872  0.2051
  561MOL0     C75602   6.145  11.257   6.659 -0.1857 -0.1901  0.0923
  561MOL0     O75603   6.230  11.353   6.604 -0.4598  0.0328  0.6861
  561MOL0     C75604   6.370  11.327   6.592  0.0652 -0.3994  0.7907
  561MOL0     C75605   6.444  11.369   6.477  0.1209  0.2549  0.6069
  561MOL0     C75606   6.580  11.335   6.462  0.8856 -0.5570  0.4212
  561MOL0     C75607   6.647  11.278   6.567 -0.9522  0.3162 -0.1710
  561MOL0     O75608   6.779  11.249   6.548 -0.4515 -0.6507  0.2064
  561MOL0     C75609   6.865  11.231   6.664 -0.1501  0.0199  0.8338
  561MOL0     C75610   7.012  11.223   6.636  0.1648 -0.7772  0.5198
  561MOL0     C75611   7.089  11.239   6.764 -0.2045  0.2256 -0.1812
  561MOL0     C75612   7.232  11.179   6.744  0.4599  0.2536  0.3735
  561MOL0     C75613   7.331  11.221   6.854  0.5915 -0.0568  0.7221
  561MOL0     C75614   7.300  11.168   6.994  0.5029  0.1521 -0.5247
  561MOL0     C75615   7.290  11.017   6.994  0.4414 -0.1405  0.0561
  561MOL0     C75616   7.408  10.950   6.932 -0.8544  0.8009 -0.9866
  561MOL0     N75617   7.430  10.813   6.983  0.4860 -0.1136  0.4631
  561MOL0     C75618   7.530  10.773   7.068  0.4599 -0.9958 -0.5519
  561MOL0     C75619   7.509  10.650   7.098  0.6473  0.2249  0.6094
  561MOL0     C75620   7.598  10.561   7.184  0.4293 -0.8792 -0.2886
  561MOL0     C75621   7.583  10.626   7.318 -0.8469  0.2105 -0.3128
  561MOL0     C75622   7.656  10.545   7.422  0.0617  0.1111  0.3680
  561MOL0     C75623   7.655  10.606   7.566 -0.2413  0.0446 -0.8415
  561MOL0     O75624   7.743  10.715   7.577  0.6584 -0.7305 -1.0091
  561MOL0     C75625   7.881  10.696   7.596 -0.2052  0.1827 -0.5691
  561MOL0     C75626   7.954  10.577   7.617  0.1495 -0.8371  0.5788
  561MOL0     C75627   8.091  10.592   7.634  0.5877  0.1296 -0.6924
  561MOL0     C75628   8.172  10.705   7.629  1.2403  0.6218 -0.3368
  561MOL0     C75629   8.316  10.709   7.637 -0.3589 -0.7507  0.0159
  561MOL0     O75630   8.367  10.837   7.623  0.1602  0.3167  0.2732
  561MOL0     C75631   8.501  10.867   7.625  0.4644  0.2532  0.5649
  561MOL0     C75632   8.544  10.967   7.541 -0.7591  0.2247 -0.2617
  561MOL0     C75633   8.677  11.012   7.555  0.7504 -0.8602 -0.4536
  561MOL0     C75634   8.774  10.962   7.637  0.4822 -0.8234  0.5643
  561MOL0     O75635   8.899  11.006   7.608  0.3960  0.3328  0.3698
  561MOL0     C75636   9.004  10.956   7.701 -0.0936 -0.8078  0.2374
  561MOL0     C75637   9.128  11.041   7.697  0.3920  0.1780 -0.7142
  561MOL0     C75638   9.193  11.041   7.562 -0.8925 -0.0288 -0.0099
  561MOL0     C75639   9.325  11.111   7.599 -0.4710  0.4829 -0.5817
  561MOL0     C75640   9.415  11.124   7.473  0.6767  0.2872  0.3845
  561MOL0     C75641   9.563  11.132   7.488 -0.5956  0.5019  0.0905
  561MOL0     C75642   9.641  11.152   7.358  0.2489  0.2545 -0.3200
  561MOL0     C75643   9.790  11.108   7.371  1.4617  0.0164 -0.1388
  561MOL0    Cl75644   9.869  11.204   7.494 -0.4771  0.1516 -0.1548
  561MOL0     C75645   8.728  10.858   7.716 -0.0974 -0.8248  0.2485
  561MOL0     C75646   8.592  10.818   7.719  0.3799 -0.1328 -0.7191
  561MOL0     O75647   8.383  10.609   7.624  0.1663 -0.1465 -0.6344
  561MOL0     C75648   8.088  10.821   7.589 -0.6543 -0.4284  0.6388
  561MOL0     C75649   7.952  10.812   7.577 -0.8681 -0.3132 -0.8353
  561MOL0     N75650   7.404  10.602   7.024 -0.5616 -0.3509  0.5888
  561MOL0     N75651   7.361  10.702   6.946  1.3534  0.7497 -0.6558
  561MOL0     C75652   6.578  11.241   6.685 -0.2230 -0.0382  0.0304
  561MOL0     C75653   6.442  11.267   6.695  0.4588 -0.4179 -0.5220
  561MOL0     C75654   5.998  11.288   6.652 -1.2358 -0.2790  0.4276
  561MOL0     C75655   5.947  11.382   6.554  0.2619  0.8078 -0.2919
  561MOL0     C75656   5.817  11.433   6.568 -0.4000  0.1180 -0.1757
  561MOL0     C75657   5.722  11.390   6.654 -0.6680 -0.1387 -0.3066
  561MOL0     O75658   5.601  11.453   6.637 -0.5793  0.6517  0.0894
  561MOL0     C75659   5.489  11.402   6.717 -0.1381 -0.7341 -0.0027
  561MOL0     C75660   5.453  11.473   6.845 -0.1626 -0.4554  0.0911
  561MOL0     C75661   5.552  11.487   6.954 -0.2413 -0.9040  0.3090
  561MOL0     C75662   5.487  11.541   7.085 -0.6969 -0.9103  0.0791
  561MOL0     C75663   5.467  11.680   7.098 -0.1332  0.1501  0.6347
  561MOL0     C75664   5.427  11.796   7.110 -0.3523 -0.0699  0.5071
  561MOL0     C75665   5.770  11.288   6.745 -0.6500  0.5845 -1.0165
  561MOL0     C75666   5.903  11.251   6.750 -0.2938 -0.8459  0.2800
  561MOL0     C75667   5.933  11.157   6.861  0.2239  0.4247 -0.1222
  561MOL0     H75668   6.386  11.400   6.390  0.1286 -0.1298  0.4608
  561MOL0     H75669   6.637  11.351   6.371  2.9650  0.1970  1.7501
  561MOL0     H75670   6.854  11.308   6.740 -1.0229 -0.6911  1.4476
  561MOL0     H75671   6.825  11.141   6.711 -0.0965 -0.9707 -0.9167
  561MOL0     H75672   7.030  11.305   6.567 -3.5401  1.7043  2.1504
  561MOL0     H75673   7.032  11.129   6.584  2.2307 -0.4058  0.5717
  561MOL0     H75674   7.040  11.187   6.848 -0.7096  1.7733  0.5246
  561MOL0     H75675   7.084  11.347   6.783  2.1413 -0.0856  3.1991
  561MOL0     H75676   7.220  11.070   6.752  0.8146  0.2530  0.9481
  561MOL0     H75677   7.273  11.219   6.651  1.8294  1.8752  1.6199
  561MOL0     H75678   7.427  11.185   6.816 -0.3829 -2.4506  0.3421
  561MOL0     H75679   7.334  11.330   6.861 -0.7038  0.0441  0.0253
  561MOL0     H75680   7.383  11.197   7.059 -0.4477  1.3760  0.1865
  561MOL0     H75681   7.206  11.211   7.029 -0.1664 -0.5995 -1.3537
  561MOL0     H75682   7.196  10.982   6.949 -0.2133 -3.2768  3.3817
  561MOL0     H75683   7.283  10.989   7.100 -0.8001  0.8485  0.2602
  561MOL0     H75684   7.406  10.953   6.822  0.1818  0.3494 -1.0214
  561MOL0     H75685   7.504  10.994   6.958 -1.0117  1.1201 -0.9320
  561MOL0     H75686   7.605  10.839   7.110  2.5976 -4.2688  1.1582
  561MOL0     H75687   7.565  10.457   7.191 -2.8504  0.1054  0.7259
  561MOL0     H75688   7.706  10.563   7.166  0.5848 -1.4562  0.5139
  561MOL0     H75689   7.611  10.731   7.320 -0.5407  0.1460 -0.8379
  561MOL0     H75690   7.476  10.614   7.335 -1.1678  1.0475 -1.6192
  561MOL0     H75691   7.758  10.528   7.386 -0.5598 -0.0738 -1.4004
  561MOL0     H75692   7.611  10.446   7.432 -2.4715  1.2502  0.9540
  561MOL0     H75693   7.681  10.529   7.639 -0.1003  0.5333 -0.3659
  561MOL0     H75694   7.557  10.641   7.598  0.0328  0.0694  0.0040
  561MOL0     H75695   7.899  10.483   7.616 -1.2125 -0.0530  0.3168
  561MOL0     H75696   8.134  10.493   7.647 -3.3404 -1.5296  1.1313
  561MOL0     H75697   8.482  11.012   7.464 -0.3563  2.7137  0.7636
  561MOL0     H75698   8.694  11.100   7.494 -0.6449 -1.0484 -1.1762
  561MOL0     H75699   8.969  10.967   7.804 -0.4916  1.1082 -0.0533
  561MOL0     H75700   9.039  10.856   7.675  0.4749 -0.9777  1.5860
  561MOL0     H75701   9.109  11.145   7.724 -1.0351  0.8795 -3.9352
  561MOL0     H75702   9.199  11.006   7.773 -0.6043  1.2088  0.7622
  561MOL0     H75703   9.201  10.937   7.531  1.0503 -0.5243  1.9104
  561MOL0     H75704   9.136  11.099   7.489 -0.6008  0.6899  0.3153
  561MOL0     H75705   9.375  11.043   7.670 -4.1634 -2.0091 -0.0998
  561MOL0     H75706   9.300  11.203   7.652 -2.4537 -1.6386  2.5261
  561MOL0     H75707   9.380  11.217   7.427 -1.5969  0.3054  1.9870
  561MOL0     H75708   9.389  11.040   7.407  0.7409 -0.9430  1.8709
  561MOL0     H75709   9.594  11.213   7.554 -0.5260 -0.1841  0.9295
  561MOL0     H75710   9.595  11.040   7.538 -2.0167  0.1712  0.4549
  561MOL0     H75711   9.626  11.253   7.318 -2.9825  0.2309  0.5211
  561MOL0     H75712   9.606  11.086   7.278  3.5236  2.1728 -3.6892
  561MOL0     H75713   9.780  11.005   7.407 -1.0564  0.2216 -0.0600
  561MOL0     H75714   9.834  11.114   7.271 -0.0199  0.1398 -0.8105
  561MOL0     H75715   8.805  10.815   7.779  0.5133  0.6884  0.5883
  561MOL0     H75716   8.554  10.752   7.796 -0.0497  1.0760  0.1247
  561MOL0     H75717   8.128  10.920   7.569  0.8688 -0.7509  1.8440
  561MOL0     H75718   7.893  10.902   7.566  0.1500  0.4657 -0.1097
  561MOL0     H75719   6.624  11.189   6.768 -0.8426  0.3066  0.5967
  561MOL0     H75720   6.386  11.231   6.780  0.7922  0.6805  0.1878
  561MOL0     H75721   6.015  11.409   6.473  2.9545 -1.4970  1.0406
  561MOL0     H75722   5.783  11.496   6.486 -0.4032 -1.0465 -1.0830
  561MOL0     H75723   5.501  11.295   6.737 -0.8710 -0.3358  3.1740
  561MOL0     H75724   5.399  11.409   6.655 -0.0906  0.3045  0.0258
  561MOL0     H75725   5.376  11.402   6.880 -0.5375 -0.9583 -1.6571
  561MOL0     H75726   5.406  11.569   6.823  2.1708  1.1098  1.4299
  561MOL0     H75727   5.633  11.556   6.929 -1.4832  0.8954  0.9631
  561MOL0     H75728   5.595  11.389   6.974  0.2145 -0.5710  1.0016
  561MOL0     H75729   5.389  11.497   7.101 -0.9690 -0.4363 -0.2535
  561MOL0     H75730   5.553  11.511   7.167  1.6271  0.1281 -1.3142
  561MOL0     H75731   5.375  11.888   7.126 -2.5304 -1.0676 -0.4345
  561MOL0     H75732   5.705  11.249   6.823 -1.4113  1.9568 -0.9344
  561MOL0     H75733   5.976  11.063   6.828 -2.2257 -0.9042  0.2387
  561MOL0     H75734   6.011  11.197   6.927  1.7716 -1.2392 -0.8689
  561MOL0     H75735   5.848  11.119   6.919 -0.8764  0.9460 -1.3401
  562MOL0     O75736  10.733   0.713   0.290 -0.0866 -0.7539 -0.3806
  562MOL0     C75737  10.617   0.740   0.246 -0.4772 -0.3807  0.4671
  562MOL0     O75738  10.560   0.866   0.216  1.0544 -0.0615  0.0154
  562MOL0     C75739  10.625   0.985   0.224 -0.2346 -0.1587  0.5468
  562MOL0     C75740  10.577   1.086   0.139 -0.0241  0.0856 -0.1675
  562MOL0     C75741  10.631   1.211   0.151  0.2410 -0.0081 -0.8904
  562MOL0     C75742  10.732   1.253   0.239 -0.1209 -0.5627  0.4167
  562MOL0     O75743  10.784   1.382   0.241  0.0336 -0.0369  0.4694
  562MOL0     C75744  10.798   1.458   0.115  0.0850 -0.0350 -0.0363
  562MOL0     C75745  10.895   1.575   0.132 -0.4908  0.0896  0.1093
  562MOL0     C75746  11.037   1.534   0.172 -0.3942  0.1481 -0.0281
  562MOL0     C75747  11.131   1.505   0.051  1.0537 -0.0743  0.5621
  562MOL0     C75748  11.278   1.517   0.093 -1.5651 -0.3253 -0.5710
  562MOL0     C75749  11.370   1.481  -0.029  1.3110  0.0720 -0.8294
  562MOL0     C75750  11.502   1.480   0.018 -0.3206  0.0126 -0.4465
  562MOL0     C75751  11.597   1.394  -0.077 -0.3540 -0.5620  0.1674
  562MOL0     N75752  11.739   1.424  -0.048  0.3021  0.0186  0.1816
  562MOL0     C75753  11.797   1.443   0.071 -1.1977  0.0416  0.4205
  562MOL0     C75754  11.934   1.416   0.061  0.1147  0.1817  0.8702
  562MOL0     C75755  12.043   1.426   0.166 -0.3713  0.3032  0.1362
  562MOL0     C75756  12.182   1.373   0.111 -0.0596 -0.1066  0.0568
  562MOL0     C75757  12.169   1.222   0.095 -0.7972 -0.0080 -0.3153
  562MOL0     C75758  12.284   1.136   0.147 -0.7075 -0.1643  0.3692
  562MOL0     O75759  12.416   1.160   0.083 -0.0232  0.4807  0.2284
  562MOL0     C75760  12.519   1.077   0.118 -0.3768  0.1649  0.2690
  562MOL0     C75761  12.544   1.030   0.245 -0.4710 -0.0636  0.7094
  562MOL0     C75762  12.652   0.952   0.272 -0.6536 -0.3296  0.0680
  562MOL0     C75763  12.750   0.925   0.173 -0.0322 -1.1301  0.0436
  562MOL0     C75764  12.872   0.852   0.216  0.4393 -0.1989  0.3655
  562MOL0     O75765  12.871   0.782   0.330 -0.0757  0.4801  0.7730
  562MOL0     C75766  12.994   0.723   0.367  0.0944  0.2053  0.1308
  562MOL0     C75767  12.980   0.586   0.391 -0.2694  0.2961 -0.4012
  562MOL0     C75768  13.088   0.503   0.427 -0.1966 -0.2942 -0.1082
  562MOL0     C75769  13.217   0.567   0.460  0.0320 -0.8274 -0.6390
  562MOL0     O75770  13.320   0.479   0.497 -0.3536 -0.5856 -0.1309
  562MOL0     C75771  13.457   0.518   0.532  0.1109  0.4249 -0.3223
  562MOL0     C75772  13.521   0.395   0.602 -0.3196  0.0369  0.6058
  562MOL0     C75773  13.553   0.285   0.503  1.0071 -0.1518  0.1362
  562MOL0     C75774  13.629   0.168   0.575 -0.7355  0.3617  0.6066
  562MOL0     C75775  13.643   0.043   0.492 -0.4274  1.8724  0.6074
  562MOL0     C75776  13.652  -0.092   0.569  0.4734 -0.3582  0.4469
  562MOL0     C75777  13.740  -0.192   0.482  0.1992 -0.6323  0.3375
  562MOL0     C75778  13.773  -0.322   0.557 -0.5059  0.3575 -0.1597
  562MOL0    Cl75779  13.913  -0.399   0.469 -0.1600 -0.0057 -0.1734
  562MOL0     C75780  13.227   0.704   0.435  0.5591  1.3181  0.2004
  562MOL0     C75781  13.120   0.780   0.391  0.5451 -0.4725  0.2602
  562MOL0     O75782  12.970   0.861   0.138 -0.4876  0.2711 -0.1809
  562MOL0     C75783  12.736   0.986   0.049  0.7452 -0.1766  0.4787
  562MOL0     C75784  12.613   1.050   0.012 -0.0275  0.1682 -0.1977
  562MOL0     N75785  11.949   1.374  -0.075  0.1189 -0.9639 -0.5883
  562MOL0     N75786  11.833   1.375  -0.136 -0.8160 -0.2243  0.3316
  562MOL0     C75787  10.784   1.150   0.319 -0.4301 -0.8814 -0.2110
  562MOL0     C75788  10.733   1.019   0.306  0.0392  0.3691 -0.2399
  562MOL0     C75789  10.520   0.629   0.256 -0.0807  0.2570  0.1370
  562MOL0     C75790  10.565   0.511   0.316  0.2341 -0.3132  0.3468
  562MOL0     C75791  10.472   0.418   0.349  0.3225  0.2483 -0.5822
  562MOL0     C75792  10.347   0.413   0.311 -0.1665 -0.0462 -0.2582
  562MOL0     O75793  10.273   0.312   0.361 -0.2897  0.2697  0.8692
  562MOL0     C75794  10.136   0.296   0.324 -0.2952 -0.3570  0.8492
  562MOL0     C75795  10.066   0.191   0.405  0.6224 -0.2474  0.0000
  562MOL0     C75796  10.075   0.049   0.350  0.6565  0.1566 -0.8444
  562MOL0     C75797  10.222  -0.002   0.370  0.5790 -0.6597 -0.5528
  562MOL0     C75798  10.238  -0.142   0.332 -0.3952  0.3263 -0.6718
  562MOL0     C75799  10.278  -0.253   0.299  0.5372  0.2403  0.1119
  562MOL0     C75800  10.299   0.517   0.226  0.1218  0.5772 -0.6260
  562MOL0     C75801  10.384   0.628   0.194 -1.1607  0.0057 -0.0967
  562MOL0     C75802  10.326   0.733   0.104 -0.0040 -0.4929  0.1328
  562MOL0     H75803  10.491   1.060   0.078 -0.2128 -1.9578  0.8728
  562MOL0     H75804  10.587   1.291   0.092 -1.1906  1.4957  1.9729
  562MOL0     H75805  10.849   1.394   0.042 -1.3706 -1.9095  0.5083
  562MOL0     H75806  10.701   1.481   0.070  0.2224 -0.7985 -0.7544
  562MOL0     H75807  10.850   1.635   0.211  0.6551 -1.1984  1.8080
  562MOL0     H75808  10.905   1.642   0.046  0.3595 -1.7064 -1.2607
  562MOL0     H75809  11.027   1.443   0.232  4.0515 -0.2556  0.4489
  562MOL0     H75810  11.076   1.621   0.224 -1.8510 -0.2414  1.8189
  562MOL0     H75811  11.100   1.406   0.016 -2.0027  0.6928  0.7530
  562MOL0     H75812  11.118   1.575  -0.032  1.7973  0.6153  1.0268
  562MOL0     H75813  11.302   1.617   0.129 -0.2381 -0.1546 -1.8436
  562MOL0     H75814  11.298   1.453   0.179 -2.9075 -1.2643 -0.9317
  562MOL0     H75815  11.337   1.389  -0.079  2.3278 -0.0980 -1.2204
  562MOL0     H75816  11.349   1.547  -0.113  0.2129 -0.8595 -1.3164
  562MOL0     H75817  11.512   1.435   0.117 -1.8993  0.5447 -0.0294
  562MOL0     H75818  11.533   1.583   0.038  2.7145 -1.2111  1.9650
  562MOL0     H75819  11.583   1.287  -0.062  0.2959 -1.0455 -2.2825
  562MOL0     H75820  11.577   1.426  -0.180  2.9933 -2.0226 -1.0754
  562MOL0     H75821  11.737   1.472   0.157  0.1143  0.9819  1.0539
  562MOL0     H75822  12.050   1.534   0.186 -0.9717  0.5079 -0.7105
  562MOL0     H75823  12.023   1.375   0.261  0.6160  0.1432  0.2744
  562MOL0     H75824  12.214   1.435   0.026 -1.3158  1.9179  0.9680
  562MOL0     H75825  12.261   1.395   0.184  1.0959  1.4539 -1.5599
  562MOL0     H75826  12.161   1.190  -0.009  0.7827 -3.4208  0.4494
  562MOL0     H75827  12.073   1.195   0.140  0.4980  0.8633  3.3618
  562MOL0     H75828  12.251   1.033   0.135  0.0362 -0.3515 -0.1829
  562MOL0     H75829  12.289   1.160   0.254 -3.0389  0.4736  0.3852
  562MOL0     H75830  12.482   1.073   0.323 -0.7992  1.7838 -0.5077
  562MOL0     H75831  12.677   0.934   0.376  0.7370 -0.8328 -0.3195
  562MOL0     H75832  12.880   0.544   0.387 -1.3192  2.6927 -1.0246
  562MOL0     H75833  13.083   0.396   0.442  4.6115 -0.6213  0.7807
  562MOL0     H75834  13.514   0.540   0.442  0.7681 -0.5661 -0.1672
  562MOL0     H75835  13.454   0.612   0.587  2.5733  1.0769 -1.1756
  562MOL0     H75836  13.612   0.437   0.647 -1.1577  0.8317  1.6284
  562MOL0     H75837  13.460   0.372   0.690 -0.0357  1.8591  1.3449
  562MOL0     H75838  13.461   0.231   0.475  0.7622  1.4305 -2.4189
  562MOL0     H75839  13.612   0.318   0.417  0.6478  0.2590  0.0449
  562MOL0     H75840  13.576   0.143   0.667 -0.8257 -1.4747  0.0944
  562MOL0     H75841  13.726   0.207   0.608 -0.2309  0.4067 -0.8353
  562MOL0     H75842  13.716   0.067   0.415 -0.3349  1.8113  0.6735
  562MOL0     H75843  13.554   0.027   0.431  0.1606 -2.1738  0.5142
  562MOL0     H75844  13.698  -0.065   0.664 -0.8128  1.1041  0.6995
  562MOL0     H75845  13.549  -0.130   0.580  0.1630 -0.0802 -1.3181
  562MOL0     H75846  13.831  -0.141   0.448 -1.2849  1.0035 -1.4671
  562MOL0     H75847  13.686  -0.218   0.390  0.9071  1.3508 -0.6927
  562MOL0     H75848  13.809  -0.287   0.654 -4.2319 -1.2378  2.0115
  562MOL0     H75849  13.690  -0.392   0.568 -0.7254  0.7348  0.6656
  562MOL0     H75850  13.324   0.752   0.442  0.8984  0.4648  2.4625
  562MOL0     H75851  13.143   0.886   0.390  2.2193 -0.8100 -0.4505
  562MOL0     H75852  12.816   0.974  -0.023  0.0966  2.6798 -0.8424
  562MOL0     H75853  12.603   1.082  -0.091  1.2323 -3.7472 -1.7366
  562MOL0     H75854  10.862   1.171   0.391  0.7277 -2.0154 -1.0815
  562MOL0     H75855  10.775   0.948   0.377 -1.4178  0.1522  0.4548
  562MOL0     H75856  10.669   0.491   0.343  0.1392 -1.6425 -0.2102
  562MOL0     H75857  10.495   0.329   0.407  2.5982 -0.1979 -2.0211
  562MOL0     H75858  10.133   0.275   0.217  0.4950 -2.0925  1.1317
  562MOL0     H75859  10.095   0.394   0.351  1.3094  0.2060  1.3604
  562MOL0     H75860   9.965   0.234   0.407 -0.1750 -1.8855  3.9020
  562MOL0     H75861  10.100   0.201   0.509 -0.0064  1.9600  0.0397
  562MOL0     H75862  10.057   0.057   0.242  0.2510 -0.1905 -0.8074
  562MOL0     H75863  10.004  -0.019   0.398  0.0499  1.4789  0.1803
  562MOL0     H75864  10.288   0.053   0.302 -1.3074  1.3667 -0.8604
  562MOL0     H75865  10.255   0.011   0.474  1.1250 -2.2216 -0.5098
  562MOL0     H75866  10.293  -0.354   0.268 -1.2721 -0.7442  2.1268
  562MOL0     H75867  10.198   0.515   0.185 -0.0938 -3.2058 -0.2728
  562MOL0     H75868  10.393   0.757   0.020 -1.7921  0.1864 -1.1859
  562MOL0     H75869  10.240   0.693   0.050  1.4378 -1.2259 -1.7333
  562MOL0     H75870  10.296   0.824   0.157 -1.0075 -1.1776  0.7612
  563MOL0     O75871   1.181   9.962   2.866  0.5109  0.5996  0.2280
  563MOL0     C75872   1.186   9.838   2.870  0.0264 -0.5416  0.1277
  563MOL0     O75873   1.084   9.751   2.850 -0.1092  0.5121  0.0557
  563MOL0     C75874   0.947   9.789   2.845 -0.4861 -0.3656 -0.0947
  563MOL0     C75875   0.884   9.882   2.930  0.4562 -0.5971 -0.8920
  563MOL0     C75876   0.749   9.906   2.927  0.2890 -0.2198 -0.0525
  563MOL0     C75877   0.668   9.842   2.825  0.2570 -1.0261  0.9397
  563MOL0     O75878   0.538   9.874   2.791  0.8163 -0.6071 -1.3306
  563MOL0     C75879   0.483   9.976   2.886 -0.5589  0.3491 -0.4284
  563MOL0     C75880   0.342  10.005   2.851 -0.1346  0.0049  0.2834
  563MOL0     C75881   0.250   9.881   2.848 -0.8883 -0.5645 -0.5698
  563MOL0     C75882   0.099   9.921   2.856 -0.3278  0.7343 -0.1454
  563MOL0     C75883   0.011   9.791   2.867 -0.3060 -0.3302 -0.0789
  563MOL0     C75884  -0.132   9.831   2.819  0.4675 -0.3185 -0.2967
  563MOL0     C75885  -0.205   9.938   2.909 -0.8114  0.4836 -0.2988
  563MOL0     C75886  -0.354   9.959   2.878  0.1612  0.3519  0.7859
  563MOL0     N75887  -0.427   9.850   2.946  0.4194 -0.3235  0.0964
  563MOL0     C75888  -0.486   9.744   2.874 -0.4849 -0.6157 -0.0769
  563MOL0     C75889  -0.486   9.644   2.963 -0.7141  1.1498  0.2061
  563MOL0     C75890  -0.544   9.517   2.910  0.6479  0.2627  0.2409
  563MOL0     C75891  -0.558   9.398   3.013  0.2787 -0.8263  0.1932
  563MOL0     C75892  -0.429   9.327   3.032  0.0248 -0.3888 -1.0757
  563MOL0     C75893  -0.372   9.357   3.174 -0.3442  0.8811 -0.1203
  563MOL0     O75894  -0.285   9.257   3.226  0.2994 -0.0132  0.4995
  563MOL0     C75895  -0.157   9.235   3.171  0.0408 -1.1771  0.2195
  563MOL0     C75896  -0.089   9.122   3.223  0.2077  0.0295 -0.4109
  563MOL0     C75897   0.027   9.085   3.177 -0.3505 -0.3430 -0.6643
  563MOL0     C75898   0.091   9.160   3.073 -0.2563  0.6515  0.1630
  563MOL0     C75899   0.221   9.113   3.023  0.1050 -0.1263  0.0782
  563MOL0     O75900   0.296   9.038   3.104 -0.1798 -0.0215 -1.0383
  563MOL0     C75901   0.412   8.987   3.053  0.3283 -0.5944 -0.2613
  563MOL0     C75902   0.417   8.859   2.994  0.5245  0.1590 -0.4960
  563MOL0     C75903   0.540   8.803   2.967  0.2861  0.6162  0.6043
  563MOL0     C75904   0.653   8.870   2.999 -0.9147  0.9861  0.0293
  563MOL0     O75905   0.767   8.805   2.964  0.1487  0.0444  0.8819
  563MOL0     C75906   0.890   8.828   3.039  0.2718 -0.7390 -0.1983
  563MOL0     C75907   0.885   8.748   3.170 -1.2834  0.0932 -0.0870
  563MOL0     C75908   1.009   8.765   3.254  0.1957  0.1834  0.2283
  563MOL0     C75909   0.997   8.658   3.367  0.7004 -0.8610  0.5769
  563MOL0     C75910   1.096   8.691   3.480 -0.4335  0.6463  0.2805
  563MOL0     C75911   1.104   8.588   3.593 -1.1083  0.4586  0.9764
  563MOL0     C75912   1.189   8.640   3.714  0.7211 -0.2686 -0.0560
  563MOL0     C75913   1.338   8.640   3.682  0.2564 -0.2068  0.5790
  563MOL0    Cl75914   1.401   8.474   3.646  0.1780 -0.0235  0.6095
  563MOL0     C75915   0.650   8.993   3.056 -0.8471 -0.5763 -0.4992
  563MOL0     C75916   0.531   9.056   3.087 -0.3956 -0.3912  0.4513
  563MOL0     O75917   0.246   9.134   2.909 -0.5726 -0.7503 -0.5426
  563MOL0     C75918   0.032   9.275   3.027 -0.0119 -0.5514  1.6617
  563MOL0     C75919  -0.097   9.309   3.070  0.2687  0.5395  0.3444
  563MOL0     N75920  -0.447   9.684   3.092  0.6367 -0.3806 -0.0517
  563MOL0     N75921  -0.422   9.806   3.076 -0.7368 -0.1362  0.1492
  563MOL0     C75922   0.725   9.753   2.728 -0.1784  0.6497  0.0387
  563MOL0     C75923   0.866   9.726   2.749  1.4127 -0.8994 -0.3557
  563MOL0     C75924   1.310   9.764   2.889 -1.0997  0.3013  0.3346
  563MOL0     C75925   1.341   9.656   2.800 -0.6982  0.6669 -0.2493
  563MOL0     C75926   1.453   9.580   2.821 -0.7590  0.2163  0.0705
  563MOL0     C75927   1.541   9.597   2.931  0.2473 -0.2596 -0.3542
  563MOL0     O75928   1.633   9.505   2.951 -0.2008  0.3626  0.0180
  563MOL0     C75929   1.742   9.553   3.026  0.2340 -0.5435  0.2528
  563MOL0     C75930   1.846   9.440   3.025  0.9370  0.4569  0.9785
  563MOL0     C75931   1.915   9.422   2.888  0.4714  0.2437  0.1594
  563MOL0     C75932   2.037   9.329   2.891  0.1480  0.6398 -0.1473
  563MOL0     C75933   2.145   9.377   2.805  0.3417 -0.7061  0.1674
  563MOL0     C75934   2.238   9.420   2.739 -0.6507  0.3078 -0.3864
  563MOL0     C75935   1.509   9.709   3.016 -0.3669  0.2878 -0.0660
  563MOL0     C75936   1.405   9.797   2.994  1.1190 -0.1120  0.4519
  563MOL0     C75937   1.409   9.929   3.081 -0.8251 -0.7987 -0.1312
  563MOL0     H75938   0.943   9.933   3.006 -1.3472 -2.6485  2.0854
  563MOL0     H75939   0.707   9.980   2.994  0.9780  0.6030 -0.4947
  563MOL0     H75940   0.489   9.937   2.987  0.2706 -1.6201 -1.1928
  563MOL0     H75941   0.534  10.073   2.889  1.8397 -0.8519  0.2919
  563MOL0     H75942   0.336  10.053   2.754  0.8063 -3.8456 -1.8974
  563MOL0     H75943   0.304  10.069   2.931  0.3779  0.4078  0.2123
  563MOL0     H75944   0.275   9.824   2.939 -0.3333  0.8876  0.2255
  563MOL0     H75945   0.287   9.812   2.772 -2.4707 -1.0305 -0.9482
  563MOL0     H75946   0.090   9.999   2.932 -0.1833 -0.9249  1.6501
  563MOL0     H75947   0.073   9.960   2.757 -1.7628 -2.8477 -1.3164
  563MOL0     H75948   0.038   9.722   2.787  2.6280  2.3898 -1.7069
  563MOL0     H75949   0.014   9.758   2.971  0.2999 -0.3977 -0.1150
  563MOL0     H75950  -0.121   9.866   2.716 -1.4154  1.6172  0.0892
  563MOL0     H75951  -0.195   9.742   2.814  0.7258 -0.4576 -1.2345
  563MOL0     H75952  -0.159  10.037   2.895 -2.0913  1.1742  0.2226
  563MOL0     H75953  -0.187   9.903   3.011 -0.3905  2.4428  0.3425
  563MOL0     H75954  -0.400  10.048   2.921 -1.0842  0.3550 -0.4705
  563MOL0     H75955  -0.379   9.945   2.772  3.2718 -0.1195 -0.0054
  563MOL0     H75956  -0.523   9.748   2.771 -2.2504 -0.1217  0.5412
  563MOL0     H75957  -0.643   9.556   2.886  1.5577  2.1728 -0.6284
  563MOL0     H75958  -0.491   9.497   2.816  2.6379  4.8714  0.1180
  563MOL0     H75959  -0.601   9.437   3.106 -3.6273 -1.8059 -1.0323
  563MOL0     H75960  -0.632   9.333   2.965  0.4393  0.6253 -2.1724
  563MOL0     H75961  -0.360   9.350   2.951  0.0416  1.5299 -0.5826
  563MOL0     H75962  -0.457   9.221   3.030 -2.5948  0.1605  0.9838
  563MOL0     H75963  -0.450   9.380   3.247 -0.6195 -1.8437  0.5489
  563MOL0     H75964  -0.320   9.454   3.171 -1.6443  1.6015 -0.1942
  563MOL0     H75965  -0.157   9.069   3.290  0.9274  1.0714  1.2181
  563MOL0     H75966   0.063   8.987   3.206 -1.7494 -0.3593  1.2085
  563MOL0     H75967   0.319   8.817   2.976  0.8149  0.4029 -2.8581
  563MOL0     H75968   0.554   8.711   2.912 -2.0610  0.9300 -0.6304
  563MOL0     H75969   0.968   8.812   2.964 -0.7490  0.0945 -1.5042
  563MOL0     H75970   0.906   8.934   3.062  1.2193 -0.7703 -0.6832
  563MOL0     H75971   0.800   8.789   3.225 -3.2209 -0.9584 -2.1536
  563MOL0     H75972   0.860   8.644   3.146  1.2690 -1.0053  1.6311
  563MOL0     H75973   1.092   8.743   3.186 -1.4496  0.7632 -2.1085
  563MOL0     H75974   1.030   8.863   3.297 -2.1010  2.0578 -2.5133
  563MOL0     H75975   1.016   8.557   3.329  0.4875 -0.3487 -0.9698
  563MOL0     H75976   0.904   8.655   3.425  0.7313  2.5307  1.0047
  563MOL0     H75977   1.065   8.791   3.513  0.0340  2.2041 -3.5116
  563MOL0     H75978   1.192   8.706   3.430 -0.2610 -0.7265  0.1854
  563MOL0     H75979   1.003   8.576   3.633 -1.5980  2.1345  0.3312
  563MOL0     H75980   1.139   8.491   3.556  1.9656  1.2064  1.6340
  563MOL0     H75981   1.161   8.585   3.804  1.0975 -0.9608 -0.3539
  563MOL0     H75982   1.156   8.742   3.738  1.1766 -0.8529  3.6784
  563MOL0     H75983   1.353   8.708   3.598  3.1968 -0.2727  0.9444
  563MOL0     H75984   1.398   8.676   3.766 -1.8243  0.5208  1.8462
  563MOL0     H75985   0.738   9.054   3.071  0.2558 -1.9402 -1.2874
  563MOL0     H75986   0.535   9.153   3.135  0.0650  0.3683 -1.0457
  563MOL0     H75987   0.069   9.335   2.944  1.4741 -2.2971  0.9766
  563MOL0     H75988  -0.152   9.384   3.014 -1.4312  0.8984  2.3418
  563MOL0     H75989   0.663   9.697   2.658  1.0787 -2.0321  0.8991
  563MOL0     H75990   0.909   9.642   2.696  1.6080 -2.4145  2.0086
  563MOL0     H75991   1.274   9.617   2.725  1.2629 -2.4704 -0.5441
  563MOL0     H75992   1.482   9.506   2.746  0.3527  2.2232 -1.5865
  563MOL0     H75993   1.712   9.568   3.130  2.3609 -0.5148  0.9136
  563MOL0     H75994   1.791   9.641   2.983  0.9099  0.1087  2.2705
  563MOL0     H75995   1.795   9.346   3.047  0.4836  0.4677  0.0405
  563MOL0     H75996   1.923   9.456   3.101 -0.5908 -2.0280  3.2320
  563MOL0     H75997   1.961   9.518   2.864  1.2481 -0.4074 -1.0365
  563MOL0     H75998   1.838   9.404   2.812 -0.4494  4.4330 -0.1656
  563MOL0     H75999   2.066   9.328   2.996 -1.8524 -1.1302  0.4594
  563MOL0     H76000   2.014   9.226   2.861 -0.3353  0.2717  1.4225
  563MOL0     H76001   2.321   9.465   2.689 -0.1497 -0.1133  0.0536
  563MOL0     H76002   1.569   9.725   3.105  2.8531  1.4726 -2.2444
  563MOL0     H76003   1.463   9.914   3.175  0.8352 -1.6791 -1.1738
  563MOL0     H76004   1.452  10.008   3.018 -3.0381 -1.2759 -2.4250
  563MOL0     H76005   1.307   9.958   3.106 -1.1086  0.2088 -2.2341
  564MOL0     O76006   3.935   6.786   0.203 -0.1812  0.2431  0.2648
  564MOL0     C76007   3.875   6.682   0.245 -0.7420  0.2912  0.2670
  564MOL0     O76008   3.890   6.614   0.364 -0.0615 -0.9156 -0.4820
  564MOL0     C76009   3.982   6.673   0.457 -0.0478  0.9982  0.6331
  564MOL0     C76010   3.945   6.668   0.586  0.5320  0.5673 -0.4385
  564MOL0     C76011   4.034   6.690   0.693 -0.0732  0.1983  0.7912
  564MOL0     C76012   4.168   6.731   0.664 -0.4445  0.3491  0.0689
  564MOL0     O76013   4.247   6.757   0.774 -0.0379 -0.5400 -0.1126
  564MOL0     C76014   4.366   6.834   0.754  0.5720 -0.4239 -0.7812
  564MOL0     C76015   4.420   6.856   0.896  0.0858  0.1016  0.3129
  564MOL0     C76016   4.509   6.735   0.941 -0.0172 -0.4580  1.3848
  564MOL0     C76017   4.648   6.757   0.880  0.1521  0.6693 -0.2849
  564MOL0     C76018   4.721   6.623   0.873  0.0896  0.2563 -0.2992
  564MOL0     C76019   4.870   6.637   0.837  0.3683 -0.5677 -0.0028
  564MOL0     C76020   4.965   6.561   0.938  0.5580 -0.0143 -0.0877
  564MOL0     C76021   5.112   6.606   0.912  0.7863  0.5069  0.1811
  564MOL0     N76022   5.201   6.536   1.008 -0.0320 -0.4666 -0.3656
  564MOL0     C76023   5.189   6.542   1.143  0.0199  0.6199  0.9173
  564MOL0     C76024   5.267   6.455   1.199  0.0625 -0.0058  0.4374
  564MOL0     C76025   5.296   6.432   1.338 -0.2830  0.5496  0.6249
  564MOL0     C76026   5.450   6.457   1.375  0.1208  0.4670  0.4019
  564MOL0     C76027   5.506   6.592   1.324 -0.4132 -0.5128 -0.6282
  564MOL0     C76028   5.658   6.616   1.368 -0.2506  0.0135 -0.0697
  564MOL0     O76029   5.667   6.691   1.491  0.5739 -0.2558 -0.4837
  564MOL0     C76030   5.790   6.731   1.532 -0.2840 -0.1734 -0.2046
  564MOL0     C76031   5.791   6.808   1.651  0.4230 -0.3673 -0.0313
  564MOL0     C76032   5.911   6.827   1.713 -0.3469 -0.6355  0.1716
  564MOL0     C76033   6.035   6.791   1.660  0.5253 -0.3474 -0.6817
  564MOL0     C76034   6.163   6.841   1.734  0.6982 -0.5170 -0.3791
  564MOL0     O76035   6.275   6.850   1.655  0.7100  0.4414  0.2085
  564MOL0     C76036   6.378   6.911   1.713  0.0691 -1.0011 -0.1578
  564MOL0     C76037   6.436   7.027   1.662 -0.2390  0.4826  0.1390
  564MOL0     C76038   6.564   7.068   1.705  0.6395  0.2210 -0.2372
  564MOL0     C76039   6.634   6.997   1.794 -0.2590  0.4683 -0.6623
  564MOL0     O76040   6.760   7.037   1.832  0.3149  0.2212 -0.1223
  564MOL0     C76041   6.745   7.124   1.945  0.5918  0.2866  0.2774
  564MOL0     C76042   6.806   7.261   1.952  0.6917  0.4959 -0.0908
  564MOL0     C76043   6.953   7.265   1.892 -0.3843 -0.0440 -0.3169
  564MOL0     C76044   7.011   7.405   1.891  0.0516  0.4241 -0.3723
  564MOL0     C76045   7.156   7.417   1.840  0.3704 -0.2221 -0.2933
  564MOL0     C76046   7.191   7.558   1.881 -0.0369 -0.2514 -0.3364
  564MOL0     C76047   7.338   7.596   1.867 -1.0677 -0.2863 -1.1620
  564MOL0     C76048   7.354   7.751   1.872  0.8742 -0.4175 -0.1350
  564MOL0    Cl76049   7.249   7.850   1.761  0.5492  0.0178  0.3615
  564MOL0     C76050   6.585   6.873   1.839  0.5458  0.0698 -0.1995
  564MOL0     C76051   6.457   6.834   1.799 -0.1280 -0.9980  0.0929
  564MOL0     O76052   6.155   6.900   1.843 -0.0728 -0.1874 -0.6239
  564MOL0     C76053   6.041   6.717   1.544  1.2401  0.0891 -0.4839
  564MOL0     C76054   5.919   6.686   1.477  0.7987  0.1884 -0.4027
  564MOL0     N76055   5.334   6.393   1.092  0.3636  0.3439  0.8018
  564MOL0     N76056   5.290   6.441   0.983  0.1217 -0.8589  0.2830
  564MOL0     C76057   4.210   6.733   0.532  0.6258 -0.5025 -0.3075
  564MOL0     C76058   4.113   6.707   0.432 -0.1090 -0.7184 -0.5380
  564MOL0     C76059   3.798   6.605   0.145  0.2321 -0.1264 -0.5837
  564MOL0     C76060   3.834   6.473   0.123 -0.7424  0.3263 -0.0260
  564MOL0     C76061   3.780   6.399   0.019  0.1872 -0.9280 -0.0401
  564MOL0     C76062   3.685   6.463  -0.064  0.1260  0.4558  0.7612
  564MOL0     O76063   3.624   6.386  -0.161 -0.0490 -0.5968 -0.2162
  564MOL0     C76064   3.494   6.335  -0.106 -0.3155 -0.3492  0.4535
  564MOL0     C76065   3.419   6.245  -0.201 -0.6863  0.4028 -0.3883
  564MOL0     C76066   3.294   6.180  -0.135 -0.6051 -0.1222  0.4606
  564MOL0     C76067   3.246   6.063  -0.226  0.5487  0.1900  0.1984
  564MOL0     C76068   3.107   6.043  -0.259  0.6770  0.3053  0.3980
  564MOL0     C76069   2.999   6.016  -0.302  0.1199 -0.1656 -0.8523
  564MOL0     C76070   3.644   6.600  -0.044 -0.1602 -1.5609 -1.0245
  564MOL0     C76071   3.705   6.671   0.058  0.2410 -0.3994 -0.6760
  564MOL0     C76072   3.662   6.824   0.075 -0.0850 -0.2619 -0.4142
  564MOL0     H76073   3.839   6.648   0.599 -0.1839  1.3263 -4.1261
  564MOL0     H76074   3.992   6.689   0.793 -0.7034 -0.2274  0.5232
  564MOL0     H76075   4.432   6.774   0.689 -1.5625  0.2996 -3.8251
  564MOL0     H76076   4.328   6.921   0.701 -0.2356 -1.0161 -1.2001
  564MOL0     H76077   4.339   6.864   0.969  0.7523  0.4980  1.0282
  564MOL0     H76078   4.478   6.947   0.914 -0.8276  0.4700  1.4681
  564MOL0     H76079   4.469   6.640   0.905  0.8336 -0.7277  1.1156
  564MOL0     H76080   4.518   6.716   1.049  3.7212 -1.0273  1.1298
  564MOL0     H76081   4.643   6.810   0.784  1.1281  0.7505 -0.2940
  564MOL0     H76082   4.706   6.823   0.944 -0.0365  1.6168 -1.0625
  564MOL0     H76083   4.727   6.558   0.961 -1.0782 -1.3692 -1.3616
  564MOL0     H76084   4.671   6.576   0.788  1.1446 -0.8378 -0.3349
  564MOL0     H76085   4.890   6.593   0.740 -1.0942 -0.7389 -0.2547
  564MOL0     H76086   4.906   6.741   0.831  1.2785 -0.8443  0.4706
  564MOL0     H76087   4.949   6.453   0.935  1.4080 -0.2352  1.8250
  564MOL0     H76088   4.943   6.597   1.038  1.4700 -4.8599  2.1630
  564MOL0     H76089   5.137   6.579   0.809  1.0319  1.0957  0.0811
  564MOL0     H76090   5.126   6.714   0.923  0.8248  0.5671 -0.4409
  564MOL0     H76091   5.117   6.609   1.188 -1.4974  0.0738 -0.5871
  564MOL0     H76092   5.241   6.504   1.401 -1.8776  2.0908 -2.3178
  564MOL0     H76093   5.260   6.330   1.350  0.0854 -0.3459 -4.2458
  564MOL0     H76094   5.452   6.464   1.484 -1.6086  0.6693  0.4592
  564MOL0     H76095   5.527   6.387   1.342  1.6585  2.4872 -0.5837
  564MOL0     H76096   5.450   6.676   1.366 -0.0621  0.0236 -1.2135
  564MOL0     H76097   5.512   6.587   1.215  0.5420  3.1571 -0.8637
  564MOL0     H76098   5.715   6.659   1.285 -0.0211 -0.6380 -0.2593
  564MOL0     H76099   5.710   6.521   1.384 -0.7429 -0.5319 -1.5099
  564MOL0     H76100   5.697   6.849   1.687 -0.4113 -0.7245 -1.7190
  564MOL0     H76101   5.911   6.899   1.795 -0.3869  1.1215 -1.3232
  564MOL0     H76102   6.383   7.085   1.587  1.0782  2.4831  0.6784
  564MOL0     H76103   6.615   7.150   1.655  2.5721 -0.9411 -0.2598
  564MOL0     H76104   6.639   7.144   1.964  0.4886  0.3009 -0.2815
  564MOL0     H76105   6.801   7.076   2.025 -0.8482 -2.7880 -0.4182
  564MOL0     H76106   6.739   7.323   1.892 -1.2529 -1.5232 -0.1573
  564MOL0     H76107   6.810   7.302   2.053  1.5294 -1.8891  0.9195
  564MOL0     H76108   7.025   7.202   1.946 -1.9466 -0.8108  0.9472
  564MOL0     H76109   6.947   7.222   1.792 -1.5731 -0.3456 -0.1219
  564MOL0     H76110   6.997   7.442   1.993 -2.0131 -0.9729 -0.0648
  564MOL0     H76111   6.944   7.460   1.824 -0.3024  1.0800  0.4993
  564MOL0     H76112   7.177   7.393   1.736  3.4997  0.1713  0.1727
  564MOL0     H76113   7.224   7.349   1.892  0.4092  1.1288  1.5376
  564MOL0     H76114   7.119   7.622   1.830 -0.1015 -0.3562 -0.3778
  564MOL0     H76115   7.171   7.566   1.988  0.2521 -1.6418 -0.1524
  564MOL0     H76116   7.380   7.562   1.771  1.0074 -0.0591 -0.3922
  564MOL0     H76117   7.393   7.553   1.951 -4.9380 -3.6136 -0.0162
  564MOL0     H76118   7.315   7.779   1.970  2.0437 -1.4226  0.6455
  564MOL0     H76119   7.458   7.780   1.856  0.5478  1.2631  0.5506
  564MOL0     H76120   6.643   6.812   1.907  1.2974 -1.6516 -2.2617
  564MOL0     H76121   6.404   6.747   1.839  1.3668 -1.5810  0.8941
  564MOL0     H76122   6.134   6.679   1.503  1.6559  0.2208  0.3108
  564MOL0     H76123   5.921   6.632   1.383  0.7678 -1.8450  0.7110
  564MOL0     H76124   4.307   6.764   0.496  0.2169  0.8988 -0.2601
  564MOL0     H76125   4.144   6.725   0.329  0.3976  0.1486 -0.2416
  564MOL0     H76126   3.906   6.437   0.196 -1.8290 -0.5334  0.6607
  564MOL0     H76127   3.812   6.298  -0.005 -0.5199 -1.1055 -0.2614
  564MOL0     H76128   3.430   6.415  -0.066 -0.7125  0.2945 -1.3615
  564MOL0     H76129   3.526   6.269  -0.025  0.8135  0.0777  0.3734
  564MOL0     H76130   3.484   6.166  -0.242 -0.0509  2.2322 -3.1915
  564MOL0     H76131   3.383   6.307  -0.283 -2.5259 -0.9578 -0.6782
  564MOL0     H76132   3.230   6.267  -0.119  1.7782  2.2404 -1.8403
  564MOL0     H76133   3.312   6.131  -0.039  0.8666 -1.9151 -0.6727
  564MOL0     H76134   3.306   6.051  -0.318 -0.1466  1.3363 -0.4340
  564MOL0     H76135   3.273   5.975  -0.167  0.9415  1.4823  2.0237
  564MOL0     H76136   2.906   5.999  -0.352 -0.0282  1.0121 -1.0100
  564MOL0     H76137   3.568   6.634  -0.114  0.0483  0.2152 -0.4372
  564MOL0     H76138   3.579   6.839   0.005 -0.4616 -2.3081 -0.4660
  564MOL0     H76139   3.642   6.843   0.181 -0.9052  2.1771 -0.9321
  564MOL0     H76140   3.741   6.897   0.051 -0.0801  0.5063  1.6806
  565MOL0     O76141   8.812  11.175   9.482  0.0118  0.5568 -1.1099
  565MOL0     C76142   8.875  11.220   9.575  0.8218 -0.4717  0.1574
  565MOL0     O76143   8.814  11.288   9.683 -0.8745  0.1044  0.1681
  565MOL0     C76144   8.687  11.275   9.714 -1.0624 -0.0271  0.0180
  565MOL0     C76145   8.588  11.344   9.646  0.4099 -0.1160  0.1136
  565MOL0     C76146   8.454  11.297   9.671  0.1064 -0.0508 -0.0175
  565MOL0     C76147   8.421  11.207   9.774  0.4459 -0.7301  0.4281
  565MOL0     O76148   8.292  11.176   9.812 -0.2817 -0.0698  0.5631
  565MOL0     C76149   8.178  11.237   9.730 -0.1256 -0.6721 -1.0078
  565MOL0     C76150   8.047  11.161   9.779 -0.1969 -0.7530  0.5185
  565MOL0     C76151   7.927  11.219   9.703 -0.6508 -1.4063 -0.1970
  565MOL0     C76152   7.790  11.169   9.744  0.5520 -0.8810  0.6512
  565MOL0     C76153   7.680  11.263   9.697 -0.2572  0.0340  0.0083
  565MOL0     C76154   7.704  11.311   9.549  0.5746 -0.2669  0.1868
  565MOL0     C76155   7.574  11.381   9.498 -0.8092  0.4012  0.5052
  565MOL0     C76156   7.492  11.300   9.404 -0.8779  0.2017 -0.2194
  565MOL0     N76157   7.501  11.337   9.263 -0.3435 -0.4233  0.4229
  565MOL0     C76158   7.393  11.378   9.184 -0.1731 -0.2304  0.6513
  565MOL0     C76159   7.431  11.371   9.053  0.7702 -0.0330  0.0190
  565MOL0     C76160   7.338  11.404   8.938  0.4218  0.8627  0.3413
  565MOL0     C76161   7.231  11.294   8.925 -0.1667 -0.4478  0.0053
  565MOL0     C76162   7.121  11.343   8.820  0.2706  0.3922 -0.4427
  565MOL0     C76163   7.031  11.221   8.769 -1.2389 -0.6725 -0.2117
  565MOL0     O76164   6.979  11.158   8.882 -0.1727  0.1566  0.7238
  565MOL0     C76165   7.025  11.033   8.896  0.2208 -0.5141  0.2082
  565MOL0     C76166   7.068  10.992   9.029  0.4910  1.0396  1.2663
  565MOL0     C76167   7.124  10.864   9.052 -0.3560  0.4805  0.0433
  565MOL0     C76168   7.130  10.771   8.948 -0.3678 -0.3296  0.6184
  565MOL0     C76169   7.194  10.636   8.975 -0.0804 -0.4465 -0.5392
  565MOL0     O76170   7.244  10.559   8.868 -0.2065  0.3653 -0.0419
  565MOL0     C76171   7.335  10.455   8.889 -0.0146  0.0296 -0.1763
  565MOL0     C76172   7.448  10.484   8.960 -0.2990 -0.3045 -0.9671
  565MOL0     C76173   7.543  10.391   8.992  0.7078  0.9732 -0.8879
  565MOL0     C76174   7.525  10.263   8.937  1.0957 -0.5251  0.1700
  565MOL0     O76175   7.604  10.156   8.968 -0.2861 -0.3233  0.3026
  565MOL0     C76176   7.700  10.149   9.084  0.1548 -0.7095  0.5132
  565MOL0     C76177   7.758  10.009   9.095  0.8548  0.1349  0.3108
  565MOL0     C76178   7.809   9.978   9.234 -0.3040 -0.7202  0.9762
  565MOL0     C76179   7.918   9.871   9.225  0.4857 -0.7571  0.2959
  565MOL0     C76180   8.009   9.878   9.350  0.3590  0.1383 -0.1710
  565MOL0     C76181   8.132   9.774   9.341 -0.0429 -0.0188 -0.0860
  565MOL0     C76182   8.231   9.809   9.446  0.2324  0.0352 -0.3477
  565MOL0     C76183   8.351   9.716   9.470 -0.3291  0.2511  0.7234
  565MOL0    Cl76184   8.320   9.545   9.505 -0.3013 -0.3803  0.8453
  565MOL0     C76185   7.423  10.227   8.861  0.3678 -0.0591  0.5604
  565MOL0     C76186   7.329  10.326   8.834 -0.4837 -0.3627  0.3785
  565MOL0     O76187   7.203  10.608   9.099  0.6608 -0.5090  0.1573
  565MOL0     C76188   7.086  10.809   8.819  0.2455  0.3701  1.0175
  565MOL0     C76189   7.025  10.933   8.793 -0.5418 -0.1024  0.1376
  565MOL0     N76190   7.566  11.338   9.054  0.5289  0.0552  0.1387
  565MOL0     N76191   7.608  11.311   9.178 -0.5881  0.4559  0.5940
  565MOL0     C76192   8.523  11.151   9.851  0.3530 -0.5433  0.0674
  565MOL0     C76193   8.655  11.178   9.811  0.2629  0.0268 -0.0151
  565MOL0     C76194   9.028  11.211   9.577 -0.0515  0.2547 -0.2429
  565MOL0     C76195   9.109  11.309   9.642 -0.2042 -0.7329 -0.2977
  565MOL0     C76196   9.247  11.313   9.635  0.2977  0.0707  0.0820
  565MOL0     C76197   9.314  11.205   9.574  0.7684 -0.5978  0.7496
  565MOL0     O76198   9.448  11.207   9.560 -0.0288 -0.1621 -0.3419
  565MOL0     C76199   9.515  11.119   9.659  0.1525 -0.0293 -0.2190
  565MOL0     C76200   9.650  11.079   9.615  0.1064  0.4740  0.7099
  565MOL0     C76201   9.648  11.013   9.482  0.3421  0.1039 -0.7892
  565MOL0     C76202   9.779  10.943   9.444  0.2376  0.1298  0.4469
  565MOL0     C76203   9.883  11.036   9.397  0.2894 -0.6346 -0.9481
  565MOL0     C76204   9.977  11.112   9.367  0.5434 -0.4885  0.6779
  565MOL0     C76205   9.244  11.110   9.507 -0.3363  0.5897  0.3436
  565MOL0     C76206   9.098  11.107   9.507 -0.8104  0.1237 -0.8768
  565MOL0     C76207   9.032  11.016   9.412  0.0645 -0.5101  0.5096
  565MOL0     H76208   8.609  11.419   9.570  1.1750 -2.1651 -1.7918
  565MOL0     H76209   8.386  11.349   9.604  1.7775 -0.9202 -2.5013
  565MOL0     H76210   8.177  11.343   9.757 -1.4170 -0.3858 -2.0896
  565MOL0     H76211   8.197  11.223   9.624  3.0100 -1.4971 -0.4398
  565MOL0     H76212   8.043  11.165   9.888  3.1567  0.1934  0.7096
  565MOL0     H76213   8.056  11.057   9.748 -0.3002  0.0318 -2.5340
  565MOL0     H76214   7.948  11.208   9.597 -2.8797  0.1107 -0.8809
  565MOL0     H76215   7.928  11.325   9.730  0.4432 -1.2603 -0.7917
  565MOL0     H76216   7.783  11.075   9.690  0.9232 -0.7900  0.4353
  565MOL0     H76217   7.792  11.150   9.852  4.4210  0.2930  0.9720
  565MOL0     H76218   7.583  11.214   9.704 -0.4444  0.6223  4.0370
  565MOL0     H76219   7.682  11.355   9.757 -1.5133 -0.2303  0.4895
  565MOL0     H76220   7.791  11.376   9.544 -0.8615  1.8921  1.4539
  565MOL0     H76221   7.717  11.216   9.496  2.0036 -1.2860  2.2389
  565MOL0     H76222   7.613  11.472   9.451  2.4881 -1.3367 -0.4865
  565MOL0     H76223   7.515  11.410   9.586  0.3435 -1.3471  1.9265
  565MOL0     H76224   7.523  11.195   9.413 -1.5311 -0.0136 -0.4250
  565MOL0     H76225   7.389  11.290   9.440 -0.4210  0.5956  1.2811
  565MOL0     H76226   7.293  11.408   9.215 -0.7913 -2.5877  1.1728
  565MOL0     H76227   7.292  11.499   8.966  2.0154  1.2783  1.7107
  565MOL0     H76228   7.401  11.413   8.850  0.6934 -0.5966  0.3593
  565MOL0     H76229   7.273  11.200   8.886  0.4197 -0.6816  1.1794
  565MOL0     H76230   7.184  11.270   9.020 -0.9529 -0.2144 -0.3168
  565MOL0     H76231   7.182  11.387   8.740  1.8960  1.4807  1.3161
  565MOL0     H76232   7.070  11.433   8.855  0.2528  0.0384  0.4572
  565MOL0     H76233   7.085  11.156   8.700  0.1226 -2.0511  2.0109
  565MOL0     H76234   6.951  11.248   8.700 -0.8785  0.8951 -0.0679
  565MOL0     H76235   7.046  11.063   9.107  1.4406  2.3158  0.4097
  565MOL0     H76236   7.151  10.832   9.152  2.6225 -1.2568 -1.1940
  565MOL0     H76237   7.455  10.587   8.995  2.2579 -0.1710 -1.6983
  565MOL0     H76238   7.623  10.423   9.058  0.9724 -0.9065 -0.2344
  565MOL0     H76239   7.780  10.221   9.064 -1.3234  1.2635  1.3166
  565MOL0     H76240   7.642  10.177   9.173 -0.1380 -0.1557  0.1558
  565MOL0     H76241   7.687   9.931   9.066  1.4975 -0.3036 -0.1396
  565MOL0     H76242   7.822  10.004   9.006 -1.8111  1.2747 -1.8130
  565MOL0     H76243   7.846  10.069   9.281  1.5319 -1.0661  0.3059
  565MOL0     H76244   7.729   9.933   9.293 -1.8719 -2.1939 -2.0479
  565MOL0     H76245   7.987   9.901   9.146  0.8535 -1.2912  0.4015
  565MOL0     H76246   7.874   9.771   9.214 -0.7982 -0.1957  0.1257
  565MOL0     H76247   7.951   9.859   9.440 -2.2315  1.5541 -1.3944
  565MOL0     H76248   8.050   9.979   9.362  2.2543 -0.6319  0.1797
  565MOL0     H76249   8.093   9.672   9.353 -0.2015 -0.0607 -0.9286
  565MOL0     H76250   8.192   9.787   9.251 -0.4514  0.1723 -0.3365
  565MOL0     H76251   8.186   9.830   9.544  2.0711 -0.7228  0.7250
  565MOL0     H76252   8.278   9.898   9.404 -1.0466 -0.3802 -2.7923
  565MOL0     H76253   8.415   9.726   9.381 -0.3570 -1.8680  0.4020
  565MOL0     H76254   8.405   9.759   9.555  0.7641  3.2263 -1.3169
  565MOL0     H76255   7.400  10.124   8.833 -0.6745  0.0729  0.9010
  565MOL0     H76256   7.241  10.309   8.773 -0.0105  1.6144 -0.9223
  565MOL0     H76257   7.098  10.738   8.739  3.1544  1.0603  0.7138
  565MOL0     H76258   6.989  10.958   8.694  0.0348  2.7077  0.5328
  565MOL0     H76259   8.501  11.090   9.939  0.5951 -3.1013 -1.5351
  565MOL0     H76260   8.735  11.121   9.856  2.0532 -0.9802 -4.0292
  565MOL0     H76261   9.067  11.393   9.697 -1.4396 -1.8208  0.4670
  565MOL0     H76262   9.304  11.395   9.678 -2.6618  2.8864 -1.0197
  565MOL0     H76263   9.454  11.029   9.671 -0.5674  0.0927 -2.5535
  565MOL0     H76264   9.520  11.166   9.758  0.7370 -4.7502  2.2584
  565MOL0     H76265   9.685  11.010   9.693 -1.6375 -0.4138  0.7615
  565MOL0     H76266   9.704  11.173   9.603 -1.9711  1.4987 -1.6818
  565MOL0     H76267   9.608  11.081   9.407  0.1379  1.2223  0.3007
  565MOL0     H76268   9.568  10.938   9.490 -1.3169  2.0062  3.4069
  565MOL0     H76269   9.814  10.878   9.524  1.5435  0.7750  0.4376
  565MOL0     H76270   9.750  10.871   9.367 -0.9971  1.1248 -0.0594
  565MOL0     H76271  10.061  11.177   9.361 -0.8621  1.2638 -1.1220
  565MOL0     H76272   9.306  11.035   9.459  0.6011 -0.1069  2.4914
  565MOL0     H76273   9.112  10.950   9.375  1.2680  2.3052 -2.4483
  565MOL0     H76274   8.953  10.948   9.446 -0.1928 -0.3424  0.2481
  565MOL0     H76275   9.003  11.081   9.329  0.6733 -0.2092  0.5291
  566MOL0     O76276   0.767   9.796   8.315  0.4393  0.3546  0.1563
  566MOL0     C76277   0.687   9.886   8.307  0.1893  0.0200 -0.9354
  566MOL0     O76278   0.701  10.014   8.344  0.0031 -0.1895 -0.5484
  566MOL0     C76279   0.821  10.061   8.393 -1.3556 -0.0720 -0.4529
  566MOL0     C76280   0.955  10.043   8.338 -0.1245  0.0898  0.4499
  566MOL0     C76281   1.067  10.107   8.388 -0.5469  0.6886  0.4103
  566MOL0     C76282   1.055  10.184   8.507 -0.0769 -0.3637  0.6396
  566MOL0     O76283   1.151  10.264   8.558 -0.2840  0.8088 -0.7564
  566MOL0     C76284   1.280  10.217   8.550 -0.2870  0.7803 -0.1940
  566MOL0     C76285   1.387  10.304   8.623  0.1003 -0.6651  0.3997
  566MOL0     C76286   1.452  10.213   8.730 -0.1113 -0.3675  0.1172
  566MOL0     C76287   1.552  10.289   8.821  0.0293  0.4162  0.2841
  566MOL0     C76288   1.482  10.391   8.906  0.6587 -0.3190 -0.4654
  566MOL0     C76289   1.592  10.465   8.985 -0.8379 -0.1962 -0.3962
  566MOL0     C76290   1.545  10.583   9.075  0.1373 -0.7644  0.0251
  566MOL0     C76291   1.663  10.620   9.162 -1.0482 -0.8161 -0.0788
  566MOL0     N76292   1.778  10.643   9.083  0.1945  0.0814 -0.0893
  566MOL0     C76293   1.797  10.745   8.992  0.8362  0.8640 -0.3642
  566MOL0     C76294   1.927  10.749   8.970  0.0658 -0.6333  0.1138
  566MOL0     C76295   1.997  10.835   8.881  0.5128  0.4831  0.0179
  566MOL0     C76296   2.038  10.963   8.963  0.0196 -0.3956  1.0122
  566MOL0     C76297   2.105  11.073   8.887 -1.1094 -0.1178  0.1008
  566MOL0     C76298   2.142  11.197   8.972  0.0979  0.1641  0.7445
  566MOL0     O76299   2.235  11.274   8.894 -0.2382 -0.1391  0.1507
  566MOL0     C76300   2.373  11.249   8.901 -0.1730 -0.4490  0.4048
  566MOL0     C76301   2.441  11.212   8.792 -0.0947 -0.2367  0.5231
  566MOL0     C76302   2.575  11.157   8.808  0.1328 -0.0061 -0.0338
  566MOL0     C76303   2.634  11.161   8.937 -0.5245 -0.0160 -0.2247
  566MOL0     C76304   2.777  11.136   8.947 -0.6548 -0.1540  0.2256
  566MOL0     O76305   2.832  11.069   8.844  0.2248  0.0696 -0.8599
  566MOL0     C76306   2.967  11.046   8.849 -0.1310  0.5309 -0.0259
  566MOL0     C76307   3.046  11.095   8.744  0.0903 -0.8514  0.8660
  566MOL0     C76308   3.184  11.079   8.754 -0.2971 -0.1800  0.6543
  566MOL0     C76309   3.239  11.008   8.861  0.4801 -0.9479  0.1999
  566MOL0     O76310   3.366  10.998   8.880  0.3207  0.4951  0.5419
  566MOL0     C76311   3.425  10.885   8.828 -1.1402  0.1937 -0.2740
  566MOL0     C76312   3.571  10.883   8.883 -0.4589  0.1706 -0.6089
  566MOL0     C76313   3.663  10.754   8.871  0.1465  0.5163  0.0435
  566MOL0     C76314   3.708  10.722   8.736  0.3947 -0.4410 -0.6120
  566MOL0     C76315   3.760  10.576   8.731 -1.0903  0.7939 -0.5494
  566MOL0     C76316   3.849  10.535   8.603  0.1636  0.0185 -1.1886
  566MOL0     C76317   3.888  10.388   8.631 -0.2119  0.2540  0.0707
  566MOL0     C76318   3.933  10.316   8.501  0.0263  1.4039  0.2764
  566MOL0    Cl76319   4.076  10.392   8.423 -0.2100 -0.0862 -0.2981
  566MOL0     C76320   3.150  10.927   8.936 -1.0934  0.7473  0.3455
  566MOL0     C76321   3.017  10.946   8.927  1.0170 -0.5964 -0.1297
  566MOL0     O76322   2.842  11.177   9.045 -0.7382 -0.0270 -0.1320
  566MOL0     C76323   2.566  11.201   9.051  0.2481  0.2755 -0.0310
  566MOL0     C76324   2.435  11.244   9.027  0.9144  0.0925 -0.2678
  566MOL0     N76325   1.992  10.670   9.059 -0.6873 -0.5478 -0.1917
  566MOL0     N76326   1.902  10.603   9.129  0.4966 -0.0441  0.2585
  566MOL0     C76327   0.924  10.213   8.560  0.3146 -0.3152 -0.4673
  566MOL0     C76328   0.812  10.144   8.508  0.1059  0.2469 -0.9712
  566MOL0     C76329   0.552   9.853   8.253 -0.7609  0.0091 -0.3467
  566MOL0     C76330   0.543   9.830   8.119  0.4375 -1.5362 -0.0648
  566MOL0     C76331   0.424   9.799   8.063  0.1107 -1.9947  0.6807
  566MOL0     C76332   0.307   9.807   8.142  0.1292  0.5355  0.4120
  566MOL0     O76333   0.183   9.788   8.083  0.0202 -0.4620 -0.3402
  566MOL0     C76334   0.059   9.784   8.155 -0.8206  0.6119 -0.0657
  566MOL0     C76335  -0.055   9.730   8.061 -0.7275  0.9306 -0.8427
  566MOL0     C76336  -0.191   9.798   8.095  0.6142 -0.6199  0.4003
  566MOL0     C76337  -0.314   9.750   8.012  0.6786  0.1608 -0.1520
  566MOL0     C76338  -0.290   9.726   7.867 -0.1714  0.4826  0.2018
  566MOL0     C76339  -0.270   9.729   7.742 -0.6074 -1.0611 -0.5296
  566MOL0     C76340   0.317   9.818   8.280  0.0728  0.5509 -1.4068
  566MOL0     C76341   0.443   9.838   8.338  0.7251 -0.3239 -0.6921
  566MOL0     C76342   0.453   9.835   8.489 -0.3665 -0.5605 -0.6371
  566MOL0     H76343   0.960   9.979   8.250  2.1399  2.1002 -1.0283
  566MOL0     H76344   1.158  10.094   8.330 -1.6885 -1.9045 -1.0057
  566MOL0     H76345   1.285  10.113   8.581 -1.9402  1.0982  1.2776
  566MOL0     H76346   1.305  10.220   8.443  2.0799  2.0646  0.3162
  566MOL0     H76347   1.329  10.372   8.687  1.6774  0.0857  1.1053
  566MOL0     H76348   1.461  10.359   8.564 -2.0435  0.6985 -1.1709
  566MOL0     H76349   1.488  10.126   8.674 -1.9305  0.1846 -2.0710
  566MOL0     H76350   1.373  10.181   8.798 -0.4584  1.1208  0.4481
  566MOL0     H76351   1.601  10.219   8.890  0.8477  2.8432  2.3061
  566MOL0     H76352   1.624  10.329   8.750 -3.3567  3.1383 -1.9443
  566MOL0     H76353   1.413  10.462   8.859  0.7364  0.5100  0.6330
  566MOL0     H76354   1.426  10.330   8.977  1.1770 -2.5765 -1.8921
  566MOL0     H76355   1.643  10.385   9.038  1.3449 -0.0389 -2.1457
  566MOL0     H76356   1.661  10.506   8.910 -0.5357  3.7118  1.7130
  566MOL0     H76357   1.464  10.545   9.138  1.6417 -1.6481  1.5046
  566MOL0     H76358   1.515  10.674   9.021 -0.5956  0.9715  3.1152
  566MOL0     H76359   1.643  10.710   9.220  1.7081  0.8120 -1.4317
  566MOL0     H76360   1.682  10.534   9.227 -2.1460  0.2562  1.7387
  566MOL0     H76361   1.718  10.782   8.928  0.2604 -1.6323 -1.2014
  566MOL0     H76362   2.088  10.782   8.849  0.9417  0.9952  0.3582
  566MOL0     H76363   1.941  10.848   8.788 -0.3873 -0.5212  0.4115
  566MOL0     H76364   1.948  11.009   9.005 -0.7108 -1.0106  0.1428
  566MOL0     H76365   2.101  10.935   9.048  1.2787  3.1207  1.4237
  566MOL0     H76366   2.045  11.106   8.801 -1.3199 -1.1383 -0.1611
  566MOL0     H76367   2.198  11.035   8.844  1.7077  2.3095  3.4990
  566MOL0     H76368   2.202  11.169   9.060  3.8292 -0.6556 -1.8098
  566MOL0     H76369   2.055  11.259   8.993  0.5921  2.0184 -2.1145
  566MOL0     H76370   2.392  11.208   8.695 -1.6305  0.9015  1.2116
  566MOL0     H76371   2.616  11.135   8.710 -0.7445 -0.0115 -0.4132
  566MOL0     H76372   3.013  11.162   8.666  0.8376  1.4440  2.4091
  566MOL0     H76373   3.242  11.115   8.669  0.4059 -2.5759  0.0491
  566MOL0     H76374   3.368  10.796   8.856 -0.4364  0.4124  2.0896
  566MOL0     H76375   3.438  10.897   8.720  1.4421 -0.9810 -0.1736
  566MOL0     H76376   3.621  10.959   8.822  0.5952 -0.5864 -0.7094
  566MOL0     H76377   3.572  10.920   8.986 -2.4292  0.4081 -0.6260
  566MOL0     H76378   3.759  10.778   8.917  0.1721  3.2556 -1.2625
  566MOL0     H76379   3.615  10.672   8.926 -1.2006  0.7803 -0.6917
  566MOL0     H76380   3.782  10.802   8.726 -1.0162  0.7890 -1.6445
  566MOL0     H76381   3.621  10.741   8.673 -0.8498  0.4095  1.2348
  566MOL0     H76382   3.684  10.501   8.754  1.3537 -0.8760  2.8524
  566MOL0     H76383   3.834  10.559   8.809 -0.7780 -1.5702 -1.2632
  566MOL0     H76384   3.793  10.543   8.510  2.4425 -0.3491 -2.6617
  566MOL0     H76385   3.931  10.606   8.592  0.2193  0.0667 -0.5251
  566MOL0     H76386   3.801  10.337   8.675  2.7806 -3.0979  2.7421
  566MOL0     H76387   3.965  10.377   8.707  0.2229 -0.4216 -0.4610
  566MOL0     H76388   3.950  10.210   8.520 -1.4030  1.0733 -0.1128
  566MOL0     H76389   3.852  10.307   8.428 -0.6943 -0.6822  1.2346
  566MOL0     H76390   3.189  10.857   9.009 -2.1521  0.2307  0.4237
  566MOL0     H76391   2.959  10.901   9.007  2.5167 -2.7637 -0.1804
  566MOL0     H76392   2.610  11.194   9.149  3.4159  1.3001 -1.2481
  566MOL0     H76393   2.373  11.253   9.116 -1.3714 -2.3104 -1.4775
  566MOL0     H76394   0.918  10.284   8.641 -1.0979 -0.1789 -0.6706
  566MOL0     H76395   0.713  10.150   8.551 -0.1792  0.9034 -1.6958
  566MOL0     H76396   0.625   9.850   8.050  0.2936 -2.7084 -0.5844
  566MOL0     H76397   0.429   9.785   7.956  0.8039  1.1158  0.2043
  566MOL0     H76398   0.027   9.878   8.201 -1.6688  1.2334 -1.8390
  566MOL0     H76399   0.067   9.713   8.238 -2.9057 -0.2153 -0.5029
  566MOL0     H76400  -0.064   9.621   8.072  2.6250  0.4504 -1.8796
  566MOL0     H76401  -0.035   9.752   7.956 -0.1900  0.2529 -0.8949
  566MOL0     H76402  -0.185   9.906   8.085 -3.8436 -0.2996 -0.8046
  566MOL0     H76403  -0.210   9.778   8.201 -1.1603  3.4762  1.0170
  566MOL0     H76404  -0.354   9.661   8.061 -0.0133 -0.6399 -2.0641
  566MOL0     H76405  -0.387   9.832   8.015 -0.6411 -0.9552 -0.8485
  566MOL0     H76406  -0.247   9.769   7.646 -1.7601  0.2315 -0.2966
  566MOL0     H76407   0.230   9.813   8.344 -0.7046  0.8658 -2.4146
  566MOL0     H76408   0.532   9.769   8.524  0.4846  0.0507 -1.3575
  566MOL0     H76409   0.488   9.933   8.523 -0.9842 -1.1085  1.7813
  566MOL0     H76410   0.353   9.812   8.526 -1.1046  0.0358 -2.1649
  567MOL0     O76411   7.159   0.651   6.237 -0.1803 -0.6571 -0.8367
  567MOL0     C76412   7.064   0.599   6.174 -0.9586  0.6665  0.1132
  567MOL0     O76413   7.070   0.497   6.081  0.0505 -0.1421 -0.6983
  567MOL0     C76414   7.200   0.461   6.043 -0.6752 -0.2659  0.6067
  567MOL0     C76415   7.265   0.347   6.090  0.1165  0.0353 -0.0241
  567MOL0     C76416   7.402   0.332   6.060  0.1493  0.5892  0.0528
  567MOL0     C76417   7.472   0.419   5.973 -0.4265  0.2974  0.6576
  567MOL0     O76418   7.602   0.405   5.931  0.0988 -0.1110 -0.5739
  567MOL0     C76419   7.703   0.353   6.028  1.3052  0.0811  0.2494
  567MOL0     C76420   7.831   0.401   5.979 -0.4516 -0.5745  1.5265
  567MOL0     C76421   7.903   0.306   5.878  0.0286 -0.5058 -0.3301
  567MOL0     C76422   8.022   0.394   5.829  0.1793  0.4299 -0.0753
  567MOL0     C76423   8.113   0.321   5.728  0.6939 -0.5741  0.5464
  567MOL0     C76424   8.193   0.196   5.781 -0.6931  1.0308 -0.5717
  567MOL0     C76425   8.262   0.191   5.920 -0.4212 -0.6702  0.3158
  567MOL0     C76426   8.382   0.096   5.920 -0.1521 -0.8700 -0.1443
  567MOL0     N76427   8.465   0.110   6.042  0.4790 -0.6089  1.2274
  567MOL0     C76428   8.497   0.007   6.116 -0.0369  0.8580 -0.1048
  567MOL0     C76429   8.615   0.037   6.179  0.8806  0.4671 -0.3364
  567MOL0     C76430   8.692  -0.057   6.266  0.2707 -0.8560  0.0036
  567MOL0     C76431   8.782  -0.149   6.184  0.3218 -0.1959 -0.0984
  567MOL0     C76432   8.895  -0.069   6.113 -0.0556  0.2371 -0.0933
  567MOL0     C76433   9.017  -0.158   6.084 -0.0225  0.0985  0.0026
  567MOL0     O76434   9.123  -0.066   6.065  0.4331 -0.0667  0.1860
  567MOL0     C76435   9.255  -0.114   6.074  0.8818 -0.5039  0.6619
  567MOL0     C76436   9.360  -0.027   6.110 -0.9099  0.1854  0.2165
  567MOL0     C76437   9.487  -0.073   6.121  0.0065 -0.5864  0.1051
  567MOL0     C76438   9.522  -0.200   6.091  0.4129  0.4124 -0.2891
  567MOL0     C76439   9.664  -0.247   6.091 -0.4907  0.8197  0.4614
  567MOL0     O76440   9.691  -0.368   6.026 -0.7798  0.5591  0.2503
  567MOL0     C76441   9.816  -0.426   6.012 -0.4429  0.8251 -0.4985
  567MOL0     C76442   9.868  -0.463   5.884 -0.6795  0.2832  0.0432
  567MOL0     C76443   9.999  -0.519   5.862 -0.1686 -0.1084  0.2261
  567MOL0     C76444  10.075  -0.542   5.979 -0.4188 -0.3588 -0.6030
  567MOL0     O76445  10.201  -0.594   5.988  0.8786 -0.5624 -0.0981
  567MOL0     C76446  10.240  -0.667   5.873 -0.8523 -0.0544 -0.1331
  567MOL0     C76447  10.195  -0.804   5.885 -0.1509  1.0506 -0.4983
  567MOL0     C76448  10.301  -0.902   5.950 -0.2045  0.2975  0.5128
  567MOL0     C76449  10.363  -0.846   6.085 -0.0874  0.3944 -0.0075
  567MOL0     C76450  10.259  -0.860   6.199  0.3882  0.5155 -0.0785
  567MOL0     C76451  10.341  -0.828   6.327  0.7332  0.4056  0.1667
  567MOL0     C76452  10.251  -0.819   6.452 -0.5618  0.4224 -0.4300
  567MOL0     C76453  10.157  -0.938   6.483  1.0436  0.3274  0.4474
  567MOL0    Cl76454  10.252  -1.080   6.517 -0.0185  0.0742 -0.1978
  567MOL0     C76455  10.027  -0.507   6.108  0.1108 -0.1387  0.0596
  567MOL0     C76456   9.895  -0.448   6.120 -0.4494  0.3431  0.2872
  567MOL0     O76457   9.749  -0.191   6.162 -0.5788  0.3831  0.2105
  567MOL0     C76458   9.418  -0.289   6.058  0.1444  0.5675  0.3244
  567MOL0     C76459   9.286  -0.246   6.056 -0.3573  0.5907  0.8858
  567MOL0     N76460   8.642   0.168   6.154  0.0431 -0.0517  0.5828
  567MOL0     N76461   8.549   0.212   6.070  0.4436  0.0874  1.0166
  567MOL0     C76462   7.401   0.524   5.917 -0.4890  0.9737 -0.2821
  567MOL0     C76463   7.274   0.550   5.959  0.0900 -0.5144 -0.1390
  567MOL0     C76464   6.933   0.660   6.187  0.2357 -0.0037  0.1188
  567MOL0     C76465   6.846   0.664   6.078  1.1280 -0.0889 -0.1815
  567MOL0     C76466   6.716   0.717   6.087 -0.4825  0.1056 -1.7301
  567MOL0     C76467   6.672   0.774   6.209  0.0925 -0.3123  0.3761
  567MOL0     O76468   6.548   0.818   6.234  0.5329  0.2020 -0.1727
  567MOL0     C76469   6.448   0.805   6.123 -0.2388 -0.8995  0.5088
  567MOL0     C76470   6.312   0.870   6.152 -0.0969 -0.6824  0.4493
  567MOL0     C76471   6.219   0.785   6.241 -0.0736  0.4938  0.1882
  567MOL0     C76472   6.153   0.665   6.174  0.1980  0.3046  0.4548
  567MOL0     C76473   6.018   0.699   6.131 -0.1055 -0.4960 -0.2735
  567MOL0     C76474   5.915   0.734   6.080  1.0880 -0.0959  1.0120
  567MOL0     C76475   6.761   0.764   6.318  0.9129 -1.0654  0.3006
  567MOL0     C76476   6.887   0.707   6.312 -0.5086 -0.2011 -0.1719
  567MOL0     C76477   6.955   0.700   6.443  0.4430 -0.1326  0.7767
  567MOL0     H76478   7.202   0.279   6.147  0.1410 -0.7462 -0.9166
  567MOL0     H76479   7.439   0.233   6.084 -4.5685 -2.4723 -3.5142
  567MOL0     H76480   7.686   0.399   6.125 -1.0590 -2.5626  1.2503
  567MOL0     H76481   7.698   0.243   6.028  1.6000 -0.1545 -4.8350
  567MOL0     H76482   7.902   0.426   6.059  2.0602 -0.3169 -0.6194
  567MOL0     H76483   7.809   0.493   5.923 -1.1618 -0.9781  1.1354
  567MOL0     H76484   7.831   0.281   5.800  0.1490 -3.6111  0.3912
  567MOL0     H76485   7.943   0.212   5.918  0.6499 -0.5996 -1.1482
  567MOL0     H76486   7.986   0.487   5.785  3.3432  2.2050  0.7585
  567MOL0     H76487   8.082   0.427   5.915 -1.5902  0.6977  1.0978
  567MOL0     H76488   8.065   0.292   5.634 -1.7591 -2.7581  2.3340
  567MOL0     H76489   8.186   0.399   5.704 -0.9773  1.2848  1.2693
  567MOL0     H76490   8.126   0.111   5.776  1.4757 -0.8075 -0.0865
  567MOL0     H76491   8.272   0.156   5.716  1.6121 -1.8187  3.5471
  567MOL0     H76492   8.192   0.186   6.004  1.1204  0.8780  1.7731
  567MOL0     H76493   8.308   0.290   5.924 -2.9501  0.5854  0.4997
  567MOL0     H76494   8.355  -0.009   5.908  0.5544 -0.9242 -1.3982
  567MOL0     H76495   8.450   0.125   5.839 -2.5869  1.7614 -1.4713
  567MOL0     H76496   8.446  -0.088   6.131 -1.0538  0.7924 -3.2830
  567MOL0     H76497   8.748   0.007   6.335  0.6681 -3.5340  2.3747
  567MOL0     H76498   8.636  -0.130   6.325  2.8117 -2.3701  0.7043
  567MOL0     H76499   8.839  -0.211   6.254 -2.4794 -0.6181  1.9811
  567MOL0     H76500   8.724  -0.208   6.112 -1.0137 -0.8581  1.4460
  567MOL0     H76501   8.922   0.014   6.179 -4.2136  2.3222 -0.6902
  567MOL0     H76502   8.851  -0.030   6.022 -0.2630  0.4588  0.1007
  567MOL0     H76503   9.009  -0.206   5.986  1.5638 -0.0359 -0.0772
  567MOL0     H76504   9.034  -0.232   6.163 -2.0057 -0.6659 -0.2042
  567MOL0     H76505   9.334   0.076   6.134 -1.6597  0.0484  0.0090
  567MOL0     H76506   9.561   0.001   6.149 -2.4538  2.0992 -0.0141
  567MOL0     H76507   9.796  -0.454   5.803  1.5953 -1.5772 -2.3442
  567MOL0     H76508  10.034  -0.545   5.763 -0.2150 -2.7891  0.8215
  567MOL0     H76509  10.210  -0.612   5.783 -0.1397  2.1012  0.8587
  567MOL0     H76510  10.350  -0.665   5.873 -0.7594  2.6215  2.5453
  567MOL0     H76511  10.097  -0.809   5.934  0.5325 -0.2211  0.8315
  567MOL0     H76512  10.171  -0.842   5.785  0.9663 -0.1579 -0.3303
  567MOL0     H76513  10.257  -1.001   5.961 -3.8598  1.4376 -1.8408
  567MOL0     H76514  10.389  -0.909   5.885 -0.1248 -1.3829  0.7537
  567MOL0     H76515  10.413  -0.749   6.082  0.2807  0.1962 -2.4751
  567MOL0     H76516  10.451  -0.910   6.098 -1.0036 -0.6063  1.6730
  567MOL0     H76517  10.222  -0.963   6.205  2.0337 -0.2537 -1.8281
  567MOL0     H76518  10.178  -0.788   6.183 -1.3728 -1.1662  0.8774
  567MOL0     H76519  10.410  -0.912   6.339 -0.1981 -1.0332 -3.2321
  567MOL0     H76520  10.400  -0.738   6.312  0.2622  0.9096  1.2299
  567MOL0     H76521  10.187  -0.730   6.458 -4.1016 -2.0018  1.6813
  567MOL0     H76522  10.327  -0.820   6.530  0.7772 -0.2181 -1.7078
  567MOL0     H76523  10.089  -0.911   6.564 -0.5035 -0.2661 -0.5941
  567MOL0     H76524  10.084  -0.959   6.404  0.1794 -0.6784  1.4864
  567MOL0     H76525  10.072  -0.530   6.204  0.1460  0.4289  0.1832
  567MOL0     H76526   9.862  -0.417   6.219 -1.5106  0.1377  0.0097
  567MOL0     H76527   9.433  -0.396   6.050  0.7702  0.7553 -1.6754
  567MOL0     H76528   9.221  -0.330   6.035 -0.0084 -0.0280  2.1557
  567MOL0     H76529   7.453   0.582   5.842 -0.4766 -0.7856 -1.7216
  567MOL0     H76530   7.220   0.631   5.911  0.8510  0.4939  0.6702
  567MOL0     H76531   6.883   0.649   5.978 -1.3096 -0.3087 -1.1286
  567MOL0     H76532   6.648   0.712   6.003 -1.5556 -3.6916 -0.8162
  567MOL0     H76533   6.433   0.699   6.102 -1.6999 -0.7604  0.6776
  567MOL0     H76534   6.495   0.845   6.033 -0.1197  0.9814  1.3381
  567MOL0     H76535   6.268   0.882   6.053  0.3860  1.3444  0.4482
  567MOL0     H76536   6.329   0.968   6.196 -1.4998 -0.1711 -0.0934
  567MOL0     H76537   6.139   0.849   6.279 -3.7385 -4.5569  2.1764
  567MOL0     H76538   6.279   0.754   6.328 -0.1754 -1.7194 -0.4811
  567MOL0     H76539   6.215   0.630   6.091  1.8226 -1.2079  2.1899
  567MOL0     H76540   6.154   0.579   6.242  1.0644  0.1632  0.2790
  567MOL0     H76541   5.828   0.754   6.020  1.7374 -0.4129 -0.0684
  567MOL0     H76542   6.719   0.808   6.408 -0.1540  2.1034 -1.5920
  567MOL0     H76543   6.897   0.643   6.515 -1.8344  3.9347  2.5304
  567MOL0     H76544   7.054   0.653   6.445  0.3550 -0.3524  0.1479
  567MOL0     H76545   6.964   0.801   6.485 -1.1481 -0.0883  1.0871
  568MOL0     O76546   8.639   9.032   1.485 -0.0339  0.5115 -0.0334
  568MOL0     C76547   8.514   9.022   1.497 -1.6126  0.2415 -0.0519
  568MOL0     O76548   8.427   9.023   1.392  0.9805  0.1707  0.0739
  568MOL0     C76549   8.463   9.057   1.263  0.8673  0.0270  0.7709
  568MOL0     C76550   8.524   8.969   1.176 -0.5962 -0.6481  0.7844
  568MOL0     C76551   8.563   9.012   1.049  0.2878  0.2900 -0.4466
  568MOL0     C76552   8.514   9.140   1.002 -0.7775 -0.1576  0.1413
  568MOL0     O76553   8.563   9.186   0.882  0.1590  0.4274 -0.1956
  568MOL0     C76554   8.597   9.323   0.870  0.2379  0.4649  0.3866
  568MOL0     C76555   8.738   9.328   0.805 -0.3607  0.9653 -0.4794
  568MOL0     C76556   8.850   9.267   0.901  0.4123  0.4268 -0.1034
  568MOL0     C76557   8.873   9.341   1.032  0.1221  1.1122  0.1762
  568MOL0     C76558   8.975   9.263   1.115 -0.5554  0.3061 -0.3784
  568MOL0     C76559   9.024   9.349   1.233 -0.5409  0.4854 -0.2789
  568MOL0     C76560   9.106   9.271   1.337 -0.2286  0.7086 -0.2103
  568MOL0     C76561   9.235   9.215   1.272  1.2159  0.1340 -0.1493
  568MOL0     N76562   9.336   9.175   1.368 -0.8470 -0.3882 -0.2671
  568MOL0     C76563   9.352   9.233   1.495 -0.0888 -0.0745  0.1389
  568MOL0     C76564   9.433   9.153   1.552 -0.6156  1.4971  0.0572
  568MOL0     C76565   9.473   9.151   1.702 -0.4907 -0.0289 -0.2757
  568MOL0     C76566   9.598   9.231   1.734  0.5805 -0.1408  0.2342
  568MOL0     C76567   9.731   9.196   1.666  0.2699  0.0949  0.2066
  568MOL0     C76568   9.769   9.045   1.645 -0.4935 -0.6251  0.0052
  568MOL0     O76569   9.785   8.972   1.769 -0.5889  0.0646  0.8011
  568MOL0     C76570   9.913   8.948   1.802 -0.8306 -0.7173 -1.1749
  568MOL0     C76571   9.991   9.035   1.875  0.2723  0.2391  0.2070
  568MOL0     C76572  10.116   9.009   1.919  0.6717  0.5652  0.3178
  568MOL0     C76573  10.178   8.882   1.884  0.6388 -0.8498  0.1783
  568MOL0     C76574  10.303   8.862   1.930 -0.6002  0.0467  0.3267
  568MOL0     O76575  10.364   8.954   2.007 -0.3198 -0.6360 -0.1639
  568MOL0     C76576  10.500   8.950   2.043  0.1665  0.4038 -0.0494
  568MOL0     C76577  10.534   8.949   2.176 -0.4476  0.6045  0.5886
  568MOL0     C76578  10.668   8.960   2.217  1.5574 -0.5344 -0.6653
  568MOL0     C76579  10.776   8.982   2.128 -0.2826  0.5513  0.5369
  568MOL0     O76580  10.900   8.985   2.193  0.4038  0.2727 -0.4919
  568MOL0     C76581  11.011   9.032   2.105  0.5614  0.0929  0.0982
  568MOL0     C76582  11.142   9.013   2.174  0.2325  0.1670  0.8713
  568MOL0     C76583  11.180   9.129   2.268  0.2658  1.1594 -0.1712
  568MOL0     C76584  11.313   9.203   2.227  0.4253 -0.4390 -0.9670
  568MOL0     C76585  11.315   9.335   2.315 -0.1840 -0.5140 -0.9875
  568MOL0     C76586  11.376   9.324   2.458 -0.4724  0.0224 -1.2251
  568MOL0     C76587  11.346   9.455   2.544 -0.1011 -0.4783  0.6946
  568MOL0     C76588  11.393   9.440   2.686  0.3218  0.7960 -1.6465
  568MOL0    Cl76589  11.573   9.416   2.687 -0.0291  0.2040  0.4515
  568MOL0     C76590  10.743   8.991   1.988  0.8588 -0.0884  0.9505
  568MOL0     C76591  10.603   8.963   1.949  0.0031 -0.2084  0.1314
  568MOL0     O76592  10.365   8.770   1.882  0.1887  0.7470 -0.0673
  568MOL0     C76593  10.101   8.792   1.802 -0.8539 -0.3457 -0.9357
  568MOL0     C76594   9.972   8.831   1.769  0.0265  0.0485  0.1355
  568MOL0     N76595   9.478   9.057   1.460  0.1470 -0.5348  0.6130
  568MOL0     N76596   9.410   9.070   1.352 -0.2151  0.1918 -0.6303
  568MOL0     C76597   8.433   9.220   1.086 -0.7756 -0.5543 -0.1540
  568MOL0     C76598   8.410   9.177   1.211  0.2283  0.4552  0.0402
  568MOL0     C76599   8.461   8.997   1.624  0.8528 -0.0896  0.5775
  568MOL0     C76600   8.520   8.902   1.706  0.4275  0.4927  0.8287
  568MOL0     C76601   8.473   8.864   1.822  0.1475  0.1177  0.2999
  568MOL0     C76602   8.360   8.919   1.869 -0.0066  0.2523  0.0979
  568MOL0     O76603   8.323   8.869   1.981 -0.2523  0.3352 -0.0886
  568MOL0     C76604   8.235   8.935   2.064  0.0802  0.4656 -0.2259
  568MOL0     C76605   8.277   8.906   2.218  0.5600 -0.2321  0.1956
  568MOL0     C76606   8.189   8.803   2.273 -0.1716  0.6477  0.0436
  568MOL0     C76607   8.249   8.663   2.256  0.2878  0.1460 -0.3314
  568MOL0     C76608   8.366   8.618   2.345 -0.2093 -1.0014 -0.5570
  568MOL0     C76609   8.464   8.598   2.409  0.2941  0.5373  0.2202
  568MOL0     C76610   8.292   9.016   1.796  0.2745 -0.1459 -0.4858
  568MOL0     C76611   8.348   9.061   1.677 -0.0674  0.9618 -0.2759
  568MOL0     C76612   8.290   9.183   1.607  0.2975 -0.1473 -0.0681
  568MOL0     H76613   8.546   8.867   1.206  0.3625 -0.2912  1.3270
  568MOL0     H76614   8.618   8.944   0.984  1.5534  0.0699  0.8152
  568MOL0     H76615   8.527   9.368   0.800  1.0040  0.8432 -0.1520
  568MOL0     H76616   8.584   9.375   0.965  0.6688 -0.1552  0.7924
  568MOL0     H76617   8.772   9.432   0.807  2.7377  0.0597  0.1352
  568MOL0     H76618   8.743   9.293   0.701  1.3736  0.8938 -0.4155
  568MOL0     H76619   8.938   9.261   0.836  0.0251 -0.8277 -0.5381
  568MOL0     H76620   8.824   9.168   0.939 -0.1583  1.0487  1.1981
  568MOL0     H76621   8.912   9.441   1.010 -0.8262  1.5149  0.2886
  568MOL0     H76622   8.783   9.357   1.091 -1.0261 -2.2710 -0.4836
  568MOL0     H76623   8.922   9.178   1.159 -1.2740  0.6876 -0.4812
  568MOL0     H76624   9.055   9.224   1.052 -0.1129  0.6046 -0.0048
  568MOL0     H76625   9.091   9.419   1.184  0.0028 -0.1393 -0.4402
  568MOL0     H76626   8.942   9.396   1.289 -1.4963 -1.0491 -0.3109
  568MOL0     H76627   9.049   9.187   1.378  1.1576 -1.0064 -1.6108
  568MOL0     H76628   9.136   9.346   1.410  3.4422 -2.8588  2.3671
  568MOL0     H76629   9.197   9.132   1.211 -1.1902  2.3353 -1.8702
  568MOL0     H76630   9.273   9.288   1.200  0.2614  1.6479  0.8365
  568MOL0     H76631   9.306   9.317   1.546 -0.3767  0.5188 -1.0622
  568MOL0     H76632   9.382   9.193   1.745 -1.4719  0.3669 -2.5784
  568MOL0     H76633   9.475   9.048   1.738 -0.2671  0.0800  0.0303
  568MOL0     H76634   9.576   9.333   1.702  1.2298  0.3778  1.3990
  568MOL0     H76635   9.619   9.230   1.841 -0.2371 -0.4502  0.4000
  568MOL0     H76636   9.804   9.258   1.718 -1.3104  1.5174  0.8104
  568MOL0     H76637   9.720   9.243   1.568 -2.0275 -0.1641  0.2787
  568MOL0     H76638   9.860   9.031   1.586  0.9331  1.7814  1.4479
  568MOL0     H76639   9.683   9.001   1.593 -0.5704  0.1725 -0.5544
  568MOL0     H76640   9.950   9.129   1.911  0.4889  0.1408  0.7205
  568MOL0     H76641  10.159   9.080   1.988  0.0145  0.7666  0.5232
  568MOL0     H76642  10.463   8.945   2.257 -1.5288  0.7511 -0.3237
  568MOL0     H76643  10.687   8.950   2.324 -0.2872  2.9499  0.1585
  568MOL0     H76644  11.020   8.969   2.016  3.3253  0.9590 -0.3210
  568MOL0     H76645  10.985   9.125   2.053 -3.3648 -1.0982 -0.4322
  568MOL0     H76646  11.161   8.921   2.231  1.6036 -0.9556 -1.2347
  568MOL0     H76647  11.220   9.008   2.097 -0.2881 -1.0419  0.3926
  568MOL0     H76648  11.098   9.200   2.281 -3.2913 -2.7477  0.8729
  568MOL0     H76649  11.187   9.083   2.367 -0.1032  1.2477 -0.1030
  568MOL0     H76650  11.313   9.233   2.122 -0.5296 -1.1142 -1.1750
  568MOL0     H76651  11.400   9.143   2.253  2.5008  1.8808 -2.1246
  568MOL0     H76652  11.216   9.376   2.337  1.3919  1.9844  2.3714
  568MOL0     H76653  11.364   9.411   2.254  1.7604 -1.3385 -0.5343
  568MOL0     H76654  11.333   9.235   2.505  1.9738 -0.8359 -0.4844
  568MOL0     H76655  11.484   9.307   2.454 -0.4802 -1.8870  2.3446
  568MOL0     H76656  11.238   9.472   2.539  0.0378  1.0992  2.3180
  568MOL0     H76657  11.391   9.542   2.496 -3.1533 -1.0978 -3.9759
  568MOL0     H76658  11.356   9.518   2.753 -0.2527  0.6592 -1.8007
  568MOL0     H76659  11.354   9.352   2.739  2.3978  0.7869  0.0138
  568MOL0     H76660  10.816   9.015   1.912 -1.2735  0.5366 -1.0233
  568MOL0     H76661  10.574   8.955   1.845  2.1665  3.7069 -0.9602
  568MOL0     H76662  10.152   8.702   1.769  2.8368  1.5276 -0.7289
  568MOL0     H76663   9.909   8.757   1.721  0.5617 -1.6862  1.9678
  568MOL0     H76664   8.402   9.317   1.049  2.1311  0.8828  0.9114
  568MOL0     H76665   8.351   9.232   1.284 -1.2463  1.5080 -1.8548
  568MOL0     H76666   8.608   8.842   1.683  0.2705  1.1473 -1.8162
  568MOL0     H76667   8.507   8.775   1.874 -1.5256 -1.7144 -1.5506
  568MOL0     H76668   8.140   8.886   2.044 -1.0450  0.3721  4.2828
  568MOL0     H76669   8.238   9.044   2.051  4.0847  0.5786  0.2536
  568MOL0     H76670   8.264   8.999   2.273  4.5842  3.2975 -4.0065
  568MOL0     H76671   8.384   8.886   2.229  0.8966  1.0852 -0.5406
  568MOL0     H76672   8.088   8.817   2.234  0.9719  2.8320 -2.4434
  568MOL0     H76673   8.176   8.818   2.380  0.0726  1.0850  0.0150
  568MOL0     H76674   8.175   8.586   2.281  3.0832 -3.2678 -1.7047
  568MOL0     H76675   8.277   8.640   2.153  1.4215 -0.6421  0.1342
  568MOL0     H76676   8.551   8.560   2.460  0.0044 -1.7128 -0.8028
  568MOL0     H76677   8.206   9.075   1.825 -0.1550 -1.3286  0.7403
  568MOL0     H76678   8.216   9.153   1.532  0.3744 -0.5478  0.0135
  568MOL0     H76679   8.233   9.243   1.679  2.7037  0.4618  1.4287
  568MOL0     H76680   8.362   9.245   1.554 -0.8739  0.1917 -1.3234
  569MOL0     O76681   7.282   7.665   0.333  0.5821 -0.6063 -0.0858
  569MOL0     C76682   7.263   7.652   0.211 -0.1774 -0.0055  0.1513
  569MOL0     O76683   7.308   7.741   0.125 -0.7498  0.2201 -0.2830
  569MOL0     C76684   7.393   7.842   0.149 -0.4124 -0.6077  0.7871
  569MOL0     C76685   7.349   7.972   0.161 -0.0432  0.4185  1.1669
  569MOL0     C76686   7.446   8.070   0.202  0.0250 -0.1597 -0.1058
  569MOL0     C76687   7.581   8.045   0.205 -0.5718  0.7045 -0.5709
  569MOL0     O76688   7.663   8.156   0.229  0.7812 -0.4914  0.1288
  569MOL0     C76689   7.802   8.155   0.234  0.2497  0.1328 -0.6190
  569MOL0     C76690   7.876   8.144   0.094 -0.7767 -0.3177  0.3464
  569MOL0     C76691   7.814   8.227  -0.014  0.3137  0.2016  0.7220
  569MOL0     C76692   7.870   8.231  -0.154 -1.0136  0.1098 -0.2342
  569MOL0     C76693   7.793   8.328  -0.244  0.9884  0.4186 -0.1683
  569MOL0     C76694   7.852   8.344  -0.388 -0.3931  0.3693  0.0102
  569MOL0     C76695   7.783   8.451  -0.470  0.1843 -0.9120  0.2595
  569MOL0     C76696   7.828   8.449  -0.609  0.1105 -0.6032  0.3175
  569MOL0     N76697   7.724   8.401  -0.699  0.4912 -0.2893  0.3911
  569MOL0     C76698   7.603   8.470  -0.715 -1.1347  0.0313 -0.1193
  569MOL0     C76699   7.527   8.398  -0.800 -0.3480  0.0871 -0.7250
  569MOL0     C76700   7.393   8.444  -0.853  0.4595  0.1765 -0.1242
  569MOL0     C76701   7.396   8.512  -0.992 -0.2598 -0.0543  0.1130
  569MOL0     C76702   7.472   8.655  -0.976 -0.0281  0.2915 -0.1413
  569MOL0     C76703   7.478   8.731  -1.109  0.4344 -0.6012 -0.5206
  569MOL0     O76704   7.507   8.876  -1.081 -0.3259  0.0373 -0.0982
  569MOL0     C76705   7.618   8.936  -1.141  1.2201 -0.3184 -0.1100
  569MOL0     C76706   7.686   9.043  -1.081 -0.6116  0.0408  0.6701
  569MOL0     C76707   7.789   9.113  -1.138 -0.1694  0.0173  0.6254
  569MOL0     C76708   7.852   9.064  -1.258 -0.2968  0.2751 -0.3013
  569MOL0     C76709   7.972   9.133  -1.303  0.4666 -0.2818 -0.4206
  569MOL0     O76710   8.029   9.089  -1.411 -0.3725  0.3549  0.1949
  569MOL0     C76711   8.143   9.153  -1.458 -0.6886 -0.2343 -0.0746
  569MOL0     C76712   8.262   9.146  -1.384  0.0982  0.3042 -0.6893
  569MOL0     C76713   8.380   9.201  -1.436  0.2818 -0.1570  0.0988
  569MOL0     C76714   8.374   9.256  -1.567 -0.0261  0.6988  0.4961
  569MOL0     O76715   8.490   9.321  -1.602  0.1111  0.4549  0.5085
  569MOL0     C76716   8.541   9.304  -1.735 -0.8903 -0.3577 -0.5569
  569MOL0     C76717   8.585   9.160  -1.772  0.4745 -0.6187  0.2514
  569MOL0     C76718   8.571   9.121  -1.919 -0.1710  0.2597 -0.4921
  569MOL0     C76719   8.705   9.049  -1.977  0.9021  0.3346  0.1998
  569MOL0     C76720   8.693   8.983  -2.116  0.1127  0.4611 -0.2155
  569MOL0     C76721   8.824   8.919  -2.169  0.8169 -0.4531 -0.7645
  569MOL0     C76722   8.943   9.013  -2.160 -0.5954  0.5486  0.2553
  569MOL0     C76723   9.063   8.964  -2.235 -0.6051  0.1963 -0.7257
  569MOL0    Cl76724   9.150   9.108  -2.286 -0.8637  0.1512  0.0822
  569MOL0     C76725   8.248   9.268  -1.634  0.3259 -0.4654 -1.0298
  569MOL0     C76726   8.128   9.216  -1.582 -0.6700  0.2729  0.1553
  569MOL0     O76727   8.005   9.232  -1.234  0.0297  0.0866 -0.8863
  569MOL0     C76728   7.797   8.946  -1.313 -0.1869  0.7368 -0.5514
  569MOL0     C76729   7.674   8.888  -1.259  0.4485  0.2192  0.4587
  569MOL0     N76730   7.601   8.273  -0.818 -0.1742  0.1030  0.8154
  569MOL0     N76731   7.707   8.275  -0.754 -0.3483 -0.0862  0.1474
  569MOL0     C76732   7.625   7.910   0.184  0.4183  0.4173  0.1710
  569MOL0     C76733   7.529   7.808   0.160 -0.4719 -0.2167  0.6868
  569MOL0     C76734   7.169   7.548   0.165 -0.1512 -1.2924 -0.4606
  569MOL0     C76735   7.084   7.499   0.257  0.9610  0.2022  0.3767
  569MOL0     C76736   6.978   7.415   0.219  0.1871  0.1694  0.5129
  569MOL0     C76737   6.948   7.386   0.082 -0.2965  0.4119 -0.0951
  569MOL0     O76738   6.834   7.319   0.039 -0.8254 -0.2429  0.3102
  569MOL0     C76739   6.741   7.278   0.144 -0.6271 -0.1855 -0.6126
  569MOL0     C76740   6.600   7.244   0.085  1.0834  0.3114 -0.2453
  569MOL0     C76741   6.586   7.115   0.004 -0.1814  0.1525 -0.3031
  569MOL0     C76742   6.546   7.149  -0.139  0.8337 -0.3798  0.3217
  569MOL0     C76743   6.653   7.213  -0.218 -0.1790  1.3020  0.6818
  569MOL0     C76744   6.740   7.231  -0.297  0.1734 -0.2599 -0.2916
  569MOL0     C76745   7.052   7.426  -0.011  0.2235 -0.2063 -0.5937
  569MOL0     C76746   7.164   7.503   0.031 -0.2401 -0.2069 -0.5871
  569MOL0     C76747   7.265   7.525  -0.075 -0.3994  0.4750 -0.8301
  569MOL0     H76748   7.242   7.988   0.169  0.0316  0.6949  1.6571
  569MOL0     H76749   7.399   8.164   0.228 -1.8994 -0.7785 -1.2115
  569MOL0     H76750   7.833   8.245   0.288 -0.0206 -0.4112  0.4570
  569MOL0     H76751   7.833   8.068   0.293 -2.0846  0.3792  1.0910
  569MOL0     H76752   7.880   8.039   0.065  0.9321  0.2484 -1.7855
  569MOL0     H76753   7.981   8.175   0.092 -1.0794  0.7778 -1.4462
  569MOL0     H76754   7.815   8.329   0.025 -1.7693  0.3509  0.4910
  569MOL0     H76755   7.712   8.192  -0.034  0.6845 -1.0314  0.9330
  569MOL0     H76756   7.970   8.271  -0.138 -0.7860  0.1471 -1.6312
  569MOL0     H76757   7.868   8.131  -0.197 -0.5233  0.5960 -1.4344
  569MOL0     H76758   7.686   8.309  -0.251  1.0147  0.5690 -1.1633
  569MOL0     H76759   7.803   8.423  -0.190  1.1610  2.5420 -3.6129
  569MOL0     H76760   7.959   8.365  -0.380 -0.4501  0.2219  1.5534
  569MOL0     H76761   7.856   8.246  -0.438  2.2309 -0.7046  2.0751
  569MOL0     H76762   7.805   8.549  -0.427  1.7501 -1.2160  0.1990
  569MOL0     H76763   7.674   8.451  -0.459  0.1547  2.0733  0.7258
  569MOL0     H76764   7.868   8.546  -0.641 -0.0760  0.3138  2.7090
  569MOL0     H76765   7.911   8.377  -0.608 -0.6556 -1.4986  1.0120
  569MOL0     H76766   7.571   8.563  -0.668  0.7073  0.4747  0.3100
  569MOL0     H76767   7.332   8.353  -0.860  0.6541 -0.0383  0.8228
  569MOL0     H76768   7.360   8.520  -0.781  2.2521  1.5119 -0.6485
  569MOL0     H76769   7.445   8.449  -1.066  1.3341 -0.2798  1.3074
  569MOL0     H76770   7.290   8.510  -1.018 -0.2528 -2.9627  0.0206
  569MOL0     H76771   7.569   8.630  -0.932 -0.0723 -1.6340 -1.0359
  569MOL0     H76772   7.411   8.714  -0.907  0.5073  0.8481 -0.1345
  569MOL0     H76773   7.384   8.730  -1.165 -1.0875 -2.4035  1.9045
  569MOL0     H76774   7.556   8.680  -1.166  1.7192  0.7964 -0.1201
  569MOL0     H76775   7.643   9.078  -0.988  1.5524  1.9796  1.0100
  569MOL0     H76776   7.829   9.204  -1.093 -0.3608  0.8767 -0.8821
  569MOL0     H76777   8.259   9.086  -1.293  3.5279 -5.3618 -3.7080
  569MOL0     H76778   8.469   9.200  -1.373 -0.1623  1.5551  0.8374
  569MOL0     H76779   8.463   9.344  -1.800 -0.1127  0.5504 -0.9689
  569MOL0     H76780   8.621   9.378  -1.748 -2.1551  1.0952 -0.2676
  569MOL0     H76781   8.688   9.151  -1.736 -0.0659 -0.7240  1.8756
  569MOL0     H76782   8.527   9.092  -1.708  1.1374 -1.4025  0.0336
  569MOL0     H76783   8.488   9.052  -1.936 -2.4422  2.8922 -0.6017
  569MOL0     H76784   8.552   9.210  -1.978  2.8300  3.1841  2.4976
  569MOL0     H76785   8.747   8.968  -1.916  1.5721 -1.9000 -2.9422
  569MOL0     H76786   8.786   9.121  -1.991 -0.1764  1.0553 -3.4730
  569MOL0     H76787   8.659   9.049  -2.196  2.8880 -0.0444 -1.9450
  569MOL0     H76788   8.618   8.903  -2.106 -1.7219  1.6402 -3.3355
  569MOL0     H76789   8.842   8.838  -2.098 -0.5452 -1.1896 -1.2178
  569MOL0     H76790   8.821   8.866  -2.265 -1.0616  2.4489 -2.4541
  569MOL0     H76791   8.972   9.029  -2.056 -2.4159 -1.0808  1.0796
  569MOL0     H76792   8.906   9.106  -2.205 -4.5228 -0.2302  1.4947
  569MOL0     H76793   9.133   8.904  -2.177  0.5443 -1.1332 -3.3247
  569MOL0     H76794   9.041   8.896  -2.318 -1.7990 -1.4848  0.9109
  569MOL0     H76795   8.245   9.329  -1.723 -1.4701  1.9176  0.5175
  569MOL0     H76796   8.040   9.217  -1.645  0.0544 -2.0708 -1.0305
  569MOL0     H76797   7.864   8.911  -1.390  0.4451  0.3141  0.1692
  569MOL0     H76798   7.654   8.796  -1.314 -0.7490  0.5484  0.3141
  569MOL0     H76799   7.731   7.892   0.176  0.7126  2.5472 -1.3578
  569MOL0     H76800   7.546   7.701   0.167  0.9062 -0.0994 -0.3941
  569MOL0     H76801   7.088   7.539   0.358  1.9890  1.6358 -0.2026
  569MOL0     H76802   6.924   7.385   0.308 -0.1562  1.1639  0.6587
  569MOL0     H76803   6.734   7.361   0.215  3.0699  1.9967 -2.4525
  569MOL0     H76804   6.782   7.196   0.204  0.1815 -1.9968 -3.4184
  569MOL0     H76805   6.557   7.330   0.033 -2.2531  0.1669  1.9547
  569MOL0     H76806   6.530   7.231   0.169  2.3131 -0.1259  0.7353
  569MOL0     H76807   6.505   7.054   0.044  0.9409 -0.5717  0.9455
  569MOL0     H76808   6.675   7.053   0.019 -1.0447 -0.3666  3.8594
  569MOL0     H76809   6.519   7.059  -0.196 -0.1516 -0.8920  1.5447
  569MOL0     H76810   6.462   7.219  -0.134  1.7849  1.0174 -1.7826
  569MOL0     H76811   6.819   7.246  -0.368  0.0775  3.2922  0.1572
  569MOL0     H76812   7.032   7.383  -0.109  1.3464  1.8350 -1.7909
  569MOL0     H76813   7.238   7.612  -0.135 -1.1141  0.8457  0.0007
  569MOL0     H76814   7.369   7.540  -0.044 -0.1057 -0.0235 -1.5494
  569MOL0     H76815   7.269   7.430  -0.128  3.1378  0.2575 -0.4000
  570MOL0     O76816   8.062   3.284   7.850 -0.0397 -0.0246  0.2910
  570MOL0     C76817   7.960   3.351   7.878  0.1286 -0.5786 -1.0800
  570MOL0     O76818   7.968   3.475   7.943  0.3932 -0.3451  0.0554
  570MOL0     C76819   8.067   3.485   8.038 -0.6218  0.5332 -1.1150
  570MOL0     C76820   8.073   3.387   8.148 -0.7442  0.0199 -0.3027
  570MOL0     C76821   8.169   3.398   8.243  0.0821 -0.4148 -0.4646
  570MOL0     C76822   8.263   3.504   8.246  0.9993  0.3468  0.5205
  570MOL0     O76823   8.373   3.495   8.331  0.7227 -0.1541  0.3619
  570MOL0     C76824   8.362   3.426   8.454  0.1456 -0.2677 -0.0221
  570MOL0     C76825   8.488   3.453   8.538  0.8825 -0.4010  0.1399
  570MOL0     C76826   8.525   3.601   8.553  0.1003 -0.2996 -0.3809
  570MOL0     C76827   8.635   3.617   8.659  0.4949 -0.1859 -0.6753
  570MOL0     C76828   8.768   3.547   8.619 -0.0462  0.3486  0.1179
  570MOL0     C76829   8.882   3.561   8.727  0.1726  0.4759 -0.0798
  570MOL0     C76830   8.855   3.506   8.875 -0.4441  0.1858 -0.1207
  570MOL0     C76831   8.835   3.356   8.872  0.1123  0.1312 -0.5920
  570MOL0     N76832   8.954   3.281   8.915 -0.3552  0.2558  0.1151
  570MOL0     C76833   9.084   3.317   8.876  0.7112  0.1129  0.2552
  570MOL0     C76834   9.155   3.223   8.937 -0.2275 -0.1219 -0.1278
  570MOL0     C76835   9.305   3.219   8.932 -0.7315  0.3330  0.4085
  570MOL0     C76836   9.344   3.100   8.842  1.4182  0.9995 -0.1386
  570MOL0     C76837   9.493   3.057   8.855 -0.4325  0.2223  0.0505
  570MOL0     C76838   9.589   3.166   8.806 -0.1652  0.1449  0.7590
  570MOL0     O76839   9.680   3.192   8.919  0.2914  0.2831 -0.1404
  570MOL0     C76840   9.787   3.271   8.902  0.1702 -0.3075  0.4395
  570MOL0     C76841   9.850   3.292   8.773  0.3833 -1.5937  0.1145
  570MOL0     C76842   9.967   3.375   8.764 -0.3361  0.6908  0.1516
  570MOL0     C76843  10.013   3.441   8.877  0.4586 -0.3555  0.0331
  570MOL0     C76844  10.139   3.518   8.876  0.0743  0.2955 -0.1847
  570MOL0     O76845  10.181   3.549   8.757 -1.3022 -0.3358  0.5025
  570MOL0     C76846  10.310   3.588   8.722 -0.0875 -0.3395  0.8404
  570MOL0     C76847  10.424   3.571   8.799 -0.5514  0.4751  0.4190
  570MOL0     C76848  10.547   3.608   8.752 -1.1716 -0.2187  0.8622
  570MOL0     C76849  10.564   3.658   8.627  0.6956 -0.6495 -0.5395
  570MOL0     O76850  10.689   3.685   8.588  0.2691 -0.2275  0.2530
  570MOL0     C76851  10.742   3.619   8.474 -0.3924 -0.4023  0.2423
  570MOL0     C76852  10.785   3.483   8.504 -0.2710  0.8157 -0.0492
  570MOL0     C76853  10.918   3.474   8.596  0.1513  0.5480 -0.1365
  570MOL0     C76854  11.019   3.372   8.537  0.3351 -0.3155  0.1187
  570MOL0     C76855  11.146   3.341   8.618 -0.3233 -0.0911 -0.1219
  570MOL0     C76856  11.229   3.235   8.551 -0.7910  0.5915 -0.3429
  570MOL0     C76857  11.338   3.204   8.653 -0.2267  1.0955  0.0125
  570MOL0     C76858  11.413   3.081   8.600  0.1922  0.8617 -0.4347
  570MOL0    Cl76859  11.536   3.012   8.717  0.5635 -0.2527  0.1120
  570MOL0     C76860  10.451   3.675   8.543 -0.6214  0.4533 -0.2174
  570MOL0     C76861  10.325   3.635   8.590  0.3225 -0.1840  0.4242
  570MOL0     O76862  10.198   3.543   8.982  0.3768  0.6487 -0.2943
  570MOL0     C76863   9.945   3.425   9.003 -0.1086  0.5702  0.2462
  570MOL0     C76864   9.835   3.346   9.010  0.4969  0.3498  0.3623
  570MOL0     N76865   9.076   3.135   9.009 -0.3465 -0.3285  0.7129
  570MOL0     N76866   8.960   3.171   8.998  0.0209 -0.0503  0.4188
  570MOL0     C76867   8.248   3.599   8.149  0.9123  0.2139  0.4376
  570MOL0     C76868   8.147   3.592   8.049  0.4494 -0.0060  0.3642
  570MOL0     C76869   7.825   3.310   7.841  0.1255  0.4978  0.0978
  570MOL0     C76870   7.814   3.212   7.741 -0.3855 -0.0721  1.2029
  570MOL0     C76871   7.689   3.155   7.693 -0.7791 -0.0313 -1.0695
  570MOL0     C76872   7.572   3.206   7.753  0.5099 -0.1342  0.7890
  570MOL0     O76873   7.457   3.163   7.692 -0.1660  0.0070  0.2837
  570MOL0     C76874   7.339   3.152   7.770  0.0789 -0.2218  0.2785
  570MOL0     C76875   7.209   3.092   7.708 -0.3702  0.7086 -1.1030
  570MOL0     C76876   7.204   3.105   7.567 -0.1484 -0.1019  0.1631
  570MOL0     C76877   7.073   3.027   7.519  0.1276  0.0722  0.1038
  570MOL0     C76878   7.051   3.041   7.373 -0.6299 -0.9607 -0.5697
  570MOL0     C76879   7.026   3.056   7.256  0.4260 -1.0893 -0.4875
  570MOL0     C76880   7.582   3.287   7.868  0.5470  0.3037 -0.0999
  570MOL0     C76881   7.701   3.345   7.905  0.3094  0.8292 -0.1215
  570MOL0     C76882   7.690   3.452   8.014  0.7311 -0.2668 -1.0539
  570MOL0     H76883   7.992   3.315   8.153 -0.1348 -0.8253 -2.0361
  570MOL0     H76884   8.173   3.322   8.320  1.3604  0.2386  0.1465
  570MOL0     H76885   8.275   3.461   8.511 -0.8634 -1.0273 -1.0536
  570MOL0     H76886   8.352   3.320   8.428 -1.7953  0.0991 -1.0056
  570MOL0     H76887   8.574   3.401   8.495  1.3338 -0.2726  0.8723
  570MOL0     H76888   8.474   3.416   8.641 -0.0811 -1.2308 -0.2746
  570MOL0     H76889   8.444   3.667   8.587  0.1812  0.8417 -2.2466
  570MOL0     H76890   8.556   3.635   8.454 -3.0617  0.5220 -1.2003
  570MOL0     H76891   8.647   3.723   8.686 -1.7948 -0.4822  1.8910
  570MOL0     H76892   8.586   3.576   8.748 -1.7827  1.2194 -1.2067
  570MOL0     H76893   8.741   3.443   8.596 -1.7891  1.5583 -4.1937
  570MOL0     H76894   8.798   3.584   8.521  1.1476 -0.7466  0.0511
  570MOL0     H76895   8.962   3.506   8.676 -2.3632 -1.6290 -2.0333
  570MOL0     H76896   8.905   3.666   8.748 -3.3825  1.1343  1.2160
  570MOL0     H76897   8.763   3.548   8.917  1.0670  0.5446  3.1184
  570MOL0     H76898   8.929   3.534   8.951 -1.2449 -0.7976  1.0488
  570MOL0     H76899   8.751   3.337   8.940  0.8230 -0.8188  0.0381
  570MOL0     H76900   8.801   3.330   8.771 -3.7821  0.0920  0.5735
  570MOL0     H76901   9.124   3.406   8.828  1.8558  0.3991  1.6528
  570MOL0     H76902   9.341   3.311   8.884  0.1357 -1.2766 -2.2232
  570MOL0     H76903   9.342   3.213   9.034  3.6622  2.8993 -0.7754
  570MOL0     H76904   9.282   3.019   8.881 -1.0473  2.8646  0.0715
  570MOL0     H76905   9.313   3.114   8.738 -0.9698 -0.0002  0.3771
  570MOL0     H76906   9.503   2.965   8.796  1.4127  0.6651 -0.3825
  570MOL0     H76907   9.501   3.029   8.960 -1.5551  2.0266  0.6620
  570MOL0     H76908   9.526   3.246   8.766  0.2265  0.0190 -0.1464
  570MOL0     H76909   9.635   3.122   8.717 -0.2463 -1.2209  1.3634
  570MOL0     H76910   9.816   3.240   8.684  0.0901 -0.9611 -0.1498
  570MOL0     H76911  10.008   3.391   8.664  0.4015 -1.5611  0.0518
  570MOL0     H76912  10.421   3.538   8.903  4.3079 -0.4665  0.4618
  570MOL0     H76913  10.636   3.609   8.815 -0.4488  0.0248 -0.1349
  570MOL0     H76914  10.661   3.623   8.401  1.3524  1.1678 -1.7142
  570MOL0     H76915  10.827   3.674   8.435 -1.6062 -0.5656 -2.8927
  570MOL0     H76916  10.705   3.435   8.559  0.0298  1.9299  1.4242
  570MOL0     H76917  10.809   3.426   8.414 -0.5307 -0.6444  0.7830
  570MOL0     H76918  10.960   3.572   8.621  0.2944 -0.1921  2.9510
  570MOL0     H76919  10.892   3.423   8.690 -0.8997 -1.1407 -1.2911
  570MOL0     H76920  11.043   3.399   8.433 -0.9302 -0.2338 -0.1665
  570MOL0     H76921  10.970   3.275   8.527  0.8380 -0.5150 -0.5327
  570MOL0     H76922  11.111   3.313   8.717  0.6543 -2.9120 -0.5033
  570MOL0     H76923  11.195   3.437   8.634  0.1753 -0.7603  2.9733
  570MOL0     H76924  11.173   3.144   8.524 -0.3586  1.0484 -3.0791
  570MOL0     H76925  11.275   3.270   8.458 -1.2097 -0.0346 -0.7987
  570MOL0     H76926  11.288   3.178   8.747 -1.1954  3.0705  0.0923
  570MOL0     H76927  11.407   3.288   8.658  0.1318  0.7995  0.1604
  570MOL0     H76928  11.335   3.004   8.591  0.6857  0.3652 -0.5326
  570MOL0     H76929  11.453   3.100   8.500 -0.2570 -0.5243 -0.9005
  570MOL0     H76930  10.462   3.711   8.441 -3.1614  1.5039 -0.1815
  570MOL0     H76931  10.237   3.632   8.527  1.7003 -0.0371 -1.5968
  570MOL0     H76932   9.982   3.489   9.083 -1.2722 -0.3988  1.6187
  570MOL0     H76933   9.775   3.356   9.100 -1.4828 -0.1356 -0.8526
  570MOL0     H76934   8.306   3.691   8.156  0.3590  0.5029  1.4895
  570MOL0     H76935   8.138   3.677   7.983 -1.1386  0.0536  0.6252
  570MOL0     H76936   7.903   3.179   7.688  0.1177  0.6123  1.6021
  570MOL0     H76937   7.688   3.084   7.611  1.6107 -1.0615 -0.2946
  570MOL0     H76938   7.309   3.251   7.805  0.4090 -0.6711  1.9381
  570MOL0     H76939   7.359   3.100   7.864 -1.4894  1.7597  1.8041
  570MOL0     H76940   7.120   3.126   7.762  2.1302  3.7566  1.5095
  570MOL0     H76941   7.209   2.983   7.713 -0.5045  0.6070 -2.6454
  570MOL0     H76942   7.295   3.063   7.521 -1.2071 -0.9582 -1.2356
  570MOL0     H76943   7.197   3.207   7.528 -0.0186 -0.9710 -2.3064
  570MOL0     H76944   7.092   2.923   7.545  4.9474  0.5406 -0.6303
  570MOL0     H76945   6.980   3.055   7.569 -0.6091 -1.1349 -0.5362
  570MOL0     H76946   6.993   3.068   7.155 -2.3703  0.5241  0.4855
  570MOL0     H76947   7.495   3.306   7.930  0.7294 -0.1956  0.3181
  570MOL0     H76948   7.589   3.482   8.041  1.6473  0.1136  2.5711
  570MOL0     H76949   7.739   3.418   8.106  1.4942  1.5875 -0.7366
  570MOL0     H76950   7.738   3.547   7.990 -1.8183  1.4711  0.2878
  571MOL0     O76951   4.958   0.017  10.026 -0.2836  0.1272 -0.7245
  571MOL0     C76952   4.891   0.099  10.092  0.1720 -0.0436 -0.9338
  571MOL0     O76953   4.942   0.163  10.199 -0.2314  0.6017 -0.3858
  571MOL0     C76954   5.075   0.149  10.225 -0.8229 -0.6671  1.1149
  571MOL0     C76955   5.163   0.251  10.218  0.5454 -1.6062  0.6666
  571MOL0     C76956   5.304   0.234  10.246  0.1800 -0.5159  0.3069
  571MOL0     C76957   5.355   0.108  10.286 -0.4166  0.0280 -0.3938
  571MOL0     O76958   5.481   0.083  10.330  0.2135  1.0414 -0.0106
  571MOL0     C76959   5.573   0.190  10.335  0.7241 -1.0200  0.0188
  571MOL0     C76960   5.725   0.150  10.368 -0.0783 -0.3249  0.5554
  571MOL0     C76961   5.830   0.252  10.424 -0.2008  0.3463  0.1338
  571MOL0     C76962   5.978   0.197  10.447  0.9165 -0.3566 -0.6093
  571MOL0     C76963   6.046   0.198  10.314 -0.3562  0.5503  0.9191
  571MOL0     C76964   6.182   0.133  10.331  0.2466 -0.2631 -0.8905
  571MOL0     C76965   6.271   0.228  10.423  0.1811  0.0019  0.1776
  571MOL0     C76966   6.413   0.233  10.364 -0.6351 -0.4552 -0.1829
  571MOL0     N76967   6.513   0.264  10.459 -0.0905  0.5177  0.1365
  571MOL0     C76968   6.522   0.381  10.530 -0.0381 -0.1850 -0.1373
  571MOL0     C76969   6.610   0.354  10.633  0.2558  0.3180 -0.4434
  571MOL0     C76970   6.675   0.447  10.740 -0.6853 -0.7624  0.3456
  571MOL0     C76971   6.824   0.419  10.777 -0.3710  0.3790  0.0881
  571MOL0     C76972   6.879   0.504  10.892  0.0822  0.3650 -0.5138
  571MOL0     C76973   7.031   0.500  10.904  1.4582 -0.2353  0.3452
  571MOL0     O76974   7.076   0.613  10.988  0.8836  0.7291 -0.2801
  571MOL0     C76975   7.209   0.620  11.033  0.3527 -0.2338  0.0676
  571MOL0     C76976   7.238   0.712  11.139  0.0410 -0.2900 -0.1567
  571MOL0     C76977   7.368   0.744  11.177  0.2726 -0.4387  0.2867
  571MOL0     C76978   7.478   0.673  11.117  0.7925 -0.3831 -0.8406
  571MOL0     C76979   7.612   0.700  11.156 -0.1036  0.4417 -0.6406
  571MOL0     O76980   7.704   0.605  11.131 -0.0103  1.0351 -0.4519
  571MOL0     C76981   7.837   0.634  11.175  0.5828  0.2608  0.8659
  571MOL0     C76982   7.922   0.722  11.103 -0.2133 -0.6308  0.2768
  571MOL0     C76983   8.050   0.759  11.144 -0.4443  0.1219 -0.3133
  571MOL0     C76984   8.098   0.692  11.260  0.7279  0.1070 -0.4512
  571MOL0     O76985   8.229   0.706  11.305 -0.1941 -0.4725  0.3285
  571MOL0     C76986   8.301   0.826  11.267  0.2545  0.5700  0.0046
  571MOL0     C76987   8.401   0.821  11.139 -0.0621 -0.2034 -0.8724
  571MOL0     C76988   8.498   0.945  11.133  0.3931  0.2972  0.5644
  571MOL0     C76989   8.596   0.904  11.024 -0.6200  0.0263  0.8495
  571MOL0     C76990   8.680   1.032  10.987  0.4199  0.0688  0.2531
  571MOL0     C76991   8.790   0.998  10.877  0.2797 -0.2639 -0.2031
  571MOL0     C76992   8.865   1.125  10.814 -0.7240  0.3657  0.1580
  571MOL0     C76993   8.990   1.161  10.887 -0.8084 -0.0688  0.0632
  571MOL0    Cl76994   8.953   1.231  11.040 -0.0895 -0.5458  0.3655
  571MOL0     C76995   8.023   0.588  11.324  0.8145 -0.6587  0.1276
  571MOL0     C76996   7.901   0.557  11.279 -0.7586 -0.1301  0.5504
  571MOL0     O76997   7.633   0.811  11.211  0.4829  0.7058  0.7615
  571MOL0     C76998   7.448   0.579  11.021 -1.0335 -0.2726 -0.4327
  571MOL0     C76999   7.317   0.554  10.973 -0.7382 -0.2760 -0.2680
  571MOL0     N77000   6.636   0.212  10.629 -0.5151  0.1524  0.2901
  571MOL0     N77001   6.585   0.167  10.522 -0.0082  0.0674  0.1473
  571MOL0     C77002   5.263   0.004  10.293  0.1793 -0.6263  0.6372
  571MOL0     C77003   5.128   0.028  10.259  0.2029  0.4115 -0.1515
  571MOL0     C77004   4.753   0.124  10.040  1.2554  0.3485 -0.9895
  571MOL0     C77005   4.702   0.043   9.943  0.0339 -0.2133  0.6035
  571MOL0     C77006   4.572   0.044   9.899 -0.1039  0.1589  0.5743
  571MOL0     C77007   4.488   0.145   9.952 -0.4843  0.0956  0.1004
  571MOL0     O77008   4.354   0.162   9.936  0.0769  0.7774  0.0384
  571MOL0     C77009   4.323   0.196   9.800  0.9739  0.7882 -0.4766
  571MOL0     C77010   4.173   0.189   9.783  1.4116  0.6562  1.2712
  571MOL0     C77011   4.121   0.212   9.640 -0.0445  0.4907 -1.1358
  571MOL0     C77012   3.965   0.188   9.620  0.2539 -0.2422 -0.4301
  571MOL0     C77013   3.898   0.289   9.703  0.0344 -0.0352 -0.5679
  571MOL0     C77014   3.845   0.375   9.767  0.4457 -0.3661 -0.2355
  571MOL0     C77015   4.543   0.242  10.041  0.7362 -0.5266 -0.2018
  571MOL0     C77016   4.676   0.232  10.091  0.1586  0.1689 -0.2213
  571MOL0     C77017   4.713   0.323  10.197 -1.0322  1.2831  0.0424
  571MOL0     H77018   5.122   0.345  10.183  0.6140 -1.4502  0.9983
  571MOL0     H77019   5.370   0.320  10.243 -0.8461  0.2651 -0.5730
  571MOL0     H77020   5.574   0.249  10.242  1.0517 -1.8494 -0.5136
  571MOL0     H77021   5.536   0.261  10.410 -0.0338 -0.0449 -1.2147
  571MOL0     H77022   5.760   0.110  10.272 -0.6945 -1.2817  0.7114
  571MOL0     H77023   5.724   0.072  10.445  0.2519  0.7009  1.6408
  571MOL0     H77024   5.793   0.275  10.524 -2.3773 -0.2832 -0.4773
  571MOL0     H77025   5.839   0.346  10.369 -0.6428  0.9078  1.0029
  571MOL0     H77026   6.024   0.269  10.514 -1.2259  0.6155 -0.1069
  571MOL0     H77027   5.984   0.097  10.490 -3.5260 -0.9719 -0.9373
  571MOL0     H77028   5.988   0.140  10.241  1.7020 -2.4860  1.5013
  571MOL0     H77029   6.060   0.302  10.281  0.2321  0.9169  2.2589
  571MOL0     H77030   6.186   0.032  10.373  0.1519 -1.4007 -3.3926
  571MOL0     H77031   6.229   0.135  10.232  1.5049  0.5145 -0.3025
  571MOL0     H77032   6.260   0.187  10.524 -3.2352  0.3478  0.0442
  571MOL0     H77033   6.234   0.331  10.417 -1.7216 -0.7223 -2.2155
  571MOL0     H77034   6.439   0.142  10.308 -0.4489  0.0002 -0.8518
  571MOL0     H77035   6.418   0.310  10.286  3.3843 -1.2860 -0.9311
  571MOL0     H77036   6.475   0.476  10.504  0.3470 -0.2720 -1.2381
  571MOL0     H77037   6.675   0.548  10.698 -1.1086 -2.1084 -3.2416
  571MOL0     H77038   6.617   0.439  10.832  2.4513 -0.1132  2.5397
  571MOL0     H77039   6.837   0.312  10.799 -1.4341  0.0804 -0.6281
  571MOL0     H77040   6.875   0.438  10.682 -0.6308  1.0326  0.0788
  571MOL0     H77041   6.840   0.461  10.984  0.3640 -0.7139 -0.8714
  571MOL0     H77042   6.852   0.610  10.886  0.6489  0.4497 -2.1978
  571MOL0     H77043   7.082   0.512  10.808  1.2402  1.4645  0.4074
  571MOL0     H77044   7.074   0.408  10.945  0.5541 -0.5026  0.7115
  571MOL0     H77045   7.151   0.763  11.178  0.8048  0.6947  0.2897
  571MOL0     H77046   7.378   0.822  11.251 -2.5359  0.6740 -0.3791
  571MOL0     H77047   7.881   0.773  11.016 -2.3336 -0.0774  1.5400
  571MOL0     H77048   8.100   0.838  11.089  1.7357 -1.0172 -0.0579
  571MOL0     H77049   8.232   0.910  11.248  0.3715  0.4993 -0.7725
  571MOL0     H77050   8.346   0.849  11.364 -0.0041 -5.1066  1.7788
  571MOL0     H77051   8.462   0.731  11.143  1.3462  0.7272 -0.7555
  571MOL0     H77052   8.333   0.811  11.054 -0.8770 -4.3081  0.0740
  571MOL0     H77053   8.440   1.035  11.112 -1.5626 -1.1492 -0.7006
  571MOL0     H77054   8.549   0.960  11.228 -1.2359  1.3022  1.3297
  571MOL0     H77055   8.546   0.853  10.941  1.0195  1.6554 -1.2581
  571MOL0     H77056   8.657   0.823  11.063 -2.2774 -1.9452 -0.4521
  571MOL0     H77057   8.736   1.079  11.069  1.4619  3.5090 -2.2250
  571MOL0     H77058   8.614   1.104  10.940 -0.5770 -0.3142  1.0391
  571MOL0     H77059   8.868   0.933  10.918  0.3955 -0.2830 -0.4519
  571MOL0     H77060   8.741   0.933  10.804  1.3279 -1.3445  0.0323
  571MOL0     H77061   8.799   1.212  10.812  1.2145  1.9272  0.4819
  571MOL0     H77062   8.896   1.100  10.712 -5.4373  0.6626 -1.6093
  571MOL0     H77063   9.046   1.068  10.903  0.7084  0.6662 -0.7831
  571MOL0     H77064   9.048   1.233  10.828  1.9905 -3.7000 -2.0862
  571MOL0     H77065   8.071   0.530  11.402  1.7755  0.8198  0.6787
  571MOL0     H77066   7.842   0.482  11.331 -1.7457 -1.8230 -2.7695
  571MOL0     H77067   7.531   0.522  10.978 -0.2645 -0.8864  1.7245
  571MOL0     H77068   7.302   0.483  10.892  0.8236  1.2835 -2.0041
  571MOL0     H77069   5.298  -0.093  10.327  2.9368  0.6835  1.8773
  571MOL0     H77070   5.058  -0.047  10.293  0.3616  0.5931  0.6043
  571MOL0     H77071   4.768  -0.036   9.907  1.0022  1.4927 -1.6282
  571MOL0     H77072   4.547  -0.036   9.830 -0.0458 -0.9273  1.7958
  571MOL0     H77073   4.373   0.121   9.738 -0.8157  0.4165 -1.5413
  571MOL0     H77074   4.368   0.294   9.785  0.2846  2.1117  4.4070
  571MOL0     H77075   4.119   0.255   9.851 -4.4651 -1.8519 -0.3158
  571MOL0     H77076   4.137   0.091   9.815 -0.3949  1.8209  3.0115
  571MOL0     H77077   4.182   0.150   9.574  5.6820  4.3781 -0.2435
  571MOL0     H77078   4.144   0.318   9.622  2.0388  0.1868 -0.5272
  571MOL0     H77079   3.927   0.192   9.518 -1.6759 -1.6045  0.1972
  571MOL0     H77080   3.933   0.091   9.658 -0.6390 -0.0538 -0.6796
  571MOL0     H77081   3.790   0.454   9.812  1.1048  0.6124 -1.1040
  571MOL0     H77082   4.473   0.311  10.085  0.5862 -0.9742  0.2699
  571MOL0     H77083   4.624   0.383  10.216 -3.0934 -1.7955  0.8515
  571MOL0     H77084   4.717   0.267  10.292 -0.5711  1.1365 -0.0592
  571MOL0     H77085   4.805   0.377  10.174  0.4359  0.2284  2.9118
  572MOL0     O77086   2.598   0.580   0.921 -0.1741  0.2171  0.3031
  572MOL0     C77087   2.716   0.561   0.968  0.1564 -0.6837  0.5040
  572MOL0     O77088   2.780   0.636   1.060 -0.2895  0.0944  0.5728
  572MOL0     C77089   2.710   0.731   1.132  0.3364 -0.4713  0.6679
  572MOL0     C77090   2.583   0.697   1.205  0.0601  0.6283 -0.0802
  572MOL0     C77091   2.520   0.782   1.286 -0.2707 -0.6916 -0.6596
  572MOL0     C77092   2.577   0.904   1.307  0.4276  0.3160  0.7287
  572MOL0     O77093   2.496   0.991   1.376 -0.0811  0.2746  0.4788
  572MOL0     C77094   2.558   1.071   1.476 -0.6304 -0.0833 -0.4382
  572MOL0     C77095   2.472   1.191   1.511 -0.0210 -0.2046  1.6552
  572MOL0     C77096   2.464   1.307   1.404 -0.1098 -0.6910 -0.3862
  572MOL0     C77097   2.607   1.326   1.347  0.6647  0.7028 -0.0882
  572MOL0     C77098   2.633   1.461   1.282  0.2180 -0.7547 -0.5151
  572MOL0     C77099   2.765   1.471   1.210  0.2831 -0.2467  0.2007
  572MOL0     C77100   2.838   1.605   1.231  0.6197  0.2316  0.4654
  572MOL0     C77101   2.755   1.733   1.195  0.4201  0.7416 -0.1850
  572MOL0     N77102   2.704   1.742   1.062 -0.6730 -0.2248 -0.1750
  572MOL0     C77103   2.764   1.811   0.963 -0.7804 -0.1561 -0.6484
  572MOL0     C77104   2.674   1.818   0.862 -0.0400 -0.2795 -0.1663
  572MOL0     C77105   2.682   1.878   0.730  0.1306  0.0022  0.9232
  572MOL0     C77106   2.581   1.993   0.718  0.3643 -0.1589 -0.4710
  572MOL0     C77107   2.620   2.102   0.820  0.9528 -0.4919 -0.2492
  572MOL0     C77108   2.524   2.215   0.807 -0.4598  0.5433 -0.3939
  572MOL0     O77109   2.537   2.278   0.677  0.4734 -0.3715  0.4214
  572MOL0     C77110   2.648   2.351   0.661  0.2555  0.3187  0.8877
  572MOL0     C77111   2.750   2.302   0.589  0.4681  0.5550  0.7290
  572MOL0     C77112   2.875   2.357   0.589  0.9060  1.0420  0.2008
  572MOL0     C77113   2.900   2.483   0.656 -0.2945  0.2675  0.1870
  572MOL0     C77114   3.032   2.546   0.638 -0.3887 -0.6586  0.1109
  572MOL0     O77115   3.140   2.470   0.605 -0.3386  0.4241  0.0684
  572MOL0     C77116   3.268   2.522   0.585 -0.9916  0.4377  0.6120
  572MOL0     C77117   3.319   2.626   0.655 -0.2266  0.7357  0.6320
  572MOL0     C77118   3.448   2.684   0.626  0.4145 -0.0973 -0.4912
  572MOL0     C77119   3.532   2.613   0.532  1.2394 -0.3418  0.2408
  572MOL0     O77120   3.658   2.662   0.524 -0.0157 -0.1610  0.2258
  572MOL0     C77121   3.761   2.606   0.436  0.1066  0.5655 -0.4818
  572MOL0     C77122   3.898   2.651   0.470 -0.0598  0.1200 -0.0815
  572MOL0     C77123   3.933   2.783   0.392  0.2602  0.3086 -0.5758
  572MOL0     C77124   4.079   2.816   0.394  0.3061  0.9670  1.4812
  572MOL0     C77125   4.124   2.936   0.302 -0.3441 -0.2803 -0.1488
  572MOL0     C77126   4.114   3.063   0.384  0.7719 -0.0560  0.3072
  572MOL0     C77127   4.168   3.182   0.314 -0.1153 -0.0255  0.3058
  572MOL0     C77128   4.181   3.300   0.395 -0.4148 -0.2425  0.8620
  572MOL0    Cl77129   4.347   3.335   0.427  0.0232  0.3833  0.1123
  572MOL0     C77130   3.486   2.490   0.474 -0.1331  0.1703  0.5578
  572MOL0     C77131   3.351   2.456   0.488 -0.4019  0.5131 -0.1092
  572MOL0     O77132   3.025   2.665   0.651 -0.2364 -0.8312 -0.3524
  572MOL0     C77133   2.791   2.544   0.726  0.8675  0.0708  0.1007
  572MOL0     C77134   2.668   2.473   0.735 -0.2155 -0.8470  0.8594
  572MOL0     N77135   2.562   1.750   0.905  0.4763 -0.7959 -0.9487
  572MOL0     N77136   2.586   1.705   1.025 -0.3826 -0.1130  1.3347
  572MOL0     C77137   2.695   0.946   1.240  0.8629  0.7157  0.1803
  572MOL0     C77138   2.766   0.855   1.158 -0.8782  0.7967  0.6671
  572MOL0     C77139   2.794   0.450   0.913 -0.1291 -0.2977  0.1045
  572MOL0     C77140   2.909   0.404   0.981 -1.2774  0.5310 -0.0486
  572MOL0     C77141   2.966   0.291   0.944  0.3702 -0.0379 -0.5801
  572MOL0     C77142   2.936   0.217   0.827 -0.0668 -0.7252  0.1055
  572MOL0     O77143   3.009   0.104   0.792 -0.0646  0.3326 -0.8202
  572MOL0     C77144   3.007   0.064   0.649 -1.3788 -0.3283  1.3303
  572MOL0     C77145   3.141  -0.015   0.620  1.2734 -0.1439  0.7491
  572MOL0     C77146   3.174  -0.125   0.729  0.4092 -1.3011 -1.3158
  572MOL0     C77147   3.283  -0.223   0.679  1.1224  0.2346  1.0386
  572MOL0     C77148   3.354  -0.288   0.787  0.5455  0.3965  0.5195
  572MOL0     C77149   3.411  -0.341   0.876 -0.2851  0.2254  0.3786
  572MOL0     C77150   2.830   0.268   0.754 -0.1980  0.5146 -0.5074
  572MOL0     C77151   2.750   0.367   0.806  0.4209 -0.2458  0.3223
  572MOL0     C77152   2.635   0.398   0.714  0.4571  0.4510 -0.0227
  572MOL0     H77153   2.529   0.603   1.204 -0.0471  0.6853  0.2440
  572MOL0     H77154   2.420   0.757   1.320 -0.9989 -0.6891 -2.6710
  572MOL0     H77155   2.574   1.009   1.564  0.2660 -0.4437 -0.8483
  572MOL0     H77156   2.653   1.114   1.444 -1.7243  1.2872 -2.0213
  572MOL0     H77157   2.518   1.228   1.603  1.3543 -0.1585  0.9733
  572MOL0     H77158   2.369   1.164   1.537  0.1748 -0.6175  2.0023
  572MOL0     H77159   2.432   1.401   1.450  2.8275 -0.1640  0.8602
  572MOL0     H77160   2.399   1.270   1.325  1.7255 -2.9827 -0.9289
  572MOL0     H77161   2.664   1.331   1.440  0.0813  0.0868  0.3046
  572MOL0     H77162   2.648   1.253   1.276 -0.6424 -0.5244  0.3815
  572MOL0     H77163   2.556   1.480   1.206 -0.1817 -3.5238 -0.8967
  572MOL0     H77164   2.622   1.535   1.361  0.6508 -3.1714  1.9371
  572MOL0     H77165   2.835   1.396   1.247  0.2896 -0.8920 -1.0761
  572MOL0     H77166   2.742   1.451   1.105 -7.1742 -1.0953  1.3862
  572MOL0     H77167   2.924   1.609   1.165 -0.7666 -2.5545 -1.7272
  572MOL0     H77168   2.867   1.596   1.336 -2.2525  0.6275  1.4108
  572MOL0     H77169   2.678   1.743   1.272 -1.6943 -1.1508 -1.9296
  572MOL0     H77170   2.822   1.819   1.207 -0.0923  1.5943 -2.8527
  572MOL0     H77171   2.867   1.844   0.965 -0.0811 -2.1239  2.7943
  572MOL0     H77172   2.785   1.910   0.712 -0.3827  0.8528 -0.7040
  572MOL0     H77173   2.647   1.802   0.659 -1.1851 -1.2572  2.8002
  572MOL0     H77174   2.603   2.029   0.616  1.9183  0.8528  0.1718
  572MOL0     H77175   2.475   1.974   0.733  0.8781 -1.4863  1.8426
  572MOL0     H77176   2.720   2.146   0.811  0.5488  0.6241  0.4512
  572MOL0     H77177   2.615   2.053   0.918 -0.7269 -1.1683 -0.6439
  572MOL0     H77178   2.533   2.292   0.884 -1.8673 -1.3858  1.8042
  572MOL0     H77179   2.426   2.168   0.820 -0.4428  0.4053 -0.7529
  572MOL0     H77180   2.731   2.205   0.544 -1.7597  2.4383 -2.8849
  572MOL0     H77181   2.944   2.306   0.523 -0.2790 -0.4095  0.0163
  572MOL0     H77182   3.253   2.686   0.717 -3.5167  0.7427 -2.4642
  572MOL0     H77183   3.487   2.777   0.666 -2.3568  0.6060  0.8565
  572MOL0     H77184   3.756   2.497   0.425 -0.6251  0.6778 -1.3763
  572MOL0     H77185   3.750   2.633   0.330 -0.0675 -0.2875 -0.6915
  572MOL0     H77186   3.907   2.678   0.576 -0.2057 -2.1907  0.5754
  572MOL0     H77187   3.967   2.567   0.456 -0.4122  0.0666 -1.5936
  572MOL0     H77188   3.908   2.778   0.286  1.0764  1.1756 -0.8219
  572MOL0     H77189   3.879   2.867   0.436  1.2375  1.2915 -1.1874
  572MOL0     H77190   4.130   2.724   0.365  0.5618  2.0928 -2.0941
  572MOL0     H77191   4.115   2.841   0.494  3.2106 -0.4607  0.8811
  572MOL0     H77192   4.063   2.946   0.212  2.1528  1.0107 -1.8426
  572MOL0     H77193   4.229   2.923   0.273 -0.2797  1.4585 -0.8823
  572MOL0     H77194   4.007   3.081   0.400  0.5206 -0.6083 -0.6686
  572MOL0     H77195   4.146   3.038   0.486  4.1040 -3.7406 -1.3609
  572MOL0     H77196   4.090   3.209   0.242  0.3034 -1.1401 -0.6078
  572MOL0     H77197   4.252   3.157   0.248 -2.4811 -2.8834 -1.9105
  572MOL0     H77198   4.131   3.375   0.333  1.3006 -0.7099 -1.2031
  572MOL0     H77199   4.123   3.281   0.486 -2.1625 -2.0603 -0.5439
  572MOL0     H77200   3.556   2.437   0.409 -1.9826 -0.1536 -1.2697
  572MOL0     H77201   3.311   2.366   0.442  0.3791 -0.7776  1.6301
  572MOL0     H77202   2.813   2.636   0.780 -1.1784  1.5830 -1.4577
  572MOL0     H77203   2.587   2.514   0.793 -0.3230  0.1306  0.0433
  572MOL0     H77204   2.736   1.046   1.252  0.3290  1.0811 -0.9425
  572MOL0     H77205   2.863   0.871   1.112 -1.5548 -2.4260 -2.2796
  572MOL0     H77206   2.949   0.462   1.063  0.4847 -2.9128  1.7340
  572MOL0     H77207   3.055   0.258   0.995  2.2916  3.1800 -1.5851
  572MOL0     H77208   3.020   0.151   0.583  0.4425 -2.1220 -0.8539
  572MOL0     H77209   2.930  -0.005   0.614  0.7362 -2.2782  0.2503
  572MOL0     H77210   3.224   0.057   0.614  1.3285 -0.1040  1.7807
  572MOL0     H77211   3.128  -0.063   0.523 -2.3261 -2.1348  2.0350
  572MOL0     H77212   3.087  -0.176   0.771 -1.8316  4.1635  1.7554
  572MOL0     H77213   3.221  -0.062   0.806  0.1733 -1.1601 -1.2864
  572MOL0     H77214   3.233  -0.298   0.619 -1.1595  2.2531  0.2921
  572MOL0     H77215   3.346  -0.162   0.614  0.6461 -0.7970 -0.4275
  572MOL0     H77216   3.478  -0.384   0.948 -0.1754  2.1808  1.5531
  572MOL0     H77217   2.803   0.211   0.666  3.0239 -1.7859 -0.1740
  572MOL0     H77218   2.657   0.488   0.655  0.3367  1.7424  1.8455
  572MOL0     H77219   2.616   0.310   0.651  0.7716 -1.0270  1.8463
  572MOL0     H77220   2.535   0.417   0.752 -0.1901  1.4040 -2.0327
  573MOL0     O77221   1.009   6.166   6.338 -0.3048 -0.4215 -0.8670
  573MOL0     C77222   1.071   6.184   6.448  0.1837  0.3708  0.4335
  573MOL0     O77223   1.205   6.185   6.453 -0.3080 -0.4346  0.0752
  573MOL0     C77224   1.277   6.170   6.340 -0.5174 -1.4373  0.3996
  573MOL0     C77225   1.367   6.275   6.314  0.2868  0.0939  0.2324
  573MOL0     C77226   1.441   6.286   6.200  0.0145 -0.3205 -0.2502
  573MOL0     C77227   1.423   6.179   6.108 -0.7514  0.7272  1.0523
  573MOL0     O77228   1.486   6.197   5.990 -0.3494  0.1915  0.6508
  573MOL0     C77229   1.570   6.090   5.944  0.3424 -0.0485 -0.0036
  573MOL0     C77230   1.646   6.134   5.824 -0.1857  0.5657  0.1113
  573MOL0     C77231   1.734   6.262   5.836  0.4667  0.0603  0.0209
  573MOL0     C77232   1.869   6.226   5.898  0.3750  0.4924 -0.0239
  573MOL0     C77233   1.979   6.317   5.843  0.0234  0.9574  0.3662
  573MOL0     C77234   2.120   6.290   5.883  0.3223  0.2645 -0.2060
  573MOL0     C77235   2.222   6.401   5.837  0.2820  0.0647  0.4665
  573MOL0     C77236   2.358   6.377   5.893 -0.1277 -0.1987  0.7700
  573MOL0     N77237   2.459   6.486   5.866  0.4204  0.7340 -0.1881
  573MOL0     C77238   2.483   6.541   5.743 -0.4278 -0.3109  0.7819
  573MOL0     C77239   2.567   6.647   5.765 -1.0162 -0.0243 -0.2295
  573MOL0     C77240   2.628   6.748   5.669  0.1996 -0.2333 -0.7252
  573MOL0     C77241   2.508   6.844   5.631 -0.5711 -1.0245  0.6866
  573MOL0     C77242   2.454   6.950   5.738 -0.9909 -0.5228 -0.2122
  573MOL0     C77243   2.580   7.037   5.779 -0.3165 -0.0830 -0.9249
  573MOL0     O77244   2.536   7.164   5.831  0.3351 -0.0353  0.1415
  573MOL0     C77245   2.635   7.254   5.860 -0.1197 -0.7077  0.2280
  573MOL0     C77246   2.778   7.236   5.859 -0.2309 -0.1531  0.3050
  573MOL0     C77247   2.867   7.348   5.869  0.1744 -0.1982  0.2886
  573MOL0     C77248   2.815   7.480   5.895  0.0970  0.7756 -0.4772
  573MOL0     C77249   2.908   7.591   5.917  0.5226 -0.7365  0.6182
  573MOL0     O77250   3.035   7.553   5.919 -0.0888  0.1303  0.1549
  573MOL0     C77251   3.134   7.648   5.918 -0.2343 -0.7659 -0.1276
  573MOL0     C77252   3.146   7.776   5.980 -0.3509 -0.1978 -0.1382
  573MOL0     C77253   3.260   7.858   5.968  1.1446  0.6420  0.5550
  573MOL0     C77254   3.360   7.821   5.875  0.4424  0.9874  0.3730
  573MOL0     O77255   3.479   7.883   5.856 -0.2081  0.4344  0.0660
  573MOL0     C77256   3.496   8.018   5.884  0.0096  0.5362 -0.1269
  573MOL0     C77257   3.642   8.057   5.855 -0.3240 -0.2605  0.8318
  573MOL0     C77258   3.662   8.205   5.865  0.3838 -0.4205 -0.7861
  573MOL0     C77259   3.810   8.250   5.845 -0.5047 -0.2836 -0.0881
  573MOL0     C77260   3.836   8.399   5.842  0.1832 -0.7046 -0.3076
  573MOL0     C77261   3.980   8.446   5.811 -0.7582  0.6517  1.1948
  573MOL0     C77262   4.014   8.411   5.669  1.2355  0.2461  0.4011
  573MOL0     C77263   4.131   8.489   5.609 -0.2114 -0.1452  0.4829
  573MOL0    Cl77264   4.283   8.451   5.692 -0.2037 -0.1009 -0.5724
  573MOL0     C77265   3.343   7.692   5.813 -0.4917 -0.5518 -0.0666
  573MOL0     C77266   3.242   7.603   5.841 -0.0427  0.0053 -0.2524
  573MOL0     O77267   2.871   7.706   5.934 -0.1232 -0.4313  0.6905
  573MOL0     C77268   2.670   7.491   5.902 -0.4499 -0.5328  0.4329
  573MOL0     C77269   2.585   7.384   5.878  0.8403  0.1221 -0.6050
  573MOL0     N77270   2.618   6.635   5.888 -0.7667  0.4276 -0.7201
  573MOL0     N77271   2.542   6.549   5.954 -0.5647  0.2233 -0.0384
  573MOL0     C77272   1.341   6.064   6.134 -0.3043  0.2412 -0.0962
  573MOL0     C77273   1.268   6.061   6.257 -0.9438  0.1892  0.0279
  573MOL0     C77274   0.992   6.224   6.561 -0.0521  0.3377 -0.2553
  573MOL0     C77275   0.856   6.182   6.571  0.0567 -0.8109  0.3929
  573MOL0     C77276   0.784   6.206   6.682  0.1742  0.0640  0.5542
  573MOL0     C77277   0.842   6.277   6.785 -0.0921 -0.5608  0.0389
  573MOL0     O77278   0.785   6.319   6.906  0.2703  0.2475  0.1268
  573MOL0     C77279   0.659   6.267   6.954  0.3299 -0.1530 -0.5081
  573MOL0     C77280   0.666   6.127   7.011  0.8768  0.5846  0.1946
  573MOL0     C77281   0.787   6.114   7.102  0.1806  0.7293  0.2845
  573MOL0     C77282   0.789   6.192   7.230 -0.5515 -0.4871 -0.0370
  573MOL0     C77283   0.902   6.129   7.298  0.1766 -0.4525  0.7225
  573MOL0     C77284   0.984   6.076   7.367 -0.0049  0.1611 -1.1627
  573MOL0     C77285   0.965   6.337   6.766 -0.8195 -0.5179  0.0262
  573MOL0     C77286   1.043   6.319   6.651  0.0833 -0.2260 -0.1947
  573MOL0     C77287   1.161   6.408   6.635  0.2817 -0.4926 -0.2155
  573MOL0     H77288   1.362   6.362   6.380 -2.7202  0.8056 -0.7895
  573MOL0     H77289   1.494   6.380   6.188 -0.0732  0.6620  4.8104
  573MOL0     H77290   1.634   6.058   6.026 -2.1279  1.7631  2.8755
  573MOL0     H77291   1.513   6.002   5.913 -0.6072 -0.5295  2.7617
  573MOL0     H77292   1.572   6.167   5.751  1.1243  1.7550 -0.7330
  573MOL0     H77293   1.713   6.059   5.780  1.5822  0.9159  2.0430
  573MOL0     H77294   1.680   6.346   5.880  1.2606  2.2021 -2.8063
  573MOL0     H77295   1.750   6.296   5.733 -1.4198  1.7599  0.2330
  573MOL0     H77296   1.870   6.220   6.007 -0.4957 -1.6727 -0.0856
  573MOL0     H77297   1.900   6.125   5.873  1.8238  0.9773 -0.2396
  573MOL0     H77298   1.975   6.297   5.735 -1.7279 -1.1595  0.7498
  573MOL0     H77299   1.955   6.421   5.865  0.8802  2.0006 -3.0328
  573MOL0     H77300   2.132   6.273   5.990  1.4730 -3.1480 -0.7336
  573MOL0     H77301   2.153   6.195   5.839  3.4974  0.5924  1.1475
  573MOL0     H77302   2.196   6.505   5.859  0.9392  1.2017 -3.4178
  573MOL0     H77303   2.232   6.391   5.729  0.4181 -4.6165  0.6829
  573MOL0     H77304   2.357   6.380   6.003  0.6235 -0.6481  0.7961
  573MOL0     H77305   2.392   6.280   5.858  1.4442  1.3373 -2.3606
  573MOL0     H77306   2.433   6.515   5.650 -0.2791  1.9123  0.0313
  573MOL0     H77307   2.721   6.798   5.697  1.4936 -2.5627 -0.6546
  573MOL0     H77308   2.640   6.691   5.576 -3.4905 -4.7844  1.1533
  573MOL0     H77309   2.525   6.898   5.538  1.1915 -3.3182 -0.4448
  573MOL0     H77310   2.424   6.779   5.606 -0.6660 -0.0275 -1.7501
  573MOL0     H77311   2.419   6.903   5.831  1.1662 -2.1835 -0.1520
  573MOL0     H77312   2.379   7.016   5.694 -0.7784 -1.4020 -1.9677
  573MOL0     H77313   2.651   7.041   5.695  0.1656 -1.8646 -0.6496
  573MOL0     H77314   2.625   6.983   5.863 -2.0271 -0.6713 -0.3585
  573MOL0     H77315   2.816   7.135   5.844 -2.4914 -0.6295 -4.0421
  573MOL0     H77316   2.972   7.321   5.864 -0.0309 -0.8836 -0.5150
  573MOL0     H77317   3.068   7.796   6.052 -0.9583  0.0168 -0.8439
  573MOL0     H77318   3.269   7.949   6.026 -4.7835 -0.5029  4.0713
  573MOL0     H77319   3.437   8.078   5.814 -0.7422 -0.9612 -0.8273
  573MOL0     H77320   3.469   8.033   5.989 -1.2505  0.0163 -0.3514
  573MOL0     H77321   3.708   7.993   5.915  1.2850  0.1481 -0.4365
  573MOL0     H77322   3.658   8.028   5.751 -3.4602 -0.5532  0.3357
  573MOL0     H77323   3.589   8.241   5.791 -0.6441 -0.2289  0.2875
  573MOL0     H77324   3.623   8.240   5.962 -0.9356  0.0554 -1.4590
  573MOL0     H77325   3.837   8.213   5.745  3.5000  2.0317 -0.1062
  573MOL0     H77326   3.872   8.206   5.923 -1.1995  1.0520  1.2590
  573MOL0     H77327   3.816   8.442   5.940  0.5018  3.3735 -1.8427
  573MOL0     H77328   3.767   8.435   5.765 -1.4197 -2.4045  0.2416
  573MOL0     H77329   3.982   8.555   5.815  0.6089  0.8325 -1.6939
  573MOL0     H77330   4.058   8.415   5.882 -0.6980  3.5357  2.5208
  573MOL0     H77331   3.927   8.426   5.604  2.9311  1.6846 -1.6792
  573MOL0     H77332   4.031   8.303   5.657  3.6927  0.7221 -1.0197
  573MOL0     H77333   4.139   8.468   5.502 -1.2773 -2.2968  0.7638
  573MOL0     H77334   4.115   8.597   5.611 -0.0689 -0.1328  1.1352
  573MOL0     H77335   3.435   7.661   5.765 -0.4721 -1.6327  0.6319
  573MOL0     H77336   3.260   7.501   5.810  1.3781  0.0837  0.2792
  573MOL0     H77337   2.638   7.594   5.915  2.1067  0.2839  0.7975
  573MOL0     H77338   2.481   7.412   5.868  0.4654 -1.2683 -0.7804
  573MOL0     H77339   1.319   5.990   6.058  1.6422  0.9015 -1.3584
  573MOL0     H77340   1.188   5.988   6.269  0.1013 -1.0445 -0.2624
  573MOL0     H77341   0.809   6.128   6.489 -0.6190 -1.6726  1.3160
  573MOL0     H77342   0.690   6.154   6.693  1.2480 -2.4179 -0.9398
  573MOL0     H77343   0.579   6.287   6.883  0.6009  2.3541 -0.2118
  573MOL0     H77344   0.628   6.332   7.037  0.9401  1.9828 -1.8567
  573MOL0     H77345   0.667   6.056   6.928  0.6925  2.1966 -1.2493
  573MOL0     H77346   0.577   6.097   7.067  3.2781 -4.3523  1.9374
  573MOL0     H77347   0.883   6.129   7.051 -1.0670 -0.9808 -2.8783
  573MOL0     H77348   0.796   6.008   7.128  2.7765  1.4551  2.8036
  573MOL0     H77349   0.802   6.296   7.199  1.8921 -0.2701  1.4627
  573MOL0     H77350   0.700   6.193   7.293 -1.6841 -1.2736 -1.5542
  573MOL0     H77351   1.064   6.032   7.424 -0.0570  3.3668  1.7172
  573MOL0     H77352   1.004   6.410   6.837 -0.5226 -1.0465  0.4168
  573MOL0     H77353   1.252   6.346   6.642 -0.7754 -2.0533  0.1907
  573MOL0     H77354   1.168   6.449   6.533  0.0304 -1.6057 -0.6960
  573MOL0     H77355   1.170   6.494   6.701 -1.6643  1.0096 -1.7841
  574MOL0     O77356  10.240   2.696   5.057  0.7046 -0.0739  0.5330
  574MOL0     C77357  10.192   2.592   5.105  0.1759 -0.4255  0.3886
  574MOL0     O77358  10.262   2.494   5.158 -0.2558  1.7821  0.2359
  574MOL0     C77359  10.401   2.502   5.154  0.0393  0.3326  0.2923
  574MOL0     C77360  10.476   2.436   5.059 -1.1676 -0.9340  0.0484
  574MOL0     C77361  10.614   2.436   5.072 -0.9426 -0.4626  0.3148
  574MOL0     C77362  10.680   2.497   5.175 -1.0056  0.1007  0.8136
  574MOL0     O77363  10.821   2.487   5.173  0.2965 -0.0023  0.1047
  574MOL0     C77364  10.903   2.487   5.290 -0.4629  0.0105  0.6619
  574MOL0     C77365  11.039   2.427   5.258  0.6788  0.5581  0.3613
  574MOL0     C77366  11.121   2.503   5.147 -1.0769  0.2763 -0.7175
  574MOL0     C77367  11.174   2.633   5.198 -0.1522 -0.2826  0.6312
  574MOL0     C77368  11.296   2.688   5.117  0.7157  0.4401  0.6378
  574MOL0     C77369  11.368   2.797   5.205  0.4154  0.1350  1.7650
  574MOL0     C77370  11.458   2.891   5.127 -0.1398 -0.2770  0.4792
  574MOL0     C77371  11.536   2.985   5.217 -0.6051 -1.8175 -0.7207
  574MOL0     N77372  11.462   3.096   5.278 -0.6271 -0.8048  0.6495
  574MOL0     C77373  11.365   3.178   5.211 -0.0309 -0.2650  0.1208
  574MOL0     C77374  11.328   3.272   5.304 -0.4690  0.2486 -0.2903
  574MOL0     C77375  11.253   3.398   5.282  0.5853 -0.6041  0.6845
  574MOL0     C77376  11.181   3.450   5.413  0.4309 -0.7800  0.6196
  574MOL0     C77377  11.108   3.586   5.400 -0.2923 -0.0577 -0.0486
  574MOL0     C77378  11.037   3.639   5.524  0.0605 -0.5011 -0.4762
  574MOL0     O77379  10.912   3.576   5.548  1.5236  0.2077 -1.0862
  574MOL0     C77380  10.800   3.618   5.482  0.4654  0.1199 -0.7440
  574MOL0     C77381  10.806   3.697   5.366  0.6116  0.7200 -1.0401
  574MOL0     C77382  10.679   3.719   5.304  0.1673 -0.1999  0.5846
  574MOL0     C77383  10.551   3.680   5.349 -0.2175 -0.7610  0.2420
  574MOL0     C77384  10.430   3.712   5.269 -0.1407  0.4642 -0.1406
  574MOL0     O77385  10.306   3.655   5.299  0.3159 -0.3539 -0.3020
  574MOL0     C77386  10.185   3.678   5.243 -0.0144  1.0024  0.8228
  574MOL0     C77387  10.063   3.662   5.317 -0.3161  0.1076 -0.1546
  574MOL0     C77388   9.938   3.701   5.269  0.4991 -1.0142  0.6142
  574MOL0     C77389   9.921   3.759   5.146 -0.8831 -0.1332  0.0073
  574MOL0     O77390   9.794   3.783   5.101  0.1462 -0.3267  0.6559
  574MOL0     C77391   9.679   3.801   5.187 -0.1846  0.4842 -0.0406
  574MOL0     C77392   9.586   3.913   5.135 -0.4820 -0.1028  0.0601
  574MOL0     C77393   9.464   3.870   5.066  0.9827  0.2196  0.7175
  574MOL0     C77394   9.350   3.812   5.144  0.6804 -0.2834 -0.3059
  574MOL0     C77395   9.258   3.930   5.194 -0.0477 -0.9864 -0.4561
  574MOL0     C77396   9.315   4.029   5.292  0.5764  0.5128 -0.3220
  574MOL0     C77397   9.204   4.108   5.365 -0.1242 -0.2417 -0.1020
  574MOL0     C77398   9.261   4.240   5.424  0.4085 -0.3023  0.8468
  574MOL0    Cl77399   9.413   4.209   5.505 -0.1049 -0.1549 -0.2827
  574MOL0     C77400  10.041   3.789   5.073 -0.1482  0.9159  0.4086
  574MOL0     C77401  10.166   3.739   5.114  0.6260 -0.1311  0.9659
  574MOL0     O77402  10.449   3.783   5.172  1.0747  0.0559  0.2826
  574MOL0     C77403  10.548   3.618   5.473 -0.3921  0.8567 -0.5946
  574MOL0     C77404  10.670   3.582   5.536 -0.5263 -0.0086  0.6670
  574MOL0     N77405  11.406   3.243   5.422 -0.1430  0.8009  0.4249
  574MOL0     N77406  11.486   3.143   5.403  0.1692 -0.1115 -0.1250
  574MOL0     C77407  10.603   2.561   5.273 -0.2493  0.2697  0.5362
  574MOL0     C77408  10.466   2.562   5.262  0.5276  0.6019 -0.2536
  574MOL0     C77409  10.041   2.570   5.091 -0.4181  0.3354 -0.2645
  574MOL0     C77410   9.979   2.471   5.178  0.0398 -0.2926  0.0937
  574MOL0     C77411   9.843   2.451   5.175  0.6984  0.0023 -0.2014
  574MOL0     C77412   9.759   2.509   5.079  0.2415  0.1707 -0.5749
  574MOL0     O77413   9.628   2.469   5.052 -0.5084  0.0342  0.1655
  574MOL0     C77414   9.527   2.446   5.153  0.5284 -0.5448  0.1132
  574MOL0     C77415   9.522   2.561   5.260 -0.9430  0.4989 -0.5452
  574MOL0     C77416   9.507   2.690   5.192 -0.5380 -0.4781  0.4555
  574MOL0     C77417   9.380   2.695   5.105  0.2008 -0.5445 -0.1895
  574MOL0     C77418   9.263   2.676   5.190  1.4515 -0.6974  0.4110
  574MOL0     C77419   9.160   2.672   5.260  0.6607 -0.2612  0.0796
  574MOL0     C77420   9.814   2.613   5.005  0.4170 -0.1749 -0.5774
  574MOL0     C77421   9.957   2.639   5.004  0.0038  0.9128  0.5597
  574MOL0     C77422  10.004   2.751   4.919  0.1571  0.4752  0.6644
  574MOL0     H77423  10.428   2.391   4.972 -2.9953  1.8131 -0.4852
  574MOL0     H77424  10.672   2.385   4.995 -2.4266 -0.8512 -0.5881
  574MOL0     H77425  10.888   2.586   5.335 -2.5242  1.2240 -2.3224
  574MOL0     H77426  10.859   2.416   5.360 -1.2869  1.4233  1.6063
  574MOL0     H77427  11.042   2.320   5.237 -0.7045 -0.0169  2.6335
  574MOL0     H77428  11.100   2.431   5.349 -2.3972 -1.4142  2.7397
  574MOL0     H77429  11.059   2.511   5.057 -1.0209 -2.6959 -1.1001
  574MOL0     H77430  11.208   2.441   5.127 -0.7093  0.0756  1.2822
  574MOL0     H77431  11.093   2.703   5.217  0.5833  0.5583  0.7541
  574MOL0     H77432  11.212   2.605   5.296 -2.1557 -5.6782  0.2125
  574MOL0     H77433  11.363   2.603   5.099 -0.9266 -0.8982  0.5769
  574MOL0     H77434  11.262   2.738   5.026 -3.2695 -0.2841  1.5668
  574MOL0     H77435  11.289   2.854   5.254 -0.9637 -0.3591  0.2038
  574MOL0     H77436  11.422   2.733   5.276 -1.1552 -2.4861  0.7433
  574MOL0     H77437  11.404   2.938   5.044 -0.1195 -3.3656 -1.4637
  574MOL0     H77438  11.521   2.820   5.072 -1.6838 -3.3350  2.3668
  574MOL0     H77439  11.583   2.921   5.293  0.9193 -1.5010 -1.3488
  574MOL0     H77440  11.627   3.022   5.169  1.0875 -1.6029  2.3624
  574MOL0     H77441  11.331   3.186   5.108 -2.7109  1.8536  1.0476
  574MOL0     H77442  11.333   3.464   5.247 -1.5362  0.5427 -2.4330
  574MOL0     H77443  11.173   3.383   5.209 -1.5457  1.1252  2.4681
  574MOL0     H77444  11.104   3.382   5.450  0.8830 -0.7003  1.7665
  574MOL0     H77445  11.256   3.463   5.492  1.1196  0.9222 -0.2566
  574MOL0     H77446  11.025   3.578   5.329 -1.7353  0.4994  1.5015
  574MOL0     H77447  11.177   3.663   5.363 -1.8022  1.5962  0.4020
  574MOL0     H77448  11.034   3.746   5.500  2.0462 -0.3494 -0.2326
  574MOL0     H77449  11.099   3.636   5.614 -2.9184  3.2647  2.0477
  574MOL0     H77450  10.894   3.747   5.327  0.8103 -0.6686 -2.4776
  574MOL0     H77451  10.682   3.775   5.211  0.9729 -1.6532 -0.3102
  574MOL0     H77452  10.069   3.611   5.413 -2.1673  0.0795 -0.0130
  574MOL0     H77453   9.857   3.662   5.330  0.8266 -0.5494  1.3654
  574MOL0     H77454   9.625   3.706   5.189 -0.5935  0.7186  1.8683
  574MOL0     H77455   9.710   3.831   5.288  0.7681 -2.9829  0.8091
  574MOL0     H77456   9.572   3.984   5.217 -0.3696  0.0913 -0.0883
  574MOL0     H77457   9.636   3.954   5.047 -0.3216 -1.3003 -0.4255
  574MOL0     H77458   9.435   3.953   5.001  4.0645 -0.7789 -2.2898
  574MOL0     H77459   9.495   3.787   5.000 -0.7352  0.2816 -0.2185
  574MOL0     H77460   9.375   3.743   5.225  0.9839 -0.9215 -0.9191
  574MOL0     H77461   9.289   3.761   5.068  0.8197  0.9804 -1.3024
  574MOL0     H77462   9.180   3.885   5.256  0.1786  0.7157  1.1611
  574MOL0     H77463   9.214   3.976   5.106 -0.7431  0.7992  0.7628
  574MOL0     H77464   9.367   3.969   5.367 -3.1505  0.9286  2.8928
  574MOL0     H77465   9.392   4.093   5.247  0.9376  0.2778 -0.0459
  574MOL0     H77466   9.171   4.048   5.450 -1.2713 -0.4670 -0.6809
  574MOL0     H77467   9.118   4.137   5.304 -1.1967  0.2871  1.5805
  574MOL0     H77468   9.275   4.325   5.357  2.5689  1.6268  3.5335
  574MOL0     H77469   9.191   4.281   5.498  0.6268  1.0174  0.3494
  574MOL0     H77470  10.033   3.864   4.994  1.7123  0.1573 -0.5540
  574MOL0     H77471  10.251   3.758   5.049 -0.0433 -1.3286 -0.3214
  574MOL0     H77472  10.452   3.590   5.516 -0.8127  4.0163  0.7611
  574MOL0     H77473  10.656   3.532   5.631 -0.2587 -1.6745 -0.1174
  574MOL0     H77474  10.655   2.593   5.362  0.8516 -4.0963  1.6870
  574MOL0     H77475  10.406   2.605   5.342  1.6257  0.0430  0.9024
  574MOL0     H77476  10.042   2.428   5.255 -1.0276  1.8094  2.2568
  574MOL0     H77477   9.807   2.376   5.245  1.4930  0.8707  1.2137
  574MOL0     H77478   9.556   2.354   5.205  0.8945  0.2119  1.2809
  574MOL0     H77479   9.429   2.418   5.111  0.0751 -0.1915  0.9068
  574MOL0     H77480   9.622   2.568   5.302 -0.4335  2.0585 -1.9023
  574MOL0     H77481   9.438   2.541   5.327 -0.4345  1.4491  0.4166
  574MOL0     H77482   9.593   2.704   5.125 -1.5656 -1.2155 -1.1034
  574MOL0     H77483   9.501   2.766   5.270 -3.5577 -1.8205  1.6730
  574MOL0     H77484   9.370   2.791   5.055 -1.2027 -0.2945  0.5207
  574MOL0     H77485   9.387   2.617   5.028  0.2791 -1.1634  0.4336
  574MOL0     H77486   9.076   2.670   5.327 -0.6169  2.6404 -1.2973
  574MOL0     H77487   9.747   2.662   4.936  2.3019  0.7014 -1.8392
  574MOL0     H77488  10.078   2.724   4.842 -2.1170 -0.8758 -1.1817
  574MOL0     H77489   9.919   2.786   4.861 -2.5424 -3.9411  1.4818
  574MOL0     H77490  10.031   2.837   4.981  0.8244  0.6252  0.1807
  575MOL0     O77491   3.919   2.071   0.401 -0.0332  0.6016  0.0231
  575MOL0     C77492   3.843   2.035   0.314  1.4426  0.7507 -0.7846
  575MOL0     O77493   3.874   1.960   0.205  1.2944  0.2426  0.4323
  575MOL0     C77494   4.009   1.952   0.159 -0.5078 -0.7497  0.3813
  575MOL0     C77495   4.093   1.871   0.225 -0.4626 -0.5800 -0.8057
  575MOL0     C77496   4.234   1.863   0.185 -0.0606 -0.2255 -0.5094
  575MOL0     C77497   4.280   1.942   0.073  0.9031 -0.3878 -0.1820
  575MOL0     O77498   4.410   1.940   0.044 -0.1822  0.0929 -0.0842
  575MOL0     C77499   4.474   2.065   0.040 -0.6544  0.4673 -0.1533
  575MOL0     C77500   4.579   2.071  -0.069  0.0597  0.5783 -0.0331
  575MOL0     C77501   4.687   1.977  -0.038 -0.6603 -0.1773  0.7133
  575MOL0     C77502   4.815   2.025  -0.123 -0.9480  0.1104 -0.3571
  575MOL0     C77503   4.913   1.925  -0.146  0.0817 -0.1434 -0.0704
  575MOL0     C77504   5.048   1.989  -0.200  1.1578 -0.2958  0.0483
  575MOL0     C77505   5.129   1.887  -0.271 -1.0779  0.7516  0.8042
  575MOL0     C77506   5.264   1.958  -0.294  0.2075  0.3890 -0.6294
  575MOL0     N77507   5.354   1.871  -0.373 -0.2959  0.4184  0.3103
  575MOL0     C77508   5.476   1.828  -0.322  0.5113 -0.6927 -0.8168
  575MOL0     C77509   5.522   1.757  -0.426 -0.9953  0.7183 -0.6355
  575MOL0     C77510   5.646   1.669  -0.436 -0.2942  0.4624 -0.8860
  575MOL0     C77511   5.759   1.731  -0.371 -0.8261  0.0776 -0.6222
  575MOL0     C77512   5.771   1.672  -0.222  0.7334  0.3407 -0.3014
  575MOL0     C77513   5.877   1.746  -0.149 -0.0712 -0.1950  0.5306
  575MOL0     O77514   5.863   1.759  -0.008  0.0376  0.3045 -0.2188
  575MOL0     C77515   5.965   1.796   0.069 -0.7054  0.0344  0.7054
  575MOL0     C77516   5.953   1.793   0.211  0.8812  0.2583  0.2448
  575MOL0     C77517   6.067   1.822   0.288 -0.4394  0.4904 -0.1796
  575MOL0     C77518   6.193   1.856   0.227 -0.2721 -0.2417 -1.0828
  575MOL0     C77519   6.317   1.882   0.313  0.4607 -0.6642 -0.7487
  575MOL0     O77520   6.437   1.913   0.259 -0.8038  0.1357 -0.2788
  575MOL0     C77521   6.563   1.909   0.327 -0.1221  0.2326 -0.6160
  575MOL0     C77522   6.673   1.937   0.248 -0.4612  0.9196 -0.5547
  575MOL0     C77523   6.795   1.946   0.308 -0.0236 -0.2161 -0.1142
  575MOL0     C77524   6.818   1.949   0.441 -0.0536 -0.4480 -0.1980
  575MOL0     O77525   6.957   1.977   0.483  0.3742 -0.2098  0.6393
  575MOL0     C77526   6.997   1.982   0.625 -0.4071  0.2832 -0.4061
  575MOL0     C77527   7.022   2.123   0.674 -0.4224 -0.2460 -0.0626
  575MOL0     C77528   6.904   2.203   0.707  0.3633 -0.3928 -0.4761
  575MOL0     C77529   6.867   2.299   0.588 -0.2282  0.0228  0.2965
  575MOL0     C77530   6.731   2.363   0.639 -0.0128 -0.2643  0.3454
  575MOL0     C77531   6.701   2.483   0.555  0.0971 -0.0572  0.1214
  575MOL0     C77532   6.564   2.539   0.597 -0.3230 -0.1891  1.1397
  575MOL0     C77533   6.562   2.688   0.564 -0.0168 -0.6097 -1.2486
  575MOL0    Cl77534   6.396   2.754   0.583 -0.4426  0.1022  0.2072
  575MOL0     C77535   6.707   1.913   0.523 -0.7440 -0.6932  0.0420
  575MOL0     C77536   6.578   1.898   0.469  0.4440  0.0174  0.2455
  575MOL0     O77537   6.281   1.884   0.436 -0.7023 -0.2958 -0.1593
  575MOL0     C77538   6.198   1.863   0.090  1.0187  0.4606 -0.0821
  575MOL0     C77539   6.088   1.832   0.010  0.1081 -0.7912  0.2545
  575MOL0     N77540   5.436   1.765  -0.533 -0.7174 -1.2058 -0.2321
  575MOL0     N77541   5.331   1.820  -0.499 -0.2336  0.0530 -0.5590
  575MOL0     C77542   4.180   2.009   0.001  0.1521  0.6684  0.9649
  575MOL0     C77543   4.047   2.010   0.035 -0.8006  0.4856 -0.9988
  575MOL0     C77544   3.700   2.064   0.335  0.0450 -0.7019 -0.1605
  575MOL0     C77545   3.662   2.136   0.449 -0.3771 -0.0877 -0.2798
  575MOL0     C77546   3.528   2.149   0.488  0.1841 -0.2766 -0.3588
  575MOL0     C77547   3.432   2.093   0.402  0.1396 -1.3181 -1.2420
  575MOL0     O77548   3.294   2.089   0.425 -0.3272 -0.2853  0.3323
  575MOL0     C77549   3.246   2.112   0.558 -0.0133  0.3133  0.7290
  575MOL0     C77550   3.103   2.050   0.554 -0.7089  0.1474 -0.2458
  575MOL0     C77551   3.035   2.061   0.698 -0.0913  0.2812  1.0181
  575MOL0     C77552   3.082   1.941   0.793  0.7881  0.2066  0.3494
  575MOL0     C77553   3.069   1.965   0.935 -0.2741 -0.0957 -1.5408
  575MOL0     C77554   3.072   1.989   1.058  0.9254  0.3697  0.4920
  575MOL0     C77555   3.469   2.032   0.285  0.6164  0.1033  0.1942
  575MOL0     C77556   3.603   2.018   0.248  0.2509 -0.9934  0.0885
  575MOL0     C77557   3.621   1.965   0.105  0.4914 -0.3278 -0.5686
  575MOL0     H77558   4.051   1.822   0.312 -1.0937  0.6866 -0.3844
  575MOL0     H77559   4.306   1.817   0.252  0.7830  1.4942 -0.1660
  575MOL0     H77560   4.401   2.147   0.029 -0.3346  1.0594  1.8373
  575MOL0     H77561   4.516   2.083   0.139 -3.6921  0.0221  1.3470
  575MOL0     H77562   4.632   2.165  -0.051  0.5222 -0.0260  2.0755
  575MOL0     H77563   4.538   2.046  -0.167  1.3017 -1.1510 -0.1542
  575MOL0     H77564   4.657   1.882  -0.081  3.2698 -0.2072 -2.5723
  575MOL0     H77565   4.716   1.969   0.067 -0.3903  0.6235  0.7070
  575MOL0     H77566   4.782   2.076  -0.214  0.8619 -0.7051 -1.5389
  575MOL0     H77567   4.869   2.100  -0.063  0.4749  0.0766 -1.5277
  575MOL0     H77568   4.935   1.878  -0.049 -0.4348 -0.1909  0.0278
  575MOL0     H77569   4.877   1.845  -0.212  0.5175  0.6214 -1.2573
  575MOL0     H77570   5.018   2.062  -0.275  0.3157 -0.0848  0.5823
  575MOL0     H77571   5.106   2.033  -0.118 -1.2070  0.3940  1.4545
  575MOL0     H77572   5.088   1.860  -0.368 -0.8178 -1.0126  1.1645
  575MOL0     H77573   5.139   1.803  -0.202  0.9674  1.1709  1.0857
  575MOL0     H77574   5.250   2.055  -0.344  2.5151  1.6633  0.9703
  575MOL0     H77575   5.309   1.979  -0.197  1.1252 -0.3601 -0.8831
  575MOL0     H77576   5.504   1.813  -0.218 -1.8689 -4.8099 -0.5419
  575MOL0     H77577   5.639   1.569  -0.392 -1.4568  1.2110  0.7309
  575MOL0     H77578   5.674   1.663  -0.542 -2.6128 -3.9296 -1.4721
  575MOL0     H77579   5.843   1.691  -0.429 -2.0222  0.5695 -2.8000
  575MOL0     H77580   5.763   1.840  -0.367  4.3653  0.1820  3.9913
  575MOL0     H77581   5.788   1.564  -0.222 -0.2534  0.1736 -1.6524
  575MOL0     H77582   5.677   1.687  -0.168 -0.7328 -3.5273 -1.4304
  575MOL0     H77583   5.886   1.847  -0.190  3.6908  0.0399  1.5204
  575MOL0     H77584   5.969   1.692  -0.174 -0.5920  0.3266 -3.0308
  575MOL0     H77585   5.862   1.760   0.260 -0.3977 -1.5850 -3.0539
  575MOL0     H77586   6.055   1.819   0.395  1.3325  0.4924  0.0341
  575MOL0     H77587   6.653   1.968   0.146 -2.1468  0.2804 -0.4461
  575MOL0     H77588   6.878   1.975   0.244  0.6298  1.1453  1.2859
  575MOL0     H77589   6.924   1.934   0.691  0.0697  1.5557  1.1192
  575MOL0     H77590   7.096   1.935   0.619 -0.6158 -0.3611  0.7176
  575MOL0     H77591   7.085   2.111   0.763  1.8256 -1.9634 -1.7521
  575MOL0     H77592   7.083   2.171   0.597  0.1712 -1.0901 -0.1317
  575MOL0     H77593   6.819   2.137   0.725 -0.0057 -0.1943 -1.4328
  575MOL0     H77594   6.919   2.265   0.796 -2.6779  1.9314 -1.4076
  575MOL0     H77595   6.848   2.253   0.491  0.7629  0.7112 -0.2500
  575MOL0     H77596   6.948   2.372   0.580  0.0019 -0.3735 -1.4798
  575MOL0     H77597   6.736   2.396   0.743  1.1903  1.2364 -0.1368
  575MOL0     H77598   6.646   2.296   0.626 -0.1050  0.2150 -1.9622
  575MOL0     H77599   6.783   2.555   0.560  0.2290 -0.2239  0.3723
  575MOL0     H77600   6.694   2.447   0.452 -0.6697  0.3479  0.0258
  575MOL0     H77601   6.548   2.519   0.703 -0.5805 -0.2323  1.0942
  575MOL0     H77602   6.487   2.498   0.530 -1.1939  1.7245  0.9266
  575MOL0     H77603   6.622   2.745   0.636 -0.9471  0.1731 -1.0634
  575MOL0     H77604   6.600   2.701   0.462  1.6322  0.6588 -0.5293
  575MOL0     H77605   6.726   1.898   0.629 -0.7539  0.8412  0.2787
  575MOL0     H77606   6.492   1.886   0.534  0.0682  1.2855  0.0193
  575MOL0     H77607   6.296   1.863   0.045  1.1775  0.6530  0.2590
  575MOL0     H77608   6.111   1.821  -0.096  1.2289  0.4822  0.3383
  575MOL0     H77609   4.214   2.071  -0.082 -0.5462 -1.4949 -1.0539
  575MOL0     H77610   3.975   2.073  -0.018 -0.0646  1.6579 -0.6446
  575MOL0     H77611   3.736   2.169   0.521 -0.1669 -0.5013 -0.3030
  575MOL0     H77612   3.498   2.189   0.585  0.0944  0.9614 -0.8840
  575MOL0     H77613   3.238   2.209   0.608 -0.0906 -0.6879  2.7671
  575MOL0     H77614   3.306   2.055   0.630  0.0889 -1.6049 -0.7863
  575MOL0     H77615   3.122   1.945   0.527  3.8907 -0.3569  3.5778
  575MOL0     H77616   3.054   2.102   0.471  0.4404  1.2020 -0.2862
  575MOL0     H77617   2.928   2.061   0.673  0.7264 -0.6080 -3.4818
  575MOL0     H77618   3.058   2.161   0.736 -1.5522  1.4470 -0.9779
  575MOL0     H77619   3.008   1.865   0.765  1.0321  0.3811 -0.8319
  575MOL0     H77620   3.180   1.898   0.774  0.1659 -1.7529  1.2861
  575MOL0     H77621   3.073   2.022   1.160  0.2460  2.6096 -0.1666
  575MOL0     H77622   3.399   1.990   0.214  2.7109 -0.7057 -1.4995
  575MOL0     H77623   3.686   2.034   0.051  1.9328 -0.4236  0.9599
  575MOL0     H77624   3.658   1.862   0.110 -0.5685 -0.7255 -0.6587
  575MOL0     H77625   3.526   1.958   0.051  0.5333  3.2253 -1.3053
  576MOL0     O77626  10.556   2.716   7.133 -0.5053  0.0408  0.0416
  576MOL0     C77627  10.455   2.736   7.206 -0.6617  0.8821  0.4126
  576MOL0     O77628  10.324   2.740   7.166 -0.3573 -0.3794 -0.2793
  576MOL0     C77629  10.285   2.688   7.041 -0.5065  0.1767  0.0383
  576MOL0     C77630  10.343   2.578   6.989 -0.1366 -0.1207 -0.0451
  576MOL0     C77631  10.325   2.525   6.858  0.1958  0.2872  0.2065
  576MOL0     C77632  10.232   2.589   6.781  0.4268 -0.5859  0.0891
  576MOL0     O77633  10.209   2.570   6.651 -0.3238  0.3681 -0.7050
  576MOL0     C77634  10.265   2.456   6.588 -0.2116  0.2442  0.0954
  576MOL0     C77635  10.178   2.419   6.463 -0.1483 -0.9885  0.2798
  576MOL0     C77636  10.182   2.544   6.368  0.3230 -0.2196  0.0144
  576MOL0     C77637  10.121   2.486   6.234 -0.3637  0.4181 -0.4419
  576MOL0     C77638  10.142   2.581   6.111  0.3917  0.7215  0.1585
  576MOL0     C77639  10.052   2.525   5.992 -0.0263 -0.5095 -0.1130
  576MOL0     C77640  10.062   2.605   5.854  0.4591 -0.3125 -0.3984
  576MOL0     C77641  10.046   2.758   5.866  0.5441 -0.1621 -0.2217
  576MOL0     N77642   9.917   2.789   5.929 -0.7508  0.0092  0.6510
  576MOL0     C77643   9.892   2.872   6.031 -0.2911 -0.0270 -0.3024
  576MOL0     C77644   9.780   2.841   6.082  0.3444  0.2410  0.4645
  576MOL0     C77645   9.724   2.923   6.195  0.3266 -1.1492  0.1558
  576MOL0     C77646   9.608   3.019   6.144 -0.3416  1.0718  0.0868
  576MOL0     C77647   9.466   2.965   6.172 -0.3775  0.2634  0.0324
  576MOL0     C77648   9.404   2.993   6.315  0.0215 -0.0755  0.4291
  576MOL0     O77649   9.275   2.924   6.316 -0.2370  0.8014 -0.5305
  576MOL0     C77650   9.263   2.793   6.360  0.5254  0.4863 -0.7758
  576MOL0     C77651   9.154   2.719   6.326  0.8386 -0.2737  0.5321
  576MOL0     C77652   9.148   2.581   6.366 -0.0507 -1.4437 -0.1463
  576MOL0     C77653   9.243   2.529   6.459 -0.8107  0.2242  0.2551
  576MOL0     C77654   9.223   2.394   6.523  0.0169 -1.0445 -0.5422
  576MOL0     O77655   9.095   2.342   6.512  0.6622 -0.4877  0.7428
  576MOL0     C77656   9.051   2.218   6.570 -0.0719  0.1561 -0.2045
  576MOL0     C77657   8.969   2.139   6.491 -0.0385  0.8367 -0.3623
  576MOL0     C77658   8.909   2.029   6.548  0.0740 -0.4446  0.8507
  576MOL0     C77659   8.923   1.996   6.677  0.0655 -0.1290  0.5238
  576MOL0     O77660   8.867   1.885   6.735 -0.0347 -1.3730  0.0291
  576MOL0     C77661   8.836   1.775   6.652  0.1480  0.2984 -0.3808
  576MOL0     C77662   8.749   1.672   6.735  0.9944  0.0928  1.2091
  576MOL0     C77663   8.703   1.564   6.648  0.8309 -0.2508 -0.5075
  576MOL0     C77664   8.670   1.464   6.743  0.0693  0.6654 -0.4056
  576MOL0     C77665   8.594   1.342   6.682  0.3892 -0.0688 -0.9265
  576MOL0     C77666   8.447   1.368   6.691  0.4504  0.1300 -0.3508
  576MOL0     C77667   8.366   1.254   6.628  0.1802  0.1385  0.5128
  576MOL0     C77668   8.219   1.295   6.653 -0.2651 -0.1842 -0.2844
  576MOL0    Cl77669   8.150   1.433   6.553  0.2410  0.3945 -0.0286
  576MOL0     C77670   9.007   2.069   6.756  0.5437 -0.8029  0.9985
  576MOL0     C77671   9.072   2.185   6.703 -0.2381  1.1096 -0.3407
  576MOL0     O77672   9.326   2.335   6.562 -0.5490  0.7721 -0.0649
  576MOL0     C77673   9.353   2.600   6.490 -0.2439 -0.5185  0.0853
  576MOL0     C77674   9.362   2.730   6.441 -0.6187  0.2233  0.6224
  576MOL0     N77675   9.713   2.742   6.006  0.0682 -0.0297 -0.2694
  576MOL0     N77676   9.797   2.719   5.911  0.2616 -0.0560  0.6673
  576MOL0     C77677  10.142   2.680   6.847  0.0126  0.3562 -1.3286
  576MOL0     C77678  10.170   2.734   6.976 -0.9019 -0.2720  0.2377
  576MOL0     C77679  10.476   2.745   7.356  0.4698 -0.2231  0.4319
  576MOL0     C77680  10.355   2.770   7.425 -0.1574 -0.3239 -0.4679
  576MOL0     C77681  10.359   2.818   7.558  0.0577  0.3480 -0.2936
  576MOL0     C77682  10.477   2.847   7.630 -1.2119  0.6473  0.2098
  576MOL0     O77683  10.460   2.888   7.758  0.9048  0.7311 -0.3600
  576MOL0     C77684  10.571   2.887   7.853  0.7133  0.2720 -0.2429
  576MOL0     C77685  10.598   2.746   7.906  0.3817  0.6060  0.1708
  576MOL0     C77686  10.724   2.721   7.991 -0.4135  0.2237 -0.5002
  576MOL0     C77687  10.754   2.825   8.104  0.5255 -0.0545  0.6642
  576MOL0     C77688  10.650   2.808   8.210 -1.3644  0.1153 -0.5336
  576MOL0     C77689  10.554   2.786   8.277  1.1745 -0.2603 -0.4965
  576MOL0     C77690  10.600   2.811   7.564  0.2895  0.4692 -0.2730
  576MOL0     C77691  10.594   2.765   7.430 -0.6582  0.5519 -0.2753
  576MOL0     C77692  10.730   2.748   7.366 -0.1998  0.2310 -0.1458
  576MOL0     H77693  10.421   2.532   7.049 -2.3037 -0.7337  2.5028
  576MOL0     H77694  10.390   2.452   6.812 -1.8977 -1.1264 -0.6687
  576MOL0     H77695  10.363   2.481   6.545 -1.3367 -0.1707 -2.9991
  576MOL0     H77696  10.280   2.376   6.660  2.8286  1.1581  0.6245
  576MOL0     H77697  10.074   2.399   6.488 -1.6071  1.3984 -3.1019
  576MOL0     H77698  10.222   2.337   6.406 -0.4197 -1.4037  0.6703
  576MOL0     H77699  10.284   2.582   6.363  0.5318 -0.2829  2.5374
  576MOL0     H77700  10.122   2.629   6.401  0.5527 -0.7286  1.8274
  576MOL0     H77701  10.181   2.397   6.215  0.5649  0.4442  2.0195
  576MOL0     H77702  10.016   2.457   6.241  0.2533 -2.9809 -2.8177
  576MOL0     H77703  10.113   2.682   6.139  1.6745  0.6424  1.9453
  576MOL0     H77704  10.245   2.579   6.075  0.4937 -1.0412  0.4454
  576MOL0     H77705  10.063   2.417   5.974 -2.7674 -1.2211  1.8708
  576MOL0     H77706   9.952   2.521   6.034 -0.3188 -1.3876 -0.8504
  576MOL0     H77707   9.982   2.560   5.795  1.1396 -0.0550 -1.5334
  576MOL0     H77708  10.161   2.588   5.813  0.9763  1.5763  0.0147
  576MOL0     H77709  10.129   2.795   5.928  1.2826 -2.5234  0.2959
  576MOL0     H77710  10.058   2.800   5.766 -0.2991  1.3071  0.2614
  576MOL0     H77711   9.961   2.932   6.089  0.0977  0.2019 -0.9879
  576MOL0     H77712   9.685   2.840   6.256  1.3848 -1.2277  0.7467
  576MOL0     H77713   9.801   2.981   6.247 -0.5319  3.4254 -3.1198
  576MOL0     H77714   9.639   3.113   6.192  1.9044  0.0763  0.7366
  576MOL0     H77715   9.616   3.032   6.035 -0.9332  3.0246  0.2367
  576MOL0     H77716   9.474   2.863   6.134  3.7615  0.6087 -0.5441
  576MOL0     H77717   9.396   3.013   6.103 -1.0928 -1.2358 -0.3315
  576MOL0     H77718   9.383   3.100   6.330  0.1610 -0.5233  6.6119
  576MOL0     H77719   9.468   2.968   6.400 -0.3215  1.5894  1.2295
  576MOL0     H77720   9.072   2.758   6.267 -0.5583 -2.5394  0.8486
  576MOL0     H77721   9.064   2.522   6.330 -0.9084 -0.7756  0.7134
  576MOL0     H77722   8.941   2.162   6.389  0.9804  1.7845 -0.4489
  576MOL0     H77723   8.836   1.980   6.484 -1.6717  2.3401  0.5566
  576MOL0     H77724   8.776   1.801   6.564 -0.6763 -0.1969  0.0223
  576MOL0     H77725   8.926   1.731   6.608  1.7745  2.2062  0.8856
  576MOL0     H77726   8.816   1.637   6.814 -0.8012 -2.2155  1.8411
  576MOL0     H77727   8.656   1.722   6.764 -0.7169 -0.0784 -3.2452
  576MOL0     H77728   8.609   1.587   6.597  0.5900  0.8433  0.3692
  576MOL0     H77729   8.773   1.525   6.573  3.2486  2.3206  0.2374
  576MOL0     H77730   8.604   1.494   6.825 -0.7167 -4.7413  1.3114
  576MOL0     H77731   8.763   1.420   6.779  1.0793  1.2971 -2.1110
  576MOL0     H77732   8.610   1.245   6.730 -1.9466  0.2918  0.7835
  576MOL0     H77733   8.623   1.333   6.577  3.4967 -2.0146 -0.0175
  576MOL0     H77734   8.430   1.379   6.798  0.7415  0.5481 -0.3431
  576MOL0     H77735   8.406   1.462   6.654 -0.3356 -0.0174  0.1372
  576MOL0     H77736   8.382   1.161   6.684 -0.1034 -0.1168  0.1777
  576MOL0     H77737   8.382   1.236   6.521 -4.2451  0.7841 -0.4605
  576MOL0     H77738   8.153   1.209   6.645 -2.0548  0.9331  1.6945
  576MOL0     H77739   8.215   1.320   6.759 -0.1805 -1.7065  0.0931
  576MOL0     H77740   9.014   2.047   6.862 -1.8892  2.0713  1.9192
  576MOL0     H77741   9.136   2.242   6.770  0.8013 -0.4288  0.0212
  576MOL0     H77742   9.430   2.568   6.560 -0.3993  1.2255  1.1157
  576MOL0     H77743   9.458   2.781   6.449 -0.3999  0.5666 -2.9273
  576MOL0     H77744  10.054   2.708   6.789 -2.8497 -0.4835  2.2810
  576MOL0     H77745  10.101   2.799   7.029 -0.4837 -0.4359  1.0085
  576MOL0     H77746  10.254   2.759   7.387 -0.2534  0.3397 -0.4036
  576MOL0     H77747  10.264   2.831   7.609 -0.3342 -3.0724  0.0908
  576MOL0     H77748  10.549   2.958   7.934 -2.1437 -0.5041 -0.2502
  576MOL0     H77749  10.659   2.917   7.795 -0.2385  1.3994 -1.1433
  576MOL0     H77750  10.619   2.691   7.813  2.4920  5.1091 -2.3828
  576MOL0     H77751  10.508   2.705   7.952  0.6220 -2.7977 -2.0297
  576MOL0     H77752  10.812   2.732   7.927 -0.2187  1.1444 -0.0829
  576MOL0     H77753  10.726   2.620   8.035 -0.0605  1.5968  2.9359
  576MOL0     H77754  10.852   2.801   8.149  0.2923 -1.6349  0.3829
  576MOL0     H77755  10.763   2.929   8.072  1.7337 -0.7420 -1.4005
  576MOL0     H77756  10.465   2.771   8.336  0.7848 -3.1368 -1.6894
  576MOL0     H77757  10.695   2.832   7.611  0.0114 -1.9955  1.5827
  576MOL0     H77758  10.813   2.749   7.437  0.4829 -1.8025 -0.8425
  576MOL0     H77759  10.735   2.650   7.319 -1.4903  1.1560 -2.3407
  576MOL0     H77760  10.748   2.811   7.279 -0.2406 -2.9392 -2.6332
  577MOL0     O77761   1.778   8.616   0.284 -0.9448  0.1215 -0.0536
  577MOL0     C77762   1.796   8.522   0.208 -0.1911  0.5483 -0.0494
  577MOL0     O77763   1.899   8.514   0.122  0.3015 -0.2094  0.6367
  577MOL0     C77764   2.012   8.597   0.119  0.1436 -0.2035 -0.3023
  577MOL0     C77765   2.124   8.541   0.060 -0.4978 -0.2429 -0.1820
  577MOL0     C77766   2.248   8.597   0.074 -0.2206 -0.2328 -0.6608
  577MOL0     C77767   2.260   8.729   0.125 -1.0661 -0.1269  0.2528
  577MOL0     O77768   2.368   8.803   0.132  0.2045  0.0512 -0.0491
  577MOL0     C77769   2.439   8.803   0.004  1.6373 -1.0072 -0.1496
  577MOL0     C77770   2.576   8.733   0.030 -0.5058  1.0814 -0.2507
  577MOL0     C77771   2.691   8.838   0.061  0.4672  0.9256  0.4973
  577MOL0     C77772   2.793   8.770   0.154 -0.1764 -0.3103 -0.7127
  577MOL0     C77773   2.876   8.665   0.088 -0.1658  1.1050  0.6786
  577MOL0     C77774   2.999   8.725   0.013 -0.6902  0.4242 -0.0263
  577MOL0     C77775   3.053   8.623  -0.092 -0.4668  0.4473 -0.2577
  577MOL0     C77776   3.094   8.497  -0.035 -0.5220 -0.5121 -0.3720
  577MOL0     N77777   3.179   8.496   0.082  0.2806  0.3121 -0.1265
  577MOL0     C77778   3.297   8.563   0.093 -0.3641  0.2248 -0.0996
  577MOL0     C77779   3.344   8.537   0.223  0.0841 -0.1833  0.3232
  577MOL0     C77780   3.453   8.615   0.294 -0.0074  0.2630  0.1108
  577MOL0     C77781   3.585   8.563   0.232  0.0284  0.3276  0.8676
  577MOL0     C77782   3.699   8.663   0.257  1.8552  0.5126 -0.5777
  577MOL0     C77783   3.830   8.612   0.209 -0.4746  0.4510  0.1807
  577MOL0     O77784   3.861   8.493   0.283 -0.7489  0.5508 -0.2875
  577MOL0     C77785   3.994   8.463   0.305  0.2938  1.0004  0.0444
  577MOL0     C77786   4.034   8.324   0.310  0.3923 -0.0008 -0.9756
  577MOL0     C77787   4.159   8.290   0.361  0.0503 -0.6835 -0.1258
  577MOL0     C77788   4.254   8.377   0.403 -0.3360  0.1399 -0.1321
  577MOL0     C77789   4.387   8.335   0.447 -0.3079  0.0098  0.0710
  577MOL0     O77790   4.396   8.234   0.536 -0.4747  1.3177 -0.4537
  577MOL0     C77791   4.522   8.191   0.583 -0.0413 -0.5422  0.4131
  577MOL0     C77792   4.583   8.098   0.500  0.0776  0.7971  0.2335
  577MOL0     C77793   4.713   8.038   0.532 -0.7974 -0.7581  0.2737
  577MOL0     C77794   4.785   8.081   0.636  0.2283 -0.0255  0.3167
  577MOL0     O77795   4.906   8.019   0.666 -0.6525 -0.4542  0.3836
  577MOL0     C77796   4.995   8.103   0.744 -0.4312 -0.6891  0.5478
  577MOL0     C77797   5.140   8.038   0.755  0.0882 -0.0773  0.0517
  577MOL0     C77798   5.194   8.058   0.893  0.2444  1.4342  0.0216
  577MOL0     C77799   5.333   7.993   0.909 -0.8023  0.1704  0.2231
  577MOL0     C77800   5.428   8.077   0.994 -0.0707  0.3289 -0.4526
  577MOL0     C77801   5.566   8.009   1.019  0.2010  0.4812 -0.9999
  577MOL0     C77802   5.629   8.051   1.150 -0.0075  0.1403  0.0931
  577MOL0     C77803   5.655   8.198   1.161 -0.8074 -0.9496  0.3016
  577MOL0    Cl77804   5.678   8.253   1.333  0.4534  0.0312  0.3408
  577MOL0     C77805   4.720   8.174   0.726 -0.1145 -0.3961 -0.6567
  577MOL0     C77806   4.600   8.239   0.692  0.1814 -0.1808 -0.4530
  577MOL0     O77807   4.483   8.406   0.415  0.0017  0.4046  0.4422
  577MOL0     C77808   4.224   8.516   0.392  0.8247  0.0633  0.3732
  577MOL0     C77809   4.087   8.550   0.348  0.5255 -0.2698 -0.4904
  577MOL0     N77810   3.257   8.448   0.284  0.3075  0.0624 -0.7340
  577MOL0     N77811   3.158   8.430   0.200  0.7452  1.1220  0.0737
  577MOL0     C77812   2.144   8.784   0.181  0.2993 -0.0623  0.5394
  577MOL0     C77813   2.023   8.721   0.176  0.2211  0.6043 -0.3119
  577MOL0     C77814   1.694   8.410   0.212  0.1412 -0.2788 -0.2170
  577MOL0     C77815   1.737   8.275   0.184  0.2512 -0.9228 -0.3239
  577MOL0     C77816   1.646   8.174   0.184 -0.8599 -0.1040  0.2277
  577MOL0     C77817   1.512   8.197   0.209 -0.4630  0.0192  0.4418
  577MOL0     O77818   1.416   8.103   0.187 -0.5943 -0.5828  0.6551
  577MOL0     C77819   1.323   8.134   0.085 -0.8169 -0.4731 -0.8447
  577MOL0     C77820   1.252   8.005   0.046  0.4045  0.2623 -0.1469
  577MOL0     C77821   1.096   8.032   0.035  0.1889  0.4026  0.3970
  577MOL0     C77822   1.023   8.071   0.164  0.5438 -0.2312  0.8342
  577MOL0     C77823   0.883   8.117   0.134  0.0284 -0.0750  0.7665
  577MOL0     C77824   0.762   8.133   0.117  0.3244 -0.7556  0.1184
  577MOL0     C77825   1.474   8.327   0.232  0.6803 -0.1997 -0.2816
  577MOL0     C77826   1.555   8.436   0.239  0.1808  0.0261  0.0883
  577MOL0     C77827   1.493   8.580   0.258  1.2485  0.1889 -0.1299
  577MOL0     H77828   2.112   8.443   0.013 -0.5205  0.3222 -1.3866
  577MOL0     H77829   2.342   8.553   0.044  0.9584  0.2918  1.9909
  577MOL0     H77830   2.386   8.762  -0.083 -2.7425  3.8820 -0.2471
  577MOL0     H77831   2.448   8.910  -0.017 -1.9491 -0.3811  0.8477
  577MOL0     H77832   2.605   8.663  -0.048  0.6492 -1.1777  2.0861
  577MOL0     H77833   2.575   8.666   0.116 -0.3409 -0.1767 -1.2105
  577MOL0     H77834   2.653   8.922   0.121 -0.0598  2.6017 -2.0167
  577MOL0     H77835   2.720   8.879  -0.036 -1.6912 -2.4199 -1.7328
  577MOL0     H77836   2.863   8.853   0.167  2.4490 -1.8451 -3.7178
  577MOL0     H77837   2.751   8.741   0.251  1.0364 -0.3912 -0.2035
  577MOL0     H77838   2.921   8.596   0.160  1.6075 -0.3608 -1.6947
  577MOL0     H77839   2.808   8.604   0.027  0.5883 -0.4301  1.3185
  577MOL0     H77840   2.975   8.819  -0.038  0.2869  2.4301  2.9898
  577MOL0     H77841   3.077   8.748   0.085  0.2951 -4.8702  0.9908
  577MOL0     H77842   3.137   8.668  -0.147  1.3852 -4.0191 -1.5649
  577MOL0     H77843   2.985   8.600  -0.174 -0.5435  2.3577 -0.7806
  577MOL0     H77844   3.003   8.440  -0.015 -0.1402 -0.8783  0.3491
  577MOL0     H77845   3.140   8.437  -0.115 -3.1691  0.7295 -3.0451
  577MOL0     H77846   3.344   8.629   0.021  0.3600  0.3781  0.4897
  577MOL0     H77847   3.451   8.722   0.269  0.0720 -0.2937 -2.6285
  577MOL0     H77848   3.457   8.592   0.401  3.6615  2.6612  0.6729
  577MOL0     H77849   3.599   8.466   0.280 -2.2207 -0.6563 -0.3054
  577MOL0     H77850   3.569   8.539   0.127 -0.0692 -1.3298  1.2347
  577MOL0     H77851   3.695   8.680   0.365  1.4944 -2.5969 -0.0002
  577MOL0     H77852   3.674   8.755   0.204 -1.4778 -0.0370 -0.1800
  577MOL0     H77853   3.902   8.691   0.231  0.8988 -0.7283  0.0537
  577MOL0     H77854   3.835   8.594   0.101  0.0241  0.3538  0.2204
  577MOL0     H77855   3.969   8.244   0.274  0.6063 -0.4937 -0.2851
  577MOL0     H77856   4.178   8.183   0.365 -0.9811 -0.8765 -0.1362
  577MOL0     H77857   4.532   8.063   0.410 -0.5055 -1.7225  1.4585
  577MOL0     H77858   4.752   7.968   0.459 -0.7537  0.7847 -1.2637
  577MOL0     H77859   4.990   8.204   0.704  0.2356 -0.7158  0.3918
  577MOL0     H77860   4.952   8.116   0.843 -3.0607 -1.5036 -0.4053
  577MOL0     H77861   5.126   7.930   0.745  2.1535 -0.4556  0.7685
  577MOL0     H77862   5.213   8.062   0.677  0.0300  1.1990  0.3742
  577MOL0     H77863   5.204   8.165   0.915  0.9323  1.5597 -0.8331
  577MOL0     H77864   5.123   8.028   0.970 -1.5396  3.9749 -0.5053
  577MOL0     H77865   5.374   7.984   0.808  0.3038 -2.0269  0.7927
  577MOL0     H77866   5.322   7.892   0.950  3.1488 -0.5896 -0.1971
  577MOL0     H77867   5.381   8.086   1.092  2.7468 -1.6924  1.2385
  577MOL0     H77868   5.433   8.178   0.953 -1.0535  0.2806 -0.7079
  577MOL0     H77869   5.543   7.903   1.025 -2.2595  1.0434  1.0181
  577MOL0     H77870   5.639   8.041   0.944  1.0911  1.3895  0.2016
  577MOL0     H77871   5.723   8.002   1.176 -0.4675 -0.0848  1.4169
  577MOL0     H77872   5.565   8.032   1.236 -1.2731  0.7892 -0.6665
  577MOL0     H77873   5.755   8.216   1.121 -0.3904  0.9783  2.0022
  577MOL0     H77874   5.577   8.261   1.118 -0.2183 -0.2195  0.2689
  577MOL0     H77875   4.776   8.208   0.812  2.6347 -1.6720 -1.8306
  577MOL0     H77876   4.555   8.313   0.758 -1.4402 -1.7793  0.3302
  577MOL0     H77877   4.287   8.602   0.414  1.1404  0.9697 -3.3428
  577MOL0     H77878   4.048   8.647   0.378  0.4004 -0.4302 -0.1249
  577MOL0     H77879   2.144   8.874   0.240 -3.6376 -0.9597  2.1945
  577MOL0     H77880   1.937   8.768   0.223  0.7604  2.4327 -1.0622
  577MOL0     H77881   1.836   8.252   0.147 -0.5661  0.0557 -3.4629
  577MOL0     H77882   1.683   8.079   0.147 -0.9379  0.0473 -0.2479
  577MOL0     H77883   1.375   8.188   0.006  0.9619  1.2370  1.3459
  577MOL0     H77884   1.261   8.217   0.121  0.9812  0.4431  0.2623
  577MOL0     H77885   1.262   7.931   0.126 -1.1546  0.7057  0.4811
  577MOL0     H77886   1.298   7.970  -0.047  2.1936 -0.5724  0.9816
  577MOL0     H77887   1.048   7.951  -0.019 -2.3274  2.0158  0.0691
  577MOL0     H77888   1.092   8.116  -0.035  0.4577 -0.4119 -0.6193
  577MOL0     H77889   1.028   7.989   0.236  2.8143  1.2413  2.5100
  577MOL0     H77890   1.079   8.147   0.221 -2.4297  0.8140  2.6123
  577MOL0     H77891   0.657   8.151   0.106  0.6878  0.2021 -2.1799
  577MOL0     H77892   1.369   8.345   0.253  0.4999  0.8607 -1.9643
  577MOL0     H77893   1.533   8.625   0.350  2.2128  0.5796 -0.7236
  577MOL0     H77894   1.518   8.641   0.171 -3.7913  1.7210 -0.8015
  577MOL0     H77895   1.384   8.578   0.260  1.2312  1.0325  0.5381
  578MOL0     O77896   4.500  10.025   9.383 -0.2448  0.1264 -0.1230
  578MOL0     C77897   4.506  10.004   9.261 -0.2459  0.3267  0.3377
  578MOL0     O77898   4.416   9.948   9.193  0.4764 -0.2582 -0.4101
  578MOL0     C77899   4.319   9.894   9.277  0.0648 -0.2468 -0.2626
  578MOL0     C77900   4.189   9.960   9.280 -0.6499 -0.5338  0.0239
  578MOL0     C77901   4.091   9.909   9.354 -0.6740 -0.7865  0.4462
  578MOL0     C77902   4.103   9.785   9.417  1.0655 -0.3541  0.6075
  578MOL0     O77903   3.996   9.723   9.479 -0.4334 -0.4248  0.5612
  578MOL0     C77904   3.878   9.726   9.403 -0.1432 -0.4707 -0.3495
  578MOL0     C77905   3.786   9.614   9.449  0.1706  0.2894  0.6107
  578MOL0     C77906   3.862   9.484   9.483  0.2826 -0.1082 -0.6637
  578MOL0     C77907   3.757   9.375   9.520 -0.5278  0.0172 -0.0836
  578MOL0     C77908   3.842   9.244   9.554  0.1461 -0.8939  0.5015
  578MOL0     C77909   3.766   9.153   9.653  0.4709 -0.8926  0.5144
  578MOL0     C77910   3.847   9.031   9.687  0.0287  0.3026 -0.1107
  578MOL0     C77911   3.797   8.949   9.796 -0.1612  0.6799 -0.0104
  578MOL0     N77912   3.900   8.849   9.819  0.4086 -0.4861  1.2445
  578MOL0     C77913   3.999   8.848   9.914  0.1233 -0.2002  0.0867
  578MOL0     C77914   4.045   8.727   9.934  0.0865 -0.6504 -0.4118
  578MOL0     C77915   4.157   8.684  10.022  0.2612  0.2052  0.0835
  578MOL0     C77916   4.292   8.672   9.947 -0.5480  0.1312 -0.6613
  578MOL0     C77917   4.399   8.599  10.030 -1.1064  0.0924 -0.4606
  578MOL0     C77918   4.528   8.602   9.955 -0.2128 -0.5294  0.6527
  578MOL0     O77919   4.612   8.722   9.970 -0.1022  0.4510  0.1724
  578MOL0     C77920   4.749   8.718   9.956  0.0067  0.2497 -1.0961
  578MOL0     C77921   4.809   8.830  10.019  0.7009 -0.5918 -0.5584
  578MOL0     C77922   4.949   8.840  10.025 -0.1516  0.4002  0.4926
  578MOL0     C77923   5.024   8.732   9.959 -0.3288  0.4876  0.0377
  578MOL0     C77924   5.174   8.731   9.959 -0.0429 -0.3960  0.1356
  578MOL0     O77925   5.231   8.670   9.851 -0.8288  0.6277 -0.0832
  578MOL0     C77926   5.368   8.657   9.860  0.0294 -0.7517 -0.1589
  578MOL0     C77927   5.451   8.771   9.845  0.0348 -0.6616  0.1635
  578MOL0     C77928   5.595   8.766   9.879  0.9380  0.3208  0.2413
  578MOL0     C77929   5.644   8.641   9.914 -1.1379  0.0782  0.2222
  578MOL0     O77930   5.776   8.621   9.953 -0.0194 -1.1696  0.9157
  578MOL0     C77931   5.877   8.696   9.888  0.4706 -0.6625 -0.4018
  578MOL0     C77932   6.017   8.660   9.903  0.1061 -0.7571  0.0021
  578MOL0     C77933   6.115   8.780   9.864  0.9249 -0.1524 -0.2266
  578MOL0     C77934   6.147   8.775   9.716 -0.0217  0.2903  0.2599
  578MOL0     C77935   6.142   8.916   9.654 -0.9139  0.1226 -0.8831
  578MOL0     C77936   6.007   8.966   9.623  0.0288  1.0639  0.2649
  578MOL0     C77937   5.944   8.895   9.500  0.5337 -0.4170 -0.2013
  578MOL0     C77938   5.808   8.946   9.473  0.5573  0.2198 -0.3543
  578MOL0    Cl77939   5.691   8.838   9.548 -0.3857 -0.1720  0.2287
  578MOL0     C77940   5.565   8.528   9.906  0.5223  1.0111 -0.7052
  578MOL0     C77941   5.426   8.537   9.886  0.0092 -0.7638 -1.0990
  578MOL0     O77942   5.236   8.791  10.047 -0.3838 -0.9715 -0.7272
  578MOL0     C77943   4.961   8.620   9.905 -0.1066 -0.2334  0.1140
  578MOL0     C77944   4.825   8.616   9.900 -0.1393  1.2291 -0.8279
  578MOL0     N77945   3.970   8.641   9.854  0.2460 -0.4948  0.2764
  578MOL0     N77946   3.894   8.721   9.773  0.2234 -0.5983 -0.1676
  578MOL0     C77947   4.224   9.728   9.421 -1.5687  0.3733  0.4523
  578MOL0     C77948   4.332   9.766   9.334  0.0217 -1.0948  0.2262
  578MOL0     C77949   4.621  10.057   9.183  0.3635  0.0190 -0.7215
  578MOL0     C77950   4.609  10.188   9.127 -0.4227  0.1753  0.6542
  578MOL0     C77951   4.719  10.231   9.051  0.1499 -0.2752 -0.0673
  578MOL0     C77952   4.848  10.173   9.063  0.3088 -0.0304  0.0891
  578MOL0     O77953   4.942  10.236   8.987 -0.6063  0.5612  0.0742
  578MOL0     C77954   5.079  10.217   9.028 -0.1359  0.4112 -0.7326
  578MOL0     C77955   5.163  10.281   8.917  0.0059 -0.1927  0.1626
  578MOL0     C77956   5.125  10.426   8.878  1.1616  0.6901 -0.1519
  578MOL0     C77957   5.184  10.516   8.982 -0.8013 -0.0158  0.3547
  578MOL0     C77958   5.200  10.663   8.938  1.0814  0.3553 -0.3480
  578MOL0     C77959   5.242  10.769   8.890 -0.2632 -0.4925  0.0263
  578MOL0     C77960   4.859  10.052   9.127  0.9712  0.2024 -0.0726
  578MOL0     C77961   4.744   9.997   9.196 -0.8178  0.1841  1.2044
  578MOL0     C77962   4.763   9.873   9.273  0.5864 -0.0769 -0.4353
  578MOL0     H77963   4.174  10.052   9.224 -2.0194 -1.6551 -1.5604
  578MOL0     H77964   4.008   9.978   9.348  0.1656  0.1219 -1.6794
  578MOL0     H77965   3.834   9.825   9.417  1.7771  0.7763 -2.5688
  578MOL0     H77966   3.896   9.717   9.296 -1.9038  3.2523 -1.0977
  578MOL0     H77967   3.714   9.601   9.368  4.4980 -1.5048 -3.3465
  578MOL0     H77968   3.730   9.658   9.533 -1.1389  1.8069 -0.9717
  578MOL0     H77969   3.932   9.489   9.567 -3.1999 -2.2707  2.6927
  578MOL0     H77970   3.915   9.447   9.395  1.9563  0.9076 -0.1364
  578MOL0     H77971   3.717   9.421   9.611 -1.8170 -2.2195  0.5610
  578MOL0     H77972   3.672   9.365   9.452  1.1240 -3.6999 -1.9292
  578MOL0     H77973   3.862   9.189   9.461  0.2959  2.1322 -1.3936
  578MOL0     H77974   3.941   9.273   9.589  0.2310  1.0163 -1.1845
  578MOL0     H77975   3.731   9.208   9.741 -0.0986  1.3328 -1.0258
  578MOL0     H77976   3.677   9.112   9.605  0.3466 -0.7806  0.6466
  578MOL0     H77977   3.945   9.063   9.724 -0.9191 -0.5703  3.5150
  578MOL0     H77978   3.864   8.972   9.597  1.5491 -2.2756  1.7223
  578MOL0     H77979   3.796   9.007   9.889  1.1429 -2.1945  1.9556
  578MOL0     H77980   3.701   8.899   9.783  0.4665 -0.2351 -1.3975
  578MOL0     H77981   4.044   8.938   9.954  0.3264 -0.0579 -0.4495
  578MOL0     H77982   4.179   8.758  10.099  2.6874  0.3366 -0.6621
  578MOL0     H77983   4.133   8.591  10.074 -1.5001  0.1380 -0.7960
  578MOL0     H77984   4.273   8.610   9.859 -1.1728 -0.9480  0.2043
  578MOL0     H77985   4.317   8.772   9.911  0.5269 -0.9923 -3.2935
  578MOL0     H77986   4.366   8.496  10.044 -0.3800  0.0249  0.9225
  578MOL0     H77987   4.416   8.635  10.132 -0.8196  0.1165 -0.5187
  578MOL0     H77988   4.517   8.573   9.850  1.9521 -0.2852  0.3191
  578MOL0     H77989   4.582   8.520  10.003 -1.6118 -1.8369  0.0685
  578MOL0     H77990   4.742   8.897  10.072 -1.1135 -1.7984 -1.2369
  578MOL0     H77991   4.990   8.918  10.088  0.8325 -0.8656  1.4811
  578MOL0     H77992   5.406   8.869   9.834 -0.1563 -0.7654  0.0071
  578MOL0     H77993   5.665   8.849   9.879  4.6771 -2.4537  3.2441
  578MOL0     H77994   5.855   8.671   9.783 -0.3880  0.6175 -0.5404
  578MOL0     H77995   5.870   8.804   9.901  1.0581 -0.9585  3.4908
  578MOL0     H77996   6.036   8.653  10.010  3.6922  4.9773  0.1578
  578MOL0     H77997   6.053   8.570   9.852  2.7471 -0.0385  0.4979
  578MOL0     H77998   6.059   8.872   9.882 -2.4316 -2.2395  1.0147
  578MOL0     H77999   6.200   8.790   9.932  1.6663 -0.3698 -1.0982
  578MOL0     H78000   6.071   8.716   9.663  0.5986 -0.3929  0.1101
  578MOL0     H78001   6.237   8.713   9.706 -0.6371 -0.4165 -1.1998
  578MOL0     H78002   6.197   8.909   9.560  1.6925 -0.3213  0.5948
  578MOL0     H78003   6.196   8.997   9.702 -0.6537 -0.2373 -0.5689
  578MOL0     H78004   5.939   8.953   9.708  0.9688  0.1117  0.9002
  578MOL0     H78005   6.009   9.074   9.606  1.4323  0.7172 -2.2680
  578MOL0     H78006   5.924   8.789   9.512  1.8757 -0.6705 -0.0030
  578MOL0     H78007   6.007   8.909   9.412 -0.6601 -0.7797 -1.1398
  578MOL0     H78008   5.788   9.044   9.519 -1.1846 -0.9064  1.4573
  578MOL0     H78009   5.806   8.956   9.364  1.8536  0.1527 -0.3944
  578MOL0     H78010   5.600   8.425   9.917 -3.2750 -0.5542 -1.5853
  578MOL0     H78011   5.367   8.446   9.887  0.8453 -1.3165 -0.1515
  578MOL0     H78012   5.020   8.540   9.861  0.6296  0.1290  0.4297
  578MOL0     H78013   4.778   8.529   9.855  0.5646 -0.0376  0.7905
  578MOL0     H78014   4.242   9.640   9.481  1.9170  2.0409  2.1488
  578MOL0     H78015   4.425   9.712   9.320  2.0795  1.8126  1.6107
  578MOL0     H78016   4.514  10.241   9.133 -0.4209  0.6064 -1.9058
  578MOL0     H78017   4.717  10.317   8.986  0.7718 -0.5136 -0.4117
  578MOL0     H78018   5.093  10.109   9.039 -2.1280  0.0539 -1.2113
  578MOL0     H78019   5.105  10.265   9.122 -0.3453  0.9993 -0.9662
  578MOL0     H78020   5.148  10.225   8.824 -1.0905 -0.8375  0.7094
  578MOL0     H78021   5.265  10.275   8.957  0.1102  3.4355  0.8170
  578MOL0     H78022   5.017  10.440   8.871  0.8784 -1.5822 -1.0521
  578MOL0     H78023   5.178  10.443   8.784  2.6670  1.0294  0.7158
  578MOL0     H78024   5.115  10.518   9.067 -0.2312  3.2572  0.8556
  578MOL0     H78025   5.279  10.487   9.027 -0.9047  1.6145  1.7478
  578MOL0     H78026   5.269  10.869   8.859 -0.5030 -0.4800 -0.1503
  578MOL0     H78027   4.951   9.995   9.129  1.7527  1.4592  1.3930
  578MOL0     H78028   4.849   9.812   9.243  0.8785 -0.4237  1.0242
  578MOL0     H78029   4.771   9.904   9.377 -0.4569  3.1458 -1.2151
  578MOL0     H78030   4.681   9.802   9.257  0.4365 -0.0674  0.2875
  579MOL0     O78031   8.545   3.964   1.831  0.5926  0.5880 -0.1866
  579MOL0     C78032   8.541   4.019   1.941 -0.9256 -0.6332  0.5876
  579MOL0     O78033   8.646   4.054   2.017 -0.0078  0.1607  0.4679
  579MOL0     C78034   8.781   4.038   1.978 -0.3414 -1.0421  0.6456
  579MOL0     C78035   8.837   3.919   1.930  0.6870 -1.1332 -0.0527
  579MOL0     C78036   8.979   3.915   1.903 -0.3558  0.5525  0.5215
  579MOL0     C78037   9.059   4.027   1.905  0.9512 -1.0086 -0.6547
  579MOL0     O78038   9.193   4.020   1.883  0.5659 -0.4499  0.2750
  579MOL0     C78039   9.283   4.129   1.888  0.3611  0.0812  0.0320
  579MOL0     C78040   9.418   4.086   1.839 -0.2948 -0.1805  0.7853
  579MOL0     C78041   9.514   4.198   1.861  0.1689 -0.6384  0.0253
  579MOL0     C78042   9.658   4.146   1.850  0.3779 -0.1142  0.0318
  579MOL0     C78043   9.753   4.262   1.825 -0.8470  0.1232 -0.2256
  579MOL0     C78044   9.832   4.237   1.703  0.5834  0.3667 -0.2435
  579MOL0     C78045   9.909   4.367   1.674  0.3809  1.2357 -0.1517
  579MOL0     C78046  10.005   4.358   1.549 -0.1119  1.0398 -0.1014
  579MOL0     N78047  10.107   4.467   1.560  0.9966 -0.4706  0.6113
  579MOL0     C78048  10.229   4.460   1.626 -0.2984  0.5348 -0.2318
  579MOL0     C78049  10.288   4.579   1.603 -0.0147 -1.3447  0.6501
  579MOL0     C78050  10.415   4.634   1.663 -0.3131  0.4409 -0.3934
  579MOL0     C78051  10.425   4.784   1.669 -0.6088 -0.4799 -0.5645
  579MOL0     C78052  10.527   4.813   1.777  0.1448 -0.3678 -0.2620
  579MOL0     C78053  10.666   4.753   1.749 -0.3145 -0.0126  0.4380
  579MOL0     O78054  10.770   4.832   1.811  0.5889 -0.0408  0.4924
  579MOL0     C78055  10.898   4.793   1.810 -0.1173 -0.7185  0.2904
  579MOL0     C78056  10.998   4.896   1.825  0.3753  0.4857 -0.7186
  579MOL0     C78057  11.134   4.868   1.828  0.1617 -0.8479  0.4025
  579MOL0     C78058  11.188   4.740   1.803 -0.0256  0.0412  0.0160
  579MOL0     C78059  11.330   4.719   1.792  0.2369 -0.0715  0.3951
  579MOL0     O78060  11.380   4.596   1.813  0.7898  0.3616 -0.1149
  579MOL0     C78061  11.507   4.570   1.778  0.0930  0.2685  1.1235
  579MOL0     C78062  11.550   4.583   1.641  0.3899 -0.6912  0.7024
  579MOL0     C78063  11.679   4.552   1.593 -0.1664 -0.0626 -0.1098
  579MOL0     C78064  11.782   4.542   1.694  1.0510 -0.0747 -0.2516
  579MOL0     O78065  11.915   4.529   1.680 -0.3912  0.3642 -0.2709
  579MOL0     C78066  11.961   4.626   1.579 -0.0404 -0.2493 -1.0180
  579MOL0     C78067  12.108   4.633   1.606  0.0473  0.4065  0.4575
  579MOL0     C78068  12.173   4.703   1.493 -1.6891  0.1365  0.5950
  579MOL0     C78069  12.331   4.701   1.525 -0.5371 -1.0643 -0.7833
  579MOL0     C78070  12.369   4.805   1.634 -0.2784 -1.1311  0.5786
  579MOL0     C78071  12.520   4.834   1.634  0.5186  0.3176  0.6237
  579MOL0     C78072  12.574   4.889   1.505 -0.2613  0.6825 -0.4229
  579MOL0     C78073  12.494   5.014   1.451 -0.4624 -0.3271  0.0166
  579MOL0    Cl78074  12.535   5.033   1.271 -0.0707 -0.3176 -0.0907
  579MOL0     C78075  11.738   4.528   1.829 -0.2551  0.4112  0.1011
  579MOL0     C78076  11.605   4.551   1.869  0.2888  0.3670  0.1787
  579MOL0     O78077  11.391   4.811   1.742 -1.0047  0.0027 -1.6160
  579MOL0     C78078  11.097   4.638   1.783  0.3717  0.4511 -0.2879
  579MOL0     C78079  10.947   4.662   1.784 -0.0709  0.1371  0.3001
  579MOL0     N78080  10.202   4.655   1.527 -0.4329 -0.3337 -0.2533
  579MOL0     N78081  10.088   4.598   1.514 -0.1872  0.1742 -0.0841
  579MOL0     C78082   8.995   4.149   1.938 -0.1497  0.6724  0.1382
  579MOL0     C78083   8.862   4.157   1.973  0.1057  0.6219  0.7330
  579MOL0     C78084   8.414   4.046   2.015 -0.9142 -0.2342 -0.0201
  579MOL0     C78085   8.413   4.020   2.151  1.0015  0.1207 -0.6368
  579MOL0     C78086   8.290   4.002   2.213  0.0386 -0.0225  1.3315
  579MOL0     C78087   8.169   4.038   2.143  0.0924 -0.3713 -0.8155
  579MOL0     O78088   8.054   4.011   2.210  0.7074  0.2870 -0.2862
  579MOL0     C78089   7.920   4.035   2.148  0.3723 -0.4719 -0.0754
  579MOL0     C78090   7.830   4.086   2.262  0.0893  0.1989  0.0142
  579MOL0     C78091   7.777   3.998   2.373  0.0245  0.1771 -0.4549
  579MOL0     C78092   7.870   4.009   2.499 -0.0062  1.1958  0.1098
  579MOL0     C78093   7.980   3.912   2.487  0.8785  0.2634 -0.0083
  579MOL0     C78094   8.059   3.821   2.479  0.5341 -0.5107 -0.4157
  579MOL0     C78095   8.167   4.088   2.007 -0.5867  0.0254  0.2851
  579MOL0     C78096   8.294   4.079   1.945 -0.1592 -0.1394  0.5843
  579MOL0     C78097   8.290   4.110   1.798  0.1145 -1.3216 -0.6492
  579MOL0     H78098   8.771   3.838   1.902  1.0233 -2.1691  1.9447
  579MOL0     H78099   9.020   3.819   1.871 -1.0858  0.5234 -0.3786
  579MOL0     H78100   9.238   4.210   1.831  1.5316  1.1341  0.5437
  579MOL0     H78101   9.295   4.162   1.992 -1.3849  1.1077 -0.0570
  579MOL0     H78102   9.424   4.061   1.733  1.4438  3.9213 -0.2880
  579MOL0     H78103   9.451   3.998   1.895  1.1378 -0.8458 -0.9880
  579MOL0     H78104   9.504   4.238   1.963  1.8518 -2.7432  1.0937
  579MOL0     H78105   9.487   4.271   1.784 -1.0842 -0.9712  0.1267
  579MOL0     H78106   9.679   4.101   1.948  1.2483  0.1826 -0.0117
  579MOL0     H78107   9.658   4.065   1.777  1.6409  1.1839 -1.4750
  579MOL0     H78108   9.709   4.362   1.830 -1.6307 -0.2316  0.2023
  579MOL0     H78109   9.816   4.272   1.913 -0.8841 -3.8205  0.4362
  579MOL0     H78110   9.907   4.158   1.709  1.7319  1.4456 -0.0756
  579MOL0     H78111   9.765   4.218   1.618  0.0111  2.5000 -0.3203
  579MOL0     H78112   9.966   4.396   1.763 -2.7906  3.4747  1.3277
  579MOL0     H78113   9.850   4.454   1.644 -1.0866  0.4975  0.4677
  579MOL0     H78114  10.058   4.263   1.546 -1.6912  0.1390 -0.5429
  579MOL0     H78115   9.943   4.352   1.460 -2.1893 -2.6048  1.3961
  579MOL0     H78116  10.249   4.390   1.706 -3.8637 -0.6812 -0.2455
  579MOL0     H78117  10.423   4.601   1.767  0.4420  0.3096 -0.4865
  579MOL0     H78118  10.499   4.585   1.612  0.5952  0.5897  0.9354
  579MOL0     H78119  10.454   4.827   1.573 -0.3846 -1.0454 -0.7554
  579MOL0     H78120  10.326   4.819   1.700  1.0596  0.6456  4.2772
  579MOL0     H78121  10.495   4.788   1.878  2.9276  0.4497  0.9089
  579MOL0     H78122  10.526   4.922   1.776 -0.2421 -0.2931  2.4796
  579MOL0     H78123  10.681   4.758   1.640  0.4827 -0.8076  0.4959
  579MOL0     H78124  10.670   4.651   1.786 -0.3283  0.3782  1.5365
  579MOL0     H78125  10.976   5.002   1.838 -1.2609 -0.1204  2.2242
  579MOL0     H78126  11.204   4.949   1.844 -0.4942 -0.3520  0.8211
  579MOL0     H78127  11.477   4.620   1.569  1.4775 -3.3232 -1.9677
  579MOL0     H78128  11.708   4.558   1.489  0.4709  2.6077  0.1369
  579MOL0     H78129  11.942   4.597   1.475 -0.7659  1.9905 -1.5556
  579MOL0     H78130  11.910   4.720   1.601 -0.4983 -0.6323 -0.3828
  579MOL0     H78131  12.122   4.688   1.700  2.0387 -0.3025  0.6304
  579MOL0     H78132  12.150   4.532   1.612  1.5859  1.0732  1.2546
  579MOL0     H78133  12.165   4.640   1.404  4.3376 -0.1814 -0.0966
  579MOL0     H78134  12.150   4.804   1.457  4.6950  1.1357 -2.0082
  579MOL0     H78135  12.381   4.726   1.431  1.1314  0.2859  0.3972
  579MOL0     H78136  12.365   4.601   1.554  2.0668 -0.6763 -2.1946
  579MOL0     H78137  12.344   4.754   1.728 -1.2078  1.9196  2.1153
  579MOL0     H78138  12.325   4.905   1.633  1.5945 -0.2674 -0.4631
  579MOL0     H78139  12.533   4.906   1.716  2.5968  1.8872 -0.9508
  579MOL0     H78140  12.569   4.738   1.655  1.5478  0.1304 -2.1998
  579MOL0     H78141  12.590   4.808   1.434  0.4218 -2.8194  3.3453
  579MOL0     H78142  12.675   4.929   1.519  0.1558  0.8879 -3.4544
  579MOL0     H78143  12.385   5.002   1.453 -0.2542 -2.5041  1.1310
  579MOL0     H78144  12.514   5.098   1.518  0.8475 -0.7309  0.1534
  579MOL0     H78145  11.820   4.517   1.899 -0.8115 -2.7750  0.4387
  579MOL0     H78146  11.586   4.552   1.976 -0.0104 -0.9177  0.1554
  579MOL0     H78147  11.128   4.537   1.757 -2.0345 -0.6960  0.9967
  579MOL0     H78148  10.877   4.584   1.759 -1.3632  2.1308 -2.9886
  579MOL0     H78149   9.040   4.248   1.941 -0.7749  0.9300  1.6624
  579MOL0     H78150   8.815   4.248   2.010 -1.1769  0.1768  0.2404
  579MOL0     H78151   8.502   3.998   2.210 -0.3163 -1.5195  0.8169
  579MOL0     H78152   8.292   3.962   2.314  2.0025  1.2707  1.8586
  579MOL0     H78153   7.877   3.946   2.101 -3.0680  0.9741  0.0289
  579MOL0     H78154   7.915   4.096   2.058 -0.2377 -2.4436 -1.4567
  579MOL0     H78155   7.745   4.137   2.216 -0.9865  1.2693  2.9455
  579MOL0     H78156   7.881   4.176   2.299 -0.4335 -1.2500  4.9151
  579MOL0     H78157   7.765   3.900   2.326 -0.4615  0.0244 -0.0177
  579MOL0     H78158   7.675   4.031   2.391 -0.2540  0.6827 -2.6638
  579MOL0     H78159   7.899   4.113   2.516 -3.0815  2.4172 -1.2354
  579MOL0     H78160   7.809   3.980   2.585  0.9914  0.1576  0.4769
  579MOL0     H78161   8.106   3.725   2.469  0.2187 -1.4108  4.4933
  579MOL0     H78162   8.077   4.134   1.966  0.4127  1.1553 -0.7369
  579MOL0     H78163   8.311   4.020   1.740  2.2716  0.1577 -2.3361
  579MOL0     H78164   8.190   4.141   1.769  1.1883  2.8946 -0.5703
  579MOL0     H78165   8.363   4.184   1.763  0.1982 -0.8198  0.5353
  580MOL0     O78166   5.562   5.639   0.627  0.1585 -0.6943  0.6794
  580MOL0     C78167   5.477   5.607   0.714  1.6204  0.0735 -0.2823
  580MOL0     O78168   5.498   5.572   0.846 -0.1054 -0.7266 -0.4130
  580MOL0     C78169   5.627   5.564   0.894 -0.1371 -0.0198 -0.4998
  580MOL0     C78170   5.733   5.501   0.824  0.0711  0.2517 -0.1771
  580MOL0     C78171   5.862   5.471   0.889 -0.1513  0.1841 -0.0275
  580MOL0     C78172   5.885   5.532   1.021  0.5337  0.5445  0.1423
  580MOL0     O78173   6.006   5.527   1.090  0.0959  0.5883 -0.1804
  580MOL0     C78174   6.131   5.510   1.014  0.5089  0.7442  0.4922
  580MOL0     C78175   6.258   5.518   1.099  0.2167 -0.4347  0.4046
  580MOL0     C78176   6.374   5.577   1.008 -0.4424  0.4510 -0.9776
  580MOL0     C78177   6.498   5.613   1.091  1.2776 -0.7818 -0.2539
  580MOL0     C78178   6.481   5.725   1.198  0.6472  0.0001  0.1167
  580MOL0     C78179   6.599   5.811   1.231  0.0856  0.2333 -0.0131
  580MOL0     C78180   6.723   5.749   1.294  0.3275 -0.1059  0.1392
  580MOL0     C78181   6.834   5.850   1.315 -0.5168 -0.3260  0.5001
  580MOL0     N78182   6.796   5.960   1.397  0.6656 -0.2251  0.4278
  580MOL0     C78183   6.792   6.094   1.359  0.1106  0.3862  0.0054
  580MOL0     C78184   6.787   6.162   1.471  0.2653 -0.1340 -1.0857
  580MOL0     C78185   6.794   6.310   1.478  0.1103  1.2515 -0.4002
  580MOL0     C78186   6.938   6.368   1.499  0.2195  0.7708  0.5526
  580MOL0     C78187   7.039   6.279   1.581  0.5431 -0.0104 -0.0418
  580MOL0     C78188   7.057   6.311   1.731  0.3008  0.3335  0.6666
  580MOL0     O78189   7.082   6.449   1.757  0.5247 -0.8903 -0.2931
  580MOL0     C78190   7.208   6.492   1.771 -0.3190 -0.2643 -0.5437
  580MOL0     C78191   7.313   6.418   1.824 -0.5962  0.1968 -0.7598
  580MOL0     C78192   7.447   6.474   1.842 -0.1965  0.3274  0.5596
  580MOL0     C78193   7.464   6.612   1.820 -0.7263  0.3878  0.3219
  580MOL0     C78194   7.602   6.670   1.835 -0.4294 -0.6891  0.0277
  580MOL0     O78195   7.611   6.801   1.828  0.3885 -0.8295 -0.7481
  580MOL0     C78196   7.717   6.858   1.887  0.1923 -1.0885 -0.9242
  580MOL0     C78197   7.794   6.947   1.804 -0.6015 -0.4002 -0.4394
  580MOL0     C78198   7.916   6.992   1.854  0.6761  0.3536  0.4195
  580MOL0     C78199   7.947   6.975   1.991  0.0545 -0.0508  0.5744
  580MOL0     O78200   8.040   7.042   2.054  0.3533 -0.0482  0.3938
  580MOL0     C78201   8.132   7.108   1.979  0.1848  0.0658 -0.2355
  580MOL0     C78202   8.252   7.144   2.077  0.3443  0.3839  0.0529
  580MOL0     C78203   8.201   7.270   2.163  0.8776 -0.1049  1.5854
  580MOL0     C78204   8.295   7.325   2.271  0.9943 -0.9837  0.7487
  580MOL0     C78205   8.428   7.360   2.218 -0.2705 -0.0872  0.0872
  580MOL0     C78206   8.496   7.449   2.323  0.9402 -0.2470 -0.0425
  580MOL0     C78207   8.638   7.504   2.286 -0.6277 -0.4354  0.2563
  580MOL0     C78208   8.707   7.593   2.398  0.0905  0.2378 -0.4480
  580MOL0    Cl78209   8.892   7.590   2.376 -0.0478 -0.7553 -0.2858
  580MOL0     C78210   7.858   6.905   2.074 -0.6573  0.1588 -0.1471
  580MOL0     C78211   7.756   6.839   2.022  0.3439 -0.1210 -0.8907
  580MOL0     O78212   7.695   6.591   1.872 -0.0516  0.0625  0.0906
  580MOL0     C78213   7.363   6.684   1.754 -0.4643  0.3494 -0.0402
  580MOL0     C78214   7.235   6.616   1.732 -0.4733  0.2570 -0.5620
  580MOL0     N78215   6.799   6.063   1.574  1.0058  0.4185  0.3907
  580MOL0     N78216   6.791   5.945   1.533 -0.3640 -0.6438  0.3446
  580MOL0     C78217   5.778   5.584   1.087 -0.6381  0.1589 -0.5654
  580MOL0     C78218   5.646   5.595   1.031 -0.2104 -1.0323 -1.3017
  580MOL0     C78219   5.333   5.626   0.688  0.1072 -0.2927 -0.1548
  580MOL0     C78220   5.246   5.661   0.793  0.2009 -0.7806 -0.4531
  580MOL0     C78221   5.105   5.672   0.770 -0.0359 -0.2217 -0.6991
  580MOL0     C78222   5.048   5.634   0.653  0.2665  0.2678  0.3595
  580MOL0     O78223   4.910   5.628   0.653  0.3956 -0.2808  0.0787
  580MOL0     C78224   4.841   5.683   0.542  0.1610 -0.3640  0.1351
  580MOL0     C78225   4.834   5.833   0.546  0.3978 -0.2196  0.3805
  580MOL0     C78226   4.737   5.887   0.442  0.0424 -1.2462  0.1754
  580MOL0     C78227   4.708   6.038   0.460 -0.5514  0.1327 -0.3460
  580MOL0     C78228   4.607   6.084   0.363 -1.5476  0.2507 -0.7836
  580MOL0     C78229   4.542   6.107   0.266 -0.5737  0.2562  0.4375
  580MOL0     C78230   5.130   5.593   0.549  1.0682 -0.3519  0.9516
  580MOL0     C78231   5.271   5.600   0.563 -0.1192  0.4173 -0.3646
  580MOL0     C78232   5.352   5.549   0.451 -0.4817 -0.4841  0.9569
  580MOL0     H78233   5.721   5.470   0.720 -1.2802 -1.3618  0.4020
  580MOL0     H78234   5.943   5.429   0.830 -0.6941  0.2587 -0.8400
  580MOL0     H78235   6.132   5.415   0.960 -1.2831  1.7251 -1.4245
  580MOL0     H78236   6.136   5.584   0.933 -0.2992 -1.4075 -1.6452
  580MOL0     H78237   6.278   5.420   1.143 -0.4048 -0.0210  1.6500
  580MOL0     H78238   6.240   5.589   1.180 -1.4949  0.8648 -1.0278
  580MOL0     H78239   6.353   5.672   0.958  0.0835  1.2181  0.2188
  580MOL0     H78240   6.411   5.502   0.938 -0.0008 -0.6142  0.3474
  580MOL0     H78241   6.539   5.530   1.148  2.2845  1.5948  2.6970
  580MOL0     H78242   6.575   5.641   1.018 -0.2868 -1.1580 -2.1275
  580MOL0     H78243   6.411   5.797   1.152  1.6998  0.4621 -0.8077
  580MOL0     H78244   6.440   5.671   1.284 -1.2880 -0.5573 -1.0763
  580MOL0     H78245   6.628   5.848   1.132  1.3024 -1.4254 -0.3219
  580MOL0     H78246   6.567   5.897   1.291 -2.5009 -0.7435  0.1510
  580MOL0     H78247   6.768   5.671   1.232 -1.1974  0.0288 -1.2244
  580MOL0     H78248   6.701   5.708   1.393 -1.1120 -0.9216 -0.4733
  580MOL0     H78249   6.921   5.797   1.355 -0.8891 -0.0407  1.7278
  580MOL0     H78250   6.872   5.896   1.223 -0.7270  1.2601  1.1806
  580MOL0     H78251   6.786   6.142   1.262 -2.3252  0.0454 -0.0752
  580MOL0     H78252   6.752   6.361   1.391 -0.3084  1.4447 -0.0882
  580MOL0     H78253   6.733   6.336   1.565 -2.2101  0.8295 -1.8124
  580MOL0     H78254   6.984   6.376   1.400 -0.4294 -2.2958 -0.1009
  580MOL0     H78255   6.916   6.465   1.543 -4.6945 -0.9567  2.6298
  580MOL0     H78256   7.144   6.280   1.548 -0.1303  0.9879 -2.3706
  580MOL0     H78257   7.018   6.172   1.567 -3.3826  0.9249 -2.7223
  580MOL0     H78258   7.145   6.258   1.770  0.7306  1.2695  0.9928
  580MOL0     H78259   6.965   6.267   1.771 -0.8574  1.9027 -0.1446
  580MOL0     H78260   7.302   6.317   1.864  2.4802  0.5221  1.1502
  580MOL0     H78261   7.523   6.401   1.868 -2.1077 -1.4520  1.4227
  580MOL0     H78262   7.760   6.948   1.701  2.1520 -1.3003 -1.4423
  580MOL0     H78263   7.965   7.058   1.784 -0.6905  0.8675 -0.0891
  580MOL0     H78264   8.177   7.053   1.896  0.8136 -1.6544  1.1677
  580MOL0     H78265   8.091   7.205   1.952  0.6627  0.6580  1.0720
  580MOL0     H78266   8.286   7.064   2.143 -3.8949 -1.2865  0.5143
  580MOL0     H78267   8.341   7.178   2.022  0.5430  0.0693  0.1749
  580MOL0     H78268   8.178   7.349   2.092  1.0616 -0.8059  0.7279
  580MOL0     H78269   8.104   7.254   2.212 -0.5931  1.2399 -0.7227
  580MOL0     H78270   8.323   7.254   2.349  1.1048 -3.5159 -1.4664
  580MOL0     H78271   8.243   7.412   2.313 -0.0641 -0.7699 -0.9311
  580MOL0     H78272   8.407   7.407   2.121  1.4048  0.4709 -0.0234
  580MOL0     H78273   8.483   7.267   2.203 -0.4027 -0.1335 -0.1132
  580MOL0     H78274   8.433   7.534   2.346  0.7034  0.1851 -2.0761
  580MOL0     H78275   8.504   7.401   2.421  3.6221  1.2749  0.5872
  580MOL0     H78276   8.637   7.573   2.201  2.2566 -0.2069  0.3177
  580MOL0     H78277   8.707   7.426   2.254  0.4124  1.4712 -2.5388
  580MOL0     H78278   8.678   7.695   2.374 -1.1900 -0.2683 -1.1748
  580MOL0     H78279   8.688   7.556   2.499  2.3044 -2.6402 -0.9390
  580MOL0     H78280   7.889   6.907   2.178 -1.2248  1.5865  0.0182
  580MOL0     H78281   7.687   6.777   2.078 -1.2321  1.6178 -0.7952
  580MOL0     H78282   7.386   6.788   1.734  1.2182  0.2542  1.1559
  580MOL0     H78283   7.154   6.679   1.696 -3.5704 -2.2515  1.5417
  580MOL0     H78284   5.794   5.616   1.190  1.3551 -0.3001 -0.6889
  580MOL0     H78285   5.561   5.631   1.089 -0.0084 -3.1488  0.4539
  580MOL0     H78286   5.292   5.680   0.889  1.5728  0.0408 -1.2451
  580MOL0     H78287   5.048   5.710   0.855  1.1514  0.4316 -0.1616
  580MOL0     H78288   4.735   5.654   0.548 -0.4283  1.9309  2.5447
  580MOL0     H78289   4.877   5.644   0.446 -1.3070  1.1573 -1.1024
  580MOL0     H78290   4.931   5.873   0.514  1.2644 -2.1330  0.4270
  580MOL0     H78291   4.807   5.868   0.645  2.5506 -0.8313  1.2624
  580MOL0     H78292   4.639   5.839   0.440 -0.6502  0.1311 -1.2118
  580MOL0     H78293   4.783   5.870   0.345  0.7658  1.5588 -0.0631
  580MOL0     H78294   4.668   6.055   0.561 -2.3746 -1.0494 -0.8143
  580MOL0     H78295   4.795   6.103   0.449 -0.1803 -0.1187  0.8665
  580MOL0     H78296   4.483   6.114   0.177 -1.5577  1.5701  1.1571
  580MOL0     H78297   5.083   5.558   0.458  2.6169 -1.4692  0.5401
  580MOL0     H78298   5.419   5.629   0.416 -0.2812 -0.9958  0.1472
  580MOL0     H78299   5.406   5.460   0.482  0.6715  0.9100  3.2574
  580MOL0     H78300   5.282   5.526   0.370 -0.1534  0.2430  0.4493
  581MOL0     O78301   6.961   8.353  11.041 -0.5161  0.2482 -0.0835
  581MOL0     C78302   6.925   8.317  10.932 -0.6663 -0.0908 -0.9424
  581MOL0     O78303   6.964   8.377  10.818  0.5061  0.2507 -0.4602
  581MOL0     C78304   7.074   8.456  10.824 -0.3558 -0.1137 -0.2122
  581MOL0     C78305   7.057   8.602  10.820 -0.0647 -0.2897  0.8807
  581MOL0     C78306   7.166   8.687  10.841 -0.5907  0.2448 -0.0228
  581MOL0     C78307   7.294   8.643  10.867 -0.4559  0.7991  0.2953
  581MOL0     O78308   7.416   8.717  10.882  0.4057  0.7250 -0.0899
  581MOL0     C78309   7.410   8.853  10.841  0.4539 -0.8859  0.7933
  581MOL0     C78310   7.549   8.930  10.852 -0.0089  0.1428 -0.2282
  581MOL0     C78311   7.669   8.850  10.808 -0.5129 -0.0739  0.2691
  581MOL0     C78312   7.785   8.958  10.808 -1.5545 -0.3176 -0.6137
  581MOL0     C78313   7.922   8.889  10.800 -0.7455 -0.2595  0.0640
  581MOL0     C78314   8.047   8.981  10.809 -0.3191 -0.2839 -0.2241
  581MOL0     C78315   8.177   8.897  10.795 -0.5956  0.4423 -0.5237
  581MOL0     C78316   8.274   8.957  10.898  0.3579 -0.4226 -1.0168
  581MOL0     N78317   8.316   9.096  10.865 -0.2525  1.0947 -0.0571
  581MOL0     C78318   8.397   9.132  10.764  0.1305  0.6469 -0.4717
  581MOL0     C78319   8.420   9.265  10.779 -0.5739  0.3184 -0.2938
  581MOL0     C78320   8.526   9.337  10.701 -0.1957  0.3317 -0.5276
  581MOL0     C78321   8.571   9.469  10.774 -1.3889 -0.5600 -0.6112
  581MOL0     C78322   8.665   9.447  10.892 -0.7727  0.1084  0.6701
  581MOL0     C78323   8.744   9.579  10.930 -0.7732  1.0778 -0.0754
  581MOL0     O78324   8.821   9.631  10.823  1.0264 -0.3796  0.4886
  581MOL0     C78325   8.958   9.627  10.832 -0.1375  0.6232  0.2466
  581MOL0     C78326   9.039   9.559  10.740 -0.2693 -0.3291  0.7493
  581MOL0     C78327   9.179   9.562  10.737  0.0269 -0.1128 -0.6080
  581MOL0     C78328   9.245   9.627  10.845 -0.3180  0.4109  0.0641
  581MOL0     C78329   9.391   9.631  10.847 -0.2411 -0.1909  0.5402
  581MOL0     O78330   9.447   9.573  10.735 -0.3871 -0.2152 -0.4931
  581MOL0     C78331   9.576   9.610  10.710  0.2948  0.1120 -0.4067
  581MOL0     C78332   9.587   9.694  10.598  0.4570  0.7526 -0.5588
  581MOL0     C78333   9.699   9.738  10.549 -0.0635  0.5384  0.2210
  581MOL0     C78334   9.820   9.694  10.609 -0.3233  1.1386  0.2236
  581MOL0     O78335   9.941   9.740  10.568 -0.1927 -0.2281  0.6048
  581MOL0     C78336   9.955   9.885  10.544 -0.5903 -0.0684 -0.9014
  581MOL0     C78337  10.025   9.947  10.659  0.0893  0.1227  0.0143
  581MOL0     C78338  10.007  10.103  10.653 -0.0607 -0.4228 -0.2745
  581MOL0     C78339  10.072  10.169  10.521 -0.8282 -0.0785  0.0568
  581MOL0     C78340  10.091  10.323  10.558  0.5267  0.2000  0.7170
  581MOL0     C78341   9.961  10.396  10.551  0.5194  0.5560  0.5706
  581MOL0     C78342   9.981  10.539  10.584  1.0304  0.6358 -0.9494
  581MOL0     C78343   9.848  10.593  10.635 -0.7085  0.0563 -0.3867
  581MOL0    Cl78344   9.729  10.604  10.509  0.0477  0.0015 -0.1980
  581MOL0     C78345   9.819   9.602  10.718 -0.5665  0.0157 -0.5387
  581MOL0     C78346   9.695   9.572  10.781 -0.3844 -0.2643 -0.1301
  581MOL0     O78347   9.452   9.676  10.948  0.3113 -0.3507  0.1011
  581MOL0     C78348   9.162   9.702  10.936 -0.3826 -0.3622  0.5265
  581MOL0     C78349   9.022   9.708  10.923  0.7892  0.3092 -0.1433
  581MOL0     N78350   8.352   9.306  10.892 -0.3705  0.4129 -0.8538
  581MOL0     N78351   8.304   9.203  10.943 -0.1258 -0.2662  1.1917
  581MOL0     C78352   7.312   8.505  10.866 -0.3637 -0.3017  0.4588
  581MOL0     C78353   7.208   8.407  10.845  0.8106 -0.4346 -1.1956
  581MOL0     C78354   6.820   8.217  10.919 -0.3687  0.3052  0.1076
  581MOL0     C78355   6.801   8.169  10.792  0.5099  0.3581  0.7610
  581MOL0     C78356   6.696   8.086  10.756  0.2795  0.0641  0.4167
  581MOL0     C78357   6.604   8.051  10.850  0.2163 -0.0924 -0.0381
  581MOL0     O78358   6.503   7.966  10.809  0.2804  0.4452 -0.5355
  581MOL0     C78359   6.403   7.922  10.900 -0.0605  0.1230 -0.5317
  581MOL0     C78360   6.306   7.833  10.832  0.9918 -0.3074 -0.2203
  581MOL0     C78361   6.235   7.916  10.722  0.1145 -0.6407 -0.3898
  581MOL0     C78362   6.304   7.919  10.587  0.3719  0.0564  0.0396
  581MOL0     C78363   6.272   7.801  10.513 -0.2969  0.6959  0.5132
  581MOL0     C78364   6.270   7.690  10.465  0.5012  0.8168 -0.4836
  581MOL0     C78365   6.621   8.097  10.984  0.0601 -0.4463  0.1948
  581MOL0     C78366   6.727   8.186  11.018 -0.3724 -0.7566 -0.1632
  581MOL0     C78367   6.717   8.253  11.158  0.0850 -1.0342  1.0672
  581MOL0     H78368   6.955   8.634  10.802  0.4195 -0.1419 -2.0631
  581MOL0     H78369   7.151   8.792  10.816  1.2829  0.0559 -2.2563
  581MOL0     H78370   7.386   8.862  10.734  1.6156  2.8475  0.6809
  581MOL0     H78371   7.335   8.904  10.902  0.5258  0.7503 -0.4102
  581MOL0     H78372   7.557   8.953  10.959  1.1225 -2.0905  0.2304
  581MOL0     H78373   7.548   9.022  10.793  3.2454 -0.0491 -0.7886
  581MOL0     H78374   7.651   8.821  10.704 -2.7244 -1.2135  0.9182
  581MOL0     H78375   7.697   8.771  10.879 -0.3222 -0.6788 -0.4669
  581MOL0     H78376   7.775   9.028  10.725 -0.2911  2.6095  1.5390
  581MOL0     H78377   7.787   9.018  10.900 -0.4594  2.1292 -2.1482
  581MOL0     H78378   7.940   8.828  10.889 -0.4420 -0.0620  0.1413
  581MOL0     H78379   7.925   8.826  10.711  0.1076 -0.2068  0.0463
  581MOL0     H78380   8.039   9.050  10.725  2.5065  0.0825 -0.2913
  581MOL0     H78381   8.044   9.049  10.895  1.2807 -0.7150  0.2095
  581MOL0     H78382   8.208   8.894  10.691 -1.8361 -2.0484 -0.8964
  581MOL0     H78383   8.161   8.796  10.832  2.4160  0.6485  1.7130
  581MOL0     H78384   8.227   8.949  10.997  2.1203 -0.6068 -0.1444
  581MOL0     H78385   8.359   8.889  10.908  0.5216  0.0496  1.4970
  581MOL0     H78386   8.455   9.067  10.699 -1.6971 -0.8630 -0.6918
  581MOL0     H78387   8.614   9.276  10.676 -0.3549 -0.0061 -0.2734
  581MOL0     H78388   8.469   9.367  10.613 -2.2594  1.4724  1.1185
  581MOL0     H78389   8.637   9.515  10.700  0.4997 -1.4572  0.4414
  581MOL0     H78390   8.490   9.534  10.810 -0.4615  1.0700 -1.3416
  581MOL0     H78391   8.739   9.368  10.880 -0.1489  0.3193  2.7267
  581MOL0     H78392   8.600   9.420  10.976  0.1164 -0.1465  1.2916
  581MOL0     H78393   8.803   9.549  11.017 -1.5022 -1.3303 -0.3381
  581MOL0     H78394   8.671   9.653  10.966 -1.9089  1.1056 -2.2668
  581MOL0     H78395   8.982   9.513  10.660  0.1215 -0.8139  0.7454
  581MOL0     H78396   9.229   9.493  10.669  0.7991 -3.8941  3.3412
  581MOL0     H78397   9.505   9.730  10.537 -0.1882  1.9883  0.9676
  581MOL0     H78398   9.696   9.796  10.457  0.7950 -2.0370 -1.5552
  581MOL0     H78399  10.016   9.891  10.453  2.9239 -1.2426  1.1655
  581MOL0     H78400   9.860   9.933  10.523 -1.0903 -0.2635  0.7706
  581MOL0     H78401   9.982   9.909  10.752  0.2262  3.3686  1.5469
  581MOL0     H78402  10.128   9.910  10.657 -0.3270 -1.1024 -0.0595
  581MOL0     H78403   9.902  10.130  10.664 -0.9852 -3.1634 -1.5439
  581MOL0     H78404  10.065  10.146  10.736  2.0112 -2.6110 -0.4549
  581MOL0     H78405  10.018  10.144  10.429 -1.8964 -1.7556  1.0910
  581MOL0     H78406  10.173  10.130  10.508 -1.2679 -1.2550  0.0651
  581MOL0     H78407  10.167  10.367  10.492  1.5649 -0.9658  1.0829
  581MOL0     H78408  10.120  10.335  10.663  2.3337  2.3460  0.0635
  581MOL0     H78409   9.925  10.387  10.448  1.3201  0.0313  0.3197
  581MOL0     H78410   9.882  10.346  10.607  1.3446 -1.0323  0.3859
  581MOL0     H78411  10.015  10.596  10.497 -1.4890  0.3569 -2.2189
  581MOL0     H78412  10.053  10.556  10.664  0.2708  2.4705 -0.6143
  581MOL0     H78413   9.820  10.538  10.726  2.0246 -1.4863 -0.3866
  581MOL0     H78414   9.879  10.690  10.676 -2.5845  0.2766  0.6102
  581MOL0     H78415   9.914   9.570  10.760 -0.3381  1.3489  0.0337
  581MOL0     H78416   9.702   9.507  10.867  1.9003  0.2126  0.1035
  581MOL0     H78417   9.209   9.770  11.006 -2.3251  0.7693  0.8049
  581MOL0     H78418   8.957   9.777  10.977  0.0384  0.1809 -0.8597
  581MOL0     H78419   7.414   8.474  10.883  0.5263 -1.0947 -4.6777
  581MOL0     H78420   7.227   8.300  10.844 -0.8862 -0.7710 -0.3069
  581MOL0     H78421   6.880   8.186  10.720  0.1352  0.5534  0.3951
  581MOL0     H78422   6.669   8.061  10.654  0.1568  2.5293 -0.2114
  581MOL0     H78423   6.353   8.006  10.949  1.5112  0.1136  1.1639
  581MOL0     H78424   6.449   7.867  10.983 -1.3966  1.4494  1.1717
  581MOL0     H78425   6.228   7.795  10.899 -0.5765  3.6144  0.4650
  581MOL0     H78426   6.361   7.753  10.781  1.2344 -0.1677 -0.1808
  581MOL0     H78427   6.217   8.021  10.750  0.7804 -0.8270  0.8199
  581MOL0     H78428   6.130   7.885  10.714 -0.6114  1.7412 -0.9926
  581MOL0     H78429   6.278   8.005  10.524 -2.1740 -0.4353  0.3297
  581MOL0     H78430   6.413   7.923  10.588  0.3514  1.6007  0.8495
  581MOL0     H78431   6.279   7.589  10.429  3.3043  1.6990 -2.6560
  581MOL0     H78432   6.555   8.078  11.068 -1.0229 -0.9340 -0.7411
  581MOL0     H78433   6.758   8.195  11.241  1.3404  0.1920  1.3499
  581MOL0     H78434   6.748   8.358  11.165 -1.7009 -0.4357  0.5726
  581MOL0     H78435   6.611   8.261  11.185 -0.3210 -1.1793 -0.4374
  582MOL0     O78436   0.165   4.245   3.276 -0.5881 -0.0246 -0.2688
  582MOL0     C78437   0.077   4.232   3.193  0.5990  0.3671 -0.5877
  582MOL0     O78438   0.102   4.200   3.060  0.4196 -0.2922 -0.4252
  582MOL0     C78439   0.233   4.203   3.010 -0.0215 -0.1639  0.5122
  582MOL0     C78440   0.342   4.150   3.079 -0.0052 -0.0222 -0.6185
  582MOL0     C78441   0.474   4.148   3.031  0.0352 -0.1980  0.1317
  582MOL0     C78442   0.505   4.182   2.895 -0.1902  0.7488 -0.8219
  582MOL0     O78443   0.634   4.176   2.857 -0.1352 -0.2351 -0.4546
  582MOL0     C78444   0.673   4.185   2.716 -0.5180 -0.4041  0.5838
  582MOL0     C78445   0.788   4.092   2.686 -0.6714  0.4059 -0.2711
  582MOL0     C78446   0.820   4.071   2.534  0.5356 -0.0027 -0.1234
  582MOL0     C78447   0.896   3.938   2.505  0.7023 -0.4203  0.6345
  582MOL0     C78448   0.965   3.935   2.363  0.2766  0.0749  0.7906
  582MOL0     C78449   0.981   3.789   2.308 -0.8303 -0.1680  0.1208
  582MOL0     C78450   1.037   3.800   2.167  0.1887  0.9818  0.1571
  582MOL0     C78451   1.057   3.656   2.109 -0.0517 -0.1789  0.7280
  582MOL0     N78452   1.197   3.615   2.136  0.0380 -0.0366  0.0415
  582MOL0     C78453   1.305   3.671   2.081 -0.3650  0.5973 -0.5295
  582MOL0     C78454   1.403   3.590   2.128 -1.1476  0.5503  0.0864
  582MOL0     C78455   1.556   3.601   2.100  0.0824  0.2848  0.2560
  582MOL0     C78456   1.605   3.717   2.184 -0.8884 -0.6401 -0.2620
  582MOL0     C78457   1.761   3.745   2.151 -0.8236  0.7141  0.5032
  582MOL0     C78458   1.806   3.883   2.194  1.2634  0.1103  0.6561
  582MOL0     O78459   1.807   3.902   2.336  0.1072 -0.6064 -0.2338
  582MOL0     C78460   1.836   4.025   2.399 -0.2500 -0.0156  0.3150
  582MOL0     C78461   1.875   4.134   2.326 -0.4474  0.0148  0.8607
  582MOL0     C78462   1.911   4.250   2.384 -0.7960 -0.1114 -0.2171
  582MOL0     C78463   1.906   4.264   2.526 -0.0897  0.3148 -0.4547
  582MOL0     C78464   1.944   4.387   2.602  1.0025 -0.3864  0.0437
  582MOL0     O78465   1.980   4.490   2.519 -0.3515  0.1682  0.2335
  582MOL0     C78466   2.027   4.607   2.584  0.4566 -0.7819  0.0703
  582MOL0     C78467   1.968   4.714   2.538 -0.2304 -0.1398  0.8721
  582MOL0     C78468   2.014   4.843   2.582 -0.6532  0.5071  0.5757
  582MOL0     C78469   2.102   4.868   2.688  0.6782 -0.1435 -0.7497
  582MOL0     O78470   2.142   4.987   2.735  0.5371 -0.7572 -0.3277
  582MOL0     C78471   2.050   5.097   2.709 -0.6625 -0.0386 -0.0199
  582MOL0     C78472   2.079   5.224   2.783  0.6804  0.1437 -0.3803
  582MOL0     C78473   2.188   5.317   2.735  0.4449 -0.3497 -0.0142
  582MOL0     C78474   2.228   5.421   2.840  1.1315 -0.6615  0.0162
  582MOL0     C78475   2.349   5.502   2.805  0.4562 -0.6385  0.4947
  582MOL0     C78476   2.350   5.578   2.665  0.5502 -0.1783 -0.5292
  582MOL0     C78477   2.478   5.641   2.623 -0.1983 -0.1039 -1.2103
  582MOL0     C78478   2.475   5.779   2.683  0.0302  0.7311 -0.7016
  582MOL0    Cl78479   2.632   5.846   2.673  0.2593 -0.2564 -0.3982
  582MOL0     C78480   2.152   4.752   2.737  0.2071  0.3361  0.2159
  582MOL0     C78481   2.117   4.620   2.694 -0.7966 -0.4468  0.6464
  582MOL0     O78482   1.944   4.391   2.726 -0.5205  0.0078 -0.5380
  582MOL0     C78483   1.848   4.154   2.594 -0.2203 -0.6477 -0.3179
  582MOL0     C78484   1.817   4.037   2.535  0.5457  0.7817  0.9411
  582MOL0     N78485   1.355   3.490   2.205  0.2596 -0.4703 -0.6242
  582MOL0     N78486   1.231   3.506   2.213  0.5062  0.2673  0.4862
  582MOL0     C78487   0.396   4.233   2.815  0.4240 -0.9165 -0.2201
  582MOL0     C78488   0.264   4.239   2.870  0.5668 -0.6605 -1.1282
  582MOL0     C78489  -0.067   4.217   3.224 -0.2039 -0.2425 -0.2832
  582MOL0     C78490  -0.092   4.139   3.330  0.0694  0.4509 -0.4804
  582MOL0     C78491  -0.226   4.121   3.380 -0.1677  0.2467  0.0548
  582MOL0     C78492  -0.333   4.180   3.310 -0.3533 -0.4697  0.2130
  582MOL0     O78493  -0.454   4.159   3.362  0.3372  0.3915 -0.1744
  582MOL0     C78494  -0.567   4.139   3.277 -0.0333 -0.3325 -0.2377
  582MOL0     C78495  -0.674   4.044   3.328  0.7508 -0.1303 -0.0041
  582MOL0     C78496  -0.776   4.129   3.415  0.1314  0.3315 -0.2546
  582MOL0     C78497  -0.887   4.050   3.464  0.7843  0.1711 -0.4619
  582MOL0     C78498  -0.845   3.966   3.582 -1.2794  0.9303  0.1494
  582MOL0     C78499  -0.800   3.928   3.687 -0.4822  0.2433  0.5659
  582MOL0     C78500  -0.305   4.251   3.184  0.5541 -0.2634 -0.8535
  582MOL0     C78501  -0.172   4.278   3.150  0.1622 -0.3916 -0.1642
  582MOL0     C78502  -0.154   4.385   3.053 -0.5020 -0.6172  0.0005
  582MOL0     H78503   0.333   4.107   3.179  0.2037  2.8164  0.7003
  582MOL0     H78504   0.553   4.097   3.084  1.5092  0.2388 -1.5657
  582MOL0     H78505   0.587   4.149   2.659  0.0332 -0.6184 -0.1303
  582MOL0     H78506   0.692   4.286   2.677 -3.5572 -1.2759 -3.9915
  582MOL0     H78507   0.769   3.996   2.736  0.3851 -0.0042 -0.6417
  582MOL0     H78508   0.880   4.130   2.731 -0.9368  1.4227 -0.5594
  582MOL0     H78509   0.871   4.162   2.500 -1.6485  0.2136 -3.2635
  582MOL0     H78510   0.727   4.081   2.477  0.0408 -0.9553  0.4942
  582MOL0     H78511   0.981   3.921   2.572 -0.0284 -1.0591  1.4185
  582MOL0     H78512   0.825   3.855   2.515 -2.8314  2.5951  3.6695
  582MOL0     H78513   0.909   3.994   2.289  1.5973  1.3830  0.7874
  582MOL0     H78514   1.061   3.987   2.369  0.7432 -0.4399 -1.2405
  582MOL0     H78515   1.047   3.730   2.372 -1.2945  0.7118  1.4524
  582MOL0     H78516   0.887   3.733   2.312  1.0306 -3.4861  0.6514
  582MOL0     H78517   1.131   3.856   2.167 -0.0759  1.4772 -1.6321
  582MOL0     H78518   0.971   3.857   2.100  0.8172  0.5559 -0.8393
  582MOL0     H78519   0.990   3.586   2.159 -0.5495  0.1160  0.4792
  582MOL0     H78520   1.031   3.653   2.002 -2.0848  0.2698  1.1698
  582MOL0     H78521   1.307   3.759   2.017  0.3178  2.1213  1.4640
  582MOL0     H78522   1.612   3.511   2.128  0.1109 -0.3439 -1.6644
  582MOL0     H78523   1.564   3.624   1.993 -0.5188 -1.6644 -0.2483
  582MOL0     H78524   1.542   3.806   2.168 -0.0224  0.0400  0.0257
  582MOL0     H78525   1.603   3.682   2.288  1.4670 -1.2104 -0.3476
  582MOL0     H78526   1.775   3.738   2.042  2.2808  0.5189  0.8383
  582MOL0     H78527   1.833   3.680   2.201  0.7603  2.4638  0.6204
  582MOL0     H78528   1.733   3.949   2.147  0.7680 -0.3612  0.7489
  582MOL0     H78529   1.908   3.891   2.156  0.8886 -1.4659 -0.7987
  582MOL0     H78530   1.899   4.134   2.220  0.8332  0.6449  1.1302
  582MOL0     H78531   1.960   4.321   2.318  0.9290 -0.2744  0.8374
  582MOL0     H78532   1.908   4.707   2.447  2.1804 -1.2051 -0.7435
  582MOL0     H78533   1.975   4.930   2.531  0.5052  1.7475  1.7234
  582MOL0     H78534   2.035   5.115   2.602 -1.9756 -2.3567 -0.2862
  582MOL0     H78535   1.953   5.065   2.750 -0.3078  0.4059  1.2170
  582MOL0     H78536   1.983   5.276   2.786 -0.7746 -2.4102  0.0754
  582MOL0     H78537   2.089   5.189   2.886 -1.7050  1.3984  0.3473
  582MOL0     H78538   2.269   5.251   2.704 -1.2731 -3.0455  0.8377
  582MOL0     H78539   2.153   5.369   2.645 -2.5772 -3.1205 -0.6722
  582MOL0     H78540   2.253   5.372   2.934  0.7928  2.2109  1.7287
  582MOL0     H78541   2.134   5.474   2.858  1.6338 -0.1955  1.4264
  582MOL0     H78542   2.440   5.440   2.803  1.7587  1.1196  1.7564
  582MOL0     H78543   2.353   5.571   2.889 -0.6789 -1.7521  1.4879
  582MOL0     H78544   2.321   5.512   2.583  0.9633  0.1884 -0.9745
  582MOL0     H78545   2.263   5.644   2.672 -0.3256 -1.4413  1.4668
  582MOL0     H78546   2.479   5.656   2.514 -0.3079 -1.6502 -1.4497
  582MOL0     H78547   2.564   5.584   2.660  1.3606  2.1802 -1.1246
  582MOL0     H78548   2.402   5.845   2.636 -0.4057  2.3458  1.9983
  582MOL0     H78549   2.447   5.768   2.788 -0.6007 -1.4545 -1.0602
  582MOL0     H78550   2.224   4.769   2.817  0.8499  0.6487 -0.4205
  582MOL0     H78551   2.163   4.532   2.738  0.1163  0.2116  1.0317
  582MOL0     H78552   1.838   4.173   2.700 -2.3605  2.1904 -0.8875
  582MOL0     H78553   1.782   3.959   2.601 -3.0821  1.3449 -0.0967
  582MOL0     H78554   0.418   4.264   2.714  3.6902  1.1605  0.9766
  582MOL0     H78555   0.177   4.264   2.812 -0.4326 -4.1318 -1.3884
  582MOL0     H78556  -0.006   4.092   3.375  0.5361  0.3723 -1.4291
  582MOL0     H78557  -0.244   4.068   3.473 -2.7679  0.5485 -0.1965
  582MOL0     H78558  -0.535   4.109   3.177 -0.9965  0.5242 -0.8309
  582MOL0     H78559  -0.609   4.235   3.246 -1.0795 -1.1947 -1.5867
  582MOL0     H78560  -0.625   3.972   3.395 -0.2396  0.6823  1.6628
  582MOL0     H78561  -0.722   3.989   3.246 -1.6913  0.6660  0.7960
  582MOL0     H78562  -0.824   4.214   3.365 -0.4302 -0.4599 -1.1008
  582MOL0     H78563  -0.715   4.160   3.500  0.2742 -0.4115 -0.0813
  582MOL0     H78564  -0.970   4.115   3.496  0.1739 -0.3878 -0.8772
  582MOL0     H78565  -0.932   3.986   3.387 -0.4076 -0.4340  0.6814
  582MOL0     H78566  -0.759   3.899   3.781  2.7906  0.5556 -0.6180
  582MOL0     H78567  -0.384   4.302   3.130  1.6526  2.0873 -0.3796
  582MOL0     H78568  -0.213   4.357   2.965 -0.7926 -2.5759  0.7641
  582MOL0     H78569  -0.180   4.485   3.088  1.0451  0.9771 -2.9346
  582MOL0     H78570  -0.050   4.386   3.019 -0.4265  0.2428  0.2436
  583MOL0     O78571   8.530   8.384   6.871 -0.1907 -0.6412 -0.2870
  583MOL0     C78572   8.499   8.461   6.970 -0.0946 -0.1041 -0.0572
  583MOL0     O78573   8.580   8.485   7.077 -0.3723 -0.1101 -0.1138
  583MOL0     C78574   8.684   8.405   7.125  0.3354 -0.2975 -0.3593
  583MOL0     C78575   8.738   8.462   7.237  0.1496  0.3582  0.2331
  583MOL0     C78576   8.843   8.396   7.307 -0.1322  0.3536  0.8690
  583MOL0     C78577   8.898   8.275   7.259 -0.1769 -0.2890  0.6213
  583MOL0     O78578   8.996   8.223   7.344  0.0490  0.1074 -0.6085
  583MOL0     C78579   9.051   8.091   7.301 -0.2195 -0.2529 -0.7072
  583MOL0     C78580   9.178   8.053   7.387 -0.2442 -0.6420  0.1681
  583MOL0     C78581   9.148   8.027   7.525 -0.4218  0.8092 -0.5463
  583MOL0     C78582   9.144   8.154   7.609  0.3142  0.4837 -0.2594
  583MOL0     C78583   9.145   8.121   7.764 -0.0811 -0.1864 -0.4333
  583MOL0     C78584   9.287   8.100   7.813  0.4886  0.6466  0.4426
  583MOL0     C78585   9.283   8.067   7.960  0.6394  1.1589 -0.5334
  583MOL0     C78586   9.324   8.183   8.046  0.6763  0.4650 -0.1229
  583MOL0     N78587   9.351   8.145   8.189  0.3151 -0.0745  0.3128
  583MOL0     C78588   9.248   8.131   8.284 -0.8702  1.9649  0.1324
  583MOL0     C78589   9.315   8.129   8.413 -1.5529 -1.3085 -0.5721
  583MOL0     C78590   9.252   8.124   8.538  1.1435 -0.4052  0.5511
  583MOL0     C78591   9.179   8.248   8.571 -0.2946 -0.5347 -0.0967
  583MOL0     C78592   9.282   8.369   8.601 -0.2365  0.7307  0.2121
  583MOL0     C78593   9.210   8.502   8.626 -0.4170  0.4488 -0.4790
  583MOL0     O78594   9.098   8.495   8.720 -0.3478  0.1151 -0.4175
  583MOL0     C78595   9.118   8.536   8.847 -0.0661  0.3396 -1.0810
  583MOL0     C78596   9.247   8.528   8.911 -0.6695  0.6671 -0.2817
  583MOL0     C78597   9.261   8.549   9.045 -1.1200  0.1033  0.2525
  583MOL0     C78598   9.148   8.585   9.119 -0.1607  0.3066 -0.3249
  583MOL0     C78599   9.168   8.624   9.261 -0.1638 -1.0796 -0.6992
  583MOL0     O78600   9.302   8.639   9.294  0.8092  0.4238  0.3484
  583MOL0     C78601   9.334   8.677   9.423  0.3056 -0.6337 -0.3288
  583MOL0     C78602   9.318   8.594   9.530 -1.0404  0.8398 -0.0946
  583MOL0     C78603   9.351   8.632   9.659 -0.2807 -0.7724  0.4926
  583MOL0     C78604   9.411   8.751   9.687 -1.4338  0.0889 -0.4311
  583MOL0     O78605   9.455   8.773   9.818  0.2237 -0.5407 -0.6806
  583MOL0     C78606   9.522   8.901   9.847  0.3915  0.1439 -0.8379
  583MOL0     C78607   9.628   8.874   9.979  0.7630  0.4450  0.2514
  583MOL0     C78608   9.561   8.833  10.120  0.1163 -0.0008  0.4404
  583MOL0     C78609   9.669   8.826  10.225 -0.5872  0.0380 -0.0917
  583MOL0     C78610   9.605   8.812  10.362  0.5833  1.0495  0.5198
  583MOL0     C78611   9.694   8.750  10.464  0.4781  0.8022  1.1668
  583MOL0     C78612   9.635   8.763  10.604  0.6466 -0.0781 -0.8310
  583MOL0     C78613   9.663   8.636  10.692 -0.0081  0.2259  0.2196
  583MOL0    Cl78614   9.848   8.631  10.706 -0.0036  0.3183 -0.3208
  583MOL0     C78615   9.432   8.832   9.573 -1.2747 -0.2920 -0.1657
  583MOL0     C78616   9.397   8.792   9.444 -0.6242  0.1339 -0.8010
  583MOL0     O78617   9.068   8.657   9.329 -0.1537 -0.2961  0.7788
  583MOL0     C78618   9.028   8.597   9.063 -0.6113  0.3109 -0.0270
  583MOL0     C78619   9.006   8.563   8.929  0.0947  0.4633  0.5069
  583MOL0     N78620   9.448   8.158   8.387  0.2604 -0.3238 -0.2614
  583MOL0     N78621   9.464   8.162   8.258 -1.1177 -0.6006 -0.2365
  583MOL0     C78622   8.843   8.220   7.137 -1.0871  0.2419 -0.6550
  583MOL0     C78623   8.741   8.287   7.069 -0.1845  0.3627 -0.0243
  583MOL0     C78624   8.366   8.525   6.968 -0.1571  0.5273 -0.6867
  583MOL0     C78625   8.357   8.628   7.067 -1.1367  0.4330  0.4084
  583MOL0     C78626   8.241   8.693   7.080 -0.0266 -0.2090 -0.5408
  583MOL0     C78627   8.130   8.665   7.000  0.4819  0.0520  0.1757
  583MOL0     O78628   8.022   8.737   7.026 -0.8845  0.4922 -0.5971
  583MOL0     C78629   7.911   8.732   6.940 -0.6350  0.5837 -0.4275
  583MOL0     C78630   7.808   8.827   6.992  0.0012 -0.3780  0.7992
  583MOL0     C78631   7.665   8.762   6.987 -0.0399 -0.7416 -0.2812
  583MOL0     C78632   7.558   8.862   7.052  0.1974  0.3357  0.5306
  583MOL0     C78633   7.576   8.887   7.201 -0.6823  0.8570  0.1744
  583MOL0     C78634   7.615   8.906   7.316  0.3877 -0.2942 -0.0125
  583MOL0     C78635   8.137   8.575   6.899 -0.9674  0.4445 -0.6327
  583MOL0     C78636   8.257   8.500   6.890  0.6333 -0.8297  0.9004
  583MOL0     C78637   8.254   8.387   6.799  0.2899 -0.1482 -0.0317
  583MOL0     H78638   8.684   8.550   7.270  0.4040  0.7126 -0.2740
  583MOL0     H78639   8.883   8.431   7.401  0.5035 -2.4197  1.7391
  583MOL0     H78640   8.974   8.016   7.323 -1.6386  1.2549 -0.4051
  583MOL0     H78641   9.084   8.095   7.196  0.4269  2.2088 -0.4674
  583MOL0     H78642   9.253   8.132   7.376  1.6762 -2.3669  0.4112
  583MOL0     H78643   9.214   7.970   7.327  2.8842  0.6520  0.0681
  583MOL0     H78644   9.238   7.971   7.554 -0.8455  0.3851 -0.0131
  583MOL0     H78645   9.059   7.967   7.546  0.7442 -1.3602 -1.5081
  583MOL0     H78646   9.235   8.211   7.591  1.3687 -0.9660  0.2386
  583MOL0     H78647   9.054   8.209   7.583 -1.4427 -2.4253 -0.7486
  583MOL0     H78648   9.086   8.197   7.816  0.2868 -1.0151  1.2892
  583MOL0     H78649   9.104   8.025   7.795  3.2669 -1.5271  0.2401
  583MOL0     H78650   9.335   8.015   7.763 -1.1733 -0.2051  0.2471
  583MOL0     H78651   9.341   8.191   7.785  0.1662  0.3578 -1.1915
  583MOL0     H78652   9.348   7.986   7.995 -1.7101 -0.3548  0.6973
  583MOL0     H78653   9.181   8.036   7.988  1.5164 -1.1941  0.3926
  583MOL0     H78654   9.420   8.228   8.019  0.6539  2.7074  3.0115
  583MOL0     H78655   9.241   8.251   8.028 -0.7567 -0.3959  2.7540
  583MOL0     H78656   9.146   8.114   8.253  0.3785 -1.3226 -2.8430
  583MOL0     H78657   9.179   8.044   8.519 -0.3706  1.2305 -0.9208
  583MOL0     H78658   9.330   8.083   8.602  1.8896 -1.8969 -1.2468
  583MOL0     H78659   9.116   8.283   8.489 -1.3239  1.3784  1.4169
  583MOL0     H78660   9.116   8.240   8.660 -0.2558  0.2355  0.0115
  583MOL0     H78661   9.359   8.369   8.524 -1.3107 -0.0485 -0.9015
  583MOL0     H78662   9.335   8.349   8.695 -0.1233  4.3129  1.0494
  583MOL0     H78663   9.168   8.532   8.529  1.2128 -1.9603 -2.0582
  583MOL0     H78664   9.283   8.579   8.652 -2.5603  2.0755  1.1417
  583MOL0     H78665   9.331   8.490   8.853  0.8702 -0.1817  2.3305
  583MOL0     H78666   9.367   8.547   9.070 -1.3713 -0.8332  1.3516
  583MOL0     H78667   9.271   8.497   9.514 -1.0982  1.2898 -3.3444
  583MOL0     H78668   9.313   8.577   9.745 -1.3442  0.5806  0.9265
  583MOL0     H78669   9.572   8.942   9.759  1.2869  1.7151  0.3614
  583MOL0     H78670   9.442   8.974   9.865  0.9897  0.6489 -0.1992
  583MOL0     H78671   9.696   8.792   9.952  0.8654 -0.0228  1.8075
  583MOL0     H78672   9.688   8.964   9.990  0.6194  0.8922 -2.0774
  583MOL0     H78673   9.489   8.912  10.147  0.8548  0.6563  0.5203
  583MOL0     H78674   9.504   8.740  10.115 -3.3499  1.9668  0.0310
  583MOL0     H78675   9.728   8.919  10.220  1.1960 -0.9480  1.2197
  583MOL0     H78676   9.732   8.744  10.188  0.4865  1.1557 -0.8245
  583MOL0     H78677   9.507   8.763  10.358  1.1945 -0.3482  1.8156
  583MOL0     H78678   9.581   8.908  10.408  0.3075  0.1411  2.3779
  583MOL0     H78679   9.710   8.647  10.433 -2.1868  0.4252  0.7559
  583MOL0     H78680   9.789   8.804  10.455 -0.5940  2.5197 -0.9129
  583MOL0     H78681   9.528   8.786  10.607  0.0010 -2.7968  1.4832
  583MOL0     H78682   9.693   8.841  10.655 -0.1185  2.2782 -3.3153
  583MOL0     H78683   9.613   8.648  10.789  0.4821 -0.8412  0.6177
  583MOL0     H78684   9.615   8.548  10.649 -0.9705  0.3259  1.0460
  583MOL0     H78685   9.470   8.933   9.579  0.9615 -1.0283 -0.7907
  583MOL0     H78686   9.425   8.865   9.370  0.8392  1.2173  0.7640
  583MOL0     H78687   8.942   8.624   9.124  0.9055  2.4334  1.3153
  583MOL0     H78688   8.906   8.562   8.887  0.5623 -2.6615 -0.8290
  583MOL0     H78689   8.876   8.123   7.101 -0.4567  0.5474 -0.9100
  583MOL0     H78690   8.689   8.246   6.983  0.1581 -0.1362 -0.0028
  583MOL0     H78691   8.436   8.645   7.140 -0.9985 -0.4408  0.4762
  583MOL0     H78692   8.233   8.760   7.165 -0.7148  0.2734 -0.9693
  583MOL0     H78693   7.869   8.631   6.940 -1.1101  0.7651  1.1220
  583MOL0     H78694   7.928   8.754   6.834  1.0972  0.9200 -0.0977
  583MOL0     H78695   7.808   8.927   6.948  1.2131  0.7293  3.0897
  583MOL0     H78696   7.835   8.844   7.097 -1.9303  0.5299  1.1901
  583MOL0     H78697   7.661   8.665   7.037  2.5233 -0.4439  0.6341
  583MOL0     H78698   7.634   8.742   6.884 -2.4822 -1.3307  0.4988
  583MOL0     H78699   7.585   8.951   6.996  5.2871 -0.0384  1.8427
  583MOL0     H78700   7.455   8.830   7.033 -0.4155  3.3552 -2.0145
  583MOL0     H78701   7.638   8.922   7.420  1.7112  0.8224 -0.4423
  583MOL0     H78702   8.050   8.539   6.844 -1.1884 -3.0577  1.6819
  583MOL0     H78703   8.318   8.413   6.714 -1.8943  2.1978 -1.1117
  583MOL0     H78704   8.277   8.292   6.847  0.1274 -1.1519 -1.8436
  583MOL0     H78705   8.156   8.383   6.750 -0.6604  1.7099  1.5798
  584MOL0     O78706   5.277   3.394   1.600  0.2495  0.5379 -0.6272
  584MOL0     C78707   5.192   3.317   1.646 -0.8083  0.5979 -0.8361
  584MOL0     O78708   5.224   3.196   1.708 -0.2739 -0.4089  0.1065
  584MOL0     C78709   5.353   3.166   1.754 -0.5297  0.3940  0.2615
  584MOL0     C78710   5.436   3.253   1.818 -0.1078 -0.4881 -0.6051
  584MOL0     C78711   5.561   3.219   1.861 -0.7252  0.2597  0.0076
  584MOL0     C78712   5.618   3.092   1.821  0.7225  0.4653 -0.5612
  584MOL0     O78713   5.749   3.037   1.845  1.1043 -0.6032  0.1508
  584MOL0     C78714   5.844   3.125   1.913 -0.3367  0.5090 -1.0155
  584MOL0     C78715   5.971   3.050   1.944  0.1671 -0.8458  0.0450
  584MOL0     C78716   5.957   2.953   2.069  0.4817  0.1020 -0.1532
  584MOL0     C78717   6.085   2.880   2.095 -0.4543  0.0393 -0.1182
  584MOL0     C78718   6.066   2.802   2.230 -0.5108 -0.0094  1.1267
  584MOL0     C78719   6.182   2.703   2.237  0.4572 -0.1177 -0.2903
  584MOL0     C78720   6.185   2.634   2.376 -0.1017 -0.5401 -0.2149
  584MOL0     C78721   6.210   2.737   2.500 -0.3399 -0.1027 -0.7655
  584MOL0     N78722   6.356   2.750   2.515  0.2988  0.2926  0.0335
  584MOL0     C78723   6.430   2.862   2.491 -0.8928 -0.7299 -0.0684
  584MOL0     C78724   6.554   2.841   2.554  0.7020  0.6027 -0.2981
  584MOL0     C78725   6.656   2.959   2.560  0.0571  0.3553 -0.5639
  584MOL0     C78726   6.772   2.923   2.474 -0.1652 -0.1344  0.0911
  584MOL0     C78727   6.874   3.037   2.468  0.0120  0.1260  0.0227
  584MOL0     C78728   6.982   3.007   2.362 -0.1566  0.1233 -0.0265
  584MOL0     O78729   7.063   3.128   2.323 -0.6030  0.3128  0.1517
  584MOL0     C78730   7.141   3.104   2.208  0.0993  0.1421  0.3678
  584MOL0     C78731   7.161   2.993   2.133  0.7756  0.2305  0.2339
  584MOL0     C78732   7.241   2.987   2.021  0.3594 -0.4451  0.6509
  584MOL0     C78733   7.324   3.095   1.990 -0.0480  0.3469  0.7030
  584MOL0     C78734   7.423   3.090   1.883 -0.3001 -0.0101  0.1927
  584MOL0     O78735   7.397   3.000   1.786  0.3024 -0.6116 -0.1790
  584MOL0     C78736   7.487   2.985   1.683  0.1624 -0.5777 -0.8225
  584MOL0     C78737   7.516   2.858   1.645  0.2986  0.0838 -0.2489
  584MOL0     C78738   7.595   2.827   1.536 -0.4811 -0.2913 -0.1469
  584MOL0     C78739   7.652   2.928   1.461 -0.6915  0.6722 -0.1354
  584MOL0     O78740   7.732   2.896   1.358 -0.4537  0.8131 -0.1841
  584MOL0     C78741   7.876   2.873   1.368  0.4176 -0.8520 -0.0127
  584MOL0     C78742   7.934   3.012   1.410 -0.0104  1.1541 -0.7272
  584MOL0     C78743   8.084   3.019   1.406 -0.0311 -0.7102  1.0975
  584MOL0     C78744   8.146   3.009   1.266  0.1498  0.2801 -0.5330
  584MOL0     C78745   8.286   3.071   1.249 -0.0395  0.3632  1.1088
  584MOL0     C78746   8.395   3.021   1.341 -0.2724 -0.9378  0.4013
  584MOL0     C78747   8.532   3.036   1.276 -0.4764 -0.6768  0.2469
  584MOL0     C78748   8.639   3.038   1.378  0.7209  0.3265  0.2369
  584MOL0    Cl78749   8.808   3.069   1.304 -0.1265 -0.1832 -0.5005
  584MOL0     C78750   7.614   3.054   1.485  0.5254 -0.7722  0.3795
  584MOL0     C78751   7.543   3.087   1.600  0.3361 -0.4863 -0.3740
  584MOL0     O78752   7.501   3.187   1.872  0.0005 -0.4215 -0.1889
  584MOL0     C78753   7.306   3.216   2.066  0.0053  1.0918  0.4710
  584MOL0     C78754   7.221   3.214   2.179 -0.5230  0.0899  0.0917
  584MOL0     N78755   6.544   2.720   2.614 -0.0845 -0.9074  0.1512
  584MOL0     N78756   6.428   2.672   2.601  0.1051  0.6881 -0.7820
  584MOL0     C78757   5.534   3.002   1.756 -0.0244 -0.2460  0.0917
  584MOL0     C78758   5.398   3.040   1.730  0.3419 -0.3596  0.3638
  584MOL0     C78759   5.048   3.330   1.626  0.4837  0.0478  0.1605
  584MOL0     C78760   4.964   3.235   1.688 -0.2379 -0.3710 -0.2368
  584MOL0     C78761   4.829   3.243   1.673  0.0490  0.6488  0.4263
  584MOL0     C78762   4.775   3.354   1.610 -0.3819  0.0098  0.1255
  584MOL0     O78763   4.641   3.358   1.625  0.1137  0.3712  0.6231
  584MOL0     C78764   4.577   3.388   1.502 -0.3790 -0.1357 -0.4006
  584MOL0     C78765   4.428   3.358   1.518 -0.3755  0.1117  0.2782
  584MOL0     C78766   4.338   3.421   1.409 -0.1995 -0.7551 -0.2861
  584MOL0     C78767   4.192   3.391   1.429  0.8066 -0.4993 -0.0752
  584MOL0     C78768   4.167   3.251   1.396 -0.2058  0.6795  0.8395
  584MOL0     C78769   4.145   3.138   1.359 -0.3567  1.2917  0.1895
  584MOL0     C78770   4.851   3.439   1.537  0.4327  1.0213  0.0884
  584MOL0     C78771   4.990   3.433   1.547 -0.0402 -0.2944  0.8826
  584MOL0     C78772   5.061   3.542   1.470 -0.1615  0.0319  0.3149
  584MOL0     H78773   5.396   3.352   1.841  0.5414 -0.0840 -1.1592
  584MOL0     H78774   5.628   3.292   1.902  0.8094 -2.2432  2.2591
  584MOL0     H78775   5.872   3.214   1.858 -1.1747  1.2342 -0.3070
  584MOL0     H78776   5.797   3.145   2.010  1.2267 -2.0949  0.4140
  584MOL0     H78777   6.053   3.118   1.968  0.2477 -0.9360  0.0249
  584MOL0     H78778   6.005   3.001   1.853 -0.8436  0.0140 -0.8233
  584MOL0     H78779   5.871   2.891   2.043 -0.0714  1.7571 -2.4668
  584MOL0     H78780   5.924   3.001   2.162  2.8213  0.6008  0.4851
  584MOL0     H78781   6.113   2.807   2.019 -2.0564 -0.4337 -0.2825
  584MOL0     H78782   6.161   2.959   2.098  0.7242 -1.0050 -1.1827
  584MOL0     H78783   6.068   2.874   2.313 -1.4265 -2.5785  3.5512
  584MOL0     H78784   5.965   2.760   2.222  0.3193 -1.6522 -2.9786
  584MOL0     H78785   6.186   2.624   2.161  1.7630 -3.6733  3.1421
  584MOL0     H78786   6.280   2.752   2.234  0.8853 -0.9791 -2.6684
  584MOL0     H78787   6.257   2.552   2.370 -0.8559 -1.2911  0.7157
  584MOL0     H78788   6.088   2.585   2.385 -0.2736 -1.0310 -3.4691
  584MOL0     H78789   6.169   2.837   2.485  1.4186  0.7191 -0.3421
  584MOL0     H78790   6.176   2.687   2.591 -1.4706  1.6618 -0.1738
  584MOL0     H78791   6.399   2.949   2.435  0.9237  0.1565  0.2469
  584MOL0     H78792   6.608   3.055   2.541 -1.4464 -0.3257 -0.3438
  584MOL0     H78793   6.693   2.951   2.663  3.4542 -0.2738 -1.7053
  584MOL0     H78794   6.819   2.832   2.511 -1.0738  0.0870  1.9255
  584MOL0     H78795   6.736   2.895   2.375  1.9286 -0.9478 -0.4906
  584MOL0     H78796   6.935   3.053   2.557 -0.0122  2.1333 -0.2805
  584MOL0     H78797   6.819   3.126   2.438 -0.1451 -0.3066 -1.0201
  584MOL0     H78798   6.930   2.966   2.275  1.0636 -2.1458  0.2362
  584MOL0     H78799   7.042   2.934   2.417 -2.6195 -0.2374  2.4199
  584MOL0     H78800   7.113   2.901   2.164 -3.9187  2.3544  0.2489
  584MOL0     H78801   7.245   2.889   1.974  1.4756 -0.7969  1.4255
  584MOL0     H78802   7.467   2.776   1.698  0.2897 -0.7833 -1.5673
  584MOL0     H78803   7.627   2.725   1.515 -0.0587 -0.1753 -0.0766
  584MOL0     H78804   7.910   2.792   1.433  5.0841  1.6938  1.2101
  584MOL0     H78805   7.913   2.843   1.270 -0.3482  4.3936 -2.2571
  584MOL0     H78806   7.890   3.095   1.353  1.8859  0.1028 -3.9439
  584MOL0     H78807   7.906   3.031   1.514  0.7687  1.3912 -0.5537
  584MOL0     H78808   8.120   3.117   1.440 -3.4191  0.9193  0.5003
  584MOL0     H78809   8.130   2.942   1.469  1.8988 -1.1531 -0.7575
  584MOL0     H78810   8.072   3.059   1.203 -0.7690  1.4499  1.3658
  584MOL0     H78811   8.148   2.902   1.245 -2.5753 -0.6308  2.8702
  584MOL0     H78812   8.277   3.178   1.274  0.5613 -0.0363  3.2140
  584MOL0     H78813   8.313   3.054   1.144 -0.2460 -0.8322  1.2370
  584MOL0     H78814   8.380   3.085   1.428  0.6676  2.8304 -1.9722
  584MOL0     H78815   8.388   2.915   1.367  3.2457 -1.2143  0.7581
  584MOL0     H78816   8.547   3.134   1.231 -1.6709  0.8358  2.9009
  584MOL0     H78817   8.544   2.962   1.196 -1.3844  0.4197 -0.9480
  584MOL0     H78818   8.615   3.110   1.457 -0.8345  0.2637 -0.1479
  584MOL0     H78819   8.638   2.936   1.418 -1.0461  0.1843 -0.0617
  584MOL0     H78820   7.671   3.129   1.432  1.4838 -0.3595  1.9257
  584MOL0     H78821   7.518   3.191   1.621 -2.9894 -0.9673 -1.4027
  584MOL0     H78822   7.369   3.304   2.058 -1.8974  2.5662  0.8629
  584MOL0     H78823   7.225   3.291   2.256 -0.7349 -0.1588  0.3571
  584MOL0     H78824   5.570   2.905   1.725  2.1877  0.2402  0.9872
  584MOL0     H78825   5.327   2.967   1.691  0.3959 -1.7610  2.6911
  584MOL0     H78826   5.005   3.143   1.728  2.1560  0.4959 -0.5352
  584MOL0     H78827   4.757   3.173   1.712 -0.8417  0.3779 -1.5854
  584MOL0     H78828   4.615   3.326   1.421 -1.5180 -3.1170  1.1905
  584MOL0     H78829   4.584   3.493   1.472 -3.5002  0.2632 -0.0573
  584MOL0     H78830   4.396   3.395   1.616  0.2159 -1.1298  0.9639
  584MOL0     H78831   4.427   3.249   1.523  1.8929  0.0791  1.4629
  584MOL0     H78832   4.372   3.387   1.311 -0.7756 -1.3964 -0.2680
  584MOL0     H78833   4.341   3.531   1.412 -1.5514 -0.7155  1.0401
  584MOL0     H78834   4.167   3.407   1.534  0.2880 -0.2812 -0.2272
  584MOL0     H78835   4.130   3.447   1.359  3.3267 -0.2015 -2.2195
  584MOL0     H78836   4.101   3.042   1.344 -2.0448  1.9010  1.0026
  584MOL0     H78837   4.799   3.518   1.484 -0.3720 -0.9347 -2.2280
  584MOL0     H78838   5.124   3.499   1.391 -0.6110  0.7750 -0.4763
  584MOL0     H78839   4.993   3.616   1.427 -0.9002 -1.0686 -0.4594
  584MOL0     H78840   5.130   3.597   1.535  2.9659 -1.1310 -1.8076
  585MOL0     O78841  10.107   6.105  10.134  0.2414 -0.9861 -0.6382
  585MOL0     C78842   9.987   6.136  10.151  0.6087 -0.5058  1.4730
  585MOL0     O78843   9.912   6.209  10.061  0.1725  0.7296 -0.0014
  585MOL0     C78844   9.965   6.229   9.938 -1.1098 -1.1235  0.3132
  585MOL0     C78845  10.037   6.348   9.934  0.3462 -0.1079  0.1214
  585MOL0     C78846  10.096   6.379   9.810 -0.5431 -0.1272 -0.1676
  585MOL0     C78847  10.102   6.292   9.699  0.2279 -0.3167  0.2328
  585MOL0     O78848  10.192   6.333   9.598  0.2346 -0.0302  0.0004
  585MOL0     C78849  10.192   6.260   9.477 -0.1729  0.4551  0.0762
  585MOL0     C78850  10.301   6.317   9.378 -0.1327 -0.0175 -0.2493
  585MOL0     C78851  10.287   6.244   9.239 -0.0135  0.0154  0.3939
  585MOL0     C78852  10.415   6.247   9.159  0.2956  0.2573 -0.0358
  585MOL0     C78853  10.404   6.165   9.026 -0.7545 -0.7297  0.1060
  585MOL0     C78854  10.316   6.241   8.930 -0.4491 -0.4851  0.0032
  585MOL0     C78855  10.291   6.148   8.807 -0.9220 -0.4042  0.7382
  585MOL0     C78856  10.401   6.165   8.696  0.0264 -0.4043 -0.6735
  585MOL0     N78857  10.414   6.059   8.593 -0.7102 -0.1742  0.3910
  585MOL0     C78858  10.519   6.053   8.499  0.6039  0.1194  0.5225
  585MOL0     C78859  10.461   5.985   8.398  0.5469 -0.2604  0.3506
  585MOL0     C78860  10.521   5.973   8.256  0.1067 -0.3876  0.1575
  585MOL0     C78861  10.616   5.852   8.260  0.9033 -1.5687  0.8496
  585MOL0     C78862  10.682   5.831   8.121  0.5642  0.0952 -0.5099
  585MOL0     C78863  10.803   5.739   8.134 -0.1972 -0.4781 -0.8666
  585MOL0     O78864  10.877   5.771   8.258 -0.7029 -0.3953 -0.1323
  585MOL0     C78865  10.983   5.692   8.292 -0.5621  0.3469 -0.2159
  585MOL0     C78866  11.027   5.588   8.203  0.0458 -1.1370  0.0076
  585MOL0     C78867  11.130   5.510   8.257  0.4092  0.1770 -0.1325
  585MOL0     C78868  11.205   5.543   8.371 -0.3307  0.6996  0.2018
  585MOL0     C78869  11.304   5.449   8.432 -0.4753  0.0635  0.0699
  585MOL0     O78870  11.351   5.356   8.342 -0.2034 -0.0467 -1.0646
  585MOL0     C78871  11.456   5.264   8.364  0.8543 -0.7466  0.2403
  585MOL0     C78872  11.523   5.223   8.254 -0.3790 -0.6650  0.4112
  585MOL0     C78873  11.646   5.158   8.265  0.1072  0.6898  0.0980
  585MOL0     C78874  11.685   5.104   8.390 -0.2093 -0.0058 -0.4957
  585MOL0     O78875  11.809   5.041   8.410  0.6149 -0.1046  0.5472
  585MOL0     C78876  11.840   4.946   8.308  0.4900  0.6248 -0.3985
  585MOL0     C78877  11.963   4.993   8.221  0.8700 -0.1254  0.3299
  585MOL0     C78878  12.080   5.016   8.319  0.0996 -0.7435 -0.1728
  585MOL0     C78879  12.204   5.051   8.226 -0.0368 -0.3102 -0.3118
  585MOL0     C78880  12.334   5.055   8.287 -0.1093  0.4601  0.3065
  585MOL0     C78881  12.379   4.927   8.357  1.0541  0.2089  0.9632
  585MOL0     C78882  12.527   4.927   8.399  0.4454 -0.5678 -0.3626
  585MOL0     C78883  12.582   5.037   8.491 -0.7498  0.4097 -1.1906
  585MOL0    Cl78884  12.577   5.203   8.440  0.1504  0.5184 -0.1728
  585MOL0     C78885  11.599   5.125   8.496 -0.2871 -0.2293 -0.4169
  585MOL0     C78886  11.493   5.217   8.488  0.1771  0.1554 -0.7452
  585MOL0     O78887  11.344   5.472   8.548  0.4291  0.6234  1.3603
  585MOL0     C78888  11.162   5.649   8.445  0.0555 -1.0669  0.0267
  585MOL0     C78889  11.054   5.721   8.410  0.1745  1.0020 -0.7411
  585MOL0     N78890  10.332   5.944   8.440  0.3912 -0.3623  0.4475
  585MOL0     N78891  10.305   5.993   8.554  0.0451 -0.2028  0.3976
  585MOL0     C78892  10.028   6.171   9.707 -0.0004  0.0043 -0.6214
  585MOL0     C78893   9.965   6.134   9.830  1.0091  0.3949  0.5495
  585MOL0     C78894   9.907   6.079  10.270 -0.8555  0.9433 -0.3070
  585MOL0     C78895   9.766   6.074  10.263 -0.0881 -0.3343  0.1584
  585MOL0     C78896   9.691   6.027  10.373 -0.6312 -0.0513 -0.1482
  585MOL0     C78897   9.753   5.956  10.478  0.2605  0.0996  0.4177
  585MOL0     O78898   9.688   5.888  10.578 -0.1434  0.3895 -0.2918
  585MOL0     C78899   9.711   5.932  10.711  0.6057  0.1060 -0.3871
  585MOL0     C78900   9.734   5.811  10.802 -0.2230 -0.6432  0.4426
  585MOL0     C78901   9.799   5.842  10.944  0.8732 -0.0303 -0.8606
  585MOL0     C78902   9.703   5.910  11.036  0.4451 -0.2180 -0.5542
  585MOL0     C78903   9.774   5.915  11.162 -0.4108  0.6806 -1.0919
  585MOL0     C78904   9.840   5.928  11.267  0.3490  0.3217 -0.3666
  585MOL0     C78905   9.894   5.941  10.473 -0.5088 -0.7441 -0.2011
  585MOL0     C78906   9.971   6.005  10.378  1.1161 -0.6763  0.2884
  585MOL0     C78907  10.114   6.004  10.414 -0.8190 -0.8351 -0.2925
  585MOL0     H78908  10.059   6.402  10.026  1.0046  0.7231 -0.4979
  585MOL0     H78909  10.154   6.470   9.794 -1.2831  0.6166  1.1309
  585MOL0     H78910  10.209   6.154   9.498  0.2302  0.9682  2.7089
  585MOL0     H78911  10.098   6.277   9.424 -1.2588 -1.6935  1.2006
  585MOL0     H78912  10.400   6.300   9.421  0.0753  1.6606 -0.0025
  585MOL0     H78913  10.293   6.425   9.361  1.8605  0.5229  1.7264
  585MOL0     H78914  10.205   6.285   9.180  0.1025  0.0169  0.2357
  585MOL0     H78915  10.272   6.138   9.261  0.5213 -0.4385 -1.3316
  585MOL0     H78916  10.459   6.345   9.137 -3.3685  2.2844  0.7761
  585MOL0     H78917  10.487   6.198   9.224  1.8671  0.9438 -1.1995
  585MOL0     H78918  10.505   6.136   8.995 -0.9037 -2.7221  1.3213
  585MOL0     H78919  10.353   6.074   9.058  3.1302 -2.0639  3.5064
  585MOL0     H78920  10.214   6.258   8.965 -0.1821  0.1856  0.4751
  585MOL0     H78921  10.367   6.336   8.912  0.9102 -1.3331 -0.8169
  585MOL0     H78922  10.197   6.179   8.761  0.1264  0.4359 -0.9310
  585MOL0     H78923  10.281   6.043   8.834 -1.3433 -0.7302 -0.6336
  585MOL0     H78924  10.374   6.260   8.649  2.9651  0.6674 -0.4134
  585MOL0     H78925  10.498   6.176   8.746 -0.4818  1.7630 -0.0445
  585MOL0     H78926  10.608   6.115   8.498  1.5626 -1.1756  1.9449
  585MOL0     H78927  10.437   5.947   8.192  1.3033 -2.5108 -0.6830
  585MOL0     H78928  10.566   6.065   8.219 -0.9175 -0.1831 -0.6111
  585MOL0     H78929  10.688   5.868   8.342 -0.0562 -3.0028  2.0209
  585MOL0     H78930  10.556   5.764   8.283 -1.2183 -1.7914 -4.2933
  585MOL0     H78931  10.724   5.923   8.081  1.6673  0.4590  1.3639
  585MOL0     H78932  10.608   5.777   8.061 -0.3758 -1.1272  1.6369
  585MOL0     H78933  10.868   5.758   8.048 -0.1641  0.9626 -0.5439
  585MOL0     H78934  10.769   5.635   8.136 -3.9283  0.6004 -0.3120
  585MOL0     H78935  10.984   5.564   8.106 -1.9545  1.9939 -0.0080
  585MOL0     H78936  11.141   5.422   8.194 -0.1175  0.1113 -0.1415
  585MOL0     H78937  11.498   5.229   8.148  2.7499 -2.4097 -0.5780
  585MOL0     H78938  11.707   5.147   8.176 -0.4790  0.7673 -0.3192
  585MOL0     H78939  11.875   4.852   8.351 -1.0840  0.2954  0.2477
  585MOL0     H78940  11.753   4.929   8.243 -2.0322  1.2737  2.5371
  585MOL0     H78941  11.988   4.916   8.147  3.0465  0.0393  0.8241
  585MOL0     H78942  11.951   5.088   8.168  0.3369 -0.3863 -0.0284
  585MOL0     H78943  12.064   5.101   8.387  0.0796  1.0185 -2.2969
  585MOL0     H78944  12.104   4.926   8.377  4.0295  1.7991  2.6483
  585MOL0     H78945  12.187   5.140   8.164  1.3893  0.7240  0.7326
  585MOL0     H78946  12.211   4.968   8.154  0.7221 -0.0577 -0.5297
  585MOL0     H78947  12.342   5.136   8.360  0.4538 -1.2351  2.2277
  585MOL0     H78948  12.411   5.072   8.211  0.4396 -2.0731  0.1959
  585MOL0     H78949  12.318   4.910   8.446  0.6750  2.4681  1.1995
  585MOL0     H78950  12.366   4.840   8.293 -3.3181  0.0040  1.8122
  585MOL0     H78951  12.573   4.945   8.302  1.1963 -0.4952  0.0059
  585MOL0     H78952  12.558   4.827   8.431 -1.6242 -1.7104 -1.6460
  585MOL0     H78953  12.535   5.046   8.589  0.2167  0.1500 -0.6911
  585MOL0     H78954  12.685   5.006   8.507 -1.8707 -2.7363  0.9061
  585MOL0     H78955  11.616   5.089   8.597 -4.2593 -0.3477  0.3678
  585MOL0     H78956  11.427   5.242   8.571 -0.2598  2.1701 -1.6391
  585MOL0     H78957  11.201   5.671   8.545  0.1401 -2.8467  0.4251
  585MOL0     H78958  11.015   5.793   8.481 -2.6102 -2.4305  1.5484
  585MOL0     H78959  10.029   6.098   9.627  0.3581  0.0279 -0.6398
  585MOL0     H78960   9.929   6.034   9.851  0.6254  1.2477  4.8225
  585MOL0     H78961   9.713   6.128  10.185 -0.3249  2.2131  1.9460
  585MOL0     H78962   9.584   6.047  10.374 -1.0663 -2.1500  0.7900
  585MOL0     H78963   9.623   5.985  10.748  0.9605 -1.7211  3.5293
  585MOL0     H78964   9.797   5.998  10.720  0.5422 -0.0985  3.0110
  585MOL0     H78965   9.795   5.729  10.761  1.1147 -0.0223  1.1353
  585MOL0     H78966   9.637   5.765  10.822  0.3145 -0.7259  3.2465
  585MOL0     H78967   9.897   5.887  10.928  1.2823 -0.5005  0.2685
  585MOL0     H78968   9.814   5.742  10.984 -2.5020 -0.7063 -0.9853
  585MOL0     H78969   9.689   6.006  10.986 -0.4939 -0.6394 -1.1254
  585MOL0     H78970   9.616   5.844  11.035  0.5712 -0.5331  2.1465
  585MOL0     H78971   9.913   5.948  11.342 -0.4081  0.9608  0.2064
  585MOL0     H78972   9.938   5.875  10.548  2.4921  1.0147 -0.2562
  585MOL0     H78973  10.158   5.904  10.420  0.3212 -0.2751  1.5207
  585MOL0     H78974  10.171   6.070  10.347 -3.4709  2.3016  0.2565
  585MOL0     H78975  10.112   6.044  10.516 -3.1587 -2.3301  0.3269
  586MOL0     O78976   8.504   9.851   3.825  0.2347 -0.5560 -0.2236
  586MOL0     C78977   8.477   9.774   3.915  0.0508 -0.1699 -0.3974
  586MOL0     O78978   8.444   9.816   4.044 -0.1912 -0.6618  0.4688
  586MOL0     C78979   8.419   9.955   4.041  0.7509  0.4706  0.4432
  586MOL0     C78980   8.519  10.051   4.059  0.1893 -0.2773  0.1438
  586MOL0     C78981   8.491  10.183   4.061 -0.2914  0.1952  0.8945
  586MOL0     C78982   8.357  10.230   4.044  0.1202 -0.2287  0.4332
  586MOL0     O78983   8.350  10.364   4.021  0.3241 -0.3069 -0.0695
  586MOL0     C78984   8.218  10.420   4.005 -0.0360  0.4284  0.2370
  586MOL0     C78985   8.157  10.462   4.140 -0.4671  1.2559 -0.2412
  586MOL0     C78986   8.021  10.398   4.158 -0.1526  0.5733 -0.3622
  586MOL0     C78987   7.929  10.453   4.263  0.0354 -0.2201 -0.1347
  586MOL0     C78988   7.799  10.377   4.284  0.3887 -0.8393  1.0611
  586MOL0     C78989   7.698  10.399   4.163 -0.4073  0.0458 -0.5014
  586MOL0     C78990   7.573  10.312   4.161  0.5936 -0.0486 -0.1740
  586MOL0     C78991   7.487  10.352   4.043 -0.7602 -0.5833 -0.2717
  586MOL0     N78992   7.377  10.254   4.035 -0.1302  0.0041  0.2191
  586MOL0     C78993   7.364  10.151   3.947 -0.9836  0.3222  0.2840
  586MOL0     C78994   7.242  10.097   3.974 -0.4658 -0.0932  0.1047
  586MOL0     C78995   7.182   9.987   3.894  0.0778 -0.0019  0.3321
  586MOL0     C78996   7.045   9.957   3.931 -0.1921  0.6406  0.1583
  586MOL0     C78997   6.986   9.850   3.839  0.0832 -0.7193  1.0792
  586MOL0     C78998   6.845   9.788   3.896 -0.6270  0.1222 -0.5716
  586MOL0     O78999   6.743   9.888   3.876 -0.3158 -0.1094  0.0826
  586MOL0     C79000   6.612   9.843   3.862 -0.0739 -0.6887  0.8986
  586MOL0     C79001   6.555   9.726   3.920 -0.8106  1.1496  1.2184
  586MOL0     C79002   6.416   9.693   3.904 -0.3304 -0.5281 -0.4993
  586MOL0     C79003   6.330   9.775   3.836  0.9192  0.1276 -1.0174
  586MOL0     C79004   6.194   9.744   3.808  0.0842  0.4658 -0.7948
  586MOL0     O79005   6.137   9.810   3.700 -0.7826  0.2929  0.5351
  586MOL0     C79006   6.006   9.798   3.656  0.7774 -0.2612  0.1670
  586MOL0     C79007   5.903   9.814   3.742  0.1578  1.4748 -0.6391
  586MOL0     C79008   5.768   9.792   3.700  0.7848 -0.7891 -0.0526
  586MOL0     C79009   5.733   9.774   3.567  0.6387 -0.1648 -0.2376
  586MOL0     O79010   5.595   9.766   3.544 -0.2123  0.4477  0.5103
  586MOL0     C79011   5.568   9.737   3.406  0.1211 -0.0107  0.5214
  586MOL0     C79012   5.424   9.756   3.365  0.2129  0.2256  0.7674
  586MOL0     C79013   5.329   9.676   3.443  0.4999  0.1055  1.2403
  586MOL0     C79014   5.185   9.667   3.381  0.3990 -0.2412  0.4534
  586MOL0     C79015   5.096   9.583   3.482 -0.5443 -0.0782  1.1372
  586MOL0     C79016   4.951   9.548   3.414 -0.6932 -1.1597 -0.6901
  586MOL0     C79017   4.872   9.451   3.497  0.0556  0.4640  0.2592
  586MOL0     C79018   4.724   9.406   3.467 -0.1614 -0.0425  0.1420
  586MOL0    Cl79019   4.616   9.546   3.478 -0.5304  0.1033 -0.3254
  586MOL0     C79020   5.842   9.765   3.480  0.1235  0.2739  0.2523
  586MOL0     C79021   5.974   9.773   3.523  0.6044  0.0126  0.1910
  586MOL0     O79022   6.135   9.660   3.883  0.2357 -0.0404  0.2852
  586MOL0     C79023   6.381   9.894   3.780 -0.7121 -0.7754  0.2589
  586MOL0     C79024   6.519   9.932   3.793 -0.7985 -0.0183  0.2743
  586MOL0     N79025   7.181  10.175   4.073 -0.1035 -0.5321 -0.0009
  586MOL0     N79026   7.268  10.265   4.107 -0.4939  0.4409 -0.1084
  586MOL0     C79027   8.259  10.138   4.044 -0.0641  0.0226  0.2170
  586MOL0     C79028   8.288   9.995   4.037  0.8873  0.6339  0.9759
  586MOL0     C79029   8.477   9.628   3.887  0.2597  0.3402 -0.2171
  586MOL0     C79030   8.477   9.548   3.997 -0.1427 -0.2545 -0.1255
  586MOL0     C79031   8.471   9.407   3.994  0.4779 -0.4142  1.1453
  586MOL0     C79032   8.474   9.339   3.873  0.7864  0.0513 -0.1616
  586MOL0     O79033   8.481   9.199   3.868 -0.4879  0.0888  0.3349
  586MOL0     C79034   8.498   9.137   3.745 -0.6523 -0.2433 -0.7660
  586MOL0     C79035   8.506   8.989   3.764 -0.4925  0.9206 -0.5981
  586MOL0     C79036   8.553   8.934   3.630 -0.0790  0.2522 -0.2151
  586MOL0     C79037   8.677   8.843   3.641 -0.4594  0.8948 -0.9666
  586MOL0     C79038   8.656   8.706   3.713  0.0421 -0.0206  0.4302
  586MOL0     C79039   8.648   8.602   3.778  0.1998  0.5412  0.2147
  586MOL0     C79040   8.452   9.423   3.754  0.3103  1.1842 -0.5694
  586MOL0     C79041   8.461   9.563   3.762 -0.2333 -0.1837  0.5363
  586MOL0     C79042   8.463   9.648   3.636 -0.2453  0.0520  0.5013
  586MOL0     H79043   8.625  10.029   4.056 -0.0073 -2.2529  3.2401
  586MOL0     H79044   8.569  10.258   4.066 -1.3050  1.2742  0.8470
  586MOL0     H79045   8.214  10.510   3.944 -0.7067  0.2402 -0.0111
  586MOL0     H79046   8.155  10.350   3.949  1.2709 -3.1074  2.8114
  586MOL0     H79047   8.152  10.570   4.152  0.0457  1.3568 -0.9061
  586MOL0     H79048   8.214  10.418   4.222 -1.2070 -2.8883 -1.6686
  586MOL0     H79049   8.048  10.300   4.198  1.4130  1.2469  0.3019
  586MOL0     H79050   7.968  10.391   4.062 -1.3380 -0.8121  0.3478
  586MOL0     H79051   7.988  10.443   4.355  0.8285 -0.0795 -0.6123
  586MOL0     H79052   7.917  10.562   4.258 -0.6791 -0.2823  0.1167
  586MOL0     H79053   7.811  10.268   4.289 -1.7953 -1.1807  0.3298
  586MOL0     H79054   7.759  10.408   4.381  2.1794 -0.9829  1.8764
  586MOL0     H79055   7.663  10.503   4.166 -0.5879 -0.0224 -0.2851
  586MOL0     H79056   7.756  10.390   4.070  0.7847  1.5992  0.0379
  586MOL0     H79057   7.527  10.327   4.259  3.4281  2.0559  0.9614
  586MOL0     H79058   7.600  10.206   4.163 -0.2757 -0.2866 -0.2558
  586MOL0     H79059   7.445  10.452   4.056 -1.8085 -0.6197 -2.8692
  586MOL0     H79060   7.536  10.356   3.945  2.3040  1.1566  1.1545
  586MOL0     H79061   7.435  10.118   3.872 -3.3144 -2.3880 -0.9666
  586MOL0     H79062   7.185  10.016   3.788 -0.1731 -1.9388 -0.2455
  586MOL0     H79063   7.251   9.904   3.910  0.1303  0.1620  0.9687
  586MOL0     H79064   7.035   9.918   4.033  1.0688 -0.0286  0.0382
  586MOL0     H79065   6.984  10.048   3.932  1.6061  1.9549 -1.6723
  586MOL0     H79066   7.057   9.767   3.833 -0.5575 -1.1896 -1.5318
  586MOL0     H79067   6.957   9.889   3.741  0.2795 -0.7051  1.0268
  586MOL0     H79068   6.858   9.761   4.001 -0.7924 -2.1929 -1.0993
  586MOL0     H79069   6.810   9.704   3.836 -0.8903 -0.7574  0.7534
  586MOL0     H79070   6.628   9.662   3.969 -1.7836  0.8466  2.3207
  586MOL0     H79071   6.380   9.596   3.937 -1.4710  0.6896  2.0718
  586MOL0     H79072   5.921   9.816   3.849 -0.7859  3.8762 -0.4618
  586MOL0     H79073   5.682   9.805   3.764  0.3784 -0.9390 -0.5664
  586MOL0     H79074   5.620   9.810   3.344 -1.0782  1.3552  1.0571
  586MOL0     H79075   5.595   9.637   3.372  1.3447  0.9032 -1.3705
  586MOL0     H79076   5.395   9.860   3.383 -1.9523  0.8508 -4.5269
  586MOL0     H79077   5.419   9.722   3.261  0.7393 -3.2426  1.7453
  586MOL0     H79078   5.371   9.579   3.472  0.3938  0.1974  1.7103
  586MOL0     H79079   5.311   9.729   3.537 -0.5296  0.6927  0.7272
  586MOL0     H79080   5.196   9.630   3.279 -1.7363  1.4920 -0.4749
  586MOL0     H79081   5.154   9.769   3.357  1.5400 -0.0588 -0.3675
  586MOL0     H79082   5.082   9.637   3.576 -2.6127  1.7995 -0.1457
  586MOL0     H79083   5.151   9.491   3.507  1.6189  1.0519  0.7848
  586MOL0     H79084   4.894   9.641   3.410 -0.0106 -0.6263  1.0068
  586MOL0     H79085   4.974   9.507   3.315  2.7176  2.9921 -1.8996
  586MOL0     H79086   4.876   9.506   3.591 -1.7661  0.4785  0.3748
  586MOL0     H79087   4.932   9.360   3.508  1.3385  1.3102  0.4255
  586MOL0     H79088   4.713   9.348   3.375 -0.8406 -0.1006  0.2495
  586MOL0     H79089   4.689   9.336   3.543  0.1662 -0.1061  0.2346
  586MOL0     H79090   5.812   9.740   3.378  1.2761  0.9583 -0.2710
  586MOL0     H79091   6.042   9.767   3.439 -0.1961 -2.0612 -0.3688
  586MOL0     H79092   6.318   9.961   3.723 -2.2414 -2.4601 -0.1327
  586MOL0     H79093   6.560  10.021   3.746 -1.3743 -0.0381 -0.2722
  586MOL0     H79094   8.153  10.162   4.048  0.0587  0.3863  1.9237
  586MOL0     H79095   8.211   9.919   4.031  0.5282  1.1036 -1.8074
  586MOL0     H79096   8.486   9.582   4.099  0.7817 -4.2596  1.3002
  586MOL0     H79097   8.455   9.342   4.080 -2.8899 -3.3489 -1.4049
  586MOL0     H79098   8.594   9.168   3.704 -0.9635 -0.3498 -1.5897
  586MOL0     H79099   8.429   9.175   3.669  2.9910  0.5919 -3.9504
  586MOL0     H79100   8.418   8.936   3.801  0.9737 -1.0345  0.3257
  586MOL0     H79101   8.585   8.989   3.840  0.7223  1.6516 -1.8167
  586MOL0     H79102   8.575   9.013   3.557  2.2145 -0.8615 -0.8354
  586MOL0     H79103   8.460   8.898   3.587 -0.8117  2.1337 -0.3165
  586MOL0     H79104   8.718   8.818   3.543  3.9804 -1.0239  1.0629
  586MOL0     H79105   8.755   8.896   3.697  0.3678 -1.2125 -0.0005
  586MOL0     H79106   8.615   8.515   3.831 -2.4866  1.4310  0.1721
  586MOL0     H79107   8.454   9.372   3.658  0.5630  1.7730 -0.8850
  586MOL0     H79108   8.439   9.589   3.547 -1.1146  1.3325 -0.1374
  586MOL0     H79109   8.391   9.730   3.637 -0.1290  0.1508  0.8585
  586MOL0     H79110   8.562   9.693   3.628 -0.9674  1.4735 -0.8061
  587MOL0     O79111   8.891   2.517   5.437  0.5146  0.2415  1.1578
  587MOL0     C79112   8.771   2.494   5.433 -0.0633 -0.3531 -1.1228
  587MOL0     O79113   8.690   2.540   5.337  0.0356  0.0472 -0.0208
  587MOL0     C79114   8.746   2.624   5.248 -1.0083 -0.1716  0.4856
  587MOL0     C79115   8.725   2.760   5.269 -0.4937 -0.3527  0.3852
  587MOL0     C79116   8.786   2.857   5.192 -0.4767 -0.5428  0.3103
  587MOL0     C79117   8.877   2.817   5.090 -0.2773  0.5819 -0.9453
  587MOL0     O79118   8.943   2.917   5.027  0.3056 -0.2016 -0.3339
  587MOL0     C79119   9.039   2.883   4.926 -0.0102 -0.3734 -0.3963
  587MOL0     C79120   9.123   3.016   4.877  0.3463 -0.0669 -0.1550
  587MOL0     C79121   9.252   2.963   4.811 -0.6031 -1.0692  0.2704
  587MOL0     C79122   9.343   3.088   4.771  0.6584  0.3130  0.1514
  587MOL0     C79123   9.480   3.064   4.695  0.9265 -0.1317 -0.9434
  587MOL0     C79124   9.580   2.967   4.760 -0.9026 -0.0025 -0.4365
  587MOL0     C79125   9.696   2.924   4.665  0.1296  0.1661  0.9590
  587MOL0     C79126   9.778   3.044   4.617  0.0497  0.6111 -0.2926
  587MOL0     N79127   9.917   3.020   4.588 -0.5926 -0.9949  0.6288
  587MOL0     C79128   9.966   2.949   4.481 -0.3342  1.0446  0.2068
  587MOL0     C79129  10.102   2.930   4.516 -0.2981  0.3340 -0.7663
  587MOL0     C79130  10.206   2.849   4.446 -0.2011  0.1336 -0.5833
  587MOL0     C79131  10.191   2.844   4.298 -0.2241  0.9146 -0.7218
  587MOL0     C79132  10.257   2.974   4.240 -0.3353  0.3094  1.0841
  587MOL0     C79133  10.208   2.985   4.102  0.2196  0.0913 -0.3600
  587MOL0     O79134  10.262   3.101   4.043 -0.7810 -0.1772  0.1849
  587MOL0     C79135  10.274   3.103   3.908 -0.1872 -0.2180  0.6279
  587MOL0     C79136  10.401   3.129   3.854  0.1542 -0.1598  0.7568
  587MOL0     C79137  10.415   3.134   3.713  0.1549  0.1825 -0.6979
  587MOL0     C79138  10.305   3.115   3.624  0.1394 -0.6704  0.2098
  587MOL0     C79139  10.327   3.112   3.475 -0.2673 -0.4814  0.7022
  587MOL0     O79140  10.448   3.151   3.421 -0.1512 -0.1793  0.0194
  587MOL0     C79141  10.480   3.104   3.300  0.6409  0.3579  0.6446
  587MOL0     C79142  10.546   2.982   3.289 -0.1533  0.4173 -0.2065
  587MOL0     C79143  10.561   2.917   3.168 -0.4283  1.1768 -0.6162
  587MOL0     C79144  10.526   2.985   3.055  1.0462  0.8562 -0.1587
  587MOL0     O79145  10.540   2.938   2.925  0.5368 -0.7856  0.2726
  587MOL0     C79146  10.507   2.808   2.890  1.1805 -0.2495  0.1940
  587MOL0     C79147  10.455   2.811   2.746  0.2607  1.0271 -1.1993
  587MOL0     C79148  10.426   2.665   2.702 -0.0094  0.2710 -0.9714
  587MOL0     C79149  10.308   2.590   2.760  0.0411  0.2284 -0.3840
  587MOL0     C79150  10.301   2.445   2.728  0.4426  0.6293 -0.2422
  587MOL0     C79151  10.290   2.408   2.584 -0.0116 -0.1135  0.0574
  587MOL0     C79152  10.190   2.486   2.499  0.3348 -0.3059  0.4017
  587MOL0     C79153  10.048   2.444   2.534  0.3220 -0.2076 -0.2480
  587MOL0    Cl79154  10.025   2.295   2.439 -0.0697  0.2180  0.6862
  587MOL0     C79155  10.477   3.118   3.068  0.1023 -0.3676 -0.0866
  587MOL0     C79156  10.439   3.171   3.186 -0.0555  0.5808  0.1288
  587MOL0     O79157  10.231   3.060   3.415  0.0523 -0.9668  0.2939
  587MOL0     C79158  10.177   3.095   3.683  0.4734 -0.2593 -0.3028
  587MOL0     C79159  10.164   3.086   3.823 -0.1268  0.3402  0.5216
  587MOL0     N79160  10.127   3.001   4.629  0.7912 -0.2497  0.1567
  587MOL0     N79161  10.019   3.055   4.672 -0.1089  0.1426 -0.1161
  587MOL0     C79162   8.890   2.680   5.061  0.2883  0.3693 -0.1543
  587MOL0     C79163   8.826   2.579   5.146  0.3260  0.3992  0.7528
  587MOL0     C79164   8.718   2.404   5.541 -0.4513 -0.1326  0.2532
  587MOL0     C79165   8.814   2.324   5.614 -0.2472 -0.2087  0.0143
  587MOL0     C79166   8.768   2.231   5.705  0.1455 -0.5854 -0.9348
  587MOL0     C79167   8.637   2.202   5.733 -0.2299 -0.3283 -0.2117
  587MOL0     O79168   8.618   2.117   5.844  0.2405 -0.4349  0.1612
  587MOL0     C79169   8.492   2.053   5.873  0.0443  0.6089  0.0040
  587MOL0     C79170   8.509   1.922   5.952  0.6504 -0.0536 -1.0158
  587MOL0     C79171   8.577   1.822   5.861 -0.1451  0.3134 -0.5940
  587MOL0     C79172   8.571   1.688   5.916 -0.2173  1.0418 -0.4622
  587MOL0     C79173   8.432   1.646   5.911 -0.5099  0.6333 -0.0604
  587MOL0     C79174   8.320   1.601   5.916 -0.5999 -0.5972 -0.1323
  587MOL0     C79175   8.540   2.273   5.662 -0.0150 -0.2679  0.2615
  587MOL0     C79176   8.575   2.377   5.569  0.4334 -0.3682 -1.3299
  587MOL0     C79177   8.464   2.464   5.512 -0.5470 -0.1747  0.6333
  587MOL0     H79178   8.651   2.788   5.344 -0.5815 -1.1367  0.5968
  587MOL0     H79179   8.759   2.960   5.211 -2.0117 -1.2801  2.6965
  587MOL0     H79180   9.102   2.795   4.946  0.5177  0.0927  0.0265
  587MOL0     H79181   8.977   2.858   4.840  0.4726 -0.0888 -0.8319
  587MOL0     H79182   9.144   3.077   4.965  0.2152 -0.6578  0.2940
  587MOL0     H79183   9.065   3.080   4.811 -2.6207 -0.8735  1.4805
  587MOL0     H79184   9.232   2.899   4.724 -0.5610  1.2902 -1.5738
  587MOL0     H79185   9.314   2.905   4.881  2.2811  0.8545 -0.5074
  587MOL0     H79186   9.280   3.156   4.713 -2.6513 -0.2708  2.7624
  587MOL0     H79187   9.384   3.136   4.860 -0.5178  0.0409  0.8570
  587MOL0     H79188   9.456   3.019   4.598 -2.6218  0.1392 -0.3206
  587MOL0     H79189   9.526   3.161   4.671  1.3683  0.1279  0.8368
  587MOL0     H79190   9.614   3.014   4.853 -1.0109 -0.5073 -0.1436
  587MOL0     H79191   9.521   2.879   4.783 -0.0172 -1.0684 -2.0355
  587MOL0     H79192   9.661   2.874   4.574 -1.1307  1.4458  0.7095
  587MOL0     H79193   9.755   2.846   4.714  0.9129 -0.6559 -1.1657
  587MOL0     H79194   9.731   3.094   4.531  0.0678 -0.6057 -1.0321
  587MOL0     H79195   9.783   3.123   4.692  4.5293  0.4678 -0.2172
  587MOL0     H79196   9.907   2.920   4.394  0.5816  0.6814 -0.3049
  587MOL0     H79197  10.305   2.881   4.478 -0.7084  0.8555  0.2861
  587MOL0     H79198  10.182   2.748   4.481 -0.6160  0.5750  0.4401
  587MOL0     H79199  10.248   2.757   4.265  0.3891 -0.8017  4.1498
  587MOL0     H79200  10.084   2.829   4.278 -0.0926  0.2925 -0.9772
  587MOL0     H79201  10.366   2.965   4.237 -0.2845  0.8779 -1.7696
  587MOL0     H79202  10.219   3.055   4.303 -0.3886  0.3406  1.0121
  587MOL0     H79203  10.100   2.997   4.094 -0.0821 -2.7934 -2.2970
  587MOL0     H79204  10.237   2.892   4.051 -1.6573 -1.2470  0.9048
  587MOL0     H79205  10.482   3.155   3.921 -0.7332  0.5341  1.5901
  587MOL0     H79206  10.508   3.154   3.662  0.0412  0.3995 -0.8233
  587MOL0     H79207  10.577   2.924   3.376  2.4768  3.2474  0.9111
  587MOL0     H79208  10.604   2.818   3.161  1.0018  1.8578 -2.0545
  587MOL0     H79209  10.590   2.742   2.915  2.2171  0.2817 -1.6547
  587MOL0     H79210  10.432   2.766   2.958  0.6844 -0.8127 -0.6906
  587MOL0     H79211  10.369   2.877   2.729  1.0011  2.6286  0.8866
  587MOL0     H79212  10.537   2.845   2.683  0.6583 -0.7382 -1.6712
  587MOL0     H79213  10.409   2.659   2.594  1.3789  0.6235 -1.2234
  587MOL0     H79214  10.516   2.611   2.732  0.0200  1.3799  1.0981
  587MOL0     H79215  10.220   2.652   2.741 -0.4059 -0.7929 -1.8375
  587MOL0     H79216  10.321   2.585   2.869  0.8037 -0.5186 -0.4989
  587MOL0     H79217  10.210   2.411   2.778  0.1170  1.0427 -0.5481
  587MOL0     H79218  10.384   2.394   2.779  1.8299 -0.8559 -3.6789
  587MOL0     H79219  10.392   2.422   2.545 -0.2223 -2.4041 -1.4953
  587MOL0     H79220  10.260   2.303   2.579 -0.7377  0.1272 -1.0291
  587MOL0     H79221  10.206   2.462   2.393 -3.0362 -2.1659  0.1666
  587MOL0     H79222  10.202   2.595   2.498  1.1005 -0.3841  0.4245
  587MOL0     H79223  10.030   2.430   2.641  0.2930 -1.1985 -0.3758
  587MOL0     H79224   9.976   2.522   2.504  2.5416  3.0979  2.2726
  587MOL0     H79225  10.460   3.182   2.982  2.9850  0.9792  0.2431
  587MOL0     H79226  10.386   3.264   3.204 -2.2773 -0.7479  0.9138
  587MOL0     H79227  10.090   3.072   3.622  1.1552 -1.3922 -0.8856
  587MOL0     H79228  10.065   3.060   3.860  0.0180 -3.6444 -1.3121
  587MOL0     H79229   8.944   2.641   4.976  0.5062 -1.2814  0.7000
  587MOL0     H79230   8.829   2.474   5.121 -0.3794  0.2363  1.3399
  587MOL0     H79231   8.919   2.319   5.590 -0.7018 -5.5786 -2.3791
  587MOL0     H79232   8.844   2.163   5.740 -0.2466  0.0797  1.3644
  587MOL0     H79233   8.434   2.036   5.782  2.6624  0.6524 -1.7996
  587MOL0     H79234   8.431   2.119   5.935  0.3606  0.8846  0.0283
  587MOL0     H79235   8.407   1.897   5.981  1.5081  1.0354  3.8418
  587MOL0     H79236   8.568   1.932   6.043  1.3417 -3.3445 -0.9766
  587MOL0     H79237   8.683   1.849   5.860  0.9979 -3.4140  1.7451
  587MOL0     H79238   8.532   1.822   5.761  2.4378  0.8834 -1.8539
  587MOL0     H79239   8.644   1.623   5.867  3.3475  3.9521  0.5107
  587MOL0     H79240   8.598   1.701   6.021 -2.3585 -1.4791  0.4983
  587MOL0     H79241   8.221   1.578   5.949  0.2120 -1.9534  1.5377
  587MOL0     H79242   8.435   2.256   5.683  0.0326  1.7667  2.5807
  587MOL0     H79243   8.361   2.453   5.547 -1.0790 -1.1152 -1.1203
  587MOL0     H79244   8.489   2.567   5.538 -0.9104  0.4634 -1.3880
  587MOL0     H79245   8.473   2.467   5.403  1.5328  1.6637  0.7843
  588MOL0     O79246   6.302   6.142   9.985 -0.1918 -0.1831 -0.6145
  588MOL0     C79247   6.197   6.072   9.993  0.0943 -0.6552  0.2380
  588MOL0     O79248   6.192   5.941  10.025  0.0968 -0.0630  0.2225
  588MOL0     C79249   6.304   5.860  10.051  0.3274 -0.3026  0.5989
  588MOL0     C79250   6.322   5.730  10.001  1.2094 -1.0029  0.3326
  588MOL0     C79251   6.435   5.658  10.025  0.5867  0.4791  0.4310
  588MOL0     C79252   6.526   5.706  10.116 -0.5443 -0.7436  0.5491
  588MOL0     O79253   6.632   5.632  10.157  0.8755 -0.0659 -0.0316
  588MOL0     C79254   6.630   5.496  10.180  0.1422  0.4878 -0.0803
  588MOL0     C79255   6.755   5.422  10.106  0.0227  0.0187  0.7561
  588MOL0     C79256   6.742   5.404   9.959  0.1947  1.1482 -0.3713
  588MOL0     C79257   6.777   5.269   9.899 -0.1796  0.2020  0.1598
  588MOL0     C79258   6.756   5.260   9.743  0.5932  0.3507 -0.0813
  588MOL0     C79259   6.869   5.324   9.663 -0.7120  0.9259 -0.1092
  588MOL0     C79260   6.835   5.325   9.506  0.0298  0.1177 -0.5353
  588MOL0     C79261   6.937   5.399   9.424  0.3583  0.6397 -0.5267
  588MOL0     N79262   7.042   5.301   9.381  0.1005 -0.8417  0.2403
  588MOL0     C79263   7.160   5.264   9.439 -0.5667 -0.8241 -1.0885
  588MOL0     C79264   7.219   5.178   9.351 -0.3954  0.2628 -0.3107
  588MOL0     C79265   7.348   5.107   9.365 -0.5541 -0.1100  0.2134
  588MOL0     C79266   7.465   5.186   9.315 -1.2921 -0.2675  0.9531
  588MOL0     C79267   7.599   5.097   9.319 -0.3153 -0.3269 -0.2702
  588MOL0     C79268   7.713   5.169   9.253  1.0827 -0.3770 -1.0759
  588MOL0     O79269   7.839   5.092   9.279 -0.2980 -0.0867 -0.8880
  588MOL0     C79270   7.952   5.170   9.278 -1.0833 -1.0542 -0.4390
  588MOL0     C79271   8.064   5.128   9.354 -0.7918  0.4537 -0.5762
  588MOL0     C79272   8.173   5.213   9.374 -0.6965  0.2090 -0.3937
  588MOL0     C79273   8.184   5.329   9.299 -0.8685  0.6201 -0.2489
  588MOL0     C79274   8.307   5.415   9.318 -0.6040 -0.5268 -0.2940
  588MOL0     O79275   8.379   5.394   9.428  1.2031 -0.5400 -0.5172
  588MOL0     C79276   8.495   5.458   9.471 -0.3454  0.6389 -0.0070
  588MOL0     C79277   8.581   5.539   9.397  0.6651 -0.1218 -0.4127
  588MOL0     C79278   8.684   5.611   9.463 -0.1320 -0.5254  0.1324
  588MOL0     C79279   8.709   5.599   9.601 -0.3986 -1.0698 -0.5060
  588MOL0     O79280   8.786   5.690   9.665  0.0991  0.3813 -0.4792
  588MOL0     C79281   8.917   5.670   9.628 -0.0719  0.6578 -0.2884
  588MOL0     C79282   9.012   5.714   9.729  0.4333 -0.0795 -0.9835
  588MOL0     C79283   9.161   5.694   9.689 -0.5376 -0.5098  0.3380
  588MOL0     C79284   9.208   5.544   9.663 -0.5907 -0.6687  0.1456
  588MOL0     C79285   9.361   5.512   9.633 -0.2942 -0.0009 -0.0443
  588MOL0     C79286   9.427   5.609   9.541  0.1490 -0.2613 -0.1480
  588MOL0     C79287   9.571   5.587   9.505  1.2483 -0.4870 -0.0377
  588MOL0     C79288   9.576   5.488   9.385  0.3801 -0.4722 -0.2517
  588MOL0    Cl79289   9.756   5.475   9.331 -0.0302 -0.3721  0.1130
  588MOL0     C79290   8.628   5.519   9.670  0.5038  0.0937 -0.2461
  588MOL0     C79291   8.535   5.445   9.608  0.3652  0.3452  1.3288
  588MOL0     O79292   8.344   5.489   9.219  0.8025  0.5703  0.8771
  588MOL0     C79293   8.081   5.372   9.219  0.1431  0.7608 -0.6048
  588MOL0     C79294   7.965   5.292   9.211  0.5379 -0.3620 -0.7571
  588MOL0     N79295   7.139   5.173   9.241  0.1324  0.4244 -0.0783
  588MOL0     N79296   7.035   5.247   9.259  0.5621  0.1667  0.2391
  588MOL0     C79297   6.519   5.836  10.161 -0.0629 -0.0812  0.4142
  588MOL0     C79298   6.406   5.911  10.134  0.1069 -0.7671 -0.0236
  588MOL0     C79299   6.057   6.138   9.961 -0.9565  0.0959  0.5812
  588MOL0     C79300   5.949   6.059   9.943 -0.4493 -0.1740 -0.7203
  588MOL0     C79301   5.825   6.101   9.914  0.6631 -0.3932  0.1750
  588MOL0     C79302   5.807   6.238   9.909 -0.1052 -1.2714 -0.0008
  588MOL0     O79303   5.682   6.300   9.900  0.4613  0.1199  0.3127
  588MOL0     C79304   5.578   6.258   9.990  0.6600 -0.4254 -0.1175
  588MOL0     C79305   5.447   6.323   9.976 -0.1574  0.7651 -0.2648
  588MOL0     C79306   5.319   6.269  10.055 -0.0576 -0.3914 -0.1581
  588MOL0     C79307   5.191   6.354  10.047 -0.0098 -0.0463  0.1715
  588MOL0     C79308   5.201   6.483  10.118 -0.1394 -0.2441  0.0180
  588MOL0     C79309   5.225   6.591  10.175  0.2382 -0.0912  0.3618
  588MOL0     C79310   5.904   6.329   9.942  0.0532 -0.9295 -0.0166
  588MOL0     C79311   6.035   6.282   9.969 -0.1819 -0.9635  0.6785
  588MOL0     C79312   6.144   6.382  10.009 -0.8800  0.6362  0.9858
  588MOL0     H79313   6.246   5.690   9.935 -1.4562  1.2146  1.8479
  588MOL0     H79314   6.451   5.562   9.976 -0.1110 -0.7550  2.4963
  588MOL0     H79315   6.654   5.480  10.286  3.3725 -1.7830 -0.9747
  588MOL0     H79316   6.530   5.459  10.153 -0.3293 -2.5449  4.6478
  588MOL0     H79317   6.771   5.323  10.151  1.0537 -0.2026 -0.0511
  588MOL0     H79318   6.843   5.485  10.123 -1.1479  1.4256  1.9182
  588MOL0     H79319   6.802   5.480   9.908  3.2696  0.9210  2.5668
  588MOL0     H79320   6.636   5.424   9.940 -1.4574 -3.0213  2.8552
  588MOL0     H79321   6.883   5.249   9.915 -0.7714 -1.9150  1.9263
  588MOL0     H79322   6.713   5.191   9.942 -1.3745 -0.3221 -2.3437
  588MOL0     H79323   6.748   5.156   9.711 -0.3132  0.7465 -1.2046
  588MOL0     H79324   6.660   5.307   9.719  2.0994  2.9429 -1.4723
  588MOL0     H79325   6.879   5.428   9.697  1.5965  1.9147 -3.2640
  588MOL0     H79326   6.964   5.275   9.685 -1.6053 -1.2703 -0.9419
  588MOL0     H79327   6.736   5.371   9.491 -0.1111  0.3028  0.7872
  588MOL0     H79328   6.830   5.225   9.464 -0.6906  0.4181 -1.2023
  588MOL0     H79329   6.886   5.436   9.334 -2.8666  0.6928  1.1753
  588MOL0     H79330   6.988   5.476   9.482  0.5721  0.4233 -0.4280
  588MOL0     H79331   7.193   5.296   9.538 -0.5379 -0.7893 -1.1096
  588MOL0     H79332   7.377   5.079   9.467 -2.0049  3.0953  1.6464
  588MOL0     H79333   7.342   5.011   9.313  1.0950 -0.3791  0.4597
  588MOL0     H79334   7.451   5.208   9.208  0.7259  0.5054  0.8117
  588MOL0     H79335   7.490   5.271   9.379  3.4263 -1.7591  1.4395
  588MOL0     H79336   7.580   4.995   9.283 -2.1490  0.0559 -0.4489
  588MOL0     H79337   7.619   5.069   9.423  1.9013  1.6014 -0.1132
  588MOL0     H79338   7.696   5.267   9.297 -0.7793 -1.1069 -0.0870
  588MOL0     H79339   7.691   5.186   9.147 -3.4589  2.9317  0.0983
  588MOL0     H79340   8.062   5.027   9.392 -0.5524 -0.4837 -2.8760
  588MOL0     H79341   8.256   5.189   9.439 -0.7017  0.3391 -0.3392
  588MOL0     H79342   8.558   5.558   9.292 -2.1598 -3.2181 -0.5183
  588MOL0     H79343   8.737   5.684   9.401  2.2770 -0.4651  2.1173
  588MOL0     H79344   8.932   5.566   9.596 -0.7844  0.2521  0.6422
  588MOL0     H79345   8.935   5.725   9.535 -2.3696 -2.1595 -2.6159
  588MOL0     H79346   8.999   5.823   9.725  0.9009 -0.0611 -2.9360
  588MOL0     H79347   8.986   5.667   9.825 -1.8052  1.6916 -0.6190
  588MOL0     H79348   9.177   5.748   9.596  0.0621 -3.9256 -1.7201
  588MOL0     H79349   9.225   5.740   9.766 -0.2234  0.7503 -0.6535
  588MOL0     H79350   9.134   5.502   9.594 -0.6552 -0.9284  0.3705
  588MOL0     H79351   9.183   5.488   9.753  0.6957 -0.4055  0.6767
  588MOL0     H79352   9.376   5.411   9.594  0.1703  0.2768 -0.6024
  588MOL0     H79353   9.427   5.514   9.721  1.0459 -1.8950 -0.9466
  588MOL0     H79354   9.362   5.608   9.453  1.7381 -1.5963 -1.3877
  588MOL0     H79355   9.444   5.704   9.592  0.0761 -1.9887  3.3563
  588MOL0     H79356   9.629   5.551   9.591  2.1320 -0.6050 -0.6645
  588MOL0     H79357   9.615   5.679   9.465  0.7677  0.7645  2.1611
  588MOL0     H79358   9.531   5.390   9.405  2.8067 -1.1755  2.5461
  588MOL0     H79359   9.512   5.523   9.304 -0.9900  1.0867  1.4365
  588MOL0     H79360   8.633   5.509   9.778 -0.9623 -0.6589 -0.2165
  588MOL0     H79361   8.475   5.382   9.673  2.1007  0.2965  2.9875
  588MOL0     H79362   8.082   5.471   9.176 -1.5838  1.1965  0.2556
  588MOL0     H79363   7.886   5.344   9.156  1.1797  2.1845  0.5739
  588MOL0     H79364   6.595   5.863  10.234 -1.0851  0.3685  1.3487
  588MOL0     H79365   6.411   6.015  10.165 -1.6532 -0.3207 -1.0706
  588MOL0     H79366   5.969   5.955   9.965  1.1247  0.5481  1.6022
  588MOL0     H79367   5.740   6.033   9.914  0.2147  0.1596  0.2929
  588MOL0     H79368   5.609   6.268  10.095 -0.7379 -3.7734  0.7453
  588MOL0     H79369   5.556   6.152   9.975 -0.5635  0.1459 -3.0825
  588MOL0     H79370   5.420   6.317   9.870  1.8742  2.3749 -0.9469
  588MOL0     H79371   5.453   6.431   9.995 -0.4488  0.7396 -0.0067
  588MOL0     H79372   5.347   6.253  10.159  2.1826  2.4434 -0.1746
  588MOL0     H79373   5.298   6.176  10.002 -1.1182 -0.4463  0.3515
  588MOL0     H79374   5.160   6.361   9.942 -1.9280 -0.8712  0.6399
  588MOL0     H79375   5.115   6.302  10.106  1.6579 -1.5639  1.0857
  588MOL0     H79376   5.238   6.675  10.240  3.1181 -1.2687  1.4646
  588MOL0     H79377   5.873   6.433   9.953  0.2019 -1.0883  2.2215
  588MOL0     H79378   6.104   6.483  10.022  0.7853  1.5990 -0.7399
  588MOL0     H79379   6.207   6.358  10.095  1.2872  2.9813  0.1797
  588MOL0     H79380   6.211   6.397   9.923 -0.4972 -0.0222  1.1608
  589MOL0     O79381  10.312   2.503   4.218  0.8903  0.5520 -0.0783
  589MOL0     C79382  10.351   2.543   4.111 -0.3564  0.8662  1.1450
  589MOL0     O79383  10.480   2.568   4.082  1.0391  0.5082  0.5011
  589MOL0     C79384  10.577   2.523   4.173 -0.7241  0.7164  0.2666
  589MOL0     C79385  10.622   2.391   4.176  0.6234 -0.1481  0.1233
  589MOL0     C79386  10.713   2.340   4.270 -0.4031  0.5800  0.3353
  589MOL0     C79387  10.780   2.433   4.357  0.6329  0.0027  0.1110
  589MOL0     O79388  10.882   2.409   4.451  0.3631  0.0194  0.2074
  589MOL0     C79389  10.920   2.268   4.457 -0.0326  0.5582  0.4369
  589MOL0     C79390  11.030   2.229   4.553 -0.1387  0.8573  0.3431
  589MOL0     C79391  11.002   2.294   4.689  0.1175  0.4137 -0.8345
  589MOL0     C79392  11.108   2.250   4.792 -0.3119 -0.1790 -0.0356
  589MOL0     C79393  11.240   2.324   4.780 -1.0169 -0.2315 -1.3038
  589MOL0     C79394  11.351   2.291   4.888  0.5158 -0.3392  0.4535
  589MOL0     C79395  11.472   2.383   4.868 -0.5052 -0.5476  0.1026
  589MOL0     C79396  11.596   2.315   4.918 -0.1520  0.4951 -0.1653
  589MOL0     N79397  11.614   2.336   5.062 -0.2102  0.0723 -0.4106
  589MOL0     C79398  11.626   2.464   5.123  0.1227  0.3030  0.3314
  589MOL0     C79399  11.615   2.446   5.254  0.2150 -0.3039  0.2402
  589MOL0     C79400  11.624   2.536   5.363 -0.7491  0.1073  0.0343
  589MOL0     C79401  11.765   2.516   5.430  0.1181  0.4213 -0.1282
  589MOL0     C79402  11.888   2.538   5.334  0.1513 -0.9729 -0.1857
  589MOL0     C79403  12.009   2.573   5.420  0.0986  0.2455  0.2904
  589MOL0     O79404  12.113   2.625   5.334  0.4328  0.1456  0.0625
  589MOL0     C79405  12.239   2.628   5.369 -1.0346  0.5259 -0.6068
  589MOL0     C79406  12.323   2.554   5.284 -0.2026 -0.1213 -0.3731
  589MOL0     C79407  12.451   2.508   5.315 -0.2107  0.4660  0.9448
  589MOL0     C79408  12.496   2.523   5.447  0.7045 -1.7723  0.5222
  589MOL0     C79409  12.614   2.460   5.494 -0.2931  1.3991  0.4701
  589MOL0     O79410  12.636   2.447   5.628  0.2629  0.0797 -0.3159
  589MOL0     C79411  12.759   2.440   5.689 -1.0386 -0.3611  0.3872
  589MOL0     C79412  12.772   2.392   5.823 -0.1423  0.1665  0.4354
  589MOL0     C79413  12.902   2.398   5.880  0.8785  0.6732 -0.1689
  589MOL0     C79414  13.014   2.437   5.816 -0.1425  0.7053 -0.3885
  589MOL0     O79415  13.149   2.425   5.858  0.6839 -0.3109 -0.2294
  589MOL0     C79416  13.171   2.355   5.983  0.0043 -0.3818  0.0590
  589MOL0     C79417  13.315   2.381   6.017  0.0752  0.4193 -1.1941
  589MOL0     C79418  13.364   2.354   6.164  0.1997  0.2031 -0.1671
  589MOL0     C79419  13.520   2.346   6.176  1.4655 -0.0940 -0.7744
  589MOL0     C79420  13.571   2.334   6.322 -0.5200  0.3738  0.6342
  589MOL0     C79421  13.725   2.310   6.343  1.3458 -0.1761  0.2036
  589MOL0     C79422  13.769   2.354   6.484  0.1822 -0.3580  0.0157
  589MOL0     C79423  13.694   2.280   6.599 -0.4103  0.3723 -0.3778
  589MOL0    Cl79424  13.700   2.100   6.589  0.2209 -0.5066  0.5919
  589MOL0     C79425  12.994   2.483   5.685  0.4242 -0.2231 -0.1710
  589MOL0     C79426  12.877   2.490   5.614  0.5832  0.3498  0.1157
  589MOL0     O79427  12.693   2.437   5.400 -0.2224 -0.7497 -0.0479
  589MOL0     C79428  12.421   2.609   5.532  0.2498 -0.0481  0.9493
  589MOL0     C79429  12.290   2.662   5.500 -0.3895  0.2364 -0.1504
  589MOL0     N79430  11.590   2.317   5.271  0.1174 -0.2248 -0.4237
  589MOL0     N79431  11.587   2.253   5.161 -0.0306 -1.1510  0.3944
  589MOL0     C79432  10.743   2.560   4.353 -0.4348 -0.6580 -0.5677
  589MOL0     C79433  10.642   2.610   4.264 -0.2781 -0.5403 -0.3546
  589MOL0     C79434  10.254   2.568   4.002  0.3299  0.5028 -0.1109
  589MOL0     C79435  10.297   2.607   3.873  0.1494 -1.4633  0.0445
  589MOL0     C79436  10.212   2.638   3.768 -0.0312 -0.0743 -0.2479
  589MOL0     C79437  10.070   2.622   3.792  0.3365  0.7905 -0.6325
  589MOL0     O79438   9.975   2.632   3.689 -0.2626  0.3488  0.1437
  589MOL0     C79439  10.012   2.641   3.551 -0.1784  0.3384 -0.5158
  589MOL0     C79440   9.902   2.668   3.458 -0.6433 -0.5326 -0.1165
  589MOL0     C79441   9.783   2.582   3.481 -0.5941 -0.6717  0.2212
  589MOL0     C79442   9.708   2.572   3.345  0.1349 -0.1306 -0.5392
  589MOL0     C79443   9.582   2.498   3.359  0.3350 -0.1956  0.4033
  589MOL0     C79444   9.473   2.438   3.366  0.0239 -0.4911 -0.2208
  589MOL0     C79445  10.025   2.594   3.928  0.0368  0.0421 -0.3367
  589MOL0     C79446  10.113   2.566   4.030 -0.5794 -0.8765  0.6675
  589MOL0     C79447  10.046   2.519   4.161  0.5366  0.5091  0.8712
  589MOL0     H79448  10.561   2.314   4.131  1.8300 -1.2558  0.3222
  589MOL0     H79449  10.738   2.234   4.265 -0.3299  0.6189 -0.1673
  589MOL0     H79450  10.829   2.214   4.485 -0.1494  0.9871  0.8907
  589MOL0     H79451  10.949   2.229   4.359  0.1376  1.2830  0.1909
  589MOL0     H79452  11.119   2.278   4.513 -0.1521  0.9295  0.4009
  589MOL0     H79453  11.045   2.121   4.556 -3.5800  0.1270 -2.3290
  589MOL0     H79454  10.903   2.265   4.723  0.3459  1.1293  0.4922
  589MOL0     H79455  11.006   2.401   4.663 -2.8958  1.0664  0.8924
  589MOL0     H79456  11.065   2.267   4.891  3.5024  1.5128  1.5069
  589MOL0     H79457  11.125   2.143   4.786  2.4568 -0.0780  3.1144
  589MOL0     H79458  11.279   2.293   4.683 -0.9198 -0.6267 -1.1415
  589MOL0     H79459  11.226   2.433   4.777  2.9406  0.4568 -0.4141
  589MOL0     H79460  11.316   2.304   4.991  0.0804 -0.8073  0.3667
  589MOL0     H79461  11.371   2.184   4.882  1.3441 -0.2087  0.7699
  589MOL0     H79462  11.451   2.482   4.908  0.2808  0.0937 -1.0068
  589MOL0     H79463  11.480   2.394   4.760 -0.8872 -1.9668 -0.0968
  589MOL0     H79464  11.600   2.206   4.904 -3.3853  0.2013  0.4330
  589MOL0     H79465  11.677   2.358   4.859 -1.2828  1.0052 -1.3916
  589MOL0     H79466  11.635   2.561   5.074  0.1855  0.2133  0.1634
  589MOL0     H79467  11.605   2.640   5.332 -2.6699  0.1965  1.3336
  589MOL0     H79468  11.548   2.504   5.435  0.4087 -1.8036  0.4768
  589MOL0     H79469  11.785   2.584   5.513  0.7465 -0.2090  0.2486
  589MOL0     H79470  11.758   2.417   5.477  2.9487 -0.0887 -0.5598
  589MOL0     H79471  11.870   2.618   5.261 -0.0166  1.7141  2.5736
  589MOL0     H79472  11.899   2.446   5.276  2.0183  0.6447 -2.5963
  589MOL0     H79473  12.044   2.483   5.471 -1.8508 -0.6234  0.1660
  589MOL0     H79474  11.984   2.651   5.492 -0.7046 -0.6121  0.9590
  589MOL0     H79475  12.279   2.528   5.188 -4.2735  4.1678 -0.0968
  589MOL0     H79476  12.503   2.446   5.243 -0.9100  0.5149  0.3784
  589MOL0     H79477  12.681   2.366   5.875 -2.0191 -1.0075 -3.0905
  589MOL0     H79478  12.907   2.363   5.983  0.2441  0.1851 -0.2990
  589MOL0     H79479  13.105   2.408   6.053 -0.3037  1.2428 -1.4008
  589MOL0     H79480  13.141   2.250   5.984 -1.8951  0.1184  0.9353
  589MOL0     H79481  13.366   2.304   5.960  0.3941  1.3639 -2.2105
  589MOL0     H79482  13.364   2.470   5.978  0.6505  0.7882  0.3154
  589MOL0     H79483  13.340   2.440   6.226  2.0862  1.3258 -0.9142
  589MOL0     H79484  13.324   2.260   6.203  0.6768  0.4813  1.0401
  589MOL0     H79485  13.566   2.433   6.129  0.8367 -0.5119 -2.1873
  589MOL0     H79486  13.556   2.255   6.128 -1.7273 -2.6332  1.1914
  589MOL0     H79487  13.523   2.244   6.363 -0.7657  0.1763 -0.0787
  589MOL0     H79488  13.524   2.414   6.381  0.2290  1.9219 -0.8186
  589MOL0     H79489  13.758   2.211   6.313  0.1652  0.2021 -2.6091
  589MOL0     H79490  13.763   2.378   6.266  1.0330 -1.0826 -0.7640
  589MOL0     H79491  13.745   2.460   6.488  0.9180 -0.1865 -0.0910
  589MOL0     H79492  13.878   2.347   6.489  0.2317 -1.0317 -1.4470
  589MOL0     H79493  13.754   2.298   6.688  0.5472 -1.8092 -0.5158
  589MOL0     H79494  13.593   2.321   6.601 -0.1385  1.4416 -3.4325
  589MOL0     H79495  13.084   2.520   5.637  0.0825 -0.1548 -0.7620
  589MOL0     H79496  12.862   2.548   5.523 -1.9672  0.3175  0.4425
  589MOL0     H79497  12.479   2.648   5.615  1.0234  0.2552  0.2724
  589MOL0     H79498  12.235   2.722   5.572 -0.8618  2.2306 -2.0753
  589MOL0     H79499  10.780   2.636   4.421 -0.6454  0.2627 -1.4614
  589MOL0     H79500  10.627   2.718   4.265  1.7867 -0.1950 -1.3329
  589MOL0     H79501  10.401   2.624   3.844 -0.2745  0.1023 -0.6785
  589MOL0     H79502  10.260   2.685   3.682  0.0801  2.2333  0.9883
  589MOL0     H79503  10.059   2.543   3.534 -1.0867 -0.1280 -0.3842
  589MOL0     H79504  10.083   2.724   3.540  0.7402 -0.1577  1.1832
  589MOL0     H79505   9.937   2.663   3.355 -1.6026 -0.1201 -0.4748
  589MOL0     H79506   9.875   2.769   3.491 -3.3991 -0.7141 -1.5599
  589MOL0     H79507   9.710   2.629   3.547 -1.8293 -4.5814  1.9074
  589MOL0     H79508   9.809   2.483   3.520  0.1250 -0.5466  0.0901
  589MOL0     H79509   9.694   2.672   3.302  2.2794 -0.1233 -1.3460
  589MOL0     H79510   9.757   2.524   3.260 -1.2941 -0.1088 -1.4163
  589MOL0     H79511   9.377   2.391   3.370  0.6609 -2.0053 -1.5603
  589MOL0     H79512   9.916   2.593   3.926  0.0232  1.3034 -0.6634
  589MOL0     H79513  10.077   2.421   4.197  1.5524  0.3849 -0.3171
  589MOL0     H79514  10.075   2.587   4.242 -2.5498  1.7254  1.1175
  589MOL0     H79515   9.937   2.529   4.165  0.0599 -1.5249 -2.8263
  590MOL0     O79516   1.125   4.366   5.620  0.1784 -0.2432 -0.0851
  590MOL0     C79517   1.031   4.293   5.639  0.8049  0.4404  0.5975
  590MOL0     O79518   1.013   4.208   5.747  0.5680 -0.6438  0.3027
  590MOL0     C79519   1.120   4.185   5.828  0.0080 -0.7009 -0.4749
  590MOL0     C79520   1.250   4.164   5.777 -0.0556 -0.0617  0.7343
  590MOL0     C79521   1.362   4.154   5.857 -0.0352  0.1070  0.3693
  590MOL0     C79522   1.354   4.180   5.993  0.7195  0.2677  0.1166
  590MOL0     O79523   1.474   4.172   6.066  0.3033 -0.0176 -0.1498
  590MOL0     C79524   1.459   4.098   6.189  0.4281  0.0802  0.9795
  590MOL0     C79525   1.584   4.017   6.208 -0.5685 -0.8660 -1.1170
  590MOL0     C79526   1.589   3.954   6.353 -0.8305  0.0205 -0.0249
  590MOL0     C79527   1.732   3.922   6.383  0.1328 -0.3576 -0.1787
  590MOL0     C79528   1.738   3.826   6.495  0.3266 -0.4245 -0.1169
  590MOL0     C79529   1.866   3.755   6.514 -0.2839 -0.3672  0.4074
  590MOL0     C79530   1.885   3.694   6.653  0.4392  0.5631  0.3875
  590MOL0     C79531   2.018   3.629   6.647  0.5098  0.0056  0.8123
  590MOL0     N79532   2.061   3.576   6.782  0.2821 -0.1277  0.0528
  590MOL0     C79533   2.077   3.652   6.897  0.6068 -0.7393 -0.2461
  590MOL0     C79534   2.118   3.561   6.987  0.3060 -1.3425  0.1635
  590MOL0     C79535   2.134   3.585   7.140  0.3086  0.0267 -0.2363
  590MOL0     C79536   2.270   3.531   7.189 -0.0462  0.2022  0.6885
  590MOL0     C79537   2.326   3.638   7.292 -0.9315 -0.8769 -0.0589
  590MOL0     C79538   2.456   3.585   7.345 -0.9971  0.5937  0.1895
  590MOL0     O79539   2.544   3.566   7.229  0.1580  0.6802 -0.0393
  590MOL0     C79540   2.681   3.543   7.255 -0.6125  0.4592 -0.2975
  590MOL0     C79541   2.762   3.521   7.144 -0.3857  0.0699  0.0396
  590MOL0     C79542   2.900   3.506   7.161  0.7452 -0.2334  0.4887
  590MOL0     C79543   2.956   3.484   7.292 -0.2072 -0.3413 -0.5463
  590MOL0     C79544   3.095   3.439   7.298  0.1227  0.5166 -0.4603
  590MOL0     O79545   3.135   3.434   7.434 -0.3942 -0.1880  0.0998
  590MOL0     C79546   3.264   3.384   7.461  0.8032  0.4626 -0.8329
  590MOL0     C79547   3.376   3.396   7.374  0.3145  0.7625  0.5750
  590MOL0     C79548   3.501   3.338   7.416  0.8356  0.2688 -0.1988
  590MOL0     C79549   3.511   3.287   7.552  0.1295  0.6563  0.7162
  590MOL0     O79550   3.626   3.260   7.608  0.2401  0.1033 -0.3611
  590MOL0     C79551   3.669   3.126   7.585  0.1392 -0.1429  0.0493
  590MOL0     C79552   3.813   3.120   7.606 -0.9030  0.0340  0.4804
  590MOL0     C79553   3.851   2.980   7.657  0.1408 -0.3513  0.5658
  590MOL0     C79554   3.868   2.873   7.545  0.9747 -0.1549 -0.8307
  590MOL0     C79555   3.934   2.746   7.603  0.3641 -0.4802  0.8168
  590MOL0     C79556   4.085   2.772   7.645 -0.0888 -0.4196 -0.4755
  590MOL0     C79557   4.136   2.634   7.696 -1.0565  0.3183 -0.0432
  590MOL0     C79558   4.283   2.654   7.704 -1.2859 -1.0325 -0.0699
  590MOL0    Cl79559   4.369   2.499   7.752  0.5399  0.3033 -0.0412
  590MOL0     C79560   3.404   3.299   7.634 -1.0140 -0.0871 -0.0552
  590MOL0     C79561   3.280   3.340   7.586 -0.7197  0.5407 -2.0795
  590MOL0     O79562   3.163   3.410   7.203 -0.0325 -0.0017  0.5684
  590MOL0     C79563   2.876   3.497   7.402  0.4212  0.1248  0.5639
  590MOL0     C79564   2.735   3.523   7.388 -0.4306 -0.3533  0.2957
  590MOL0     N79565   2.134   3.436   6.918 -0.7784 -0.7794 -0.6470
  590MOL0     N79566   2.101   3.447   6.799  1.0676 -0.4496 -0.1870
  590MOL0     C79567   1.226   4.207   6.057 -0.1991 -0.9842  0.7071
  590MOL0     C79568   1.109   4.211   5.967  0.0256 -0.3273 -0.0799
  590MOL0     C79569   0.919   4.302   5.538  0.0699  0.6244 -0.2019
  590MOL0     C79570   0.810   4.223   5.541  0.2297 -1.2957 -0.9976
  590MOL0     C79571   0.718   4.216   5.437  0.4831  0.6734  1.2546
  590MOL0     C79572   0.722   4.310   5.335  0.1091 -0.9755 -0.2985
  590MOL0     O79573   0.608   4.321   5.256  0.4224 -0.4787  1.0784
  590MOL0     C79574   0.605   4.405   5.143 -0.3369 -0.1023 -0.0797
  590MOL0     C79575   0.459   4.411   5.086 -0.8184  0.3329 -0.3259
  590MOL0     C79576   0.405   4.277   5.047 -0.2017  0.8858  0.0471
  590MOL0     C79577   0.488   4.208   4.935  0.5377 -0.0439  0.2559
  590MOL0     C79578   0.411   4.131   4.835 -0.2998  0.6761 -0.3546
  590MOL0     C79579   0.359   4.062   4.747 -0.2477  0.0935  0.0862
  590MOL0     C79580   0.831   4.401   5.330 -0.3757 -0.4468  0.2606
  590MOL0     C79581   0.935   4.387   5.427  0.2456 -0.6903  0.4105
  590MOL0     C79582   1.057   4.479   5.384 -0.3793 -1.0104 -0.3804
  590MOL0     H79583   1.252   4.153   5.669  0.2542 -2.5693  0.9283
  590MOL0     H79584   1.460   4.124   5.821 -0.8066 -2.6432  0.3263
  590MOL0     H79585   1.428   4.160   6.274 -0.5400 -0.6669  1.1918
  590MOL0     H79586   1.381   4.026   6.164 -0.5307  1.6728 -0.9541
  590MOL0     H79587   1.674   4.078   6.195  1.1426 -2.7471  0.9860
  590MOL0     H79588   1.585   3.955   6.118  0.3347 -0.6178 -1.2879
  590MOL0     H79589   1.526   3.865   6.358 -0.1281 -0.6836 -2.2578
  590MOL0     H79590   1.560   4.023   6.432  1.4971  1.5820 -0.4417
  590MOL0     H79591   1.777   3.873   6.296  1.5606  1.3089 -0.4331
  590MOL0     H79592   1.791   4.013   6.394  1.9625 -1.2116 -2.2463
  590MOL0     H79593   1.709   3.887   6.582  4.5841  0.7837  0.7231
  590MOL0     H79594   1.669   3.743   6.478 -0.8226 -0.5242  3.9077
  590MOL0     H79595   1.874   3.678   6.437  0.0542 -0.5126  0.5839
  590MOL0     H79596   1.947   3.829   6.510  1.2775 -2.0264  0.0460
  590MOL0     H79597   1.809   3.625   6.689  0.8868  1.1744  2.6494
  590MOL0     H79598   1.882   3.770   6.731 -2.6749 -1.4916  2.4529
  590MOL0     H79599   2.008   3.545   6.577 -1.5724 -0.4555  1.5740
  590MOL0     H79600   2.099   3.695   6.616  2.7959 -1.1588  3.8262
  590MOL0     H79601   2.045   3.755   6.910 -0.3869 -1.3653  4.0607
  590MOL0     H79602   2.129   3.693   7.161 -0.7681 -0.5897  3.2041
  590MOL0     H79603   2.051   3.541   7.195 -2.1375  3.1442 -1.1183
  590MOL0     H79604   2.265   3.431   7.233  3.1996  0.0686  1.0166
  590MOL0     H79605   2.340   3.526   7.105  1.5412 -1.8174  2.0409
  590MOL0     H79606   2.251   3.659   7.370  1.3820 -0.4672  2.1774
  590MOL0     H79607   2.350   3.731   7.240 -1.5954 -0.5738  0.1564
  590MOL0     H79608   2.446   3.492   7.402 -3.0746  0.2523 -0.6325
  590MOL0     H79609   2.512   3.645   7.417 -2.2731  2.9500 -0.6999
  590MOL0     H79610   2.735   3.531   7.039 -2.7272  2.3227  0.7451
  590MOL0     H79611   2.960   3.495   7.071  2.1930 -0.7092  1.4680
  590MOL0     H79612   3.372   3.447   7.278 -0.5447  0.8924  0.6744
  590MOL0     H79613   3.591   3.341   7.355 -0.6661  1.1174 -2.5160
  590MOL0     H79614   3.619   3.061   7.656  0.5782  0.5520  1.0100
  590MOL0     H79615   3.661   3.104   7.478 -1.2865 -3.7310  0.7399
  590MOL0     H79616   3.871   3.152   7.519 -1.9959 -1.9232 -1.0392
  590MOL0     H79617   3.846   3.184   7.688  0.5282 -0.5920  0.4384
  590MOL0     H79618   3.948   3.007   7.699  1.2099  0.3523 -2.1399
  590MOL0     H79619   3.785   2.937   7.733  3.1491 -2.2312  2.3216
  590MOL0     H79620   3.928   2.905   7.459 -0.9342 -2.8341 -3.3826
  590MOL0     H79621   3.767   2.847   7.511  0.3055  2.4443 -1.0664
  590MOL0     H79622   3.941   2.666   7.528  4.0970  0.3001  0.1285
  590MOL0     H79623   3.874   2.720   7.691  0.9890  0.7621  1.6345
  590MOL0     H79624   4.142   2.808   7.559 -0.8539  0.5950 -0.5797
  590MOL0     H79625   4.078   2.855   7.716  0.2033  0.2289 -1.1906
  590MOL0     H79626   4.106   2.560   7.621 -2.1534  2.4372 -1.8050
  590MOL0     H79627   4.087   2.611   7.791  0.1671 -0.3587  0.4447
  590MOL0     H79628   4.332   2.688   7.611  0.9160 -1.3767  0.8888
  590MOL0     H79629   4.303   2.728   7.782  0.8407  1.6559 -2.8467
  590MOL0     H79630   3.414   3.272   7.739 -2.0497 -3.5453 -0.6963
  590MOL0     H79631   3.199   3.336   7.658  0.7915  1.4665 -0.2285
  590MOL0     H79632   2.902   3.477   7.505 -0.9542 -0.3052  0.8477
  590MOL0     H79633   2.682   3.508   7.481 -1.9526 -2.4543 -0.8198
  590MOL0     H79634   1.206   4.215   6.163 -2.2034  1.6911  0.2408
  590MOL0     H79635   1.007   4.221   6.002  0.8997 -0.4960  2.7508
  590MOL0     H79636   0.783   4.165   5.628 -0.2246  1.5859  0.9413
  590MOL0     H79637   0.632   4.151   5.447  0.0353  0.1828 -3.4071
  590MOL0     H79638   0.666   4.372   5.058 -1.9642  1.0655 -1.7899
  590MOL0     H79639   0.640   4.507   5.162  2.9713 -0.7270 -2.0065
  590MOL0     H79640   0.469   4.474   4.997  0.4044  0.0666 -0.3995
  590MOL0     H79641   0.392   4.463   5.154 -1.0875 -3.2480  2.4300
  590MOL0     H79642   0.304   4.282   5.004 -0.7745 -1.8813  0.8516
  590MOL0     H79643   0.386   4.209   5.131 -3.8903 -0.3622 -1.5449
  590MOL0     H79644   0.539   4.291   4.885 -0.6747  0.8855  0.5150
  590MOL0     H79645   0.566   4.154   4.989  3.3727  2.0070 -1.5178
  590MOL0     H79646   0.313   3.998   4.675  0.0729  1.2285 -1.1823
  590MOL0     H79647   0.839   4.482   5.257  1.4116  1.2126  2.1646
  590MOL0     H79648   1.039   4.551   5.304 -0.4940 -1.0864 -0.4234
  590MOL0     H79649   1.066   4.553   5.465 -0.7056  0.2555 -1.4581
  590MOL0     H79650   1.148   4.428   5.355  1.4059  1.3523  0.6981
  591MOL0     O79651   9.645   9.315   4.114 -0.9037 -0.2546  0.6122
  591MOL0     C79652   9.570   9.237   4.057 -0.0979 -0.1007 -0.0542
  591MOL0     O79653   9.581   9.100   4.071 -0.4495  0.2084  0.3238
  591MOL0     C79654   9.696   9.057   4.134  0.3370  0.5824  0.5215
  591MOL0     C79655   9.799   9.005   4.060  0.2430  0.3188  0.3415
  591MOL0     C79656   9.925   8.979   4.120  0.1207  0.6337  0.3748
  591MOL0     C79657   9.931   8.991   4.266 -0.3385 -0.2579  0.7411
  591MOL0     O79658  10.044   8.932   4.324  0.4850 -0.2844 -0.1062
  591MOL0     C79659  10.075   8.963   4.461  0.2090 -0.0749 -0.1117
  591MOL0     C79660  10.201   8.894   4.501 -0.0242  0.1111  0.6905
  591MOL0     C79661  10.231   8.909   4.647  0.4305  1.3532  0.1441
  591MOL0     C79662  10.375   8.884   4.679 -0.1412  0.8685  0.0115
  591MOL0     C79663  10.407   8.943   4.815 -0.2629  0.3029 -0.4040
  591MOL0     C79664  10.556   8.983   4.826 -0.7489  0.1161 -0.4916
  591MOL0     C79665  10.647   8.857   4.821 -0.4361  0.0850 -0.2117
  591MOL0     C79666  10.794   8.889   4.839 -0.5131 -0.3474  0.3743
  591MOL0     N79667  10.842   8.958   4.949  0.0936 -0.6224 -0.4816
  591MOL0     C79668  10.890   8.890   5.055 -0.1363 -0.4785 -1.1273
  591MOL0     C79669  10.916   8.995   5.137  0.2853 -0.3451  0.4890
  591MOL0     C79670  10.983   8.972   5.269  0.0344  0.3757 -0.5703
  591MOL0     C79671  11.144   8.954   5.267  0.2841  0.2614  0.3676
  591MOL0     C79672  11.216   9.083   5.225  1.1507 -0.9755  0.0384
  591MOL0     C79673  11.368   9.067   5.216 -0.2984  1.2187 -0.3810
  591MOL0     O79674  11.418   9.020   5.346 -0.3505  0.0596  0.4696
  591MOL0     C79675  11.547   9.049   5.387  0.0322  0.9410 -0.7112
  591MOL0     C79676  11.653   9.088   5.304  1.9288  0.0728 -0.5418
  591MOL0     C79677  11.772   9.126   5.355 -0.1775 -0.9334 -0.2843
  591MOL0     C79678  11.792   9.128   5.497  0.4963 -0.8104 -0.7406
  591MOL0     C79679  11.921   9.178   5.562  0.5702 -0.2414 -0.3214
  591MOL0     O79680  11.944   9.169   5.697 -0.2024 -0.3963  0.1865
  591MOL0     C79681  12.052   9.228   5.744 -0.0925  0.1350  0.1966
  591MOL0     C79682  12.037   9.283   5.868  1.3018 -0.0537 -1.0786
  591MOL0     C79683  12.138   9.345   5.933  0.9219  0.8063  0.4336
  591MOL0     C79684  12.261   9.353   5.877  0.2425 -0.0649  0.1993
  591MOL0     O79685  12.369   9.392   5.962 -0.2367 -0.0163 -0.4213
  591MOL0     C79686  12.344   9.516   6.036 -0.0121 -0.2581 -0.0202
  591MOL0     C79687  12.483   9.587   6.042  0.3487  0.1471  0.5347
  591MOL0     C79688  12.494   9.692   6.155  0.7024  0.6781 -0.6850
  591MOL0     C79689  12.641   9.725   6.169  0.9223  0.3316  0.0572
  591MOL0     C79690  12.678   9.787   6.296 -0.1219 -0.0669 -1.1130
  591MOL0     C79691  12.808   9.858   6.271  0.1117 -0.2874 -0.2217
  591MOL0     C79692  12.834   9.979   6.367  0.7768  0.3880 -0.1158
  591MOL0     C79693  12.860   9.947   6.510 -0.2193  0.1479 -1.1813
  591MOL0    Cl79694  12.858  10.091   6.612 -0.2296 -0.1013 -0.1592
  591MOL0     C79695  12.283   9.300   5.754  0.0477  0.2752  0.5659
  591MOL0     C79696  12.183   9.233   5.692 -0.7070  0.1489  0.3775
  591MOL0     O79697  12.003   9.211   5.478  0.0854  0.2992  0.2561
  591MOL0     C79698  11.675   9.107   5.579 -0.0468 -1.2049 -0.1999
  591MOL0     C79699  11.554   9.055   5.524  0.1054 -0.2479  0.0463
  591MOL0     N79700  10.883   9.114   5.075 -0.1046  0.4088 -0.0476
  591MOL0     N79701  10.821   9.092   4.973 -0.5160  0.4233  0.4434
  591MOL0     C79702   9.828   9.040   4.344 -0.6006 -0.1770 -0.2561
  591MOL0     C79703   9.714   9.077   4.277 -0.0000 -0.9963  0.8474
  591MOL0     C79704   9.441   9.286   3.997  0.0896 -0.3139 -0.4908
  591MOL0     C79705   9.363   9.199   3.916 -0.2547 -0.2379  0.0897
  591MOL0     C79706   9.230   9.228   3.882 -0.0256  0.4291  0.5226
  591MOL0     C79707   9.172   9.345   3.919 -0.0722 -0.2206 -0.1098
  591MOL0     O79708   9.044   9.395   3.883 -0.0035  0.0236  0.5804
  591MOL0     C79709   8.956   9.306   3.813  0.2535  0.6972  0.8702
  591MOL0     C79710   8.991   9.287   3.663  0.0348  1.0347  0.0350
  591MOL0     C79711   8.898   9.179   3.597  0.3266  0.2824 -0.4042
  591MOL0     C79712   8.955   9.142   3.462  0.5464  0.8579 -0.7494
  591MOL0     C79713   8.989   9.250   3.371 -0.4874 -0.3068  0.3108
  591MOL0     C79714   9.025   9.329   3.288 -0.2740 -1.6343  0.2078
  591MOL0     C79715   9.250   9.436   3.989 -0.0136 -0.7635  0.0051
  591MOL0     C79716   9.385   9.418   4.018  0.2242 -0.6502 -0.2202
  591MOL0     C79717   9.451   9.533   4.107  0.2591  0.1164  0.4215
  591MOL0     H79718   9.783   8.989   3.954 -0.0555  0.9479  0.2824
  591MOL0     H79719  10.010   8.943   4.063  0.5344  0.3457  1.1579
  591MOL0     H79720  10.084   9.071   4.473  0.2427  0.5469 -4.1708
  591MOL0     H79721   9.987   8.939   4.521  2.0980  0.6226  3.1315
  591MOL0     H79722  10.288   8.937   4.450  1.1441  0.4527  2.8640
  591MOL0     H79723  10.199   8.789   4.470  0.4567 -0.2849  1.9485
  591MOL0     H79724  10.168   8.839   4.703  0.7448  1.8535  1.1431
  591MOL0     H79725  10.203   9.014   4.661 -0.0945  1.7437 -3.0358
  591MOL0     H79726  10.406   8.779   4.673 -1.5632  0.2728  1.8361
  591MOL0     H79727  10.440   8.931   4.605  0.6197 -1.1164 -0.6577
  591MOL0     H79728  10.357   9.036   4.840  3.0161  1.9304  0.7262
  591MOL0     H79729  10.389   8.868   4.892  1.2811  1.8620  1.5666
  591MOL0     H79730  10.583   9.063   4.757 -0.5436  0.3074 -0.1914
  591MOL0     H79731  10.578   9.021   4.927 -0.3870  0.9112 -0.8566
  591MOL0     H79732  10.636   8.804   4.726  2.4457 -0.0325 -0.5757
  591MOL0     H79733  10.620   8.789   4.902  0.0888  1.3124  1.0367
  591MOL0     H79734  10.848   8.794   4.832  1.8415  0.9414  0.0170
  591MOL0     H79735  10.834   8.940   4.751  1.2294 -0.2149  1.2124
  591MOL0     H79736  10.902   8.783   5.067 -1.5621 -0.4429  1.5673
  591MOL0     H79737  10.955   9.057   5.331 -2.0269 -0.8161  0.2121
  591MOL0     H79738  10.943   8.884   5.320  0.9597 -1.1267 -2.3387
  591MOL0     H79739  11.183   8.930   5.367  2.1351 -3.2251 -1.0262
  591MOL0     H79740  11.177   8.870   5.205 -1.7364 -0.0271 -0.3980
  591MOL0     H79741  11.182   9.164   5.290  0.0042 -2.0434  0.8512
  591MOL0     H79742  11.178   9.111   5.127 -1.7045 -3.2591  0.3468
  591MOL0     H79743  11.401   9.169   5.195 -1.2537  0.9926 -3.5173
  591MOL0     H79744  11.409   9.005   5.136 -4.1780  1.3874 -2.7276
  591MOL0     H79745  11.635   9.083   5.197 -1.2510  0.5581 -0.1475
  591MOL0     H79746  11.843   9.173   5.288 -1.4885  0.5975 -0.6725
  591MOL0     H79747  11.937   9.281   5.909  1.4884 -1.1941 -0.6175
  591MOL0     H79748  12.115   9.392   6.028 -0.1056 -1.5280  1.4209
  591MOL0     H79749  12.273   9.587   5.993  1.2940 -0.8204 -3.4560
  591MOL0     H79750  12.316   9.479   6.135  0.8446 -2.6274 -0.5892
  591MOL0     H79751  12.563   9.514   6.060 -0.2710  0.2250  4.7695
  591MOL0     H79752  12.495   9.638   5.946 -1.7235  1.0554  0.7135
  591MOL0     H79753  12.445   9.785   6.125  1.3342  0.8106 -1.3675
  591MOL0     H79754  12.456   9.651   6.248  0.9852  0.7782 -0.5237
  591MOL0     H79755  12.651   9.803   6.093 -1.4867 -0.4592 -1.2049
  591MOL0     H79756  12.715   9.646   6.152  1.4718  0.8689 -0.0607
  591MOL0     H79757  12.687   9.697   6.358  1.0320  1.6568  1.3910
  591MOL0     H79758  12.605   9.857   6.337  1.1874 -1.1534  3.7210
  591MOL0     H79759  12.890   9.787   6.285  1.8584  1.1043 -2.6447
  591MOL0     H79760  12.824   9.887   6.167  0.4493 -2.4315 -0.8072
  591MOL0     H79761  12.744  10.040   6.355  0.1334 -0.3307  0.8501
  591MOL0     H79762  12.915  10.041   6.328 -0.4012  2.3100  0.3007
  591MOL0     H79763  12.782   9.883   6.552 -1.1031  0.7976 -1.7838
  591MOL0     H79764  12.955   9.900   6.533  0.2710  0.2949 -2.7805
  591MOL0     H79765  12.385   9.317   5.721  1.1874  1.1436  4.1077
  591MOL0     H79766  12.206   9.193   5.593 -1.9380  0.6249 -0.1235
  591MOL0     H79767  11.683   9.128   5.685  0.0402  1.8671 -0.6957
  591MOL0     H79768  11.466   9.030   5.582 -1.0244 -1.2331 -1.9763
  591MOL0     H79769   9.817   9.039   4.452  1.8574 -0.1971  0.0339
  591MOL0     H79770   9.625   9.121   4.323  0.5682 -1.9945  3.0328
  591MOL0     H79771   9.402   9.104   3.881  2.1236  1.0215 -0.8749
  591MOL0     H79772   9.176   9.152   3.825 -1.8479  0.3008  2.3005
  591MOL0     H79773   8.851   9.336   3.827 -0.8808 -2.6857  0.4859
  591MOL0     H79774   8.962   9.210   3.864  1.5362  1.2836  1.8777
  591MOL0     H79775   9.090   9.244   3.645 -0.7333 -0.7672 -0.0890
  591MOL0     H79776   8.979   9.383   3.612 -1.1699  1.2990  0.7688
  591MOL0     H79777   8.800   9.223   3.579 -1.7077 -2.7593  2.2012
  591MOL0     H79778   8.893   9.091   3.662 -1.3612 -0.9832 -2.1509
  591MOL0     H79779   9.046   9.084   3.483  1.0029  2.1713  1.1108
  591MOL0     H79780   8.882   9.076   3.414 -0.0054  0.6030  0.4125
  591MOL0     H79781   9.051   9.404   3.216  0.5100  1.2906  3.2286
  591MOL0     H79782   9.207   9.532   4.013 -1.4516 -0.9527 -1.6265
  591MOL0     H79783   9.489   9.607   4.036  2.0627  0.4253  1.6276
  591MOL0     H79784   9.364   9.581   4.154 -1.0969  0.4958 -2.2891
  591MOL0     H79785   9.521   9.496   4.183 -0.1193  1.9602  1.7375
  592MOL0     O79786   9.508  10.337   9.452  0.3059 -0.1543 -0.3635
  592MOL0     C79787   9.531  10.424   9.365 -0.2254 -0.3102 -0.4939
  592MOL0     O79788   9.657  10.472   9.331  0.1014 -0.7524 -0.4180
  592MOL0     C79789   9.773  10.409   9.377  0.4056 -0.2936 -0.0357
  592MOL0     C79790   9.810  10.417   9.517 -1.3125  0.1751 -0.1814
  592MOL0     C79791   9.935  10.365   9.563 -0.2013  0.4621 -0.5994
  592MOL0     C79792  10.018  10.319   9.463 -1.0189  0.1021 -0.4747
  592MOL0     O79793  10.141  10.270   9.512 -1.0752  0.4576 -0.1566
  592MOL0     C79794  10.271  10.294   9.444 -0.3513 -0.3529  0.1152
  592MOL0     C79795  10.387  10.202   9.491 -0.3343 -0.2405 -0.3613
  592MOL0     C79796  10.365  10.064   9.422  0.0091 -0.3852 -0.9828
  592MOL0     C79797  10.374  10.064   9.269 -0.2654 -0.3218  0.6288
  592MOL0     C79798  10.392   9.921   9.210 -0.4354  0.2916  0.6904
  592MOL0     C79799  10.442   9.935   9.071  0.2827 -0.2616 -0.1611
  592MOL0     C79800  10.421   9.813   8.989  0.1235 -0.0228 -0.4229
  592MOL0     C79801  10.486   9.826   8.847 -0.5030 -0.0268 -0.0513
  592MOL0     N79802  10.627   9.768   8.854  0.4636 -0.0740  0.1978
  592MOL0     C79803  10.739   9.844   8.824 -0.1559  0.4148  0.4795
  592MOL0     C79804  10.835   9.782   8.892 -0.3477 -0.6119 -0.4131
  592MOL0     C79805  10.975   9.838   8.921 -0.4681  0.1855  0.0458
  592MOL0     C79806  11.019   9.939   8.803  0.3503  0.8983 -0.8639
  592MOL0     C79807  11.143  10.019   8.846  0.0454  0.0020 -0.0009
  592MOL0     C79808  11.215  10.083   8.725  0.1145 -0.1332  0.3840
  592MOL0     O79809  11.309   9.988   8.666  0.4199 -0.2704 -0.0939
  592MOL0     C79810  11.439   9.995   8.703  0.3679  0.4371 -0.3190
  592MOL0     C79811  11.501   9.875   8.756  0.1310 -0.3335  0.3873
  592MOL0     C79812  11.640   9.893   8.790  0.8110  0.5583 -0.4949
  592MOL0     C79813  11.712  10.001   8.759  0.5687  0.2940  0.8120
  592MOL0     C79814  11.854  10.022   8.795  0.2305 -0.0115  0.4335
  592MOL0     O79815  11.904   9.922   8.876 -0.0082 -0.1474 -0.1338
  592MOL0     C79816  12.041   9.903   8.878 -0.0907 -0.0586 -0.0849
  592MOL0     C79817  12.126   9.927   8.770 -0.4273  0.5253  0.7900
  592MOL0     C79818  12.273   9.926   8.789  0.0392  0.0024 -0.9717
  592MOL0     C79819  12.332   9.881   8.904  0.0394 -1.6177 -0.4728
  592MOL0     O79820  12.466   9.896   8.916 -0.0600  0.7571 -0.2787
  592MOL0     C79821  12.509   9.847   9.037 -0.0528 -0.1337 -0.5718
  592MOL0     C79822  12.661   9.853   9.039  0.1046  0.8845  0.4635
  592MOL0     C79823  12.707   9.751   8.931  0.4681  0.6375 -0.5826
  592MOL0     C79824  12.772   9.839   8.820 -0.6545  1.0369  0.1762
  592MOL0     C79825  12.838   9.760   8.706  0.6208 -0.4419  0.0672
  592MOL0     C79826  12.805   9.835   8.578 -0.0105  0.3853  0.0955
  592MOL0     C79827  12.879   9.754   8.465  0.1234 -0.3982  0.1476
  592MOL0     C79828  12.834   9.801   8.336 -0.4715  0.1946 -0.1185
  592MOL0    Cl79829  12.904   9.714   8.190  0.2153  0.1569  0.0658
  592MOL0     C79830  12.244   9.861   9.010  0.5395  0.0773 -0.7843
  592MOL0     C79831  12.103   9.867   9.000  0.5212  0.8187 -0.6904
  592MOL0     O79832  11.902  10.134   8.780  0.1823 -0.1811  0.0065
  592MOL0     C79833  11.641  10.108   8.710 -0.1488 -0.7006  0.6384
  592MOL0     C79834  11.509  10.103   8.687 -0.3344  0.0055  0.8262
  592MOL0     N79835  10.795   9.667   8.949 -0.2621  0.5040 -0.2012
  592MOL0     N79836  10.670   9.653   8.924  0.0571 -0.2509  0.1804
  592MOL0     C79837  10.000  10.327   9.328 -0.4820 -0.3244  0.5734
  592MOL0     C79838   9.873  10.365   9.286  0.6219  0.0783  0.8483
  592MOL0     C79839   9.417  10.482   9.283 -0.2157 -0.0700 -0.8602
  592MOL0     C79840   9.406  10.626   9.276 -0.2181 -0.3805  0.3238
  592MOL0     C79841   9.293  10.683   9.218 -0.5757 -0.0532 -0.7913
  592MOL0     C79842   9.197  10.604   9.161 -0.7807  0.9275  0.1603
  592MOL0     O79843   9.075  10.660   9.119 -0.1744  0.5467 -0.4211
  592MOL0     C79844   9.087  10.743   8.999 -1.1214  0.1766  0.7142
  592MOL0     C79845   8.950  10.785   8.940  0.2402  0.0220  0.1988
  592MOL0     C79846   8.827  10.692   8.963  0.9420 -0.3140  0.4701
  592MOL0     C79847   8.727  10.712   8.839 -0.4654  0.3224  0.6047
  592MOL0     C79848   8.590  10.701   8.886  0.0167 -0.7265 -0.5264
  592MOL0     C79849   8.478  10.690   8.934  0.2122 -0.7613  0.5288
  592MOL0     C79850   9.206  10.466   9.164  0.0560 -0.5054 -1.1142
  592MOL0     C79851   9.315  10.404   9.224  0.0607 -0.6151  0.4742
  592MOL0     C79852   9.328  10.253   9.230 -0.4184  0.7632 -0.1852
  592MOL0     H79853   9.746  10.467   9.589 -3.8701  0.1172 -2.2597
  592MOL0     H79854   9.977  10.365   9.663 -1.7475  0.4726  0.0773
  592MOL0     H79855  10.260  10.287   9.336  0.4205  0.1704 -0.0077
  592MOL0     H79856  10.302  10.394   9.476  1.3711 -1.3472  1.7885
  592MOL0     H79857  10.391  10.189   9.600 -0.7419  1.4490 -0.1118
  592MOL0     H79858  10.484  10.231   9.451 -1.8213  2.9539 -2.0413
  592MOL0     H79859  10.271  10.025   9.463  1.2763  1.0229  3.8917
  592MOL0     H79860  10.441   9.999   9.464 -0.4883 -0.6300 -0.4441
  592MOL0     H79861  10.279  10.100   9.229  0.5464  0.4053 -0.7255
  592MOL0     H79862  10.458  10.131   9.245 -0.1808 -0.8685 -0.6641
  592MOL0     H79863  10.465   9.856   9.259 -0.9462 -1.2213 -0.4999
  592MOL0     H79864  10.294   9.874   9.220 -1.5080  1.7907 -1.7066
  592MOL0     H79865  10.388  10.020   9.028  0.8382  0.8501  1.2445
  592MOL0     H79866  10.549   9.960   9.072  0.7118 -1.6737  3.2755
  592MOL0     H79867  10.314   9.809   8.972  0.6375 -2.3652 -4.1832
  592MOL0     H79868  10.453   9.730   9.053 -0.3482  1.7228  2.2400
  592MOL0     H79869  10.440   9.758   8.775  0.6098 -1.0012  0.1354
  592MOL0     H79870  10.490   9.931   8.817  0.8857  0.2438  0.9335
  592MOL0     H79871  10.739   9.945   8.784 -2.1928  0.1043 -0.4542
  592MOL0     H79872  10.958   9.895   9.013 -1.4654 -2.4408  1.5839
  592MOL0     H79873  11.045   9.757   8.941  0.9517  1.0660 -1.1687
  592MOL0     H79874  11.050   9.866   8.727 -0.8449  0.5675 -1.0521
  592MOL0     H79875  10.934   9.989   8.755 -0.9021 -1.3530 -1.1586
  592MOL0     H79876  11.223   9.958   8.891 -0.3812  0.4204  1.3709
  592MOL0     H79877  11.115  10.092   8.922 -0.7968 -0.2889 -0.0229
  592MOL0     H79878  11.264  10.179   8.743 -0.8274  1.4899 -4.1271
  592MOL0     H79879  11.147  10.114   8.645  2.0518 -1.7103 -2.0392
  592MOL0     H79880  11.436   9.789   8.768 -2.0978  0.8897 -1.8108
  592MOL0     H79881  11.677   9.797   8.826  0.3229  0.4227 -0.3432
  592MOL0     H79882  12.080   9.964   8.678 -1.6960  2.0356  1.9732
  592MOL0     H79883  12.341   9.949   8.707 -0.2320  1.7615 -0.7621
  592MOL0     H79884  12.474   9.904   9.123  1.3204  1.5258 -1.0552
  592MOL0     H79885  12.487   9.742   9.061 -0.6565  0.6653  2.6893
  592MOL0     H79886  12.709   9.948   9.014 -1.2211  1.2646 -0.7541
  592MOL0     H79887  12.698   9.825   9.138  2.6687  0.6031 -0.4883
  592MOL0     H79888  12.789   9.690   8.969 -1.5744 -1.9211 -0.0163
  592MOL0     H79889  12.629   9.681   8.899  2.3855 -1.8338 -0.2051
  592MOL0     H79890  12.839   9.913   8.864 -0.4567  1.5549 -0.9602
  592MOL0     H79891  12.684   9.888   8.776  0.4124  1.5106 -1.5351
  592MOL0     H79892  12.798   9.659   8.692 -0.2881 -0.3666  1.7923
  592MOL0     H79893  12.946   9.765   8.720  0.7130 -1.1001 -0.4064
  592MOL0     H79894  12.699   9.830   8.555  0.4184 -0.3835 -1.9323
  592MOL0     H79895  12.844   9.937   8.574 -0.1040  0.4075 -0.2610
  592MOL0     H79896  12.883   9.646   8.480 -0.6922 -0.5914 -0.8497
  592MOL0     H79897  12.984   9.784   8.462  0.4449 -1.4976 -0.1459
  592MOL0     H79898  12.725   9.792   8.340 -0.5455  1.3644  1.0327
  592MOL0     H79899  12.854   9.907   8.322 -1.3488  0.7898  2.5318
  592MOL0     H79900  12.278   9.843   9.112 -1.1227 -1.0483 -0.3799
  592MOL0     H79901  12.041   9.853   9.088  0.4960  1.9606 -0.5126
  592MOL0     H79902  11.683  10.205   8.684  0.5764 -1.4530 -1.1633
  592MOL0     H79903  11.457  10.186   8.641  0.4198  0.1206  0.1530
  592MOL0     H79904  10.071  10.287   9.255  0.3685  1.8238  0.1555
  592MOL0     H79905   9.857  10.366   9.178  0.6433  0.8918  0.8481
  592MOL0     H79906   9.485  10.693   9.307 -1.4058  0.8679  0.7412
  592MOL0     H79907   9.275  10.789   9.225  2.2638  0.4130  0.9121
  592MOL0     H79908   9.141  10.684   8.923 -0.3097  1.6131  0.1323
  592MOL0     H79909   9.136  10.838   9.020 -1.2197  0.2397  0.6622
  592MOL0     H79910   8.966  10.812   8.835  1.0867  2.0259  0.8055
  592MOL0     H79911   8.935  10.879   8.993 -0.4475  0.4868 -0.7882
  592MOL0     H79912   8.784  10.730   9.057 -0.8274  0.1492 -0.4947
  592MOL0     H79913   8.863  10.589   8.965 -0.4537 -0.9750 -2.7504
  592MOL0     H79914   8.732  10.804   8.779 -1.9894  0.5427  0.7729
  592MOL0     H79915   8.743  10.637   8.761 -1.0772  0.9310 -0.1347
  592MOL0     H79916   8.381  10.682   8.978 -1.0676  0.8879 -1.7773
  592MOL0     H79917   9.130  10.400   9.124  1.9112 -1.0622 -4.0385
  592MOL0     H79918   9.268  10.202   9.305 -0.8154 -0.8383 -1.5207
  592MOL0     H79919   9.289  10.215   9.134  1.8276  0.6554 -1.1136
  592MOL0     H79920   9.430  10.215   9.234 -0.9922 -2.1144 -4.7055
  593MOL0     O79921   0.333   2.450  11.183 -0.1215 -0.4681  0.0559
  593MOL0     C79922   0.275   2.554  11.167 -0.6107 -0.4848  0.0308
  593MOL0     O79923   0.324   2.658  11.097  0.2195  0.3440  0.1294
  593MOL0     C79924   0.445   2.650  11.039 -0.3816  0.2853  0.0243
  593MOL0     C79925   0.454   2.701  10.913  0.1095  0.0437 -0.4508
  593MOL0     C79926   0.573   2.688  10.839  0.1061  0.3473 -1.0343
  593MOL0     C79927   0.679   2.618  10.897 -0.8880  0.5643  0.1269
  593MOL0     O79928   0.786   2.593  10.806  0.3423 -0.0588 -0.1429
  593MOL0     C79929   0.872   2.480  10.834 -1.2499 -0.0628  0.5637
  593MOL0     C79930   1.007   2.503  10.781 -0.8793  0.6491  1.2828
  593MOL0     C79931   0.999   2.544  10.628 -0.5829  0.1223  0.8808
  593MOL0     C79932   1.046   2.690  10.606 -0.1400  0.6071 -0.3288
  593MOL0     C79933   1.197   2.718  10.638 -0.5039  0.0837  0.6357
  593MOL0     C79934   1.303   2.641  10.561  0.4046  0.2978 -0.0114
  593MOL0     C79935   1.432   2.720  10.522  0.2723  0.7165  0.6803
  593MOL0     C79936   1.507   2.773  10.639 -0.2823 -0.4374  0.4376
  593MOL0     N79937   1.645   2.831  10.617 -0.7404  0.6418  0.5860
  593MOL0     C79938   1.674   2.942  10.539 -0.0757 -0.7413  0.2631
  593MOL0     C79939   1.805   2.966  10.554  0.5443  0.4536 -0.5232
  593MOL0     C79940   1.873   3.073  10.472  0.3504  0.9253 -0.2922
  593MOL0     C79941   2.020   3.108  10.527 -0.4156  0.0120 -1.2181
  593MOL0     C79942   2.125   3.007  10.483  0.4042 -0.4438 -0.0884
  593MOL0     C79943   2.272   3.043  10.524 -0.0974  0.1145 -0.3855
  593MOL0     O79944   2.325   3.141  10.434 -0.8035 -0.4278 -0.0835
  593MOL0     C79945   2.462   3.132  10.414  0.3654 -0.8435 -0.2750
  593MOL0     C79946   2.553   3.069  10.499 -0.1126  0.5213  0.6508
  593MOL0     C79947   2.686   3.056  10.469  0.1822 -0.0580  0.6305
  593MOL0     C79948   2.744   3.108  10.352  0.6197 -1.0844 -0.8628
  593MOL0     C79949   2.889   3.119  10.331  0.0291 -0.2231 -0.6919
  593MOL0     O79950   2.968   3.023  10.381 -0.3505  0.3798 -0.5906
  593MOL0     C79951   3.103   3.051  10.361 -0.3650  0.0601 -0.0919
  593MOL0     C79952   3.167   3.167  10.418  0.0037 -0.6697  0.6455
  593MOL0     C79953   3.305   3.177  10.400  0.6812  0.1791  0.1049
  593MOL0     C79954   3.376   3.071  10.341 -0.7343 -0.2803  0.2369
  593MOL0     O79955   3.518   3.079  10.319 -0.6579 -0.4853 -0.1971
  593MOL0     C79956   3.554   3.077  10.178  0.0603  0.2436 -0.4236
  593MOL0     C79957   3.622   2.942  10.132  0.6053 -0.0910  0.3598
  593MOL0     C79958   3.750   2.911  10.210  0.4704  0.3470  0.1782
  593MOL0     C79959   3.792   2.770  10.185  0.6404 -0.3955 -0.4720
  593MOL0     C79960   3.907   2.716  10.256 -0.5548  0.2674 -0.3299
  593MOL0     C79961   3.926   2.569  10.241 -0.0141  1.3329 -0.0344
  593MOL0     C79962   4.016   2.503  10.345  0.0720 -0.5288  0.5418
  593MOL0     C79963   4.086   2.383  10.278 -0.1524 -0.6489  0.4762
  593MOL0    Cl79964   4.193   2.308  10.396 -0.0421  0.3435  0.0801
  593MOL0     C79965   3.313   2.951  10.302  0.0276 -0.3956  0.0256
  593MOL0     C79966   3.181   2.936  10.328 -0.0852  0.4795 -0.0853
  593MOL0     O79967   2.929   3.226  10.278  0.0907 -0.1183  0.9177
  593MOL0     C79968   2.659   3.178  10.267 -0.2761 -0.9958 -1.2848
  593MOL0     C79969   2.522   3.195  10.296 -0.2059 -0.5104  0.0922
  593MOL0     N79970   1.855   2.872  10.644 -0.9100  0.3724  0.2198
  593MOL0     N79971   1.762   2.791  10.678  0.2864 -0.0016 -0.2539
  593MOL0     C79972   0.681   2.594  11.036  0.7811  1.6229  0.3324
  593MOL0     C79973   0.559   2.596  11.104 -0.6558 -0.2868  0.6309
  593MOL0     C79974   0.139   2.567  11.220  0.5718 -0.4692  0.0888
  593MOL0     C79975   0.042   2.656  11.157 -0.0631 -0.4049  0.1401
  593MOL0     C79976  -0.090   2.674  11.196  0.8329  0.3358 -0.2151
  593MOL0     C79977  -0.142   2.597  11.293  0.8381  0.4118 -0.1515
  593MOL0     O79978  -0.281   2.608  11.311 -0.0914 -0.3707  0.0711
  593MOL0     C79979  -0.343   2.520  11.408 -0.4231  0.2882 -0.2162
  593MOL0     C79980  -0.500   2.515  11.398 -0.3478 -0.2585  0.5111
  593MOL0     C79981  -0.560   2.387  11.461 -0.6966  0.6637 -0.6733
  593MOL0     C79982  -0.714   2.379  11.465  0.0217  1.1760  0.5102
  593MOL0     C79983  -0.764   2.263  11.557  0.2824  0.1315  0.6013
  593MOL0     C79984  -0.803   2.185  11.638 -0.7480  0.2903  0.4460
  593MOL0     C79985  -0.055   2.518  11.364 -0.0145  0.0221  0.0258
  593MOL0     C79986   0.080   2.495  11.329 -0.4847 -0.0417  1.2038
  593MOL0     C79987   0.161   2.395  11.413  0.2105  0.1445 -0.3023
  593MOL0     H79988   0.362   2.733  10.864  0.3833  0.7029 -0.5463
  593MOL0     H79989   0.567   2.722  10.736 -2.5127  1.4459 -0.5937
  593MOL0     H79990   0.865   2.444  10.937 -0.1295  1.1134  1.0725
  593MOL0     H79991   0.823   2.401  10.775 -2.9012  0.0688  1.6820
  593MOL0     H79992   1.067   2.412  10.778 -2.4520 -0.4641 -2.2435
  593MOL0     H79993   1.055   2.588  10.831  2.3927 -0.6652  0.6571
  593MOL0     H79994   0.900   2.530  10.585 -0.7115 -0.0214  1.2258
  593MOL0     H79995   1.065   2.474  10.576  1.7550  0.8224  2.7003
  593MOL0     H79996   1.028   2.713  10.501 -1.4700  1.0407 -0.0205
  593MOL0     H79997   0.981   2.753  10.667 -0.6439 -1.1274  1.0167
  593MOL0     H79998   1.205   2.825  10.619 -2.5186 -0.0206 -1.2404
  593MOL0     H79999   1.215   2.718  10.746 -1.2099  2.5684  0.8063
  593MOL0     H80000   1.340   2.551  10.610  1.1437 -0.3821 -1.7493
  593MOL0     H80001   1.262   2.608  10.465 -1.7598  2.3047  0.1183
  593MOL0     H80002   1.398   2.799  10.453 -0.1937  0.5841  0.7509
  593MOL0     H80003   1.498   2.656  10.463 -0.3126  1.1159 -0.4492
  593MOL0     H80004   1.443   2.853  10.675 -1.0711 -1.3773  1.1897
  593MOL0     H80005   1.518   2.697  10.717 -1.0032  2.5531  3.7033
  593MOL0     H80006   1.599   3.000  10.487  0.8600  0.4369  0.2007
  593MOL0     H80007   1.864   3.047  10.366  0.3893  2.0712 -0.5898
  593MOL0     H80008   1.815   3.165  10.486 -1.3461 -0.2201  0.5478
  593MOL0     H80009   2.041   3.209  10.491 -2.8095  1.1302  0.2663
  593MOL0     H80010   2.010   3.137  10.631  0.7245 -2.5558 -0.3058
  593MOL0     H80011   2.127   3.005  10.374  1.5739 -2.8792 -0.1090
  593MOL0     H80012   2.105   2.909  10.528 -4.0235 -0.2844 -1.2631
  593MOL0     H80013   2.327   2.949  10.526  2.5160  1.5520  2.0900
  593MOL0     H80014   2.271   3.079  10.627 -0.1022  2.1943 -1.0646
  593MOL0     H80015   2.522   3.012  10.586 -0.7495 -3.4676 -1.9569
  593MOL0     H80016   2.734   3.005  10.552  0.4012 -2.4005 -0.8402
  593MOL0     H80017   3.102   3.236  10.470 -1.2041 -0.6517 -0.8213
  593MOL0     H80018   3.364   3.260  10.437 -1.4862  1.5010  0.7838
  593MOL0     H80019   3.474   3.120  10.118 -2.1298 -0.6509  1.6702
  593MOL0     H80020   3.634   3.151  10.171  0.3887  0.0626  0.9656
  593MOL0     H80021   3.546   2.863  10.142 -0.3303  0.6893 -0.4173
  593MOL0     H80022   3.660   2.947  10.030  2.0917  1.1565  0.9513
  593MOL0     H80023   3.822   2.969  10.152  2.4356 -1.3489  0.8153
  593MOL0     H80024   3.749   2.944  10.315  3.3668  0.5495  0.1997
  593MOL0     H80025   3.799   2.749  10.077 -0.3111 -0.7356 -0.4794
  593MOL0     H80026   3.701   2.711  10.199 -0.4319  0.6397 -2.6263
  593MOL0     H80027   3.881   2.732  10.361 -0.0789 -3.0299  0.4109
  593MOL0     H80028   3.989   2.775  10.216  0.3136 -0.9023 -0.3257
  593MOL0     H80029   3.827   2.522  10.246 -0.3590  1.9856 -0.5116
  593MOL0     H80030   3.960   2.554  10.138 -1.6835 -0.6038 -0.3734
  593MOL0     H80031   3.954   2.474  10.430 -1.0178  0.6094  0.1775
  593MOL0     H80032   4.086   2.583  10.373 -0.5264  1.1199 -2.2292
  593MOL0     H80033   4.008   2.318  10.236 -1.3018  1.2174 -0.3793
  593MOL0     H80034   4.138   2.416  10.188 -5.8369  0.0654 -3.0660
  593MOL0     H80035   3.375   2.868  10.270  1.2683  1.3955 -2.6326
  593MOL0     H80036   3.144   2.835  10.316  1.6967 -0.2494  0.3195
  593MOL0     H80037   2.696   3.226  10.177 -0.1598  0.5866 -0.4285
  593MOL0     H80038   2.455   3.250  10.231  1.0199  0.7814 -0.1204
  593MOL0     H80039   0.766   2.563  11.096 -0.9088 -3.0634  0.6974
  593MOL0     H80040   0.559   2.574  11.211 -0.3519 -0.9387  0.5038
  593MOL0     H80041   0.080   2.703  11.067  0.1429 -1.4443 -0.3262
  593MOL0     H80042  -0.163   2.741  11.151  0.1945  0.6970  1.3004
  593MOL0     H80043  -0.307   2.546  11.508  0.8790 -1.7390 -0.0931
  593MOL0     H80044  -0.307   2.417  11.396  3.4344  1.4345  0.0188
  593MOL0     H80045  -0.527   2.524  11.292 -2.1490 -4.0849  0.4964
  593MOL0     H80046  -0.541   2.605  11.447 -0.3273 -1.5686  3.1033
  593MOL0     H80047  -0.533   2.403  11.566  0.1884 -3.7513 -0.0525
  593MOL0     H80048  -0.510   2.300  11.419 -0.3376  1.0603 -1.0697
  593MOL0     H80049  -0.740   2.475  11.510 -0.2923  0.1967  2.5634
  593MOL0     H80050  -0.749   2.368  11.362  1.7517 -1.2660  0.0928
  593MOL0     H80051  -0.835   2.105  11.701  1.8778  0.4458  2.1244
  593MOL0     H80052  -0.094   2.457  11.444 -2.6578  1.3341 -0.1474
  593MOL0     H80053   0.150   2.408  11.521  2.8354  1.2620 -0.0754
  593MOL0     H80054   0.139   2.298  11.368  1.7751  0.8475 -2.8069
  593MOL0     H80055   0.268   2.409  11.391  0.3417  0.4704  0.5009
  594MOL0     O80056   8.112   5.941   4.066  0.3264 -0.3974  1.1138
  594MOL0     C80057   8.092   5.876   3.959  0.3659  0.6480 -0.6151
  594MOL0     O80058   8.167   5.886   3.843  0.1790  0.1546  0.8954
  594MOL0     C80059   8.293   5.940   3.849  0.4540 -0.3326 -0.9693
  594MOL0     C80060   8.383   5.921   3.963  0.6086  0.1245 -0.3965
  594MOL0     C80061   8.522   5.963   3.957 -0.3125  0.5093 -0.1089
  594MOL0     C80062   8.571   6.029   3.842  0.9224  1.2053 -0.0253
  594MOL0     O80063   8.710   6.047   3.827  1.0220 -0.1136  0.3389
  594MOL0     C80064   8.794   5.943   3.859 -0.5224  0.6298  0.8567
  594MOL0     C80065   8.901   5.916   3.759 -0.0956 -0.7778  0.7712
  594MOL0     C80066   8.968   6.043   3.696 -0.8230  0.6143  0.0482
  594MOL0     C80067   9.037   6.132   3.804  0.1913 -0.2848  0.3504
  594MOL0     C80068   9.166   6.072   3.866  0.2071  0.4519  0.0297
  594MOL0     C80069   9.202   6.155   3.982 -0.9356 -0.7959 -0.0368
  594MOL0     C80070   9.342   6.117   4.031  0.2261 -0.5832  0.2792
  594MOL0     C80071   9.386   6.199   4.160 -0.2802 -0.2903  1.1773
  594MOL0     N80072   9.527   6.186   4.193 -0.7655 -0.5574  1.0220
  594MOL0     C80073   9.596   6.067   4.191 -0.7924 -0.0165 -0.8074
  594MOL0     C80074   9.734   6.088   4.188 -0.8015  0.3296  0.9502
  594MOL0     C80075   9.837   5.978   4.172 -0.3595 -0.7705  0.2379
  594MOL0     C80076   9.948   5.985   4.276  0.8039 -0.1438  0.2172
  594MOL0     C80077  10.051   5.875   4.250  0.1106 -0.3247  0.5977
  594MOL0     C80078  10.162   5.880   4.366 -0.3039 -0.3060  0.6811
  594MOL0     O80079  10.113   5.811   4.481 -0.0477  0.0502 -0.1933
  594MOL0     C80080  10.201   5.770   4.583  0.7193 -0.3748  0.0257
  594MOL0     C80081  10.310   5.851   4.614 -0.9970  0.3640  0.2185
  594MOL0     C80082  10.373   5.835   4.744 -0.5083 -0.7272  0.4360
  594MOL0     C80083  10.354   5.717   4.817  0.1977 -0.8619  0.5875
  594MOL0     C80084  10.440   5.678   4.936  0.1391  0.0048 -0.1542
  594MOL0     O80085  10.419   5.555   4.983 -0.2035  0.5805 -0.5620
  594MOL0     C80086  10.514   5.494   5.061  0.2047 -0.5311 -0.1303
  594MOL0     C80087  10.486   5.477   5.197 -0.1811 -0.1216  0.0985
  594MOL0     C80088  10.586   5.437   5.290 -0.4538  0.0972  0.6688
  594MOL0     C80089  10.711   5.394   5.244 -0.0892  0.9198  0.2108
  594MOL0     O80090  10.802   5.327   5.325 -0.0043 -0.1717  0.8391
  594MOL0     C80091  10.771   5.285   5.461  0.2123 -0.3187 -0.2627
  594MOL0     C80092  10.766   5.388   5.582 -0.1662 -0.2023 -0.2088
  594MOL0     C80093  10.713   5.317   5.709  0.5253  0.0316 -1.1525
  594MOL0     C80094  10.787   5.374   5.844  0.2523  0.2622  0.2535
  594MOL0     C80095  10.793   5.253   5.940  0.4448 -0.2680  0.4559
  594MOL0     C80096  10.903   5.252   6.044  0.3511 -0.7710  0.7500
  594MOL0     C80097  10.884   5.149   6.154 -0.0225  0.5959  0.2646
  594MOL0     C80098  10.782   5.196   6.258  0.0325 -0.1431  1.0389
  594MOL0    Cl80099  10.754   5.052   6.359 -0.2824 -0.1854  0.0872
  594MOL0     C80100  10.740   5.399   5.105  0.2580  0.5614 -1.3700
  594MOL0     C80101  10.644   5.456   5.018 -0.1264  0.3012  0.4699
  594MOL0     O80102  10.517   5.766   4.978  0.1576  0.1863  0.2615
  594MOL0     C80103  10.242   5.640   4.785 -0.0199  0.2843  0.0127
  594MOL0     C80104  10.159   5.668   4.675  0.4704  0.0723  0.1666
  594MOL0     N80105   9.744   6.228   4.192  0.7163 -0.2419 -0.0461
  594MOL0     N80106   9.626   6.286   4.189  0.2210  0.4111 -0.4441
  594MOL0     C80107   8.473   6.064   3.743 -0.1091  0.0508 -0.5909
  594MOL0     C80108   8.341   6.018   3.739  0.5493 -0.0210  0.0667
  594MOL0     C80109   7.961   5.804   3.946 -0.5968  0.8629  0.0183
  594MOL0     C80110   7.850   5.855   4.015  0.4367 -0.2124 -0.2069
  594MOL0     C80111   7.721   5.824   3.984  0.1491  0.8146  0.0595
  594MOL0     C80112   7.692   5.710   3.905 -0.1352  0.0363 -0.0111
  594MOL0     O80113   7.566   5.666   3.866  0.4208  0.6303 -0.0362
  594MOL0     C80114   7.457   5.763   3.858 -0.1711  0.3142  0.7006
  594MOL0     C80115   7.345   5.715   3.778  0.6573  0.4556  0.0722
  594MOL0     C80116   7.263   5.613   3.867  0.1157 -0.3884 -0.0440
  594MOL0     C80117   7.130   5.580   3.796  0.2507 -0.6952 -0.3099
  594MOL0     C80118   7.046   5.504   3.892 -0.1228  0.2188  0.3197
  594MOL0     C80119   6.956   5.450   3.955 -0.8544 -0.2974 -0.7010
  594MOL0     C80120   7.798   5.637   3.843  0.1584 -0.1785 -0.3857
  594MOL0     C80121   7.933   5.696   3.847  0.1636 -0.5750 -0.2033
  594MOL0     C80122   8.036   5.649   3.745 -0.2313  0.4478  0.0234
  594MOL0     H80123   8.348   5.866   4.050  2.1603 -0.5068 -0.1484
  594MOL0     H80124   8.591   5.926   4.033 -0.1702  0.8350 -0.0748
  594MOL0     H80125   8.846   5.965   3.953  1.5461  0.8564 -0.2774
  594MOL0     H80126   8.735   5.853   3.877  0.1993 -0.5209 -2.0897
  594MOL0     H80127   8.846   5.855   3.687  0.0162 -0.2575  0.2425
  594MOL0     H80128   8.986   5.867   3.809  2.1115  2.6843  0.7259
  594MOL0     H80129   8.907   6.092   3.619  0.8715  0.1534 -1.6658
  594MOL0     H80130   9.056   6.005   3.643  0.0900  1.0303  1.2262
  594MOL0     H80131   9.066   6.228   3.761  1.5183  0.6151  3.0376
  594MOL0     H80132   8.961   6.152   3.879  0.0245  0.0485  0.0955
  594MOL0     H80133   9.150   5.969   3.899 -1.0971 -0.3259 -2.7230
  594MOL0     H80134   9.242   6.069   3.788  2.1314 -0.2074  1.8138
  594MOL0     H80135   9.202   6.263   3.963  2.1714 -0.6978  0.0324
  594MOL0     H80136   9.121   6.135   4.053 -2.6542 -0.3670 -1.8044
  594MOL0     H80137   9.417   6.145   3.957  0.7470  0.2241  1.0872
  594MOL0     H80138   9.347   6.011   4.059 -1.0195 -0.9693 -0.8735
  594MOL0     H80139   9.367   6.306   4.149  1.9353  0.1841  1.4284
  594MOL0     H80140   9.330   6.154   4.242  0.8667  1.5781  3.0905
  594MOL0     H80141   9.553   5.968   4.188 -1.1109  0.0801  0.1468
  594MOL0     H80142   9.786   5.881   4.176  0.3311 -1.1348  0.3852
  594MOL0     H80143   9.890   5.992   4.077 -2.0034  0.9738 -0.4898
  594MOL0     H80144  10.002   6.080   4.264 -0.6366  1.0567  2.5028
  594MOL0     H80145   9.897   5.975   4.372  1.7975  1.2112  0.9151
  594MOL0     H80146  10.107   5.881   4.157  3.3558  1.4818  2.4966
  594MOL0     H80147  10.003   5.777   4.248 -2.0215  0.6393 -2.0019
  594MOL0     H80148  10.184   5.985   4.388 -4.5670  1.4035 -1.9196
  594MOL0     H80149  10.250   5.828   4.327  1.2482  0.6344  2.7273
  594MOL0     H80150  10.339   5.944   4.565  0.0099  1.0128  1.9639
  594MOL0     H80151  10.455   5.901   4.772 -1.3421 -0.1146  1.5260
  594MOL0     H80152  10.383   5.493   5.226 -0.4795 -0.4983 -0.7260
  594MOL0     H80153  10.577   5.454   5.397  0.1258 -3.7328  1.4700
  594MOL0     H80154  10.678   5.228   5.467 -1.0536  1.6742  0.0346
  594MOL0     H80155  10.847   5.215   5.498  0.9094 -0.3119 -1.6229
  594MOL0     H80156  10.865   5.426   5.606 -1.2046  0.9957  2.5362
  594MOL0     H80157  10.708   5.474   5.549  3.1773  2.8545  1.3212
  594MOL0     H80158  10.607   5.337   5.732  1.2433  0.6317  2.2880
  594MOL0     H80159  10.726   5.209   5.699 -1.3417 -0.8769  3.4453
  594MOL0     H80160  10.733   5.452   5.897  2.3779  1.4667  0.7728
  594MOL0     H80161  10.886   5.416   5.822  0.6200  0.3644  2.0013
  594MOL0     H80162  10.819   5.162   5.885 -1.8446 -0.7242  0.0347
  594MOL0     H80163  10.693   5.247   5.984 -0.1322  0.3118 -0.7323
  594MOL0     H80164  10.994   5.220   5.991 -0.0921 -2.4782  0.9448
  594MOL0     H80165  10.919   5.347   6.095 -0.8004  2.0918 -3.6441
  594MOL0     H80166  10.979   5.123   6.202  0.3662  1.2853 -0.1176
  594MOL0     H80167  10.839   5.066   6.099 -0.6514  0.7095  0.5990
  594MOL0     H80168  10.812   5.277   6.325  0.5759  1.8254 -1.3977
  594MOL0     H80169  10.696   5.225   6.197  2.5664  0.5271 -2.5382
  594MOL0     H80170  10.842   5.370   5.084 -0.0859 -2.0427  0.0731
  594MOL0     H80171  10.662   5.472   4.912  0.0284  0.3123  0.4984
  594MOL0     H80172  10.216   5.557   4.851 -0.4433  0.1725 -0.2852
  594MOL0     H80173  10.070   5.611   4.655 -2.1090  3.7817  0.0555
  594MOL0     H80174   8.497   6.144   3.673 -0.2303  0.9447  0.3710
  594MOL0     H80175   8.273   6.039   3.658  1.2040  0.5355 -0.3548
  594MOL0     H80176   7.881   5.945   4.067  0.6148  0.4988 -1.5062
  594MOL0     H80177   7.644   5.884   4.031 -2.5993  0.2459 -3.2928
  594MOL0     H80178   7.488   5.857   3.810 -1.7650  1.6032  2.0872
  594MOL0     H80179   7.424   5.793   3.957 -1.0581  1.1357  0.1718
  594MOL0     H80180   7.376   5.682   3.678 -1.5402 -1.6848  0.0242
  594MOL0     H80181   7.282   5.801   3.756 -0.6434 -0.7912 -1.3164
  594MOL0     H80182   7.243   5.662   3.963  1.3484 -0.6450  0.3722
  594MOL0     H80183   7.316   5.519   3.888  1.4747  0.5416  0.8019
  594MOL0     H80184   7.073   5.673   3.787 -1.8516 -1.3557  3.6697
  594MOL0     H80185   7.151   5.532   3.701  0.6032  1.2212 -1.2548
  594MOL0     H80186   6.884   5.400   4.016 -1.0932 -2.9957 -2.9850
  594MOL0     H80187   7.784   5.549   3.781  1.5753  1.4392 -3.2180
  594MOL0     H80188   8.022   5.548   3.706 -0.4069  0.1214  0.9111
  594MOL0     H80189   8.030   5.726   3.668 -1.3637  1.0856  0.7293
  594MOL0     H80190   8.132   5.641   3.797  0.4400 -1.7583 -1.3747
  595MOL0     O80191   3.812   7.174   5.040 -1.0356 -0.3667  0.6560
  595MOL0     C80192   3.735   7.161   4.941 -0.0958 -0.3106 -0.4769
  595MOL0     O80193   3.757   7.091   4.826 -0.0365  0.4252 -0.1051
  595MOL0     C80194   3.874   7.017   4.826  0.3578 -0.6676 -0.2879
  595MOL0     C80195   4.000   7.068   4.823 -0.7603 -0.9001 -0.2302
  595MOL0     C80196   4.116   6.986   4.824  0.5139 -0.0021  0.2931
  595MOL0     C80197   4.101   6.854   4.815  0.1583  0.0639  0.0598
  595MOL0     O80198   4.207   6.773   4.800 -0.1815  0.4013  0.2286
  595MOL0     C80199   4.215   6.705   4.672 -0.5743 -0.4187  0.5899
  595MOL0     C80200   4.358   6.666   4.631  0.2932  0.7119 -0.1505
  595MOL0     C80201   4.410   6.560   4.731  0.1227  0.3249  0.0317
  595MOL0     C80202   4.548   6.504   4.687 -0.4289  0.3220 -0.2788
  595MOL0     C80203   4.549   6.380   4.604  0.4204  0.9712  0.7103
  595MOL0     C80204   4.686   6.364   4.531 -0.6986 -0.1057  1.1221
  595MOL0     C80205   4.687   6.259   4.420  0.5322  0.2267 -0.1626
  595MOL0     C80206   4.819   6.239   4.338 -0.0001  0.7575 -0.3840
  595MOL0     N80207   4.923   6.178   4.418 -0.3709  0.0083 -0.1228
  595MOL0     C80208   4.949   6.039   4.413 -0.0309 -0.0999 -1.3524
  595MOL0     C80209   5.065   6.027   4.480  0.3477 -0.3588 -0.0496
  595MOL0     C80210   5.139   5.902   4.512  0.6326 -0.0763  0.1091
  595MOL0     C80211   5.297   5.913   4.488 -0.0529 -0.9909 -0.2347
  595MOL0     C80212   5.385   5.803   4.532  0.3043 -0.2200 -0.1142
  595MOL0     C80213   5.523   5.835   4.483  0.8413  0.7784  0.1577
  595MOL0     O80214   5.609   5.754   4.557  0.6377 -0.1210 -0.2893
  595MOL0     C80215   5.741   5.787   4.556 -0.1416 -0.1750  0.7473
  595MOL0     C80216   5.800   5.889   4.482 -0.6889  0.4630 -0.6455
  595MOL0     C80217   5.945   5.921   4.475  0.8445  0.1659  1.1136
  595MOL0     C80218   6.028   5.827   4.534 -0.3133 -0.3123 -0.5927
  595MOL0     C80219   6.181   5.850   4.529  0.0562 -0.3225 -0.0727
  595MOL0     O80220   6.233   5.977   4.498  0.3455  1.1437 -0.5351
  595MOL0     C80221   6.369   5.990   4.509 -1.3040 -0.3352 -0.3366
  595MOL0     C80222   6.436   6.026   4.631 -0.9405  0.2088 -1.1950
  595MOL0     C80223   6.576   6.030   4.636  0.6044 -0.6941  0.0975
  595MOL0     C80224   6.643   6.018   4.516 -0.3814 -0.4255  0.6663
  595MOL0     O80225   6.780   6.037   4.512 -0.6094  0.2248  0.0313
  595MOL0     C80226   6.850   6.126   4.605 -0.3147 -0.0494  0.8352
  595MOL0     C80227   6.994   6.158   4.547  0.1628 -0.0630 -0.8097
  595MOL0     C80228   6.990   6.231   4.413 -0.4635  0.0832 -0.0057
  595MOL0     C80229   7.024   6.134   4.303  0.1272 -1.2309  1.0816
  595MOL0     C80230   7.176   6.100   4.295  0.0797 -0.2695  0.1881
  595MOL0     C80231   7.265   6.204   4.220  0.3784  0.0250 -0.1563
  595MOL0     C80232   7.401   6.138   4.193 -0.8908 -0.5928  0.4539
  595MOL0     C80233   7.514   6.250   4.174 -0.0403 -0.9917  1.3047
  595MOL0    Cl80234   7.681   6.180   4.184 -0.3767 -0.4391 -0.0255
  595MOL0     C80235   6.577   5.990   4.397 -0.6495 -0.3022  0.7081
  595MOL0     C80236   6.437   5.958   4.392  0.4933 -0.2760 -0.1844
  595MOL0     O80237   6.247   5.756   4.561 -0.3414  0.0112 -0.0721
  595MOL0     C80238   5.965   5.715   4.602  0.7311 -0.4751 -0.1324
  595MOL0     C80239   5.826   5.691   4.607 -0.3536  0.5188  0.0365
  595MOL0     N80240   5.103   6.158   4.513 -0.0595  0.1329  0.6390
  595MOL0     N80241   5.022   6.246   4.469 -0.2459  0.4379 -1.1907
  595MOL0     C80242   3.978   6.800   4.819  1.2344  0.0105 -0.4109
  595MOL0     C80243   3.861   6.880   4.817  0.4153 -0.2383  0.4796
  595MOL0     C80244   3.602   7.234   4.955 -0.4892 -0.6710  0.7027
  595MOL0     C80245   3.490   7.183   4.888  0.1123 -0.3400  0.4693
  595MOL0     C80246   3.362   7.241   4.881 -0.7092 -0.0998 -0.3123
  595MOL0     C80247   3.349   7.359   4.958  0.5141 -0.4748 -0.6763
  595MOL0     O80248   3.226   7.418   4.973 -0.4682  0.1169 -0.2778
  595MOL0     C80249   3.152   7.367   5.087  0.6719  0.2380  0.2015
  595MOL0     C80250   3.048   7.269   5.031 -0.5723  0.7947  0.4502
  595MOL0     C80251   2.959   7.209   5.141 -0.6496  0.6271 -0.1740
  595MOL0     C80252   2.830   7.166   5.081 -0.4373  0.9999 -0.1971
  595MOL0     C80253   2.746   7.081   5.163 -0.1278  0.8484  0.0484
  595MOL0     C80254   2.669   7.004   5.229 -0.8199  0.2024  0.4506
  595MOL0     C80255   3.459   7.414   5.020  0.5873  0.2414 -0.3469
  595MOL0     C80256   3.579   7.352   5.032 -0.2523  0.5681 -1.3092
  595MOL0     C80257   3.695   7.416   5.119  1.1444 -0.2042  0.2430
  595MOL0     H80258   4.019   7.174   4.837 -2.2392 -0.8041  1.4470
  595MOL0     H80259   4.217   7.024   4.816 -0.7789  3.5861 -1.1031
  595MOL0     H80260   4.167   6.606   4.666  2.1108 -1.9450  2.1747
  595MOL0     H80261   4.173   6.764   4.590  0.5008  2.3417  1.9310
  595MOL0     H80262   4.422   6.755   4.637  1.5523  0.0564 -2.5194
  595MOL0     H80263   4.359   6.627   4.529 -0.8373 -0.0980  0.1286
  595MOL0     H80264   4.339   6.477   4.737 -0.7195  0.7782 -2.6265
  595MOL0     H80265   4.406   6.609   4.829 -3.4066 -1.5862  1.0240
  595MOL0     H80266   4.595   6.588   4.637 -2.1231  0.9347 -0.9249
  595MOL0     H80267   4.600   6.487   4.782 -2.9919 -2.1082  0.8639
  595MOL0     H80268   4.536   6.296   4.673  0.3761  0.5287  0.1716
  595MOL0     H80269   4.475   6.388   4.524 -0.9383 -0.3286  1.7681
  595MOL0     H80270   4.726   6.460   4.500  0.2656  0.6389  4.2970
  595MOL0     H80271   4.760   6.325   4.601 -0.1280  0.8806  1.0747
  595MOL0     H80272   4.610   6.289   4.348 -1.6138  2.3187  2.7529
  595MOL0     H80273   4.661   6.163   4.465 -0.8260  0.7886  0.2976
  595MOL0     H80274   4.811   6.180   4.246  2.6447  1.7573 -1.3499
  595MOL0     H80275   4.843   6.342   4.309  0.9144  1.6732  3.1573
  595MOL0     H80276   4.880   5.964   4.376 -0.8230 -0.7451  1.1776
  595MOL0     H80277   5.121   5.883   4.618 -1.6436 -1.8566 -0.5131
  595MOL0     H80278   5.098   5.817   4.455 -1.3034  0.3272  0.8089
  595MOL0     H80279   5.299   5.916   4.378 -1.0807  2.7929 -0.3046
  595MOL0     H80280   5.327   6.008   4.534 -1.8342 -0.7871  0.6156
  595MOL0     H80281   5.346   5.702   4.517 -0.4168 -0.1983  1.4232
  595MOL0     H80282   5.403   5.805   4.640 -1.4119 -0.2610  0.1878
  595MOL0     H80283   5.550   5.942   4.481  1.4438  0.7753  3.0837
  595MOL0     H80284   5.535   5.791   4.384 -0.2881 -2.5633  1.3972
  595MOL0     H80285   5.743   5.961   4.424  1.6702  1.4569 -1.8798
  595MOL0     H80286   5.983   6.007   4.419  0.6855 -0.1295  0.5412
  595MOL0     H80287   6.371   6.044   4.717  1.2882  1.3112  0.3621
  595MOL0     H80288   6.628   6.049   4.729  0.6127 -0.0900 -0.0276
  595MOL0     H80289   6.796   6.220   4.616  0.5194  0.7935 -1.6698
  595MOL0     H80290   6.865   6.097   4.710  0.0183  0.9036  1.0611
  595MOL0     H80291   7.043   6.229   4.615  0.6360 -0.0828 -1.1292
  595MOL0     H80292   7.054   6.067   4.537  5.2722  3.0457 -2.1786
  595MOL0     H80293   6.889   6.269   4.393 -0.4264 -0.0604 -0.4885
  595MOL0     H80294   7.055   6.319   4.414 -1.8422  1.1376 -0.2709
  595MOL0     H80295   7.002   6.174   4.204  1.2055 -1.7119  0.6392
  595MOL0     H80296   6.958   6.046   4.304  0.3888 -1.4281  1.4796
  595MOL0     H80297   7.173   6.018   4.222  0.0946 -0.6970  0.6590
  595MOL0     H80298   7.213   6.073   4.394 -0.1814  1.9443  0.9262
  595MOL0     H80299   7.213   6.230   4.127 -0.6863  0.8465  0.6446
  595MOL0     H80300   7.281   6.298   4.274  1.4753 -1.2212  1.7717
  595MOL0     H80301   7.389   6.067   4.111 -3.0185  1.6563 -1.3595
  595MOL0     H80302   7.438   6.095   4.286  1.2214 -0.7261 -0.3771
  595MOL0     H80303   7.500   6.290   4.073 -0.5518 -3.3364  0.3736
  595MOL0     H80304   7.510   6.322   4.255  2.6544  1.8777 -0.8568
  595MOL0     H80305   6.627   5.988   4.301 -1.1658 -4.5081  0.3190
  595MOL0     H80306   6.376   5.931   4.306  2.8985 -1.1007 -1.7631
  595MOL0     H80307   6.029   5.645   4.654  0.7508 -1.3141 -1.2294
  595MOL0     H80308   5.791   5.603   4.660  1.4913  0.0970  0.6610
  595MOL0     H80309   3.974   6.692   4.820  0.3812  0.0380  0.0686
  595MOL0     H80310   3.765   6.831   4.807 -0.4231  0.6890  3.1937
  595MOL0     H80311   3.505   7.094   4.828  1.1439  0.0085  0.1893
  595MOL0     H80312   3.274   7.193   4.839 -1.2895  0.5876  0.0969
  595MOL0     H80313   3.110   7.449   5.146 -0.3733  0.2498 -0.5189
  595MOL0     H80314   3.213   7.303   5.151 -0.0680 -0.1627  0.5124
  595MOL0     H80315   3.105   7.195   4.974 -2.1284  1.4047 -2.0669
  595MOL0     H80316   2.990   7.331   4.962  0.4636 -0.5001 -1.6941
  595MOL0     H80317   2.933   7.275   5.224 -0.1089 -1.3284  1.6462
  595MOL0     H80318   3.011   7.121   5.179  1.5126  2.4919  1.5554
  595MOL0     H80319   2.760   7.247   5.057 -1.6076 -0.1518 -0.7563
  595MOL0     H80320   2.858   7.113   4.990  0.9387  1.6889 -0.1893
  595MOL0     H80321   2.601   6.933   5.272 -2.0682  1.1461  0.0984
  595MOL0     H80322   3.453   7.515   5.060  0.0664 -0.4818  1.5173
  595MOL0     H80323   3.787   7.411   5.059  1.8862 -0.1352  1.3449
  595MOL0     H80324   3.670   7.522   5.134 -0.5217 -0.7397  1.6234
  595MOL0     H80325   3.729   7.359   5.206  0.5641 -1.5751 -0.4042
  596MOL0     O80326   5.468  10.070   3.740  0.1905  0.2294 -0.2792
  596MOL0     C80327   5.443  10.145   3.644  0.3582 -0.1653 -0.2365
  596MOL0     O80328   5.532  10.231   3.589  0.7419  0.6580  0.2537
  596MOL0     C80329   5.657  10.215   3.633 -0.7861  0.0591 -0.4804
  596MOL0     C80330   5.767  10.137   3.575  0.3681  0.9504 -0.2427
  596MOL0     C80331   5.901  10.145   3.620  0.0247  0.0286  0.2314
  596MOL0     C80332   5.929  10.219   3.727 -0.7073 -0.6416  0.4820
  596MOL0     O80333   6.064  10.251   3.757 -0.3660  0.3805  0.5940
  596MOL0     C80334   6.153  10.274   3.650 -1.5091 -0.8856  0.3000
  596MOL0     C80335   6.272  10.357   3.684 -0.6882 -0.5472  0.1504
  596MOL0     C80336   6.346  10.306   3.811 -0.4838  0.2075  0.0068
  596MOL0     C80337   6.497  10.349   3.806 -0.1269  0.8107 -0.1566
  596MOL0     C80338   6.581  10.286   3.921  0.0912  0.5476  0.2975
  596MOL0     C80339   6.737  10.266   3.887  0.1452  0.5272 -0.3990
  596MOL0     C80340   6.813  10.396   3.861  0.6463  0.4379 -0.4066
  596MOL0     C80341   6.959  10.375   3.907 -0.6428 -1.0156  0.8167
  596MOL0     N80342   7.030  10.505   3.905 -0.0163 -0.9873  0.5149
  596MOL0     C80343   7.017  10.595   4.011 -0.8836  0.4003  1.0094
  596MOL0     C80344   7.125  10.674   3.997  0.2417  0.8039  0.4154
  596MOL0     C80345   7.158  10.774   4.106  0.8501  0.5406  0.0670
  596MOL0     C80346   7.297  10.749   4.168 -0.5844  0.1568 -0.0979
  596MOL0     C80347   7.336  10.854   4.269 -1.0535 -0.0303  0.5824
  596MOL0     C80348   7.453  10.809   4.358 -0.2305 -0.8831  0.2770
  596MOL0     O80349   7.400  10.719   4.458  0.1245  0.6239  0.2173
  596MOL0     C80350   7.479  10.695   4.570 -0.4899 -0.6265  0.0481
  596MOL0     C80351   7.414  10.668   4.695 -0.1703 -0.6000  0.4351
  596MOL0     C80352   7.475  10.637   4.815  0.4084 -0.0856 -0.5553
  596MOL0     C80353   7.622  10.630   4.817 -0.3393 -0.7808 -0.1634
  596MOL0     C80354   7.692  10.572   4.930 -0.2226  0.8697 -0.2952
  596MOL0     O80355   7.813  10.528   4.898 -0.2495 -0.4533  0.0100
  596MOL0     C80356   7.892  10.466   4.995  1.2668  0.5533  0.5116
  596MOL0     C80357   7.925  10.514   5.121 -0.0557 -0.0467 -0.4259
  596MOL0     C80358   8.015  10.448   5.202  0.6367  0.1340 -1.2189
  596MOL0     C80359   8.071  10.323   5.171  0.4658 -0.4555  0.3237
  596MOL0     O80360   8.175  10.269   5.237 -0.0617  0.2649 -0.4518
  596MOL0     C80361   8.226  10.332   5.355  0.3936 -0.0624 -0.2348
  596MOL0     C80362   8.352  10.253   5.407  0.0293 -0.2954 -0.2386
  596MOL0     C80363   8.458  10.317   5.487 -0.3023  0.3791 -0.7263
  596MOL0     C80364   8.597  10.254   5.506 -0.1001  0.2572 -0.4545
  596MOL0     C80365   8.689  10.275   5.391  0.2285  0.7697  0.6021
  596MOL0     C80366   8.812  10.193   5.408  0.1532  0.6735 -0.9174
  596MOL0     C80367   8.909  10.201   5.286 -0.4467 -0.5218 -0.6081
  596MOL0     C80368   9.033  10.110   5.292  0.3223  0.7022 -0.1199
  596MOL0    Cl80369   9.142  10.146   5.431  0.4754 -0.6558 -0.3382
  596MOL0     C80370   8.028  10.277   5.041 -0.1417 -0.1042 -0.3930
  596MOL0     C80371   7.948  10.348   4.952  1.1707  0.0380 -1.1752
  596MOL0     O80372   7.648  10.579   5.044 -0.0746 -0.9704  0.5054
  596MOL0     C80373   7.686  10.654   4.692 -0.6929 -0.3368  0.2567
  596MOL0     C80374   7.619  10.681   4.570 -0.4330 -0.1650 -0.1483
  596MOL0     N80375   7.200  10.650   3.884 -1.0415 -0.0640 -0.8447
  596MOL0     N80376   7.135  10.548   3.831 -1.1329 -0.3942 -0.4285
  596MOL0     C80377   5.830  10.289   3.803 -0.4103 -0.0349  0.2029
  596MOL0     C80378   5.699  10.293   3.751 -0.1069  0.3967  0.1479
  596MOL0     C80379   5.302  10.157   3.592 -1.2219  0.4058 -1.0781
  596MOL0     C80380   5.226  10.037   3.613 -0.0915  0.1014  0.8205
  596MOL0     C80381   5.085  10.041   3.591  0.7347 -0.2801  0.0165
  596MOL0     C80382   5.024  10.154   3.545 -0.0059  0.2160  0.7296
  596MOL0     O80383   4.887  10.152   3.528 -0.1245 -0.1630  1.1826
  596MOL0     C80384   4.837  10.276   3.486  0.9228  0.2042 -0.1005
  596MOL0     C80385   4.680  10.292   3.483  0.2842 -0.0672 -0.3073
  596MOL0     C80386   4.613  10.203   3.391  0.2306 -1.1217  0.0291
  596MOL0     C80387   4.459  10.222   3.391  0.0444 -0.1721 -0.0609
  596MOL0     C80388   4.417  10.134   3.286  0.1774 -0.1722 -0.2502
  596MOL0     C80389   4.359  10.086   3.192 -0.1153  0.3822  0.8231
  596MOL0     C80390   5.107  10.271   3.542  0.2582  0.7634  0.3378
  596MOL0     C80391   5.240  10.275   3.562 -0.0525 -0.7933  0.6748
  596MOL0     C80392   5.305  10.414   3.569  0.2543 -0.1305  0.5426
  596MOL0     H80393   5.735  10.075   3.491 -4.0981  0.5151  1.4876
  596MOL0     H80394   5.979  10.106   3.555 -0.7514  0.2976 -0.8873
  596MOL0     H80395   6.197  10.177   3.626 -1.8244 -1.1456  0.7653
  596MOL0     H80396   6.112  10.316   3.557 -0.4683  1.3367  0.7711
  596MOL0     H80397   6.227  10.456   3.698 -1.1401 -0.1548 -3.2958
  596MOL0     H80398   6.341  10.363   3.599 -0.2061 -0.1479  0.5539
  596MOL0     H80399   6.343  10.197   3.810 -0.1150  0.1936 -1.8440
  596MOL0     H80400   6.299  10.337   3.905 -1.3226 -0.5263 -0.1562
  596MOL0     H80401   6.545  10.331   3.709  1.4216 -0.7716  0.8545
  596MOL0     H80402   6.492  10.456   3.826  1.5861  0.9962 -0.5561
  596MOL0     H80403   6.567  10.349   4.010 -0.9953 -1.3421  1.5411
  596MOL0     H80404   6.552  10.187   3.956  2.1248  0.1132  0.8720
  596MOL0     H80405   6.767  10.211   3.977  0.5709 -0.0023 -0.8645
  596MOL0     H80406   6.743  10.206   3.796  0.2849  2.4048 -1.6812
  596MOL0     H80407   6.770  10.484   3.911  1.1375 -0.6185  2.0678
  596MOL0     H80408   6.821  10.409   3.753 -0.1212 -2.8609 -0.9641
  596MOL0     H80409   6.959  10.334   4.008  0.5312  0.5560  1.4997
  596MOL0     H80410   7.009  10.310   3.835 -0.4617 -0.6232  0.5839
  596MOL0     H80411   6.950  10.600   4.096  0.0868 -2.5477  2.0640
  596MOL0     H80412   7.147  10.875   4.067 -1.2108  0.9719  1.5765
  596MOL0     H80413   7.083  10.765   4.185  1.3953 -1.9147  0.3980
  596MOL0     H80414   7.289  10.652   4.217 -1.2204 -0.2807 -1.0314
  596MOL0     H80415   7.368  10.737   4.086 -1.9551 -0.2494 -1.2812
  596MOL0     H80416   7.253  10.859   4.341 -1.0618 -3.7426  1.0424
  596MOL0     H80417   7.369  10.948   4.224  3.2151 -1.9870 -0.8531
  596MOL0     H80418   7.473  10.905   4.408 -3.5078  0.6891 -1.1243
  596MOL0     H80419   7.533  10.772   4.294 -0.8322 -1.1494 -0.3270
  596MOL0     H80420   7.310  10.699   4.685  0.6286  1.9864 -0.7734
  596MOL0     H80421   7.422  10.625   4.909 -1.9264 -0.4530 -1.8676
  596MOL0     H80422   7.867  10.603   5.145 -2.5426 -1.6941  0.1022
  596MOL0     H80423   8.037  10.515   5.285 -0.6818 -0.4780 -0.3473
  596MOL0     H80424   8.246  10.437   5.334 -1.9643  0.6301  0.6214
  596MOL0     H80425   8.155  10.327   5.438 -0.9088  0.1782 -1.3053
  596MOL0     H80426   8.305  10.171   5.462 -1.6318  0.7472 -0.0274
  596MOL0     H80427   8.411  10.208   5.326  0.6169  0.5258 -0.2745
  596MOL0     H80428   8.474  10.422   5.460 -1.4864  0.8798  0.3945
  596MOL0     H80429   8.426  10.324   5.592  0.6676 -0.7203 -0.3412
  596MOL0     H80430   8.594  10.147   5.529  3.9672 -0.3726 -1.8816
  596MOL0     H80431   8.633  10.299   5.600  0.2145 -3.7808  1.5628
  596MOL0     H80432   8.708  10.381   5.372 -1.8641  0.7787 -1.9448
  596MOL0     H80433   8.636  10.248   5.300 -0.1929  1.1357  0.7375
  596MOL0     H80434   8.872  10.222   5.495 -0.0020  0.2082 -0.6554
  596MOL0     H80435   8.774  10.092   5.422 -1.1109  1.4278  1.7493
  596MOL0     H80436   8.946  10.303   5.272  1.9628 -1.0938  0.9550
  596MOL0     H80437   8.845  10.161   5.206 -3.0631 -0.0204  1.1069
  596MOL0     H80438   8.992  10.011   5.316  5.5812 -1.5325  0.9349
  596MOL0     H80439   9.087  10.117   5.197  1.8544 -1.5019  0.5272
  596MOL0     H80440   8.075  10.188   4.998 -0.7937 -0.1617 -1.0089
  596MOL0     H80441   7.917  10.312   4.854 -4.4489 -0.0958  0.2827
  596MOL0     H80442   7.793  10.638   4.690 -0.7969 -1.5720  2.4497
  596MOL0     H80443   7.662  10.695   4.472 -2.0812  0.4760 -0.8098
  596MOL0     H80444   5.863  10.339   3.893  0.6814  0.9659 -0.7091
  596MOL0     H80445   5.615  10.334   3.806 -1.5293  2.3880 -3.2000
  596MOL0     H80446   5.259   9.941   3.652  0.9003  0.7537  1.6627
  596MOL0     H80447   5.029   9.948   3.599  0.2793  0.1641  3.1984
  596MOL0     H80448   4.867  10.290   3.381 -3.8264 -2.2539 -2.1008
  596MOL0     H80449   4.862  10.365   3.545 -0.8202  1.1536 -0.6818
  596MOL0     H80450   4.649  10.395   3.462 -0.6355 -0.5251 -1.2997
  596MOL0     H80451   4.640  10.270   3.583  0.5149 -0.6794 -0.3456
  596MOL0     H80452   4.637  10.097   3.404 -2.2721 -1.6503  0.8227
  596MOL0     H80453   4.650  10.216   3.289 -1.0097  2.0409 -0.1344
  596MOL0     H80454   4.414  10.191   3.485  1.0031  0.6599  0.6905
  596MOL0     H80455   4.424  10.322   3.365 -1.6278 -0.4473  1.0261
  596MOL0     H80456   4.310  10.031   3.114 -1.9366  0.9064  1.5669
  596MOL0     H80457   5.069  10.368   3.511 -1.1551 -0.3275 -1.6086
  596MOL0     H80458   5.413  10.428   3.557  0.1964  1.1637  1.4292
  596MOL0     H80459   5.267  10.478   3.489  3.5332  1.5394  0.1416
  596MOL0     H80460   5.286  10.462   3.665  0.5772  2.4026 -0.5918
  597MOL0     O80461   4.245   6.984  10.532 -0.4772 -0.3266  0.3497
  597MOL0     C80462   4.141   6.934  10.566 -0.2694  0.6508 -0.2458
  597MOL0     O80463   4.140   6.830  10.647  0.5887  0.3637  0.0381
  597MOL0     C80464   4.248   6.782  10.706  0.3499 -0.4069  0.9026
  597MOL0     C80465   4.283   6.821  10.836 -0.7491 -0.2290  0.6635
  597MOL0     C80466   4.388   6.760  10.908  0.4591  0.2612  0.0335
  597MOL0     C80467   4.452   6.654  10.845 -0.4460 -0.0849 -0.5291
  597MOL0     O80468   4.545   6.581  10.908 -0.0098 -0.0009 -0.2164
  597MOL0     C80469   4.652   6.509  10.842 -0.7307 -0.3251 -0.4189
  597MOL0     C80470   4.754   6.465  10.949  0.4560 -0.4492  0.4310
  597MOL0     C80471   4.707   6.339  11.030 -0.9133 -0.7361 -1.0480
  597MOL0     C80472   4.595   6.380  11.125  0.3827 -0.6100 -0.6990
  597MOL0     C80473   4.586   6.260  11.221 -0.1602 -1.3432 -0.2120
  597MOL0     C80474   4.429   6.244  11.262 -0.3331 -0.0139 -0.4655
  597MOL0     C80475   4.371   6.159  11.147 -0.6158  0.1909 -0.0243
  597MOL0     C80476   4.265   6.053  11.194 -0.3474 -0.5770 -0.3726
  597MOL0     N80477   4.177   5.997  11.088  0.1921 -1.2412  0.0609
  597MOL0     C80478   4.154   6.047  10.966 -1.1150  0.2242  0.7931
  597MOL0     C80479   4.063   5.969  10.908  0.2403  0.1751  0.0747
  597MOL0     C80480   3.992   5.994  10.772  0.5750 -0.0605  0.0422
  597MOL0     C80481   4.090   5.943  10.666  0.3585  0.1329 -0.1058
  597MOL0     C80482   4.011   5.942  10.533 -0.4236  0.1799 -0.4566
  597MOL0     C80483   4.116   5.918  10.425 -0.5048 -0.1675 -0.0872
  597MOL0     O80484   4.164   5.783  10.437 -0.6230 -0.3591  1.0309
  597MOL0     C80485   4.299   5.757  10.410  0.1927 -0.1735 -0.8048
  597MOL0     C80486   4.372   5.662  10.481 -0.3657  0.6722  0.9628
  597MOL0     C80487   4.511   5.634  10.462  0.5408 -0.3994  0.6325
  597MOL0     C80488   4.583   5.701  10.353  0.0588  0.7105 -1.2624
  597MOL0     C80489   4.716   5.651  10.307 -0.2805 -0.0595  0.2058
  597MOL0     O80490   4.772   5.558  10.380 -0.6399  0.4479  0.1846
  597MOL0     C80491   4.907   5.532  10.380 -0.3013 -0.0006 -0.2027
  597MOL0     C80492   4.999   5.581  10.285 -0.5862 -1.3708  0.7255
  597MOL0     C80493   5.133   5.536  10.289  0.6765  0.8168 -0.4537
  597MOL0     C80494   5.168   5.465  10.397  0.5849 -0.4643  0.2404
  597MOL0     O80495   5.298   5.430  10.402 -0.6353 -0.1166 -0.8761
  597MOL0     C80496   5.399   5.527  10.372  0.2625 -0.3023 -0.2361
  597MOL0     C80497   5.518   5.500  10.458 -0.3289 -0.9973 -0.3214
  597MOL0     C80498   5.513   5.562  10.596  0.0223 -0.2079  0.1304
  597MOL0     C80499   5.472   5.451  10.699 -0.8518  0.2964  0.4000
  597MOL0     C80500   5.454   5.492  10.847 -0.9175  0.9495  0.0301
  597MOL0     C80501   5.360   5.608  10.858 -0.1910  0.7972 -0.1204
  597MOL0     C80502   5.224   5.592  10.803  0.5981 -0.1083 -0.4076
  597MOL0     C80503   5.154   5.723  10.819 -0.3730  0.1084  0.3297
  597MOL0    Cl80504   4.992   5.715  10.778  0.5548 -0.1129 -0.0412
  597MOL0     C80505   5.080   5.427  10.500 -0.8110  0.9934  0.3957
  597MOL0     C80506   4.950   5.456  10.490  0.1350 -0.3224 -0.3013
  597MOL0     O80507   4.759   5.698  10.200  0.3054  0.3832  0.1503
  597MOL0     C80508   4.510   5.797  10.281  0.2156 -0.0982 -0.0286
  597MOL0     C80509   4.374   5.838  10.322 -0.2846 -0.4231  0.1831
  597MOL0     N80510   4.025   5.877  11.006  0.7390 -0.1506  0.8217
  597MOL0     N80511   4.085   5.897  11.111 -0.6568  0.2668  0.0852
  597MOL0     C80512   4.414   6.610  10.715  0.0740  0.6399 -0.2189
  597MOL0     C80513   4.323   6.683  10.650  0.4509 -0.1788  0.0798
  597MOL0     C80514   4.012   6.989  10.529 -0.1345 -0.7397 -0.0503
  597MOL0     C80515   3.898   6.965  10.609  1.0268  0.3309 -0.3343
  597MOL0     C80516   3.769   7.020  10.580  0.0420 -0.8288 -1.0293
  597MOL0     C80517   3.752   7.097  10.466  0.6606  0.7900  0.1184
  597MOL0     O80518   3.629   7.151  10.423  0.1035  0.6656 -0.2128
  597MOL0     C80519   3.505   7.125  10.483 -0.0917  0.8027  0.5505
  597MOL0     C80520   3.402   7.206  10.408 -1.1093  1.2066 -0.1054
  597MOL0     C80521   3.400   7.355  10.445 -0.1098  0.1189 -0.2704
  597MOL0     C80522   3.258   7.422  10.445 -0.4278  0.6040 -0.7355
  597MOL0     C80523   3.166   7.332  10.522  0.6275  0.0332 -0.1110
  597MOL0     C80524   3.104   7.252  10.592  0.8252 -0.4984 -0.4167
  597MOL0     C80525   3.869   7.119  10.391  0.5912 -0.1447  0.0459
  597MOL0     C80526   3.994   7.069  10.415  0.3899 -0.2599  0.0962
  597MOL0     C80527   4.108   7.118  10.322  0.1012 -0.7722 -0.8672
  597MOL0     H80528   4.223   6.895  10.889 -1.1888  0.9605 -1.3736
  597MOL0     H80529   4.413   6.772  11.013 -0.1689 -0.3640  0.2570
  597MOL0     H80530   4.617   6.428  10.778  0.1739 -0.6111 -0.5549
  597MOL0     H80531   4.700   6.586  10.782  0.2390  0.7089  1.5615
  597MOL0     H80532   4.777   6.546  11.018  0.7757  0.9632 -1.2573
  597MOL0     H80533   4.846   6.441  10.896  0.2123  1.2819 -0.8732
  597MOL0     H80534   4.792   6.304  11.090 -0.8978 -1.6104 -1.5571
  597MOL0     H80535   4.676   6.255  10.966 -1.6194 -0.2169 -1.4013
  597MOL0     H80536   4.619   6.477  11.168  1.9655 -1.6656  0.9273
  597MOL0     H80537   4.502   6.382  11.066  1.0126  1.9521 -1.7259
  597MOL0     H80538   4.622   6.163  11.187  2.6634 -0.6394  0.5396
  597MOL0     H80539   4.651   6.286  11.304  0.1093  2.5905 -1.4418
  597MOL0     H80540   4.433   6.196  11.360 -0.2580  0.7431 -0.0839
  597MOL0     H80541   4.368   6.335  11.266 -0.6570  0.0467 -3.7006
  597MOL0     H80542   4.444   6.106  11.085 -0.7069  2.7222 -2.4985
  597MOL0     H80543   4.335   6.234  11.076  1.2821  2.4653  1.2886
  597MOL0     H80544   4.315   5.967  11.239  0.5567 -0.4766 -1.1527
  597MOL0     H80545   4.211   6.109  11.271 -2.1636 -0.8661 -1.3800
  597MOL0     H80546   4.193   6.131  10.908 -1.7936  0.3236  0.4723
  597MOL0     H80547   3.897   5.943  10.755  0.9065 -1.7532  2.7931
  597MOL0     H80548   3.976   6.102  10.763 -1.0192 -0.1875  1.1095
  597MOL0     H80549   4.175   6.009  10.645 -2.1307  3.0301 -1.8816
  597MOL0     H80550   4.108   5.839  10.693 -1.6834 -0.6216 -1.4161
  597MOL0     H80551   3.966   6.040  10.520  0.5106  1.0199  1.9973
  597MOL0     H80552   3.928   5.871  10.532 -1.5979  1.5280 -0.9992
  597MOL0     H80553   4.198   5.990  10.414  0.9207 -1.9450 -1.8902
  597MOL0     H80554   4.056   5.922  10.334  0.9554 -0.0703 -1.0792
  597MOL0     H80555   4.310   5.602  10.547 -0.0833  1.1571  1.6878
  597MOL0     H80556   4.556   5.549  10.513  3.2702  0.6654  0.1894
  597MOL0     H80557   4.974   5.644  10.200 -0.7174 -2.0855  0.2232
  597MOL0     H80558   5.199   5.557  10.206 -0.1800  1.8618 -0.9087
  597MOL0     H80559   5.427   5.519  10.266 -1.2722 -2.6324 -0.5194
  597MOL0     H80560   5.371   5.632  10.383  1.7714 -0.1010  2.6789
  597MOL0     H80561   5.523   5.391  10.472 -0.6798 -0.9390  0.3020
  597MOL0     H80562   5.607   5.537  10.407  1.4091  0.1814  3.2309
  597MOL0     H80563   5.601   5.615  10.634 -0.6175  2.3028 -1.6282
  597MOL0     H80564   5.433   5.634  10.611 -1.7533 -2.6620  4.4141
  597MOL0     H80565   5.543   5.368  10.690 -0.1479  1.0248 -1.1468
  597MOL0     H80566   5.373   5.418  10.669 -0.4898 -0.3112 -0.1433
  597MOL0     H80567   5.551   5.509  10.895 -0.3979 -0.3434 -0.4949
  597MOL0     H80568   5.424   5.405  10.907  2.7968  0.4702  1.5184
  597MOL0     H80569   5.357   5.651  10.959 -0.0464  3.6878 -1.2384
  597MOL0     H80570   5.412   5.691  10.809  1.4015  0.1903  0.4535
  597MOL0     H80571   5.164   5.519  10.859 -0.8064 -0.1078 -1.8584
  597MOL0     H80572   5.231   5.565  10.698 -0.2875 -0.8914 -0.2813
  597MOL0     H80573   5.166   5.750  10.924  1.9332 -3.1340  1.0697
  597MOL0     H80574   5.212   5.794  10.760  1.0051 -0.9647  0.3434
  597MOL0     H80575   5.125   5.391  10.591 -0.2940  0.8169  0.0711
  597MOL0     H80576   4.879   5.432  10.567  0.9509  1.7576  1.1904
  597MOL0     H80577   4.558   5.857  10.205  1.3001  0.4355  1.0495
  597MOL0     H80578   4.330   5.923  10.270 -1.0641 -0.1789  1.2319
  597MOL0     H80579   4.464   6.530  10.662  0.7009  2.4299 -2.4552
  597MOL0     H80580   4.304   6.659  10.546  0.2456 -4.4521  0.9339
  597MOL0     H80581   3.907   6.902  10.697 -1.3402 -0.6108 -0.7076
  597MOL0     H80582   3.695   6.995  10.656 -0.5797  0.3220 -1.2299
  597MOL0     H80583   3.511   7.161  10.586 -1.1982  3.5698 -0.2480
  597MOL0     H80584   3.482   7.019  10.472  1.1554  0.7382 -2.5036
  597MOL0     H80585   3.306   7.156  10.420 -0.2734 -0.9137 -1.6169
  597MOL0     H80586   3.422   7.206  10.301  0.9844 -0.2600  0.2242
  597MOL0     H80587   3.469   7.403  10.376  1.7474 -1.9221  0.0579
  597MOL0     H80588   3.445   7.370  10.544 -1.0711  0.0312  0.1891
  597MOL0     H80589   3.262   7.514  10.503  1.7944 -0.7900  1.5420
  597MOL0     H80590   3.219   7.424  10.343  0.7514  3.2130 -1.2044
  597MOL0     H80591   3.033   7.199  10.652 -1.4130  1.8175 -0.8982
  597MOL0     H80592   3.867   7.185  10.305  4.4191 -2.1939 -1.8670
  597MOL0     H80593   4.171   7.184  10.383 -4.5504  3.3489  0.1807
  597MOL0     H80594   4.165   7.033  10.284  0.5775  0.2650 -2.6280
  597MOL0     H80595   4.062   7.182  10.246  0.3602 -0.3456 -0.6752
  598MOL0     O80596  10.214   6.525   9.025  0.3421  0.6210  0.1051
  598MOL0     C80597  10.176   6.596   9.119  0.2967 -0.0610  0.0734
  598MOL0     O80598  10.256   6.656   9.211  0.1988  0.3138  0.5359
  598MOL0     C80599  10.384   6.690   9.163 -0.2012  1.0482 -0.0073
  598MOL0     C80600  10.399   6.799   9.075 -0.5527  0.7636  0.1538
  598MOL0     C80601  10.529   6.843   9.029  0.6763 -0.4311 -0.5419
  598MOL0     C80602  10.640   6.780   9.086 -0.7957 -0.3289  0.0850
  598MOL0     O80603  10.777   6.810   9.061 -0.2505 -0.0316  0.5978
  598MOL0     C80604  10.806   6.912   8.970 -0.1252 -0.5287 -0.4324
  598MOL0     C80605  10.963   6.941   8.965  0.7258  1.3333  0.7974
  598MOL0     C80606  11.026   7.016   9.089 -0.1174  0.9005  0.3599
  598MOL0     C80607  11.164   7.057   9.072 -0.4261  0.3877 -0.6199
  598MOL0     C80608  11.258   6.929   9.054  0.0312  0.8440  0.4340
  598MOL0     C80609  11.400   6.974   9.001 -0.7675  1.0179 -0.2215
  598MOL0     C80610  11.435   6.949   8.851  0.3211 -0.1667 -1.0528
  598MOL0     C80611  11.565   7.013   8.816 -0.2773  0.4958  1.2736
  598MOL0     N80612  11.681   6.929   8.858  0.1046 -0.0762  0.6742
  598MOL0     C80613  11.804   6.933   8.791 -0.8692  0.0011 -0.1728
  598MOL0     C80614  11.880   6.837   8.841  0.3790  0.6393  0.5405
  598MOL0     C80615  12.028   6.801   8.823  0.8848  0.5094 -0.1716
  598MOL0     C80616  12.061   6.658   8.854 -1.1336  1.0784  0.1925
  598MOL0     C80617  12.205   6.619   8.800  0.7529  0.5034 -0.9876
  598MOL0     C80618  12.312   6.704   8.869  0.3517  0.9740  0.5703
  598MOL0     O80619  12.433   6.657   8.802 -0.2906  0.2846  0.0787
  598MOL0     C80620  12.535   6.628   8.891  0.6610 -0.1292 -0.4813
  598MOL0     C80621  12.610   6.512   8.870  1.1899 -0.3877  0.3174
  598MOL0     C80622  12.707   6.470   8.960 -0.5554  0.4937 -1.2524
  598MOL0     C80623  12.726   6.544   9.076 -0.6463 -0.3453 -1.0868
  598MOL0     C80624  12.836   6.505   9.172 -0.1980 -0.5570 -1.0013
  598MOL0     O80625  12.908   6.617   9.221 -0.3800  0.9668 -0.7061
  598MOL0     C80626  13.022   6.587   9.292  0.5922  0.3483 -1.3020
  598MOL0     C80627  13.125   6.682   9.283  1.2095 -0.7057 -0.0761
  598MOL0     C80628  13.248   6.677   9.359 -0.5748  0.2620  0.0180
  598MOL0     C80629  13.265   6.563   9.445 -0.1764 -0.3710  0.7085
  598MOL0     O80630  13.366   6.544   9.536 -0.1325 -0.2935 -0.2016
  598MOL0     C80631  13.489   6.585   9.474 -0.2310  0.4103 -0.1596
  598MOL0     C80632  13.613   6.576   9.563 -0.0628  0.7198 -0.6530
  598MOL0     C80633  13.610   6.687   9.675  0.7049 -0.4165  0.5080
  598MOL0     C80634  13.737   6.677   9.761  0.5023  0.0492 -0.5353
  598MOL0     C80635  13.752   6.800   9.848 -0.1493 -0.7844  0.0405
  598MOL0     C80636  13.848   6.914   9.779  0.2597 -0.0357  0.6414
  598MOL0     C80637  13.901   7.018   9.878  0.8068  1.2496  0.7131
  598MOL0     C80638  13.990   6.947   9.985  0.5086 -0.3324  0.1579
  598MOL0    Cl80639  14.125   6.860   9.911 -0.0373 -0.1294 -0.1284
  598MOL0     C80640  13.160   6.472   9.453 -0.0816 -0.1842 -0.2762
  598MOL0     C80641  13.044   6.471   9.374  0.3130 -0.3817 -0.2247
  598MOL0     O80642  12.872   6.384   9.164 -0.6024 -0.6247 -0.5575
  598MOL0     C80643  12.652   6.658   9.109  0.2575 -0.1999 -0.8665
  598MOL0     C80644  12.547   6.693   9.021  0.0976  0.5858 -0.8274
  598MOL0     N80645  11.792   6.763   8.925 -0.1599  0.7906 -0.3253
  598MOL0     N80646  11.674   6.816   8.933  0.1717  0.1942  0.3396
  598MOL0     C80647  10.631   6.669   9.170 -0.2690 -1.1366 -0.2905
  598MOL0     C80648  10.503   6.623   9.209  0.6239 -1.0636  0.7710
  598MOL0     C80649  10.033   6.609   9.134  0.5595 -0.8216 -0.7973
  598MOL0     C80650   9.957   6.487   9.119 -0.6704  0.1911  0.1410
  598MOL0     C80651   9.820   6.493   9.144  0.1531 -0.0036 -0.4776
  598MOL0     C80652   9.758   6.621   9.179  0.5766  0.4114  0.1015
  598MOL0     O80653   9.625   6.627   9.225 -0.2802  0.4949  0.3531
  598MOL0     C80654   9.545   6.512   9.247 -0.5820  0.1433  0.2005
  598MOL0     C80655   9.414   6.530   9.175  0.1481  0.7250  0.4495
  598MOL0     C80656   9.417   6.531   9.023  0.4486 -0.2074  0.6548
  598MOL0     C80657   9.272   6.557   8.959 -0.3794 -0.2863  0.2220
  598MOL0     C80658   9.204   6.432   8.926 -0.5202 -1.0999  0.6421
  598MOL0     C80659   9.147   6.327   8.898  0.4760 -0.0965  0.3020
  598MOL0     C80660   9.838   6.734   9.185  0.5495  0.9593 -0.3106
  598MOL0     C80661   9.972   6.736   9.151 -0.2986 -0.1270 -0.0136
  598MOL0     C80662  10.046   6.871   9.129 -0.1463 -0.7563 -0.0898
  598MOL0     H80663  10.312   6.856   9.043 -0.1516  0.2532 -2.0404
  598MOL0     H80664  10.521   6.905   8.940  3.2131 -1.3819 -1.5198
  598MOL0     H80665  10.763   6.897   8.870  0.4889  2.2154 -1.1884
  598MOL0     H80666  10.751   6.999   9.008  0.2498 -0.7434  0.6373
  598MOL0     H80667  10.970   7.004   8.876  0.3668 -1.0037 -0.9800
  598MOL0     H80668  11.008   6.845   8.939  0.1402  1.0722  0.7575
  598MOL0     H80669  11.018   6.947   9.173 -1.7971 -0.1455 -0.5963
  598MOL0     H80670  10.958   7.097   9.118 -0.5440  0.2340  1.2559
  598MOL0     H80671  11.170   7.124   8.986  0.6540  0.2809 -0.6431
  598MOL0     H80672  11.208   7.113   9.156  0.2757  0.4114 -0.9961
  598MOL0     H80673  11.266   6.874   9.148  0.8493 -1.3295 -0.8351
  598MOL0     H80674  11.211   6.861   8.982 -2.4839  5.0637 -2.3203
  598MOL0     H80675  11.395   7.083   9.013  1.2993  1.1833 -0.5932
  598MOL0     H80676  11.471   6.915   9.060 -1.1338  1.3225  0.5423
  598MOL0     H80677  11.352   6.974   8.785 -0.7344 -1.5596 -0.3309
  598MOL0     H80678  11.454   6.842   8.838  4.2150 -0.5363  4.3411
  598MOL0     H80679  11.569   7.023   8.707 -2.6615  1.8968  1.2533
  598MOL0     H80680  11.567   7.115   8.854 -4.6014  2.4253 -2.7019
  598MOL0     H80681  11.841   7.009   8.722  0.1274 -2.5380 -2.6282
  598MOL0     H80682  12.058   6.818   8.719 -1.8074  0.0717 -1.0968
  598MOL0     H80683  12.074   6.873   8.892  0.7599  0.0719  0.3798
  598MOL0     H80684  12.061   6.640   8.962  1.6270  0.1100  0.1205
  598MOL0     H80685  11.995   6.592   8.798  1.2701 -1.9343  0.6504
  598MOL0     H80686  12.205   6.632   8.692  3.8550  0.7266 -1.0707
  598MOL0     H80687  12.230   6.519   8.838  1.0622  0.8117 -0.3568
  598MOL0     H80688  12.302   6.701   8.978  0.7136 -1.1628  0.5942
  598MOL0     H80689  12.298   6.810   8.845 -0.7451  0.3655 -1.7928
  598MOL0     H80690  12.598   6.471   8.770  1.8426  0.4917 -0.1236
  598MOL0     H80691  12.766   6.379   8.948 -1.7345 -0.2701 -1.3488
  598MOL0     H80692  13.098   6.771   9.228 -0.1576 -0.1270  1.4285
  598MOL0     H80693  13.319   6.757   9.341  1.4485 -1.7801 -1.7517
  598MOL0     H80694  13.514   6.521   9.389  2.8013  1.1293  0.0743
  598MOL0     H80695  13.488   6.683   9.426  0.0614  0.0634 -0.8805
  598MOL0     H80696  13.621   6.472   9.598 -2.7456 -0.2135 -2.4761
  598MOL0     H80697  13.707   6.590   9.508 -0.5833  1.5812 -1.3432
  598MOL0     H80698  13.623   6.790   9.642 -0.3840  0.4785  2.6869
  598MOL0     H80699  13.518   6.677   9.733 -0.4773  0.0294 -1.1978
  598MOL0     H80700  13.821   6.659   9.694 -1.4050  1.7432 -3.6259
  598MOL0     H80701  13.733   6.588   9.824  3.5943  0.5021  0.4476
  598MOL0     H80702  13.791   6.772   9.946  0.4440  3.7943  1.3749
  598MOL0     H80703  13.654   6.847   9.861  0.1649  0.5438 -1.9834
  598MOL0     H80704  13.929   6.863   9.727  0.3412 -0.6914  1.3885
  598MOL0     H80705  13.782   6.968   9.710  1.2544  2.0410  1.2317
  598MOL0     H80706  13.825   7.076   9.931 -0.6884  1.0156 -1.0890
  598MOL0     H80707  13.970   7.080   9.820  0.0832 -0.5572 -2.3000
  598MOL0     H80708  14.041   7.023  10.045  0.2332 -0.6740  0.8341
  598MOL0     H80709  13.938   6.879  10.054  0.7833  0.4507  1.1627
  598MOL0     H80710  13.173   6.383   9.513  0.2438  1.3550  2.0445
  598MOL0     H80711  12.976   6.387   9.373  3.3312 -3.0464  0.0342
  598MOL0     H80712  12.674   6.718   9.197  0.2712 -0.2428 -0.8413
  598MOL0     H80713  12.488   6.780   9.048  1.2758  1.1254  0.1094
  598MOL0     H80714  10.710   6.612   9.216 -1.5578 -2.8172 -0.0681
  598MOL0     H80715  10.503   6.540   9.279 -1.3889  1.1427  3.6546
  598MOL0     H80716  10.014   6.396   9.106 -0.9650 -0.1051  0.8775
  598MOL0     H80717   9.780   6.395   9.164  1.2607 -0.5875 -1.0104
  598MOL0     H80718   9.510   6.513   9.351 -3.4199  0.4613 -0.6664
  598MOL0     H80719   9.584   6.413   9.225 -0.2322  0.4606 -0.6459
  598MOL0     H80720   9.356   6.617   9.206 -1.9986  0.0690 -1.4834
  598MOL0     H80721   9.354   6.445   9.209  0.6277  1.2655  2.8234
  598MOL0     H80722   9.461   6.437   8.989 -0.1517  0.1285 -1.1177
  598MOL0     H80723   9.490   6.607   8.995 -2.4172  2.8657  0.9475
  598MOL0     H80724   9.206   6.615   9.024  0.5372 -1.3189  2.1319
  598MOL0     H80725   9.274   6.621   8.870 -0.6450  1.1055  1.1943
  598MOL0     H80726   9.084   6.242   8.885  0.4412  0.1952 -1.8034
  598MOL0     H80727   9.785   6.828   9.190 -0.0722  0.5460  2.3000
  598MOL0     H80728   9.990   6.962   9.104  1.5173  1.7351  4.1749
  598MOL0     H80729  10.106   6.894   9.217 -2.8459 -0.0495  1.7204
  598MOL0     H80730  10.100   6.851   9.037 -2.1707 -1.1066 -1.2716
  599MOL0     O80731   3.451   5.592   6.175 -0.3931  0.7588  0.0540
  599MOL0     C80732   3.383   5.683   6.146  1.2280  0.2396 -0.6212
  599MOL0     O80733   3.422   5.816   6.129 -0.4953 -0.4186 -1.1339
  599MOL0     C80734   3.557   5.862   6.151  0.3926  0.1893  0.3957
  599MOL0     C80735   3.661   5.806   6.230  0.4053  0.3543 -0.5199
  599MOL0     C80736   3.774   5.879   6.245 -0.1311 -0.6597 -0.8542
  599MOL0     C80737   3.816   5.981   6.163  0.8838  0.3160 -1.2668
  599MOL0     O80738   3.939   6.025   6.196  0.9762 -0.0733  0.0680
  599MOL0     C80739   3.991   6.149   6.145  0.1949 -0.6931 -1.1166
  599MOL0     C80740   4.096   6.106   6.039  0.3836 -0.0783  0.0260
  599MOL0     C80741   4.241   6.137   6.085  0.5328 -0.0702 -0.3293
  599MOL0     C80742   4.338   6.087   5.990 -0.5158  1.0123 -0.2047
  599MOL0     C80743   4.481   6.107   6.038  0.4675 -0.2999 -0.5350
  599MOL0     C80744   4.583   6.020   5.951  0.2061 -0.0213 -0.0444
  599MOL0     C80745   4.725   6.050   5.980 -0.2797 -0.4777 -0.3850
  599MOL0     C80746   4.771   6.178   5.913 -0.0450  1.0354 -0.2959
  599MOL0     N80747   4.915   6.197   5.900 -0.4879 -0.6591  0.3653
  599MOL0     C80748   5.008   6.138   5.986 -0.4872  0.1462 -0.4778
  599MOL0     C80749   5.128   6.170   5.925 -0.1654  0.2093 -0.7040
  599MOL0     C80750   5.251   6.115   5.995  0.6425  0.0991 -0.9072
  599MOL0     C80751   5.375   6.146   5.912 -0.5169 -0.2296 -0.4741
  599MOL0     C80752   5.489   6.060   5.971 -0.3905  0.4065  0.9899
  599MOL0     C80753   5.611   6.092   5.889  0.2299 -0.1624  0.8611
  599MOL0     O80754   5.720   6.003   5.914  0.2982 -0.2359 -0.6758
  599MOL0     C80755   5.827   6.052   5.978 -0.9170  0.3470  0.2940
  599MOL0     C80756   5.950   5.982   5.955 -0.4558 -0.3340 -0.1761
  599MOL0     C80757   6.067   6.015   6.031  0.5236  0.3532  0.7205
  599MOL0     C80758   6.056   6.128   6.115  0.1463 -0.4806 -0.5678
  599MOL0     C80759   6.187   6.158   6.190  0.3212 -0.3409 -0.3625
  599MOL0     O80760   6.185   6.273   6.267 -0.6690 -0.7110 -0.0492
  599MOL0     C80761   6.292   6.304   6.345 -0.7455 -0.1692 -0.0055
  599MOL0     C80762   6.391   6.400   6.309 -0.7974 -0.7491 -0.0856
  599MOL0     C80763   6.512   6.400   6.382 -0.7846 -0.8055  0.4048
  599MOL0     C80764   6.531   6.328   6.495 -0.3591  0.6483  0.4329
  599MOL0     O80765   6.649   6.352   6.562 -0.4337  0.8231  0.0311
  599MOL0     C80766   6.676   6.281   6.686  0.2558  0.2187  0.5820
  599MOL0     C80767   6.810   6.315   6.740 -0.2580 -0.1796  0.2148
  599MOL0     C80768   6.817   6.431   6.840  1.6558 -0.9600  1.0552
  599MOL0     C80769   6.966   6.441   6.891  0.1078 -0.1913  0.1172
  599MOL0     C80770   6.986   6.563   6.980 -0.0892  0.7647 -1.0951
  599MOL0     C80771   7.130   6.571   7.017 -0.0040 -0.0025 -0.0594
  599MOL0     C80772   7.151   6.697   7.103 -1.2436  0.0416  0.2922
  599MOL0     C80773   7.151   6.825   7.012  0.6645 -0.3429  0.1105
  599MOL0    Cl80774   7.276   6.831   6.879  0.3913  0.2159 -0.2319
  599MOL0     C80775   6.425   6.240   6.534  0.5220 -0.8176  0.4603
  599MOL0     C80776   6.309   6.226   6.459 -0.2505 -0.7397 -0.0467
  599MOL0     O80777   6.288   6.093   6.174 -0.3202  0.0052  0.7850
  599MOL0     C80778   5.945   6.203   6.135 -0.2126  0.1727 -0.4072
  599MOL0     C80779   5.831   6.163   6.068  0.0738 -0.2803  0.0565
  599MOL0     N80780   5.109   6.266   5.832 -0.4342  0.1798  0.2259
  599MOL0     N80781   4.981   6.277   5.809  0.4833  0.2921  0.2659
  599MOL0     C80782   3.719   6.033   6.079 -0.0440 -0.1142 -0.1925
  599MOL0     C80783   3.587   5.970   6.077 -0.1070 -0.2936 -0.1505
  599MOL0     C80784   3.239   5.663   6.138 -0.4735  0.5161  0.7009
  599MOL0     C80785   3.164   5.739   6.042 -0.7611 -0.3539 -0.2377
  599MOL0     C80786   3.025   5.721   6.028  1.4844  1.1540  0.7661
  599MOL0     C80787   2.958   5.626   6.110 -0.1102  0.3010  0.4643
  599MOL0     O80788   2.827   5.594   6.092 -0.8687 -0.2535 -0.0779
  599MOL0     C80789   2.743   5.704   6.138 -0.2942 -0.1714 -0.7990
  599MOL0     C80790   2.739   5.717   6.291  0.7690 -0.9803 -0.8688
  599MOL0     C80791   2.634   5.833   6.336  0.6971  0.5306  0.1689
  599MOL0     C80792   2.638   5.860   6.487  0.0933 -0.2180  0.5165
  599MOL0     C80793   2.536   5.956   6.525 -0.8733  0.1109 -0.2835
  599MOL0     C80794   2.457   6.040   6.563  0.7613 -0.4830 -0.6212
  599MOL0     C80795   3.035   5.551   6.197 -0.3241 -0.1171  0.0504
  599MOL0     C80796   3.172   5.567   6.215  0.2191  1.1907  0.1549
  599MOL0     C80797   3.236   5.472   6.322 -0.2144 -0.2383 -0.0942
  599MOL0     H80798   3.642   5.719   6.293  1.3748  0.8304  0.4553
  599MOL0     H80799   3.848   5.837   6.313 -1.2125 -0.8689  0.2096
  599MOL0     H80800   3.919   6.221   6.105 -0.1950  0.8332  2.0302
  599MOL0     H80801   4.031   6.202   6.232  1.8309 -2.6283 -0.6131
  599MOL0     H80802   4.080   6.160   5.945 -3.1292 -1.2391 -0.2141
  599MOL0     H80803   4.082   5.999   6.020 -3.5054  0.0804  1.0104
  599MOL0     H80804   4.249   6.086   6.181 -0.2533  1.4285  0.5749
  599MOL0     H80805   4.247   6.245   6.105  0.6228 -0.4933  2.2397
  599MOL0     H80806   4.319   5.979   5.987 -0.5136  0.9031  1.9221
  599MOL0     H80807   4.310   6.133   5.895 -2.3341  2.6074  1.0354
  599MOL0     H80808   4.484   6.214   6.016 -0.6023 -0.0370  0.5105
  599MOL0     H80809   4.489   6.089   6.146 -2.6168  2.2502  0.2405
  599MOL0     H80810   4.577   5.917   5.987  0.6799  0.1049  0.4156
  599MOL0     H80811   4.572   6.022   5.842 -1.7031 -0.0153  0.1150
  599MOL0     H80812   4.793   5.977   5.934  1.1935 -0.5838  1.7799
  599MOL0     H80813   4.756   6.044   6.085  0.6127 -1.9978 -0.7032
  599MOL0     H80814   4.718   6.184   5.817 -2.2793  1.1074  0.8620
  599MOL0     H80815   4.734   6.262   5.973 -2.6213 -1.2782  1.6316
  599MOL0     H80816   4.996   6.069   6.069 -0.6442  0.2889 -0.3816
  599MOL0     H80817   5.262   6.170   6.089 -1.8746  1.7980 -1.5208
  599MOL0     H80818   5.246   6.007   6.012 -0.8490 -0.5324 -4.4366
  599MOL0     H80819   5.357   6.121   5.807  1.1308 -1.1233 -0.5624
  599MOL0     H80820   5.404   6.250   5.927  3.3651 -1.0576 -1.3025
  599MOL0     H80821   5.467   5.953   5.962  1.5719  0.1389 -2.0213
  599MOL0     H80822   5.494   6.099   6.073  2.4968  2.8211  0.0610
  599MOL0     H80823   5.638   6.197   5.897  2.6257 -0.4547 -1.7369
  599MOL0     H80824   5.595   6.083   5.781  0.9134  0.9969  0.6513
  599MOL0     H80825   5.960   5.906   5.879  5.1067  0.5766 -0.7467
  599MOL0     H80826   6.157   5.956   6.019  0.5181  0.0062  2.2001
  599MOL0     H80827   6.376   6.447   6.212  0.9237  0.3887  0.1508
  599MOL0     H80828   6.597   6.465   6.361 -1.0829 -0.9824 -1.5478
  599MOL0     H80829   6.591   6.305   6.750 -1.0259  1.0329 -1.3429
  599MOL0     H80830   6.680   6.176   6.655 -0.1239  0.5338 -0.6147
  599MOL0     H80831   6.854   6.230   6.795 -2.1442 -0.9994  0.5160
  599MOL0     H80832   6.879   6.339   6.658  0.1221  1.1584  0.8979
  599MOL0     H80833   6.781   6.527   6.801  2.5818  0.3740  3.2778
  599MOL0     H80834   6.750   6.412   6.924  0.2380  0.5381  0.3247
  599MOL0     H80835   7.038   6.461   6.811 -0.5561  1.8652 -0.0408
  599MOL0     H80836   6.985   6.349   6.945  0.7999 -0.4236 -0.5018
  599MOL0     H80837   6.925   6.553   7.071  2.3642  1.6752  0.7846
  599MOL0     H80838   6.946   6.653   6.932 -2.9650  1.9748  2.9528
  599MOL0     H80839   7.167   6.481   7.067  3.1433 -1.5435 -4.5108
  599MOL0     H80840   7.193   6.573   6.927 -3.0302 -0.8518 -2.3444
  599MOL0     H80841   7.252   6.703   7.143  0.1424 -1.1366 -2.7360
  599MOL0     H80842   7.077   6.703   7.183 -0.3924 -1.4286  1.2257
  599MOL0     H80843   7.054   6.828   6.963  0.8596  1.0126 -0.2350
  599MOL0     H80844   7.160   6.908   7.083  0.2771 -0.9062  0.8378
  599MOL0     H80845   6.434   6.181   6.625 -0.6480 -0.5520  0.7699
  599MOL0     H80846   6.241   6.143   6.477 -3.5917  1.5987 -1.0390
  599MOL0     H80847   5.937   6.295   6.192  0.8285 -0.2818  0.5229
  599MOL0     H80848   5.736   6.214   6.083  0.5855  1.0518 -1.0563
  599MOL0     H80849   3.732   6.126   6.025  2.4878 -1.5065 -2.2053
  599MOL0     H80850   3.508   6.013   6.016 -2.8176 -2.2977  1.7242
  599MOL0     H80851   3.221   5.812   5.985  0.4878 -0.2906  1.0369
  599MOL0     H80852   2.974   5.777   5.951 -1.9056 -0.9790  1.2421
  599MOL0     H80853   2.637   5.685   6.123 -0.3760 -3.6519  2.7364
  599MOL0     H80854   2.765   5.801   6.090 -2.4357  0.5035 -0.5316
  599MOL0     H80855   2.837   5.730   6.338 -0.7372 -2.8133  3.1629
  599MOL0     H80856   2.706   5.619   6.327  0.3298  0.0185  1.6545
  599MOL0     H80857   2.529   5.809   6.318  0.0396  0.5410  3.3865
  599MOL0     H80858   2.661   5.926   6.285 -0.1244 -0.3873 -2.0681
  599MOL0     H80859   2.623   5.762   6.535 -0.4842  0.0101  0.8136
  599MOL0     H80860   2.737   5.891   6.521 -0.7944  0.3923  2.7181
  599MOL0     H80861   2.389   6.115   6.598 -0.1419 -1.0689 -1.0653
  599MOL0     H80862   2.978   5.481   6.258 -1.4275 -1.8325 -2.7517
  599MOL0     H80863   3.163   5.445   6.399  0.6655 -0.8688  0.5457
  599MOL0     H80864   3.255   5.373   6.279  1.3191 -0.4266  0.9405
  599MOL0     H80865   3.326   5.508   6.374  0.5765 -2.7830  0.4815
  600MOL0     O80866  10.338   1.091   2.289 -0.9873  0.3609  0.1902
  600MOL0     C80867  10.301   1.121   2.179 -0.1718  0.5382 -0.3878
  600MOL0     O80868  10.377   1.137   2.064  0.4216  0.3363 -0.3317
  600MOL0     C80869  10.513   1.114   2.059  0.4726 -0.0157  0.1959
  600MOL0     C80870  10.566   0.988   2.090  0.2826 -0.4826  1.3992
  600MOL0     C80871  10.703   0.962   2.081  0.3793 -0.4623 -0.6898
  600MOL0     C80872  10.793   1.070   2.054 -0.4806  0.5907  0.0200
  600MOL0     O80873  10.928   1.046   2.061  0.1804  0.8167 -0.3349
  600MOL0     C80874  11.030   1.146   2.089 -0.1457 -0.5148  0.5917
  600MOL0     C80875  11.001   1.231   2.207 -0.3506  0.0616 -0.0554
  600MOL0     C80876  11.073   1.189   2.336 -0.0777 -0.0415 -0.0771
  600MOL0     C80877  11.005   1.247   2.463 -0.4640  0.3118  0.3166
  600MOL0     C80878  10.890   1.158   2.517 -0.9492 -0.4213 -1.2648
  600MOL0     C80879  10.764   1.141   2.431  0.3319  0.5574 -0.4142
  600MOL0     C80880  10.682   1.265   2.406 -1.5989  0.5616  0.4521
  600MOL0     C80881  10.658   1.350   2.525  0.9106  0.7885 -0.1654
  600MOL0     N80882  10.583   1.281   2.628  0.3731 -0.0099 -0.3826
  600MOL0     C80883  10.459   1.226   2.623 -0.6040  0.2402  0.2358
  600MOL0     C80884  10.447   1.148   2.735 -0.3561 -0.2723  0.6983
  600MOL0     C80885  10.337   1.046   2.755  0.7037 -0.1174 -0.1341
  600MOL0     C80886  10.358   0.914   2.672 -0.2032 -0.2015 -0.1105
  600MOL0     C80887  10.493   0.843   2.687 -1.2772  0.0924 -0.3126
  600MOL0     C80888  10.534   0.806   2.833 -0.4003 -0.4257  0.1568
  600MOL0     O80889  10.646   0.712   2.828 -0.2854 -0.5694 -0.0779
  600MOL0     C80890  10.774   0.761   2.803 -0.2866  0.5154 -0.9869
  600MOL0     C80891  10.808   0.898   2.802  0.1915 -0.0067  0.3420
  600MOL0     C80892  10.942   0.932   2.773 -0.5592  1.2088  0.7717
  600MOL0     C80893  11.045   0.831   2.777  0.9144  0.2825  0.6643
  600MOL0     C80894  11.193   0.860   2.770 -0.9660  0.2643 -0.6879
  600MOL0     O80895  11.237   0.989   2.762 -0.6719 -0.2188  0.3768
  600MOL0     C80896  11.366   1.018   2.721  0.3361 -0.2786 -0.3110
  600MOL0     C80897  11.378   1.130   2.635 -0.2771 -0.6126  0.3661
  600MOL0     C80898  11.503   1.168   2.592 -0.3850 -0.5887 -0.7161
  600MOL0     C80899  11.611   1.093   2.625 -0.2829 -0.0964  0.1912
  600MOL0     O80900  11.729   1.149   2.589 -0.2777 -0.6562 -0.5050
  600MOL0     C80901  11.852   1.069   2.602 -0.7079  0.0469 -0.7563
  600MOL0     C80902  11.958   1.146   2.524 -0.1448  0.2177  0.5201
  600MOL0     C80903  12.094   1.126   2.584 -0.7552  0.1984 -0.5705
  600MOL0     C80904  12.193   1.181   2.483  1.2182  0.0630 -0.7295
  600MOL0     C80905  12.329   1.200   2.548 -0.0700  0.4595 -0.5306
  600MOL0     C80906  12.406   1.313   2.470 -0.4497  0.0565  0.1370
  600MOL0     C80907  12.537   1.347   2.549  0.4485  0.0673 -0.2191
  600MOL0     C80908  12.628   1.425   2.450 -1.0143 -0.3703 -0.6973
  600MOL0    Cl80909  12.725   1.305   2.356  0.5450  0.2675 -0.0639
  600MOL0     C80910  11.601   0.971   2.694 -0.0842  0.3976  0.9137
  600MOL0     C80911  11.479   0.944   2.747 -0.5392 -0.3280 -0.5026
  600MOL0     O80912  11.264   0.760   2.751 -0.1083 -0.2916  0.8888
  600MOL0     C80913  10.996   0.693   2.790  0.3846 -0.6846  0.9899
  600MOL0     C80914  10.869   0.662   2.804  0.6752  0.5150  0.2890
  600MOL0     N80915  10.559   1.170   2.801 -0.2006  0.3566  0.2665
  600MOL0     N80916  10.637   1.255   2.746 -0.2139  1.1172  0.1862
  600MOL0     C80917  10.735   1.194   2.018  0.3132 -1.0352 -0.0064
  600MOL0     C80918  10.600   1.218   2.021  0.3390 -0.2263 -0.2680
  600MOL0     C80919  10.151   1.122   2.150 -0.2941  0.1563 -0.1219
  600MOL0     C80920  10.111   1.148   2.018  0.8967 -0.1815  0.4792
  600MOL0     C80921   9.977   1.155   1.983  0.5654 -0.1408  0.7308
  600MOL0     C80922   9.877   1.141   2.076  0.0197  0.8268 -0.6636
  600MOL0     O80923   9.745   1.123   2.038  0.7727 -0.0295 -0.0079
  600MOL0     C80924   9.660   1.029   2.113  0.9502 -0.9745 -0.5540
  600MOL0     C80925   9.570   0.955   2.008  0.5627  0.3046 -0.1274
  600MOL0     C80926   9.464   0.879   2.080  0.0606  1.5332 -0.2911
  600MOL0     C80927   9.330   0.952   2.099 -0.4156 -0.2102 -0.3488
  600MOL0     C80928   9.241   0.872   2.185 -0.0404  0.0481 -0.7016
  600MOL0     C80929   9.157   0.804   2.235 -0.2026 -0.3208  0.1630
  600MOL0     C80930   9.909   1.119   2.208 -0.4821 -0.0709  0.4501
  600MOL0     C80931  10.044   1.113   2.242  0.7401  0.8062 -0.8574
  600MOL0     C80932  10.067   1.097   2.396  0.3460 -0.9144  0.5389
  600MOL0     H80933  10.498   0.908   2.121 -0.7106  0.1157  0.8168
  600MOL0     H80934  10.753   0.879   2.131  3.1326  0.5467 -1.5570
  600MOL0     H80935  11.132   1.112   2.110  0.5997  0.0383 -1.9031
  600MOL0     H80936  11.039   1.210   2.001  1.9343 -1.3352  0.1443
  600MOL0     H80937  10.895   1.250   2.224  0.1511  2.0259  1.1896
  600MOL0     H80938  11.034   1.333   2.186  0.8093  0.0960  1.6683
  600MOL0     H80939  11.180   1.211   2.333 -0.0852  0.7463  2.7959
  600MOL0     H80940  11.062   1.080   2.345  0.1952 -0.0315  0.3793
  600MOL0     H80941  11.067   1.269   2.551 -1.5381  1.1330  0.8903
  600MOL0     H80942  10.961   1.342   2.431 -0.4385 -0.1482 -1.1203
  600MOL0     H80943  10.927   1.059   2.542  0.4809  0.9776  3.1949
  600MOL0     H80944  10.853   1.196   2.613  0.7799  0.7334 -0.9924
  600MOL0     H80945  10.778   1.077   2.343 -1.0700 -0.5526  0.1157
  600MOL0     H80946  10.696   1.083   2.495  0.7584  1.5574  1.0002
  600MOL0     H80947  10.589   1.239   2.355 -0.3180  2.1267 -3.0133
  600MOL0     H80948  10.738   1.328   2.335 -0.3306  1.5443  2.2394
  600MOL0     H80949  10.743   1.404   2.566  0.5762 -1.2197  3.5837
  600MOL0     H80950  10.599   1.433   2.485  0.3872  0.9281  0.8498
  600MOL0     H80951  10.395   1.217   2.536  1.8616 -0.2252 -1.6226
  600MOL0     H80952  10.344   1.021   2.862  4.7264 -3.8545 -0.9671
  600MOL0     H80953  10.242   1.095   2.734  2.7900  4.1937 -0.4642
  600MOL0     H80954  10.281   0.839   2.691 -0.3039  0.2287  1.2473
  600MOL0     H80955  10.344   0.932   2.565 -0.0660 -3.0220 -0.6928
  600MOL0     H80956  10.575   0.889   2.631  0.0578 -1.4467  0.2994
  600MOL0     H80957  10.493   0.740   2.650  0.0132 -0.2433  0.5458
  600MOL0     H80958  10.448   0.759   2.883  1.0336 -0.3129  2.9024
  600MOL0     H80959  10.560   0.890   2.898 -0.3915 -0.0055 -0.3798
  600MOL0     H80960  10.748   0.989   2.804  2.5874  1.6755 -0.7053
  600MOL0     H80961  10.975   1.035   2.771  0.4482  0.9513  2.2659
  600MOL0     H80962  11.285   1.180   2.610  0.1986 -1.3225 -3.6017
  600MOL0     H80963  11.518   1.261   2.538  2.6856 -0.0835  0.7743
  600MOL0     H80964  11.889   1.052   2.704 -1.0898  2.6565 -0.0837
  600MOL0     H80965  11.848   0.978   2.543  0.6976 -1.2381  1.0152
  600MOL0     H80966  11.962   1.111   2.420 -1.7844 -0.9548  0.8058
  600MOL0     H80967  11.920   1.249   2.518 -3.6501 -0.7635  2.8857
  600MOL0     H80968  12.107   1.183   2.676  1.2107  3.3943 -2.6105
  600MOL0     H80969  12.104   1.019   2.601 -0.4030 -0.6985 -5.1040
  600MOL0     H80970  12.157   1.279   2.451 -0.4469 -0.2209  0.2000
  600MOL0     H80971  12.207   1.114   2.397  2.6770 -2.4459  1.3009
  600MOL0     H80972  12.392   1.113   2.571 -1.0345  0.8427  4.7285
  600MOL0     H80973  12.310   1.234   2.650 -1.3306 -2.5100  0.3499
  600MOL0     H80974  12.430   1.286   2.367  0.3770 -0.1659  0.3833
  600MOL0     H80975  12.346   1.405   2.463 -2.8181 -1.2785  1.3117
  600MOL0     H80976  12.596   1.261   2.578  1.0541  0.2255 -0.9546
  600MOL0     H80977  12.505   1.407   2.635  1.2856 -0.3267  0.3689
  600MOL0     H80978  12.572   1.498   2.392 -0.9254 -0.2262 -0.6028
  600MOL0     H80979  12.697   1.477   2.516 -1.7675 -2.3856  1.8617
  600MOL0     H80980  11.687   0.905   2.701 -0.0412  0.2730 -0.5437
  600MOL0     H80981  11.476   0.856   2.811 -0.4605  1.1793  1.6897
  600MOL0     H80982  11.076   0.619   2.785  0.3686 -0.6327 -0.9515
  600MOL0     H80983  10.828   0.563   2.816 -1.9338  1.6613  1.5221
  600MOL0     H80984  10.803   1.264   1.970 -1.5888 -0.4147 -1.9660
  600MOL0     H80985  10.572   1.322   2.009 -0.8564 -0.3414  1.2473
  600MOL0     H80986  10.170   1.148   1.926 -2.1693 -2.2931 -1.7138
  600MOL0     H80987   9.958   1.158   1.876  0.8821  4.6352  0.6282
  600MOL0     H80988   9.590   1.080   2.179  0.4334  0.4014 -2.0825
  600MOL0     H80989   9.720   0.958   2.170 -0.3999 -0.1696  2.0042
  600MOL0     H80990   9.645   0.893   1.957 -0.6032  0.7929 -2.5911
  600MOL0     H80991   9.511   1.017   1.940 -1.1177 -0.6953  0.3564
  600MOL0     H80992   9.497   0.837   2.176  0.7545  0.2685 -1.0488
  600MOL0     H80993   9.447   0.789   2.020  1.6300  1.0235 -0.0200
  600MOL0     H80994   9.344   1.047   2.151 -4.3882  0.1574  0.3518
  600MOL0     H80995   9.273   0.972   2.008 -1.0046  1.6279  0.3842
  600MOL0     H80996   9.077   0.749   2.280 -0.7386 -0.5427 -1.0281
  600MOL0     H80997   9.837   1.100   2.286 -0.1361  0.1129  0.8164
  600MOL0     H80998  10.084   1.198   2.435 -1.0459 -0.5401  0.2431
  600MOL0     H80999   9.979   1.061   2.448 -0.5447  1.5460  0.8790
  600MOL0     H81000  10.149   1.028   2.418 -1.2627 -2.1775  2.8579
  601MOL0     O81001   7.485  10.279   1.260  0.3705  0.1618  0.0490
  601MOL0     C81002   7.460  10.383   1.316  0.0729 -0.1634  1.0121
  601MOL0     O81003   7.536  10.446   1.410 -0.6676  0.3534  0.3392
  601MOL0     C81004   7.670  10.399   1.419 -0.4293 -0.2526  0.1038
  601MOL0     C81005   7.733  10.375   1.539  0.4061  0.5973 -0.2160
  601MOL0     C81006   7.862  10.311   1.554  0.9384 -0.1051  0.1118
  601MOL0     C81007   7.932  10.281   1.448 -0.8471  0.7565  1.2764
  601MOL0     O81008   8.050  10.213   1.437  0.4661 -0.2804  0.1686
  601MOL0     C81009   8.135  10.238   1.545  0.0039  0.3090  0.2419
  601MOL0     C81010   8.276  10.182   1.506  0.5472 -1.1956 -0.3983
  601MOL0     C81011   8.321  10.236   1.358 -0.8249 -0.1440  0.0514
  601MOL0     C81012   8.439  10.153   1.308 -0.4028 -0.7510  0.2655
  601MOL0     C81013   8.486  10.170   1.159 -0.0333 -0.1098 -0.4370
  601MOL0     C81014   8.542  10.300   1.114  0.2963 -0.3215  0.5806
  601MOL0     C81015   8.551  10.317   0.964  0.0122 -0.1243  0.6298
  601MOL0     C81016   8.655  10.228   0.895  1.3603  0.2453 -0.0134
  601MOL0     N81017   8.786  10.257   0.929 -0.4855  0.4798  0.8827
  601MOL0     C81018   8.861  10.369   0.924  1.1115 -0.0028 -0.1817
  601MOL0     C81019   8.977  10.334   0.977  0.2105 -0.1768  0.7466
  601MOL0     C81020   9.102  10.412   0.995  0.3118 -0.7363  0.4384
  601MOL0     C81021   9.079  10.552   1.058  0.2784 -0.1576 -0.2494
  601MOL0     C81022   9.002  10.532   1.191 -0.1209 -0.6599  0.0155
  601MOL0     C81023   8.942  10.664   1.242  0.6070 -0.7253  1.1997
  601MOL0     O81024   8.844  10.700   1.136 -0.5170  0.3712  0.2810
  601MOL0     C81025   8.777  10.821   1.140 -0.1127  0.1615  0.2049
  601MOL0     C81026   8.782  10.909   1.249 -0.8033  0.4789 -0.4945
  601MOL0     C81027   8.715  11.028   1.253  0.1352 -1.0067  0.0093
  601MOL0     C81028   8.631  11.071   1.145 -0.7749 -0.2068 -0.2039
  601MOL0     C81029   8.576  11.205   1.152  0.1439  0.1639 -0.9840
  601MOL0     O81030   8.506  11.245   1.040  0.0854 -0.1795 -0.3989
  601MOL0     C81031   8.424  11.354   1.040 -0.4259 -0.1886  0.0655
  601MOL0     C81032   8.394  11.418   0.915  1.0021  0.4045 -0.3926
  601MOL0     C81033   8.309  11.531   0.915  1.5865 -0.6292  0.1090
  601MOL0     C81034   8.245  11.581   1.031 -0.2598 -0.4748 -0.1620
  601MOL0     O81035   8.140  11.676   1.034 -0.5754  0.0717  0.2480
  601MOL0     C81036   8.041  11.681   0.919  0.0995 -0.0112  0.1932
  601MOL0     C81037   7.911  11.752   0.964  0.1521 -0.5627  0.1241
  601MOL0     C81038   7.947  11.904   0.998 -0.3618  0.0879  0.0323
  601MOL0     C81039   7.814  11.979   1.019 -0.2385  0.1148 -0.0006
  601MOL0     C81040   7.838  12.112   1.102 -0.5665 -0.0750  0.3040
  601MOL0     C81041   7.700  12.171   1.137  0.1258 -0.8858  1.1352
  601MOL0     C81042   7.704  12.307   1.225  0.3476  0.1651 -0.2699
  601MOL0     C81043   7.713  12.282   1.367 -0.2022  0.3639  0.3556
  601MOL0    Cl81044   7.722  12.440   1.450 -0.4876 -0.3514  0.1905
  601MOL0     C81045   8.278  11.521   1.152 -0.1351  0.6371  0.1231
  601MOL0     C81046   8.362  11.404   1.154 -0.1359 -0.4187  0.4338
  601MOL0     O81047   8.590  11.260   1.258  0.3747 -0.2307 -0.6842
  601MOL0     C81048   8.616  10.980   1.036 -0.1925  0.2610 -0.2066
  601MOL0     C81049   8.692  10.858   1.037  0.2150  0.3306 -0.0162
  601MOL0     N81050   8.977  10.208   1.010  0.6667  0.6713 -0.9641
  601MOL0     N81051   8.858  10.162   0.988 -0.1446 -1.0307  0.8128
  601MOL0     C81052   7.878  10.298   1.323  0.4886 -0.0225  0.2845
  601MOL0     C81053   7.751  10.358   1.313  0.0399  0.0127  1.2558
  601MOL0     C81054   7.320  10.433   1.307  1.7712  1.2191  0.1606
  601MOL0     C81055   7.212  10.338   1.320  0.6283 -0.8080  0.4192
  601MOL0     C81056   7.081  10.375   1.323  0.1868 -1.1431 -0.6176
  601MOL0     C81057   7.049  10.507   1.294  0.4562 -0.7332  0.8240
  601MOL0     O81058   6.923  10.552   1.308 -0.0428 -0.4505  0.4417
  601MOL0     C81059   6.881  10.688   1.264  0.0495  0.0801  0.3213
  601MOL0     C81060   6.854  10.702   1.114 -1.1249  0.1903 -0.7355
  601MOL0     C81061   6.748  10.606   1.050 -0.5803  0.8003  0.5438
  601MOL0     C81062   6.791  10.459   1.039 -1.0843 -0.7261 -0.2316
  601MOL0     C81063   6.901  10.436   0.952 -0.1832  1.0000 -0.9763
  601MOL0     C81064   6.985  10.431   0.868  0.2773 -0.1531  0.1800
  601MOL0     C81065   7.154  10.600   1.288 -0.4382  0.0898 -1.6630
  601MOL0     C81066   7.294  10.571   1.295 -0.6606 -0.5484 -0.7144
  601MOL0     C81067   7.398  10.679   1.296  1.1358 -0.5220  0.1408
  601MOL0     H81068   7.681  10.410   1.628 -1.9205  1.2177 -1.7410
  601MOL0     H81069   7.899  10.281   1.652 -0.2458  2.1620  1.3456
  601MOL0     H81070   8.134  10.346   1.562  0.0734  0.6652 -1.7910
  601MOL0     H81071   8.098  10.191   1.637 -0.1065 -2.4320 -1.0964
  601MOL0     H81072   8.277  10.074   1.492  2.7537 -1.1228 -1.2847
  601MOL0     H81073   8.339  10.198   1.594  0.0125 -0.8502 -0.0706
  601MOL0     H81074   8.351  10.341   1.359 -3.0735  0.6380 -2.5001
  601MOL0     H81075   8.237  10.232   1.288 -0.1258 -1.5538 -0.7431
  601MOL0     H81076   8.527  10.181   1.367  1.5531 -2.0734 -1.8550
  601MOL0     H81077   8.412  10.048   1.324  1.2125 -1.2319  0.0137
  601MOL0     H81078   8.572  10.102   1.151 -0.2448 -0.2559 -1.6872
  601MOL0     H81079   8.399  10.147   1.097 -0.2278 -1.6251  0.3460
  601MOL0     H81080   8.480  10.379   1.156  1.3604  0.3081  1.0037
  601MOL0     H81081   8.636  10.321   1.165  0.5622 -0.6670  0.2397
  601MOL0     H81082   8.555  10.421   0.932  2.4566 -0.7445 -1.4209
  601MOL0     H81083   8.455  10.275   0.930  1.1389 -2.9913  0.6739
  601MOL0     H81084   8.635  10.125   0.926 -1.1723  1.4026  2.6964
  601MOL0     H81085   8.654  10.223   0.786 -1.9556  0.3395 -0.0875
  601MOL0     H81086   8.845  10.469   0.885  3.0423  0.2784 -0.3772
  601MOL0     H81087   9.157  10.356   1.072  0.9709 -0.2009  0.3688
  601MOL0     H81088   9.166  10.417   0.906 -0.3001  0.0729  0.0363
  601MOL0     H81089   9.178  10.596   1.076  0.7495 -1.0784 -0.5257
  601MOL0     H81090   9.026  10.623   0.994 -1.9983 -0.2848  1.3521
  601MOL0     H81091   9.081  10.504   1.262  2.4705  1.7495 -1.6778
  601MOL0     H81092   8.932  10.449   1.178  1.1766 -1.8159  0.1527
  601MOL0     H81093   9.016  10.744   1.245  0.1369 -0.2275  0.0119
  601MOL0     H81094   8.897  10.663   1.341 -0.6575 -2.6374  0.6692
  601MOL0     H81095   8.827  10.887   1.345 -1.6623  0.9329  0.0206
  601MOL0     H81096   8.718  11.074   1.352  0.0736  1.6059 -1.1169
  601MOL0     H81097   8.444  11.397   0.821  0.4549 -1.7792 -0.2510
  601MOL0     H81098   8.285  11.585   0.824 -2.2989  1.8956  2.3604
  601MOL0     H81099   8.090  11.733   0.836 -0.4208  0.4829  0.1899
  601MOL0     H81100   8.018  11.581   0.883 -3.0853  0.8342 -0.3865
  601MOL0     H81101   7.840  11.747   0.881  0.8987 -2.6061 -0.4679
  601MOL0     H81102   7.863  11.705   1.050 -2.6028 -2.2155 -2.1372
  601MOL0     H81103   8.006  11.911   1.090  0.2379  0.8581 -0.3886
  601MOL0     H81104   8.007  11.946   0.916 -0.7141  1.2927  0.3629
  601MOL0     H81105   7.741  11.920   1.075  0.7722  0.3894  1.6795
  601MOL0     H81106   7.770  11.997   0.920 -2.9627 -1.7370  0.7618
  601MOL0     H81107   7.906  12.173   1.043  0.7555 -2.2770 -0.5858
  601MOL0     H81108   7.897  12.094   1.192  0.8310 -2.1788 -0.9339
  601MOL0     H81109   7.647  12.201   1.046  0.4374  0.0169  1.2436
  601MOL0     H81110   7.633  12.105   1.193 -0.8355 -0.4951  0.4811
  601MOL0     H81111   7.605  12.345   1.198 -1.6934 -3.2128  1.6724
  601MOL0     H81112   7.788  12.368   1.191  2.2225 -1.8923  0.4171
  601MOL0     H81113   7.630  12.228   1.413 -1.4055  1.5330 -0.3927
  601MOL0     H81114   7.807  12.228   1.381 -0.9636 -0.8418  1.0368
  601MOL0     H81115   8.212  11.536   1.237 -0.8083  0.2230 -0.3125
  601MOL0     H81116   8.385  11.346   1.243  3.2494 -2.4980 -1.6024
  601MOL0     H81117   8.552  11.000   0.950 -1.1843 -2.5207 -0.2058
  601MOL0     H81118   8.658  10.782   0.967  1.8243  0.9490 -1.5384
  601MOL0     H81119   7.938  10.277   1.235  1.3532 -0.0496  0.8752
  601MOL0     H81120   7.693  10.364   1.221  0.1797  2.0710  1.2615
  601MOL0     H81121   7.237  10.232   1.326  1.7985 -0.5351  0.6690
  601MOL0     H81122   6.999  10.304   1.332 -0.4644 -0.4351 -0.8735
  601MOL0     H81123   6.944  10.774   1.290 -3.3459  2.1879  2.2752
  601MOL0     H81124   6.792  10.702   1.326 -0.5112 -0.0294 -0.4508
  601MOL0     H81125   6.953  10.694   1.069 -0.2398  0.2049  1.1104
  601MOL0     H81126   6.818  10.805   1.103 -1.2290  0.5769  2.3944
  601MOL0     H81127   6.729  10.640   0.948  0.5810  1.2478  0.4624
  601MOL0     H81128   6.655  10.631   1.102 -1.1988 -0.6423  0.1810
  601MOL0     H81129   6.811  10.419   1.139  0.2696  2.6243  0.9984
  601MOL0     H81130   6.704  10.412   0.993 -0.3172 -1.1538 -1.3175
  601MOL0     H81131   7.051  10.411   0.785 -0.1654 -2.1653  0.2778
  601MOL0     H81132   7.135  10.707   1.281 -3.3980  0.0553  2.4989
  601MOL0     H81133   7.366  10.762   1.231  0.6164 -1.4697 -0.8407
  601MOL0     H81134   7.425  10.715   1.395  2.2318  1.2039 -0.7326
  601MOL0     H81135   7.487  10.641   1.246  1.8032  1.4554 -0.2666
  602MOL0     O81136   0.219  10.380   5.717  0.1979 -0.0819  0.6853
  602MOL0     C81137   0.255  10.496   5.741  1.0934 -0.1147  0.2681
  602MOL0     O81138   0.167  10.597   5.784  0.2687  0.5640  0.1200
  602MOL0     C81139   0.030  10.598   5.790  0.1576  0.3099  0.2312
  602MOL0     C81140  -0.029  10.722   5.822  0.5536  0.1719 -0.5111
  602MOL0     C81141  -0.169  10.729   5.839  0.8208  0.7669  0.3654
  602MOL0     C81142  -0.247  10.611   5.833  0.2123  0.2358  0.1250
  602MOL0     O81143  -0.381  10.599   5.862 -0.2497 -0.2315  0.1034
  602MOL0     C81144  -0.424  10.663   5.987  0.7220  0.7868 -0.5795
  602MOL0     C81145  -0.439  10.557   6.098  0.9096  0.7910  0.1590
  602MOL0     C81146  -0.543  10.446   6.052  0.5987 -0.0464 -0.2712
  602MOL0     C81147  -0.535  10.320   6.136  0.8243 -0.2392  0.4148
  602MOL0     C81148  -0.629  10.200   6.091  0.5053 -0.3533 -0.3680
  602MOL0     C81149  -0.767  10.214   6.148  0.4508 -0.5511 -0.2053
  602MOL0     C81150  -0.868  10.111   6.098 -0.4698 -0.5113  0.1342
  602MOL0     C81151  -0.912  10.145   5.958 -0.2182 -0.4756  0.8757
  602MOL0     N81152  -0.966  10.025   5.900 -0.8962 -0.1973  0.0773
  602MOL0     C81153  -1.099  10.019   5.889  0.5029  0.4109 -0.1271
  602MOL0     C81154  -1.124   9.894   5.831  0.4340 -0.8713  0.2303
  602MOL0     C81155  -1.268   9.863   5.790  0.7250 -1.0346 -0.8569
  602MOL0     C81156  -1.346   9.805   5.909 -0.7827  0.0567 -0.9428
  602MOL0     C81157  -1.382   9.913   6.014  0.1596 -0.1324 -0.0865
  602MOL0     C81158  -1.513   9.879   6.088 -0.2541  0.1172 -0.3611
  602MOL0     O81159  -1.579  10.005   6.130 -0.4299  0.5872 -0.4539
  602MOL0     C81160  -1.721  10.002   6.153 -0.3880  0.0108 -1.0315
  602MOL0     C81161  -1.798  10.119   6.150 -0.1520 -0.0609  0.1928
  602MOL0     C81162  -1.941  10.131   6.176 -0.1846 -0.0226  0.7387
  602MOL0     C81163  -2.010  10.010   6.195 -0.0824 -0.0698  0.5921
  602MOL0     C81164  -2.144  10.020   6.243  1.0776  1.0528  0.1969
  602MOL0     O81165  -2.211  10.133   6.216 -0.3933 -0.2770 -0.0040
  602MOL0     C81166  -2.335  10.161   6.270 -0.3168 -0.1152  0.6365
  602MOL0     C81167  -2.359  10.276   6.337 -0.0856 -0.1988  0.1593
  602MOL0     C81168  -2.484  10.306   6.395 -0.4358 -0.2826  0.3724
  602MOL0     C81169  -2.584  10.201   6.395 -0.0706 -0.4724  0.3534
  602MOL0     O81170  -2.716  10.217   6.449 -0.4731  0.3289  0.1432
  602MOL0     C81171  -2.776  10.345   6.483  0.4277 -1.0692 -0.0295
  602MOL0     C81172  -2.731  10.374   6.626  0.8685 -0.5450  0.2587
  602MOL0     C81173  -2.803  10.492   6.689 -0.1351 -0.0095 -0.4503
  602MOL0     C81174  -2.744  10.628   6.636  0.1712  1.1577 -0.4419
  602MOL0     C81175  -2.785  10.753   6.716  0.2238 -0.5506  0.5741
  602MOL0     C81176  -2.941  10.771   6.699  1.1214  0.1502 -1.0568
  602MOL0     C81177  -2.974  10.897   6.788 -1.3282 -0.0454 -0.3164
  602MOL0     C81178  -3.125  10.914   6.817  0.8227  0.1838  0.3815
  602MOL0    Cl81179  -3.157  11.087   6.843  0.0114  0.0268  0.1419
  602MOL0     C81180  -2.558  10.082   6.332 -0.2306  0.8736  0.1385
  602MOL0     C81181  -2.441  10.063   6.266 -0.5739  0.3813  0.5854
  602MOL0     O81182  -2.185   9.923   6.304 -0.5975 -0.8026  0.5749
  602MOL0     C81183  -1.937   9.887   6.196  0.5151 -0.0743 -1.4781
  602MOL0     C81184  -1.795   9.884   6.179  0.3324  0.6693 -0.3479
  602MOL0     N81185  -0.998   9.833   5.818  0.4616  0.6490 -0.4302
  602MOL0     N81186  -0.903   9.913   5.858 -0.4738  0.6114 -0.6331
  602MOL0     C81187  -0.184  10.487   5.805  0.0892 -0.0643 -0.5577
  602MOL0     C81188  -0.048  10.480   5.781 -0.7118 -0.0991  0.1885
  602MOL0     C81189   0.404  10.517   5.744  1.3051  0.2914 -0.1023
  602MOL0     C81190   0.448  10.600   5.853 -0.1817 -0.2141  0.2334
  602MOL0     C81191   0.580  10.635   5.856 -0.5123  0.5283 -0.5499
  602MOL0     C81192   0.672  10.575   5.762 -0.0638 -0.0842 -0.8050
  602MOL0     O81193   0.806  10.606   5.779 -0.3255 -0.1731 -0.7193
  602MOL0     C81194   0.904  10.522   5.716  0.2277  0.6825  0.3774
  602MOL0     C81195   1.042  10.578   5.747 -1.1091  0.0472 -0.2733
  602MOL0     C81196   1.154  10.477   5.722  0.3257 -0.0303 -0.2906
  602MOL0     C81197   1.290  10.525   5.771  0.7893  1.3177  0.3574
  602MOL0     C81198   1.382  10.416   5.753 -1.3656  0.4304  0.1556
  602MOL0     C81199   1.474  10.336   5.747  0.4812  0.2502  0.1216
  602MOL0     C81200   0.624  10.501   5.657  0.6106  1.3819 -0.1632
  602MOL0     C81201   0.486  10.469   5.640 -0.4402  0.2261  0.0267
  602MOL0     C81202   0.448  10.384   5.526  0.3266 -0.3305  0.4468
  602MOL0     H81203   0.036  10.808   5.835  1.9140 -0.5210 -2.2795
  602MOL0     H81204  -0.207  10.824   5.873  3.6601  0.9190  3.6233
  602MOL0     H81205  -0.343  10.731   6.016  1.2641  0.1016 -0.4649
  602MOL0     H81206  -0.518  10.714   5.965 -0.4850 -1.3998 -0.7999
  602MOL0     H81207  -0.468  10.626   6.177  3.3643  1.5563  0.4622
  602MOL0     H81208  -0.347  10.500   6.110  0.4491 -0.3050 -1.1283
  602MOL0     H81209  -0.523  10.413   5.950 -0.6828 -2.2464  0.1398
  602MOL0     H81210  -0.645  10.485   6.043  0.1662 -0.8965  0.7202
  602MOL0     H81211  -0.434  10.278   6.144  0.8955 -0.5979 -1.6549
  602MOL0     H81212  -0.573  10.350   6.234  0.7487  2.1064 -0.2799
  602MOL0     H81213  -0.627  10.195   5.982  0.6069  0.5214 -0.4119
  602MOL0     H81214  -0.599  10.101   6.127  2.0903 -0.2698 -1.3686
  602MOL0     H81215  -0.755  10.205   6.257  0.9170  0.7094 -0.1355
  602MOL0     H81216  -0.807  10.312   6.123  0.3756 -1.3791 -3.8106
  602MOL0     H81217  -0.958  10.118   6.159  0.7182  2.5685  1.7629
  602MOL0     H81218  -0.823  10.011   6.095 -1.3670 -0.8964 -0.8025
  602MOL0     H81219  -0.977  10.232   5.954  0.2345 -0.0714  1.8905
  602MOL0     H81220  -0.825  10.178   5.899 -2.0835 -0.0221 -1.7966
  602MOL0     H81221  -1.176  10.088   5.923  0.5300 -0.6908  2.3914
  602MOL0     H81222  -1.320   9.952   5.753 -0.3400 -0.6152  1.4592
  602MOL0     H81223  -1.261   9.790   5.710  1.4887  0.7773 -2.5367
  602MOL0     H81224  -1.433   9.757   5.862 -0.4164 -1.8440  0.2165
  602MOL0     H81225  -1.292   9.727   5.964 -2.8558  0.8650  2.5702
  602MOL0     H81226  -1.395  10.008   5.961  0.6009 -0.2188 -0.3480
  602MOL0     H81227  -1.308   9.923   6.093 -0.4374 -0.1397  0.4836
  602MOL0     H81228  -1.478   9.817   6.171  3.1618  2.2164 -0.0392
  602MOL0     H81229  -1.572   9.826   6.012  1.2381 -1.8827 -0.2176
  602MOL0     H81230  -1.738  10.208   6.128 -1.3171  0.8199  0.4886
  602MOL0     H81231  -1.994  10.224   6.155 -0.7339 -0.0765  1.8208
  602MOL0     H81232  -2.278  10.349   6.337 -0.0348 -0.1679 -2.6307
  602MOL0     H81233  -2.498  10.401   6.444 -0.9284 -0.0723 -0.1678
  602MOL0     H81234  -2.741  10.429   6.423 -1.3099  0.5038  1.0388
  602MOL0     H81235  -2.886  10.352   6.488  0.5498  1.1025  0.9453
  602MOL0     H81236  -2.761  10.291   6.691  1.1971 -1.3132 -0.5511
  602MOL0     H81237  -2.623  10.384   6.634  1.0472 -2.0964  0.1097
  602MOL0     H81238  -2.909  10.482   6.661 -0.2012  0.8647 -0.5127
  602MOL0     H81239  -2.784  10.499   6.797  0.0693 -1.6651 -0.3499
  602MOL0     H81240  -2.778  10.646   6.534 -1.1055 -0.3066 -0.3047
  602MOL0     H81241  -2.636  10.623   6.652 -0.4025 -2.3126  4.4885
  602MOL0     H81242  -2.728  10.838   6.679  1.9905 -2.5439 -1.6133
  602MOL0     H81243  -2.762  10.738   6.822  0.0977  0.1493  0.7085
  602MOL0     H81244  -2.949  10.793   6.592 -1.5639  0.9685 -0.7611
  602MOL0     H81245  -2.999  10.689   6.743  1.7923  1.1379  1.9675
  602MOL0     H81246  -2.933  10.993   6.755  0.4102  0.2825  2.4597
  602MOL0     H81247  -2.926  10.875   6.884 -1.6295 -2.3994 -0.6587
  602MOL0     H81248  -3.175  10.883   6.725  0.2468  3.7883 -0.6841
  602MOL0     H81249  -3.149  10.848   6.901  0.8613 -0.5575 -0.1833
  602MOL0     H81250  -2.633  10.004   6.333  0.8703 -0.2136  0.5152
  602MOL0     H81251  -2.432   9.971   6.210 -2.3091  0.7777 -0.3997
  602MOL0     H81252  -1.994   9.796   6.215 -0.2088  0.8233  1.2058
  602MOL0     H81253  -1.756   9.783   6.175 -3.1219 -0.8225  0.0487
  602MOL0     H81254  -0.242  10.395   5.793  2.2864 -1.4004 -1.6471
  602MOL0     H81255  -0.008  10.388   5.740 -0.1676  1.1903 -2.4322
  602MOL0     H81256   0.377  10.631   5.929 -1.0990  0.7816 -0.9989
  602MOL0     H81257   0.612  10.705   5.933 -0.5869  0.0340 -0.0588
  602MOL0     H81258   0.890  10.510   5.608  0.0917  1.3812  0.3120
  602MOL0     H81259   0.890  10.423   5.760 -0.9165  1.2395  1.3115
  602MOL0     H81260   1.040  10.610   5.852 -1.9424  2.8196 -1.0607
  602MOL0     H81261   1.075  10.662   5.686 -0.6342 -1.0149 -1.5354
  602MOL0     H81262   1.157  10.469   5.613  0.7335 -1.2158 -0.2047
  602MOL0     H81263   1.125  10.386   5.775  0.5184  0.8146  1.3341
  602MOL0     H81264   1.325  10.611   5.713  2.5570  0.3161 -0.1266
  602MOL0     H81265   1.285  10.557   5.875 -4.1806  2.1806  0.0834
  602MOL0     H81266   1.553  10.264   5.743  0.4935  0.2803 -0.1766
  602MOL0     H81267   0.691  10.471   5.577  0.6567  3.8692 -1.1686
  602MOL0     H81268   0.394  10.444   5.452  2.2685 -0.3331 -1.0840
  602MOL0     H81269   0.537  10.359   5.467 -0.4633 -0.4008 -0.7371
  602MOL0     H81270   0.396  10.295   5.561  1.1512 -0.3968  1.5478
  603MOL0     O81271   8.528   2.419  11.226 -0.0751 -0.1170 -0.1129
  603MOL0     C81272   8.445   2.393  11.142  0.1531 -0.0206 -0.5967
  603MOL0     O81273   8.468   2.410  11.008  0.6444 -0.0803 -0.2921
  603MOL0     C81274   8.566   2.482  10.949  0.1023 -0.8428 -0.8118
  603MOL0     C81275   8.635   2.584  11.018  0.7334  0.8527  0.5633
  603MOL0     C81276   8.738   2.642  10.954  0.3409  0.3500 -0.3005
  603MOL0     C81277   8.775   2.609  10.821  0.5174  0.5957  0.8737
  603MOL0     O81278   8.873   2.655  10.742  0.9134 -0.0271  0.2302
  603MOL0     C81279   8.967   2.754  10.790  0.5667  0.1946 -0.2194
  603MOL0     C81280   9.075   2.726  10.892 -0.0862 -0.3201 -0.1595
  603MOL0     C81281   9.180   2.627  10.849  0.0648  0.3854  0.2476
  603MOL0     C81282   9.300   2.672  10.769  0.0048 -0.9760  0.2910
  603MOL0     C81283   9.387   2.551  10.747 -0.5935 -0.0346 -0.1838
  603MOL0     C81284   9.490   2.572  10.642 -1.2902  0.8910 -0.1895
  603MOL0     C81285   9.592   2.454  10.629 -0.8025  1.5627 -0.1600
  603MOL0     C81286   9.648   2.450  10.490 -0.6779 -0.0928  0.5085
  603MOL0     N81287   9.731   2.565  10.454 -0.2434  0.3296  0.4804
  603MOL0     C81288   9.845   2.605  10.517  0.8562  0.6564  0.4388
  603MOL0     C81289   9.874   2.716  10.447  0.5339 -0.1578  0.4433
  603MOL0     C81290  10.000   2.799  10.469 -0.3715  0.6390 -1.0089
  603MOL0     C81291  10.123   2.755  10.385 -0.0169  0.7927 -0.5045
  603MOL0     C81292  10.099   2.770  10.233  0.4709  0.4501  0.0688
  603MOL0     C81293  10.214   2.737  10.140  0.1093  0.5400  0.7339
  603MOL0     O81294  10.329   2.807  10.187  0.1751 -1.1482 -0.9408
  603MOL0     C81295  10.451   2.780  10.152  0.5143 -0.6238  0.2833
  603MOL0     C81296  10.480   2.702  10.040  0.0824  0.1278  0.0542
  603MOL0     C81297  10.608   2.679  10.001 -0.2012  0.2215  0.1241
  603MOL0     C81298  10.718   2.741  10.072 -0.4743 -0.1678  0.3522
  603MOL0     C81299  10.864   2.723  10.033 -0.3604  0.3213  0.3518
  603MOL0     O81300  10.945   2.811  10.098  0.4100 -0.8241  0.9118
  603MOL0     C81301  11.080   2.784  10.072  0.9788  0.5149 -0.6704
  603MOL0     C81302  11.148   2.886  10.022 -0.3752 -0.1863 -0.1673
  603MOL0     C81303  11.290   2.877  10.011  0.2894  0.2096 -0.2624
  603MOL0     C81304  11.357   2.762  10.048  0.5372 -0.2893  1.2072
  603MOL0     O81305  11.488   2.764  10.041 -0.6426 -0.7666 -0.0869
  603MOL0     C81306  11.551   2.784  10.174  0.5908  0.4062  0.1456
  603MOL0     C81307  11.676   2.688  10.169  0.0418  0.3426  0.3697
  603MOL0     C81308  11.772   2.739  10.277 -0.4727  0.1765  0.4293
  603MOL0     C81309  11.906   2.661  10.258  0.1094 -0.8278 -0.7231
  603MOL0     C81310  12.005   2.702  10.373  0.1415 -0.6493  0.0249
  603MOL0     C81311  12.025   2.858  10.374  0.3075 -0.9636 -0.3889
  603MOL0     C81312  12.108   2.923  10.490 -0.7604  0.0793  0.6874
  603MOL0     C81313  12.192   3.049  10.457  0.1001  0.0715 -0.1269
  603MOL0    Cl81314  12.307   3.089  10.585  0.4717 -0.4405 -0.0901
  603MOL0     C81315  11.282   2.648  10.089 -0.0473 -0.0269  0.1506
  603MOL0     C81316  11.141   2.658  10.104  0.7293 -0.3997 -0.2736
  603MOL0     O81317  10.902   2.631   9.958  1.1974 -0.2165 -0.0737
  603MOL0     C81318  10.687   2.819  10.178  0.4701  1.1359  0.8449
  603MOL0     C81319  10.555   2.842  10.218 -0.2206  0.7102  0.6113
  603MOL0     N81320   9.792   2.728  10.342 -0.5059 -0.6345  0.9604
  603MOL0     N81321   9.711   2.635  10.341  0.6501  0.6614 -0.6873
  603MOL0     C81322   8.687   2.523  10.755 -0.3136  0.7759 -0.1221
  603MOL0     C81323   8.590   2.454  10.818 -0.5405  0.3054  0.4637
  603MOL0     C81324   8.323   2.310  11.181 -0.2894  0.3183  0.3449
  603MOL0     C81325   8.260   2.236  11.070 -0.1716 -1.0518  0.0206
  603MOL0     C81326   8.141   2.162  11.093 -0.6379 -0.0817 -0.4483
  603MOL0     C81327   8.087   2.158  11.229  0.6946  0.1121  0.3109
  603MOL0     O81328   7.975   2.086  11.263 -0.4066  0.2684 -0.2661
  603MOL0     C81329   7.874   2.073  11.164 -0.0700  0.3799 -0.1000
  603MOL0     C81330   7.793   1.948  11.198 -0.0761  0.0582 -0.2653
  603MOL0     C81331   7.711   1.964  11.328  0.8370 -1.0134  0.1615
  603MOL0     C81332   7.661   1.820  11.368 -0.2557 -0.0544  0.1424
  603MOL0     C81333   7.571   1.805  11.485 -0.1694  0.2885 -1.1977
  603MOL0     C81334   7.499   1.798  11.586  0.5591 -0.2632  0.3184
  603MOL0     C81335   8.152   2.222  11.330 -0.2890 -0.5520  0.1771
  603MOL0     C81336   8.270   2.300  11.312  0.0558  0.2244 -0.3268
  603MOL0     C81337   8.333   2.358  11.433 -0.2192  0.7918  0.3891
  603MOL0     H81338   8.602   2.622  11.114 -0.7539  2.1728 -0.4068
  603MOL0     H81339   8.782   2.719  11.016 -0.5325 -0.2589  1.1213
  603MOL0     H81340   9.019   2.804  10.707 -0.1928 -1.6086 -1.8616
  603MOL0     H81341   8.904   2.834  10.831  2.0356  1.3380 -0.1004
  603MOL0     H81342   9.036   2.686  10.986  3.1294  0.5509  1.6992
  603MOL0     H81343   9.124   2.819  10.922 -0.7730  0.6470 -1.9300
  603MOL0     H81344   9.121   2.549  10.799  1.3134  0.1445 -0.8985
  603MOL0     H81345   9.207   2.576  10.942 -0.3632  0.0733  0.2099
  603MOL0     H81346   9.272   2.722  10.676  1.8296  0.2472  0.3448
  603MOL0     H81347   9.353   2.750  10.825 -1.3820  0.3500 -0.1586
  603MOL0     H81348   9.433   2.526  10.843 -0.7267  1.8005  0.3986
  603MOL0     H81349   9.330   2.463  10.715  0.1719 -0.2919 -0.8590
  603MOL0     H81350   9.439   2.596  10.549 -2.5434  3.1749  0.9975
  603MOL0     H81351   9.549   2.661  10.665  0.8017  0.1802 -2.3295
  603MOL0     H81352   9.540   2.362  10.659  1.7956 -0.2372 -0.8152
  603MOL0     H81353   9.679   2.462  10.695  0.8595  0.6260 -2.1240
  603MOL0     H81354   9.710   2.361  10.479 -0.6116  0.1913 -2.1128
  603MOL0     H81355   9.575   2.431  10.411  0.4384 -1.5915 -0.2005
  603MOL0     H81356   9.915   2.557  10.585  0.2429 -2.7382 -1.1105
  603MOL0     H81357   9.988   2.904  10.444  0.6067  1.0591  0.1624
  603MOL0     H81358  10.018   2.790  10.577 -2.9551 -0.4548 -0.6035
  603MOL0     H81359  10.201   2.829  10.405 -1.6580  2.3826  0.2881
  603MOL0     H81360  10.139   2.648  10.401 -0.3845  0.4483 -2.2411
  603MOL0     H81361  10.070   2.874  10.216  2.0715  0.8636 -0.3285
  603MOL0     H81362  10.012   2.705  10.218 -0.0856  0.2064  3.4762
  603MOL0     H81363  10.196   2.762  10.035  0.8888  1.2912  0.7657
  603MOL0     H81364  10.220   2.628  10.147  3.2238  0.5052 -0.5218
  603MOL0     H81365  10.396   2.645  10.001 -2.9258  0.4862  5.0681
  603MOL0     H81366  10.623   2.603   9.925 -3.7436 -1.7573  1.1714
  603MOL0     H81367  11.095   2.978  10.003 -2.9013 -1.6921 -0.9358
  603MOL0     H81368  11.354   2.957   9.976  2.4270 -2.1223 -2.0417
  603MOL0     H81369  11.567   2.890  10.194 -2.2461  0.5963  2.0382
  603MOL0     H81370  11.485   2.744  10.252  2.2728  3.2602  3.2940
  603MOL0     H81371  11.645   2.585  10.188  2.5786 -0.6348 -0.2631
  603MOL0     H81372  11.722   2.684  10.070  0.3484  1.5565  0.4450
  603MOL0     H81373  11.791   2.845  10.257  0.3413  0.1683  1.0959
  603MOL0     H81374  11.723   2.740  10.375 -2.2446  2.0130 -0.3847
  603MOL0     H81375  11.968   2.669  10.169  1.8964  1.3850  0.6211
  603MOL0     H81376  11.878   2.555  10.270  1.2769 -1.0810 -0.1774
  603MOL0     H81377  12.104   2.657  10.364  0.4230 -0.1424  0.4816
  603MOL0     H81378  11.963   2.668  10.468  0.2494  1.0831  0.7407
  603MOL0     H81379  12.081   2.889  10.285 -0.7747  0.2452 -0.6862
  603MOL0     H81380  11.931   2.916  10.376  1.3963  0.9008 -0.5067
  603MOL0     H81381  12.177   2.843  10.519 -0.4921  0.5861  1.4717
  603MOL0     H81382  12.036   2.942  10.570 -3.4690 -4.2824 -0.3564
  603MOL0     H81383  12.235   3.045  10.357  0.3624  1.5887 -0.0942
  603MOL0     H81384  12.117   3.129  10.448  1.3480  1.7380  2.7268
  603MOL0     H81385  11.330   2.555  10.117  2.3655  0.9548 -0.5429
  603MOL0     H81386  11.080   2.573  10.134  0.4248 -0.3570 -0.7549
  603MOL0     H81387  10.766   2.859  10.241  1.0058  0.4502  0.6160
  603MOL0     H81388  10.529   2.896  10.308 -1.1749  0.4620  0.4886
  603MOL0     H81389   8.704   2.500  10.650 -0.7768  2.1249 -0.5245
  603MOL0     H81390   8.541   2.389  10.746  0.5235 -0.0336  0.0170
  603MOL0     H81391   8.302   2.217  10.972  0.9207 -1.3689  0.5393
  603MOL0     H81392   8.106   2.097  11.014  0.1609  1.5275 -2.2207
  603MOL0     H81393   7.913   2.051  11.064 -1.3357 -2.0925 -0.1250
  603MOL0     H81394   7.811   2.162  11.156  1.5939  1.4361 -3.2697
  603MOL0     H81395   7.859   1.861  11.208  0.6820  0.7604  1.0717
  603MOL0     H81396   7.728   1.923  11.114  1.7020  2.3445 -2.5153
  603MOL0     H81397   7.627   2.033  11.325  0.7826 -1.1227 -1.9623
  603MOL0     H81398   7.771   1.991  11.416  0.1596 -0.6781  0.5263
  603MOL0     H81399   7.614   1.772  11.281 -0.0890 -1.6590  0.9071
  603MOL0     H81400   7.750   1.761  11.390  0.6507  1.2683  0.1169
  603MOL0     H81401   7.427   1.791  11.665  1.6606 -0.0796  1.3597
  603MOL0     H81402   8.106   2.213  11.428 -0.1356  1.3100  0.4680
  603MOL0     H81403   8.286   2.308  11.518  2.1581  0.4736  1.5892
  603MOL0     H81404   8.440   2.337  11.430 -0.0182  1.8334 -0.7441
  603MOL0     H81405   8.318   2.467  11.433 -0.3660  0.7716  0.0851
  604MOL0     O81406   1.268   4.002   9.550  0.2068 -0.2615  0.2484
  604MOL0     C81407   1.181   4.052   9.629 -0.4192 -0.0035  0.7976
  604MOL0     O81408   1.212   4.101   9.760 -0.5593  0.0243  0.4741
  604MOL0     C81409   1.332   4.062   9.819  0.1047 -0.3538  0.3867
  604MOL0     C81410   1.331   3.967   9.929  0.1620  0.3310 -0.1766
  604MOL0     C81411   1.450   3.937  10.003 -0.4434 -0.2788  1.0570
  604MOL0     C81412   1.572   3.989   9.957  0.6197  0.7815  1.2207
  604MOL0     O81413   1.682   3.953  10.031 -0.0163 -0.8172 -0.3383
  604MOL0     C81414   1.767   3.860   9.968 -0.9396  0.1115 -0.0583
  604MOL0     C81415   1.878   3.937   9.900  0.5514  0.1512 -0.3131
  604MOL0     C81416   1.993   3.850   9.868 -0.5833 -0.1398  0.4871
  604MOL0     C81417   2.066   3.792   9.988 -0.0450 -0.2525  0.2000
  604MOL0     C81418   2.195   3.703   9.936 -0.0672 -0.3380  0.2306
  604MOL0     C81419   2.254   3.627  10.053 -0.2021 -0.6555  0.3344
  604MOL0     C81420   2.387   3.552  10.013  0.0782 -0.4484 -0.1068
  604MOL0     C81421   2.505   3.650   9.992  0.0529  0.4776 -0.3871
  604MOL0     N81422   2.624   3.588   9.943 -0.3261  1.0512 -0.4334
  604MOL0     C81423   2.719   3.536  10.025  0.4403 -0.3421 -0.1950
  604MOL0     C81424   2.798   3.458   9.942  0.3037 -0.3504 -0.2511
  604MOL0     C81425   2.917   3.369   9.983  0.4578 -0.7342 -0.5719
  604MOL0     C81426   3.042   3.444  10.029  0.1368  0.1583 -0.2075
  604MOL0     C81427   3.172   3.371  10.071  0.6628  0.3048  0.7393
  604MOL0     C81428   3.277   3.473  10.101  0.6678  0.2727 -0.5321
  604MOL0     O81429   3.393   3.398  10.141  0.0278  0.7100 -0.5824
  604MOL0     C81430   3.506   3.477  10.176 -1.2935  0.4571 -0.3659
  604MOL0     C81431   3.548   3.597  10.116  0.2591  0.1615  0.8961
  604MOL0     C81432   3.673   3.658  10.150 -0.1625  0.9828  0.0421
  604MOL0     C81433   3.745   3.604  10.263 -0.7507 -0.1648 -0.1406
  604MOL0     C81434   3.873   3.669  10.300  0.0725 -0.1002 -0.9197
  604MOL0     O81435   3.924   3.758  10.217 -0.0519  0.2200  0.3324
  604MOL0     C81436   4.028   3.832  10.262  0.0375 -0.1190 -0.1700
  604MOL0     C81437   4.011   3.924  10.363  0.6325  0.0526 -0.1655
  604MOL0     C81438   4.122   4.001  10.404 -0.2132  1.1197 -0.0298
  604MOL0     C81439   4.250   3.983  10.356 -0.5062  0.5163 -0.7670
  604MOL0     O81440   4.363   4.057  10.401  0.8264  0.0990  0.0169
  604MOL0     C81441   4.431   3.996  10.506 -0.1785 -1.1288  0.2497
  604MOL0     C81442   4.392   4.030  10.650  1.1520 -0.0910  0.0986
  604MOL0     C81443   4.455   3.925  10.744  0.6101  0.6129  0.2778
  604MOL0     C81444   4.433   3.941  10.896 -0.3529 -0.4558 -0.3183
  604MOL0     C81445   4.506   3.834  10.975  0.3160 -0.3460 -0.0360
  604MOL0     C81446   4.499   3.877  11.119  0.2557  0.4042  0.1082
  604MOL0     C81447   4.566   3.788  11.224 -1.0355 -0.6443  1.5550
  604MOL0     C81448   4.485   3.668  11.268 -0.7227  0.1298 -0.1030
  604MOL0    Cl81449   4.483   3.533  11.151 -0.0563 -0.0152  0.3995
  604MOL0     C81450   4.265   3.891  10.255 -0.3944 -0.2022  1.0663
  604MOL0     C81451   4.156   3.820  10.200 -0.4266  0.0886 -1.0625
  604MOL0     O81452   3.935   3.599  10.377  0.0916  0.4046 -0.2316
  604MOL0     C81453   3.704   3.490  10.331  0.2589 -1.1525  0.4719
  604MOL0     C81454   3.584   3.432  10.282 -0.2920  0.6042  0.1879
  604MOL0     N81455   2.754   3.492   9.807 -0.2788  0.1456 -0.4033
  604MOL0     N81456   2.648   3.562   9.814  0.3989  0.1336 -0.5538
  604MOL0     C81457   1.574   4.076   9.847 -0.1724  0.0720  0.1683
  604MOL0     C81458   1.455   4.112   9.777 -0.5130  0.7302  1.1810
  604MOL0     C81459   1.034   4.048   9.609  0.0974  0.7514 -0.3664
  604MOL0     C81460   0.947   4.035   9.724 -0.9643 -0.1738  0.5104
  604MOL0     C81461   0.816   4.037   9.705 -0.1095  0.5209  0.4872
  604MOL0     C81462   0.752   4.049   9.584  0.1620 -0.0762  0.4893
  604MOL0     O81463   0.616   4.055   9.580  0.1543 -0.5425  0.1618
  604MOL0     C81464   0.566   4.002   9.450  0.0074 -0.1668 -0.1184
  604MOL0     C81465   0.504   4.105   9.359  0.2791  0.4349 -0.9193
  604MOL0     C81466   0.394   4.050   9.257 -0.0757 -0.0632 -0.2010
  604MOL0     C81467   0.343   4.167   9.166  0.6368 -0.1643 -0.0142
  604MOL0     C81468   0.205   4.138   9.113  0.0147  0.0397 -0.0361
  604MOL0     C81469   0.096   4.109   9.072  0.0270  0.3574  1.1753
  604MOL0     C81470   0.837   4.078   9.471 -0.6132  0.2805  0.7245
  604MOL0     C81471   0.978   4.066   9.478 -0.7956  0.7306 -0.2104
  604MOL0     C81472   1.060   4.085   9.348  0.0119 -0.9738 -0.9362
  604MOL0     H81473   1.236   3.933   9.969 -0.1456  0.7047 -0.5758
  604MOL0     H81474   1.433   3.878  10.092 -3.6053 -1.4258 -0.1465
  604MOL0     H81475   1.816   3.797  10.043 -1.1548 -3.9555 -2.9974
  604MOL0     H81476   1.712   3.802   9.893 -1.2193  1.8496 -1.2593
  604MOL0     H81477   1.909   4.018   9.966  0.9099 -0.1630 -0.0918
  604MOL0     H81478   1.841   3.988   9.810  1.9711 -1.1869 -1.7283
  604MOL0     H81479   2.060   3.899   9.798 -3.2780 -0.1296 -2.2660
  604MOL0     H81480   1.964   3.758   9.818 -2.0515 -0.0999  1.2087
  604MOL0     H81481   2.089   3.873  10.058 -2.4894 -1.8518  3.0340
  604MOL0     H81482   2.005   3.726  10.050 -0.2602  1.0727  1.4593
  604MOL0     H81483   2.155   3.650   9.849  0.2435  3.1477 -2.2640
  604MOL0     H81484   2.266   3.765   9.881 -2.8186  2.1599 -0.7382
  604MOL0     H81485   2.269   3.703  10.130 -2.4686 -0.3630  0.5538
  604MOL0     H81486   2.184   3.546  10.074 -0.4589 -0.2296  1.1427
  604MOL0     H81487   2.367   3.502   9.918  1.2423 -0.0705 -0.5724
  604MOL0     H81488   2.406   3.475  10.089  0.0424  0.2916  0.6575
  604MOL0     H81489   2.471   3.734   9.931 -1.0962  0.0124 -0.4286
  604MOL0     H81490   2.531   3.690  10.090  0.1882  3.9004 -1.6716
  604MOL0     H81491   2.723   3.544  10.134  0.3345 -1.4149 -0.0999
  604MOL0     H81492   2.876   3.306  10.062 -0.4691  1.5877  0.8878
  604MOL0     H81493   2.948   3.308   9.897  0.4847  0.1106 -1.1713
  604MOL0     H81494   3.074   3.493   9.937  2.0925  0.7694  0.7343
  604MOL0     H81495   3.012   3.511  10.111 -2.1473 -0.5557 -0.3846
  604MOL0     H81496   3.206   3.316   9.983  0.4932  0.6520  0.4518
  604MOL0     H81497   3.165   3.300  10.153 -0.6582  1.4731  1.6831
  604MOL0     H81498   3.237   3.536  10.180  0.7077  1.1043 -1.1594
  604MOL0     H81499   3.301   3.539  10.017 -0.7272  0.2768 -0.9490
  604MOL0     H81500   3.484   3.641  10.040  0.2782  1.2489  1.4869
  604MOL0     H81501   3.713   3.741  10.093  0.1969  1.8896  1.5661
  604MOL0     H81502   3.917   3.942  10.413 -0.5317  0.2337 -2.3345
  604MOL0     H81503   4.121   4.071  10.488 -1.6227  1.7512 -0.5378
  604MOL0     H81504   4.429   3.888  10.489 -1.1125 -1.2153  0.8601
  604MOL0     H81505   4.537   4.017  10.492 -0.8019  1.0144 -2.0735
  604MOL0     H81506   4.412   4.134  10.675  0.4294 -0.0014  0.3061
  604MOL0     H81507   4.286   4.017  10.673  1.0606  0.4845  0.0246
  604MOL0     H81508   4.399   3.833  10.724  1.1120  0.7089 -1.8797
  604MOL0     H81509   4.561   3.907  10.720  0.2690 -0.2175 -0.6827
  604MOL0     H81510   4.333   3.934  10.939  0.2547  0.3732  1.2895
  604MOL0     H81511   4.470   4.042  10.913 -0.3750  0.0166 -2.6686
  604MOL0     H81512   4.615   3.835  10.962  0.9453  0.0774  3.9581
  604MOL0     H81513   4.449   3.745  10.951 -0.5004  0.3275 -0.6180
  604MOL0     H81514   4.532   3.981  11.120  0.8630  0.2530 -1.2566
  604MOL0     H81515   4.395   3.879  11.154  0.4878  0.1379  0.8133
  604MOL0     H81516   4.586   3.853  11.310  1.2886 -1.5781  1.7858
  604MOL0     H81517   4.664   3.755  11.189 -0.2643  3.0027 -0.2165
  604MOL0     H81518   4.539   3.622  11.352 -0.9230 -0.5511 -0.3387
  604MOL0     H81519   4.382   3.699  11.291 -0.8591  0.3866 -1.0438
  604MOL0     H81520   4.366   3.885  10.215 -1.0249  4.3375 -1.8982
  604MOL0     H81521   4.173   3.749  10.119  3.5518 -1.3320  0.7513
  604MOL0     H81522   3.768   3.443  10.404  0.9873  0.8428  1.1895
  604MOL0     H81523   3.571   3.329  10.313  3.0454  0.3090  0.9832
  604MOL0     H81524   1.674   4.109   9.819  0.5179 -0.7814  1.5020
  604MOL0     H81525   1.469   4.173   9.688 -2.3496 -0.0555  0.3035
  604MOL0     H81526   0.989   4.015   9.822  2.0014 -4.0291 -1.2811
  604MOL0     H81527   0.745   4.026   9.786 -1.4108 -1.3714 -0.8293
  604MOL0     H81528   0.493   3.926   9.480 -0.3620  0.4089  0.4668
  604MOL0     H81529   0.636   3.942   9.391 -0.4969  0.5975 -1.5393
  604MOL0     H81530   0.588   4.155   9.311 -0.2998  1.2282 -1.1296
  604MOL0     H81531   0.449   4.166   9.432 -0.5366 -0.4962 -0.7308
  604MOL0     H81532   0.313   3.991   9.302  2.7838 -3.3612  1.1172
  604MOL0     H81533   0.437   3.973   9.192  0.3834  0.8163 -0.9499
  604MOL0     H81534   0.321   4.258   9.221  1.1993  2.6548 -4.0122
  604MOL0     H81535   0.417   4.189   9.087  1.3725 -0.0805  0.6864
  604MOL0     H81536  -0.003   4.089   9.039 -0.4054  1.6788  1.6237
  604MOL0     H81537   0.794   4.122   9.381  1.9554 -0.5725 -1.0381
  604MOL0     H81538   1.130   4.162   9.382 -3.0200  0.5597  2.3894
  604MOL0     H81539   1.101   3.994   9.302 -0.3631 -0.6085 -2.0195
  604MOL0     H81540   1.006   4.130   9.265 -1.0942  1.2912  0.9098
  605MOL0     O81541  10.953  10.181   2.620  0.0291  0.4691 -0.0373
  605MOL0     C81542  10.955  10.282   2.550 -0.2898 -0.5599  0.1670
  605MOL0     O81543  11.069  10.359   2.528 -0.4960 -0.0228 -0.0646
  605MOL0     C81544  11.179  10.357   2.622 -0.6552  0.1578  0.1311
  605MOL0     C81545  11.172  10.402   2.756 -0.1907 -0.0877  0.1399
  605MOL0     C81546  11.281  10.375   2.847 -0.1264  0.5801  0.4199
  605MOL0     C81547  11.394  10.300   2.806 -0.7756  0.0927  0.0887
  605MOL0     O81548  11.504  10.272   2.880  0.0860 -0.3442 -0.5570
  605MOL0     C81549  11.518  10.302   3.023 -0.3002 -0.4469  0.1882
  605MOL0     C81550  11.663  10.347   3.038 -0.3609  0.3365  0.1737
  605MOL0     C81551  11.703  10.354   3.182 -0.2490 -1.4696 -0.2339
  605MOL0     C81552  11.732  10.219   3.256  0.2492 -0.3781 -0.3723
  605MOL0     C81553  11.858  10.149   3.202 -0.1648 -0.2447  0.4733
  605MOL0     C81554  11.988  10.202   3.257 -0.3297  0.4738 -0.0462
  605MOL0     C81555  12.105  10.155   3.181 -0.4664  0.2509 -0.0066
  605MOL0     C81556  12.235  10.223   3.226  0.0655  0.5697  0.3410
  605MOL0     N81557  12.274  10.183   3.355  0.1033  0.6745 -0.1127
  605MOL0     C81558  12.209  10.202   3.476 -0.9891 -0.0663  0.1678
  605MOL0     C81559  12.299  10.162   3.570 -0.0501 -0.4797  0.0212
  605MOL0     C81560  12.280  10.198   3.711 -0.5198  0.4166 -2.0010
  605MOL0     C81561  12.271  10.077   3.796 -0.5416 -0.0738  0.1463
  605MOL0     C81562  12.237  10.095   3.949  0.2652 -1.4097 -0.0695
  605MOL0     C81563  12.361  10.062   4.035  0.8397 -0.7932  0.0167
  605MOL0     O81564  12.445  10.175   4.041 -0.0639 -0.1745 -0.8783
  605MOL0     C81565  12.578  10.137   4.054  0.4955 -0.5204  0.5938
  605MOL0     C81566  12.670  10.242   4.049  0.7157 -0.3803  0.3245
  605MOL0     C81567  12.806  10.235   4.053 -0.1786  0.0139  0.3185
  605MOL0     C81568  12.863  10.108   4.075  0.3034 -0.4138 -0.8418
  605MOL0     C81569  13.014  10.088   4.080  0.5726  0.6830  0.1660
  605MOL0     O81570  13.057   9.955   4.097  0.1445  0.1657  0.2715
  605MOL0     C81571  13.195   9.915   4.112  0.0562 -0.0555  0.1606
  605MOL0     C81572  13.218   9.782   4.083 -0.1046  0.5168 -0.1303
  605MOL0     C81573  13.348   9.730   4.106 -1.4025 -0.1605 -0.6470
  605MOL0     C81574  13.449   9.804   4.161 -0.2502 -0.3146 -0.2305
  605MOL0     O81575  13.571   9.749   4.172  0.3544  0.1177  0.2372
  605MOL0     C81576  13.625   9.761   4.307 -0.3681  0.1858 -0.6821
  605MOL0     C81577  13.767   9.725   4.307 -0.4895 -0.0245  0.0223
  605MOL0     C81578  13.847   9.840   4.227 -0.1230 -0.1412 -1.1741
  605MOL0     C81579  13.990   9.795   4.196  0.3624 -0.4214 -0.4067
  605MOL0     C81580  13.994   9.730   4.055  0.2683  0.3706 -1.1375
  605MOL0     C81581  14.135   9.688   4.011 -0.3910 -0.1498  0.6915
  605MOL0     C81582  14.145   9.604   3.888  1.1243  0.8023 -0.5590
  605MOL0     C81583  14.188   9.464   3.920 -1.0223 -0.3583 -0.1254
  605MOL0    Cl81584  14.076   9.368   4.014  0.2207 -0.0398 -0.1743
  605MOL0     C81585  13.432   9.943   4.177  0.4522  0.4259 -0.6784
  605MOL0     C81586  13.305  10.003   4.152 -0.1517  0.0435 -0.1399
  605MOL0     O81587  13.089  10.180   4.072  0.1144 -0.2619  0.0219
  605MOL0     C81588  12.777   9.996   4.092  0.2067  0.0140 -0.1328
  605MOL0     C81589  12.639  10.009   4.076  0.9546  0.3347  0.0299
  605MOL0     N81590  12.415  10.110   3.507 -0.5578 -0.6364 -0.5475
  605MOL0     N81591  12.390  10.112   3.379  0.3396 -0.4176  0.1544
  605MOL0     C81592  11.405  10.256   2.673  0.5206 -0.1969  0.9134
  605MOL0     C81593  11.292  10.289   2.586  0.2756  0.6620 -0.3327
  605MOL0     C81594  10.844  10.309   2.452 -1.0881 -0.4750  0.1031
  605MOL0     C81595  10.867  10.391   2.343  0.6766 -0.4628 -0.4839
  605MOL0     C81596  10.768  10.410   2.245  0.4785 -0.3417  0.6578
  605MOL0     C81597  10.640  10.362   2.263 -0.3039  1.2453 -0.1501
  605MOL0     O81598  10.533  10.382   2.187 -0.5287 -0.1914 -0.1597
  605MOL0     C81599  10.524  10.502   2.118  0.0664 -0.4436 -0.2896
  605MOL0     C81600  10.383  10.521   2.057 -0.0175 -0.2913 -0.6341
  605MOL0     C81601  10.267  10.544   2.160  0.1599 -0.8416 -0.4900
  605MOL0     C81602  10.257  10.680   2.222 -0.0497 -0.7481  0.0449
  605MOL0     C81603  10.234  10.787   2.118  0.6182  0.3854  0.5965
  605MOL0     C81604  10.208  10.860   2.027  1.0960 -0.4516  1.3961
  605MOL0     C81605  10.615  10.277   2.367  0.3978  0.1992  0.0687
  605MOL0     C81606  10.720  10.250   2.463  0.2288 -0.0177 -0.0025
  605MOL0     C81607  10.681  10.154   2.572 -0.4178 -0.5266  0.0406
  605MOL0     H81608  11.092  10.467   2.790  1.3269  2.4169 -0.7614
  605MOL0     H81609  11.261  10.411   2.948 -1.4039 -0.6086  0.6260
  605MOL0     H81610  11.455  10.384   3.060  0.7613 -0.1421  1.3944
  605MOL0     H81611  11.503  10.218   3.090 -1.4750 -0.0278  0.4744
  605MOL0     H81612  11.672  10.453   3.013 -0.9656  0.2566 -0.4042
  605MOL0     H81613  11.737  10.292   2.979 -0.8659 -2.7670  2.1535
  605MOL0     H81614  11.628  10.413   3.236 -1.5594 -2.1509 -1.2445
  605MOL0     H81615  11.795  10.413   3.187 -1.5667  0.7739 -1.0923
  605MOL0     H81616  11.745  10.250   3.360 -1.6206 -0.6698 -0.0169
  605MOL0     H81617  11.634  10.170   3.261  0.0968 -0.0480  4.6925
  605MOL0     H81618  11.848  10.043   3.223 -1.4272  0.2607  2.8076
  605MOL0     H81619  11.873  10.163   3.094  2.8277  0.6628  0.9146
  605MOL0     H81620  11.991  10.311   3.258  3.6263  0.5678  2.7345
  605MOL0     H81621  12.001  10.168   3.360  1.4920  0.7140 -0.1540
  605MOL0     H81622  12.091  10.170   3.073 -1.6576 -3.3197 -0.4662
  605MOL0     H81623  12.129  10.049   3.194  0.2649  0.2338 -1.3236
  605MOL0     H81624  12.314  10.204   3.152  0.5357  4.7007 -0.4781
  605MOL0     H81625  12.228  10.332   3.225 -1.7518  0.5048  1.7883
  605MOL0     H81626  12.117  10.260   3.482 -0.5970  0.6914 -0.7738
  605MOL0     H81627  12.359  10.258   3.757  1.8497 -3.4987 -0.5096
  605MOL0     H81628  12.180  10.240   3.723 -0.6466 -0.2832 -0.4020
  605MOL0     H81629  12.191  10.014   3.756  0.2618 -0.6038 -0.6614
  605MOL0     H81630  12.366  10.021   3.797 -1.5275 -1.9529  3.0985
  605MOL0     H81631  12.148  10.038   3.976  0.1825 -0.9821  0.5856
  605MOL0     H81632  12.204  10.199   3.959  3.7637 -0.0683 -0.8724
  605MOL0     H81633  12.405   9.966   4.005  2.3179  0.0652 -0.6804
  605MOL0     H81634  12.310  10.048   4.131 -2.1168  0.8834 -1.1856
  605MOL0     H81635  12.626  10.341   4.039  0.2062 -0.7046 -0.7193
  605MOL0     H81636  12.868  10.324   4.053  1.3791 -1.0458 -0.3430
  605MOL0     H81637  13.135   9.724   4.042  0.3793  0.1399 -0.5836
  605MOL0     H81638  13.348   9.623   4.090 -0.9225 -0.0904 -1.1300
  605MOL0     H81639  13.629   9.865   4.340  0.0324 -1.2505  4.8944
  605MOL0     H81640  13.569   9.703   4.381 -1.7864  1.8212 -0.4344
  605MOL0     H81641  13.797   9.712   4.412  0.2457 -1.7945 -0.3627
  605MOL0     H81642  13.782   9.628   4.258 -0.4614 -1.3491  2.4731
  605MOL0     H81643  13.803   9.869   4.131  0.4940  3.7411 -0.4468
  605MOL0     H81644  13.852   9.926   4.295 -1.5323 -0.6212 -0.4376
  605MOL0     H81645  14.033   9.721   4.264  0.8151 -1.9637 -2.2761
  605MOL0     H81646  14.061   9.878   4.199  1.6348 -1.4627 -0.4431
  605MOL0     H81647  13.965   9.803   3.978 -0.2072  2.7823  1.2002
  605MOL0     H81648  13.937   9.637   4.053  1.0592 -0.1331 -0.9516
  605MOL0     H81649  14.185   9.785   3.998 -0.4146 -0.0831  1.0688
  605MOL0     H81650  14.194   9.637   4.087  0.7187  0.5823  0.3436
  605MOL0     H81651  14.220   9.637   3.816  0.4431  0.5027 -1.4157
  605MOL0     H81652  14.046   9.595   3.844  1.2331 -4.6630 -0.4031
  605MOL0     H81653  14.211   9.403   3.832 -1.4186  1.8277 -1.8060
  605MOL0     H81654  14.285   9.469   3.970 -1.6607 -1.6905  1.3508
  605MOL0     H81655  13.517  10.007   4.199 -0.6389  1.8276 -0.3632
  605MOL0     H81656  13.295  10.111   4.158 -1.2333 -0.0867  0.6532
  605MOL0     H81657  12.814   9.899   4.126  0.0555 -0.1734 -0.4970
  605MOL0     H81658  12.581   9.919   4.097 -1.0641  0.8725 -2.6762
  605MOL0     H81659  11.487  10.203   2.626 -1.1461 -2.2256  0.1315
  605MOL0     H81660  11.300  10.268   2.480  1.4549 -3.4406  0.3964
  605MOL0     H81661  10.966  10.433   2.330 -0.2231  1.3840 -1.8550
  605MOL0     H81662  10.792  10.478   2.163 -2.2032  0.4956  0.4718
  605MOL0     H81663  10.590  10.502   2.031 -0.9216 -0.3085 -1.0674
  605MOL0     H81664  10.556  10.596   2.163 -0.4238  0.3154 -1.4722
  605MOL0     H81665  10.358  10.440   1.988 -0.5660 -1.3848  0.8004
  605MOL0     H81666  10.408  10.605   1.992  3.2423 -1.2890 -0.8555
  605MOL0     H81667  10.276  10.464   2.233 -1.7017  2.5997  4.0095
  605MOL0     H81668  10.176  10.537   2.099 -1.6735 -0.4383  2.0546
  605MOL0     H81669  10.173  10.679   2.292 -0.6768  0.3382 -0.6462
  605MOL0     H81670  10.355  10.692   2.268  1.2285 -2.4151 -2.0522
  605MOL0     H81671  10.180  10.913   1.938 -0.0148 -1.6883  0.9766
  605MOL0     H81672  10.519  10.228   2.356 -0.0277  1.2935 -1.5595
  605MOL0     H81673  10.750  10.070   2.586 -1.3754 -1.3896 -0.2523
  605MOL0     H81674  10.655  10.201   2.667  1.0157 -1.2385  0.8190
  605MOL0     H81675  10.582  10.112   2.549 -1.4816  0.8759  1.7905
  606MOL0     O81676   4.276   4.121   2.297  0.4886 -0.2855 -0.5448
  606MOL0     C81677   4.295   4.242   2.320  0.5756  0.1799  0.5940
  606MOL0     O81678   4.408   4.301   2.350 -0.4491 -0.1032 -0.9332
  606MOL0     C81679   4.506   4.239   2.427 -0.7164 -0.3725 -0.0598
  606MOL0     C81680   4.502   4.105   2.476  0.6132 -0.1562  0.0027
  606MOL0     C81681   4.604   4.063   2.563 -0.7262  1.0064 -1.4932
  606MOL0     C81682   4.703   4.147   2.608 -0.9803  0.4812  1.0755
  606MOL0     O81683   4.793   4.123   2.700  0.1559  0.1214 -0.6570
  606MOL0     C81684   4.805   4.008   2.784  0.3561 -0.2055 -0.0616
  606MOL0     C81685   4.919   4.025   2.878  0.2111 -0.0259 -0.2223
  606MOL0     C81686   4.996   3.888   2.899  0.2557 -0.2732 -0.0936
  606MOL0     C81687   5.069   3.873   3.034  0.2714  0.5424  0.7913
  606MOL0     C81688   5.136   3.737   3.034 -0.3191 -0.6850  0.3212
  606MOL0     C81689   5.232   3.707   3.147  0.5210  0.3461  1.1595
  606MOL0     C81690   5.262   3.552   3.158 -0.9955  0.8369 -0.7714
  606MOL0     C81691   5.384   3.523   3.071  0.1125  0.7762 -0.7160
  606MOL0     N81692   5.516   3.538   3.134 -0.0762  0.1805 -1.0409
  606MOL0     C81693   5.566   3.429   3.201  0.1224 -0.4841  0.3478
  606MOL0     C81694   5.681   3.478   3.257 -0.8519  0.2669 -0.0532
  606MOL0     C81695   5.770   3.399   3.354 -0.1012 -0.3166 -0.5492
  606MOL0     C81696   5.897   3.485   3.394 -0.7850  0.3465 -0.0963
  606MOL0     C81697   5.978   3.390   3.472 -0.8048  0.3947 -0.1616
  606MOL0     C81698   6.061   3.473   3.576 -0.5648 -0.2407  0.8342
  606MOL0     O81699   6.140   3.388   3.654  0.7114 -0.5809 -0.1483
  606MOL0     C81700   6.258   3.439   3.709  0.5189  0.6675  0.1837
  606MOL0     C81701   6.342   3.338   3.771 -0.1331  1.0978 -0.1896
  606MOL0     C81702   6.464   3.363   3.831  0.5047  1.0537 -0.5155
  606MOL0     C81703   6.509   3.494   3.826  0.4629  0.0704  0.8020
  606MOL0     C81704   6.642   3.525   3.868 -0.6322 -0.6826 -0.8108
  606MOL0     O81705   6.719   3.614   3.794 -0.9352  0.8456 -0.4220
  606MOL0     C81706   6.855   3.630   3.838  0.7924 -0.3845  0.9306
  606MOL0     C81707   6.945   3.626   3.734  0.1145 -1.1629  0.1251
  606MOL0     C81708   7.079   3.646   3.764  0.8762  0.0518  0.1613
  606MOL0     C81709   7.121   3.673   3.888 -0.0272  0.7950 -0.7452
  606MOL0     O81710   7.258   3.670   3.894 -0.3895  0.8292 -0.4460
  606MOL0     C81711   7.331   3.605   3.994 -0.5912  0.5016 -0.5865
  606MOL0     C81712   7.353   3.703   4.112  0.6319 -1.2885 -0.5115
  606MOL0     C81713   7.336   3.844   4.065 -0.1183  0.1200 -0.3366
  606MOL0     C81714   7.440   3.874   3.963  1.4489  0.4377 -0.0641
  606MOL0     C81715   7.492   4.021   3.973 -0.7177  0.6765  0.1773
  606MOL0     C81716   7.578   4.053   3.850 -0.2295  0.8565 -0.6088
  606MOL0     C81717   7.655   4.177   3.876  0.0032  0.3300  0.6201
  606MOL0     C81718   7.769   4.159   3.976  0.5412  0.7856 -0.1718
  606MOL0    Cl81719   7.884   4.040   3.923 -0.1599 -0.1878  0.5433
  606MOL0     C81720   7.035   3.673   3.996  0.7813 -0.3588  0.8415
  606MOL0     C81721   6.892   3.666   3.967  1.3224 -0.0343  0.8555
  606MOL0     O81722   6.692   3.447   3.951  0.6275 -0.6059  0.6773
  606MOL0     C81723   6.435   3.598   3.771 -1.0024  0.5081  0.2435
  606MOL0     C81724   6.306   3.572   3.722  0.1312  0.4529  0.5282
  606MOL0     N81725   5.700   3.612   3.226 -0.5137  0.7003  0.4014
  606MOL0     N81726   5.599   3.647   3.150  0.1268 -0.3291  0.7551
  606MOL0     C81727   4.711   4.274   2.546  0.4480 -0.3378  0.6506
  606MOL0     C81728   4.612   4.323   2.454  0.1761  0.4630  0.3018
  606MOL0     C81729   4.179   4.338   2.296 -0.0685  0.0824 -0.3245
  606MOL0     C81730   4.189   4.427   2.188 -0.1918  0.3359  0.5326
  606MOL0     C81731   4.081   4.515   2.153 -0.6057 -0.3010  0.9340
  606MOL0     C81732   3.970   4.521   2.238  0.5825 -0.2659 -0.0120
  606MOL0     O81733   3.855   4.601   2.223 -0.3967  0.1299 -0.6905
  606MOL0     C81734   3.870   4.731   2.181 -0.2274 -0.2062 -0.1840
  606MOL0     C81735   3.739   4.800   2.184  0.4244  1.1630  0.2059
  606MOL0     C81736   3.747   4.944   2.134  0.3653 -0.8293 -0.1055
  606MOL0     C81737   3.772   4.967   1.983 -0.6702 -0.9122  0.0826
  606MOL0     C81738   3.784   5.107   1.949 -0.1717 -0.3585 -0.1749
  606MOL0     C81739   3.808   5.215   1.898  0.6237  0.0683  0.2617
  606MOL0     C81740   3.964   4.430   2.344  0.0117 -0.5221 -0.7277
  606MOL0     C81741   4.061   4.332   2.374  0.1112  0.5253 -0.6274
  606MOL0     C81742   4.012   4.228   2.473 -0.1415  0.4782 -0.0324
  606MOL0     H81743   4.417   4.039   2.461  0.7847 -0.5736  0.8171
  606MOL0     H81744   4.601   3.959   2.593  2.5060  1.9286  3.1276
  606MOL0     H81745   4.713   3.983   2.839  1.7656 -3.5868  1.0155
  606MOL0     H81746   4.828   3.921   2.722  2.7571 -1.8362  2.8339
  606MOL0     H81747   4.880   4.060   2.974 -1.3520  1.1919 -1.2598
  606MOL0     H81748   4.983   4.100   2.831 -0.1708 -1.1428 -2.6646
  606MOL0     H81749   5.068   3.877   2.817 -2.0820 -1.1116 -2.1597
  606MOL0     H81750   4.925   3.806   2.889 -2.4161  1.8153  0.5178
  606MOL0     H81751   5.145   3.952   3.044  1.8144 -1.0654  2.6461
  606MOL0     H81752   4.999   3.878   3.118 -1.5943 -1.5045 -0.5289
  606MOL0     H81753   5.044   3.680   3.047 -3.1322  2.7995 -2.3493
  606MOL0     H81754   5.182   3.723   2.935 -3.4279  1.4173 -1.5879
  606MOL0     H81755   5.324   3.762   3.124  1.4867 -0.8840  1.9009
  606MOL0     H81756   5.200   3.741   3.246  1.6140 -2.6345  2.6657
  606MOL0     H81757   5.185   3.487   3.116 -0.4214  0.5121 -1.3504
  606MOL0     H81758   5.295   3.523   3.258  0.9645  3.9509 -0.3790
  606MOL0     H81759   5.365   3.418   3.048 -0.3394  0.6177  0.3020
  606MOL0     H81760   5.379   3.575   2.975  0.3917  3.3469  0.5969
  606MOL0     H81761   5.514   3.334   3.210 -0.5380 -0.1408  0.2617
  606MOL0     H81762   5.708   3.374   3.441  2.0897  2.5558  2.0602
  606MOL0     H81763   5.810   3.309   3.306  2.7907 -0.6192  2.1266
  606MOL0     H81764   5.950   3.519   3.304 -2.2257 -1.3684 -1.6746
  606MOL0     H81765   5.868   3.575   3.448  1.9350  1.1235  0.2320
  606MOL0     H81766   6.037   3.334   3.399 -1.5314 -2.5213  1.3439
  606MOL0     H81767   5.915   3.313   3.516  0.0971 -1.2949 -1.6691
  606MOL0     H81768   5.996   3.532   3.642 -1.7678 -2.0081  1.2837
  606MOL0     H81769   6.132   3.532   3.518  2.2133 -3.7121  0.3401
  606MOL0     H81770   6.307   3.235   3.768  2.6658  0.0513 -0.3126
  606MOL0     H81771   6.533   3.288   3.867 -0.8181 -0.2794 -0.6771
  606MOL0     H81772   6.916   3.610   3.630 -2.2050  1.0865  0.3241
  606MOL0     H81773   7.146   3.629   3.680 -0.9883 -0.7170 -1.2405
  606MOL0     H81774   7.276   3.523   4.041  1.1846 -1.0992 -1.1823
  606MOL0     H81775   7.427   3.563   3.965  0.3178  0.4565  2.2510
  606MOL0     H81776   7.284   3.686   4.195 -0.6893  2.1340 -0.7333
  606MOL0     H81777   7.452   3.693   4.159  0.4643 -0.2307  0.0909
  606MOL0     H81778   7.231   3.859   4.042 -0.3915  1.6633  1.6794
  606MOL0     H81779   7.363   3.901   4.155 -1.4729 -1.5176  1.1999
  606MOL0     H81780   7.390   3.854   3.868  1.3194 -1.6853  0.3808
  606MOL0     H81781   7.528   3.814   3.988  1.7830  1.2591  0.7783
  606MOL0     H81782   7.551   4.025   4.064 -1.9934  0.3192  1.0574
  606MOL0     H81783   7.415   4.099   3.975 -1.2816  0.1771 -0.8760
  606MOL0     H81784   7.642   3.969   3.824  0.3548  0.7473  1.0422
  606MOL0     H81785   7.512   4.067   3.764  0.2226 -3.1231 -1.7604
  606MOL0     H81786   7.588   4.258   3.906  0.4026  1.8923 -2.3537
  606MOL0     H81787   7.711   4.206   3.787  3.7621  0.4248  2.7905
  606MOL0     H81788   7.820   4.256   3.969  1.3172  0.2530 -4.3184
  606MOL0     H81789   7.734   4.144   4.078  1.6734  0.7146  0.2189
  606MOL0     H81790   7.072   3.710   4.091  1.4269  2.3427 -0.3700
  606MOL0     H81791   6.815   3.668   4.043  3.3955 -0.3280  3.0611
  606MOL0     H81792   6.472   3.699   3.780  1.1090 -0.0249 -1.6567
  606MOL0     H81793   6.241   3.656   3.699  0.4724  0.7600  0.6596
  606MOL0     H81794   4.799   4.334   2.568 -2.1397  4.1633 -0.1668
  606MOL0     H81795   4.607   4.421   2.409 -1.9257  1.3050  2.1923
  606MOL0     H81796   4.276   4.420   2.124  1.1922 -4.0989  2.4957
  606MOL0     H81797   4.089   4.596   2.082  0.2959 -0.2913  1.0393
  606MOL0     H81798   3.904   4.724   2.077 -3.0652 -2.5762 -1.0884
  606MOL0     H81799   3.942   4.779   2.247  0.5968 -1.1832 -0.3535
  606MOL0     H81800   3.699   4.800   2.286 -1.8678  0.9852 -0.6163
  606MOL0     H81801   3.671   4.737   2.126  1.1924 -0.0012  0.5436
  606MOL0     H81802   3.813   5.005   2.197 -0.2667 -4.6835  4.9780
  606MOL0     H81803   3.652   4.992   2.161  1.7405  1.7049  0.6485
  606MOL0     H81804   3.867   4.926   1.947 -0.4685  1.1015 -1.9461
  606MOL0     H81805   3.695   4.919   1.922 -2.2130 -1.3128  2.2375
  606MOL0     H81806   3.841   5.304   1.849 -1.4790  0.5385 -0.3897
  606MOL0     H81807   3.886   4.440   2.419 -0.8665  0.8722 -1.8086
  606MOL0     H81808   4.080   4.252   2.556  1.2934 -0.9264 -0.7337
  606MOL0     H81809   3.913   4.240   2.516  0.0259 -2.3749  1.3819
  606MOL0     H81810   4.018   4.129   2.427 -2.5382  0.7286 -0.9885
  607MOL0     O81811   5.575   1.766   9.995  0.3592 -0.1631 -0.2715
  607MOL0     C81812   5.597   1.677  10.075 -0.3831 -0.1484  0.1446
  607MOL0     O81813   5.709   1.667  10.151  0.5589 -0.3573  0.4223
  607MOL0     C81814   5.820   1.746  10.134 -0.2390 -0.5524  0.3214
  607MOL0     C81815   5.909   1.724  10.025  0.5536 -0.4709 -0.5932
  607MOL0     C81816   6.016   1.812  10.004 -0.1742 -0.2570 -0.7599
  607MOL0     C81817   6.050   1.909  10.105  0.1299 -0.2242  0.6198
  607MOL0     O81818   6.157   1.984  10.099 -0.6740 -0.9371  0.4341
  607MOL0     C81819   6.288   1.934  10.047  0.4871 -0.4282 -0.2231
  607MOL0     C81820   6.400   2.034  10.093  0.3013  0.2367 -0.9363
  607MOL0     C81821   6.402   2.062  10.247  0.0094 -0.3934 -0.0915
  607MOL0     C81822   6.515   1.981  10.315  0.0225  0.1404 -0.0672
  607MOL0     C81823   6.473   1.950  10.463  0.0379  1.1273 -0.1503
  607MOL0     C81824   6.576   1.870  10.549 -0.2871  0.5792 -1.3111
  607MOL0     C81825   6.538   1.863  10.699 -0.9543 -0.1496 -0.0515
  607MOL0     C81826   6.613   1.748  10.777  0.9276  0.3711  0.0875
  607MOL0     N81827   6.757   1.741  10.786 -0.2438  0.4759 -0.4980
  607MOL0     C81828   6.824   1.838  10.850  0.5095  1.0671  0.4664
  607MOL0     C81829   6.944   1.823  10.803  0.4453  0.2824 -0.6478
  607MOL0     C81830   7.064   1.902  10.859  0.6299  0.4068 -0.6454
  607MOL0     C81831   7.074   2.034  10.790 -0.0344  0.4546  0.0968
  607MOL0     C81832   7.175   2.123  10.867 -0.2192  0.3008 -0.8986
  607MOL0     C81833   7.202   2.259  10.808  0.1805 -0.2348  0.3353
  607MOL0     O81834   7.316   2.317  10.866 -0.3010  0.2903  0.3950
  607MOL0     C81835   7.447   2.276  10.829 -0.1011 -0.3978  0.5484
  607MOL0     C81836   7.535   2.322  10.920 -0.2935 -0.1674 -0.0999
  607MOL0     C81837   7.680   2.293  10.897  0.0249  0.6480 -0.3320
  607MOL0     C81838   7.720   2.227  10.779  0.1954 -0.7800  1.2684
  607MOL0     C81839   7.857   2.180  10.750 -0.0597  0.2671 -0.1463
  607MOL0     O81840   7.877   2.078  10.658 -0.4050  0.7616 -0.6735
  607MOL0     C81841   8.002   2.055  10.608  0.3800  0.2156  0.8223
  607MOL0     C81842   7.999   1.985  10.481 -0.2772 -0.8589  0.0689
  607MOL0     C81843   8.113   1.947  10.415 -0.1400 -0.4052  0.1175
  607MOL0     C81844   8.237   1.983  10.473 -0.2221  0.4705  0.0061
  607MOL0     O81845   8.361   1.957  10.413 -0.4073 -0.7862 -0.4739
  607MOL0     C81846   8.371   1.913  10.272 -0.3964 -0.3044  0.2147
  607MOL0     C81847   8.489   1.813  10.253  0.1302 -0.7282 -0.5214
  607MOL0     C81848   8.612   1.882  10.297 -0.8470 -0.0158  0.3302
  607MOL0     C81849   8.734   1.791  10.268  0.9174  0.8705 -0.0649
  607MOL0     C81850   8.863   1.862  10.307 -0.4758 -0.6671 -0.4567
  607MOL0     C81851   8.990   1.783  10.279 -0.4767 -0.3820 -0.5415
  607MOL0     C81852   9.118   1.843  10.331  0.4425  0.8059  0.3789
  607MOL0     C81853   9.239   1.780  10.262 -0.2282 -0.5469 -0.8909
  607MOL0    Cl81854   9.225   1.830  10.082 -0.0020  0.3550 -0.5619
  607MOL0     C81855   8.243   2.045  10.596 -1.1569 -0.3701  0.6316
  607MOL0     C81856   8.129   2.091  10.654 -0.3459 -0.2457 -0.2595
  607MOL0     O81857   7.941   2.244  10.822  0.6968  0.1006 -0.1847
  607MOL0     C81858   7.622   2.181  10.690  0.4219  0.7941 -0.0660
  607MOL0     C81859   7.490   2.199  10.720  1.2110 -0.7755  0.6057
  607MOL0     N81860   6.956   1.707  10.720 -0.3716 -0.3631 -0.2230
  607MOL0     N81861   6.835   1.658  10.709 -0.3009  0.3874  0.3623
  607MOL0     C81862   5.949   1.940  10.198  0.4635 -0.1608  0.6422
  607MOL0     C81863   5.838   1.857  10.220  1.3612  0.1808 -0.0935
  607MOL0     C81864   5.487   1.578  10.093 -0.3419  0.9022 -0.6618
  607MOL0     C81865   5.500   1.490  10.200 -1.0982  0.1491 -0.7604
  607MOL0     C81866   5.410   1.390  10.237 -0.1982  0.6828 -0.6476
  607MOL0     C81867   5.295   1.370  10.152 -0.6524  0.1343  0.3430
  607MOL0     O81868   5.206   1.274  10.188 -0.0854 -0.9820 -1.2234
  607MOL0     C81869   5.089   1.328  10.244 -0.7766  0.8984 -0.0298
  607MOL0     C81870   4.974   1.213  10.255 -0.2023 -1.1284  0.3202
  607MOL0     C81871   4.904   1.180  10.113  0.6931  0.5195  0.4608
  607MOL0     C81872   4.792   1.080  10.123  0.2008  0.1418 -0.2142
  607MOL0     C81873   4.738   1.059   9.990  0.6409  0.3733  0.7533
  607MOL0     C81874   4.684   1.050   9.876  0.6063 -0.2097  0.5123
  607MOL0     C81875   5.281   1.454  10.036 -0.2091 -0.7141  0.0485
  607MOL0     C81876   5.379   1.553  10.001  0.1456 -0.4056 -0.1922
  607MOL0     C81877   5.348   1.634   9.874  0.0769  0.1887  1.1849
  607MOL0     H81878   5.889   1.644   9.954 -0.8796  0.7459 -1.6129
  607MOL0     H81879   6.081   1.792   9.919  1.6074  1.2144  0.1798
  607MOL0     H81880   6.306   1.834  10.087  0.4224 -0.8328 -1.1670
  607MOL0     H81881   6.275   1.902   9.943 -2.9125 -1.2970  0.3652
  607MOL0     H81882   6.386   2.130  10.041 -0.2099  0.5699 -0.2066
  607MOL0     H81883   6.501   2.003  10.063  0.0719  0.4587 -2.0022
  607MOL0     H81884   6.310   2.033  10.298  0.3309 -0.6490  0.3492
  607MOL0     H81885   6.417   2.166  10.276  1.0829 -0.4045 -0.5510
  607MOL0     H81886   6.539   1.886  10.266 -5.6636 -2.2950  1.1476
  607MOL0     H81887   6.603   2.046  10.305 -0.6807  0.8118 -2.8207
  607MOL0     H81888   6.434   2.038  10.516  0.7451  0.8871  0.7845
  607MOL0     H81889   6.396   1.872  10.466  0.9444  0.1673 -1.2425
  607MOL0     H81890   6.578   1.766  10.516 -1.8398 -0.3982  1.3196
  607MOL0     H81891   6.669   1.926  10.555 -1.4464  2.5374 -0.7925
  607MOL0     H81892   6.431   1.846  10.715 -1.0043  1.6218  1.9958
  607MOL0     H81893   6.556   1.961  10.746 -1.2962  0.7395 -1.6978
  607MOL0     H81894   6.567   1.735  10.875 -1.6420  0.3635 -1.0384
  607MOL0     H81895   6.588   1.661  10.716 -0.5206 -0.1992  1.4264
  607MOL0     H81896   6.789   1.911  10.922  0.4245 -1.6993  3.4893
  607MOL0     H81897   7.045   1.911  10.967 -2.4978 -0.8733 -0.9666
  607MOL0     H81898   7.158   1.846  10.863  0.2931 -0.1234  2.2921
  607MOL0     H81899   7.110   2.021  10.687 -0.7416 -0.6211 -0.0332
  607MOL0     H81900   6.979   2.088  10.783 -1.9799 -2.6397  0.8348
  607MOL0     H81901   7.270   2.068  10.867  0.1361  0.8018  1.6722
  607MOL0     H81902   7.153   2.139  10.973  4.5129  0.1581  0.3741
  607MOL0     H81903   7.113   2.314  10.836  0.6028 -0.4476  2.1917
  607MOL0     H81904   7.222   2.248  10.700  3.4463  2.4181  0.4889
  607MOL0     H81905   7.502   2.363  11.015 -1.0697 -0.8204 -0.0703
  607MOL0     H81906   7.750   2.324  10.974  2.1852 -0.2905 -1.8242
  607MOL0     H81907   7.915   1.945  10.427  0.6443 -0.7280 -1.5340
  607MOL0     H81908   8.110   1.907  10.315 -2.2968 -1.2465  0.4710
  607MOL0     H81909   8.289   1.853  10.231  2.2534 -2.2809 -2.7260
  607MOL0     H81910   8.376   1.997  10.204  1.5510 -3.5651 -4.1672
  607MOL0     H81911   8.465   1.719  10.303 -0.7256  0.5717  1.6423
  607MOL0     H81912   8.504   1.773  10.152  1.0639 -0.3671 -0.5391
  607MOL0     H81913   8.620   1.970  10.232 -1.0821  0.5844  1.0968
  607MOL0     H81914   8.616   1.913  10.402  2.0542  0.4419  0.1575
  607MOL0     H81915   8.723   1.758  10.165 -2.7642  0.3089  0.3716
  607MOL0     H81916   8.727   1.706  10.337  0.8469 -0.6680 -1.8958
  607MOL0     H81917   8.860   1.885  10.414  0.4401 -3.3150  0.2161
  607MOL0     H81918   8.876   1.962  10.264  0.2519  0.5771  2.4652
  607MOL0     H81919   8.989   1.684  10.326 -3.2608 -0.6781 -1.0909
  607MOL0     H81920   8.995   1.760  10.172  0.5584  2.4689 -1.2056
  607MOL0     H81921   9.114   1.815  10.437  1.1950  1.6206  0.6398
  607MOL0     H81922   9.117   1.953  10.334  1.5809  0.8204  0.9320
  607MOL0     H81923   9.328   1.813  10.317  1.6216 -7.0929  0.8784
  607MOL0     H81924   9.240   1.671  10.268 -0.0269 -0.6010 -1.7703
  607MOL0     H81925   8.347   2.051  10.623 -0.0261 -0.1215 -3.1442
  607MOL0     H81926   8.143   2.137  10.751  1.4822 -1.0152 -0.1160
  607MOL0     H81927   7.633   2.125  10.597 -1.8135  2.1609 -1.2380
  607MOL0     H81928   7.420   2.152  10.652  0.5196  0.5418  0.3730
  607MOL0     H81929   5.974   2.026  10.258  0.6327  1.0324 -1.0712
  607MOL0     H81930   5.758   1.888  10.287  0.9974  5.0870 -2.3312
  607MOL0     H81931   5.583   1.472  10.268  0.9702 -0.7170 -3.3018
  607MOL0     H81932   5.428   1.314  10.313  1.4853  0.4791 -1.2108
  607MOL0     H81933   5.046   1.413  10.189 -2.2779  0.1034 -0.1352
  607MOL0     H81934   5.122   1.360  10.343 -2.5179  0.1826  0.8170
  607MOL0     H81935   4.895   1.248  10.323 -0.9263 -0.8254 -0.6417
  607MOL0     H81936   5.025   1.122  10.286 -1.1230 -0.8843  2.7320
  607MOL0     H81937   4.977   1.134  10.046 -0.2604  0.2725 -0.4233
  607MOL0     H81938   4.855   1.270  10.075  1.0421  0.6114  0.2231
  607MOL0     H81939   4.829   0.984  10.162  0.0508 -1.0521 -2.7833
  607MOL0     H81940   4.723   1.107  10.203  2.6559 -2.7445  3.2042
  607MOL0     H81941   4.643   1.063   9.778 -3.0779 -2.0146  1.6346
  607MOL0     H81942   5.193   1.430   9.977 -1.0724 -0.6024  1.2517
  607MOL0     H81943   5.425   1.630   9.797  0.0590  0.7398  1.1315
  607MOL0     H81944   5.275   1.582   9.811  4.4629 -4.2630 -0.9105
  607MOL0     H81945   5.324   1.741   9.883  3.0826  1.4760 -2.8716
  608MOL0     O81946   1.808   5.416   1.530  0.2157 -0.8836 -0.0243
  608MOL0     C81947   1.763   5.390   1.418  0.1781 -0.2423 -0.2082
  608MOL0     O81948   1.841   5.328   1.315  0.5640 -0.4764  0.6761
  608MOL0     C81949   1.969   5.279   1.335 -0.1632  0.3134  0.0981
  608MOL0     C81950   2.070   5.320   1.243  0.2639 -0.4022 -0.1698
  608MOL0     C81951   2.191   5.250   1.247 -0.1822 -0.1143  0.0803
  608MOL0     C81952   2.231   5.155   1.341 -0.6082 -0.1899  0.1527
  608MOL0     O81953   2.364   5.105   1.329  0.4781  0.6639 -0.9458
  608MOL0     C81954   2.429   5.063   1.449  0.8717  0.5642 -0.1686
  608MOL0     C81955   2.570   5.037   1.432 -0.2720  0.3324 -0.6084
  608MOL0     C81956   2.665   5.166   1.410  0.5337  0.6342 -0.3332
  608MOL0     C81957   2.677   5.254   1.533 -0.0891 -0.3341 -0.2349
  608MOL0     C81958   2.811   5.218   1.599  0.0476  0.5326 -0.4523
  608MOL0     C81959   2.815   5.293   1.734  0.5117 -0.4225 -0.3179
  608MOL0     C81960   2.957   5.304   1.790 -0.0506  0.6883 -0.8543
  608MOL0     C81961   2.993   5.171   1.863  0.2181  0.2476 -0.4021
  608MOL0     N81962   3.034   5.187   2.002 -0.1783 -0.1917 -0.0033
  608MOL0     C81963   2.956   5.165   2.100  0.3621 -0.1029 -0.7970
  608MOL0     C81964   3.027   5.161   2.214  0.1667  0.4143  0.3927
  608MOL0     C81965   2.974   5.125   2.346  0.5759 -0.5744  1.5054
  608MOL0     C81966   2.979   4.973   2.377 -0.2473 -0.2760  0.5381
  608MOL0     C81967   3.127   4.923   2.400  0.0231 -0.1854  0.1129
  608MOL0     C81968   3.174   4.982   2.537 -0.5152  0.0225  0.4652
  608MOL0     O81969   3.308   4.953   2.559 -0.2724  0.1305  0.2271
  608MOL0     C81970   3.403   5.031   2.500  0.2345 -0.0820  0.1218
  608MOL0     C81971   3.371   5.146   2.420  0.1772  0.2918  0.4394
  608MOL0     C81972   3.468   5.223   2.368 -0.2649  1.0166  0.2329
  608MOL0     C81973   3.608   5.194   2.388  0.0181 -0.2193  0.3433
  608MOL0     C81974   3.707   5.279   2.316  0.8111 -0.5747 -0.9085
  608MOL0     O81975   3.825   5.272   2.380 -0.3207 -0.6376  0.5078
  608MOL0     C81976   3.937   5.341   2.329  0.0729 -0.8118 -0.0405
  608MOL0     C81977   4.042   5.361   2.422  0.4355 -0.9951 -0.3461
  608MOL0     C81978   4.149   5.441   2.395  0.3307 -0.1520 -1.3251
  608MOL0     C81979   4.165   5.503   2.275  0.2414 -0.3251 -0.2537
  608MOL0     O81980   4.278   5.585   2.259 -0.3429 -0.3290 -0.6958
  608MOL0     C81981   4.308   5.650   2.124 -0.1917  0.3370 -0.4518
  608MOL0     C81982   4.430   5.747   2.144 -0.9932  0.3607 -0.9377
  608MOL0     C81983   4.556   5.673   2.203  0.0832  0.0354  0.5267
  608MOL0     C81984   4.646   5.764   2.287  0.2481 -0.0792 -0.0358
  608MOL0     C81985   4.741   5.873   2.208  0.0200  0.1501 -0.4576
  608MOL0     C81986   4.843   5.929   2.312  0.6578  0.4167 -0.0674
  608MOL0     C81987   4.765   6.027   2.409  0.1257 -0.7554  0.4014
  608MOL0     C81988   4.853   6.105   2.501 -0.2633  0.1408  0.3976
  608MOL0    Cl81989   4.942   5.990   2.592  0.1503  0.0637 -0.4643
  608MOL0     C81990   4.073   5.467   2.170 -0.3670 -0.0821 -0.3897
  608MOL0     C81991   3.959   5.391   2.198  0.0405  0.0559 -0.5093
  608MOL0     O81992   3.677   5.359   2.224  0.1843 -0.5338  0.0993
  608MOL0     C81993   3.640   5.077   2.470 -0.0034  1.0240 -0.5009
  608MOL0     C81994   3.542   4.993   2.522 -0.2629 -0.8396 -0.4491
  608MOL0     N81995   3.155   5.182   2.180 -0.6613  0.2859  0.4760
  608MOL0     N81996   3.155   5.197   2.051  0.0178  0.3170  0.5604
  608MOL0     C81997   2.138   5.126   1.440 -0.4823  0.2478  0.2573
  608MOL0     C81998   2.011   5.191   1.445 -0.5673 -0.1275  0.5179
  608MOL0     C81999   1.623   5.443   1.388  0.3683  0.7941  0.5827
  608MOL0     C82000   1.581   5.404   1.260 -0.1585  0.2483 -0.4245
  608MOL0     C82001   1.458   5.432   1.211  0.4734 -0.3028  0.7912
  608MOL0     C82002   1.366   5.494   1.292 -0.2328  0.3541  0.0710
  608MOL0     O82003   1.236   5.521   1.252  0.4961  0.1661  0.3311
  608MOL0     C82004   1.194   5.512   1.112 -0.2906 -0.6563  0.6374
  608MOL0     C82005   1.136   5.370   1.081  0.7419  0.6282 -0.5649
  608MOL0     C82006   1.095   5.336   0.940 -0.7608  0.3922 -0.1856
  608MOL0     C82007   1.192   5.361   0.823 -0.6940 -0.3236  0.0315
  608MOL0     C82008   1.258   5.241   0.766  0.0370 -0.6139 -0.5609
  608MOL0     C82009   1.306   5.146   0.710 -0.8249 -0.3988  0.3498
  608MOL0     C82010   1.406   5.524   1.419  0.0480  0.6456 -1.0020
  608MOL0     C82011   1.530   5.500   1.473 -0.6490 -0.4329 -0.0589
  608MOL0     C82012   1.562   5.556   1.616 -1.0654 -0.9973 -1.2154
  608MOL0     H82013   2.049   5.391   1.164 -3.3840  1.7881  2.4404
  608MOL0     H82014   2.263   5.289   1.175 -2.6621 -0.7656 -2.9720
  608MOL0     H82015   2.418   5.135   1.530  0.0645 -0.5087  0.6906
  608MOL0     H82016   2.382   4.970   1.481  1.1301  1.0236  1.6143
  608MOL0     H82017   2.588   4.966   1.351  2.2283  1.0041 -0.7168
  608MOL0     H82018   2.608   4.984   1.520 -2.2526  0.0463  0.1393
  608MOL0     H82019   2.629   5.218   1.321 -1.5348 -0.5674 -0.2566
  608MOL0     H82020   2.762   5.119   1.389  0.3395 -1.1224  2.3318
  608MOL0     H82021   2.672   5.356   1.495 -1.7889 -1.6490 -4.0268
  608MOL0     H82022   2.595   5.240   1.605  0.5674 -4.1681 -0.0353
  608MOL0     H82023   2.813   5.111   1.621  3.3956  0.6833  0.4962
  608MOL0     H82024   2.892   5.235   1.527 -0.3048 -0.6697 -1.1716
  608MOL0     H82025   2.768   5.392   1.735 -0.6720 -0.9069  2.4194
  608MOL0     H82026   2.751   5.238   1.804 -1.7420  0.5965 -1.4882
  608MOL0     H82027   2.967   5.382   1.866 -0.0309  1.3356 -1.5116
  608MOL0     H82028   3.030   5.331   1.714  0.2864 -3.2041 -2.1357
  608MOL0     H82029   2.913   5.099   1.844  1.4504 -0.9024 -1.3803
  608MOL0     H82030   3.074   5.125   1.806  0.1783  0.9035 -0.9948
  608MOL0     H82031   2.850   5.142   2.095 -0.5014  3.5336 -3.2281
  608MOL0     H82032   3.025   5.187   2.419  0.7590  0.4051  0.5737
  608MOL0     H82033   2.869   5.155   2.351  0.7770  0.0091  2.4480
  608MOL0     H82034   2.925   4.937   2.465  0.8095  2.5636  2.5099
  608MOL0     H82035   2.935   4.927   2.288 -0.0972  0.3938  0.1045
  608MOL0     H82036   3.198   4.945   2.320  0.9985 -0.0195  1.0012
  608MOL0     H82037   3.124   4.815   2.420  1.2966 -0.1620  0.5653
  608MOL0     H82038   3.112   4.942   2.617  0.9610  0.1132  1.6905
  608MOL0     H82039   3.161   5.090   2.547 -1.4449  0.1423 -1.5224
  608MOL0     H82040   3.269   5.180   2.405  0.5148  0.2372 -2.4762
  608MOL0     H82041   3.432   5.307   2.308 -0.2721 -0.4737 -1.9815
  608MOL0     H82042   4.026   5.307   2.514  1.2792  0.8554  0.9512
  608MOL0     H82043   4.218   5.463   2.476  2.6354  1.2374 -3.5247
  608MOL0     H82044   4.343   5.579   2.048  2.4013 -0.6510  1.5023
  608MOL0     H82045   4.222   5.709   2.091 -0.1300 -0.2650 -1.7340
  608MOL0     H82046   4.451   5.797   2.049 -1.2936 -0.9958 -1.7431
  608MOL0     H82047   4.400   5.822   2.218  0.9172 -0.9566  1.2975
  608MOL0     H82048   4.526   5.588   2.266  2.7998 -1.6175 -0.2450
  608MOL0     H82049   4.610   5.627   2.120 -1.8530  0.2969 -0.9632
  608MOL0     H82050   4.720   5.705   2.342  1.1658  0.6311 -0.4928
  608MOL0     H82051   4.577   5.815   2.355 -2.0065  1.6237 -3.3668
  608MOL0     H82052   4.681   5.955   2.166 -0.3034  2.3979  3.8336
  608MOL0     H82053   4.787   5.823   2.122 -3.2447 -0.8940 -1.7456
  608MOL0     H82054   4.886   5.849   2.374 -4.5069 -1.8914  1.0551
  608MOL0     H82055   4.923   5.982   2.260  2.2304 -0.3248  1.4844
  608MOL0     H82056   4.704   5.964   2.474 -1.7379 -1.4175 -1.8296
  608MOL0     H82057   4.703   6.087   2.342  1.0600 -0.2947 -0.0746
  608MOL0     H82058   4.916   6.162   2.432 -1.2381 -1.1047 -1.6274
  608MOL0     H82059   4.794   6.171   2.565  0.0377 -0.5354  1.4074
  608MOL0     H82060   4.071   5.506   2.069  0.1139 -1.0597 -0.8010
  608MOL0     H82061   3.896   5.366   2.113  0.6676 -1.3481 -0.5808
  608MOL0     H82062   3.747   5.057   2.479 -0.1940  0.7267  1.4697
  608MOL0     H82063   3.562   4.909   2.588 -0.7546 -0.6303 -0.0237
  608MOL0     H82064   2.165   5.061   1.522 -0.5304  1.3203  1.1522
  608MOL0     H82065   1.940   5.171   1.525  1.8242 -2.8084  2.1725
  608MOL0     H82066   1.646   5.346   1.196 -0.3854  0.5683 -0.9526
  608MOL0     H82067   1.438   5.402   1.109  1.0611 -0.9625  0.8660
  608MOL0     H82068   1.278   5.541   1.048 -0.4617 -1.0644  0.2224
  608MOL0     H82069   1.119   5.586   1.084 -1.4070 -2.8303 -2.7548
  608MOL0     H82070   1.050   5.353   1.146 -1.2448  2.9853 -2.3344
  608MOL0     H82071   1.199   5.283   1.097 -0.6339 -1.6910 -5.5675
  608MOL0     H82072   1.006   5.397   0.919 -0.4758  0.4345 -1.3375
  608MOL0     H82073   1.066   5.230   0.934  0.2809  0.0919 -0.0161
  608MOL0     H82074   1.125   5.414   0.755 -0.0654  0.2930 -0.1193
  608MOL0     H82075   1.263   5.435   0.860 -2.8431  1.6467  0.4281
  608MOL0     H82076   1.351   5.065   0.656 -1.2141  0.9638 -2.1397
  608MOL0     H82077   1.336   5.573   1.487  0.7845  0.9576 -0.4507
  608MOL0     H82078   1.667   5.581   1.632 -1.6720  2.2310 -1.6719
  608MOL0     H82079   1.504   5.646   1.636 -0.0934 -0.8380  1.1974
  608MOL0     H82080   1.532   5.480   1.689 -1.6118  0.1431 -0.2318
  609MOL0     O82081   8.433   8.936   8.045  0.3154 -0.7285 -0.6065
  609MOL0     C82082   8.346   8.909   7.967 -0.1925  0.1104  0.4918
  609MOL0     O82083   8.250   8.998   7.924  0.1768  0.3491  0.0959
  609MOL0     C82084   8.264   9.136   7.957  0.1394 -0.2415 -0.3871
  609MOL0     C82085   8.190   9.203   8.054  0.3490  0.1823 -0.4622
  609MOL0     C82086   8.194   9.344   8.062  0.0007 -0.1587 -0.5798
  609MOL0     C82087   8.294   9.410   7.989 -0.7282 -0.2512 -0.4703
  609MOL0     O82088   8.301   9.545   8.016  1.2578 -0.4783  0.5018
  609MOL0     C82089   8.287   9.627   7.894 -0.0770  0.6380  1.1081
  609MOL0     C82090   8.350   9.768   7.909 -0.7307 -0.4659 -0.3470
  609MOL0     C82091   8.503   9.746   7.894 -0.2348 -0.1029  0.3166
  609MOL0     C82092   8.562   9.881   7.941 -0.8250  0.1702  0.3518
  609MOL0     C82093   8.712   9.864   7.919  0.3189 -0.1220  0.5405
  609MOL0     C82094   8.801   9.897   8.039 -0.0061  0.4507 -0.2316
  609MOL0     C82095   8.945   9.850   8.009 -0.3940 -0.3009  0.8388
  609MOL0     C82096   9.040   9.825   8.127 -0.9472  1.1438 -0.0539
  609MOL0     N82097   9.060   9.957   8.193 -0.6761  0.6158  0.0300
  609MOL0     C82098   9.114  10.071   8.137  0.4182 -0.3777  0.7488
  609MOL0     C82099   9.134  10.155   8.242 -0.3548  0.1346 -0.7014
  609MOL0     C82100   9.189  10.300   8.251 -0.6377 -0.0150 -0.0357
  609MOL0     C82101   9.336  10.294   8.315 -0.3136 -0.5135  0.7803
  609MOL0     C82102   9.407  10.433   8.308  0.0295  0.6558  0.6292
  609MOL0     C82103   9.547  10.419   8.364 -0.0898  0.3428 -1.2052
  609MOL0     O82104   9.639  10.349   8.277  0.0604  0.6734 -0.0651
  609MOL0     C82105   9.771  10.354   8.312 -0.9649  0.5076  0.8571
  609MOL0     C82106   9.862  10.372   8.211 -0.1466  1.2899 -0.1916
  609MOL0     C82107   9.999  10.364   8.230 -0.0653  0.4747 -0.4611
  609MOL0     C82108  10.047  10.350   8.361 -0.2789  0.5826 -0.2046
  609MOL0     C82109  10.198  10.339   8.375 -0.1268 -0.7734 -1.2052
  609MOL0     O82110  10.268  10.329   8.261  0.2524  0.1548  0.2542
  609MOL0     C82111  10.402  10.304   8.267 -0.0915 -0.0851 -0.7825
  609MOL0     C82112  10.448  10.187   8.221 -0.9725 -0.4327  1.7115
  609MOL0     C82113  10.589  10.161   8.205 -0.3878 -0.4374 -1.1995
  609MOL0     C82114  10.673  10.253   8.270 -2.0107  1.5915 -0.2726
  609MOL0     O82115  10.807  10.220   8.276 -0.1504  1.0044 -0.4006
  609MOL0     C82116  10.825  10.134   8.396  0.6316 -0.1099 -0.0746
  609MOL0     C82117  10.965  10.070   8.395 -0.3136 -1.2865  0.4944
  609MOL0     C82118  11.071  10.193   8.373  0.6948  0.6278  0.3170
  609MOL0     C82119  11.202  10.121   8.353 -0.8794  0.4864 -0.5681
  609MOL0     C82120  11.325  10.217   8.334  1.2051  0.1819 -0.0188
  609MOL0     C82121  11.467  10.142   8.310  0.5068  0.7745  0.5127
  609MOL0     C82122  11.583  10.234   8.332 -0.0611 -0.5788  0.4017
  609MOL0     C82123  11.725  10.174   8.326 -0.8402 -0.1698 -0.3004
  609MOL0    Cl82124  11.858  10.301   8.275  0.4603  0.0162 -0.2573
  609MOL0     C82125  10.626  10.367   8.323 -0.4683  0.4137  0.7793
  609MOL0     C82126  10.492  10.395   8.317 -0.1610  0.1874 -0.1031
  609MOL0     O82127  10.246  10.342   8.489 -0.0436 -0.9022  0.6839
  609MOL0     C82128   9.962  10.354   8.465 -0.6148 -0.4927  0.0109
  609MOL0     C82129   9.822  10.344   8.441  0.3997 -0.7074 -0.1540
  609MOL0     N82130   9.078  10.098   8.358  0.1094  0.3092  1.1438
  609MOL0     N82131   9.033   9.978   8.330 -0.3343 -0.2036  0.1373
  609MOL0     C82132   8.389   9.341   7.901 -0.0775  0.5115 -0.4537
  609MOL0     C82133   8.369   9.203   7.880  0.7798 -0.0520  0.1795
  609MOL0     C82134   8.346   8.771   7.920 -0.5262  0.0356  0.2812
  609MOL0     C82135   8.226   8.734   7.854 -0.6749  0.5234  0.2271
  609MOL0     C82136   8.208   8.604   7.811 -0.2973  0.8735 -0.2186
  609MOL0     C82137   8.297   8.499   7.825  0.0476  0.1258 -0.1014
  609MOL0     O82138   8.264   8.373   7.794 -0.3557 -0.3038  0.4206
  609MOL0     C82139   8.193   8.312   7.905 -0.6643  0.6119 -0.4168
  609MOL0     C82140   8.047   8.296   7.859 -0.4993  0.2233 -0.1209
  609MOL0     C82141   7.982   8.201   7.966  0.7456 -0.4959 -0.0482
  609MOL0     C82142   7.826   8.213   7.940 -0.0615 -0.5533  0.5891
  609MOL0     C82143   7.760   8.333   7.979 -0.6559 -0.3641  0.1789
  609MOL0     C82144   7.712   8.432   8.021 -0.4584 -1.3925 -0.3201
  609MOL0     C82145   8.421   8.536   7.884  0.1649 -0.4345 -0.6351
  609MOL0     C82146   8.448   8.669   7.931  0.1200 -0.0548  0.5996
  609MOL0     C82147   8.586   8.698   7.966  0.6315 -1.1925  0.9477
  609MOL0     H82148   8.121   9.153   8.122  0.8368 -1.9033 -1.4341
  609MOL0     H82149   8.128   9.400   8.127  0.5975  2.3030 -1.9917
  609MOL0     H82150   8.345   9.578   7.816  0.8031  0.6236  1.7568
  609MOL0     H82151   8.186   9.627   7.851  1.0278 -1.9588 -1.8175
  609MOL0     H82152   8.336   9.804   8.012  0.8053 -3.6004  1.1232
  609MOL0     H82153   8.311   9.835   7.833 -0.8005  1.5984  1.4065
  609MOL0     H82154   8.528   9.714   7.793  1.7484 -3.1407  1.6237
  609MOL0     H82155   8.544   9.666   7.956  0.8671 -0.6003 -1.0095
  609MOL0     H82156   8.521   9.960   7.878  0.7811 -0.5440 -1.7506
  609MOL0     H82157   8.542   9.913   8.043 -1.6345  2.0684 -0.3562
  609MOL0     H82158   8.736   9.762   7.885  2.5189  0.9671 -1.4707
  609MOL0     H82159   8.757   9.925   7.840  3.7068  1.5859  3.4987
  609MOL0     H82160   8.793  10.002   8.067 -3.2278  0.1530  0.3441
  609MOL0     H82161   8.764   9.833   8.120 -2.4830  2.9161  0.7416
  609MOL0     H82162   8.991   9.925   7.943  0.6940 -1.4808  0.2211
  609MOL0     H82163   8.934   9.762   7.945  2.8396  1.0625 -1.9382
  609MOL0     H82164   8.991   9.760   8.200 -1.0722  1.7423  0.4031
  609MOL0     H82165   9.137   9.785   8.098 -1.2295  2.1622 -2.6853
  609MOL0     H82166   9.141  10.078   8.032 -1.4090 -1.6561  0.1305
  609MOL0     H82167   9.195  10.339   8.149  3.1935  2.2410  0.8685
  609MOL0     H82168   9.116  10.355   8.311 -2.0095 -3.0193  1.2316
  609MOL0     H82169   9.327  10.265   8.420 -1.1362 -2.9259  0.0897
  609MOL0     H82170   9.390  10.219   8.257 -0.3197 -0.0280  0.1298
  609MOL0     H82171   9.358  10.509   8.369 -0.8221 -1.1697  2.3053
  609MOL0     H82172   9.427  10.471   8.207 -1.0504  0.8759  0.4944
  609MOL0     H82173   9.551  10.362   8.457  4.9281 -0.5008 -1.6495
  609MOL0     H82174   9.591  10.516   8.390 -1.3396  1.1846 -2.0931
  609MOL0     H82175   9.828  10.374   8.108 -1.0418  0.5224  0.0793
  609MOL0     H82176  10.063  10.381   8.144 -0.2116 -0.8055 -0.8409
  609MOL0     H82177  10.378  10.116   8.178 -2.1617  0.7994  1.5641
  609MOL0     H82178  10.637  10.081   8.148  2.4837  0.3060 -0.0252
  609MOL0     H82179  10.824  10.186   8.492  1.3478 -0.5866  0.1977
  609MOL0     H82180  10.752  10.052   8.395  0.8905 -0.3361 -0.9756
  609MOL0     H82181  10.988  10.024   8.491 -0.5601 -0.3130  1.0297
  609MOL0     H82182  10.984   9.996   8.316 -0.6442 -1.1260  0.2668
  609MOL0     H82183  11.042  10.256   8.288  0.6635  2.4920  1.6361
  609MOL0     H82184  11.084  10.261   8.458 -0.6587  0.9794  0.2602
  609MOL0     H82185  11.179  10.063   8.263 -1.0243  0.7571 -0.7089
  609MOL0     H82186  11.222  10.050   8.433  0.1411 -0.6126 -1.7480
  609MOL0     H82187  11.322  10.275   8.427  0.3491 -1.3115  0.9211
  609MOL0     H82188  11.305  10.286   8.251 -0.9402 -0.2067  0.1211
  609MOL0     H82189  11.490  10.061   8.380 -0.5595  0.2560  0.2794
  609MOL0     H82190  11.489  10.105   8.209  1.6992  0.0914  0.9961
  609MOL0     H82191  11.586  10.278   8.432  4.6156  2.1153 -0.6089
  609MOL0     H82192  11.582  10.307   8.251  0.8491 -1.8351 -0.7905
  609MOL0     H82193  11.762  10.141   8.424  1.8796  3.0809 -0.0556
  609MOL0     H82194  11.741  10.089   8.260  1.8559 -0.4118  0.5253
  609MOL0     H82195  10.692  10.440   8.369 -0.7091  0.4330  1.0970
  609MOL0     H82196  10.456  10.486   8.363  1.9574 -0.7465  3.8538
  609MOL0     H82197   9.990  10.352   8.570 -0.5170 -2.5754 -0.0060
  609MOL0     H82198   9.760  10.319   8.526  1.0279 -0.5015  0.3747
  609MOL0     H82199   8.464   9.390   7.840 -0.4289  0.0850 -1.2454
  609MOL0     H82200   8.438   9.152   7.814  1.7373 -0.5938  1.5553
  609MOL0     H82201   8.147   8.807   7.842  0.0488  1.1030 -1.2321
  609MOL0     H82202   8.114   8.586   7.761 -0.2520  0.5024 -0.1745
  609MOL0     H82203   8.192   8.379   7.992  0.8727  0.2769 -0.1079
  609MOL0     H82204   8.230   8.215   7.940  0.4652  0.3401 -2.2247
  609MOL0     H82205   8.035   8.245   7.763 -0.6900 -1.8256  0.9348
  609MOL0     H82206   8.001   8.395   7.865  3.7767  2.3846  0.7661
  609MOL0     H82207   8.024   8.227   8.064  0.9894  0.7742 -0.4732
  609MOL0     H82208   8.020   8.102   7.942  3.4840  0.2808  0.7565
  609MOL0     H82209   7.816   8.192   7.833 -1.0560  1.3110  0.2733
  609MOL0     H82210   7.769   8.137   7.994 -0.4297  0.3269  1.4956
  609MOL0     H82211   7.662   8.511   8.074 -0.3267 -3.6554  3.6578
  609MOL0     H82212   8.496   8.459   7.898  0.2749 -0.0737  1.0219
  609MOL0     H82213   8.633   8.607   8.003  4.9341  1.6526  3.4587
  609MOL0     H82214   8.652   8.755   7.900  0.0263 -0.1712  1.1959
  609MOL0     H82215   8.585   8.755   8.059 -1.2100  0.3577  0.0559
  610MOL0     O82216  10.058   8.484   4.739 -0.2469  1.1008 -0.3844
  610MOL0     C82217  10.036   8.571   4.820  0.5376 -0.4021  0.1745
  610MOL0     O82218  10.087   8.574   4.946  0.0840  0.3497 -0.1920
  610MOL0     C82219  10.186   8.479   4.972 -0.1246 -0.9849  0.1035
  610MOL0     C82220  10.315   8.510   4.929  0.0626 -0.9372 -0.1943
  610MOL0     C82221  10.411   8.417   4.956  0.1847 -0.2317 -0.1911
  610MOL0     C82222  10.394   8.303   5.011 -0.1054 -0.0743 -0.5488
  610MOL0     O82223  10.511   8.231   5.030  0.6943 -0.4337 -0.0715
  610MOL0     C82224  10.556   8.232   5.165  0.7655 -0.0884 -0.4710
  610MOL0     C82225  10.700   8.176   5.180 -0.6493  0.1316 -0.6581
  610MOL0     C82226  10.745   8.220   5.321 -0.4860  0.4363 -0.7144
  610MOL0     C82227  10.653   8.175   5.440 -0.0813  0.1993 -0.0574
  610MOL0     C82228  10.724   8.195   5.571  0.8985 -0.3069 -0.3613
  610MOL0     C82229  10.639   8.124   5.678  0.2316  0.0663  0.1835
  610MOL0     C82230  10.680   8.164   5.819  0.8730  0.3352  0.9072
  610MOL0     C82231  10.583   8.105   5.927  0.0529  0.7061 -0.3108
  610MOL0     N82232  10.534   7.961   5.908  0.4881 -1.1282 -0.2256
  610MOL0     C82233  10.407   7.933   5.851 -0.4696  0.1654 -0.7055
  610MOL0     C82234  10.398   7.799   5.855 -0.5241  1.2165 -0.4734
  610MOL0     C82235  10.280   7.722   5.793 -0.6826  0.8128 -0.4513
  610MOL0     C82236  10.150   7.759   5.863 -0.0482  1.0601  0.0640
  610MOL0     C82237  10.124   7.685   5.987 -1.0146 -0.2399 -0.0144
  610MOL0     C82238  10.230   7.696   6.100 -0.2252 -0.1157  0.4997
  610MOL0     O82239  10.249   7.831   6.124  0.0479  0.2986 -0.1376
  610MOL0     C82240  10.356   7.868   6.200  0.3935 -0.4879  0.1065
  610MOL0     C82241  10.375   8.013   6.207  0.3483  0.7198  0.6504
  610MOL0     C82242  10.484   8.063   6.286 -0.0523  0.1137  0.7137
  610MOL0     C82243  10.562   7.984   6.370  1.2611 -0.0132  0.5138
  610MOL0     C82244  10.661   8.045   6.460 -0.4169 -0.1020  0.6660
  610MOL0     O82245  10.719   7.958   6.551 -1.0063 -0.2383  0.0347
  610MOL0     C82246  10.836   7.998   6.627 -0.0550 -0.1643  0.4578
  610MOL0     C82247  10.934   8.091   6.574  0.3600 -0.4281  0.4511
  610MOL0     C82248  11.056   8.118   6.630  0.3016  0.1036  0.3376
  610MOL0     C82249  11.090   8.052   6.743  0.7851  0.6654 -0.5253
  610MOL0     O82250  11.203   8.054   6.815 -0.0225 -0.6241  0.3100
  610MOL0     C82251  11.319   8.129   6.762  0.0800 -0.0278  0.1916
  610MOL0     C82252  11.430   8.147   6.865  0.0959  0.2703 -0.1735
  610MOL0     C82253  11.571   8.170   6.793  0.4980  0.0914 -0.9913
  610MOL0     C82254  11.662   8.043   6.814  0.0969  0.2386  0.2881
  610MOL0     C82255  11.754   8.018   6.688  0.1875 -0.3112 -0.1854
  610MOL0     C82256  11.857   8.122   6.699 -1.2950 -0.0205 -0.3214
  610MOL0     C82257  11.957   8.133   6.578 -0.3969  0.4064 -0.3515
  610MOL0     C82258  12.027   8.007   6.529 -0.0461  0.3028 -0.4791
  610MOL0    Cl82259  12.048   7.894   6.669 -0.2463  0.3010  0.1468
  610MOL0     C82260  10.999   7.965   6.808 -0.3369 -0.1406  0.0926
  610MOL0     C82261  10.870   7.942   6.754 -0.4541 -0.3349  0.0947
  610MOL0     O82262  10.674   8.170   6.452  0.2037  1.1177 -0.0333
  610MOL0     C82263  10.535   7.849   6.368  0.3590  0.6127  0.0291
  610MOL0     C82264  10.435   7.796   6.290 -0.4579 -0.1053 -0.0677
  610MOL0     N82265  10.527   7.752   5.885  0.1660 -0.5469  0.0693
  610MOL0     N82266  10.606   7.852   5.924 -0.0029 -0.2526  0.4343
  610MOL0     C82267  10.268   8.258   5.037 -0.4212  0.1263 -1.0680
  610MOL0     C82268  10.167   8.355   5.029  0.4989  0.3328 -0.4584
  610MOL0     C82269   9.936   8.683   4.793 -0.1792 -0.5247  0.5945
  610MOL0     C82270   9.889   8.762   4.907 -0.2701  0.8088 -0.7359
  610MOL0     C82271   9.794   8.865   4.892 -0.5657  0.1369 -0.0289
  610MOL0     C82272   9.729   8.891   4.763 -1.1167  0.3286 -0.7700
  610MOL0     O82273   9.628   8.980   4.754  0.5093 -0.3781 -0.3068
  610MOL0     C82274   9.556   8.996   4.631  0.1719 -0.1237 -0.0590
  610MOL0     C82275   9.454   9.106   4.636 -0.1211 -0.6842  0.3322
  610MOL0     C82276   9.390   9.145   4.500  1.4082  0.4168 -0.6424
  610MOL0     C82277   9.323   9.280   4.482  0.7273 -0.3561  0.4444
  610MOL0     C82278   9.239   9.266   4.358 -0.6529  0.6104  0.2054
  610MOL0     C82279   9.171   9.242   4.253 -0.4582 -0.2204  0.1877
  610MOL0     C82280   9.778   8.814   4.657 -0.0366  0.0526  0.4952
  610MOL0     C82281   9.873   8.708   4.664  0.1462 -0.6561 -0.9957
  610MOL0     C82282   9.924   8.644   4.536  0.5777  0.0064  0.1222
  610MOL0     H82283  10.337   8.601   4.874 -1.0359 -1.4102 -1.4866
  610MOL0     H82284  10.512   8.441   4.928 -0.1655  1.1489 -0.3155
  610MOL0     H82285  10.550   8.331   5.211  2.2301 -1.3076  2.6434
  610MOL0     H82286  10.489   8.176   5.230 -1.0952  1.7160 -0.7141
  610MOL0     H82287  10.767   8.225   5.109 -0.9705  1.2619 -0.2095
  610MOL0     H82288  10.699   8.067   5.182 -0.1846  0.1290  0.6562
  610MOL0     H82289  10.759   8.328   5.315  3.6693  0.2398  1.7200
  610MOL0     H82290  10.850   8.188   5.329 -0.7727 -0.9733 -2.0871
  610MOL0     H82291  10.561   8.235   5.440  1.1982  2.2966  1.4766
  610MOL0     H82292  10.635   8.068   5.432  1.6035 -0.1236  0.2936
  610MOL0     H82293  10.821   8.151   5.547  1.0817  1.4689 -3.4823
  610MOL0     H82294  10.727   8.300   5.600 -0.7449 -0.2045 -0.4448
  610MOL0     H82295  10.538   8.161   5.654 -0.9934 -1.5974  2.4010
  610MOL0     H82296  10.638   8.015   5.674  0.6686 -0.1727  3.6775
  610MOL0     H82297  10.687   8.273   5.826  0.4777  0.3802  0.6340
  610MOL0     H82298  10.784   8.135   5.841  1.0649  0.6751  0.4633
  610MOL0     H82299  10.631   8.108   6.025  1.7168 -1.6828 -0.9725
  610MOL0     H82300  10.497   8.173   5.930  1.1257  2.0728  1.3026
  610MOL0     H82301  10.322   7.990   5.815 -2.7048 -0.2207  3.2893
  610MOL0     H82302  10.267   7.751   5.688 -1.9672 -0.1225 -0.5694
  610MOL0     H82303  10.291   7.613   5.790  0.1469  0.8688  0.0359
  610MOL0     H82304  10.144   7.865   5.886  0.4297  0.9801  0.5661
  610MOL0     H82305  10.069   7.730   5.795  0.9728 -1.1535 -0.3255
  610MOL0     H82306  10.110   7.579   5.967  0.2652 -0.1672 -1.4951
  610MOL0     H82307  10.028   7.722   6.024 -0.3435 -1.2161  2.9736
  610MOL0     H82308  10.324   7.648   6.072  0.4324  1.3422  0.1252
  610MOL0     H82309  10.179   7.640   6.180  0.7068 -2.2633 -0.3411
  610MOL0     H82310  10.300   8.072   6.155  0.9927  1.0656  0.1008
  610MOL0     H82311  10.486   8.172   6.285 -2.6492  0.2357  0.2638
  610MOL0     H82312  10.917   8.155   6.488 -1.0164 -0.7852  0.4322
  610MOL0     H82313  11.122   8.180   6.569 -0.4205  0.8001  0.2416
  610MOL0     H82314  11.357   8.069   6.679  1.8640  1.0359  0.1710
  610MOL0     H82315  11.300   8.232   6.729  1.6015  1.0167  2.3190
  610MOL0     H82316  11.404   8.236   6.923 -1.2126  0.5879 -1.2036
  610MOL0     H82317  11.436   8.059   6.930  2.0559 -2.4672 -3.6521
  610MOL0     H82318  11.547   8.187   6.688  0.5659 -2.4557 -1.4887
  610MOL0     H82319  11.624   8.250   6.845  1.0877 -1.2460  0.5538
  610MOL0     H82320  11.598   7.954   6.824  0.3830  0.2096  2.1380
  610MOL0     H82321  11.706   8.041   6.914  0.8473 -2.1548 -0.0316
  610MOL0     H82322  11.682   8.036   6.607  0.0717  2.1964  0.4026
  610MOL0     H82323  11.790   7.914   6.693  1.1847 -0.1557 -2.6695
  610MOL0     H82324  11.819   8.223   6.715 -0.6504  0.0346  1.0449
  610MOL0     H82325  11.917   8.103   6.789 -2.0404  1.7182  0.5920
  610MOL0     H82326  12.036   8.206   6.600 -1.4320  1.5522 -0.3857
  610MOL0     H82327  11.904   8.158   6.485  1.5122 -1.4147 -2.0680
  610MOL0     H82328  11.974   7.949   6.454 -0.0308  2.4609 -2.2541
  610MOL0     H82329  12.115   8.042   6.474  0.6302  0.2424  0.5317
  610MOL0     H82330  11.038   7.909   6.892  2.8765 -0.8865 -1.7174
  610MOL0     H82331  10.811   7.871   6.812 -1.9198  0.4649 -0.3772
  610MOL0     H82332  10.601   7.787   6.426 -1.1883  0.0680  1.2837
  610MOL0     H82333  10.421   7.689   6.298  0.0270 -0.0636  1.7370
  610MOL0     H82334  10.255   8.153   5.064 -3.3198  0.0264 -2.4550
  610MOL0     H82335  10.075   8.323   5.077  1.4240 -1.5054  0.1636
  610MOL0     H82336   9.930   8.743   5.006 -1.8118 -2.9757 -0.6825
  610MOL0     H82337   9.771   8.937   4.969 -1.1189 -1.6624  1.5603
  610MOL0     H82338   9.510   8.903   4.595  2.3406 -1.2158 -0.2047
  610MOL0     H82339   9.621   9.020   4.546  0.2461  1.8367  0.5170
  610MOL0     H82340   9.498   9.202   4.666 -0.4228 -1.0017  1.8933
  610MOL0     H82341   9.373   9.084   4.707 -0.9064  0.7315 -0.1035
  610MOL0     H82342   9.313   9.068   4.490  2.2247 -1.3430  4.0095
  610MOL0     H82343   9.461   9.132   4.418  0.3311 -1.7743 -1.3118
  610MOL0     H82344   9.264   9.312   4.569 -1.1468  0.9483 -1.2206
  610MOL0     H82345   9.398   9.357   4.460 -1.0304  1.0221 -1.0106
  610MOL0     H82346   9.119   9.234   4.160  0.3393 -0.8046 -0.2165
  610MOL0     H82347   9.727   8.826   4.562 -3.3837  0.1930  2.1744
  610MOL0     H82348   9.871   8.550   4.518 -0.3671  0.2487  1.4434
  610MOL0     H82349   9.908   8.700   4.443  1.0957  0.1896  0.1415
  610MOL0     H82350  10.030   8.618   4.541  1.3051  2.7636  0.8476
  611MOL0     O82351   3.744   4.690   8.258  0.0536  0.7901 -0.4631
  611MOL0     C82352   3.679   4.675   8.151 -0.3645  0.9024 -0.4891
  611MOL0     O82353   3.697   4.569   8.065  0.0954 -0.3450 -0.0793
  611MOL0     C82354   3.807   4.492   8.073 -0.2600  0.7771  0.0733
  611MOL0     C82355   3.933   4.550   8.061 -0.7772  0.6559  1.0205
  611MOL0     C82356   4.057   4.475   8.045 -0.0192 -0.1577 -0.8796
  611MOL0     C82357   4.059   4.340   8.064  0.9313  0.6072 -0.4019
  611MOL0     O82358   4.187   4.288   8.075 -0.0918 -0.9007 -0.1176
  611MOL0     C82359   4.199   4.155   8.095  0.4611  0.1518 -0.0476
  611MOL0     C82360   4.335   4.107   8.124  0.4693  1.0075 -0.4164
  611MOL0     C82361   4.440   4.177   8.038  0.0364 -0.2579 -0.3730
  611MOL0     C82362   4.578   4.115   8.051  0.7769  0.2602  0.4212
  611MOL0     C82363   4.678   4.192   7.955 -0.4911  0.6853  0.1121
  611MOL0     C82364   4.820   4.169   8.007 -0.5721  0.5294  0.1414
  611MOL0     C82365   4.934   4.213   7.912  0.2067  0.3023  0.4491
  611MOL0     C82366   5.063   4.258   7.981 -0.0753  0.3839  0.4120
  611MOL0     N82367   5.146   4.332   7.882 -0.0268 -0.1723  0.8380
  611MOL0     C82368   5.143   4.465   7.845 -0.3240 -0.5878 -0.3375
  611MOL0     C82369   5.244   4.470   7.756  0.0642 -0.9126  0.7385
  611MOL0     C82370   5.292   4.589   7.672  0.0890 -0.2618 -0.8118
  611MOL0     C82371   5.434   4.636   7.716 -0.0269 -0.0514 -0.1577
  611MOL0     C82372   5.436   4.675   7.863  0.4206  0.1022  0.9405
  611MOL0     C82373   5.570   4.741   7.891 -0.3330  1.1264  0.0245
  611MOL0     O82374   5.581   4.855   7.803  0.8802  0.2875 -0.3305
  611MOL0     C82375   5.684   4.943   7.825  0.0505  0.1159 -0.4206
  611MOL0     C82376   5.674   5.072   7.777 -0.3369 -0.1906  0.9889
  611MOL0     C82377   5.775   5.154   7.776  0.3954 -0.0039  0.3163
  611MOL0     C82378   5.894   5.134   7.843  0.9115  0.2287  0.5623
  611MOL0     C82379   6.000   5.230   7.840  0.0280 -0.1727  0.2467
  611MOL0     O82380   6.118   5.182   7.891  0.3570  0.0444 -0.2744
  611MOL0     C82381   6.236   5.245   7.873  0.0465  0.4870 -0.4695
  611MOL0     C82382   6.351   5.199   7.939 -0.1250  0.0432  0.0646
  611MOL0     C82383   6.480   5.235   7.906  0.4954 -0.3064 -0.6369
  611MOL0     C82384   6.491   5.332   7.816 -0.9919 -0.2729  1.3184
  611MOL0     O82385   6.604   5.406   7.804 -0.1577  0.1432 -0.5208
  611MOL0     C82386   6.719   5.319   7.814 -0.2424  0.2771 -0.0871
  611MOL0     C82387   6.846   5.398   7.826 -0.4878  1.1147 -0.8146
  611MOL0     C82388   6.895   5.470   7.697 -0.5987  0.2039 -0.3240
  611MOL0     C82389   7.040   5.519   7.703  0.4877  0.3530  0.8513
  611MOL0     C82390   7.055   5.630   7.815 -0.0588  0.2125 -0.9771
  611MOL0     C82391   7.204   5.685   7.847  0.7294  0.0989 -0.0105
  611MOL0     C82392   7.234   5.637   7.986 -0.1454  0.2005  0.5310
  611MOL0     C82393   7.375   5.667   8.038 -0.1086 -0.5686 -0.1702
  611MOL0    Cl82394   7.491   5.558   7.965  0.5298 -0.2062  0.5202
  611MOL0     C82395   6.383   5.382   7.748 -0.4151 -0.9777  0.6921
  611MOL0     C82396   6.255   5.340   7.780  0.1173 -0.4595  0.5182
  611MOL0     O82397   5.975   5.343   7.806  0.0256 -0.2021 -0.2513
  611MOL0     C82398   5.904   5.009   7.914  0.7490 -0.1514 -0.0161
  611MOL0     C82399   5.803   4.916   7.895  0.9493  0.0272 -0.4249
  611MOL0     N82400   5.297   4.349   7.732 -0.1463  0.7404  0.0921
  611MOL0     N82401   5.227   4.266   7.795  0.1626 -0.6812  0.3640
  611MOL0     C82402   3.932   4.280   8.080  0.4987 -0.1952  0.0882
  611MOL0     C82403   3.809   4.350   8.091  0.4868 -0.1540  0.7352
  611MOL0     C82404   3.570   4.757   8.114 -0.2168  0.1553 -0.4391
  611MOL0     C82405   3.497   4.823   8.219  0.0597  0.4240 -0.4893
  611MOL0     C82406   3.396   4.912   8.193 -0.0832  0.3161 -0.0403
  611MOL0     C82407   3.378   4.961   8.065 -0.2576  0.9438  0.4882
  611MOL0     O82408   3.283   5.058   8.030 -0.0325 -0.1331  0.2917
  611MOL0     C82409   3.272   5.171   8.117 -0.9975 -0.1725 -0.0207
  611MOL0     C82410   3.391   5.266   8.103  0.8296 -0.6169 -0.5885
  611MOL0     C82411   3.418   5.305   7.953 -0.1552  0.3182 -1.2262
  611MOL0     C82412   3.540   5.404   7.940  0.4182 -0.8437  0.4041
  611MOL0     C82413   3.523   5.511   7.841 -0.8932 -0.1234  0.6242
  611MOL0     C82414   3.523   5.601   7.762  0.1507  0.4299  0.0663
  611MOL0     C82415   3.453   4.897   7.962 -0.2826 -0.3390  0.4467
  611MOL0     C82416   3.549   4.796   7.986 -0.1704  0.5937 -0.3770
  611MOL0     C82417   3.625   4.734   7.863  0.8063  0.1067  0.3143
  611MOL0     H82418   3.928   4.657   8.045 -1.0599  0.1288 -4.0231
  611MOL0     H82419   4.147   4.535   8.037 -0.1057  0.4900  1.8032
  611MOL0     H82420   4.135   4.121   8.177  0.3584  0.9413  0.2085
  611MOL0     H82421   4.179   4.100   8.002  5.0448 -1.5009 -0.2817
  611MOL0     H82422   4.342   3.999   8.106  1.9891  0.9981  0.1218
  611MOL0     H82423   4.363   4.119   8.229 -1.2923  0.7244  0.1076
  611MOL0     H82424   4.449   4.283   8.061  0.7127 -0.1211 -1.2334
  611MOL0     H82425   4.417   4.179   7.931  1.2432 -1.1195 -0.6696
  611MOL0     H82426   4.610   4.132   8.154 -0.7361 -2.6890  1.4900
  611MOL0     H82427   4.581   4.008   8.028  1.0748  0.7203 -2.0154
  611MOL0     H82428   4.676   4.159   7.851  2.4072  0.6204 -0.0055
  611MOL0     H82429   4.658   4.299   7.963 -1.2271  0.6935 -1.4837
  611MOL0     H82430   4.820   4.226   8.100 -0.6843 -2.7299  2.2882
  611MOL0     H82431   4.823   4.060   8.019 -0.0200  0.4038 -1.0029
  611MOL0     H82432   4.902   4.305   7.861 -0.9166 -0.9456 -1.1904
  611MOL0     H82433   4.946   4.129   7.844 -2.0178 -0.1422  0.5471
  611MOL0     H82434   5.037   4.324   8.063 -0.1870  1.7094 -0.6607
  611MOL0     H82435   5.117   4.173   8.025  0.5632 -0.2955 -1.5829
  611MOL0     H82436   5.084   4.550   7.877 -1.9117 -2.5878  2.4507
  611MOL0     H82437   5.305   4.559   7.567  2.6416  0.3082 -0.7122
  611MOL0     H82438   5.214   4.665   7.681  1.4093  0.9346  1.4686
  611MOL0     H82439   5.510   4.558   7.705 -0.3345 -0.2385 -1.0812
  611MOL0     H82440   5.452   4.720   7.649 -3.6758  0.3305 -0.8542
  611MOL0     H82441   5.415   4.595   7.935  2.1173 -0.1820  1.1491
  611MOL0     H82442   5.361   4.755   7.874  0.0731  0.1342 -1.2289
  611MOL0     H82443   5.657   4.678   7.871 -0.0520  1.5261 -0.0179
  611MOL0     H82444   5.567   4.776   7.995 -1.7377  4.4220 -1.0020
  611MOL0     H82445   5.580   5.106   7.734 -0.4759  0.3687  1.7078
  611MOL0     H82446   5.756   5.241   7.714  1.2359 -0.1001 -0.1054
  611MOL0     H82447   6.339   5.124   8.016  2.6784  0.6021  1.1709
  611MOL0     H82448   6.560   5.185   7.958 -0.7268  0.2908  1.9654
  611MOL0     H82449   6.725   5.259   7.905  2.5238 -1.4437 -1.2589
  611MOL0     H82450   6.729   5.255   7.726  1.3612 -0.3184  0.5005
  611MOL0     H82451   6.829   5.471   7.905  4.8617  2.9864 -1.0068
  611MOL0     H82452   6.925   5.331   7.861  1.2034  3.8025  0.8922
  611MOL0     H82453   6.891   5.402   7.611  1.7984  2.5852 -2.5308
  611MOL0     H82454   6.829   5.553   7.673  0.1341  0.3917 -1.8174
  611MOL0     H82455   7.058   5.566   7.606 -1.1803  2.4141  1.4655
  611MOL0     H82456   7.110   5.436   7.717  0.1238 -0.1591 -0.2515
  611MOL0     H82457   6.998   5.590   7.899  0.9799  2.0663  0.6949
  611MOL0     H82458   6.989   5.713   7.787 -2.2244 -1.0479  0.0467
  611MOL0     H82459   7.273   5.642   7.774 -0.8466  2.5576 -3.1751
  611MOL0     H82460   7.204   5.793   7.827 -0.0939  0.4068  1.4642
  611MOL0     H82461   7.219   5.529   7.977  2.6277 -0.0786 -2.9521
  611MOL0     H82462   7.151   5.676   8.045 -1.1183 -3.4999  1.8794
  611MOL0     H82463   7.398   5.771   8.012  1.1214 -0.5532  0.8505
  611MOL0     H82464   7.376   5.651   8.146 -0.6620 -0.7201 -0.1837
  611MOL0     H82465   6.397   5.462   7.677  0.1283 -0.6936  1.1089
  611MOL0     H82466   6.174   5.372   7.714  1.4823 -1.6194 -1.8412
  611MOL0     H82467   5.984   4.992   7.985  0.8192  0.8005  0.1481
  611MOL0     H82468   5.825   4.819   7.940  3.3248  1.2399  1.2877
  611MOL0     H82469   3.914   4.173   8.086  1.9466 -0.5963 -1.6075
  611MOL0     H82470   3.716   4.296   8.103 -0.0263  0.7674  1.0019
  611MOL0     H82471   3.510   4.785   8.320 -0.4850 -3.5414 -1.7513
  611MOL0     H82472   3.340   4.947   8.279  2.4865  1.8786  1.1315
  611MOL0     H82473   3.248   5.143   8.221 -0.3046  1.0240  0.4776
  611MOL0     H82474   3.181   5.221   8.083 -1.0163 -0.7388 -0.8386
  611MOL0     H82475   3.482   5.236   8.154 -0.2072 -0.3856  1.4954
  611MOL0     H82476   3.367   5.361   8.153 -0.7234 -1.7713  0.9933
  611MOL0     H82477   3.331   5.348   7.904 -0.9969 -0.1472 -0.1868
  611MOL0     H82478   3.453   5.219   7.895  0.6067  2.8517 -4.8494
  611MOL0     H82479   3.560   5.451   8.037 -0.6124 -1.2843  0.8395
  611MOL0     H82480   3.633   5.352   7.915  0.8766  0.8400 -1.7308
  611MOL0     H82481   3.506   5.681   7.693 -1.0861 -0.0446 -0.1898
  611MOL0     H82482   3.440   4.926   7.859  0.4651  0.9855  0.7107
  611MOL0     H82483   3.732   4.737   7.882  0.7324  0.9657  0.6863
  611MOL0     H82484   3.597   4.629   7.854  2.1521 -0.2148 -0.2932
  611MOL0     H82485   3.600   4.776   7.765  1.6428 -0.9247 -0.3540
  612MOL0     O82486   3.865   5.554   9.828  0.2227 -0.5562 -0.5201
  612MOL0     C82487   3.911   5.660   9.840 -1.4224  0.2639 -0.5018
  612MOL0     O82488   4.043   5.693   9.884  0.5035 -0.1976  0.3981
  612MOL0     C82489   4.139   5.604   9.916  0.9074  0.3211  0.3267
  612MOL0     C82490   4.239   5.638  10.005 -0.0124  0.7378  0.1740
  612MOL0     C82491   4.352   5.560  10.023 -0.0320  0.5806  0.4321
  612MOL0     C82492   4.370   5.445   9.944  1.0767  0.8919 -0.3399
  612MOL0     O82493   4.467   5.351   9.969 -0.1182 -0.4913  0.5186
  612MOL0     C82494   4.587   5.399  10.029  0.8066 -0.6714 -0.3485
  612MOL0     C82495   4.700   5.316   9.978 -0.7070 -0.1168  0.0548
  612MOL0     C82496   4.829   5.376  10.037 -0.6039  0.0719  0.9083
  612MOL0     C82497   4.942   5.315   9.943 -0.1401 -0.2959  0.2535
  612MOL0     C82498   5.083   5.350   9.984 -0.6993  0.0799  0.2591
  612MOL0     C82499   5.188   5.326   9.869 -0.7296 -0.9088  0.3900
  612MOL0     C82500   5.338   5.345   9.913  0.5036  0.6637 -1.1440
  612MOL0     C82501   5.434   5.284   9.810 -0.6211 -0.4123 -0.6734
  612MOL0     N82502   5.575   5.317   9.842 -0.4251 -0.3294 -0.1558
  612MOL0     C82503   5.649   5.405   9.762  1.0818 -0.7183 -0.7643
  612MOL0     C82504   5.752   5.430   9.838 -0.1784 -0.0846 -0.3252
  612MOL0     C82505   5.870   5.513   9.794 -0.1255 -0.2518  0.2550
  612MOL0     C82506   5.985   5.510   9.893  1.0405  0.2587 -0.6171
  612MOL0     C82507   6.055   5.367   9.911  0.8421  0.6156 -0.8805
  612MOL0     C82508   6.200   5.372   9.965 -0.6663 -0.9172 -0.2000
  612MOL0     O82509   6.264   5.240   9.951 -0.2088 -0.5132  0.0389
  612MOL0     C82510   6.316   5.201   9.830  0.2237  0.9765 -0.1853
  612MOL0     C82511   6.382   5.075   9.830  0.4107 -0.0559 -0.2226
  612MOL0     C82512   6.461   5.042   9.720 -0.4057 -0.3892 -0.2242
  612MOL0     C82513   6.450   5.113   9.599  0.5670  0.5610 -0.1039
  612MOL0     C82514   6.514   5.063   9.485 -0.4655 -0.2919  0.0430
  612MOL0     O82515   6.551   4.930   9.479  0.2959  0.5555 -0.3573
  612MOL0     C82516   6.612   4.886   9.374 -0.2349 -0.3022  0.6781
  612MOL0     C82517   6.749   4.910   9.340  0.4369 -0.5062  0.8033
  612MOL0     C82518   6.813   4.862   9.228  0.6479 -0.4934  0.4216
  612MOL0     C82519   6.735   4.780   9.140  0.6311  0.0730  0.0340
  612MOL0     O82520   6.793   4.732   9.024 -0.3706 -0.0278  0.0269
  612MOL0     C82521   6.838   4.591   9.040 -0.7545  0.2472 -0.3652
  612MOL0     C82522   6.930   4.563   9.158 -0.3456  0.4226 -0.9548
  612MOL0     C82523   6.964   4.413   9.145  0.5749  0.0399 -0.8999
  612MOL0     C82524   6.841   4.322   9.169  0.1548 -0.3711 -0.6831
  612MOL0     C82525   6.875   4.167   9.198  0.5111 -0.2413 -0.2216
  612MOL0     C82526   6.741   4.082   9.199 -0.7640  0.0103 -0.0128
  612MOL0     C82527   6.762   3.949   9.272 -0.2813 -0.1720  0.5909
  612MOL0     C82528   6.651   3.845   9.251 -0.0937  0.2054  0.0988
  612MOL0    Cl82529   6.482   3.894   9.292  0.1866  0.3099  0.0199
  612MOL0     C82530   6.605   4.746   9.168  0.2731  0.0374  0.8025
  612MOL0     C82531   6.547   4.800   9.286 -0.5137 -0.0443  0.1958
  612MOL0     O82532   6.527   5.144   9.390  0.2476  0.1111 -0.0515
  612MOL0     C82533   6.366   5.227   9.594  0.0454  0.3219  0.0858
  612MOL0     C82534   6.310   5.276   9.713 -0.0248 -0.0462  0.3600
  612MOL0     N82535   5.740   5.368   9.968  0.4868 -1.0955 -0.5589
  612MOL0     N82536   5.631   5.290   9.963 -0.3391  0.7442  0.2894
  612MOL0     C82537   4.266   5.403   9.857  0.6038 -0.6182 -0.5078
  612MOL0     C82538   4.152   5.484   9.840 -0.0417  0.3671  0.3462
  612MOL0     C82539   3.829   5.780   9.805 -0.1874  0.5583  0.1392
  612MOL0     C82540   3.684   5.767   9.796 -0.6290  1.0405 -1.0595
  612MOL0     C82541   3.597   5.873   9.750 -0.2577  0.2558 -0.6647
  612MOL0     C82542   3.656   5.998   9.716  0.1664 -0.3683  0.8657
  612MOL0     O82543   3.584   6.118   9.696  0.7689 -0.0449 -0.4134
  612MOL0     C82544   3.467   6.108   9.605 -0.1371 -0.5006 -0.5739
  612MOL0     C82545   3.339   6.093   9.669  0.2651 -0.0059  0.2386
  612MOL0     C82546   3.257   6.222   9.656 -0.6874  0.8562  0.2630
  612MOL0     C82547   3.202   6.251   9.516  0.7383  0.0060 -0.4819
  612MOL0     C82548   3.060   6.282   9.519 -0.1472 -1.6131  0.1959
  612MOL0     C82549   2.941   6.297   9.510  1.0224  0.0539  0.1020
  612MOL0     C82550   3.790   6.009   9.743  0.2649 -0.4012  0.0022
  612MOL0     C82551   3.878   5.906   9.786  0.5485  0.5731  0.0150
  612MOL0     C82552   4.022   5.957   9.811 -0.7894  0.6169 -0.1197
  612MOL0     H82553   4.232   5.737  10.049 -2.8106  0.5973  0.1985
  612MOL0     H82554   4.411   5.601  10.104 -2.6985  0.6006  2.4965
  612MOL0     H82555   4.593   5.506  10.004 -0.8554 -0.0569  1.5786
  612MOL0     H82556   4.574   5.388  10.137  2.1972 -1.3261 -0.2140
  612MOL0     H82557   4.690   5.326   9.870 -1.6647  0.8773  0.2102
  612MOL0     H82558   4.696   5.211  10.011  1.9861  0.0870  1.2799
  612MOL0     H82559   4.831   5.348  10.142 -3.1904 -1.9231  0.5165
  612MOL0     H82560   4.819   5.484  10.022  0.7929  0.2597  1.1650
  612MOL0     H82561   4.927   5.207   9.931 -0.7295 -0.4241  1.8950
  612MOL0     H82562   4.928   5.357   9.844 -2.2243  1.6612  1.2940
  612MOL0     H82563   5.087   5.457  10.005 -1.3583  0.2371 -0.3456
  612MOL0     H82564   5.120   5.292  10.068  0.4398 -0.6240 -0.6900
  612MOL0     H82565   5.179   5.218   9.851  4.5259 -1.3075 -1.7728
  612MOL0     H82566   5.160   5.394   9.787  1.5942  1.6624  1.5824
  612MOL0     H82567   5.360   5.297  10.008 -1.0609  0.4575 -0.8502
  612MOL0     H82568   5.369   5.449   9.919  3.1138 -0.1253  0.6211
  612MOL0     H82569   5.420   5.177   9.788 -0.6073 -0.3107 -1.1995
  612MOL0     H82570   5.417   5.332   9.713  1.1974  0.3434 -0.6626
  612MOL0     H82571   5.618   5.448   9.667 -0.6232 -1.5988 -0.6512
  612MOL0     H82572   5.901   5.484   9.693  0.4391  2.1371 -0.3123
  612MOL0     H82573   5.831   5.614   9.782 -0.6994 -0.7971 -4.3638
  612MOL0     H82574   6.053   5.591   9.866 -1.0988  1.5827 -2.3344
  612MOL0     H82575   5.940   5.542   9.988 -1.7063 -2.8596 -0.7009
  612MOL0     H82576   6.052   5.315   9.815  1.2379  1.6148 -1.4401
  612MOL0     H82577   5.994   5.312   9.984  1.5050 -0.0263 -0.8028
  612MOL0     H82578   6.186   5.401  10.070 -0.6604  0.8542 -0.6489
  612MOL0     H82579   6.255   5.447   9.907  0.6416 -3.3908 -2.3385
  612MOL0     H82580   6.370   5.017   9.921 -0.5374  2.1408  1.1314
  612MOL0     H82581   6.517   4.949   9.719 -2.0111 -1.4078 -1.8670
  612MOL0     H82582   6.815   4.972   9.399 -0.2884  1.6205 -0.5079
  612MOL0     H82583   6.914   4.897   9.210  0.1738  1.9338  2.0102
  612MOL0     H82584   6.756   4.520   9.031 -1.1206  0.9347 -3.9613
  612MOL0     H82585   6.895   4.563   8.951  1.1469  1.9906  0.2146
  612MOL0     H82586   7.015   4.631   9.156  0.6702 -0.6830  1.1644
  612MOL0     H82587   6.874   4.580   9.251  0.9074  1.2256 -0.3222
  612MOL0     H82588   7.009   4.391   9.047  1.8916 -2.4883  0.1665
  612MOL0     H82589   7.040   4.385   9.219 -1.9110 -4.0952  0.4440
  612MOL0     H82590   6.784   4.320   9.076  2.1215 -1.6647 -1.9651
  612MOL0     H82591   6.784   4.372   9.247  1.1699  0.5720 -0.5294
  612MOL0     H82592   6.927   4.164   9.294 -0.8812  4.8389  1.0296
  612MOL0     H82593   6.940   4.132   9.117 -0.8219 -2.2343 -0.4856
  612MOL0     H82594   6.677   4.148   9.258  0.8597  1.3491  0.3165
  612MOL0     H82595   6.694   4.077   9.100 -1.0700 -0.6290  0.1582
  612MOL0     H82596   6.776   3.972   9.378 -1.7310 -0.4051  0.8586
  612MOL0     H82597   6.854   3.900   9.238 -1.7711 -1.9172 -1.2079
  612MOL0     H82598   6.654   3.814   9.146 -2.9922 -0.1301  0.0473
  612MOL0     H82599   6.670   3.753   9.306  2.4351 -0.3558 -1.5160
  612MOL0     H82600   6.546   4.695   9.093 -0.1238  1.6656 -0.0394
  612MOL0     H82601   6.446   4.769   9.313 -0.5495  0.9699  1.2987
  612MOL0     H82602   6.339   5.286   9.507 -3.6350 -1.2873 -0.0435
  612MOL0     H82603   6.255   5.368   9.695  1.0539  0.3429 -1.1814
  612MOL0     H82604   4.286   5.313   9.800 -1.3295 -1.3083 -0.1748
  612MOL0     H82605   4.088   5.463   9.755  0.6780  0.0898 -0.1360
  612MOL0     H82606   3.643   5.667   9.807  2.3152 -0.3707 -1.8724
  612MOL0     H82607   3.490   5.862   9.740 -0.7777  2.1536  1.8388
  612MOL0     H82608   3.483   6.020   9.542 -0.2986 -3.2416  2.9052
  612MOL0     H82609   3.467   6.195   9.539 -0.6366  1.4233  1.8042
  612MOL0     H82610   3.360   6.083   9.776  0.4839 -1.9248  0.0539
  612MOL0     H82611   3.296   5.998   9.636 -0.1835  1.1652 -2.8214
  612MOL0     H82612   3.313   6.312   9.684 -0.4217  1.5171 -2.1747
  612MOL0     H82613   3.170   6.223   9.723 -1.5116 -2.0286 -0.6120
  612MOL0     H82614   3.251   6.339   9.474 -0.3920  1.2831  0.7599
  612MOL0     H82615   3.213   6.163   9.452 -1.5460 -1.8493  1.4722
  612MOL0     H82616   2.837   6.318   9.497  1.3893  0.9102 -1.7217
  612MOL0     H82617   3.830   6.109   9.729 -5.3878  2.2473  0.2352
  612MOL0     H82618   4.048   5.949   9.917 -2.5192 -1.2104  0.2294
  612MOL0     H82619   4.092   5.894   9.756 -0.0994  1.7538 -0.5747
  612MOL0     H82620   4.022   6.058   9.771 -2.2740  1.8290  2.7014
  613MOL0     O82621   4.380   8.162   9.133  0.3363 -0.1932 -0.1296
  613MOL0     C82622   4.396   8.273   9.080 -0.0761 -0.0613  0.0396
  613MOL0     O82623   4.340   8.309   8.963  0.4376 -0.8350 -0.5397
  613MOL0     C82624   4.254   8.224   8.902 -0.0336 -0.4498 -0.3791
  613MOL0     C82625   4.113   8.227   8.929 -0.0301  0.1724 -1.0010
  613MOL0     C82626   4.024   8.130   8.879 -0.4863 -0.7412  0.8258
  613MOL0     C82627   4.076   8.016   8.809  0.2690 -0.3415  0.4710
  613MOL0     O82628   4.013   7.905   8.764 -0.0827  0.0725  0.2653
  613MOL0     C82629   3.871   7.919   8.743 -0.8838 -0.7891 -0.6790
  613MOL0     C82630   3.826   7.779   8.681  0.6382  0.1712  0.4358
  613MOL0     C82631   3.879   7.663   8.770  0.0717  0.2737 -0.1677
  613MOL0     C82632   3.805   7.536   8.751  0.7659  0.2981  0.7884
  613MOL0     C82633   3.861   7.415   8.823 -0.6139  0.1360  0.5052
  613MOL0     C82634   3.852   7.433   8.979 -0.0148 -0.1188  0.2764
  613MOL0     C82635   3.897   7.299   9.039 -0.0932 -0.0840 -0.5626
  613MOL0     C82636   3.878   7.317   9.194  0.0054  0.3155 -0.0231
  613MOL0     N82637   3.968   7.228   9.271  0.0293 -0.0169  0.0579
  613MOL0     C82638   3.961   7.093   9.278  0.5339  0.5613 -0.5924
  613MOL0     C82639   4.064   7.044   9.351 -0.0102 -0.2987 -0.0188
  613MOL0     C82640   4.086   6.899   9.381  0.4707 -0.1370 -0.0597
  613MOL0     C82641   4.234   6.867   9.395 -0.4740 -0.2807 -0.1222
  613MOL0     C82642   4.257   6.723   9.436  0.0399 -0.4644  0.4780
  613MOL0     C82643   4.402   6.711   9.482 -0.1421  0.2050 -0.1885
  613MOL0     O82644   4.502   6.708   9.376  0.1946  0.4272 -0.0716
  613MOL0     C82645   4.633   6.698   9.416 -0.2934 -1.1247  0.7367
  613MOL0     C82646   4.684   6.713   9.545  1.2230  0.6543 -0.4458
  613MOL0     C82647   4.815   6.715   9.578 -0.3081 -0.3829 -0.0363
  613MOL0     C82648   4.915   6.712   9.476  0.6387  0.1261  0.1700
  613MOL0     C82649   5.060   6.717   9.505  0.4141  1.1392  0.0847
  613MOL0     O82650   5.100   6.782   9.618  0.6942  0.4673  0.8063
  613MOL0     C82651   5.228   6.770   9.659  0.0380  0.6873  0.4719
  613MOL0     C82652   5.267   6.650   9.726  0.3360 -0.7791  0.2720
  613MOL0     C82653   5.398   6.627   9.750  0.4813 -1.3824  0.2133
  613MOL0     C82654   5.498   6.717   9.714 -0.2965  0.4222 -0.0291
  613MOL0     O82655   5.625   6.683   9.742 -0.2557  0.6528 -0.0565
  613MOL0     C82656   5.723   6.718   9.643 -0.5433 -0.4570 -0.1437
  613MOL0     C82657   5.730   6.591   9.553  0.0598 -0.0638  0.2079
  613MOL0     C82658   5.837   6.493   9.623 -0.6897  1.1502 -0.4883
  613MOL0     C82659   5.982   6.542   9.598  0.0380  0.0220 -0.2125
  613MOL0     C82660   6.088   6.432   9.589  0.8121 -0.2146  0.3677
  613MOL0     C82661   6.229   6.491   9.577  0.1247  0.1896 -0.2829
  613MOL0     C82662   6.342   6.400   9.545 -0.0171  0.4204 -0.4621
  613MOL0     C82663   6.371   6.328   9.678  1.1539  0.5007  0.5143
  613MOL0    Cl82664   6.501   6.198   9.661  0.3765  0.3669 -0.0214
  613MOL0     C82665   5.455   6.836   9.648 -0.1178 -0.2812  0.3249
  613MOL0     C82666   5.325   6.866   9.620 -0.2950 -0.5874 -0.4246
  613MOL0     O82667   5.132   6.675   9.415  0.2197 -0.2759  0.2573
  613MOL0     C82668   4.874   6.700   9.344 -0.0988  0.0860 -0.4329
  613MOL0     C82669   4.732   6.700   9.314 -0.5785 -0.1548 -0.6376
  613MOL0     N82670   4.129   7.165   9.395 -0.4271  0.5947 -0.3150
  613MOL0     N82671   4.073   7.269   9.347  0.1410 -0.3081 -0.2481
  613MOL0     C82672   4.214   8.021   8.788  0.1858 -0.1433 -0.3585
  613MOL0     C82673   4.300   8.115   8.829  0.0536  0.0393 -0.6665
  613MOL0     C82674   4.493   8.370   9.153  0.7812  0.4842 -0.7455
  613MOL0     C82675   4.599   8.317   9.227  0.6911  0.1414  0.6564
  613MOL0     C82676   4.703   8.391   9.288  0.0918  0.8470  0.1986
  613MOL0     C82677   4.703   8.528   9.270 -0.0060  0.2553 -0.7960
  613MOL0     O82678   4.818   8.604   9.310  0.2988 -0.9145 -0.3269
  613MOL0     C82679   4.910   8.550   9.403 -0.2839 -0.3338 -0.1152
  613MOL0     C82680   5.026   8.646   9.438  0.2603  1.3344  0.2272
  613MOL0     C82681   4.961   8.776   9.494  0.4010 -0.0811 -0.0712
  613MOL0     C82682   5.063   8.872   9.557  0.0288 -0.3769 -0.1273
  613MOL0     C82683   4.992   8.965   9.647  0.3229  0.4275  0.5220
  613MOL0     C82684   4.926   9.027   9.732 -1.0444  0.7969  0.4935
  613MOL0     C82685   4.599   8.586   9.200 -0.6079  0.1912  0.6884
  613MOL0     C82686   4.487   8.506   9.156  0.2081 -0.2980  0.0342
  613MOL0     C82687   4.369   8.569   9.090 -0.5033 -0.1847  0.3440
  613MOL0     H82688   4.064   8.306   8.984 -0.8262 -0.3349 -0.9553
  613MOL0     H82689   3.921   8.156   8.901 -0.5036  0.2121 -0.2668
  613MOL0     H82690   3.821   7.927   8.840 -0.1666 -0.7259 -0.3108
  613MOL0     H82691   3.849   8.004   8.678  1.7178 -0.1745 -0.8617
  613MOL0     H82692   3.877   7.762   8.586  0.4434 -0.2893  0.4093
  613MOL0     H82693   3.717   7.788   8.674  0.7620  0.2598 -2.3098
  613MOL0     H82694   3.867   7.697   8.873  2.7169  0.3641  0.1905
  613MOL0     H82695   3.984   7.635   8.755  0.1530  0.7005 -0.3900
  613MOL0     H82696   3.703   7.551   8.789  0.4294 -2.2898  1.1295
  613MOL0     H82697   3.791   7.513   8.645  0.5262  1.3254  0.5852
  613MOL0     H82698   3.813   7.320   8.797  0.9079 -0.3762 -0.6126
  613MOL0     H82699   3.966   7.409   8.792 -0.9931 -0.3726 -0.7428
  613MOL0     H82700   3.928   7.510   9.000  0.9570 -1.2378  0.9661
  613MOL0     H82701   3.755   7.459   9.022  0.9078 -0.1216  2.4848
  613MOL0     H82702   4.001   7.271   9.023 -0.2545 -1.3930  0.5633
  613MOL0     H82703   3.831   7.217   9.007 -0.9664 -0.2386  1.5013
  613MOL0     H82704   3.898   7.423   9.215  2.1369  0.4067 -2.0503
  613MOL0     H82705   3.773   7.303   9.221  0.4408 -1.1424  1.0436
  613MOL0     H82706   3.879   7.035   9.236  0.8065 -0.3843  0.1598
  613MOL0     H82707   4.027   6.883   9.472 -0.4265  1.3277 -0.3397
  613MOL0     H82708   4.040   6.837   9.304  1.7503 -2.1443  0.7096
  613MOL0     H82709   4.284   6.880   9.299 -1.4337 -0.5432 -0.6704
  613MOL0     H82710   4.277   6.934   9.470 -0.0317 -1.0750  0.3517
  613MOL0     H82711   4.248   6.664   9.344  0.2968  2.6759 -1.7162
  613MOL0     H82712   4.188   6.702   9.518  0.5028 -0.4493  0.8791
  613MOL0     H82713   4.412   6.617   9.537  1.9792 -0.0603 -0.9199
  613MOL0     H82714   4.432   6.792   9.548  1.1620 -0.2192 -0.2278
  613MOL0     H82715   4.618   6.710   9.631  1.5208  1.8000 -0.1617
  613MOL0     H82716   4.844   6.712   9.682 -1.0780  2.0942  0.3194
  613MOL0     H82717   5.201   6.574   9.767  0.7694 -1.5135 -0.3707
  613MOL0     H82718   5.430   6.529   9.785  0.0773 -1.7122 -0.3411
  613MOL0     H82719   5.690   6.807   9.590 -3.7067 -0.1274  2.0920
  613MOL0     H82720   5.808   6.742   9.707 -0.0303  0.1662 -1.0315
  613MOL0     H82721   5.626   6.558   9.550 -0.4314  1.4622 -0.2932
  613MOL0     H82722   5.755   6.617   9.450 -1.3865  1.9853  0.3316
  613MOL0     H82723   5.832   6.502   9.732  0.6743  3.7365 -0.5443
  613MOL0     H82724   5.836   6.394   9.577 -0.5091  0.0499  1.7406
  613MOL0     H82725   6.007   6.619   9.671  1.4745 -0.0603 -0.5798
  613MOL0     H82726   5.991   6.593   9.502 -0.2655 -3.9917 -2.6415
  613MOL0     H82727   6.081   6.382   9.492  4.2952 -0.4389  0.1165
  613MOL0     H82728   6.074   6.370   9.679  1.7749 -1.8049 -0.5474
  613MOL0     H82729   6.231   6.574   9.506  1.9529  1.6449  1.3503
  613MOL0     H82730   6.244   6.540   9.673 -2.8819  0.7910  0.0062
  613MOL0     H82731   6.429   6.462   9.516 -0.5703  0.1850 -2.8377
  613MOL0     H82732   6.313   6.336   9.462 -0.3555  0.4007 -0.3270
  613MOL0     H82733   6.405   6.409   9.744  0.4881  0.7779  0.5314
  613MOL0     H82734   6.279   6.285   9.719  0.4616 -0.2605 -1.7170
  613MOL0     H82735   5.519   6.905   9.595 -0.5337  1.7449  2.3027
  613MOL0     H82736   5.279   6.957   9.583 -0.2228  0.5738  2.1050
  613MOL0     H82737   4.940   6.690   9.258  0.2156  0.2909 -0.2184
  613MOL0     H82738   4.706   6.712   9.209 -1.3912 -2.6634 -0.7916
  613MOL0     H82739   4.245   7.938   8.725 -0.4549 -0.6897  0.0254
  613MOL0     H82740   4.408   8.102   8.822  0.1392  1.3520 -2.2776
  613MOL0     H82741   4.597   8.210   9.243 -1.1436 -0.1876 -1.2138
  613MOL0     H82742   4.780   8.330   9.333  0.0458 -0.2667 -1.1807
  613MOL0     H82743   4.964   8.469   9.354 -0.8941  0.0940 -1.5401
  613MOL0     H82744   4.868   8.520   9.500 -1.2046  1.0799 -0.0403
  613MOL0     H82745   5.097   8.673   9.359  1.5456  1.7755  1.4949
  613MOL0     H82746   5.096   8.596   9.505  0.0855  0.3381 -0.3074
  613MOL0     H82747   4.890   8.752   9.574  0.0795  2.4860  0.5045
  613MOL0     H82748   4.887   8.823   9.430 -1.0457  0.2244  1.7535
  613MOL0     H82749   5.136   8.818   9.618  0.2459 -2.2442 -1.9302
  613MOL0     H82750   5.105   8.938   9.480  0.6710  0.6673  1.0917
  613MOL0     H82751   4.858   9.078   9.797  1.0788  0.7670  2.9094
  613MOL0     H82752   4.603   8.694   9.190 -3.0438  0.1759 -1.6005
  613MOL0     H82753   4.375   8.570   8.981 -1.4896  1.8103  0.2584
  613MOL0     H82754   4.273   8.527   9.121 -0.5679  0.9144  1.7539
  613MOL0     H82755   4.376   8.675   9.118 -0.2327 -0.0644 -0.1695
  614MOL0     O82756  11.213   5.641   9.362 -0.0141 -0.1831 -0.3957
  614MOL0     C82757  11.233   5.551   9.448  0.7049  0.2515 -0.1181
  614MOL0     O82758  11.157   5.543   9.562 -0.0073 -0.8213  0.0861
  614MOL0     C82759  11.043   5.617   9.576  1.3741  0.1881 -0.0089
  614MOL0     C82760  10.918   5.554   9.540  0.5407  0.2144  0.8301
  614MOL0     C82761  10.801   5.629   9.533  0.0087  0.4124 -0.4207
  614MOL0     C82762  10.803   5.766   9.570 -0.2173 -0.0766 -1.2599
  614MOL0     O82763  10.685   5.825   9.580  0.8004  0.1472 -0.2615
  614MOL0     C82764  10.659   5.953   9.520  0.1065  0.7705  0.0234
  614MOL0     C82765  10.619   5.940   9.366  0.0506  0.0041 -0.1698
  614MOL0     C82766  10.466   5.918   9.355  0.8318  0.7336  0.5652
  614MOL0     C82767  10.435   5.770   9.383 -0.2687 -0.4375  0.5703
  614MOL0     C82768  10.299   5.716   9.328  0.2303 -0.1904  0.2574
  614MOL0     C82769  10.179   5.779   9.392  0.1746  0.1169 -0.4387
  614MOL0     C82770  10.047   5.718   9.340 -0.2836 -0.5329 -0.1133
  614MOL0     C82771   9.941   5.820   9.365  0.4454 -0.2491  0.6575
  614MOL0     N82772   9.956   5.939   9.264  0.2668  0.0912 -0.8835
  614MOL0     C82773   9.907   5.929   9.137 -0.4226 -0.6956 -1.4515
  614MOL0     C82774   9.896   6.057   9.093  0.3960  0.1219 -0.4146
  614MOL0     C82775   9.831   6.097   8.958 -0.1576 -0.4180  0.4332
  614MOL0     C82776   9.680   6.125   8.974  0.5141 -0.0903 -0.2296
  614MOL0     C82777   9.625   6.169   8.835 -0.7805  0.1884  0.0989
  614MOL0     C82778   9.476   6.170   8.845 -0.2213 -0.5184 -0.5222
  614MOL0     O82779   9.437   6.036   8.821  0.6172  0.0635  0.3479
  614MOL0     C82780   9.301   6.016   8.800  0.0930  0.5785 -0.1347
  614MOL0     C82781   9.231   6.082   8.702 -0.6689  0.2613  0.2688
  614MOL0     C82782   9.094   6.067   8.700  0.3123  0.7173  0.5340
  614MOL0     C82783   9.020   5.990   8.796 -0.2029  0.5069  0.3819
  614MOL0     C82784   8.876   5.952   8.777  0.4267  0.6913  0.8848
  614MOL0     O82785   8.819   6.003   8.664 -0.0395 -0.2829  0.0240
  614MOL0     C82786   8.685   6.001   8.637  0.0632  0.5740  0.0318
  614MOL0     C82787   8.577   5.976   8.730 -0.2295  0.4093  0.2534
  614MOL0     C82788   8.443   5.978   8.683 -0.5535  0.3022 -0.4942
  614MOL0     C82789   8.418   5.994   8.544  0.1875  0.4914 -1.0702
  614MOL0     O82790   8.295   6.010   8.485  0.0433 -0.2414  0.3658
  614MOL0     C82791   8.177   6.019   8.571 -0.6799  0.2336  0.1503
  614MOL0     C82792   8.046   5.998   8.491  0.1316 -0.9519  0.0054
  614MOL0     C82793   7.964   5.862   8.509  0.3308 -0.1352 -0.8133
  614MOL0     C82794   7.832   5.854   8.424  0.0856  0.2848  0.1910
  614MOL0     C82795   7.765   5.724   8.442 -0.3466  0.2084  0.8569
  614MOL0     C82796   7.624   5.726   8.385 -0.1121 -0.4155  0.4357
  614MOL0     C82797   7.562   5.586   8.389 -0.4999  0.4022  0.6848
  614MOL0     C82798   7.523   5.541   8.526  0.4840  0.0084 -0.1707
  614MOL0    Cl82799   7.376   5.620   8.575 -0.0115 -0.1968  0.3519
  614MOL0     C82800   8.527   6.017   8.457  0.0332  0.6708  0.2411
  614MOL0     C82801   8.660   6.018   8.504  0.0894 -0.3176 -0.1900
  614MOL0     O82802   8.825   5.872   8.851  0.9804  0.2415  0.6566
  614MOL0     C82803   9.095   5.925   8.892  0.2685 -0.3832  0.0873
  614MOL0     C82804   9.233   5.937   8.896  0.4389  0.2559  0.5252
  614MOL0     N82805   9.955   6.140   9.188  0.2785  0.0621  0.1647
  614MOL0     N82806   9.991   6.062   9.298  0.3043 -0.5929  0.5065
  614MOL0     C82807  10.926   5.834   9.598 -0.0013  0.3006 -0.1428
  614MOL0     C82808  11.037   5.752   9.605 -0.3974 -0.4734 -0.0868
  614MOL0     C82809  11.356   5.467   9.435 -1.2359  0.1019 -0.7468
  614MOL0     C82810  11.369   5.366   9.533 -0.2821 -0.1909  0.7499
  614MOL0     C82811  11.480   5.286   9.533  0.9501 -0.1361  0.5185
  614MOL0     C82812  11.588   5.299   9.442  0.5033  0.3205 -0.1250
  614MOL0     O82813  11.712   5.229   9.446  0.1914  0.3923 -0.2721
  614MOL0     C82814  11.703   5.089   9.466 -0.1692 -0.7395  0.1470
  614MOL0     C82815  11.800   5.024   9.371  0.3643 -0.0773 -0.4952
  614MOL0     C82816  11.949   5.073   9.371  0.2523  0.9341 -0.8376
  614MOL0     C82817  12.003   5.067   9.514 -0.4488  0.5476 -0.3211
  614MOL0     C82818  12.137   5.107   9.526  0.0309  0.2409 -1.5048
  614MOL0     C82819  12.259   5.139   9.531  0.1046  0.5420 -0.2808
  614MOL0     C82820  11.573   5.405   9.350 -0.0482  0.3410  0.1360
  614MOL0     C82821  11.467   5.485   9.348  0.0954  0.0221 -1.0137
  614MOL0     C82822  11.460   5.585   9.239 -0.4223 -0.1204  0.6569
  614MOL0     H82823  10.927   5.451   9.509  1.1076  0.3749  0.4483
  614MOL0     H82824  10.709   5.573   9.517  1.1464 -1.1500 -1.8006
  614MOL0     H82825  10.585   6.018   9.569  0.4056  0.8288  0.4069
  614MOL0     H82826  10.748   6.018   9.514 -0.3049  1.3196 -0.2830
  614MOL0     H82827  10.675   5.859   9.317  0.3323  0.8164 -1.2200
  614MOL0     H82828  10.647   6.034   9.317 -1.4959  1.3777  1.4699
  614MOL0     H82829  10.433   5.934   9.252  0.3441 -0.4400  0.5294
  614MOL0     H82830  10.403   5.972   9.426  0.8779 -1.1622  2.1156
  614MOL0     H82831  10.517   5.705   9.351  1.7592  2.7399 -1.2361
  614MOL0     H82832  10.447   5.758   9.491  0.7720 -1.9078  0.3161
  614MOL0     H82833  10.297   5.723   9.219 -1.1899  1.6312  0.3490
  614MOL0     H82834  10.296   5.607   9.340 -0.2388 -0.4054 -1.4880
  614MOL0     H82835  10.195   5.772   9.500 -1.3726 -2.8496 -0.3230
  614MOL0     H82836  10.186   5.888   9.381  1.7234  0.1937  0.8155
  614MOL0     H82837  10.027   5.624   9.393  1.6353 -0.9273 -0.0234
  614MOL0     H82838  10.064   5.687   9.237  1.9567 -0.6313  0.2299
  614MOL0     H82839   9.844   5.777   9.340 -0.3315  1.1557  1.1520
  614MOL0     H82840   9.936   5.860   9.467 -0.4366  2.7049 -0.4336
  614MOL0     H82841   9.862   5.838   9.100 -0.1357 -1.0581 -0.9081
  614MOL0     H82842   9.881   6.183   8.911 -0.4972  1.2997  3.0011
  614MOL0     H82843   9.855   6.007   8.902 -0.6264 -0.5060  0.3703
  614MOL0     H82844   9.625   6.037   9.009  1.0434 -0.2171  0.3059
  614MOL0     H82845   9.665   6.201   9.051 -1.9718 -2.5689  1.9263
  614MOL0     H82846   9.643   6.102   8.751 -0.2384 -1.0972  1.1976
  614MOL0     H82847   9.654   6.272   8.814 -0.3975 -0.1358 -1.0215
  614MOL0     H82848   9.436   6.236   8.769  2.5983  1.7374 -0.2431
  614MOL0     H82849   9.449   6.205   8.945 -2.1864  0.6931 -1.4254
  614MOL0     H82850   9.289   6.134   8.627 -2.2014  2.7276  0.7011
  614MOL0     H82851   9.025   6.111   8.629 -0.2815 -0.6500  0.2175
  614MOL0     H82852   8.596   5.954   8.834 -3.0178 -1.9098  0.4104
  614MOL0     H82853   8.371   5.956   8.761  4.2049 -3.3454  3.5597
  614MOL0     H82854   8.198   5.939   8.643 -0.8746  1.3892  1.5375
  614MOL0     H82855   8.184   6.114   8.625 -0.4826  0.3094 -0.0050
  614MOL0     H82856   7.988   6.087   8.517  1.2723 -0.4999  1.1264
  614MOL0     H82857   8.067   6.013   8.385 -1.5287 -1.5775 -0.4362
  614MOL0     H82858   8.020   5.768   8.499 -1.2739 -1.0754 -1.2611
  614MOL0     H82859   7.930   5.863   8.613 -1.4686  0.1739 -1.3775
  614MOL0     H82860   7.864   5.856   8.320  0.7052  1.7859  0.3903
  614MOL0     H82861   7.763   5.936   8.446  0.3509  0.7812 -0.7866
  614MOL0     H82862   7.763   5.713   8.551  0.9787  2.0312  1.1180
  614MOL0     H82863   7.831   5.649   8.399  0.6470  0.8029  1.2989
  614MOL0     H82864   7.562   5.795   8.443  0.4552 -1.4687  2.3728
  614MOL0     H82865   7.628   5.766   8.283  4.3995 -0.5165  0.3479
  614MOL0     H82866   7.625   5.514   8.336 -0.3051  1.9820 -1.4007
  614MOL0     H82867   7.473   5.570   8.326 -0.0126 -0.6194  0.2331
  614MOL0     H82868   7.499   5.434   8.522 -1.8069  0.1132  4.3081
  614MOL0     H82869   7.605   5.567   8.594  2.0907 -0.7376 -1.7586
  614MOL0     H82870   8.519   6.036   8.351  2.8729 -0.9662 -0.3935
  614MOL0     H82871   8.736   6.021   8.427 -0.0607 -0.4378 -0.3427
  614MOL0     H82872   9.042   5.866   8.966  0.8784 -1.7513 -0.5247
  614MOL0     H82873   9.294   5.875   8.961 -1.1967 -1.3580  0.6190
  614MOL0     H82874  10.938   5.941   9.609 -1.3942  0.2923  1.8232
  614MOL0     H82875  11.138   5.787   9.622 -1.1211  2.2973 -1.0345
  614MOL0     H82876  11.289   5.346   9.603 -0.5599  1.6340  1.0216
  614MOL0     H82877  11.478   5.197   9.595 -2.0405  0.2201  1.0640
  614MOL0     H82878  11.602   5.059   9.436 -1.6311  3.8783 -0.2736
  614MOL0     H82879  11.721   5.069   9.572 -1.1735 -0.1044  0.4439
  614MOL0     H82880  11.771   5.028   9.266 -2.1432 -1.2502  0.0887
  614MOL0     H82881  11.797   4.917   9.392 -0.7099  0.3255  1.7011
  614MOL0     H82882  11.953   5.172   9.326 -2.0777  1.9778  1.0263
  614MOL0     H82883  12.013   5.006   9.312 -0.8533  0.7264 -1.8472
  614MOL0     H82884  11.934   5.112   9.586  0.0303 -1.0189  1.1983
  614MOL0     H82885  12.003   4.960   9.537 -3.7340  0.8027  1.5300
  614MOL0     H82886  12.357   5.181   9.539 -0.7511  3.5401 -3.2378
  614MOL0     H82887  11.639   5.424   9.266  0.6456 -0.7253  0.4177
  614MOL0     H82888  11.553   5.591   9.181  0.5115 -3.9157  1.4556
  614MOL0     H82889  11.382   5.548   9.172 -0.2953  0.3372  0.2514
  614MOL0     H82890  11.432   5.687   9.265  1.1750  0.7762 -0.9266
  615MOL0     O82891   2.982   5.807   6.915 -0.7877 -0.6296  0.0933
  615MOL0     C82892   2.970   5.877   7.017  0.8748  0.2117 -0.1130
  615MOL0     O82893   3.029   5.865   7.134 -0.0239 -0.3292 -0.7334
  615MOL0     C82894   3.084   5.748   7.174  0.4830  0.5290 -0.7549
  615MOL0     C82895   3.052   5.624   7.120  0.5884  0.6443 -0.6917
  615MOL0     C82896   3.116   5.506   7.158  0.1840  0.0888  0.2717
  615MOL0     C82897   3.219   5.512   7.257 -0.0334 -0.1554 -0.4370
  615MOL0     O82898   3.277   5.392   7.296  0.2343 -0.3383 -0.3307
  615MOL0     C82899   3.399   5.389   7.374 -0.0801 -0.2707  0.1774
  615MOL0     C82900   3.444   5.235   7.377  0.5641  0.1082  0.1898
  615MOL0     C82901   3.588   5.219   7.431  0.1104 -0.3710  0.1696
  615MOL0     C82902   3.591   5.224   7.589  0.0324  0.4327 -0.1182
  615MOL0     C82903   3.741   5.204   7.632 -0.3575  0.4640  0.2732
  615MOL0     C82904   3.823   5.327   7.611 -0.4325  0.3163 -0.2133
  615MOL0     C82905   3.968   5.299   7.644 -1.1625 -0.4758  0.0163
  615MOL0     C82906   4.062   5.405   7.584 -0.1077 -0.0653 -0.3007
  615MOL0     N82907   4.201   5.365   7.602  0.4331  0.3271 -0.4139
  615MOL0     C82908   4.288   5.375   7.708 -0.3691 -0.4618 -0.1310
  615MOL0     C82909   4.398   5.306   7.672  0.4014  0.3754 -0.1201
  615MOL0     C82910   4.513   5.282   7.767  0.0099 -0.7241  1.6025
  615MOL0     C82911   4.513   5.146   7.837  0.3713  0.5984  0.6986
  615MOL0     C82912   4.594   5.054   7.744 -0.5247 -0.9745  0.0795
  615MOL0     C82913   4.613   4.913   7.807 -0.3435 -0.0617 -0.5551
  615MOL0     O82914   4.697   4.845   7.711  0.3607  0.0034  0.2209
  615MOL0     C82915   4.828   4.878   7.713  0.6387 -0.2933  0.6320
  615MOL0     C82916   4.897   4.834   7.599 -0.2464 -0.7142  0.0420
  615MOL0     C82917   5.026   4.874   7.580 -0.5909  0.7246  0.5092
  615MOL0     C82918   5.095   4.954   7.667 -0.3054 -0.0076  0.4865
  615MOL0     C82919   5.227   5.005   7.636  0.2146 -0.4692  0.1361
  615MOL0     O82920   5.281   4.995   7.512  0.5638  0.0638 -0.1359
  615MOL0     C82921   5.412   5.036   7.476 -1.1656 -0.1832  0.2452
  615MOL0     C82922   5.473   4.965   7.371  0.1204  0.4838  0.7501
  615MOL0     C82923   5.590   5.010   7.307 -0.1492 -0.0467  0.1069
  615MOL0     C82924   5.657   5.127   7.359  0.0611  0.5244 -0.7790
  615MOL0     O82925   5.767   5.193   7.314 -0.1113 -0.1889 -0.1339
  615MOL0     C82926   5.866   5.110   7.257 -0.2630  0.5773  0.5140
  615MOL0     C82927   5.957   5.062   7.370 -0.3125 -0.4235 -0.0281
  615MOL0     C82928   6.029   5.180   7.443 -0.3137  0.6038  0.3693
  615MOL0     C82929   6.184   5.177   7.421 -0.4845  0.0529  0.2275
  615MOL0     C82930   6.224   5.200   7.273  0.9575  0.9361 -0.0327
  615MOL0     C82931   6.369   5.225   7.249 -0.6217 -0.2142  0.7619
  615MOL0     C82932   6.455   5.120   7.310 -0.3382  0.2401  0.0573
  615MOL0     C82933   6.599   5.165   7.293  0.4496 -0.5569 -0.7280
  615MOL0    Cl82934   6.642   5.263   7.426  0.1539 -0.1653  0.2528
  615MOL0     C82935   5.586   5.203   7.454 -0.1849  0.5529 -0.5473
  615MOL0     C82936   5.464   5.161   7.512  0.1044 -0.4560 -0.6640
  615MOL0     O82937   5.283   5.052   7.735 -0.6315  0.2565 -0.1619
  615MOL0     C82938   5.027   4.995   7.791 -0.3899  1.0468 -0.3193
  615MOL0     C82939   4.896   4.959   7.812  0.2103 -0.4603  0.4487
  615MOL0     N82940   4.375   5.245   7.547  0.0245 -0.7934 -0.0542
  615MOL0     N82941   4.260   5.284   7.516 -0.4083  0.1394  0.8139
  615MOL0     C82942   3.257   5.639   7.300  0.6624  0.4883 -1.0528
  615MOL0     C82943   3.186   5.752   7.265  0.4385 -0.0769 -0.4983
  615MOL0     C82944   2.863   5.977   7.021 -0.6892  0.0679 -0.0421
  615MOL0     C82945   2.872   6.091   7.101 -0.2433  0.0365  0.4682
  615MOL0     C82946   2.789   6.200   7.089  0.4118  0.1426  0.2923
  615MOL0     C82947   2.672   6.196   7.003  0.5638  0.7500 -0.1039
  615MOL0     O82948   2.600   6.308   6.991 -0.0894 -0.3766  0.5292
  615MOL0     C82949   2.461   6.291   6.947 -0.1785 -1.5071  0.9039
  615MOL0     C82950   2.368   6.243   7.051 -0.5270  0.2061 -0.5027
  615MOL0     C82951   2.220   6.276   7.016 -0.6812 -0.0659 -0.5054
  615MOL0     C82952   2.178   6.211   6.888 -0.8515 -0.1317  0.5568
  615MOL0     C82953   2.139   6.312   6.780  0.0805  0.6540 -0.5673
  615MOL0     C82954   2.098   6.382   6.696 -0.2422  0.1664  1.0257
  615MOL0     C82955   2.654   6.086   6.920  0.0584 -0.0479 -0.4967
  615MOL0     C82956   2.744   5.971   6.938 -0.7738 -0.0626 -0.7679
  615MOL0     C82957   2.704   5.859   6.849  0.4233 -0.0273  0.8196
  615MOL0     H82958   2.960   5.610   7.064  0.7608  0.4765 -0.9393
  615MOL0     H82959   3.090   5.406   7.123 -3.5943  1.3486 -1.0419
  615MOL0     H82960   3.486   5.439   7.330 -1.1951 -0.0168 -1.8896
  615MOL0     H82961   3.384   5.425   7.476 -2.0120  1.8795 -0.7651
  615MOL0     H82962   3.442   5.195   7.275  0.6412  4.1574 -1.5942
  615MOL0     H82963   3.375   5.169   7.431  1.3132 -0.5969  0.3186
  615MOL0     H82964   3.642   5.305   7.390  1.1283 -0.1216  1.9360
  615MOL0     H82965   3.628   5.132   7.378 -3.1093 -0.3548 -2.6792
  615MOL0     H82966   3.542   5.312   7.631 -2.3654  1.1263 -3.8920
  615MOL0     H82967   3.534   5.133   7.611  0.7296 -0.4878 -1.8720
  615MOL0     H82968   3.744   5.180   7.739 -1.5011 -0.0528  0.2064
  615MOL0     H82969   3.773   5.123   7.567  1.6429  1.1850  0.2900
  615MOL0     H82970   3.814   5.368   7.509  1.5827 -0.5910 -0.8114
  615MOL0     H82971   3.788   5.411   7.671 -1.3005  0.7266 -1.2505
  615MOL0     H82972   3.991   5.211   7.583  1.6911  0.0964  0.1330
  615MOL0     H82973   3.994   5.286   7.750  1.1055  0.0542 -0.4233
  615MOL0     H82974   4.041   5.414   7.477 -2.7962 -1.5645 -0.0059
  615MOL0     H82975   4.046   5.500   7.635 -0.9966 -0.0127 -0.6557
  615MOL0     H82976   4.272   5.428   7.801  0.7269  0.7397 -0.6110
  615MOL0     H82977   4.604   5.305   7.711 -0.9533  0.3016  0.4161
  615MOL0     H82978   4.495   5.352   7.849 -2.9958 -0.4692  0.8476
  615MOL0     H82979   4.562   5.149   7.935  1.8103  0.5488  0.0110
  615MOL0     H82980   4.409   5.114   7.844  0.0451 -0.3119 -4.2889
  615MOL0     H82981   4.689   5.107   7.735 -0.8765 -0.4035 -0.2783
  615MOL0     H82982   4.543   5.046   7.648 -0.0104  0.5590 -0.3424
  615MOL0     H82983   4.522   4.854   7.820  0.7849 -1.3682  2.2851
  615MOL0     H82984   4.647   4.919   7.911 -2.2961 -1.0041  0.1888
  615MOL0     H82985   4.845   4.770   7.528  0.0084 -1.2521  0.3339
  615MOL0     H82986   5.083   4.839   7.494  2.0853 -0.9106  2.7547
  615MOL0     H82987   5.428   4.871   7.337 -0.1299  0.5769  0.8188
  615MOL0     H82988   5.633   4.958   7.223  0.4621  0.8967 -0.1876
  615MOL0     H82989   5.830   5.025   7.198 -0.4489 -0.1551  1.6565
  615MOL0     H82990   5.917   5.173   7.183 -1.1312  0.2963 -0.3538
  615MOL0     H82991   5.894   5.022   7.449  0.7571 -0.9315  0.5920
  615MOL0     H82992   6.024   4.981   7.342 -0.2549 -1.2889  2.3717
  615MOL0     H82993   5.988   5.279   7.420  1.3852  0.8976 -1.6355
  615MOL0     H82994   6.004   5.160   7.548 -2.2458 -2.5811 -0.5543
  615MOL0     H82995   6.229   5.085   7.460  0.2874  0.3901  0.1582
  615MOL0     H82996   6.229   5.253   7.486  0.2249  0.8405 -1.1453
  615MOL0     H82997   6.174   5.286   7.227 -2.5059  0.1705  1.9389
  615MOL0     H82998   6.194   5.106   7.226 -3.9068  1.9567  0.4141
  615MOL0     H82999   6.377   5.225   7.140  0.2992  2.6666  0.7560
  615MOL0     H83000   6.401   5.325   7.277  2.4343 -0.7650 -0.4191
  615MOL0     H83001   6.444   5.017   7.274 -1.9158  0.7102 -0.9051
  615MOL0     H83002   6.435   5.107   7.417 -1.1690 -2.1063 -0.3130
  615MOL0     H83003   6.661   5.075   7.300 -0.1030 -0.9283 -0.5281
  615MOL0     H83004   6.615   5.219   7.200  0.8922 -2.6476 -1.9252
  615MOL0     H83005   5.632   5.294   7.491 -0.8252 -0.1512  2.2515
  615MOL0     H83006   5.417   5.219   7.590 -0.2561 -0.1047 -1.1351
  615MOL0     H83007   5.069   5.065   7.863  1.4425  0.0146 -0.3252
  615MOL0     H83008   4.852   5.008   7.899  1.3476  1.1139  0.1936
  615MOL0     H83009   3.322   5.639   7.387 -2.3645  1.1727  1.4135
  615MOL0     H83010   3.223   5.845   7.308  2.5079 -0.2035 -1.8833
  615MOL0     H83011   2.968   6.108   7.148  0.2693  0.2462 -0.6212
  615MOL0     H83012   2.808   6.291   7.145 -1.8997  1.3964 -0.7910
  615MOL0     H83013   2.459   6.242   6.850  3.1170  1.8580 -1.1328
  615MOL0     H83014   2.420   6.391   6.932 -0.4356 -1.7904 -0.3770
  615MOL0     H83015   2.407   6.293   7.141  0.1722 -0.7366 -0.2699
  615MOL0     H83016   2.374   6.135   7.069  0.6407  0.4216  0.5503
  615MOL0     H83017   2.202   6.383   7.009 -1.0503  0.0286  1.4598
  615MOL0     H83018   2.161   6.234   7.098 -2.6785 -1.1143 -2.3795
  615MOL0     H83019   2.254   6.140   6.854 -1.7818 -0.5701 -0.6826
  615MOL0     H83020   2.098   6.139   6.908  0.6853 -1.4435  2.3729
  615MOL0     H83021   2.049   6.448   6.628  1.0995 -0.6452 -0.8140
  615MOL0     H83022   2.578   6.086   6.842 -2.1014  1.9091  1.4913
  615MOL0     H83023   2.707   5.763   6.901  0.7334 -0.2870  0.3385
  615MOL0     H83024   2.608   5.868   6.797  1.4080 -2.4129 -1.7004
  615MOL0     H83025   2.777   5.849   6.768  1.3155 -1.1077  1.7245
  616MOL0     O83026   5.216   4.514   2.747 -0.1141 -0.1152  0.2682
  616MOL0     C83027   5.114   4.459   2.796  1.1914  0.6101  0.8286
  616MOL0     O83028   5.115   4.353   2.883 -0.1233 -0.1886  0.2259
  616MOL0     C83029   5.230   4.276   2.880 -0.0356 -0.1984  0.0966
  616MOL0     C83030   5.267   4.209   2.762 -0.1722 -0.0114  0.5196
  616MOL0     C83031   5.365   4.114   2.755  0.1715  0.2502  1.0055
  616MOL0     C83032   5.430   4.073   2.871 -0.6847 -0.8955  0.2097
  616MOL0     O83033   5.511   3.970   2.870  0.0073  0.3484  0.4167
  616MOL0     C83034   5.650   3.997   2.907  0.4942 -0.1444 -0.8369
  616MOL0     C83035   5.719   4.091   2.808 -0.5482 -0.1704  0.5706
  616MOL0     C83036   5.868   4.114   2.855 -0.1559 -0.0657 -1.4033
  616MOL0     C83037   5.932   4.240   2.771  0.7248  0.1769 -0.4978
  616MOL0     C83038   6.056   4.297   2.830 -0.2549 -0.2664 -1.3439
  616MOL0     C83039   6.108   4.418   2.752 -0.6009  0.2526 -0.7668
  616MOL0     C83040   6.229   4.477   2.826  0.4135  0.3710  0.2164
  616MOL0     C83041   6.294   4.609   2.788  0.0902  0.7005  0.3125
  616MOL0     N83042   6.376   4.586   2.673 -0.2332 -0.1420  0.2585
  616MOL0     C83043   6.495   4.524   2.679 -0.5311 -0.3472 -0.0491
  616MOL0     C83044   6.540   4.541   2.556  0.4759  0.2067  0.5490
  616MOL0     C83045   6.675   4.500   2.500  0.6576  0.5772 -0.0023
  616MOL0     C83046   6.804   4.566   2.554 -0.0982  0.1322  0.3741
  616MOL0     C83047   6.921   4.477   2.507  0.0703  0.2986 -0.3205
  616MOL0     C83048   7.060   4.517   2.559  0.2016  0.2859  0.2114
  616MOL0     O83049   7.098   4.638   2.488  0.2720  0.3152  0.0713
  616MOL0     C83050   7.220   4.701   2.512 -0.3253 -0.5101 -0.6702
  616MOL0     C83051   7.321   4.663   2.598  0.1697  0.2375 -0.4443
  616MOL0     C83052   7.437   4.735   2.610  0.5056  0.2926 -0.3647
  616MOL0     C83053   7.469   4.844   2.528  0.3105 -1.2002 -0.6480
  616MOL0     C83054   7.595   4.928   2.539 -0.2474  0.1997  0.6538
  616MOL0     O83055   7.683   4.908   2.638 -0.7212 -1.4596  0.4025
  616MOL0     C83056   7.770   5.012   2.674  0.2392  0.1185  0.5986
  616MOL0     C83057   7.904   4.993   2.654  0.3903 -0.5044  0.0790
  616MOL0     C83058   7.996   5.095   2.701  0.5202 -0.8023 -0.1928
  616MOL0     C83059   7.945   5.219   2.752  0.3464  0.3594  0.6999
  616MOL0     O83060   8.038   5.313   2.790  0.7787 -0.7155  0.0534
  616MOL0     C83061   8.009   5.403   2.902  0.4454  0.9929  0.0912
  616MOL0     C83062   8.125   5.422   2.994  0.3169 -1.1095  0.0080
  616MOL0     C83063   8.215   5.550   2.966  0.2297  0.0399 -0.7738
  616MOL0     C83064   8.310   5.509   2.866  0.2296 -0.7556  1.1032
  616MOL0     C83065   8.425   5.618   2.851 -0.6711  0.3378 -0.2031
  616MOL0     C83066   8.553   5.553   2.788  0.2373  0.3191  0.0225
  616MOL0     C83067   8.615   5.640   2.684  0.8137 -0.2410  0.0232
  616MOL0     C83068   8.700   5.587   2.568  0.4668 -0.7256 -0.4320
  616MOL0    Cl83069   8.852   5.525   2.623  0.2309  0.1149  0.2704
  616MOL0     C83070   7.802   5.243   2.765  0.2556  1.5429  0.6969
  616MOL0     C83071   7.727   5.127   2.732 -0.1835  0.2962  0.1181
  616MOL0     O83072   7.599   5.025   2.465  0.4147 -0.2719  0.2460
  616MOL0     C83073   7.371   4.871   2.429 -0.1029 -0.3497  0.4607
  616MOL0     C83074   7.247   4.808   2.427 -0.1040  0.5597  0.1978
  616MOL0     N83075   6.443   4.598   2.468  0.2259  0.5100 -0.1729
  616MOL0     N83076   6.345   4.625   2.544  0.1938  0.1615  0.1453
  616MOL0     C83077   5.404   4.150   2.986 -0.3871 -0.4497  0.1614
  616MOL0     C83078   5.299   4.242   2.998  1.1355 -0.0968  0.0425
  616MOL0     C83079   4.980   4.515   2.749  0.3578  0.1789  0.0234
  616MOL0     C83080   4.868   4.461   2.819 -0.6630 -1.0089 -0.5080
  616MOL0     C83081   4.740   4.502   2.785  0.1040  0.8447 -0.0453
  616MOL0     C83082   4.708   4.600   2.686 -0.4538  0.4444  0.0160
  616MOL0     O83083   4.587   4.656   2.642 -0.6375  0.9788  0.7382
  616MOL0     C83084   4.467   4.628   2.720 -0.4016 -0.6370  0.3989
  616MOL0     C83085   4.343   4.701   2.658 -0.0920 -0.2422 -0.3654
  616MOL0     C83086   4.296   4.648   2.521  0.5463  0.3074  0.7263
  616MOL0     C83087   4.159   4.712   2.499  0.5947 -0.0058 -0.7946
  616MOL0     C83088   4.156   4.845   2.449  0.0819  0.0305  0.0130
  616MOL0     C83089   4.145   4.961   2.405 -0.1203  0.6155  0.4394
  616MOL0     C83090   4.819   4.653   2.626  0.0221 -0.1217 -0.7793
  616MOL0     C83091   4.955   4.614   2.644  0.3570  0.3069 -1.0352
  616MOL0     C83092   5.067   4.673   2.569 -0.5358 -0.2163 -0.3812
  616MOL0     H83093   5.218   4.239   2.670  1.6921  2.9160  0.3603
  616MOL0     H83094   5.379   4.059   2.662  0.1798 -0.9570  1.7066
  616MOL0     H83095   5.656   4.044   3.005 -1.0534 -0.6205 -0.4854
  616MOL0     H83096   5.707   3.903   2.907 -2.2632 -2.0815  3.3480
  616MOL0     H83097   5.669   4.187   2.795  1.1126  0.8787  1.6051
  616MOL0     H83098   5.726   4.032   2.716 -1.0399 -0.1877  0.5445
  616MOL0     H83099   5.933   4.026   2.850 -0.0282 -0.0592 -0.2104
  616MOL0     H83100   5.857   4.145   2.959 -4.0870  1.6205 -2.1688
  616MOL0     H83101   5.957   4.193   2.675 -2.0122 -0.6706 -0.8980
  616MOL0     H83102   5.856   4.317   2.761 -0.3682 -0.7827  0.1308
  616MOL0     H83103   6.036   4.326   2.933  3.1323  0.8046 -0.8776
  616MOL0     H83104   6.132   4.220   2.813 -1.2366 -1.3772 -0.8325
  616MOL0     H83105   6.132   4.376   2.654 -0.8233 -1.2996 -0.1873
  616MOL0     H83106   6.028   4.492   2.753 -0.7629  0.0753  0.5986
  616MOL0     H83107   6.308   4.402   2.835 -0.5659 -0.8989 -1.2555
  616MOL0     H83108   6.175   4.489   2.921 -1.6359 -1.3830 -0.6535
  616MOL0     H83109   6.216   4.685   2.774  1.1532  1.8387  0.4849
  616MOL0     H83110   6.352   4.639   2.875  2.2152 -1.4456 -0.2690
  616MOL0     H83111   6.553   4.470   2.752  3.0216  0.2502 -2.2009
  616MOL0     H83112   6.696   4.394   2.520  0.1773  0.0966 -1.8331
  616MOL0     H83113   6.671   4.510   2.391  0.9803 -1.4735 -0.2379
  616MOL0     H83114   6.805   4.672   2.526 -0.7075 -0.2673 -1.3102
  616MOL0     H83115   6.802   4.569   2.663 -2.2884 -0.4398  0.4102
  616MOL0     H83116   6.915   4.479   2.398 -2.5171  1.4390 -0.2410
  616MOL0     H83117   6.900   4.373   2.533 -1.6746  0.1105 -2.2329
  616MOL0     H83118   7.132   4.440   2.528 -0.3628 -0.0917 -0.1927
  616MOL0     H83119   7.068   4.518   2.668  3.8658 -0.5915  0.0812
  616MOL0     H83120   7.305   4.583   2.670 -1.4026 -2.2912 -3.3560
  616MOL0     H83121   7.495   4.702   2.695 -0.7711 -1.6825 -0.1927
  616MOL0     H83122   7.949   4.904   2.613 -0.8745 -0.1836 -2.2193
  616MOL0     H83123   8.103   5.081   2.700  0.4441 -1.8413  1.5171
  616MOL0     H83124   7.980   5.504   2.869 -1.0350  0.6086  0.1596
  616MOL0     H83125   7.920   5.365   2.953 -0.6579 -0.4053 -2.6919
  616MOL0     H83126   8.068   5.440   3.085  1.3730 -1.9740  0.8681
  616MOL0     H83127   8.186   5.334   3.014  1.7025 -0.1034  0.3974
  616MOL0     H83128   8.151   5.633   2.932  1.2266  0.9763 -0.4254
  616MOL0     H83129   8.264   5.580   3.059  0.1689  0.0697 -0.7516
  616MOL0     H83130   8.254   5.484   2.776 -0.3767  0.1942  1.2079
  616MOL0     H83131   8.369   5.424   2.901  2.0016  0.8054  2.1088
  616MOL0     H83132   8.453   5.672   2.942 -1.8650  0.8901 -0.1458
  616MOL0     H83133   8.386   5.704   2.797 -2.5871 -0.0282  0.5115
  616MOL0     H83134   8.639   5.548   2.856  1.4938 -0.4759 -1.5392
  616MOL0     H83135   8.538   5.453   2.746 -2.9606  1.4252 -1.7711
  616MOL0     H83136   8.664   5.716   2.746 -1.1727 -0.6880  2.3124
  616MOL0     H83137   8.537   5.702   2.640 -1.6373 -0.5965  3.4611
  616MOL0     H83138   8.650   5.512   2.507  0.2492  1.0923 -2.6097
  616MOL0     H83139   8.718   5.671   2.501 -0.4965 -0.1987 -0.0478
  616MOL0     H83140   7.758   5.340   2.785 -1.0992  0.9682  0.5824
  616MOL0     H83141   7.623   5.146   2.754  0.2078  2.2960  0.4097
  616MOL0     H83142   7.390   4.951   2.358 -2.3951 -0.2853 -0.1772
  616MOL0     H83143   7.176   4.832   2.349  1.4784  2.2218 -0.8146
  616MOL0     H83144   5.470   4.117   3.065  1.2340 -0.9725 -1.3235
  616MOL0     H83145   5.278   4.287   3.095  0.2270 -0.4511  0.0162
  616MOL0     H83146   4.884   4.393   2.901  0.9117  1.3379  1.2628
  616MOL0     H83147   4.663   4.448   2.838  3.2150 -0.8918  3.1146
  616MOL0     H83148   4.485   4.667   2.821  0.0954  1.5294 -0.4734
  616MOL0     H83149   4.447   4.521   2.731 -1.2059 -0.4799  0.5835
  616MOL0     H83150   4.380   4.803   2.643  1.9514 -0.8193  0.4231
  616MOL0     H83151   4.258   4.702   2.727 -0.3195  0.3514 -0.6522
  616MOL0     H83152   4.291   4.538   2.522 -2.8004  0.3411 -0.3744
  616MOL0     H83153   4.365   4.681   2.443 -0.3768  3.1299  0.9898
  616MOL0     H83154   4.119   4.650   2.418  1.1296  1.0236 -1.8848
  616MOL0     H83155   4.094   4.699   2.586 -1.7799  2.4790 -2.0440
  616MOL0     H83156   4.152   5.066   2.384  0.0146  0.7589  1.1944
  616MOL0     H83157   4.796   4.732   2.554  0.5169  0.2043 -0.5845
  616MOL0     H83158   5.119   4.745   2.634 -1.7751 -0.7464  1.2835
  616MOL0     H83159   5.135   4.600   2.523 -3.4681 -2.2111 -1.9025
  616MOL0     H83160   5.032   4.741   2.491  0.0124 -1.1143 -1.4356
  617MOL0     O83161   5.137   5.609   7.603 -0.6156 -0.5385 -0.2734
  617MOL0     C83162   5.157   5.495   7.566  0.3341  0.8395 -0.0986
  617MOL0     O83163   5.272   5.433   7.570 -0.0625 -0.3849 -0.1029
  617MOL0     C83164   5.372   5.485   7.647 -0.0918  0.3975 -0.4067
  617MOL0     C83165   5.394   5.437   7.775 -0.8459 -0.5871 -0.5902
  617MOL0     C83166   5.506   5.486   7.850 -1.1323  0.8262 -0.4455
  617MOL0     C83167   5.595   5.579   7.800 -0.2190 -0.0959  0.1152
  617MOL0     O83168   5.700   5.638   7.874 -0.0216 -0.6436  0.6641
  617MOL0     C83169   5.817   5.661   7.796  0.4242  0.8359  0.4232
  617MOL0     C83170   5.935   5.667   7.896 -0.0409 -0.6609  0.0568
  617MOL0     C83171   6.066   5.710   7.813 -0.1334 -0.5909 -0.5097
  617MOL0     C83172   6.196   5.718   7.895  0.2602  0.5257 -1.1922
  617MOL0     C83173   6.305   5.745   7.793  0.4442  0.6994 -0.6471
  617MOL0     C83174   6.447   5.755   7.844  0.5459  0.5874 -0.0260
  617MOL0     C83175   6.546   5.712   7.733  0.7198 -0.7226  0.8084
  617MOL0     C83176   6.545   5.810   7.617  0.0316  0.4109 -0.2914
  617MOL0     N83177   6.662   5.778   7.534 -0.1052 -0.5594  0.3764
  617MOL0     C83178   6.666   5.686   7.435 -0.5582  0.2319  0.0333
  617MOL0     C83179   6.789   5.688   7.386 -0.9474 -0.1850  0.0427
  617MOL0     C83180   6.856   5.609   7.280 -0.1099 -0.5082  1.3107
  617MOL0     C83181   6.758   5.520   7.200  0.3117 -0.1748 -0.2455
  617MOL0     C83182   6.700   5.575   7.071  0.0737  0.7717 -0.3421
  617MOL0     C83183   6.594   5.682   7.078 -0.8637  0.8675  0.2167
  617MOL0     O83184   6.479   5.638   7.143 -0.0783  0.0820 -0.2044
  617MOL0     C83185   6.380   5.572   7.067  0.5986  0.4247  0.0309
  617MOL0     C83186   6.258   5.540   7.136 -1.0383  0.6341 -0.5112
  617MOL0     C83187   6.146   5.472   7.071  0.0401 -0.3596 -0.1214
  617MOL0     C83188   6.145   5.444   6.932 -0.6110 -0.2642 -0.0416
  617MOL0     C83189   6.020   5.398   6.854 -0.0268 -0.0810 -0.7739
  617MOL0     O83190   5.948   5.312   6.922 -0.6732 -0.4633  0.0885
  617MOL0     C83191   5.824   5.267   6.867  0.2210  0.5791  0.4310
  617MOL0     C83192   5.717   5.351   6.822  0.6574  0.0738  0.5628
  617MOL0     C83193   5.607   5.298   6.755 -0.3302  0.8655 -0.2034
  617MOL0     C83194   5.612   5.162   6.717  0.6820  0.4072 -0.8155
  617MOL0     O83195   5.505   5.125   6.647 -0.9075 -0.3441 -0.8256
  617MOL0     C83196   5.427   5.004   6.668 -0.6016 -0.1289  0.2562
  617MOL0     C83197   5.314   5.036   6.770 -0.1260 -0.6299 -0.2972
  617MOL0     C83198   5.180   4.969   6.758 -0.1915  0.0892 -0.1006
  617MOL0     C83199   5.172   4.821   6.770  0.2915 -0.0470  1.2982
  617MOL0     C83200   5.038   4.764   6.756  0.0899 -0.2257  0.0435
  617MOL0     C83201   4.941   4.780   6.871 -0.2094 -0.3066 -0.7946
  617MOL0     C83202   4.814   4.708   6.848 -0.0924  1.0770 -0.3958
  617MOL0     C83203   4.833   4.558   6.857 -0.2125 -0.2741 -0.3370
  617MOL0    Cl83204   4.676   4.491   6.901  0.2448 -0.2251 -0.6262
  617MOL0     C83205   5.723   5.087   6.750 -0.4117  1.1116  0.4284
  617MOL0     C83206   5.829   5.139   6.824  0.7125 -0.1798 -0.1746
  617MOL0     O83207   5.986   5.462   6.762  0.5306  0.6803 -0.0261
  617MOL0     C83208   6.265   5.476   6.856  0.1829 -0.6716 -0.4263
  617MOL0     C83209   6.379   5.535   6.927 -0.3820  0.2077  0.3289
  617MOL0     N83210   6.854   5.795   7.449 -0.4270 -0.3712 -0.3411
  617MOL0     N83211   6.783   5.836   7.545 -0.3157  0.4371 -0.4527
  617MOL0     C83212   5.563   5.628   7.665 -0.0835 -0.0533 -1.7763
  617MOL0     C83213   5.458   5.577   7.592 -0.6156  0.0675  0.5307
  617MOL0     C83214   5.036   5.408   7.522  0.0429  0.3304 -0.0768
  617MOL0     C83215   5.075   5.281   7.460 -0.2978 -0.1638  0.2308
  617MOL0     C83216   4.973   5.199   7.419 -0.0106  0.2694 -0.1611
  617MOL0     C83217   4.838   5.240   7.428 -0.4785  0.2649 -0.0297
  617MOL0     O83218   4.732   5.178   7.367  0.2314 -0.4071 -0.4439
  617MOL0     C83219   4.728   5.030   7.363 -0.3307 -0.4059 -0.2342
  617MOL0     C83220   4.587   4.996   7.331 -0.6458  0.1895  0.7495
  617MOL0     C83221   4.567   4.855   7.291  0.6949  0.1006  0.3978
  617MOL0     C83222   4.452   4.836   7.185  0.9570  0.6193  0.2055
  617MOL0     C83223   4.422   4.696   7.184  0.0241  0.1801 -0.3282
  617MOL0     C83224   4.395   4.582   7.170  0.3913  0.3612 -1.5857
  617MOL0     C83225   4.800   5.353   7.497 -0.2814 -0.4101 -0.5370
  617MOL0     C83226   4.901   5.439   7.553  0.0891  0.4109 -0.2862
  617MOL0     C83227   4.859   5.551   7.648  0.4205 -0.1331 -0.6405
  617MOL0     H83228   5.324   5.370   7.825 -2.2029  0.9706 -0.3244
  617MOL0     H83229   5.521   5.450   7.951  1.1005  2.8769  0.0522
  617MOL0     H83230   5.839   5.578   7.728  1.0262 -1.1185  2.8612
  617MOL0     H83231   5.810   5.760   7.751  0.5798  1.6886  2.1783
  617MOL0     H83232   5.960   5.568   7.936  2.2079 -0.1600  0.0223
  617MOL0     H83233   5.902   5.740   7.970 -1.3087  0.7772 -1.8204
  617MOL0     H83234   6.049   5.808   7.768  0.4574 -0.9932 -1.6556
  617MOL0     H83235   6.087   5.636   7.734  0.2981 -0.4444 -0.5369
  617MOL0     H83236   6.177   5.794   7.972 -0.4947  0.4473 -1.2981
  617MOL0     H83237   6.199   5.623   7.950  1.2689  0.3264 -1.5738
  617MOL0     H83238   6.299   5.654   7.733  1.5242  0.1559  0.0487
  617MOL0     H83239   6.283   5.829   7.726 -1.4239  1.5890  0.9925
  617MOL0     H83240   6.458   5.858   7.880 -1.0886  0.2303  1.6135
  617MOL0     H83241   6.453   5.684   7.927  1.0062  2.6696  1.8283
  617MOL0     H83242   6.530   5.611   7.694  2.7101 -0.5260 -0.6362
  617MOL0     H83243   6.647   5.715   7.774 -0.4482  3.0692  4.0053
  617MOL0     H83244   6.449   5.795   7.566  0.0348 -1.3210  0.1382
  617MOL0     H83245   6.560   5.910   7.660  1.3837  0.7393 -1.4676
  617MOL0     H83246   6.585   5.620   7.406  0.2236 -0.5518 -0.3971
  617MOL0     H83247   6.905   5.674   7.206 -0.4907  1.5825  2.8209
  617MOL0     H83248   6.943   5.556   7.320  0.5916 -1.0125 -0.7585
  617MOL0     H83249   6.823   5.434   7.182  3.4208  1.0581  3.6593
  617MOL0     H83250   6.679   5.481   7.266  0.0102 -0.7910 -0.9531
  617MOL0     H83251   6.665   5.486   7.017  0.6161 -0.1016  0.7130
  617MOL0     H83252   6.778   5.594   6.997  3.0116 -2.9714  1.4696
  617MOL0     H83253   6.562   5.727   6.984 -2.8044  1.6686  1.1813
  617MOL0     H83254   6.646   5.765   7.126  4.9917 -1.5034 -1.2224
  617MOL0     H83255   6.252   5.575   7.238  1.1779 -0.4331  0.0408
  617MOL0     H83256   6.055   5.450   7.126 -0.5077 -0.6628 -1.1318
  617MOL0     H83257   5.748   5.455   6.825 -0.4528  0.4693 -0.7040
  617MOL0     H83258   5.523   5.353   6.716  0.0394  1.7200  0.1837
  617MOL0     H83259   5.389   4.976   6.570 -2.3204  1.7065  0.3410
  617MOL0     H83260   5.496   4.925   6.700 -0.4135 -0.9614 -2.0347
  617MOL0     H83261   5.365   5.017   6.865  1.1252  2.6247 -0.1915
  617MOL0     H83262   5.286   5.142   6.772 -1.7661 -1.0325 -0.1673
  617MOL0     H83263   5.112   5.010   6.833 -0.6970  2.1039 -1.5627
  617MOL0     H83264   5.141   5.012   6.665 -1.7177 -0.8231  0.1025
  617MOL0     H83265   5.213   4.781   6.864 -3.1419 -1.1175  2.4878
  617MOL0     H83266   5.232   4.779   6.689 -1.5067  0.6709 -0.4888
  617MOL0     H83267   5.065   4.658   6.748  3.8268  0.5369  0.5378
  617MOL0     H83268   5.001   4.811   6.664  0.5525  0.6631  0.2912
  617MOL0     H83269   4.982   4.755   6.969 -4.1060 -4.8992  0.0430
  617MOL0     H83270   4.913   4.886   6.876  1.7032  0.2270 -0.4840
  617MOL0     H83271   4.772   4.743   6.753  0.3057 -0.7331 -1.2880
  617MOL0     H83272   4.744   4.728   6.930  0.6452 -1.5380  0.9693
  617MOL0     H83273   4.864   4.523   6.759 -0.2801 -1.5060  0.0679
  617MOL0     H83274   4.910   4.543   6.934  0.2299  0.1884 -0.6845
  617MOL0     H83275   5.720   4.984   6.714  2.1248  1.9125 -2.5178
  617MOL0     H83276   5.917   5.078   6.842  0.1564 -1.2277 -0.8885
  617MOL0     H83277   6.280   5.456   6.750 -0.1749  2.7981 -1.2350
  617MOL0     H83278   6.469   5.552   6.869  1.5019 -2.2421  2.2905
  617MOL0     H83279   5.621   5.705   7.614 -3.0634  1.8357 -2.5832
  617MOL0     H83280   5.444   5.604   7.488  0.0877  0.0999  0.4388
  617MOL0     H83281   5.179   5.249   7.453  0.9422  2.0514  4.6297
  617MOL0     H83282   4.992   5.100   7.380 -0.9798  0.1473 -0.3611
  617MOL0     H83283   4.765   4.984   7.456  0.4760  1.3187  0.3341
  617MOL0     H83284   4.797   4.991   7.288 -1.1009 -3.9053  0.6754
  617MOL0     H83285   4.565   5.063   7.247 -1.1993 -0.1075  0.6586
  617MOL0     H83286   4.518   5.024   7.411 -0.3819 -0.4865  1.2279
  617MOL0     H83287   4.530   4.803   7.380  1.9860  2.3057  2.3333
  617MOL0     H83288   4.660   4.818   7.245 -0.3037  0.6706 -2.2772
  617MOL0     H83289   4.364   4.889   7.223  1.0388  0.9136 -0.0057
  617MOL0     H83290   4.476   4.879   7.087  0.0938  1.1233  0.2040
  617MOL0     H83291   4.381   4.478   7.152 -0.6919  0.2992 -0.5161
  617MOL0     H83292   4.700   5.395   7.499  0.2537  0.8961 -0.5217
  617MOL0     H83293   4.927   5.559   7.734  2.4038  3.3537 -2.2782
  617MOL0     H83294   4.869   5.648   7.597 -0.2463 -0.0362 -0.5891
  617MOL0     H83295   4.755   5.557   7.681  0.0600  1.4914 -1.9085
  618MOL0     O83296  10.869   3.965   8.000  0.3297  0.1165  0.2820
  618MOL0     C83297  10.794   3.911   8.078 -0.9392  0.1346 -0.1526
  618MOL0     O83298  10.837   3.857   8.201  0.4599 -0.3644  0.2812
  618MOL0     C83299  10.975   3.856   8.233  0.9374 -0.1648  0.4814
  618MOL0     C83300  11.034   3.727   8.258  0.4046  0.1321  0.5975
  618MOL0     C83301  11.170   3.717   8.280 -0.5150 -0.4800  0.3571
  618MOL0     C83302  11.247   3.842   8.277  0.6335 -0.0039 -0.7208
  618MOL0     O83303  11.381   3.848   8.287 -0.5385 -0.3198 -0.6453
  618MOL0     C83304  11.465   3.738   8.281 -0.1614 -0.8888  0.1760
  618MOL0     C83305  11.614   3.778   8.286 -0.9041  0.2430 -0.2740
  618MOL0     C83306  11.662   3.757   8.431  0.7015 -0.3797 -0.8944
  618MOL0     C83307  11.810   3.781   8.451  0.2507  0.1925  0.2712
  618MOL0     C83308  11.845   3.754   8.593 -0.1445 -0.3931 -0.6012
  618MOL0     C83309  11.775   3.862   8.692 -0.4914 -0.1640  0.4175
  618MOL0     C83310  11.845   3.856   8.829  0.2822 -0.4010  0.0085
  618MOL0     C83311  11.971   3.943   8.844 -0.3197 -0.0052  0.5514
  618MOL0     N83312  12.044   3.915   8.965 -0.0745  0.1975 -0.1007
  618MOL0     C83313  12.061   3.794   9.026  0.5775  0.4060 -0.3960
  618MOL0     C83314  12.139   3.822   9.133  0.0413 -0.5148  0.9622
  618MOL0     C83315  12.183   3.715   9.233 -0.2253 -0.3698 -0.4169
  618MOL0     C83316  12.323   3.740   9.275 -0.2388  0.7444 -0.8903
  618MOL0     C83317  12.368   3.638   9.388 -0.2567 -0.0236 -1.0291
  618MOL0     C83318  12.498   3.680   9.438 -0.3572 -0.1948  0.1193
  618MOL0     O83319  12.547   3.584   9.533  1.2291  0.1141  0.0873
  618MOL0     C83320  12.677   3.575   9.566  0.5336  0.7461  0.1774
  618MOL0     C83321  12.760   3.688   9.585  0.0404  0.4935 -0.2897
  618MOL0     C83322  12.893   3.662   9.638 -0.0008 -0.7327 -0.6736
  618MOL0     C83323  12.950   3.528   9.647  0.1316  0.7649  0.0802
  618MOL0     C83324  13.098   3.501   9.684  0.3868  0.3836  0.0414
  618MOL0     O83325  13.144   3.371   9.670 -0.3755  0.2113 -0.3750
  618MOL0     C83326  13.272   3.338   9.683  0.2704 -0.3045  0.5376
  618MOL0     C83327  13.382   3.423   9.704 -0.4463  0.6256 -0.8218
  618MOL0     C83328  13.506   3.368   9.718 -0.3051  0.0472 -0.0506
  618MOL0     C83329  13.529   3.232   9.707  0.5305  0.3386 -0.2632
  618MOL0     O83330  13.657   3.190   9.746  0.6307 -0.3154 -0.8141
  618MOL0     C83331  13.681   3.056   9.734  0.2235  0.5729 -0.6680
  618MOL0     C83332  13.833   3.029   9.754  0.9221  0.7461  0.1468
  618MOL0     C83333  13.924   3.103   9.653  0.1094 -0.1434 -0.1020
  618MOL0     C83334  14.065   3.033   9.657 -0.3012  0.0438 -0.1122
  618MOL0     C83335  14.169   3.121   9.724 -0.1931 -0.8823 -0.1494
  618MOL0     C83336  14.317   3.063   9.725 -0.5518 -0.9649 -0.0343
  618MOL0     C83337  14.338   2.961   9.843  0.2659 -0.9961  0.0677
  618MOL0     C83338  14.481   2.934   9.866 -0.1668 -1.3855 -0.0099
  618MOL0    Cl83339  14.578   2.935   9.713  0.1510 -0.1703 -0.1329
  618MOL0     C83340  13.425   3.147   9.669 -0.3276  0.5546 -0.2669
  618MOL0     C83341  13.300   3.199   9.670 -0.1595  0.0692  0.7082
  618MOL0     O83342  13.158   3.601   9.716  0.1479  0.4200  0.3782
  618MOL0     C83343  12.861   3.422   9.614  0.9670 -0.5200  0.8120
  618MOL0     C83344  12.724   3.448   9.575  0.8709  0.5019  0.0652
  618MOL0     N83345  12.167   3.955   9.144 -0.6268 -0.0037  0.5413
  618MOL0     N83346  12.106   4.012   9.043 -0.4808  0.1698  0.1132
  618MOL0     C83347  11.185   3.963   8.264  0.9760 -0.1095  0.0012
  618MOL0     C83348  11.043   3.975   8.237 -0.3277 -0.3086 -0.1482
  618MOL0     C83349  10.648   3.901   8.040 -0.8671 -0.4419 -0.7048
  618MOL0     C83350  10.561   3.930   8.150  1.2200  0.0715 -0.0494
  618MOL0     C83351  10.422   3.941   8.123 -0.1788 -0.6815  0.6162
  618MOL0     C83352  10.370   3.940   7.998  0.2101  0.5057  0.0589
  618MOL0     O83353  10.241   3.979   7.987  0.0772  0.1406  0.5047
  618MOL0     C83354  10.186   4.043   7.871  0.7549 -0.0399 -0.1737
  618MOL0     C83355  10.029   4.031   7.872 -0.3090  0.4823  0.0448
  618MOL0     C83356   9.952   4.106   7.761 -1.0455 -0.0381  0.4975
  618MOL0     C83357   9.798   4.086   7.763 -0.4875 -0.1829 -0.1738
  618MOL0     C83358   9.730   4.175   7.858 -0.5577  0.9618  0.5084
  618MOL0     C83359   9.675   4.250   7.930  0.7029  0.4598  0.3729
  618MOL0     C83360  10.451   3.893   7.898 -0.0669 -0.0410  0.1460
  618MOL0     C83361  10.588   3.867   7.922 -0.3819  0.0070  0.1774
  618MOL0     C83362  10.672   3.795   7.819 -0.0116 -0.1325  0.3826
  618MOL0     H83363  10.974   3.637   8.263  1.5471 -0.7002 -0.1751
  618MOL0     H83364  11.221   3.625   8.306  5.2496  2.1943  0.1390
  618MOL0     H83365  11.442   3.669   8.363  0.1686 -0.9542  0.2147
  618MOL0     H83366  11.432   3.681   8.194 -2.4288  2.5151 -1.4173
  618MOL0     H83367  11.633   3.875   8.239  0.6840 -0.1525 -0.4976
  618MOL0     H83368  11.672   3.703   8.232  0.2924  1.9038 -1.3934
  618MOL0     H83369  11.627   3.667   8.484  1.5845 -0.5316 -0.5599
  618MOL0     H83370  11.607   3.836   8.485  0.8021 -1.4731  0.9059
  618MOL0     H83371  11.870   3.723   8.381 -0.6877 -0.0823 -0.3253
  618MOL0     H83372  11.826   3.887   8.429 -0.1371  0.4053  0.9662
  618MOL0     H83373  11.810   3.658   8.633 -1.7282  0.1737 -0.5447
  618MOL0     H83374  11.953   3.755   8.607 -0.2342  0.2956  0.0662
  618MOL0     H83375  11.790   3.967   8.666  3.3196 -0.0637  2.2020
  618MOL0     H83376  11.667   3.846   8.699 -0.7158  1.2088  0.2669
  618MOL0     H83377  11.857   3.750   8.856 -1.0959 -1.0087 -1.5399
  618MOL0     H83378  11.767   3.891   8.898  1.2012  1.6089  0.0724
  618MOL0     H83379  12.036   3.939   8.756 -2.0859 -1.6680 -0.7485
  618MOL0     H83380  11.946   4.049   8.850 -0.6588 -0.0995  0.8401
  618MOL0     H83381  12.013   3.701   8.998  0.2639  0.1880  0.8056
  618MOL0     H83382  12.125   3.718   9.325 -1.4217  0.6933 -1.1749
  618MOL0     H83383  12.163   3.615   9.193 -1.1326  0.6694 -2.7760
  618MOL0     H83384  12.396   3.733   9.194  0.6717  1.0898 -0.1187
  618MOL0     H83385  12.328   3.838   9.322 -1.9461  0.5836 -0.3105
  618MOL0     H83386  12.370   3.533   9.359  1.5355 -0.6672  1.1113
  618MOL0     H83387  12.303   3.652   9.475  0.2004 -1.2989 -0.4659
  618MOL0     H83388  12.501   3.780   9.481 -1.2491  0.0600 -0.3687
  618MOL0     H83389  12.562   3.673   9.350 -1.9753  0.3496 -1.1609
  618MOL0     H83390  12.712   3.784   9.574 -0.4984  0.3549  0.6821
  618MOL0     H83391  12.956   3.746   9.665  1.4046 -2.0810  0.4319
  618MOL0     H83392  13.377   3.528   9.730 -1.0326 -0.1315  2.6369
  618MOL0     H83393  13.594   3.422   9.752 -0.8527  0.4086  0.8246
  618MOL0     H83394  13.615   3.012   9.810 -0.9275  2.1248 -0.7275
  618MOL0     H83395  13.641   3.016   9.641 -1.1734 -0.6170  0.3823
  618MOL0     H83396  13.849   3.051   9.860  0.5386  1.5181  0.0522
  618MOL0     H83397  13.840   2.920   9.745 -0.6325  0.5191  1.4068
  618MOL0     H83398  13.877   3.104   9.554 -0.3517  2.5329  0.0575
  618MOL0     H83399  13.944   3.205   9.688  0.0841 -0.3331  0.4662
  618MOL0     H83400  14.092   3.033   9.551  1.0325  0.5728  0.2107
  618MOL0     H83401  14.057   2.932   9.698  0.5893 -0.6366 -1.5214
  618MOL0     H83402  14.124   3.141   9.821 -0.9866 -0.2317 -0.6317
  618MOL0     H83403  14.165   3.216   9.670  0.9038 -0.5774  0.2904
  618MOL0     H83404  14.345   3.020   9.628  2.6058  2.9868 -1.1499
  618MOL0     H83405  14.377   3.151   9.749  1.0093 -1.9435 -0.1287
  618MOL0     H83406  14.281   2.879   9.798 -2.2859  1.4564 -1.4801
  618MOL0     H83407  14.282   3.000   9.929 -1.3762 -1.5314 -0.7090
  618MOL0     H83408  14.526   3.014   9.926 -0.7386 -0.8050 -0.3393
  618MOL0     H83409  14.492   2.845   9.929  0.7642 -1.3175 -0.0688
  618MOL0     H83410  13.416   3.039   9.667 -0.8919  0.6032 -0.4016
  618MOL0     H83411  13.223   3.129   9.641  0.9053 -0.9649  0.2894
  618MOL0     H83412  12.909   3.325   9.623  2.7133  0.0396 -1.5152
  618MOL0     H83413  12.668   3.358   9.552  2.0668 -0.0137 -0.9894
  618MOL0     H83414  11.240   4.057   8.258  1.1106 -0.2083 -0.2837
  618MOL0     H83415  11.006   4.074   8.210 -1.7031 -0.1760  1.9916
  618MOL0     H83416  10.604   3.953   8.247 -0.2161  1.3283  0.3226
  618MOL0     H83417  10.336   3.951   8.188 -1.0969 -0.2121 -0.6313
  618MOL0     H83418  10.227   4.010   7.776 -0.7949  0.5254 -1.0912
  618MOL0     H83419  10.199   4.152   7.877  3.2520 -0.2039 -1.6173
  618MOL0     H83420  10.007   4.057   7.976  1.7644 -1.7502  1.1550
  618MOL0     H83421  10.005   3.925   7.855 -0.4890  0.5741 -0.2990
  618MOL0     H83422   9.986   4.074   7.662 -0.2109 -1.3003  1.1626
  618MOL0     H83423   9.972   4.213   7.756 -0.6831 -0.1487 -0.5105
  618MOL0     H83424   9.770   4.099   7.658  3.6331  1.7285 -1.2750
  618MOL0     H83425   9.782   3.981   7.790  0.4207 -0.5040 -0.8081
  618MOL0     H83426   9.619   4.313   7.997 -1.2677 -1.0315  0.2267
  618MOL0     H83427  10.418   3.861   7.799  1.3066 -0.0771 -0.3139
  618MOL0     H83428  10.763   3.758   7.867  0.7951 -0.1758 -1.1558
  618MOL0     H83429  10.625   3.710   7.768  0.6755  1.0747 -2.3855
  618MOL0     H83430  10.696   3.871   7.745 -0.7088  0.0633  0.3489
  619MOL0     O83431   2.354   5.987   7.395  0.0059 -0.4753 -0.1466
  619MOL0     C83432   2.435   6.082   7.421 -0.2684  0.1602 -0.2229
  619MOL0     O83433   2.572   6.065   7.453 -0.0163  0.2080 -0.1298
  619MOL0     C83434   2.622   5.936   7.461  0.5005 -0.2376 -0.7882
  619MOL0     C83435   2.564   5.834   7.537  0.3583  0.4291 -0.0139
  619MOL0     C83436   2.627   5.712   7.558  0.1297  0.2990 -0.7301
  619MOL0     C83437   2.750   5.691   7.490  0.0337  0.6335 -0.6898
  619MOL0     O83438   2.823   5.571   7.486  0.8720  0.2656  0.0477
  619MOL0     C83439   2.807   5.474   7.593 -0.8838  0.6663  0.9993
  619MOL0     C83440   2.939   5.400   7.592  0.2046 -0.3319 -0.3823
  619MOL0     C83441   2.943   5.315   7.721  0.0319 -0.0113 -0.3107
  619MOL0     C83442   3.069   5.221   7.699 -0.1453  0.2463  0.3433
  619MOL0     C83443   3.078   5.098   7.800 -1.2309 -0.3426  1.0521
  619MOL0     C83444   2.996   4.982   7.740  0.5534  0.5224  0.4195
  619MOL0     C83445   3.043   4.846   7.803 -0.0565 -0.4310  0.4979
  619MOL0     C83446   3.017   4.849   7.959  0.4278 -0.2245 -0.1101
  619MOL0     N83447   3.044   4.720   8.012 -0.0650  0.2755  0.7732
  619MOL0     C83448   3.170   4.653   8.021 -0.0464 -1.2219 -0.0290
  619MOL0     C83449   3.138   4.529   8.052  1.0507  0.1810 -0.2470
  619MOL0     C83450   3.220   4.404   8.062 -0.1819 -0.2417  0.9147
  619MOL0     C83451   3.252   4.350   7.923 -0.5371  0.5511  0.8272
  619MOL0     C83452   3.351   4.229   7.943  0.3458  0.4613 -0.0017
  619MOL0     C83453   3.379   4.137   7.823 -0.7601 -0.3951  0.6347
  619MOL0     O83454   3.450   4.203   7.715  0.8389  0.3068 -0.2119
  619MOL0     C83455   3.588   4.205   7.715  0.6566 -0.1926  0.1836
  619MOL0     C83456   3.671   4.099   7.756  0.0481  0.2803  0.1351
  619MOL0     C83457   3.813   4.117   7.757 -0.0507  0.4335  0.0206
  619MOL0     C83458   3.875   4.235   7.717  1.0213 -0.0660  0.0623
  619MOL0     C83459   4.026   4.250   7.704  0.5918 -0.0092 -0.6714
  619MOL0     O83460   4.067   4.371   7.651 -0.1842 -0.0527  0.4279
  619MOL0     C83461   4.199   4.387   7.643  0.5216  0.1947 -0.4302
  619MOL0     C83462   4.277   4.401   7.761  0.0265 -0.1939  0.5154
  619MOL0     C83463   4.413   4.414   7.753  0.3885  0.8282 -0.5178
  619MOL0     C83464   4.474   4.432   7.629 -0.0114 -0.2853 -0.3073
  619MOL0     O83465   4.607   4.452   7.631 -0.3510 -0.2324 -0.4014
  619MOL0     C83466   4.677   4.478   7.504  0.5209 -0.1181  0.5890
  619MOL0     C83467   4.827   4.465   7.530 -0.4297  0.2623  0.2862
  619MOL0     C83468   4.910   4.482   7.392 -0.7646 -1.3116  0.3305
  619MOL0     C83469   5.056   4.527   7.414  0.3334 -0.5139  0.1402
  619MOL0     C83470   5.117   4.584   7.284 -0.1156  0.0651 -0.0170
  619MOL0     C83471   5.122   4.483   7.170  0.4950  0.3650  0.4488
  619MOL0     C83472   5.221   4.525   7.064  0.6452  0.3087  0.0293
  619MOL0     C83473   5.246   4.418   6.952  0.2589 -0.0313  0.5169
  619MOL0    Cl83474   5.316   4.266   7.012 -0.2550 -0.2598  0.3639
  619MOL0     C83475   4.398   4.418   7.511  0.1819 -0.1119  1.1750
  619MOL0     C83476   4.264   4.394   7.520  0.1288  0.4222  0.0354
  619MOL0     O83477   4.105   4.154   7.730  0.2638  0.2844 -0.4433
  619MOL0     C83478   3.786   4.335   7.668 -0.0462 -0.1696 -0.2800
  619MOL0     C83479   3.645   4.323   7.679 -0.3360  0.7640  0.8237
  619MOL0     N83480   3.003   4.521   8.063 -0.8244 -0.9774  0.4293
  619MOL0     N83481   2.950   4.639   8.047  0.4260  0.3575  0.2508
  619MOL0     C83482   2.810   5.792   7.412  0.2157 -0.3328  0.2563
  619MOL0     C83483   2.746   5.913   7.400 -0.9231  0.3869 -0.1562
  619MOL0     C83484   2.375   6.221   7.426 -0.4869 -0.2999 -0.2944
  619MOL0     C83485   2.239   6.226   7.437 -0.4335 -0.3153 -0.5086
  619MOL0     C83486   2.173   6.346   7.452  0.5556 -0.2741 -0.2732
  619MOL0     C83487   2.231   6.466   7.433  0.0757  0.6802 -0.1646
  619MOL0     O83488   2.163   6.586   7.453  0.6339  0.6430  0.2484
  619MOL0     C83489   2.102   6.594   7.581  0.1944 -0.9997  0.8055
  619MOL0     C83490   2.189   6.556   7.706  0.0368  0.4020 -0.2768
  619MOL0     C83491   2.112   6.597   7.823 -0.1252  0.1761  0.7328
  619MOL0     C83492   2.164   6.513   7.938  0.1041  0.4422  0.5087
  619MOL0     C83493   2.291   6.562   7.999 -0.3246 -0.7541 -0.1979
  619MOL0     C83494   2.395   6.619   8.045  0.0675 -0.6166 -0.2585
  619MOL0     C83495   2.370   6.462   7.414 -0.2488  0.6486  1.3138
  619MOL0     C83496   2.444   6.344   7.414 -0.4560  0.1926  0.6888
  619MOL0     C83497   2.590   6.354   7.369 -0.3271  0.2105 -0.3220
  619MOL0     H83498   2.480   5.832   7.605 -0.3785 -1.8517 -0.9039
  619MOL0     H83499   2.578   5.630   7.609 -3.2206  0.5008 -3.2191
  619MOL0     H83500   2.794   5.518   7.692  1.2475  1.7696  0.8460
  619MOL0     H83501   2.714   5.420   7.573 -0.7147  0.3264  1.1364
  619MOL0     H83502   3.020   5.473   7.591  2.5890 -2.8088 -0.1542
  619MOL0     H83503   2.935   5.340   7.500  0.8201  2.5874 -2.4829
  619MOL0     H83504   2.851   5.257   7.731  1.8195 -2.9351  0.6215
  619MOL0     H83505   2.958   5.364   7.818 -0.0151 -1.6482  0.5691
  619MOL0     H83506   3.066   5.188   7.595 -0.2281 -2.2817  1.0625
  619MOL0     H83507   3.155   5.287   7.709 -1.8736  2.2873  3.1019
  619MOL0     H83508   3.184   5.073   7.803 -1.1904 -0.7269 -1.4728
  619MOL0     H83509   3.048   5.136   7.899 -4.0297  0.7441 -0.1021
  619MOL0     H83510   2.894   4.997   7.776 -0.0755 -0.7764 -0.7637
  619MOL0     H83511   2.989   4.986   7.631 -0.0277 -1.6891  0.3392
  619MOL0     H83512   3.145   4.813   7.783 -0.1674 -0.8530  0.5999
  619MOL0     H83513   2.974   4.775   7.756  0.8723 -0.5624 -0.6845
  619MOL0     H83514   3.080   4.920   8.013 -0.5712  0.8915 -0.3589
  619MOL0     H83515   2.913   4.881   7.976 -0.0815 -2.6104  1.7672
  619MOL0     H83516   3.265   4.696   7.991  1.5507 -1.1364  4.4464
  619MOL0     H83517   3.313   4.430   8.115 -1.3445  0.1408  2.8925
  619MOL0     H83518   3.175   4.327   8.125  1.5822 -2.3757 -0.3061
  619MOL0     H83519   3.158   4.313   7.881 -1.7229  0.8380  3.1028
  619MOL0     H83520   3.296   4.431   7.863 -1.1093  1.2514  1.3272
  619MOL0     H83521   3.324   4.168   8.030  1.8832  0.7247  0.6774
  619MOL0     H83522   3.445   4.277   7.970 -0.2790  1.0098  1.3164
  619MOL0     H83523   3.289   4.096   7.777 -2.3097  0.3285  2.8322
  619MOL0     H83524   3.436   4.046   7.844  0.4438 -0.2473 -1.7330
  619MOL0     H83525   3.625   4.005   7.785  0.3657 -0.2890 -1.1515
  619MOL0     H83526   3.875   4.032   7.785  0.4779 -0.6879 -3.9224
  619MOL0     H83527   4.230   4.384   7.857 -3.7724 -3.0753 -1.5786
  619MOL0     H83528   4.474   4.415   7.843 -0.1357 -1.0945 -0.0953
  619MOL0     H83529   4.642   4.410   7.425 -0.0538  0.0492  0.6952
  619MOL0     H83530   4.655   4.580   7.471 -0.1399  0.6210  3.1020
  619MOL0     H83531   4.867   4.542   7.596  3.9226 -0.2629 -1.4308
  619MOL0     H83532   4.848   4.366   7.570 -0.9066 -0.4294 -1.0864
  619MOL0     H83533   4.917   4.390   7.332  0.9799  1.1129 -3.5731
  619MOL0     H83534   4.854   4.556   7.335 -0.1780 -1.8048 -0.9252
  619MOL0     H83535   5.126   4.453   7.454  1.2697 -0.2023 -0.8597
  619MOL0     H83536   5.052   4.613   7.480 -2.7034  2.7074 -3.7269
  619MOL0     H83537   5.214   4.615   7.324  0.2793 -2.1230  0.8400
  619MOL0     H83538   5.064   4.671   7.244  0.6353  0.7743  0.5190
  619MOL0     H83539   5.130   4.377   7.194 -2.9948 -0.6970 -2.0918
  619MOL0     H83540   5.017   4.487   7.139  0.5470 -3.8855 -0.9129
  619MOL0     H83541   5.320   4.545   7.106  2.7972 -1.3561 -3.6683
  619MOL0     H83542   5.180   4.622   7.032  0.5818  0.1858 -0.2679
  619MOL0     H83543   5.156   4.401   6.893 -1.0065  0.5174  2.2239
  619MOL0     H83544   5.330   4.467   6.900 -0.7441  2.8230  1.3822
  619MOL0     H83545   4.443   4.425   7.412 -2.2156 -0.5592 -0.0158
  619MOL0     H83546   4.221   4.401   7.421  2.0966 -0.3567 -0.9157
  619MOL0     H83547   3.826   4.421   7.615  0.6149 -1.5330 -2.0688
  619MOL0     H83548   3.576   4.404   7.659 -1.4721 -0.5611 -0.9667
  619MOL0     H83549   2.905   5.767   7.367 -0.5742 -3.9608  0.2795
  619MOL0     H83550   2.792   5.990   7.339 -0.7126  0.4634  0.1004
  619MOL0     H83551   2.185   6.133   7.444 -0.5429 -0.1244  1.9040
  619MOL0     H83552   2.066   6.352   7.470  0.5371 -0.4069 -0.3365
  619MOL0     H83553   2.011   6.533   7.584 -0.9850  0.7287  1.9828
  619MOL0     H83554   2.074   6.699   7.596 -0.4509 -0.9250 -0.6941
  619MOL0     H83555   2.278   6.620   7.716 -2.0251  3.0389  4.9583
  619MOL0     H83556   2.201   6.448   7.702  0.1205  0.3795  0.4723
  619MOL0     H83557   2.005   6.575   7.818 -0.5030  0.6125  4.2235
  619MOL0     H83558   2.128   6.703   7.841 -0.1261 -0.2769  4.2598
  619MOL0     H83559   2.090   6.515   8.019 -1.5292  0.0637 -0.8949
  619MOL0     H83560   2.171   6.407   7.912 -0.5197  0.7683 -1.0902
  619MOL0     H83561   2.487   6.660   8.081 -0.0294 -1.1360  0.6221
  619MOL0     H83562   2.419   6.558   7.406 -0.2807  0.6721  1.4014
  619MOL0     H83563   2.630   6.265   7.319  1.2869  0.2983  0.7278
  619MOL0     H83564   2.599   6.426   7.287 -0.6935 -1.2625 -1.6865
  619MOL0     H83565   2.656   6.378   7.453  0.8894  1.3944 -1.5636
  620MOL0     O83566   7.495  11.126   6.178 -0.5060  0.0878  1.0167
  620MOL0     C83567   7.427  11.186   6.259  0.0689 -0.4172 -0.5514
  620MOL0     O83568   7.447  11.186   6.397  0.6032  1.1136 -0.2773
  620MOL0     C83569   7.536  11.101   6.459  0.0833 -0.3909  0.0864
  620MOL0     C83570   7.486  11.000   6.545 -0.7426  0.1169 -0.3700
  620MOL0     C83571   7.584  10.910   6.615  0.6945  0.1168  0.7339
  620MOL0     C83572   7.715  10.945   6.621 -0.2235  0.7100  0.4564
  620MOL0     O83573   7.810  10.876   6.693  0.8817 -0.4920  0.0392
  620MOL0     C83574   7.792  10.740   6.728  0.1270  0.2432 -0.0782
  620MOL0     C83575   7.917  10.664   6.694  0.3806  0.6189  0.0280
  620MOL0     C83576   7.968  10.691   6.559  0.2401 -0.3308 -0.8719
  620MOL0     C83577   8.076  10.587   6.524  0.1723 -0.2236  0.4976
  620MOL0     C83578   8.147  10.604   6.388  0.2626 -0.2633 -0.4991
  620MOL0     C83579   8.259  10.500   6.369 -0.6149  0.1312 -0.3603
  620MOL0     C83580   8.351  10.508   6.248  1.1205  0.0003  0.0459
  620MOL0     C83581   8.276  10.538   6.116  0.1514 -1.1479  0.1363
  620MOL0     N83582   8.366  10.602   6.014  0.7651 -0.3582  1.3477
  620MOL0     C83583   8.444  10.532   5.923  0.9052  1.1793 -0.2877
  620MOL0     C83584   8.497  10.624   5.841  0.1287 -0.5930  0.7286
  620MOL0     C83585   8.597  10.599   5.740 -0.5126  0.0968  0.6354
  620MOL0     C83586   8.733  10.560   5.803  0.1835  0.4034  0.1279
  620MOL0     C83587   8.797  10.647   5.917  0.3188 -0.0288  0.6941
  620MOL0     C83588   8.798  10.801   5.900 -0.0764 -0.9078  0.3492
  620MOL0     O83589   8.848  10.828   5.770 -0.3264 -0.0658 -0.0233
  620MOL0     C83590   8.980  10.819   5.750 -0.2977  0.9040 -0.4411
  620MOL0     C83591   9.065  10.906   5.817  1.0559  0.4437 -0.0201
  620MOL0     C83592   9.203  10.904   5.797 -0.7737  0.5310 -0.8492
  620MOL0     C83593   9.270  10.808   5.722 -0.5755 -0.3899  0.7621
  620MOL0     C83594   9.420  10.819   5.695 -0.1494  0.4410  0.0177
  620MOL0     O83595   9.471  10.723   5.615 -0.4694  0.3184  0.0906
  620MOL0     C83596   9.603  10.727   5.591 -0.8172  0.3276 -0.0047
  620MOL0     C83597   9.641  10.771   5.464  0.1010 -0.0555 -0.3833
  620MOL0     C83598   9.783  10.760   5.436  1.0917  0.3018 -0.4939
  620MOL0     C83599   9.871  10.707   5.532  0.0275 -0.4345 -0.0716
  620MOL0     O83600   9.997  10.673   5.496 -0.3062  0.6831 -0.4248
  620MOL0     C83601  10.038  10.674   5.359 -0.3536  0.3332  0.6213
  620MOL0     C83602  10.173  10.586   5.350 -0.0332  1.1025  0.3026
  620MOL0     C83603  10.309  10.648   5.355  0.1159  0.6337 -0.3712
  620MOL0     C83604  10.317  10.735   5.477 -0.0066  0.0759  0.3451
  620MOL0     C83605  10.452  10.781   5.525  0.3715 -0.1086  0.4298
  620MOL0     C83606  10.533  10.868   5.419  0.6416 -0.1120 -0.0462
  620MOL0     C83607  10.454  11.003   5.407 -0.5502 -0.0917 -0.2089
  620MOL0     C83608  10.531  11.094   5.326  1.1123  0.1036  0.4862
  620MOL0    Cl83609  10.713  11.099   5.345 -0.9518  0.4034  0.0053
  620MOL0     C83610   9.826  10.656   5.655  0.0449  0.4527 -0.1827
  620MOL0     C83611   9.690  10.657   5.677  0.7923  0.0529  0.2017
  620MOL0     O83612   9.481  10.898   5.767 -0.6310 -0.7295  0.1460
  620MOL0     C83613   9.183  10.718   5.647 -0.4850 -0.4501 -0.4674
  620MOL0     C83614   9.040  10.730   5.661 -0.3728 -0.9570 -0.9914
  620MOL0     N83615   8.460  10.751   5.886  0.1595  0.2697  0.4467
  620MOL0     N83616   8.377  10.737   5.989 -0.5171 -0.2056  0.9484
  620MOL0     C83617   7.768  11.042   6.530 -1.1805 -0.1442 -0.3394
  620MOL0     C83618   7.677  11.123   6.455  0.0840 -0.0750 -0.2178
  620MOL0     C83619   7.303  11.269   6.213 -0.7384 -0.7394  0.3563
  620MOL0     C83620   7.176  11.264   6.274 -0.2226 -0.7373 -0.7984
  620MOL0     C83621   7.067  11.317   6.216 -0.1539  0.1472  0.3164
  620MOL0     C83622   7.073  11.401   6.100  0.2115  0.7663 -0.3913
  620MOL0     O83623   6.971  11.468   6.040 -0.1740 -0.5200  0.3358
  620MOL0     C83624   6.855  11.478   6.121  0.1865  0.3057  0.1226
  620MOL0     C83625   6.787  11.606   6.067  0.2314  0.3562  0.1860
  620MOL0     C83626   6.637  11.613   6.104  0.7953 -0.8066  0.7007
  620MOL0     C83627   6.588  11.752   6.086  0.6927  0.0682  0.2823
  620MOL0     C83628   6.445  11.749   6.131 -0.7523 -0.3251  0.0791
  620MOL0     C83629   6.332  11.723   6.166  0.6063 -0.4186  0.2466
  620MOL0     C83630   7.196  11.415   6.046 -0.8885  0.3366 -0.3480
  620MOL0     C83631   7.315  11.342   6.096 -0.9418 -1.2617  0.8022
  620MOL0     C83632   7.441  11.369   6.013  0.3007  0.4481 -1.0567
  620MOL0     H83633   7.381  10.980   6.567 -0.4314 -0.8304  0.3368
  620MOL0     H83634   7.541  10.831   6.676  1.7862  1.1879  3.0168
  620MOL0     H83635   7.779  10.737   6.836 -0.6517 -2.3381 -0.1831
  620MOL0     H83636   7.708  10.696   6.674 -0.8774  0.8000  0.9831
  620MOL0     H83637   7.886  10.559   6.706 -3.0999  1.5225  0.0504
  620MOL0     H83638   7.989  10.688   6.772 -0.3614  1.0129  0.6038
  620MOL0     H83639   8.025  10.785   6.559 -0.3299  0.0189 -1.3957
  620MOL0     H83640   7.885  10.697   6.489  1.4242  1.2540 -2.2114
  620MOL0     H83641   8.147  10.606   6.605 -0.9581  3.9977  0.7452
  620MOL0     H83642   8.020  10.493   6.526 -2.5219  1.1971  4.4395
  620MOL0     H83643   8.075  10.594   6.306  0.2202 -2.2829 -0.2735
  620MOL0     H83644   8.197  10.701   6.394 -2.7879  1.4773 -0.9672
  620MOL0     H83645   8.314  10.508   6.463 -0.0742  1.9771 -0.7903
  620MOL0     H83646   8.213  10.401   6.365 -0.3504 -0.0131  0.1019
  620MOL0     H83647   8.414  10.419   6.235 -0.4307 -1.0283 -0.8159
  620MOL0     H83648   8.419  10.590   6.270  1.1118  0.1358 -0.4274
  620MOL0     H83649   8.223  10.450   6.081  2.9145 -2.5870 -0.7362
  620MOL0     H83650   8.201  10.617   6.130 -0.3369 -1.2799 -1.4609
  620MOL0     H83651   8.465  10.425   5.918  0.2152  1.0946 -1.7607
  620MOL0     H83652   8.569  10.510   5.683 -0.0076 -0.3238  1.0362
  620MOL0     H83653   8.612  10.691   5.684  1.3738 -0.4570  0.1755
  620MOL0     H83654   8.721  10.459   5.844  0.9449 -1.1782 -3.2486
  620MOL0     H83655   8.810  10.551   5.726 -1.4437  0.1587 -1.5240
  620MOL0     H83656   8.894  10.598   5.925  0.1411 -0.8015 -1.4480
  620MOL0     H83657   8.746  10.627   6.012 -2.8602  1.6567 -0.5087
  620MOL0     H83658   8.853  10.867   5.968 -2.0971  3.5026 -1.9305
  620MOL0     H83659   8.696  10.838   5.903  0.3311  0.4860 -1.4061
  620MOL0     H83660   9.025  10.983   5.883 -2.3542 -1.6428  0.5630
  620MOL0     H83661   9.268  10.975   5.847  1.7250 -1.7540 -0.5794
  620MOL0     H83662   9.573  10.817   5.393  0.4750  1.9969  0.5006
  620MOL0     H83663   9.805  10.794   5.335 -1.2066 -0.4171 -1.3054
  620MOL0     H83664   9.956  10.625   5.306 -1.9338  1.5021  1.8873
  620MOL0     H83665  10.057  10.773   5.316 -0.0862  0.3733  0.8297
  620MOL0     H83666  10.173  10.502   5.419  2.1565  0.4127 -0.4365
  620MOL0     H83667  10.165  10.543   5.250  1.1596  4.0014 -1.1807
  620MOL0     H83668  10.377  10.562   5.349 -1.6395 -1.1572  2.6656
  620MOL0     H83669  10.326  10.720   5.275  1.4285  1.9318  1.0098
  620MOL0     H83670  10.268  10.683   5.560  0.0559  1.4510  1.2833
  620MOL0     H83671  10.250  10.821   5.461  0.5446  0.4797  0.1594
  620MOL0     H83672  10.511  10.691   5.546 -0.9430 -1.4625 -1.4537
  620MOL0     H83673  10.432  10.827   5.623 -2.4869 -0.4385  0.0831
  620MOL0     H83674  10.636  10.873   5.453  0.8218 -0.7885 -0.4674
  620MOL0     H83675  10.537  10.817   5.322 -0.2129 -1.3255  0.5322
  620MOL0     H83676  10.431  11.038   5.509  1.0085 -0.2809  0.2292
  620MOL0     H83677  10.369  10.986   5.340  1.1236  0.6060 -2.6234
  620MOL0     H83678  10.512  11.077   5.219  0.6366  1.5895  0.3129
  620MOL0     H83679  10.489  11.194   5.342  0.5673  0.4694 -2.5089
  620MOL0     H83680   9.889  10.611   5.731 -0.1689  2.7164  1.4382
  620MOL0     H83681   9.655  10.608   5.767  0.6629 -0.1936  0.0197
  620MOL0     H83682   9.226  10.651   5.573  0.9406  1.6867 -1.6646
  620MOL0     H83683   8.976  10.652   5.620 -3.1658 -0.1806  1.4871
  620MOL0     H83684   7.873  11.070   6.524 -1.1418 -0.4814 -1.4727
  620MOL0     H83685   7.735  11.199   6.405  2.5452 -0.2133  2.1488
  620MOL0     H83686   7.176  11.214   6.371  2.0124 -0.8809 -0.8071
  620MOL0     H83687   6.974  11.293   6.266  1.7353 -3.3484  2.5653
  620MOL0     H83688   6.877  11.486   6.228  1.4992  1.0849 -0.1923
  620MOL0     H83689   6.789  11.393   6.101 -0.6628  1.3007 -1.4797
  620MOL0     H83690   6.796  11.600   5.958  1.9901 -1.7297  0.3579
  620MOL0     H83691   6.841  11.695   6.101 -0.9263  1.5360 -0.9572
  620MOL0     H83692   6.625  11.575   6.206  1.4314 -0.0497  1.0661
  620MOL0     H83693   6.581  11.541   6.044  4.5270 -1.5976 -2.2795
  620MOL0     H83694   6.639  11.824   6.150 -1.9234 -0.0807  2.7561
  620MOL0     H83695   6.601  11.788   5.984  2.4984 -0.2505  0.3653
  620MOL0     H83696   6.228  11.710   6.187 -0.3559 -1.8247 -4.2502
  620MOL0     H83697   7.206  11.479   5.958  2.7010  3.2989  1.8908
  620MOL0     H83698   7.424  11.455   5.948 -3.2673  0.3871 -0.3916
  620MOL0     H83699   7.532  11.382   6.073  0.3157 -2.1666 -0.3691
  620MOL0     H83700   7.468  11.286   5.947  1.0991  1.4299 -2.0115
  621MOL0     O83701   3.301   2.633   9.394  0.3724  1.0783  0.0992
  621MOL0     C83702   3.224   2.640   9.493  0.9721 -0.0928  0.5962
  621MOL0     O83703   3.272   2.641   9.622  0.9223 -0.1436 -0.7596
  621MOL0     C83704   3.403   2.662   9.637 -0.2657  0.6144  0.0167
  621MOL0     C83705   3.491   2.745   9.574  1.1966 -0.5450  0.3804
  621MOL0     C83706   3.624   2.751   9.611 -0.2010 -0.0558 -0.4431
  621MOL0     C83707   3.673   2.674   9.720  0.5281  0.0934 -0.2225
  621MOL0     O83708   3.801   2.678   9.776  0.1115 -0.8837 -0.3510
  621MOL0     C83709   3.860   2.805   9.768 -0.1535  0.7334 -0.7181
  621MOL0     C83710   4.007   2.796   9.822  0.8934 -0.6781  0.0813
  621MOL0     C83711   4.070   2.933   9.828 -0.5754  0.1856 -0.5274
  621MOL0     C83712   4.223   2.911   9.810  0.4089  0.9848  0.5777
  621MOL0     C83713   4.292   3.049   9.799  0.4617 -0.6552  0.0782
  621MOL0     C83714   4.439   3.062   9.757 -0.9838 -0.4583  0.4325
  621MOL0     C83715   4.478   3.213   9.766 -0.4310 -0.3367  0.2669
  621MOL0     C83716   4.623   3.247   9.724  0.0394 -0.2856 -0.2821
  621MOL0     N83717   4.660   3.192   9.588  0.4296 -0.0303  0.8157
  621MOL0     C83718   4.579   3.203   9.475  0.0527 -0.1620 -0.2072
  621MOL0     C83719   4.650   3.151   9.377 -0.3709 -0.2844  0.2497
  621MOL0     C83720   4.611   3.136   9.238 -0.7930 -1.0507  0.5494
  621MOL0     C83721   4.553   3.268   9.174 -0.2588 -0.1919  0.7346
  621MOL0     C83722   4.635   3.311   9.051 -0.7001 -0.1844 -0.5288
  621MOL0     C83723   4.784   3.347   9.099 -0.0539 -0.8380 -0.2430
  621MOL0     O83724   4.847   3.424   8.995 -0.2077 -0.8019 -0.0674
  621MOL0     C83725   4.981   3.445   9.016  0.0105 -0.3634 -0.8042
  621MOL0     C83726   5.060   3.499   8.906 -0.2464  0.4782  0.0867
  621MOL0     C83727   5.194   3.531   8.923 -0.2604  0.0161  0.5779
  621MOL0     C83728   5.265   3.513   9.041  1.0041  0.5131 -0.4154
  621MOL0     C83729   5.411   3.545   9.059 -0.6982 -0.1663 -0.9247
  621MOL0     O83730   5.481   3.580   8.942 -0.4401 -0.2319 -0.6551
  621MOL0     C83731   5.614   3.621   8.937  0.2502 -0.1082  0.4354
  621MOL0     C83732   5.668   3.631   8.805  0.9685  0.9891  0.3268
  621MOL0     C83733   5.794   3.673   8.784 -0.3088 -0.1825  1.2316
  621MOL0     C83734   5.881   3.698   8.898 -0.5762  0.3677  0.6381
  621MOL0     O83735   6.011   3.749   8.880  0.9918 -0.6998  0.1819
  621MOL0     C83736   6.069   3.742   8.752 -1.0128  0.4188  0.9103
  621MOL0     C83737   6.212   3.736   8.787  0.1871 -0.6662 -0.5119
  621MOL0     C83738   6.264   3.861   8.866  0.1751 -0.0252  0.0124
  621MOL0     C83739   6.403   3.892   8.828 -0.2445  0.8797  0.5627
  621MOL0     C83740   6.485   3.973   8.924 -0.2535 -0.5187 -0.1275
  621MOL0     C83741   6.460   4.129   8.921  0.2535 -0.3066 -0.3789
  621MOL0     C83742   6.493   4.222   8.795 -0.4779 -0.0528 -0.4385
  621MOL0     C83743   6.602   4.335   8.831  1.1590  0.4909  0.0828
  621MOL0    Cl83744   6.510   4.449   8.920 -0.1570  0.4384  0.1728
  621MOL0     C83745   5.828   3.688   9.024 -0.4402 -0.2276  0.2995
  621MOL0     C83746   5.696   3.643   9.047 -0.0112 -0.0497 -0.0625
  621MOL0     O83747   5.457   3.535   9.165  0.5126  0.4667 -1.3413
  621MOL0     C83748   5.193   3.450   9.143 -0.2342  0.3343  0.1062
  621MOL0     C83749   5.060   3.419   9.133 -0.1266  0.0424 -0.0126
  621MOL0     N83750   4.775   3.111   9.426  0.1861  0.0105  0.8397
  621MOL0     N83751   4.774   3.137   9.555 -0.4995 -0.3183  0.9568
  621MOL0     C83752   3.592   2.581   9.780  0.3925  0.4906 -0.0058
  621MOL0     C83753   3.458   2.570   9.732 -0.2123  0.5635  0.3307
  621MOL0     C83754   3.079   2.634   9.463  0.3378 -0.6760 -0.1751
  621MOL0     C83755   2.989   2.688   9.564 -0.7802  0.7688 -0.0734
  621MOL0     C83756   2.849   2.682   9.545 -0.0114  0.2896 -0.1441
  621MOL0     C83757   2.787   2.622   9.434  0.2323 -0.3553 -0.2886
  621MOL0     O83758   2.651   2.619   9.409 -0.4842  0.3312  0.2517
  621MOL0     C83759   2.565   2.717   9.460  0.3789 -0.8220 -0.3084
  621MOL0     C83760   2.443   2.645   9.527 -0.1969 -0.6006  0.1634
  621MOL0     C83761   2.380   2.551   9.432 -0.1578  0.1748  0.3317
  621MOL0     C83762   2.297   2.607   9.308 -1.0150 -0.7714  0.1941
  621MOL0     C83763   2.167   2.661   9.342 -0.4025 -0.1160 -0.3221
  621MOL0     C83764   2.065   2.730   9.353  0.3283 -0.2652 -0.2367
  621MOL0     C83765   2.869   2.562   9.346 -0.2471 -0.6320  0.3991
  621MOL0     C83766   3.011   2.579   9.351 -0.5499  0.3313 -0.0168
  621MOL0     C83767   3.092   2.521   9.236 -0.4248  0.4862  0.1070
  621MOL0     H83768   3.444   2.811   9.501 -2.9864 -2.4454  1.0896
  621MOL0     H83769   3.676   2.818   9.543 -0.7622  0.4842 -0.3430
  621MOL0     H83770   3.867   2.827   9.661 -3.4770 -0.2493 -1.2501
  621MOL0     H83771   3.798   2.879   9.819 -0.2546  1.3641 -1.7377
  621MOL0     H83772   4.062   2.725   9.760 -0.3947  0.0592 -2.0093
  621MOL0     H83773   3.987   2.756   9.922 -0.3905  0.5228  0.3488
  621MOL0     H83774   4.063   2.978   9.927 -0.3445  0.5459 -0.6712
  621MOL0     H83775   4.023   2.995   9.750 -2.7073 -1.9561 -1.0629
  621MOL0     H83776   4.275   2.868   9.896  1.8071  0.8502 -0.2907
  621MOL0     H83777   4.247   2.842   9.728  0.6978  1.2074  0.4703
  621MOL0     H83778   4.229   3.093   9.721 -2.1827 -2.9879  0.7156
  621MOL0     H83779   4.275   3.117   9.883 -0.0819 -3.1622  2.1109
  621MOL0     H83780   4.509   3.003   9.817 -0.4617  0.1035  0.3906
  621MOL0     H83781   4.442   3.036   9.651  3.8514  0.9094 -0.0204
  621MOL0     H83782   4.475   3.242   9.872  0.4907  1.2247 -0.0983
  621MOL0     H83783   4.399   3.268   9.714 -0.2330 -0.1371  0.1746
  621MOL0     H83784   4.628   3.356   9.713 -2.4310  0.0734  1.3861
  621MOL0     H83785   4.692   3.213   9.801  2.7773 -1.6509 -3.1373
  621MOL0     H83786   4.487   3.261   9.465  0.6499  1.0835  1.0773
  621MOL0     H83787   4.690   3.105   9.169 -2.1009 -0.7575 -1.1647
  621MOL0     H83788   4.534   3.060   9.223 -2.9005  0.8276  1.2339
  621MOL0     H83789   4.451   3.258   9.136  0.6815 -0.3708 -1.9378
  621MOL0     H83790   4.547   3.341   9.255  2.2184 -1.4681  2.1928
  621MOL0     H83791   4.589   3.394   8.997 -2.6795 -1.2354 -0.5549
  621MOL0     H83792   4.645   3.224   8.986  6.2936 -1.7878  1.7558
  621MOL0     H83793   4.832   3.250   9.114  1.1419 -0.1388  0.5507
  621MOL0     H83794   4.794   3.399   9.194  0.5777 -1.0279 -0.2033
  621MOL0     H83795   5.008   3.524   8.814  0.1075 -1.6419 -0.7658
  621MOL0     H83796   5.238   3.578   8.836  0.7776 -1.0488  0.5071
  621MOL0     H83797   5.606   3.589   8.726  3.9026 -0.0175 -1.5943
  621MOL0     H83798   5.829   3.692   8.683  2.0087 -0.9992  1.8281
  621MOL0     H83799   6.041   3.654   8.693  0.7177  0.8467 -0.6414
  621MOL0     H83800   6.054   3.828   8.686 -0.4612  0.9798  1.4927
  621MOL0     H83801   6.226   3.648   8.851  2.4876 -0.2180 -0.3126
  621MOL0     H83802   6.275   3.720   8.698  0.6010  0.6344 -0.4705
  621MOL0     H83803   6.191   3.942   8.856  0.0632  0.1596  2.0647
  621MOL0     H83804   6.253   3.839   8.972 -1.9913  0.0825 -0.1485
  621MOL0     H83805   6.405   3.938   8.729  0.4563 -0.1986  0.0604
  621MOL0     H83806   6.465   3.803   8.811 -4.1167 -1.6329 -1.8514
  621MOL0     H83807   6.592   3.949   8.918 -0.5132 -1.5114 -1.0068
  621MOL0     H83808   6.456   3.938   9.024 -0.2581  0.8359  0.3648
  621MOL0     H83809   6.357   4.154   8.948 -0.0747 -3.0377  1.3699
  621MOL0     H83810   6.517   4.163   9.008 -0.8223 -1.0795  0.6604
  621MOL0     H83811   6.407   4.280   8.759  1.6444  4.2775  0.8226
  621MOL0     H83812   6.533   4.163   8.712  1.5524  0.3673  0.1935
  621MOL0     H83813   6.677   4.291   8.897 -1.6397  0.1639  3.3158
  621MOL0     H83814   6.653   4.377   8.744  2.1886  1.2343  1.0165
  621MOL0     H83815   5.900   3.709   9.102  0.9176  3.8686 -1.7529
  621MOL0     H83816   5.668   3.627   9.151 -3.8939  0.3431 -0.8916
  621MOL0     H83817   5.247   3.422   9.233  3.1923  0.0658 -1.8667
  621MOL0     H83818   5.028   3.382   9.230  0.9911  1.0224  0.7538
  621MOL0     H83819   3.625   2.515   9.859  0.1918 -0.6752 -0.8691
  621MOL0     H83820   3.379   2.512   9.779 -0.2588  0.7965  0.5397
  621MOL0     H83821   3.020   2.728   9.660 -1.5465 -0.7456  0.8563
  621MOL0     H83822   2.789   2.738   9.616 -0.7629 -0.2769 -0.3215
  621MOL0     H83823   2.528   2.782   9.381  0.4225  0.3068  0.5673
  621MOL0     H83824   2.616   2.783   9.531 -1.0221 -1.2779  1.1772
  621MOL0     H83825   2.380   2.722   9.571 -1.6721 -1.2407 -0.7672
  621MOL0     H83826   2.472   2.586   9.615 -2.3806 -0.8396  0.7725
  621MOL0     H83827   2.318   2.478   9.485  0.6082 -2.0798 -1.6820
  621MOL0     H83828   2.458   2.485   9.393  1.9485  2.0246  1.2260
  621MOL0     H83829   2.352   2.690   9.262 -0.4906 -0.7757  0.7926
  621MOL0     H83830   2.279   2.536   9.228 -2.2110 -3.2172  2.4946
  621MOL0     H83831   1.976   2.788   9.350 -0.9325 -1.9637  1.8038
  621MOL0     H83832   2.823   2.502   9.268 -0.5317  0.6527 -0.4570
  621MOL0     H83833   3.146   2.594   9.175 -2.4623 -0.5889 -3.2813
  621MOL0     H83834   3.165   2.447   9.270 -1.5669 -1.4767 -1.4694
  621MOL0     H83835   3.024   2.464   9.171  0.9107 -3.5453  1.9563
  622MOL0     O83836   0.377  10.925   5.970  0.7523 -0.0423 -0.3542
  622MOL0     C83837   0.308  10.993   6.041  0.5924  0.0847 -1.4482
  622MOL0     O83838   0.335  11.018   6.177 -0.6437 -0.4595  0.1351
  622MOL0     C83839   0.449  10.966   6.231  0.0810 -0.2695  0.8378
  622MOL0     C83840   0.581  10.962   6.172 -0.8327  0.4256  0.2094
  622MOL0     C83841   0.679  10.920   6.254 -0.1486  0.8023 -0.4613
  622MOL0     C83842   0.671  10.875   6.386 -0.1471 -0.8329  0.3486
  622MOL0     O83843   0.777  10.834   6.460  0.3101  0.1230 -0.8268
  622MOL0     C83844   0.905  10.892   6.432 -0.3866  0.1963 -0.1347
  622MOL0     C83845   1.013  10.851   6.537  0.3099 -0.2575 -0.3039
  622MOL0     C83846   1.020  10.704   6.543 -0.2935 -0.9937  0.1687
  622MOL0     C83847   1.123  10.666   6.655 -0.2975  0.8130  0.5680
  622MOL0     C83848   1.269  10.708   6.604  0.3643 -0.2093 -0.1862
  622MOL0     C83849   1.382  10.626   6.672  0.4153 -0.8675  1.0951
  622MOL0     C83850   1.513  10.694   6.675 -0.4716  0.4893 -0.0125
  622MOL0     C83851   1.591  10.707   6.549 -0.4526 -0.1383 -0.3047
  622MOL0     N83852   1.711  10.783   6.565 -0.7366 -0.8608  0.5993
  622MOL0     C83853   1.812  10.746   6.645  0.5774 -0.4162  0.3619
  622MOL0     C83854   1.905  10.844   6.633 -0.2873  0.0506  0.8135
  622MOL0     C83855   2.042  10.855   6.678  0.6009 -0.1009  0.7506
  622MOL0     C83856   2.074  10.742   6.778 -0.5910  0.1442 -0.5898
  622MOL0     C83857   2.229  10.736   6.796  0.6928  0.1382 -1.3146
  622MOL0     C83858   2.270  10.629   6.904  0.6840 -1.1637 -0.6786
  622MOL0     O83859   2.289  10.500   6.831 -0.0595 -0.3826 -0.6106
  622MOL0     C83860   2.425  10.469   6.820 -0.3318  0.1370  0.3376
  622MOL0     C83861   2.473  10.378   6.908 -0.7197  0.2716 -0.0726
  622MOL0     C83862   2.608  10.336   6.883  0.4089  0.0901  0.4036
  622MOL0     C83863   2.679  10.370   6.761  0.3763  0.3460 -0.2348
  622MOL0     C83864   2.813  10.311   6.739  0.0861 -0.0856  0.3774
  622MOL0     O83865   2.879  10.289   6.856 -0.1578  0.1437  0.1770
  622MOL0     C83866   3.009  10.237   6.868  0.2394  0.1905  0.5052
  622MOL0     C83867   3.035  10.177   6.985  0.5478  0.5534 -0.4578
  622MOL0     C83868   3.166  10.125   7.015  0.3622 -0.1929  0.2162
  622MOL0     C83869   3.278  10.157   6.932  0.3951 -0.4519 -0.9366
  622MOL0     O83870   3.411  10.136   6.955 -0.7699  0.1320  0.2850
  622MOL0     C83871   3.440  10.089   7.091 -1.0279  0.5405  0.7316
  622MOL0     C83872   3.591  10.070   7.094 -0.8609  0.0561 -0.5720
  622MOL0     C83873   3.635  10.045   7.231 -1.0168  0.2206 -0.7841
  622MOL0     C83874   3.778   9.988   7.227 -1.0833 -0.4258  0.8026
  622MOL0     C83875   3.821   9.918   7.360 -0.1820 -0.5146  0.1697
  622MOL0     C83876   3.971   9.884   7.380 -0.0737  0.5288  0.8736
  622MOL0     C83877   4.023   9.776   7.284  0.4753  0.2978 -0.4618
  622MOL0     C83878   4.111   9.672   7.345  0.2742  0.2965  0.3385
  622MOL0    Cl83879   4.270   9.763   7.393 -0.3824 -0.3149  0.1300
  622MOL0     C83880   3.250  10.227   6.815  0.5234  0.1354  1.0871
  622MOL0     C83881   3.118  10.254   6.779  0.4162 -0.4887 -0.4156
  622MOL0     O83882   2.864  10.301   6.626  0.7670  0.3462  0.5740
  622MOL0     C83883   2.625  10.464   6.672  0.7419 -0.6174  0.7290
  622MOL0     C83884   2.497  10.516   6.706 -0.0481 -0.0895 -0.2523
  622MOL0     N83885   1.849  10.952   6.566 -0.2716  0.3215  0.2587
  622MOL0     N83886   1.734  10.917   6.526 -0.2056 -0.1237 -0.0144
  622MOL0     C83887   0.546  10.874   6.445  0.2634 -0.5024 -0.3716
  622MOL0     C83888   0.433  10.914   6.364 -0.4469  0.1934  0.1458
  622MOL0     C83889   0.181  11.040   5.989 -0.1533  0.3435  0.5890
  622MOL0     C83890   0.075  11.038   6.086 -0.1716 -0.3682  0.0750
  622MOL0     C83891  -0.056  11.061   6.041 -0.2251 -0.5427 -0.4755
  622MOL0     C83892  -0.081  11.068   5.907  1.0144  0.0191 -0.0630
  622MOL0     O83893  -0.225  11.082   5.882 -0.9404 -0.1809  0.6357
  622MOL0     C83894  -0.260  11.130   5.750 -0.1467  0.2889  0.1428
  622MOL0     C83895  -0.413  11.149   5.729  0.1301 -0.5998 -0.3229
  622MOL0     C83896  -0.504  11.029   5.777  0.4832 -0.4855 -0.2239
  622MOL0     C83897  -0.655  11.045   5.748  0.5255 -0.5471  0.3345
  622MOL0     C83898  -0.718  10.920   5.777  0.0300 -0.6775  0.8429
  622MOL0     C83899  -0.764  10.818   5.815  0.6601  0.0246 -0.4706
  622MOL0     C83900   0.027  11.090   5.807 -0.2688 -0.1901 -0.1834
  622MOL0     C83901   0.153  11.065   5.850 -0.5049  0.7444 -0.4243
  622MOL0     C83902   0.264  11.071   5.743  0.1200  0.3247  0.5219
  622MOL0     H83903   0.602  10.990   6.069  0.6357 -0.3304  0.2771
  622MOL0     H83904   0.776  10.912   6.206 -0.0912  1.6814 -0.5147
  622MOL0     H83905   0.952  10.855   6.340 -2.4076 -1.0020 -0.7537
  622MOL0     H83906   0.896  11.001   6.433 -1.6053  0.1137  0.8065
  622MOL0     H83907   0.985  10.886   6.637 -0.4807 -2.0486  0.1345
  622MOL0     H83908   1.110  10.898   6.518  0.0986  1.6452  2.6696
  622MOL0     H83909   1.052  10.678   6.442  0.1965 -0.5885  0.2175
  622MOL0     H83910   0.922  10.672   6.581  0.4058 -2.4083  0.8620
  622MOL0     H83911   1.078  10.699   6.750 -0.0908  0.2898  0.8493
  622MOL0     H83912   1.124  10.557   6.655 -1.6161  0.7759 -0.5988
  622MOL0     H83913   1.281  10.664   6.504  0.4975 -3.3961  1.0903
  622MOL0     H83914   1.291  10.815   6.608 -3.3913  0.7279 -0.8751
  622MOL0     H83915   1.345  10.609   6.773 -0.4334  2.7737  1.5481
  622MOL0     H83916   1.383  10.525   6.629  0.2166  0.5675 -2.6614
  622MOL0     H83917   1.582  10.635   6.736 -0.0317 -0.9114 -1.7644
  622MOL0     H83918   1.511  10.794   6.720 -1.4377 -0.3293  1.8416
  622MOL0     H83919   1.603  10.606   6.508 -0.3136 -1.2195  2.2469
  622MOL0     H83920   1.542  10.762   6.468  0.8699 -1.1288 -1.8453
  622MOL0     H83921   1.823  10.649   6.692 -1.3444 -0.8308  0.0274
  622MOL0     H83922   2.110  10.870   6.594 -1.5000  0.4712 -0.9641
  622MOL0     H83923   2.054  10.950   6.732 -0.0540  0.2941  0.2256
  622MOL0     H83924   2.025  10.749   6.875  1.7540 -1.8894  0.8852
  622MOL0     H83925   2.046  10.644   6.737 -0.7475 -0.3853  0.7500
  622MOL0     H83926   2.247  10.839   6.828  1.4088 -0.2614 -0.3992
  622MOL0     H83927   2.282  10.709   6.704  0.3668 -4.2111 -0.4441
  622MOL0     H83928   2.191  10.622   6.979  2.4553 -4.0401  1.1129
  622MOL0     H83929   2.355  10.677   6.953 -1.3517  0.3640  1.5450
  622MOL0     H83930   2.424  10.336   6.996 -0.8756 -0.2187 -0.3872
  622MOL0     H83931   2.655  10.260   6.945  2.6098  0.9515 -0.1094
  622MOL0     H83932   2.958  10.164   7.060  1.6058  2.1375  0.9880
  622MOL0     H83933   3.177  10.088   7.116 -0.7352 -2.0620 -0.3112
  622MOL0     H83934   3.413  10.162   7.167 -1.6613  0.2786  0.7645
  622MOL0     H83935   3.385   9.999   7.118 -1.7727  1.6880  3.3685
  622MOL0     H83936   3.618   9.987   7.028 -1.7626 -0.4444 -0.3253
  622MOL0     H83937   3.650  10.156   7.059  0.4426 -1.0576 -1.2214
  622MOL0     H83938   3.635  10.147   7.271 -0.9714  1.2434 -3.2350
  622MOL0     H83939   3.578   9.978   7.297  0.2677  1.0696  1.3032
  622MOL0     H83940   3.848  10.068   7.198 -1.3042 -0.5110  0.0322
  622MOL0     H83941   3.781   9.913   7.148 -3.3403 -0.2522  0.5059
  622MOL0     H83942   3.771   9.821   7.362 -0.8845 -0.1982 -1.2367
  622MOL0     H83943   3.792   9.977   7.447  1.5243 -0.6481  0.8765
  622MOL0     H83944   4.035   9.972   7.372  1.1010 -0.1876  2.1127
  622MOL0     H83945   3.993   9.846   7.480  1.1440 -0.1188  0.3859
  622MOL0     H83946   4.058   9.829   7.195 -1.0753  1.1425 -0.6043
  622MOL0     H83947   3.931   9.725   7.254  0.3157 -0.2853  0.9326
  622MOL0     H83948   4.050   9.623   7.422 -1.9334 -2.1669 -2.7046
  622MOL0     H83949   4.142   9.600   7.269  1.7459  0.2093  1.0009
  622MOL0     H83950   3.333  10.251   6.749 -0.2677 -1.4356 -0.5488
  622MOL0     H83951   3.115  10.315   6.690  2.1571 -1.0197 -0.8904
  622MOL0     H83952   2.676  10.502   6.585 -0.9134  3.7451  1.3663
  622MOL0     H83953   2.459  10.587   6.633  0.5428 -0.4792 -0.9492
  622MOL0     H83954   0.529  10.841   6.547  0.0043  1.1896  0.1612
  622MOL0     H83955   0.333  10.894   6.402 -0.5483 -1.1794 -0.7659
  622MOL0     H83956   0.101  11.023   6.191 -0.3757 -0.2583  0.1413
  622MOL0     H83957  -0.140  11.039   6.106 -0.1723 -0.6291 -0.4373
  622MOL0     H83958  -0.221  11.055   5.681  0.5891  0.1354  0.7159
  622MOL0     H83959  -0.212  11.224   5.720 -0.2388  1.3616  3.0486
  622MOL0     H83960  -0.425  11.174   5.623 -0.9348  0.4018  0.0095
  622MOL0     H83961  -0.437  11.244   5.779  1.7069  0.8549 -2.1563
  622MOL0     H83962  -0.488  11.017   5.884  1.2170  0.7155 -0.1761
  622MOL0     H83963  -0.477  10.930   5.738 -2.4571 -1.1534 -0.8510
  622MOL0     H83964  -0.701  11.127   5.805  2.1958  0.2697  0.5729
  622MOL0     H83965  -0.666  11.072   5.643 -4.3133 -1.0752  0.4779
  622MOL0     H83966  -0.805  10.724   5.847  0.8055  0.4735  1.1447
  622MOL0     H83967   0.007  11.103   5.701 -1.3126  0.3907  0.0718
  622MOL0     H83968   0.359  11.108   5.783 -0.3040  0.9430  0.9655
  622MOL0     H83969   0.281  10.981   5.683  0.3585  1.8215 -1.7843
  622MOL0     H83970   0.236  11.154   5.677 -1.4436  0.7688  1.6954
  623MOL0     O83971   0.092   3.954  10.331 -0.1876  1.2905  0.2420
  623MOL0     C83972   0.089   3.982  10.445 -0.9802  0.4078  0.9239
  623MOL0     O83973   0.026   4.096  10.485 -0.4194  0.1114 -1.3625
  623MOL0     C83974  -0.036   4.177  10.396 -0.9815  0.0152 -0.4601
  623MOL0     C83975  -0.174   4.176  10.375  0.3948  0.7936  0.3724
  623MOL0     C83976  -0.235   4.257  10.274 -0.2911 -1.1561  0.5902
  623MOL0     C83977  -0.156   4.350  10.204 -0.7473 -0.8569 -0.5749
  623MOL0     O83978  -0.208   4.428  10.103  0.4275 -0.0772 -0.3619
  623MOL0     C83979  -0.349   4.424  10.085  0.2355 -0.7175  0.3172
  623MOL0     C83980  -0.392   4.517   9.976  0.3822 -0.4675  0.1931
  623MOL0     C83981  -0.543   4.551   9.970 -0.5303  0.0204 -0.1605
  623MOL0     C83982  -0.587   4.674   9.891  0.1668 -0.5104  0.7269
  623MOL0     C83983  -0.739   4.662   9.873  0.0511 -0.1027  0.5982
  623MOL0     C83984  -0.802   4.769   9.768 -0.3588 -0.9813 -0.2839
  623MOL0     C83985  -0.936   4.717   9.699 -0.9679  0.0780 -0.4787
  623MOL0     C83986  -0.969   4.812   9.587 -0.5240  0.5280 -0.7192
  623MOL0     N83987  -1.107   4.794   9.549  0.2002  0.1583  0.1404
  623MOL0     C83988  -1.149   4.759   9.424 -0.7740  0.4948  0.1637
  623MOL0     C83989  -1.276   4.786   9.413  1.1594  0.2634  0.5414
  623MOL0     C83990  -1.379   4.748   9.316 -0.3861 -0.5185 -0.8856
  623MOL0     C83991  -1.408   4.846   9.201  0.2099 -0.1964  0.8066
  623MOL0     C83992  -1.481   4.768   9.092  0.2218 -0.2067 -0.1923
  623MOL0     C83993  -1.618   4.711   9.135  0.2886 -0.2263  0.1240
  623MOL0     O83994  -1.668   4.628   9.024 -0.1556  0.2873  0.5937
  623MOL0     C83995  -1.781   4.557   9.031  0.2197  0.0684  0.9645
  623MOL0     C83996  -1.867   4.555   9.134  0.3283 -0.1004 -1.3349
  623MOL0     C83997  -1.993   4.489   9.134 -0.1898 -0.0092 -0.5454
  623MOL0     C83998  -2.040   4.435   9.017 -0.2695  0.2179  0.4805
  623MOL0     C83999  -2.180   4.403   9.000  0.6041 -0.2335 -0.2666
  623MOL0     O84000  -2.268   4.439   9.093 -0.7945  0.0921 -0.1569
  623MOL0     C84001  -2.395   4.411   9.072  1.0342  1.1275 -0.5709
  623MOL0     C84002  -2.459   4.345   9.177 -0.4089 -0.5951 -0.4800
  623MOL0     C84003  -2.601   4.307   9.169  0.5946  0.2451 -0.1165
  623MOL0     C84004  -2.668   4.355   9.057  0.3877 -0.0362  0.4463
  623MOL0     O84005  -2.794   4.322   9.019 -0.4560 -0.0071  0.5969
  623MOL0     C84006  -2.836   4.178   9.033 -0.7326  0.0195 -0.1629
  623MOL0     C84007  -2.996   4.176   9.034 -0.2501  0.4128 -0.1978
  623MOL0     C84008  -3.057   4.242   9.158  0.3185  0.0440 -0.3621
  623MOL0     C84009  -3.208   4.198   9.150  0.7807 -0.6682  0.5033
  623MOL0     C84010  -3.279   4.307   9.226  0.0946  0.5010  0.6242
  623MOL0     C84011  -3.430   4.283   9.238 -0.3595  0.6017  0.3758
  623MOL0     C84012  -3.476   4.204   9.361 -0.8711 -0.8356  1.2592
  623MOL0     C84013  -3.615   4.235   9.407  0.1323  0.4063 -0.6493
  623MOL0    Cl84014  -3.743   4.159   9.313 -0.2888  0.1590 -0.2541
  623MOL0     C84015  -2.606   4.438   8.961 -0.3509 -0.3032  0.6077
  623MOL0     C84016  -2.469   4.471   8.970  0.0943 -0.0311  0.1300
  623MOL0     O84017  -2.203   4.361   8.886 -0.0795  0.0529  0.2090
  623MOL0     C84018  -1.954   4.436   8.900 -0.6193 -0.6091 -0.0843
  623MOL0     C84019  -1.830   4.508   8.914 -0.1732  0.0679 -0.5863
  623MOL0     N84020  -1.316   4.852   9.530  0.0343 -0.0849 -0.1388
  623MOL0     N84021  -1.214   4.854   9.611 -0.4575 -0.2085  0.3329
  623MOL0     C84022  -0.017   4.361  10.242 -0.1409  0.3977 -1.0312
  623MOL0     C84023   0.039   4.273  10.328  0.6645 -0.6286 -0.5732
  623MOL0     C84024   0.144   3.896  10.545  0.1077 -1.0714 -0.6736
  623MOL0     C84025   0.102   3.765  10.539  0.5491 -0.2410 -0.1065
  623MOL0     C84026   0.142   3.668  10.629 -0.3286  1.0361  0.1210
  623MOL0     C84027   0.241   3.709  10.729 -0.0015  0.0643 -0.9329
  623MOL0     O84028   0.300   3.629  10.827 -0.6830  0.1859  0.4804
  623MOL0     C84029   0.235   3.507  10.868 -0.6862  0.2457  0.7106
  623MOL0     C84030   0.319   3.427  10.975 -0.0485  0.1507  0.1489
  623MOL0     C84031   0.255   3.292  11.008 -0.8730 -0.2902 -0.0472
  623MOL0     C84032   0.336   3.230  11.122 -1.1183 -0.7319 -0.2553
  623MOL0     C84033   0.287   3.099  11.158  0.1718  1.0147  0.1346
  623MOL0     C84034   0.242   2.981  11.170 -0.5901  0.1421 -0.8239
  623MOL0     C84035   0.287   3.842  10.727  0.5373  0.0996  0.2901
  623MOL0     C84036   0.243   3.939  10.637  0.1446  0.0667  0.6559
  623MOL0     C84037   0.311   4.068  10.641 -0.6657 -0.4303  0.0916
  623MOL0     H84038  -0.238   4.120  10.443  2.0981  1.3835  2.6077
  623MOL0     H84039  -0.343   4.251  10.264 -0.4841 -0.9919  2.3003
  623MOL0     H84040  -0.379   4.322  10.059  0.5299 -0.3802 -1.5052
  623MOL0     H84041  -0.396   4.453  10.179  1.5415 -0.0368  0.7874
  623MOL0     H84042  -0.356   4.480   9.879 -1.7518  1.0850 -1.2830
  623MOL0     H84043  -0.336   4.610   9.989 -0.0969  0.1527 -1.8771
  623MOL0     H84044  -0.578   4.587  10.067 -1.6182  0.7372 -0.8058
  623MOL0     H84045  -0.600   4.460   9.949  1.6873 -1.4530 -0.1540
  623MOL0     H84046  -0.569   4.764   9.950  2.0940 -1.3579  1.5039
  623MOL0     H84047  -0.541   4.686   9.792  1.1086  1.8502  1.3893
  623MOL0     H84048  -0.762   4.570   9.819 -3.0575  1.0287 -0.2039
  623MOL0     H84049  -0.794   4.674   9.966 -0.5130  0.5388  0.1919
  623MOL0     H84050  -0.820   4.867   9.813  1.6044 -0.1185 -1.2343
  623MOL0     H84051  -0.721   4.788   9.697 -0.4537  0.1599 -0.1019
  623MOL0     H84052  -1.026   4.715   9.761 -1.7023  0.7897 -1.4905
  623MOL0     H84053  -0.923   4.616   9.661 -0.0415 -0.5688  1.4203
  623MOL0     H84054  -0.952   4.915   9.620 -1.2519  0.0066  1.4575
  623MOL0     H84055  -0.905   4.785   9.503  2.2774  0.1061  1.3866
  623MOL0     H84056  -1.084   4.715   9.349  1.3996  0.4766  1.9523
  623MOL0     H84057  -1.355   4.654   9.265 -1.3115 -0.7317 -0.9484
  623MOL0     H84058  -1.476   4.736   9.365  0.2495 -2.0897  0.0589
  623MOL0     H84059  -1.462   4.935   9.234 -2.0762 -0.7935 -1.0146
  623MOL0     H84060  -1.312   4.876   9.157  0.1408 -0.0520  0.7493
  623MOL0     H84061  -1.441   4.680   9.042  0.9620 -0.6360  1.1123
  623MOL0     H84062  -1.510   4.837   9.012 -1.9623 -0.3319  0.4091
  623MOL0     H84063  -1.694   4.785   9.159 -0.7082 -1.7490  1.9334
  623MOL0     H84064  -1.616   4.641   9.219  0.1517 -1.2520 -0.6916
  623MOL0     H84065  -1.835   4.589   9.232  3.0654 -2.8503 -1.1238
  623MOL0     H84066  -2.046   4.493   9.228  2.5710 -1.8151  1.2365
  623MOL0     H84067  -2.391   4.328   9.260  2.7298 -1.1891 -2.9714
  623MOL0     H84068  -2.647   4.233   9.235  2.3886 -1.2041 -0.4007
  623MOL0     H84069  -2.811   4.126   8.940  0.8074 -0.4515  0.4849
  623MOL0     H84070  -2.797   4.131   9.123  1.3244  2.1952  0.1769
  623MOL0     H84071  -3.041   4.221   8.945 -1.3760 -2.4112 -1.1982
  623MOL0     H84072  -3.018   4.069   9.022  0.1570  0.3348 -0.2872
  623MOL0     H84073  -3.010   4.205   9.249 -0.2299  1.7838  0.6627
  623MOL0     H84074  -3.048   4.351   9.153 -0.7524  0.1003 -2.6682
  623MOL0     H84075  -3.226   4.100   9.195 -0.5967 -1.5571 -1.8208
  623MOL0     H84076  -3.255   4.199   9.051  2.7686  0.3237 -0.4818
  623MOL0     H84077  -3.267   4.402   9.173  1.1427 -0.1992 -0.4288
  623MOL0     H84078  -3.247   4.344   9.324  0.2371  1.4617  0.2235
  623MOL0     H84079  -3.500   4.367   9.230 -1.4518 -0.4385 -1.5936
  623MOL0     H84080  -3.462   4.226   9.151  0.7132  2.5672 -1.3917
  623MOL0     H84081  -3.407   4.218   9.445 -1.4221 -1.3964  1.8159
  623MOL0     H84082  -3.466   4.099   9.331  0.3197 -0.0984 -1.2101
  623MOL0     H84083  -3.627   4.203   9.511 -2.4840 -0.4520 -1.1382
  623MOL0     H84084  -3.632   4.343   9.403 -3.0837 -0.0304 -1.6150
  623MOL0     H84085  -2.650   4.467   8.866 -0.9409 -1.5069  0.4979
  623MOL0     H84086  -2.418   4.516   8.885  1.2394 -3.8605 -1.3992
  623MOL0     H84087  -1.971   4.387   8.805 -0.0876  1.4729 -1.2976
  623MOL0     H84088  -1.770   4.516   8.824 -0.1582  3.1697 -0.4061
  623MOL0     H84089   0.047   4.430  10.189  0.3390  0.8061  0.0528
  623MOL0     H84090   0.144   4.288  10.353 -0.3206  0.8030  3.3961
  623MOL0     H84091   0.028   3.748  10.461 -1.2664  1.8255  1.0529
  623MOL0     H84092   0.094   3.571  10.619 -1.2973  1.4936  0.1996
  623MOL0     H84093   0.204   3.447  10.782 -1.4613 -0.2771  1.3477
  623MOL0     H84094   0.141   3.545  10.907 -2.4196 -1.8004 -1.1994
  623MOL0     H84095   0.318   3.493  11.062  0.6110  4.9428 -3.0632
  623MOL0     H84096   0.422   3.408  10.942 -0.0804 -1.4568  0.8868
  623MOL0     H84097   0.261   3.231  10.918 -0.4562 -1.6375  0.8712
  623MOL0     H84098   0.150   3.312  11.035 -0.8510 -1.6338  1.1463
  623MOL0     H84099   0.435   3.223  11.076 -1.5402  0.9171 -1.5061
  623MOL0     H84100   0.345   3.294  11.210 -1.3187  0.5386 -1.1335
  623MOL0     H84101   0.213   2.880  11.194  1.1638  0.1963  1.9407
  623MOL0     H84102   0.357   3.878  10.802  0.1516  0.2023  0.6052
  623MOL0     H84103   0.246   4.148  10.603  0.5530 -0.3923 -2.0864
  623MOL0     H84104   0.364   4.096  10.732 -1.5012  2.1066 -0.1216
  623MOL0     H84105   0.381   4.058  10.558 -0.7032 -1.6917  0.1838
  624MOL0     O84106   7.769   6.291  11.380  0.1925  0.2738  0.2766
  624MOL0     C84107   7.799   6.376  11.298  0.5503 -0.6385  0.4327
  624MOL0     O84108   7.817   6.345  11.167  1.0356  0.1609 -0.1656
  624MOL0     C84109   7.802   6.221  11.102  0.0381 -0.1318 -0.0548
  624MOL0     C84110   7.740   6.219  10.977 -0.0224 -0.2449  0.0296
  624MOL0     C84111   7.722   6.087  10.925  0.0840  0.7361  0.1876
  624MOL0     C84112   7.760   5.964  10.987  0.3382 -0.2293 -0.0507
  624MOL0     O84113   7.749   5.838  10.930 -0.7245 -0.1539 -0.4626
  624MOL0     C84114   7.732   5.830  10.791  0.4581  1.1285 -0.2021
  624MOL0     C84115   7.756   5.680  10.753  0.6377 -0.2232 -0.3415
  624MOL0     C84116   7.903   5.653  10.737 -0.4948 -0.3702 -0.2052
  624MOL0     C84117   7.924   5.510  10.692 -0.1414 -0.3509  0.2384
  624MOL0     C84118   8.073   5.467  10.688 -0.2921  0.6107 -0.2482
  624MOL0     C84119   8.104   5.402  10.825  0.0051 -0.3671 -0.9481
  624MOL0     C84120   8.233   5.314  10.813  0.1389  0.7757  0.4119
  624MOL0     C84121   8.265   5.232  10.942 -1.0313 -0.0653  1.1703
  624MOL0     N84122   8.403   5.199  10.928 -0.7253  0.4168  0.9355
  624MOL0     C84123   8.460   5.083  10.880 -0.3573 -0.3235 -0.3545
  624MOL0     C84124   8.588   5.092  10.908  0.0119  0.0251 -0.2230
  624MOL0     C84125   8.689   4.988  10.893  0.4700  0.8063 -0.1822
  624MOL0     C84126   8.805   5.053  10.829  0.0926  0.7229  0.4791
  624MOL0     C84127   8.889   4.955  10.751 -0.0538  0.0225  0.7499
  624MOL0     C84128   9.017   4.899  10.822  0.2533  1.2760  0.2306
  624MOL0     O84129   9.118   4.989  10.818 -0.3821 -0.2539  0.0661
  624MOL0     C84130   9.238   4.965  10.881  0.6451 -0.0394 -0.2239
  624MOL0     C84131   9.288   4.843  10.930 -0.1506 -0.1151  0.7513
  624MOL0     C84132   9.414   4.826  10.982 -0.1774 -0.5281  0.3451
  624MOL0     C84133   9.507   4.936  10.989  1.3382 -0.4980  0.3792
  624MOL0     C84134   9.634   4.929  11.062  0.1698  0.7985  0.7789
  624MOL0     O84135   9.699   5.048  11.063 -0.9096 -0.1014 -0.0213
  624MOL0     C84136   9.809   5.055  11.137  0.6938 -0.1968  0.8447
  624MOL0     C84137   9.936   5.053  11.075 -0.0694  0.0769 -0.1586
  624MOL0     C84138  10.052   5.032  11.148  0.3396  0.1626 -0.3765
  624MOL0     C84139  10.041   5.015  11.289 -0.7051  0.4348  0.2151
  624MOL0     O84140  10.146   5.004  11.382 -0.0154  0.3822  0.7975
  624MOL0     C84141  10.276   5.013  11.323  0.3910 -0.0595  0.3914
  624MOL0     C84142  10.386   5.012  11.434  0.7439  0.9554 -0.9620
  624MOL0     C84143  10.525   5.028  11.373  0.3240 -0.2167  0.4540
  624MOL0     C84144  10.642   5.050  11.469 -0.0838  0.5182 -0.0103
  624MOL0     C84145  10.779   5.069  11.411  0.5548  0.3824 -1.2381
  624MOL0     C84146  10.786   5.197  11.324 -0.8947  0.2386 -0.9887
  624MOL0     C84147  10.939   5.225  11.313  0.0323  0.1944  0.2491
  624MOL0     C84148  10.960   5.337  11.209 -0.0768  0.1445 -0.5891
  624MOL0    Cl84149  10.883   5.490  11.259  0.0620  0.8388 -0.0292
  624MOL0     C84150   9.921   5.041  11.350  0.5302 -0.3458  0.9590
  624MOL0     C84151   9.799   5.066  11.276 -0.4766 -0.2207  0.2203
  624MOL0     O84152   9.678   4.821  11.097 -0.9351 -0.7957 -0.4521
  624MOL0     C84153   9.461   5.062  10.939 -0.6179  1.1005  1.3291
  624MOL0     C84154   9.330   5.076  10.878  1.0477  0.7921  0.3940
  624MOL0     N84155   8.595   5.202  10.996  0.1828 -0.1790  0.0133
  624MOL0     N84156   8.490   5.279  11.003  0.2762  0.8431  0.0120
  624MOL0     C84157   7.808   5.979  11.116 -0.1585  0.3343  0.6431
  624MOL0     C84158   7.829   6.106  11.172 -0.5408  0.5452  1.1182
  624MOL0     C84159   7.824   6.515  11.337 -0.2830  0.0519 -0.4092
  624MOL0     C84160   7.906   6.601  11.263  0.3444  0.1547 -0.6256
  624MOL0     C84161   7.922   6.730  11.314  1.2568  0.6473  0.2095
  624MOL0     C84162   7.868   6.779  11.440 -0.2189  0.4230 -1.0463
  624MOL0     O84163   7.920   6.899  11.484  0.1115  0.1100 -0.2654
  624MOL0     C84164   7.873   6.957  11.602 -0.1614 -0.5902 -0.4401
  624MOL0     C84165   7.927   7.094  11.610  0.4839 -0.7630 -0.0695
  624MOL0     C84166   8.066   7.101  11.663  0.4857 -0.5231 -0.1866
  624MOL0     C84167   8.080   7.209  11.776  0.2491  0.0087  0.2170
  624MOL0     C84168   8.036   7.171  11.909  0.1083  0.4032 -0.1323
  624MOL0     C84169   7.988   7.141  12.020 -0.5049 -0.3655 -0.9013
  624MOL0     C84170   7.789   6.689  11.506  0.3595 -0.8334 -0.6262
  624MOL0     C84171   7.771   6.559  11.470  0.9133  0.7005 -0.3912
  624MOL0     C84172   7.669   6.482  11.550  0.5155 -0.2402 -0.0621
  624MOL0     H84173   7.697   6.307  10.930 -0.7558 -0.7217 -0.2034
  624MOL0     H84174   7.660   6.080  10.836  2.0921 -1.7849 -1.1636
  624MOL0     H84175   7.628   5.835  10.759  0.1938 -1.6015  0.0214
  624MOL0     H84176   7.790   5.898  10.728 -0.5921  2.1902 -0.0579
  624MOL0     H84177   7.697   5.666  10.662  0.2920 -4.4843  0.2928
  624MOL0     H84178   7.712   5.625  10.836 -0.1360  0.0728 -0.5511
  624MOL0     H84179   7.960   5.681  10.825  2.6795 -0.3591 -2.1310
  624MOL0     H84180   7.945   5.708  10.652  0.1638 -1.3825 -0.5625
  624MOL0     H84181   7.867   5.445  10.759 -0.1718 -0.5070  0.0621
  624MOL0     H84182   7.892   5.510  10.587  1.9406  2.5425 -0.5234
  624MOL0     H84183   8.080   5.399  10.602  1.0148 -1.1579  1.1814
  624MOL0     H84184   8.129   5.559  10.668 -0.1161  0.5244 -0.1598
  624MOL0     H84185   8.133   5.487  10.888 -0.4771 -0.7358 -0.2086
  624MOL0     H84186   8.022   5.340  10.864  1.7162 -1.2122  1.5477
  624MOL0     H84187   8.322   5.366  10.777  2.0084 -1.6742  1.1834
  624MOL0     H84188   8.218   5.246  10.728 -0.8533  0.1238  1.0818
  624MOL0     H84189   8.249   5.300  11.026 -2.4116  3.7519 -1.9021
  624MOL0     H84190   8.216   5.135  10.951  1.9380 -2.1919 -2.4508
  624MOL0     H84191   8.416   4.993  10.838  0.9359 -2.1758  1.9655
  624MOL0     H84192   8.722   4.943  10.987  0.5775  0.1317 -0.5347
  624MOL0     H84193   8.661   4.899  10.836  1.2840 -0.1826  0.9062
  624MOL0     H84194   8.767   5.119  10.750  0.5623 -0.3620 -0.6990
  624MOL0     H84195   8.860   5.114  10.902  3.5099 -2.0391  0.5166
  624MOL0     H84196   8.923   5.004  10.660 -1.4125  0.5997  0.5315
  624MOL0     H84197   8.828   4.869  10.722 -0.1918  0.5725 -0.6446
  624MOL0     H84198   9.064   4.811  10.775 -1.1611 -0.1184  1.3258
  624MOL0     H84199   8.987   4.879  10.925  2.7595  2.4745  1.2896
  624MOL0     H84200   9.241   4.746  10.914 -0.6949  0.1240  0.9194
  624MOL0     H84201   9.450   4.727  11.008  0.3094  0.0595  2.0237
  624MOL0     H84202   9.957   5.066  10.970 -0.3202  2.1774  0.0059
  624MOL0     H84203  10.148   5.010  11.102  1.1323  0.7120  0.9393
  624MOL0     H84204  10.296   4.930  11.255  1.2433  0.3724  0.1003
  624MOL0     H84205  10.274   5.113  11.277  1.7352  0.4538  1.3593
  624MOL0     H84206  10.362   5.084  11.512  0.1463  2.6581 -2.6408
  624MOL0     H84207  10.386   4.914  11.484 -1.5551 -0.1448 -2.9055
  624MOL0     H84208  10.545   4.950  11.298  0.5570 -0.6238  0.9308
  624MOL0     H84209  10.513   5.122  11.318 -1.9054 -0.4018  0.5588
  624MOL0     H84210  10.640   4.962  11.534 -1.0680 -0.5778 -1.4464
  624MOL0     H84211  10.606   5.138  11.524  2.0032  0.8947  0.8317
  624MOL0     H84212  10.812   4.984  11.351  0.4051  0.0204 -0.8080
  624MOL0     H84213  10.842   5.085  11.499 -0.1304 -0.1116 -0.6449
  624MOL0     H84214  10.738   5.184  11.226  1.8671  1.3152 -2.6128
  624MOL0     H84215  10.742   5.281  11.379  0.2419 -2.1969  4.2029
  624MOL0     H84216  11.000   5.144  11.272  2.3961  2.2673 -0.5959
  624MOL0     H84217  10.981   5.241  11.413  2.2595  0.2832 -0.6348
  624MOL0     H84218  11.067   5.355  11.224 -0.2524 -0.4356  1.7781
  624MOL0     H84219  10.931   5.306  11.109 -2.3273 -1.2492  0.3992
  624MOL0     H84220   9.916   5.039  11.458  0.6711 -0.4081  0.9650
  624MOL0     H84221   9.702   5.063  11.326  0.3242 -1.0935  1.8137
  624MOL0     H84222   9.532   5.143  10.924  1.4613 -0.3784  2.6433
  624MOL0     H84223   9.301   5.172  10.836 -2.2762 -0.5351 -0.6347
  624MOL0     H84224   7.834   5.894  11.179 -1.2675  0.0456  0.7369
  624MOL0     H84225   7.877   6.104  11.269  1.8190 -0.4104 -0.0089
  624MOL0     H84226   7.943   6.569  11.166  0.2578 -2.8576  0.2428
  624MOL0     H84227   7.980   6.791  11.245  0.1457 -1.7346 -3.0937
  624MOL0     H84228   7.915   6.897  11.683  1.4023 -3.0862 -2.8899
  624MOL0     H84229   7.764   6.962  11.598 -0.0816  0.5667 -2.0399
  624MOL0     H84230   7.862   7.127  11.692  1.4194 -1.3330  0.9231
  624MOL0     H84231   7.919   7.149  11.516  2.4237  0.3186  0.3623
  624MOL0     H84232   8.140   7.124  11.586  0.5494  0.6181  0.1966
  624MOL0     H84233   8.100   7.005  11.705  0.8486 -1.0548 -1.6524
  624MOL0     H84234   8.187   7.225  11.792 -0.2171  2.6753  1.2066
  624MOL0     H84235   8.031   7.304  11.753  1.0216  0.6866  1.2947
  624MOL0     H84236   7.933   7.112  12.108  2.0326 -0.9176  0.6004
  624MOL0     H84237   7.747   6.725  11.599 -0.0261 -1.7524 -0.4299
  624MOL0     H84238   7.587   6.433  11.496 -2.0099  0.9965  2.4489
  624MOL0     H84239   7.721   6.403  11.606 -1.6599 -0.1478  2.2363
  624MOL0     H84240   7.624   6.552  11.620  3.3974 -1.2201  3.0848
  625MOL0     O84241   0.871  10.616   0.133  0.0581  0.2136  0.0501
  625MOL0     C84242   0.876  10.603   0.012  0.7344 -0.0999 -0.3458
  625MOL0     O84243   0.762  10.607  -0.070 -0.1579  0.5918  0.4465
  625MOL0     C84244   0.633  10.631  -0.031 -0.2069  0.8366 -0.3461
  625MOL0     C84245   0.600  10.711   0.071 -0.0553 -0.8673  0.4732
  625MOL0     C84246   0.470  10.749   0.095  0.8301 -0.6772  0.7880
  625MOL0     C84247   0.363  10.692   0.020  0.0356 -0.0059  0.4967
  625MOL0     O84248   0.231  10.727   0.047  0.8245  0.3022 -0.6971
  625MOL0     C84249   0.201  10.818   0.161 -0.3216  0.9633 -0.2756
  625MOL0     C84250   0.054  10.847   0.179  0.2552 -0.8223  0.3912
  625MOL0     C84251  -0.001  10.936   0.065  0.1278 -0.5259  0.1826
  625MOL0     C84252  -0.139  10.992   0.080  1.3426  0.5432 -0.2900
  625MOL0     C84253  -0.188  11.097  -0.028 -0.6544  0.3305 -0.2984
  625MOL0     C84254  -0.340  11.105  -0.014  0.3040 -0.4354  0.5658
  625MOL0     C84255  -0.388  11.180  -0.143 -0.5787  0.1479 -0.5617
  625MOL0     C84256  -0.537  11.224  -0.120 -1.1280  0.1116 -0.0256
  625MOL0     N84257  -0.575  11.305  -0.237  0.2203  0.5234 -0.5014
  625MOL0     C84258  -0.595  11.438  -0.238  0.5839 -0.3965 -0.0827
  625MOL0     C84259  -0.662  11.465  -0.353  0.0611  0.0549 -0.3572
  625MOL0     C84260  -0.709  11.595  -0.386 -0.1185  0.2800  0.1282
  625MOL0     C84261  -0.600  11.665  -0.461  0.1558  0.2151 -0.2268
  625MOL0     C84262  -0.570  11.622  -0.603  0.4783  1.2562 -0.4830
  625MOL0     C84263  -0.450  11.529  -0.620 -0.0842  0.0216 -0.0839
  625MOL0     O84264  -0.325  11.599  -0.608  0.6630  0.1355 -0.6388
  625MOL0     C84265  -0.215  11.529  -0.567  0.8399  0.8089  0.1419
  625MOL0     C84266  -0.097  11.593  -0.557 -0.2064 -0.9013 -0.3865
  625MOL0     C84267   0.026  11.533  -0.523  0.0836  0.1712 -0.2269
  625MOL0     C84268   0.032  11.395  -0.484 -0.9914  0.7029 -0.6626
  625MOL0     C84269   0.171  11.342  -0.459 -0.1647  0.3897 -0.1685
  625MOL0     O84270   0.168  11.217  -0.402 -0.2800  0.3899  0.4026
  625MOL0     C84271   0.286  11.165  -0.364  0.1409  0.9782  0.2742
  625MOL0     C84272   0.389  11.128  -0.447 -0.4856  0.1005  0.6629
  625MOL0     C84273   0.496  11.043  -0.405  0.1950 -0.6719  0.7386
  625MOL0     C84274   0.509  11.016  -0.272 -0.0268  0.5326  0.1353
  625MOL0     O84275   0.606  10.939  -0.235 -0.0215  0.2637 -0.6300
  625MOL0     C84276   0.700  10.994  -0.139  0.5236  0.1997  0.1930
  625MOL0     C84277   0.815  11.096  -0.191  0.7986 -0.4163  0.0526
  625MOL0     C84278   0.872  11.065  -0.330 -0.5448 -0.6663 -0.4013
  625MOL0     C84279   0.920  10.913  -0.336 -0.4987 -0.4883  0.3077
  625MOL0     C84280   0.990  10.879  -0.462 -0.7292 -0.1586  0.1478
  625MOL0     C84281   0.897  10.835  -0.580  0.1098 -0.3368 -0.6247
  625MOL0     C84282   0.956  10.877  -0.717 -0.6820 -0.8740 -0.1690
  625MOL0     C84283   1.014  10.781  -0.817  0.0471 -0.4224 -0.6309
  625MOL0    Cl84284   1.138  10.676  -0.738  0.4111  0.7218  0.0538
  625MOL0     C84285   0.413  11.065  -0.184  0.1211 -0.2275 -0.6126
  625MOL0     C84286   0.302  11.137  -0.228  0.7685  0.4709  0.1086
  625MOL0     O84287   0.273  11.405  -0.498  0.3524 -0.1832  0.1708
  625MOL0     C84288  -0.095  11.327  -0.483 -0.3792  0.4565  1.1834
  625MOL0     C84289  -0.213  11.390  -0.532  0.0972 -0.8696 -0.0973
  625MOL0     N84290  -0.686  11.347  -0.419  0.0957 -0.3867  0.1795
  625MOL0     N84291  -0.629  11.255  -0.352  0.1429  0.6302 -0.1552
  625MOL0     C84292   0.408  10.602  -0.086  0.2311 -0.6721 -0.4989
  625MOL0     C84293   0.539  10.580  -0.110 -0.2851 -0.1034 -0.4799
  625MOL0     C84294   1.016  10.583  -0.043 -0.0769 -0.0476 -0.2105
  625MOL0     C84295   1.015  10.500  -0.156 -0.4514 -0.0872 -0.0010
  625MOL0     C84296   1.138  10.444  -0.196  0.7606  0.4481 -0.1814
  625MOL0     C84297   1.250  10.499  -0.147 -1.1062  0.4346  0.5722
  625MOL0     O84298   1.372  10.452  -0.194 -0.3908  0.0868  0.2505
  625MOL0     C84299   1.464  10.564  -0.224  0.0874 -1.1881 -0.1323
  625MOL0     C84300   1.563  10.497  -0.307  0.0928 -0.0045  0.1541
  625MOL0     C84301   1.665  10.611  -0.349  0.3531 -0.2263 -0.4476
  625MOL0     C84302   1.780  10.571  -0.449  0.2885  0.2964  0.9416
  625MOL0     C84303   1.842  10.442  -0.417 -0.3979  0.3955  0.8017
  625MOL0     C84304   1.906  10.339  -0.399 -1.6221 -0.0831  0.0206
  625MOL0     C84305   1.250  10.599  -0.045  0.4369  0.0551  0.3061
  625MOL0     C84306   1.130  10.652   0.006  0.0842  1.4934  1.2035
  625MOL0     C84307   1.132  10.752   0.122 -1.1081 -0.4491 -0.8846
  625MOL0     H84308   0.683  10.758   0.123  0.1468  0.9714 -1.4241
  625MOL0     H84309   0.449  10.816   0.177 -2.8549  0.1054 -0.5986
  625MOL0     H84310   0.233  10.760   0.248  2.5356  0.5641 -1.4707
  625MOL0     H84311   0.261  10.909   0.164 -2.0725  2.1764 -0.5594
  625MOL0     H84312   0.031  10.887   0.279  1.7874 -1.8353  1.1993
  625MOL0     H84313  -0.004  10.757   0.157 -2.2121  0.5123  1.0972
  625MOL0     H84314   0.014  10.886  -0.032  1.2749  0.4988 -0.2058
  625MOL0     H84315   0.065  11.023   0.052  0.9405 -0.4693  3.8200
  625MOL0     H84316  -0.206  10.906   0.071 -0.9781  2.2159 -0.2316
  625MOL0     H84317  -0.162  11.037   0.178 -2.8626 -1.3768 -0.1448
  625MOL0     H84318  -0.149  11.196  -0.003 -3.0930  1.3433 -0.1615
  625MOL0     H84319  -0.155  11.064  -0.126  0.2056  0.1297  0.0463
  625MOL0     H84320  -0.387  11.006  -0.009 -0.7784 -0.3728 -3.7798
  625MOL0     H84321  -0.368  11.161   0.075 -0.8685  1.0374 -0.6896
  625MOL0     H84322  -0.383  11.109  -0.226 -0.3407 -0.5112  0.0046
  625MOL0     H84323  -0.330  11.269  -0.168  0.1305  0.0844  0.8127
  625MOL0     H84324  -0.605  11.139  -0.112 -0.9284 -0.3244 -2.2623
  625MOL0     H84325  -0.532  11.279  -0.025 -2.1338  0.0780  0.0505
  625MOL0     H84326  -0.562  11.499  -0.154  0.4706  0.4494 -0.6396
  625MOL0     H84327  -0.787  11.575  -0.460  0.3451 -0.1376 -0.2494
  625MOL0     H84328  -0.741  11.648  -0.295 -1.3495 -2.0714  1.1543
  625MOL0     H84329  -0.636  11.767  -0.480 -0.2260 -0.3790 -3.0406
  625MOL0     H84330  -0.510  11.669  -0.399 -0.1703 -0.6338  0.3115
  625MOL0     H84331  -0.549  11.708  -0.668  1.9966  0.3126 -1.3111
  625MOL0     H84332  -0.660  11.578  -0.645 -2.0370  3.0489  2.6010
  625MOL0     H84333  -0.458  11.470  -0.712 -0.6348  0.4824 -0.3420
  625MOL0     H84334  -0.456  11.445  -0.550 -0.3685 -0.8489 -1.1361
  625MOL0     H84335  -0.099  11.697  -0.589 -0.8864 -0.8850 -0.3056
  625MOL0     H84336   0.109  11.602  -0.531 -0.2491  1.0024  2.4074
  625MOL0     H84337   0.389  11.161  -0.551  2.6364  0.9336  0.8115
  625MOL0     H84338   0.569  11.013  -0.479 -0.1951  1.3216 -0.5431
  625MOL0     H84339   0.647  11.049  -0.060  0.8895  0.5397  0.2097
  625MOL0     H84340   0.752  10.904  -0.105  0.2773 -1.0737 -2.5480
  625MOL0     H84341   0.779  11.199  -0.180  4.9872  1.0726  1.8607
  625MOL0     H84342   0.895  11.084  -0.117  1.6666 -1.2217 -0.9830
  625MOL0     H84343   0.789  11.078  -0.400 -0.8897  0.7138  0.2346
  625MOL0     H84344   0.958  11.128  -0.354  0.0820 -1.4828 -0.3217
  625MOL0     H84345   0.834  10.845  -0.331  1.6587 -3.4480 -0.3181
  625MOL0     H84346   0.983  10.893  -0.249 -0.4018  3.4022  1.3218
  625MOL0     H84347   1.053  10.792  -0.439  0.3493  1.0496  2.0562
  625MOL0     H84348   1.062  10.959  -0.483 -0.8615  0.2307  1.1515
  625MOL0     H84349   0.885  10.727  -0.574  0.9809 -0.3936  0.4137
  625MOL0     H84350   0.803  10.890  -0.577  0.5948  0.5876 -1.4964
  625MOL0     H84351   1.038  10.945  -0.695 -2.3625  1.2754 -0.1747
  625MOL0     H84352   0.882  10.933  -0.775 -3.0236 -1.3426  2.1808
  625MOL0     H84353   0.935  10.714  -0.853 -0.3885 -1.0217  1.3176
  625MOL0     H84354   1.052  10.839  -0.902 -0.5773 -1.0076 -1.3205
  625MOL0     H84355   0.430  11.044  -0.079 -2.3736 -2.4744 -0.5699
  625MOL0     H84356   0.221  11.158  -0.160  0.2260 -1.8116  0.2235
  625MOL0     H84357  -0.099  11.222  -0.455 -2.4588  0.2824  0.4209
  625MOL0     H84358  -0.299  11.324  -0.531  0.1765 -0.9878 -0.6622
  625MOL0     H84359   0.322  10.575  -0.146  1.1104  0.7595 -2.5138
  625MOL0     H84360   0.557  10.505  -0.187 -2.1073 -0.0829 -0.9568
  625MOL0     H84361   0.923  10.460  -0.196 -0.3773  0.3997 -0.6828
  625MOL0     H84362   1.151  10.369  -0.273 -0.1737 -0.9152  0.9414
  625MOL0     H84363   1.521  10.608  -0.142  1.6105 -0.3188 -1.5734
  625MOL0     H84364   1.401  10.633  -0.282  1.7507 -2.1486 -3.2910
  625MOL0     H84365   1.518  10.457  -0.399  3.1690 -0.5039 -1.2603
  625MOL0     H84366   1.613  10.415  -0.255 -2.3193 -1.5054  0.2356
  625MOL0     H84367   1.715  10.652  -0.260 -1.5444 -1.6150  1.3664
  625MOL0     H84368   1.602  10.686  -0.398  2.1070  0.2507 -2.0673
  625MOL0     H84369   1.742  10.569  -0.552 -0.8636 -2.2115  1.3484
  625MOL0     H84370   1.860  10.645  -0.451  2.0108 -1.4617 -1.4715
  625MOL0     H84371   1.962  10.255  -0.364 -1.9906  1.3068  4.5025
  625MOL0     H84372   1.344  10.643  -0.015  0.1255 -2.4866  6.5705
  625MOL0     H84373   1.227  10.806   0.118 -1.4111  0.7462  3.1162
  625MOL0     H84374   1.046  10.820   0.122 -1.0205 -0.3084  0.5910
  625MOL0     H84375   1.144  10.700   0.217  4.4281 -0.2212 -1.1224
  626MOL0     O84376   1.333   7.771   2.946  0.1309 -1.2975  0.0936
  626MOL0     C84377   1.252   7.716   3.017  0.6083  0.4032  0.3964
  626MOL0     O84378   1.257   7.697   3.151 -0.1959  0.1364 -0.4102
  626MOL0     C84379   1.395   7.689   3.193  1.2345 -0.3419  0.5205
  626MOL0     C84380   1.474   7.574   3.188  0.3363 -0.3004  0.5110
  626MOL0     C84381   1.606   7.570   3.232  0.3975  0.5086  0.3802
  626MOL0     C84382   1.661   7.686   3.284 -0.3344 -0.0865  0.9491
  626MOL0     O84383   1.793   7.696   3.323  0.7034  0.0554 -0.1544
  626MOL0     C84384   1.875   7.581   3.352  0.2826 -0.6326 -0.2270
  626MOL0     C84385   1.806   7.494   3.464  0.0202 -0.5042  0.4419
  626MOL0     C84386   1.920   7.412   3.530 -0.2483 -0.9615  0.4196
  626MOL0     C84387   1.964   7.297   3.431  0.2487 -1.0620  0.7182
  626MOL0     C84388   2.062   7.191   3.483 -0.2715  0.1908  0.1640
  626MOL0     C84389   2.192   7.252   3.527  0.1040 -0.9479 -0.1994
  626MOL0     C84390   2.274   7.149   3.608  0.2094  0.1582 -0.4888
  626MOL0     C84391   2.256   7.135   3.759  0.6297  0.2080 -0.0520
  626MOL0     N84392   2.379   7.071   3.826 -0.8684 -0.5905  0.9920
  626MOL0     C84393   2.465   7.148   3.911  0.1535  0.5357  0.6632
  626MOL0     C84394   2.545   7.050   3.957 -0.6499 -0.1951  0.6472
  626MOL0     C84395   2.659   7.084   4.048 -0.5851 -0.0421 -0.9197
  626MOL0     C84396   2.783   6.991   4.023 -0.1945 -0.5804 -1.3606
  626MOL0     C84397   2.888   7.022   4.121 -0.1227  0.2580  0.7975
  626MOL0     C84398   2.981   6.903   4.133 -0.2345  0.5576 -0.2847
  626MOL0     O84399   3.102   6.948   4.194 -0.1632 -0.4659 -0.1675
  626MOL0     C84400   3.207   6.971   4.117 -0.5748  0.3522 -0.4857
  626MOL0     C84401   3.324   6.991   4.196  0.3231 -0.3489  0.7977
  626MOL0     C84402   3.450   6.994   4.140  0.5512  0.0377 -0.1003
  626MOL0     C84403   3.463   6.999   4.000  0.7527  0.2017  0.4014
  626MOL0     C84404   3.594   7.009   3.924 -0.0417 -0.6038 -1.2399
  626MOL0     O84405   3.588   7.052   3.803  0.4756 -0.0088  0.3358
  626MOL0     C84406   3.701   7.071   3.738  0.8435 -0.3123  0.6452
  626MOL0     C84407   3.690   7.056   3.596 -0.3298 -0.0937 -0.2147
  626MOL0     C84408   3.794   7.084   3.513 -0.3505 -0.1655 -0.3512
  626MOL0     C84409   3.923   7.118   3.558  0.4266  0.0532  0.5922
  626MOL0     O84410   4.014   7.129   3.454  0.3710 -0.2159  0.4188
  626MOL0     C84411   4.130   7.193   3.499  0.3209  0.2215  0.0502
  626MOL0     C84412   4.232   7.218   3.387 -0.1070 -0.0487  0.3826
  626MOL0     C84413   4.290   7.093   3.315  0.2641 -0.4516 -0.2179
  626MOL0     C84414   4.432   7.114   3.266 -0.2717  0.0034  0.1185
  626MOL0     C84415   4.489   6.980   3.212  0.6570 -0.5775 -1.1626
  626MOL0     C84416   4.638   6.982   3.176  0.3332  0.2106 -0.8642
  626MOL0     C84417   4.744   7.004   3.290  0.2991  0.3510  0.5925
  626MOL0     C84418   4.886   6.982   3.236  0.1049 -0.6850 -0.0721
  626MOL0    Cl84419   4.985   6.970   3.385  0.0022  0.3165  0.1526
  626MOL0     C84420   3.928   7.137   3.695 -0.7103 -0.4419  0.6279
  626MOL0     C84421   3.825   7.122   3.785 -0.8400  0.4716  0.0709
  626MOL0     O84422   3.692   6.948   3.973 -0.1587 -0.2364  0.0322
  626MOL0     C84423   3.336   6.987   3.923 -0.0133  0.4693  0.7764
  626MOL0     C84424   3.215   6.963   3.979 -0.1277  0.0673 -0.1374
  626MOL0     N84425   2.520   6.926   3.895  0.4821  0.0849 -0.1120
  626MOL0     N84426   2.415   6.940   3.818 -0.3382 -0.1037  0.6095
  626MOL0     C84427   1.580   7.803   3.288  0.3302  0.0999  0.5030
  626MOL0     C84428   1.448   7.801   3.245 -0.5524  0.1503  0.2347
  626MOL0     C84429   1.123   7.668   2.950  0.1498  0.3667  0.0984
  626MOL0     C84430   1.019   7.633   3.033 -0.9548  0.0721 -0.5440
  626MOL0     C84431   0.893   7.586   2.979  0.0492  0.3414  0.3371
  626MOL0     C84432   0.877   7.553   2.849 -0.0590 -0.7106  0.6276
  626MOL0     O84433   0.748   7.524   2.797  0.2636 -0.2658  0.9543
  626MOL0     C84434   0.698   7.628   2.713  0.0612 -0.1883 -0.4826
  626MOL0     C84435   0.666   7.562   2.577 -0.0199  0.3756  0.3082
  626MOL0     C84436   0.564   7.445   2.586 -0.1598 -0.6320 -0.3473
  626MOL0     C84437   0.422   7.496   2.587 -0.8005 -0.8035 -0.0680
  626MOL0     C84438   0.322   7.389   2.564  0.4213  0.5575 -0.4986
  626MOL0     C84439   0.238   7.306   2.540  0.8496  0.4562  0.2378
  626MOL0     C84440   0.987   7.591   2.766  0.5979  1.0490  0.3389
  626MOL0     C84441   1.106   7.648   2.810 -0.2955  0.3559 -0.0565
  626MOL0     C84442   1.224   7.675   2.711  0.3682 -0.6053 -1.2198
  626MOL0     H84443   1.431   7.487   3.140  0.0213  1.1638 -2.0193
  626MOL0     H84444   1.644   7.468   3.231 -1.3535 -0.1885 -0.0799
  626MOL0     H84445   1.888   7.519   3.263  0.2607  0.7397 -1.2182
  626MOL0     H84446   1.965   7.620   3.402 -1.1821 -1.0475  3.0405
  626MOL0     H84447   1.729   7.428   3.424 -0.1393  1.3835 -2.6666
  626MOL0     H84448   1.767   7.544   3.554 -1.8560 -1.8529  0.4338
  626MOL0     H84449   1.890   7.376   3.628  2.7698 -2.8019  0.7869
  626MOL0     H84450   2.006   7.477   3.550 -2.1672  0.9230  3.2398
  626MOL0     H84451   1.871   7.262   3.385 -0.6983  3.1026 -0.8911
  626MOL0     H84452   2.016   7.346   3.348  1.5991 -1.5131  1.2703
  626MOL0     H84453   2.019   7.144   3.572 -0.0139  1.5896  1.0569
  626MOL0     H84454   2.079   7.111   3.411  3.8136  0.6057  0.4316
  626MOL0     H84455   2.256   7.282   3.444  0.6402 -0.3476  0.4218
  626MOL0     H84456   2.168   7.339   3.588 -2.1526 -0.7617 -1.2586
  626MOL0     H84457   2.380   7.174   3.594  0.3404 -0.5253 -0.7609
  626MOL0     H84458   2.260   7.050   3.562  3.5627 -1.5822  1.7651
  626MOL0     H84459   2.237   7.227   3.815  2.3196 -0.2108  1.3019
  626MOL0     H84460   2.165   7.080   3.782 -0.8492  2.1702 -0.9096
  626MOL0     H84461   2.459   7.250   3.950 -0.9293 -0.0661  2.1969
  626MOL0     H84462   2.697   7.184   4.023  0.1393 -0.7423 -2.8273
  626MOL0     H84463   2.622   7.088   4.151 -2.4668 -2.7678 -1.3654
  626MOL0     H84464   2.754   6.887   4.042  0.1714 -0.2517  1.4574
  626MOL0     H84465   2.819   6.995   3.920  0.7479  0.2437 -1.0132
  626MOL0     H84466   2.854   7.033   4.224 -2.8880  2.5061 -0.2391
  626MOL0     H84467   2.941   7.112   4.088  0.6647 -0.8256 -1.0222
  626MOL0     H84468   2.992   6.860   4.033 -0.7227  1.5592 -0.7827
  626MOL0     H84469   2.945   6.823   4.198  4.2777 -1.7489 -0.1788
  626MOL0     H84470   3.318   7.010   4.302  1.0859  2.1316  0.4439
  626MOL0     H84471   3.547   7.014   4.184  1.3834 -0.2371 -1.7169
  626MOL0     H84472   3.600   7.017   3.549 -2.2934 -1.8729  4.4222
  626MOL0     H84473   3.792   7.071   3.405  1.0285 -2.2810 -0.1830
  626MOL0     H84474   4.112   7.296   3.532  3.3941  1.3594 -1.5352
  626MOL0     H84475   4.190   7.128   3.563  1.2857 -2.5358 -3.3364
  626MOL0     H84476   4.179   7.283   3.318 -1.7469  0.6347  2.1838
  626MOL0     H84477   4.313   7.276   3.431 -0.5690  1.5482 -0.7749
  626MOL0     H84478   4.277   7.008   3.383 -1.7455 -0.4821 -0.5721
  626MOL0     H84479   4.231   7.077   3.225  2.3641  1.7784 -2.1257
  626MOL0     H84480   4.496   7.167   3.337  2.3991  0.3942 -2.3690
  626MOL0     H84481   4.432   7.193   3.191  0.3576  2.7226  2.7717
  626MOL0     H84482   4.427   6.949   3.128 -2.0617  0.6879  0.2648
  626MOL0     H84483   4.477   6.910   3.295  0.3045  1.5283  0.6645
  626MOL0     H84484   4.663   6.893   3.116 -3.1714  0.4685 -2.9887
  626MOL0     H84485   4.645   7.062   3.102 -3.1964  1.2018 -0.3312
  626MOL0     H84486   4.714   6.935   3.370 -0.7519 -2.0485 -1.7012
  626MOL0     H84487   4.742   7.107   3.326  0.1069  1.0283 -1.2397
  626MOL0     H84488   4.895   6.888   3.180 -1.5101  0.3592 -2.2033
  626MOL0     H84489   4.913   7.066   3.173 -0.8176  1.0828  1.7831
  626MOL0     H84490   4.025   7.170   3.732 -1.0482 -0.4550  1.5473
  626MOL0     H84491   3.842   7.126   3.892  0.4266 -1.5571  0.0103
  626MOL0     H84492   3.339   7.000   3.815 -1.5369 -1.7148  0.3939
  626MOL0     H84493   3.134   6.944   3.909 -1.7058 -3.8860  2.3649
  626MOL0     H84494   1.631   7.890   3.330  1.3893 -1.1088  1.8374
  626MOL0     H84495   1.391   7.886   3.279 -0.1665  0.6964 -0.4506
  626MOL0     H84496   1.038   7.644   3.140  2.3025  1.8794 -1.2056
  626MOL0     H84497   0.802   7.573   3.037 -1.6129  3.2486 -1.3486
  626MOL0     H84498   0.745   7.727   2.705  1.2664 -0.7806 -0.9756
  626MOL0     H84499   0.609   7.654   2.771  0.8748 -1.4324  1.4332
  626MOL0     H84500   0.755   7.518   2.533 -1.5237 -1.9882 -0.5634
  626MOL0     H84501   0.628   7.636   2.506 -1.3181 -0.0605  0.5147
  626MOL0     H84502   0.595   7.383   2.671  0.6816 -1.1366 -1.0152
  626MOL0     H84503   0.579   7.389   2.494 -1.4574  0.5947 -1.3442
  626MOL0     H84504   0.405   7.537   2.687 -1.1479 -0.8687 -0.0978
  626MOL0     H84505   0.398   7.571   2.512 -0.1543  2.4770  2.7636
  626MOL0     H84506   0.170   7.225   2.521 -1.4999  2.4870 -0.5679
  626MOL0     H84507   0.966   7.577   2.660  3.0596 -1.0700  0.0318
  626MOL0     H84508   1.309   7.625   2.759 -0.5110 -0.0669  0.9798
  626MOL0     H84509   1.205   7.623   2.616 -1.2863 -0.5705 -0.9355
  626MOL0     H84510   1.240   7.781   2.688 -0.0972 -0.7286 -2.1816
  627MOL0     O84511   4.690   0.392   0.659  0.0119  0.0684  0.4910
  627MOL0     C84512   4.741   0.492   0.700  0.7968  0.1023 -0.0751
  627MOL0     O84513   4.707   0.557   0.810  0.6220 -0.7290  0.0671
  627MOL0     C84514   4.621   0.505   0.908 -0.3904  0.0155  0.1736
  627MOL0     C84515   4.644   0.568   1.035  1.4734 -0.1562  0.1292
  627MOL0     C84516   4.573   0.522   1.143  0.2963 -0.1210  0.4764
  627MOL0     C84517   4.482   0.419   1.142 -0.2384  1.0038  0.1691
  627MOL0     O84518   4.422   0.376   1.259  0.1133 -0.6498 -0.3008
  627MOL0     C84519   4.301   0.308   1.235  0.1747 -0.0984 -0.1060
  627MOL0     C84520   4.199   0.330   1.350  0.1493 -0.3272 -0.4210
  627MOL0     C84521   4.083   0.226   1.326 -0.3853  0.0720  0.8586
  627MOL0     C84522   3.951   0.287   1.275  0.9641  0.0028 -1.0045
  627MOL0     C84523   3.853   0.180   1.257 -0.3438  0.3340 -0.0377
  627MOL0     C84524   3.702   0.227   1.270 -0.5350  0.5322  0.5555
  627MOL0     C84525   3.662   0.324   1.159 -0.6100 -0.0967  0.0742
  627MOL0     C84526   3.525   0.387   1.187 -0.1132  0.0113 -0.2094
  627MOL0     N84527   3.517   0.488   1.295 -0.4326 -0.6584  0.6270
  627MOL0     C84528   3.603   0.596   1.299 -0.6603  0.0258 -0.0737
  627MOL0     C84529   3.578   0.662   1.421  0.4530  0.3837  0.4091
  627MOL0     C84530   3.655   0.781   1.468  0.0805 -0.3149  0.1341
  627MOL0     C84531   3.809   0.773   1.456 -0.0278 -0.1569  0.1561
  627MOL0     C84532   3.881   0.662   1.540 -0.3459  0.6435 -0.2499
  627MOL0     C84533   4.028   0.696   1.544  0.2282 -0.4320  0.6235
  627MOL0     O84534   4.098   0.674   1.422  0.3870 -0.2894 -0.1999
  627MOL0     C84535   4.229   0.718   1.430 -0.3338  0.0953 -1.3663
  627MOL0     C84536   4.332   0.640   1.481 -0.0908 -0.1882  0.0890
  627MOL0     C84537   4.461   0.684   1.468 -0.0907  0.9850 -0.2801
  627MOL0     C84538   4.487   0.821   1.432  0.0965  0.1542  0.1827
  627MOL0     C84539   4.623   0.869   1.418 -0.2500 -0.5500 -1.0741
  627MOL0     O84540   4.734   0.798   1.469 -0.2841  0.3789 -0.9469
  627MOL0     C84541   4.857   0.850   1.459  0.3870  0.1876 -0.6416
  627MOL0     C84542   4.890   0.969   1.526  1.7629 -0.2894 -0.5722
  627MOL0     C84543   5.010   1.028   1.508  0.4179  1.4428 -0.0332
  627MOL0     C84544   5.113   0.965   1.430  0.2917 -0.4122  0.4628
  627MOL0     O84545   5.230   1.036   1.420  0.1853  0.6822  0.1313
  627MOL0     C84546   5.268   1.062   1.276  0.6134 -0.1150 -0.6635
  627MOL0     C84547   5.382   1.171   1.276 -0.4074 -0.1915  0.4725
  627MOL0     C84548   5.438   1.189   1.139 -0.7215  0.3024 -0.4753
  627MOL0     C84549   5.583   1.243   1.126  0.3884 -0.4401 -0.7858
  627MOL0     C84550   5.647   1.249   0.986 -0.2262  0.4221 -0.9578
  627MOL0     C84551   5.791   1.306   0.993  0.1411 -0.9821  0.5597
  627MOL0     C84552   5.850   1.328   0.848  0.1299  0.5015  0.4208
  627MOL0     C84553   5.989   1.371   0.835 -1.0863 -0.0987 -0.1378
  627MOL0    Cl84554   6.116   1.262   0.890 -0.2854 -0.3573  0.0084
  627MOL0     C84555   5.089   0.842   1.370  0.1639  0.2105  0.1405
  627MOL0     C84556   4.954   0.785   1.381  0.5596  0.1654 -0.2516
  627MOL0     O84557   4.632   0.980   1.363  0.7940 -0.8341  0.7945
  627MOL0     C84558   4.374   0.908   1.400  0.1541  0.8237 -0.0983
  627MOL0     C84559   4.250   0.844   1.386 -0.3717 -0.6230 -0.6570
  627MOL0     N84560   3.476   0.594   1.471  0.9377  0.3278  0.1952
  627MOL0     N84561   3.442   0.485   1.405 -0.8760 -1.4362 -0.7634
  627MOL0     C84562   4.470   0.349   1.019 -0.2295 -0.4182  0.5032
  627MOL0     C84563   4.535   0.395   0.907 -0.5087  0.6130 -0.2157
  627MOL0     C84564   4.862   0.550   0.625 -0.2698  0.4859 -0.2267
  627MOL0     C84565   4.952   0.630   0.696  0.2198  1.0745  0.2986
  627MOL0     C84566   5.084   0.663   0.650  0.5128 -0.4113  1.1400
  627MOL0     C84567   5.129   0.603   0.526  0.8480  0.1762 -0.1518
  627MOL0     O84568   5.255   0.615   0.472  0.0288  0.2331 -0.1721
  627MOL0     C84569   5.374   0.632   0.557  0.5089 -0.0733  0.0229
  627MOL0     C84570   5.433   0.506   0.608 -0.3712  0.4352 -0.2589
  627MOL0     C84571   5.562   0.522   0.695 -1.1569 -0.4948  0.7908
  627MOL0     C84572   5.683   0.556   0.601  0.3503 -0.2821 -0.6982
  627MOL0     C84573   5.803   0.565   0.667 -0.2982  0.0843 -0.2604
  627MOL0     C84574   5.912   0.571   0.724 -0.4577  0.2219  0.2521
  627MOL0     C84575   5.037   0.535   0.453 -0.4987 -0.3671  0.1618
  627MOL0     C84576   4.909   0.514   0.494  0.1409  0.1417  0.6954
  627MOL0     C84577   4.836   0.440   0.383 -0.3827  0.3311 -0.3569
  627MOL0     H84578   4.721   0.645   1.038  0.8029  0.7491 -2.5103
  627MOL0     H84579   4.589   0.564   1.242 -0.6770  0.2826  0.4732
  627MOL0     H84580   4.254   0.351   1.145  2.5176  4.0353  0.4024
  627MOL0     H84581   4.324   0.202   1.224 -1.6658 -0.7448  1.6715
  627MOL0     H84582   4.158   0.431   1.350  0.3006 -0.2614 -1.2380
  627MOL0     H84583   4.254   0.308   1.442  3.5118 -1.6233 -2.5714
  627MOL0     H84584   4.061   0.173   1.419 -0.9137 -2.9179 -0.8317
  627MOL0     H84585   4.127   0.150   1.260  0.5464  1.9090 -0.7583
  627MOL0     H84586   3.927   0.365   1.348 -0.1939  0.5717 -1.9493
  627MOL0     H84587   3.955   0.343   1.181  0.7298  0.8628 -0.5103
  627MOL0     H84588   3.866   0.133   1.159 -0.7560  0.9815 -0.4181
  627MOL0     H84589   3.867   0.112   1.341 -1.6212 -0.6957 -0.6169
  627MOL0     H84590   3.634   0.142   1.271 -2.2093  1.7694 -0.8056
  627MOL0     H84591   3.691   0.273   1.369  1.1251  1.6656  0.2499
  627MOL0     H84592   3.654   0.276   1.061  0.2255 -2.0272  0.9052
  627MOL0     H84593   3.737   0.402   1.160  1.1974 -1.7729  0.9849
  627MOL0     H84594   3.484   0.424   1.092 -2.8244 -0.1990  0.7950
  627MOL0     H84595   3.454   0.307   1.209 -2.6200  2.3990  1.1249
  627MOL0     H84596   3.684   0.620   1.232  1.2279  0.3887  2.1832
  627MOL0     H84597   3.615   0.874   1.424  2.2828  1.0394  0.8461
  627MOL0     H84598   3.628   0.781   1.574 -3.1656 -1.3110 -0.5610
  627MOL0     H84599   3.833   0.756   1.350 -2.6782  0.1607 -0.5710
  627MOL0     H84600   3.844   0.868   1.496 -0.1676 -0.9433  2.2527
  627MOL0     H84601   3.877   0.560   1.500 -1.9509  0.8809 -0.7379
  627MOL0     H84602   3.838   0.670   1.640 -1.4062  0.3632 -0.6684
  627MOL0     H84603   4.068   0.630   1.621 -1.3700 -1.7673  0.3433
  627MOL0     H84604   4.051   0.795   1.584 -0.3318 -0.3478  0.7376
  627MOL0     H84605   4.299   0.542   1.512 -2.4836  0.4119 -0.3120
  627MOL0     H84606   4.539   0.623   1.513 -2.4121 -2.2789 -0.3611
  627MOL0     H84607   4.824   1.028   1.589  1.7294  2.3074 -2.8873
  627MOL0     H84608   5.031   1.117   1.566 -0.4318  0.6999  1.4702
  627MOL0     H84609   5.308   0.965   1.244  1.4689  0.0429 -0.0925
  627MOL0     H84610   5.180   1.095   1.221  1.9483  1.7340 -1.7964
  627MOL0     H84611   5.351   1.262   1.328 -3.6028 -0.4547 -0.7447
  627MOL0     H84612   5.464   1.128   1.334 -1.9357 -0.8483  2.2612
  627MOL0     H84613   5.432   1.092   1.088 -1.2634  0.7979 -1.3745
  627MOL0     H84614   5.372   1.254   1.081 -0.9945 -0.6028 -1.2087
  627MOL0     H84615   5.638   1.188   1.202 -2.5921 -0.6357  1.4032
  627MOL0     H84616   5.581   1.345   1.166 -0.0169  0.4379 -2.9084
  627MOL0     H84617   5.595   1.307   0.909  2.2234 -0.4194 -3.4098
  627MOL0     H84618   5.639   1.146   0.949 -1.2370 -0.4842  1.5667
  627MOL0     H84619   5.791   1.407   1.036 -1.1450 -1.0956  0.8764
  627MOL0     H84620   5.858   1.238   1.047 -0.4939 -0.2485  2.3542
  627MOL0     H84621   5.786   1.411   0.815 -2.0124 -0.8285  1.0323
  627MOL0     H84622   5.808   1.245   0.791 -3.6124  2.3545  0.1293
  627MOL0     H84623   6.008   1.410   0.734  1.3117  3.3796  1.4659
  627MOL0     H84624   6.007   1.461   0.894  0.6831 -0.3768 -0.1768
  627MOL0     H84625   5.166   0.784   1.321  1.4897  1.6342  0.4696
  627MOL0     H84626   4.925   0.691   1.333  2.9797  0.3160 -2.2407
  627MOL0     H84627   4.381   1.013   1.375 -4.1387  1.1230 -0.7471
  627MOL0     H84628   4.166   0.906   1.355 -0.8739  0.1641  1.9740
  627MOL0     H84629   4.420   0.253   1.012 -2.3910  0.7630 -2.2401
  627MOL0     H84630   4.527   0.331   0.820 -0.9570 -0.5167  0.6216
  627MOL0     H84631   4.914   0.660   0.793 -1.4686 -1.1246  0.3882
  627MOL0     H84632   5.148   0.729   0.707 -2.7258  2.7723  1.4153
  627MOL0     H84633   5.343   0.701   0.635  1.9651  2.3562 -1.4076
  627MOL0     H84634   5.454   0.681   0.500 -0.2602 -0.2223 -1.2200
  627MOL0     H84635   5.443   0.431   0.529  0.9444  0.7657 -0.4331
  627MOL0     H84636   5.365   0.463   0.682 -0.9560 -0.1988 -1.1439
  627MOL0     H84637   5.579   0.430   0.752 -0.9246 -0.0900  1.3774
  627MOL0     H84638   5.558   0.602   0.770 -0.7855  0.6712 -0.3945
  627MOL0     H84639   5.686   0.484   0.518  0.0836  0.4301 -1.3421
  627MOL0     H84640   5.677   0.656   0.559  3.0645 -0.0854 -0.7478
  627MOL0     H84641   6.011   0.562   0.764 -0.1519 -0.7590 -0.6913
  627MOL0     H84642   5.072   0.491   0.359 -1.5516 -0.2792 -0.2784
  627MOL0     H84643   4.891   0.346   0.370  0.5944  0.7349  0.6285
  627MOL0     H84644   4.733   0.425   0.417  0.1217  1.1434  1.7101
  627MOL0     H84645   4.824   0.500   0.293 -1.6314  1.5214  0.5592
  628MOL0     O84646   4.550   1.532   1.408  0.4166 -0.4089 -0.6588
  628MOL0     C84647   4.512   1.412   1.390  1.1772  0.3754  0.1203
  628MOL0     O84648   4.589   1.313   1.346 -0.5271  0.0694 -0.4036
  628MOL0     C84649   4.715   1.335   1.301  0.5193  0.1577  0.2428
  628MOL0     C84650   4.824   1.283   1.360 -0.8840  0.6911  1.0504
  628MOL0     C84651   4.952   1.321   1.316 -0.3052  0.3449  0.5135
  628MOL0     C84652   4.967   1.415   1.209  0.2431  0.5494  0.6085
  628MOL0     O84653   5.094   1.456   1.176 -0.3033  0.2979  0.3595
  628MOL0     C84654   5.122   1.595   1.176 -0.2336  0.0137 -0.6201
  628MOL0     C84655   5.274   1.630   1.188 -1.0650 -0.3621 -0.4367
  628MOL0     C84656   5.327   1.629   1.330  0.7098 -0.3202  0.1248
  628MOL0     C84657   5.449   1.713   1.346 -1.5359 -0.4955  0.0955
  628MOL0     C84658   5.567   1.649   1.279 -0.3017  0.3028 -0.3821
  628MOL0     C84659   5.666   1.760   1.243 -0.0811  0.3764 -0.4562
  628MOL0     C84660   5.800   1.708   1.188  0.6817 -0.3853  1.1417
  628MOL0     C84661   5.891   1.667   1.305  0.8796 -0.7439  0.6517
  628MOL0     N84662   6.010   1.590   1.264  0.0504  0.1561  0.6698
  628MOL0     C84663   6.018   1.449   1.282 -0.2185 -0.7352  0.0833
  628MOL0     C84664   6.145   1.422   1.242  0.6342 -0.2884  0.8996
  628MOL0     C84665   6.203   1.293   1.247  0.4472  0.3189  0.7667
  628MOL0     C84666   6.340   1.313   1.321 -0.6380 -0.5545  0.4188
  628MOL0     C84667   6.411   1.182   1.354  0.7651 -0.2306 -0.2923
  628MOL0     C84668   6.546   1.202   1.419 -0.9260 -1.1521  0.7349
  628MOL0     O84669   6.525   1.286   1.530  0.2259 -0.1964 -0.5957
  628MOL0     C84670   6.622   1.319   1.621  0.1418  0.9922 -0.1031
  628MOL0     C84671   6.588   1.395   1.730  0.1026 -0.1011  0.2838
  628MOL0     C84672   6.689   1.436   1.819  0.6146  0.3545 -0.2918
  628MOL0     C84673   6.815   1.379   1.817 -0.7763  1.0976  0.1658
  628MOL0     C84674   6.912   1.395   1.927 -0.3603  0.1674 -0.7692
  628MOL0     O84675   6.862   1.462   2.039  0.0454  0.1397  0.4417
  628MOL0     C84676   6.939   1.474   2.156  0.7602 -0.6604  0.8166
  628MOL0     C84677   6.907   1.584   2.245 -0.3070  0.1160 -0.0325
  628MOL0     C84678   6.973   1.595   2.365 -0.0813  0.0322  0.0052
  628MOL0     C84679   7.066   1.496   2.400 -0.1708 -0.2970 -0.2072
  628MOL0     O84680   7.145   1.524   2.506  0.4712 -0.3006 -0.0232
  628MOL0     C84681   7.147   1.418   2.602  0.4403  0.5250 -0.0783
  628MOL0     C84682   7.144   1.478   2.744 -0.9131 -0.0854 -0.1670
  628MOL0     C84683   7.004   1.540   2.781  0.5639  0.0056  0.2603
  628MOL0     C84684   6.883   1.451   2.776  0.4975  1.3666  0.0338
  628MOL0     C84685   6.758   1.528   2.811 -1.2584 -0.0297  0.3472
  628MOL0     C84686   6.627   1.463   2.765  0.1193  0.2847  0.3685
  628MOL0     C84687   6.594   1.479   2.616  0.2121 -0.6942  0.0076
  628MOL0     C84688   6.464   1.421   2.588  0.8571  0.3898  0.4102
  628MOL0    Cl84689   6.402   1.484   2.435 -0.3099 -0.0961 -0.1253
  628MOL0     C84690   7.084   1.383   2.325  0.4282  0.2053  0.6325
  628MOL0     C84691   7.018   1.366   2.207  0.0499 -0.4246 -0.1370
  628MOL0     O84692   7.033   1.364   1.916 -0.2077  0.5736  0.5778
  628MOL0     C84693   6.844   1.298   1.710  0.0532 -0.2119 -0.6647
  628MOL0     C84694   6.752   1.276   1.605 -0.0942 -0.0558 -0.9358
  628MOL0     N84695   6.200   1.538   1.188 -0.0659 -0.5363  1.2308
  628MOL0     N84696   6.123   1.638   1.201  0.6539 -0.2065  0.2194
  628MOL0     C84697   4.858   1.460   1.147  0.0690 -0.4145  0.3551
  628MOL0     C84698   4.725   1.431   1.192 -0.0625  0.2278  0.4959
  628MOL0     C84699   4.361   1.382   1.400  0.5223 -0.0422  0.5956
  628MOL0     C84700   4.315   1.277   1.317 -0.1308  0.0986 -0.2336
  628MOL0     C84701   4.177   1.255   1.314 -0.1025  0.9672  0.4418
  628MOL0     C84702   4.085   1.314   1.398 -0.2840  0.6107  0.4518
  628MOL0     O84703   3.952   1.266   1.407  0.2029 -0.2053 -0.6872
  628MOL0     C84704   3.890   1.165   1.331 -0.8375 -0.0868  0.9270
  628MOL0     C84705   3.855   1.220   1.189 -0.1620 -0.3712 -0.9396
  628MOL0     C84706   3.737   1.310   1.201  0.4367 -0.3970 -0.7573
  628MOL0     C84707   3.668   1.335   1.069  0.1654  0.2100 -0.5943
  628MOL0     C84708   3.696   1.461   1.001 -1.1386  0.2430  0.3379
  628MOL0     C84709   3.718   1.563   0.932  0.6052 -0.2447 -0.1287
  628MOL0     C84710   4.137   1.419   1.474 -0.0053  0.3504 -0.4841
  628MOL0     C84711   4.269   1.454   1.474  0.7559 -0.5326  0.1950
  628MOL0     C84712   4.306   1.569   1.571 -0.1433  0.5291  0.2889
  628MOL0     H84713   4.817   1.206   1.436  0.5564 -1.1335 -0.5528
  628MOL0     H84714   5.044   1.278   1.355  0.4451  0.1790 -1.3012
  628MOL0     H84715   5.080   1.655   1.095  0.8339 -0.3790 -1.4899
  628MOL0     H84716   5.066   1.623   1.265 -2.5557 -1.0845 -1.6606
  628MOL0     H84717   5.288   1.725   1.135 -3.1099 -0.5874 -1.4860
  628MOL0     H84718   5.332   1.558   1.129 -1.1586 -1.2891  0.5719
  628MOL0     H84719   5.349   1.534   1.380 -1.4833 -0.1760  1.4842
  628MOL0     H84720   5.249   1.672   1.394 -0.3259 -0.2429 -1.1503
  628MOL0     H84721   5.435   1.814   1.305  0.8065  0.1349  0.7236
  628MOL0     H84722   5.479   1.747   1.445  1.2258  2.5588 -1.6006
  628MOL0     H84723   5.614   1.571   1.341  0.7649  2.2915  1.4753
  628MOL0     H84724   5.546   1.605   1.181  2.8264  2.0410 -1.9920
  628MOL0     H84725   5.614   1.824   1.172 -2.6847 -0.2484  0.7423
  628MOL0     H84726   5.700   1.820   1.328  1.6157  1.2576 -1.6984
  628MOL0     H84727   5.849   1.789   1.133 -0.4683  0.6118  1.5464
  628MOL0     H84728   5.799   1.628   1.113  1.6031  1.1867 -0.6343
  628MOL0     H84729   5.928   1.756   1.357  0.5144  1.3512 -2.3778
  628MOL0     H84730   5.836   1.606   1.377  1.6024 -0.4940  1.4220
  628MOL0     H84731   5.946   1.381   1.327  1.1104 -0.1439  3.4573
  628MOL0     H84732   6.140   1.221   1.301  0.4138  0.7891  1.3614
  628MOL0     H84733   6.229   1.262   1.145  1.0829  2.2575  0.2941
  628MOL0     H84734   6.401   1.370   1.251  0.1903 -0.6978  1.0197
  628MOL0     H84735   6.324   1.368   1.414 -0.0185  1.2227 -0.4841
  628MOL0     H84736   6.419   1.133   1.257 -0.1565 -0.1307 -0.4302
  628MOL0     H84737   6.347   1.123   1.420  0.3398  1.9860  1.4160
  628MOL0     H84738   6.613   1.251   1.348 -2.6299 -0.6327 -0.5695
  628MOL0     H84739   6.584   1.103   1.446  0.2363 -1.2687 -1.1586
  628MOL0     H84740   6.487   1.433   1.733 -0.0089 -0.4004  0.3853
  628MOL0     H84741   6.655   1.496   1.903 -2.5493 -2.8335  0.9434
  628MOL0     H84742   6.826   1.652   2.221  0.0707  0.2065 -1.1236
  628MOL0     H84743   6.964   1.680   2.432  0.5069  1.4411 -1.6003
  628MOL0     H84744   7.066   1.347   2.587  0.3769 -0.1351  2.7412
  628MOL0     H84745   7.231   1.350   2.588 -1.4101 -1.4401 -2.1852
  628MOL0     H84746   7.171   1.396   2.812 -1.8534  0.4385  0.8710
  628MOL0     H84747   7.220   1.557   2.743 -3.1412  2.1769 -1.1233
  628MOL0     H84748   7.018   1.580   2.882 -2.0814 -1.4617  1.3100
  628MOL0     H84749   6.980   1.624   2.715 -3.1476  1.9785  3.6894
  628MOL0     H84750   6.909   1.378   2.854  2.2660  0.6990 -1.1165
  628MOL0     H84751   6.872   1.391   2.685  0.8621  0.2368  0.7075
  628MOL0     H84752   6.766   1.622   2.755 -1.5023  0.3722  0.9674
  628MOL0     H84753   6.759   1.560   2.916 -0.6916 -2.0141  0.9865
  628MOL0     H84754   6.640   1.355   2.778 -2.1593 -0.0247  0.3511
  628MOL0     H84755   6.551   1.499   2.834  2.3900 -0.9968  3.8292
  628MOL0     H84756   6.672   1.435   2.553 -0.9281  0.2326 -2.1427
  628MOL0     H84757   6.587   1.586   2.600 -3.3659 -0.2493  3.1506
  628MOL0     H84758   6.475   1.312   2.592 -0.6060  0.0974 -1.6883
  628MOL0     H84759   6.390   1.447   2.665 -3.1127 -0.8377 -2.6339
  628MOL0     H84760   7.156   1.305   2.349 -0.7779 -1.1655 -0.0651
  628MOL0     H84761   7.048   1.288   2.138  1.4010 -1.3717  1.4465
  628MOL0     H84762   6.945   1.260   1.695 -1.1382 -3.6172 -0.8599
  628MOL0     H84763   6.783   1.230   1.511  1.2647 -1.5975  0.1908
  628MOL0     H84764   4.871   1.536   1.071  0.3355  0.2622  1.0765
  628MOL0     H84765   4.642   1.478   1.140  0.2289 -2.0040 -2.2165
  628MOL0     H84766   4.390   1.224   1.258 -0.4519  0.9196 -1.4219
  628MOL0     H84767   4.134   1.175   1.255 -1.4606  1.3236  0.9035
  628MOL0     H84768   3.805   1.130   1.389 -0.1069  2.0289  3.4851
  628MOL0     H84769   3.958   1.079   1.321  0.1638  0.9150 -3.0442
  628MOL0     H84770   3.831   1.132   1.127  1.2575 -1.5475  0.1160
  628MOL0     H84771   3.939   1.278   1.149  1.0837 -1.6055 -0.1907
  628MOL0     H84772   3.775   1.402   1.245 -2.1902  0.6173 -0.4088
  628MOL0     H84773   3.658   1.276   1.269  1.4951 -2.2963 -0.3939
  628MOL0     H84774   3.687   1.256   0.995 -0.7581  0.4413 -1.0940
  628MOL0     H84775   3.560   1.338   1.081  0.0955 -2.4866  0.0584
  628MOL0     H84776   3.738   1.654   0.879 -0.2838  1.3737  2.1892
  628MOL0     H84777   4.076   1.465   1.551  0.3395 -0.0883  0.0572
  628MOL0     H84778   4.328   1.653   1.505  0.7732 -0.3318 -0.5315
  628MOL0     H84779   4.220   1.592   1.635 -1.8334  0.1520 -1.7549
  628MOL0     H84780   4.392   1.544   1.635 -1.0957  2.3831  2.4291
  629MOL0     O84781   7.321  10.964   8.215  0.8492 -0.0876  0.4412
  629MOL0     C84782   7.281  11.061   8.153 -0.8996  0.2039  0.2656
  629MOL0     O84783   7.353  11.115   8.051 -0.1160 -0.3357  0.1303
  629MOL0     C84784   7.469  11.052   8.018 -0.2861 -0.2768 -0.3076
  629MOL0     C84785   7.476  10.922   7.964  0.3138  0.5686  0.0309
  629MOL0     C84786   7.602  10.873   7.932  0.9289  0.2499  0.4319
  629MOL0     C84787   7.714  10.964   7.933  0.0887 -0.0955 -0.3532
  629MOL0     O84788   7.844  10.932   7.898 -0.3193 -0.2769  0.6759
  629MOL0     C84789   7.897  10.809   7.940  0.0090 -0.1320 -0.1320
  629MOL0     C84790   8.008  10.831   8.044 -0.2439  0.3588 -0.4855
  629MOL0     C84791   8.132  10.891   7.979 -0.0632  0.2617  0.6852
  629MOL0     C84792   8.229  10.951   8.079  0.4193  0.0778 -0.2037
  629MOL0     C84793   8.380  10.977   8.058  0.6803  0.6718 -0.0260
  629MOL0     C84794   8.457  10.994   8.190  0.8760  0.5722  0.3594
  629MOL0     C84795   8.607  11.021   8.175 -0.2132  0.5138  0.2870
  629MOL0     C84796   8.667  11.021   8.309 -0.5984 -0.1621 -0.7289
  629MOL0     N84797   8.678  10.883   8.366  0.0299 -0.1027  0.5228
  629MOL0     C84798   8.782  10.800   8.336  0.5758  0.2310  0.5075
  629MOL0     C84799   8.773  10.691   8.418  0.7637  0.5067  0.4458
  629MOL0     C84800   8.865  10.573   8.423  0.1333  0.3405 -0.1736
  629MOL0     C84801   9.007  10.615   8.456  0.1791  0.0256 -0.2987
  629MOL0     C84802   9.016  10.709   8.575  0.2061 -0.0650  0.6141
  629MOL0     C84803   9.162  10.738   8.606 -0.8143 -0.6043 -0.8295
  629MOL0     O84804   9.218  10.815   8.496  0.2345 -0.7846  0.0192
  629MOL0     C84805   9.357  10.804   8.487  0.2417  0.3917  0.3728
  629MOL0     C84806   9.407  10.789   8.359 -0.2233 -0.3700  1.0981
  629MOL0     C84807   9.541  10.781   8.330  0.0362  0.1173 -0.6722
  629MOL0     C84808   9.643  10.794   8.437  0.5757  0.8421 -0.0467
  629MOL0     C84809   9.788  10.802   8.408  0.4743  0.8369  0.0933
  629MOL0     O84810   9.880  10.781   8.516 -0.7972  0.0918  1.0276
  629MOL0     C84811  10.018  10.756   8.499 -0.4508  0.2192 -0.6803
  629MOL0     C84812  10.104  10.808   8.405  0.4694  0.8313 -0.8173
  629MOL0     C84813  10.238  10.793   8.411  0.0784 -0.2816  0.2739
  629MOL0     C84814  10.289  10.727   8.520 -0.3039 -0.9057  0.4494
  629MOL0     O84815  10.427  10.721   8.545 -0.3011  0.0124 -0.3974
  629MOL0     C84816  10.529  10.777   8.461 -0.3727 -0.2109 -0.0232
  629MOL0     C84817  10.667  10.778   8.526  0.4566 -0.0072  0.7224
  629MOL0     C84818  10.661  10.814   8.673  0.8419 -0.0351  0.8340
  629MOL0     C84819  10.805  10.838   8.722 -0.1092  0.6763  0.0902
  629MOL0     C84820  10.787  10.865   8.875 -0.6871 -0.0474 -0.2454
  629MOL0     C84821  10.927  10.886   8.933  0.6001  0.0535 -0.3996
  629MOL0     C84822  10.910  10.868   9.085 -0.9032  0.0877 -0.7156
  629MOL0     C84823  11.015  10.957   9.160 -0.3048 -0.4774  0.8124
  629MOL0    Cl84824  10.976  11.118   9.103 -0.5667  0.3472  0.2662
  629MOL0     C84825  10.210  10.681   8.621 -0.5876  0.5556  0.1376
  629MOL0     C84826  10.075  10.696   8.609  0.3666  0.4097 -0.2961
  629MOL0     O84827   9.810  10.810   8.294 -0.6180 -0.0178 -0.7327
  629MOL0     C84828   9.591  10.803   8.567  0.4857  0.2400 -0.5370
  629MOL0     C84829   9.448  10.803   8.593 -0.4265  0.0220  0.0228
  629MOL0     N84830   8.645  10.695   8.475 -0.0295 -0.0071  0.2036
  629MOL0     N84831   8.593  10.811   8.446 -0.8859 -0.5147 -0.0192
  629MOL0     C84832   7.703  11.090   7.994  0.4498 -0.2488  1.1900
  629MOL0     C84833   7.579  11.133   8.038  0.3778 -0.6573  0.0774
  629MOL0     C84834   7.150  11.121   8.194 -0.6323  0.4583  0.1705
  629MOL0     C84835   7.111  11.242   8.147 -0.6880 -0.6126  0.0737
  629MOL0     C84836   6.985  11.286   8.187 -0.3758 -0.6470 -0.7360
  629MOL0     C84837   6.913  11.238   8.296  0.4517  0.1915  0.3020
  629MOL0     O84838   6.800  11.308   8.323  0.4157 -0.3375  0.0185
  629MOL0     C84839   6.739  11.290   8.451 -0.0510  0.1806 -1.1668
  629MOL0     C84840   6.650  11.163   8.474  0.3371  0.5554  0.7269
  629MOL0     C84841   6.584  11.119   8.341 -0.2017  0.0389 -0.1226
  629MOL0     C84842   6.494  10.995   8.360 -0.0232 -0.1728 -0.6267
  629MOL0     C84843   6.366  11.027   8.429 -0.5122  0.0166  0.4624
  629MOL0     C84844   6.280  11.070   8.495  0.5074 -0.3930  0.0366
  629MOL0     C84845   6.961  11.122   8.351  0.2671  0.2481  0.4189
  629MOL0     C84846   7.074  11.061   8.302 -0.0468  0.8854  0.5676
  629MOL0     C84847   7.098  10.929   8.375 -0.1723  0.3941  0.0121
  629MOL0     H84848   7.384  10.863   7.967 -0.3526  1.6064  0.9907
  629MOL0     H84849   7.622  10.776   7.887 -2.0454 -0.3250  0.0964
  629MOL0     H84850   7.820  10.740   7.976 -0.9942  0.0849 -1.7346
  629MOL0     H84851   7.940  10.762   7.851 -3.0528 -2.1956 -0.7081
  629MOL0     H84852   8.044  10.732   8.073 -3.3558 -1.3400 -2.0368
  629MOL0     H84853   7.980  10.889   8.132 -0.3412 -0.1620 -0.1677
  629MOL0     H84854   8.093  10.977   7.922  1.5051  1.0706  0.7869
  629MOL0     H84855   8.180  10.819   7.913  0.7678  1.1712  0.2674
  629MOL0     H84856   8.185  11.044   8.116  2.0267  1.1779 -0.9476
  629MOL0     H84857   8.228  10.885   8.166  1.0633  3.3837  2.5617
  629MOL0     H84858   8.435  10.903   7.999  2.1194  1.2798  0.5116
  629MOL0     H84859   8.404  11.075   8.016  0.8778  0.2886 -0.8311
  629MOL0     H84860   8.407  11.078   8.239 -2.9275 -0.5457 -1.2612
  629MOL0     H84861   8.439  10.904   8.249  0.6674 -0.0074 -0.5829
  629MOL0     H84862   8.615  11.113   8.116 -1.4639 -1.1621 -2.7141
  629MOL0     H84863   8.655  10.950   8.107  3.8263  2.6456  0.6074
  629MOL0     H84864   8.761  11.074   8.294 -1.1501  1.1068  0.1678
  629MOL0     H84865   8.605  11.089   8.367 -2.1794 -0.6993 -1.7140
  629MOL0     H84866   8.864  10.817   8.266 -2.0950  0.5641 -2.7897
  629MOL0     H84867   8.827  10.507   8.502  2.9157 -2.3681 -0.8959
  629MOL0     H84868   8.867  10.520   8.327  2.1743  0.1278 -0.0462
  629MOL0     H84869   9.058  10.521   8.477 -0.6245 -0.3418  0.0026
  629MOL0     H84870   9.060  10.654   8.368 -0.0860 -1.5148 -1.1719
  629MOL0     H84871   8.962  10.661   8.657 -1.3772  0.7570  0.0926
  629MOL0     H84872   8.959  10.801   8.566  0.7961  0.4801  2.0459
  629MOL0     H84873   9.216  10.643   8.612 -0.0278 -0.1520 -0.5871
  629MOL0     H84874   9.173  10.798   8.697 -0.9845  0.6123 -1.5937
  629MOL0     H84875   9.331  10.793   8.281 -1.0554  0.7873  1.9195
  629MOL0     H84876   9.576  10.771   8.228  0.9469 -1.4010 -0.2390
  629MOL0     H84877  10.070  10.862   8.317 -0.3641 -0.5378 -1.3712
  629MOL0     H84878  10.302  10.820   8.328  1.9928 -3.1308  0.6988
  629MOL0     H84879  10.522  10.722   8.367 -4.8695  1.8669 -1.1737
  629MOL0     H84880  10.502  10.879   8.432 -0.4008  0.4736  2.1606
  629MOL0     H84881  10.710  10.677   8.514 -1.4786 -0.6007 -2.1895
  629MOL0     H84882  10.725  10.849   8.467 -0.8839  0.8827  0.4455
  629MOL0     H84883  10.602  10.905   8.691  0.2582  0.2792 -2.0945
  629MOL0     H84884  10.620  10.729   8.727  1.2671 -0.7487  0.0522
  629MOL0     H84885  10.852  10.922   8.670  0.7584  0.4668  0.5073
  629MOL0     H84886  10.862  10.748   8.695 -1.4232 -1.5597  3.9384
  629MOL0     H84887  10.733  10.793   8.938 -0.5757 -0.1028 -0.2148
  629MOL0     H84888  10.733  10.959   8.893  0.2797  0.2920  0.9498
  629MOL0     H84889  10.984  10.801   8.897  0.5331  0.1930 -0.8491
  629MOL0     H84890  10.974  10.983   8.911 -0.2583  0.5576 -0.0709
  629MOL0     H84891  10.934  10.765   9.112  1.8099  1.1520  1.4302
  629MOL0     H84892  10.809  10.889   9.122  0.4559 -0.0806  3.5931
  629MOL0     H84893  11.001  10.951   9.268 -0.6262 -1.0738  0.7413
  629MOL0     H84894  11.120  10.934   9.138 -1.3649 -3.5323 -1.9840
  629MOL0     H84895  10.259  10.637   8.708  1.8755 -1.9791 -2.3170
  629MOL0     H84896  10.009  10.685   8.694  0.0422  1.0289 -0.4649
  629MOL0     H84897   9.661  10.816   8.650  2.1425 -2.1053 -1.4603
  629MOL0     H84898   9.413  10.789   8.694 -1.4156 -2.0667 -0.5611
  629MOL0     H84899   7.799  11.137   8.015  0.2123  0.4745  0.6966
  629MOL0     H84900   7.576  11.234   8.077 -2.8615 -0.5696 -0.1280
  629MOL0     H84901   7.187  11.297   8.093 -0.7014  0.9557  1.5600
  629MOL0     H84902   6.946  11.377   8.142 -2.1769 -1.3011 -0.5902
  629MOL0     H84903   6.670  11.374   8.461  0.8722  0.9755 -1.3344
  629MOL0     H84904   6.816  11.301   8.528 -0.4683  1.4555 -0.9081
  629MOL0     H84905   6.571  11.174   8.549  1.1371 -0.1382  1.6993
  629MOL0     H84906   6.713  11.079   8.503 -2.4367 -1.6901  0.7145
  629MOL0     H84907   6.663  11.085   8.272  1.8640  3.0800  0.5444
  629MOL0     H84908   6.527  11.205   8.304 -2.2643 -0.7111  1.1653
  629MOL0     H84909   6.465  10.943   8.268 -2.3601  2.4574 -1.5167
  629MOL0     H84910   6.549  10.925   8.423 -1.9053 -1.4365 -0.3059
  629MOL0     H84911   6.197  11.095   8.558  0.6535  2.1088 -0.6245
  629MOL0     H84912   6.900  11.077   8.429 -0.4341 -0.6373 -0.6111
  629MOL0     H84913   7.186  10.937   8.439  1.6054  0.0951 -2.2597
  629MOL0     H84914   7.015  10.911   8.444  0.2113  0.1453  0.4164
  629MOL0     H84915   7.115  10.844   8.308 -3.0890  0.9209 -1.5767
  630MOL0     O84916   9.315   1.704   7.950 -1.0728  0.1404 -0.3391
  630MOL0     C84917   9.210   1.656   7.908  0.2299 -0.5730 -0.2458
  630MOL0     O84918   9.111   1.726   7.850  0.1110  0.5617  0.0205
  630MOL0     C84919   9.150   1.844   7.784  0.1034  0.6741 -0.2221
  630MOL0     C84920   9.249   1.843   7.680 -0.6393 -0.7449 -0.2815
  630MOL0     C84921   9.272   1.953   7.609 -0.0104 -0.5013  0.5387
  630MOL0     C84922   9.209   2.074   7.629 -0.9243 -1.4444  0.8193
  630MOL0     O84923   9.247   2.181   7.544  0.4111 -0.2449  0.1375
  630MOL0     C84924   9.168   2.300   7.548 -0.1415 -0.8491 -0.3879
  630MOL0     C84925   9.220   2.413   7.457  0.2181 -0.1792 -0.3734
  630MOL0     C84926   9.358   2.467   7.505  0.0328 -0.3334  0.0766
  630MOL0     C84927   9.428   2.550   7.396  0.1191  0.1705 -0.2276
  630MOL0     C84928   9.566   2.607   7.432  0.4137 -0.6011 -0.0146
  630MOL0     C84929   9.653   2.639   7.307  0.9572  1.1305  0.5244
  630MOL0     C84930   9.783   2.700   7.367  0.4747  0.0759  0.5310
  630MOL0     C84931   9.870   2.740   7.251  0.4162  0.1978  0.6301
  630MOL0     N84932   9.823   2.859   7.173  0.4994  0.9146  0.6699
  630MOL0     C84933   9.756   2.970   7.218 -0.3935 -0.2641 -0.2348
  630MOL0     C84934   9.713   3.039   7.112  0.5824 -0.2620 -0.4285
  630MOL0     C84935   9.629   3.168   7.125  0.9254 -0.0499 -0.1225
  630MOL0     C84936   9.495   3.150   7.046 -0.2384  0.2200  1.6520
  630MOL0     C84937   9.401   3.054   7.118 -1.1281 -0.5972  0.5138
  630MOL0     C84938   9.263   3.047   7.049  0.0909  1.1646  0.4119
  630MOL0     O84939   9.149   3.031   7.138 -0.2862 -0.1405  0.1998
  630MOL0     C84940   9.098   2.901   7.146 -0.4666  0.4237 -0.1077
  630MOL0     C84941   8.979   2.877   7.074 -0.0522  1.0743  0.8557
  630MOL0     C84942   8.929   2.747   7.048 -0.3525 -0.2104 -0.1506
  630MOL0     C84943   9.000   2.634   7.099 -0.0143 -0.1300  0.0801
  630MOL0     C84944   8.966   2.489   7.083  0.4915  0.8252  0.2200
  630MOL0     O84945   8.842   2.452   7.114  0.1857  0.6430  0.6673
  630MOL0     C84946   8.803   2.313   7.092 -0.5805  0.0733 -0.1872
  630MOL0     C84947   8.858   2.198   7.144 -0.3612  1.0888  0.4952
  630MOL0     C84948   8.802   2.073   7.126 -0.1889 -0.0747  0.4996
  630MOL0     C84949   8.677   2.054   7.063  0.0749 -0.8189 -0.5656
  630MOL0     O84950   8.617   1.945   7.041  0.2906 -0.7894 -0.1217
  630MOL0     C84951   8.672   1.813   7.047  0.5337  0.5853 -0.5663
  630MOL0     C84952   8.645   1.733   7.174 -0.2219 -0.4255  0.6538
  630MOL0     C84953   8.492   1.692   7.202 -0.4981  0.5722  0.3381
  630MOL0     C84954   8.495   1.568   7.299 -0.0841  0.1528 -0.6534
  630MOL0     C84955   8.361   1.492   7.272  0.4072 -0.0874  0.4966
  630MOL0     C84956   8.353   1.359   7.344 -0.0289 -0.1898 -0.1987
  630MOL0     C84957   8.220   1.292   7.339  0.5204 -0.3834 -0.4576
  630MOL0     C84958   8.239   1.150   7.403 -0.2832  0.8817  0.7205
  630MOL0    Cl84959   8.068   1.079   7.425 -0.1805  0.7254  0.2883
  630MOL0     C84960   8.622   2.178   7.014  0.3209 -0.1018 -0.5528
  630MOL0     C84961   8.679   2.303   7.026  0.2038 -0.5943  0.0688
  630MOL0     O84962   9.058   2.417   7.040 -0.0399  0.3696  0.3279
  630MOL0     C84963   9.115   2.665   7.164  0.4914 -0.4231 -0.0396
  630MOL0     C84964   9.155   2.786   7.203  0.0661  0.0460 -0.8781
  630MOL0     N84965   9.751   2.963   7.000 -0.1828  0.1416  0.1887
  630MOL0     N84966   9.828   2.865   7.038 -0.5767  0.5955 -0.1829
  630MOL0     C84967   9.124   2.080   7.732 -0.0486 -0.7922  0.8806
  630MOL0     C84968   9.089   1.969   7.806 -0.4197  0.4532 -0.8045
  630MOL0     C84969   9.205   1.504   7.891  0.2577  0.0795 -1.1782
  630MOL0     C84970   9.122   1.448   7.800  0.8046  1.0763 -0.1638
  630MOL0     C84971   9.106   1.313   7.776  0.1162  0.8582  0.2573
  630MOL0     C84972   9.176   1.217   7.848 -0.3961 -0.3924 -0.8790
  630MOL0     O84973   9.173   1.083   7.830 -1.5336  0.2774  0.4065
  630MOL0     C84974   9.091   1.019   7.732 -0.3754 -0.2282  0.5906
  630MOL0     C84975   8.949   1.019   7.771 -0.2482 -0.9064  0.3718
  630MOL0     C84976   8.936   0.935   7.896  0.3487  0.0417 -0.5233
  630MOL0     C84977   8.797   0.916   7.952  0.7589  0.1204 -0.0040
  630MOL0     C84978   8.716   0.842   7.852 -0.1405  1.0844  0.0851
  630MOL0     C84979   8.640   0.776   7.778 -0.0288 -0.6083  0.6132
  630MOL0     C84980   9.261   1.269   7.951  0.2071 -0.3475 -0.4004
  630MOL0     C84981   9.278   1.411   7.970  0.0130 -0.2438 -0.7227
  630MOL0     C84982   9.361   1.450   8.090 -0.6277  0.2622  0.1372
  630MOL0     H84983   9.296   1.751   7.649 -0.9988 -0.5239 -1.5279
  630MOL0     H84984   9.349   1.944   7.533  1.8502  3.2993  1.6967
  630MOL0     H84985   9.066   2.277   7.517 -0.9321  1.5781  0.1878
  630MOL0     H84986   9.182   2.346   7.646 -0.1550  1.1273 -1.2703
  630MOL0     H84987   9.151   2.499   7.459  0.9227  0.4821  3.6678
  630MOL0     H84988   9.225   2.360   7.361  0.7146 -0.0125 -0.4395
  630MOL0     H84989   9.426   2.382   7.517 -0.9977 -1.4509 -1.5688
  630MOL0     H84990   9.354   2.525   7.597  1.5778  2.2651 -1.3812
  630MOL0     H84991   9.442   2.491   7.304  2.4256  0.2645 -0.0065
  630MOL0     H84992   9.354   2.628   7.376  1.1094  0.7330 -1.9238
  630MOL0     H84993   9.541   2.702   7.481  0.7088 -1.6761  2.3406
  630MOL0     H84994   9.618   2.560   7.516  2.0386  0.1416 -0.5624
  630MOL0     H84995   9.674   2.549   7.249 -0.8123  1.6738 -1.0802
  630MOL0     H84996   9.593   2.700   7.239  0.1267 -1.1289 -0.8929
  630MOL0     H84997   9.825   2.628   7.438  1.1274 -0.2810 -0.1899
  630MOL0     H84998   9.759   2.790   7.424 -1.0835 -0.9909  1.6554
  630MOL0     H84999   9.972   2.759   7.285  0.5566 -0.7166  0.7415
  630MOL0     H85000   9.873   2.655   7.183 -3.0045  0.1093  0.3934
  630MOL0     H85001   9.745   2.992   7.323  0.9597  0.6187 -0.2566
  630MOL0     H85002   9.606   3.196   7.228 -1.8147 -2.7182  0.1237
  630MOL0     H85003   9.681   3.252   7.077  1.8263  0.6401  1.9296
  630MOL0     H85004   9.458   3.251   7.023  0.7083 -0.3551 -3.7156
  630MOL0     H85005   9.515   3.103   6.949  2.7723 -1.3592  2.9184
  630MOL0     H85006   9.368   3.076   7.220  0.0836  2.2734  0.3879
  630MOL0     H85007   9.452   2.958   7.119 -1.2590 -0.6737  0.0162
  630MOL0     H85008   9.264   2.960   6.982 -0.2011 -0.1823  2.0786
  630MOL0     H85009   9.242   3.133   6.985  0.8906  1.0027 -0.0772
  630MOL0     H85010   8.939   2.962   7.019  1.2755  0.8246 -0.5799
  630MOL0     H85011   8.844   2.739   6.981  0.2008 -1.7133 -0.7098
  630MOL0     H85012   8.952   2.189   7.197 -0.3872  4.5026  1.3886
  630MOL0     H85013   8.850   1.987   7.171 -0.1735 -0.4807 -0.2908
  630MOL0     H85014   8.635   1.759   6.959 -1.6501 -0.4345  0.9184
  630MOL0     H85015   8.781   1.815   7.037  0.5589 -0.9143 -0.7531
  630MOL0     H85016   8.710   1.645   7.172 -3.0261 -2.6318 -1.0944
  630MOL0     H85017   8.676   1.798   7.256 -2.9814  0.8796  0.7715
  630MOL0     H85018   8.434   1.772   7.249 -0.1047  0.1256  1.6335
  630MOL0     H85019   8.452   1.671   7.103  1.2336  1.1066 -0.5070
  630MOL0     H85020   8.508   1.612   7.399 -0.1048 -1.5358  0.1243
  630MOL0     H85021   8.574   1.496   7.278 -1.1467 -0.2636 -3.6935
  630MOL0     H85022   8.349   1.482   7.164 -1.5743 -1.7393  0.8123
  630MOL0     H85023   8.275   1.550   7.305 -0.1010 -2.0838  2.9981
  630MOL0     H85024   8.433   1.287   7.324  1.7161  0.1245  4.4712
  630MOL0     H85025   8.366   1.377   7.451  1.2979 -2.4297  0.0616
  630MOL0     H85026   8.172   1.302   7.241  1.5066 -0.8754 -1.0143
  630MOL0     H85027   8.147   1.340   7.404  1.0822 -0.7198  0.4327
  630MOL0     H85028   8.313   1.090   7.350  0.4493  2.4280 -0.0871
  630MOL0     H85029   8.298   1.148   7.495  4.1831 -2.3302 -1.8629
  630MOL0     H85030   8.536   2.172   6.949  1.7024  0.2643 -2.4866
  630MOL0     H85031   8.623   2.383   6.979  1.5180  0.4874  0.2634
  630MOL0     H85032   9.164   2.575   7.200  1.3376  0.3422  0.7832
  630MOL0     H85033   9.250   2.792   7.255 -0.2692 -2.9844  0.2912
  630MOL0     H85034   9.063   2.169   7.737  1.0237  0.5995 -4.5476
  630MOL0     H85035   9.003   1.977   7.872 -0.6424 -0.9083 -0.9109
  630MOL0     H85036   9.063   1.512   7.735  0.7729 -0.4375 -1.6980
  630MOL0     H85037   9.049   1.281   7.690  1.8954  1.4997 -1.2377
  630MOL0     H85038   9.128   0.916   7.727  0.3455  0.0436  0.0773
  630MOL0     H85039   9.117   1.075   7.642  2.5964  1.1234  2.1197
  630MOL0     H85040   8.875   0.987   7.697  1.1505 -2.3076 -0.4807
  630MOL0     H85041   8.917   1.123   7.780  1.4133 -0.1553 -1.6279
  630MOL0     H85042   9.004   0.974   7.973 -0.4887 -0.7814  0.6804
  630MOL0     H85043   8.970   0.834   7.873  0.0098  0.1925 -1.7489
  630MOL0     H85044   8.814   0.867   8.049  1.6301  1.1739  0.4001
  630MOL0     H85045   8.746   1.009   7.978 -1.0140 -0.7700 -0.1217
  630MOL0     H85046   8.558   0.737   7.721 -2.4112  3.7728  0.5787
  630MOL0     H85047   9.313   1.201   8.018 -2.0839  0.4803  2.3843
  630MOL0     H85048   9.306   1.526   8.147 -2.4191  1.1908 -2.6493
  630MOL0     H85049   9.388   1.362   8.149 -1.5627 -2.3789 -3.0575
  630MOL0     H85050   9.459   1.490   8.061 -0.7452  0.1901 -0.3655
  631MOL0     O85051   1.179   0.997   3.027 -0.3520 -0.2083 -0.2115
  631MOL0     C85052   1.176   0.879   3.057 -0.7199 -0.2745  0.0898
  631MOL0     O85053   1.286   0.796   3.084 -0.2922 -0.4059  0.0122
  631MOL0     C85054   1.399   0.827   3.013 -0.2425 -0.0211  0.2304
  631MOL0     C85055   1.408   0.761   2.888 -1.0308  0.4338  0.2085
  631MOL0     C85056   1.521   0.767   2.811  0.2200 -0.3377  0.1185
  631MOL0     C85057   1.636   0.838   2.859 -0.6715  0.2974  0.3103
  631MOL0     O85058   1.746   0.840   2.779 -0.6972  0.2124 -0.1403
  631MOL0     C85059   1.859   0.914   2.820  0.5070 -0.2331 -0.8114
  631MOL0     C85060   1.986   0.889   2.737 -0.8759 -0.9002 -1.0213
  631MOL0     C85061   2.011   0.736   2.732 -0.0337  0.3369  0.7302
  631MOL0     C85062   2.157   0.699   2.726  0.5946  0.0588 -0.1268
  631MOL0     C85063   2.186   0.551   2.759 -0.0347  0.1918 -0.0294
  631MOL0     C85064   2.317   0.501   2.690 -0.2045  0.2672  0.2681
  631MOL0     C85065   2.350   0.351   2.698 -0.2545 -0.0107  0.0594
  631MOL0     C85066   2.454   0.305   2.589  0.9719  0.3100 -0.4425
  631MOL0     N85067   2.465   0.153   2.602 -0.6974  0.8410 -0.3635
  631MOL0     C85068   2.491   0.080   2.719 -0.1734 -0.3713 -0.3496
  631MOL0     C85069   2.502  -0.050   2.677  0.7060  0.7573  0.1433
  631MOL0     C85070   2.537  -0.184   2.746 -0.1286 -0.1524  1.1344
  631MOL0     C85071   2.676  -0.217   2.786  0.8822 -0.4827 -1.5978
  631MOL0     C85072   2.778  -0.256   2.677  0.5260 -0.0008  0.2582
  631MOL0     C85073   2.728  -0.373   2.597 -0.0552 -0.2230  0.3207
  631MOL0     O85074   2.829  -0.417   2.507  0.5457 -0.1449 -0.1676
  631MOL0     C85075   2.928  -0.500   2.559 -0.4165  0.0685 -0.0808
  631MOL0     C85076   3.018  -0.549   2.472  0.4792  0.3742  0.9338
  631MOL0     C85077   3.111  -0.644   2.506  0.2763  0.6454  0.0597
  631MOL0     C85078   3.121  -0.691   2.644  1.2464  0.3554 -0.3098
  631MOL0     C85079   3.224  -0.796   2.686  0.0100  0.0661 -0.1373
  631MOL0     O85080   3.326  -0.838   2.595  0.3717  0.1058  0.4378
  631MOL0     C85081   3.378  -0.959   2.616  0.0564  0.4035 -0.1655
  631MOL0     C85082   3.297  -1.068   2.585  0.0686 -0.0918  0.3240
  631MOL0     C85083   3.339  -1.199   2.588 -0.6039 -0.5277  0.3650
  631MOL0     C85084   3.466  -1.224   2.631  0.4241 -0.3055  0.2663
  631MOL0     O85085   3.503  -1.355   2.625 -0.6688  0.8875  0.5984
  631MOL0     C85086   3.523  -1.399   2.490  0.6575 -0.0402  0.6868
  631MOL0     C85087   3.424  -1.515   2.481 -0.7953  0.1194 -0.2655
  631MOL0     C85088   3.412  -1.604   2.607  0.5489 -0.1523  0.2412
  631MOL0     C85089   3.263  -1.633   2.638 -0.0080  0.4940 -1.3874
  631MOL0     C85090   3.238  -1.731   2.757 -0.1748 -0.0921  0.1010
  631MOL0     C85091   3.279  -1.681   2.895  0.3785  0.4910 -0.3908
  631MOL0     C85092   3.183  -1.572   2.948  0.9228 -0.1697  0.6193
  631MOL0     C85093   3.195  -1.554   3.100  0.3857 -0.0193  0.1040
  631MOL0    Cl85094   3.348  -1.493   3.155  0.4980  0.2354  0.1164
  631MOL0     C85095   3.554  -1.117   2.673 -1.0126 -0.7105 -0.0135
  631MOL0     C85096   3.514  -0.983   2.655  0.2372 -0.6998 -0.8256
  631MOL0     O85097   3.194  -0.852   2.794 -0.7042  0.0487  0.8322
  631MOL0     C85098   3.025  -0.643   2.742  0.3331  0.6029 -0.2209
  631MOL0     C85099   2.928  -0.546   2.697  0.2988  0.0106  0.7084
  631MOL0     N85100   2.486  -0.046   2.541 -0.2999 -0.3440  0.6085
  631MOL0     N85101   2.464   0.070   2.495  0.1538  0.4268 -0.5800
  631MOL0     C85102   1.629   0.902   2.983  0.4130 -0.5902 -0.0237
  631MOL0     C85103   1.503   0.902   3.054 -0.0421  0.1507 -0.8682
  631MOL0     C85104   1.048   0.822   3.087 -0.6199  0.0994 -0.6597
  631MOL0     C85105   1.038   0.740   3.203 -0.6863  0.2406  0.6078
  631MOL0     C85106   0.917   0.686   3.236 -0.6797  0.9929  0.3829
  631MOL0     C85107   0.801   0.706   3.157  0.0337 -0.0298 -0.3100
  631MOL0     O85108   0.674   0.677   3.195 -0.0504 -0.6134  0.6552
  631MOL0     C85109   0.659   0.547   3.245 -0.3419  1.0013 -0.7802
  631MOL0     C85110   0.569   0.458   3.161 -0.2908 -0.0360  0.0733
  631MOL0     C85111   0.571   0.319   3.219 -0.1473  0.4082 -0.0575
  631MOL0     C85112   0.482   0.216   3.137 -0.2906 -1.2398  0.3849
  631MOL0     C85113   0.499   0.087   3.208  0.2608  0.1801  0.1469
  631MOL0     C85114   0.502  -0.021   3.265  0.5149 -0.0637  0.0031
  631MOL0     C85115   0.815   0.784   3.038  0.1027  0.7011  0.1856
  631MOL0     C85116   0.938   0.842   3.002  0.2702 -0.0419  0.2471
  631MOL0     C85117   0.951   0.912   2.865  0.7027  1.0715 -0.4157
  631MOL0     H85118   1.323   0.713   2.840 -0.6186  0.8409 -0.9689
  631MOL0     H85119   1.533   0.734   2.708 -2.4391  2.9735 -1.4706
  631MOL0     H85120   1.830   1.019   2.808  1.1573  0.2129  1.1134
  631MOL0     H85121   1.887   0.906   2.925  1.4606  0.3385 -1.0166
  631MOL0     H85122   2.072   0.939   2.783 -2.4933  2.0082 -0.9403
  631MOL0     H85123   1.974   0.931   2.637 -1.5496 -0.3694 -0.7234
  631MOL0     H85124   1.958   0.698   2.645 -0.9681 -0.2991  1.5502
  631MOL0     H85125   1.960   0.682   2.813  1.0184 -0.2479  1.0269
  631MOL0     H85126   2.202   0.718   2.628  0.4055  0.5491 -0.1216
  631MOL0     H85127   2.207   0.761   2.801  0.1792 -2.3267  2.2578
  631MOL0     H85128   2.181   0.539   2.867 -0.8428  2.0713  0.1849
  631MOL0     H85129   2.103   0.492   2.720 -1.4085  0.7968  1.8595
  631MOL0     H85130   2.305   0.526   2.584  0.3708  1.5652  0.4860
  631MOL0     H85131   2.405   0.560   2.715  0.5352  0.0420 -1.6827
  631MOL0     H85132   2.254   0.299   2.690 -1.3706  2.0053 -0.3228
  631MOL0     H85133   2.403   0.330   2.792  2.6575  0.8600 -1.2583
  631MOL0     H85134   2.426   0.331   2.487 -0.4978 -1.3861 -0.5328
  631MOL0     H85135   2.544   0.359   2.619  1.4027  0.1261 -1.3669
  631MOL0     H85136   2.493   0.111   2.823 -2.4187 -2.6483  0.5029
  631MOL0     H85137   2.465  -0.193   2.828 -0.4353  1.6387  1.1131
  631MOL0     H85138   2.496  -0.267   2.688 -1.4566  0.0723  1.7098
  631MOL0     H85139   2.718  -0.144   2.856 -0.4395 -1.4503  0.3279
  631MOL0     H85140   2.660  -0.310   2.843 -2.9778  1.1473  0.3735
  631MOL0     H85141   2.878  -0.270   2.717  0.1682 -3.0610  0.2972
  631MOL0     H85142   2.780  -0.170   2.609  0.3457  0.4203  0.7790
  631MOL0     H85143   2.640  -0.341   2.540 -0.8051  0.6501  1.8848
  631MOL0     H85144   2.701  -0.456   2.663  1.4230 -2.6557 -1.9375
  631MOL0     H85145   3.018  -0.545   2.364  3.8688 -1.1359  0.7576
  631MOL0     H85146   3.182  -0.666   2.427  0.7182  2.7860 -0.2051
  631MOL0     H85147   3.197  -1.042   2.554  0.8800 -1.5046 -4.1410
  631MOL0     H85148   3.267  -1.275   2.558 -1.1293 -1.1611  3.0104
  631MOL0     H85149   3.495  -1.318   2.421  0.2424 -0.8589 -0.1249
  631MOL0     H85150   3.627  -1.433   2.481  0.6271 -0.3344  1.4215
  631MOL0     H85151   3.328  -1.466   2.464 -1.5904 -0.6375  1.6609
  631MOL0     H85152   3.454  -1.577   2.397  1.8252  0.2645  0.4839
  631MOL0     H85153   3.474  -1.690   2.579  0.3185 -0.9950  2.1608
  631MOL0     H85154   3.455  -1.565   2.699 -0.1674 -1.7788  1.3202
  631MOL0     H85155   3.216  -1.662   2.543 -0.6064  1.3352 -1.3645
  631MOL0     H85156   3.209  -1.543   2.670  0.8456  0.2641  0.8976
  631MOL0     H85157   3.278  -1.831   2.736 -2.6831 -1.2815  0.5240
  631MOL0     H85158   3.131  -1.751   2.765  0.2258 -1.7114  2.4965
  631MOL0     H85159   3.276  -1.766   2.963  2.2268  0.7718  0.1122
  631MOL0     H85160   3.384  -1.651   2.901 -0.2065  2.5511  0.6051
  631MOL0     H85161   3.087  -1.624   2.938  1.4045 -1.1099  0.8108
  631MOL0     H85162   3.191  -1.479   2.891 -0.4009  1.1160  2.4310
  631MOL0     H85163   3.111  -1.491   3.130 -1.3431 -1.6479 -1.0611
  631MOL0     H85164   3.165  -1.648   3.149  0.1499 -1.0826 -1.9680
  631MOL0     H85165   3.656  -1.133   2.706 -1.8758 -1.2993  2.6333
  631MOL0     H85166   3.579  -0.897   2.666 -0.7870 -0.1324  1.3930
  631MOL0     H85167   3.022  -0.685   2.842  3.6405  0.6063 -0.0287
  631MOL0     H85168   2.851  -0.522   2.769 -0.8273  1.8797 -1.0102
  631MOL0     H85169   1.695   0.964   3.043 -0.6376 -0.5696  1.1478
  631MOL0     H85170   1.497   0.961   3.145 -1.0629 -0.7100 -0.3712
  631MOL0     H85171   1.123   0.725   3.270  0.3698  3.0185  0.0436
  631MOL0     H85172   0.911   0.631   3.329 -2.1799 -3.0481 -1.8655
  631MOL0     H85173   0.615   0.547   3.345  0.2777  0.3666 -0.5052
  631MOL0     H85174   0.754   0.494   3.254 -0.5504  0.5479 -1.2159
  631MOL0     H85175   0.605   0.458   3.057 -0.2448  0.1443  0.0898
  631MOL0     H85176   0.472   0.509   3.156 -0.7275 -0.9348 -2.0561
  631MOL0     H85177   0.534   0.315   3.322 -3.2546 -2.1026 -1.0825
  631MOL0     H85178   0.673   0.282   3.223  1.3134  3.8321 -1.4248
  631MOL0     H85179   0.377   0.247   3.135  0.3018  1.0982 -2.8942
  631MOL0     H85180   0.507   0.216   3.031  1.2069 -0.7267  0.7066
  631MOL0     H85181   0.506  -0.112   3.321 -0.6219  1.6665  3.1422
  631MOL0     H85182   0.732   0.805   2.971 -0.6169  1.4188  1.2823
  631MOL0     H85183   0.958   1.021   2.857  1.7997  1.1772  1.6144
  631MOL0     H85184   1.034   0.868   2.810  2.0312  2.1990  0.6180
  631MOL0     H85185   0.861   0.898   2.803  1.1387  0.5732 -0.9525
  632MOL0     O85186   3.139  11.379   7.187  0.7986 -0.5011  0.5020
  632MOL0     C85187   3.100  11.284   7.252  0.6365  0.4145 -0.7874
  632MOL0     O85188   3.193  11.187   7.292  0.6340 -0.3373  0.7100
  632MOL0     C85189   3.324  11.186   7.253  1.2081  0.6387  0.5801
  632MOL0     C85190   3.409  11.295   7.247 -0.5405  0.4139  0.6983
  632MOL0     C85191   3.535  11.270   7.174 -0.4823  0.5808  0.4535
  632MOL0     C85192   3.582  11.145   7.131 -1.1754 -0.5113  0.1461
  632MOL0     O85193   3.708  11.118   7.088  0.3202 -1.1277 -0.1628
  632MOL0     C85194   3.797  11.230   7.066  0.4297  0.2700 -0.3679
  632MOL0     C85195   3.928  11.159   7.045  0.4921  0.2280  0.2298
  632MOL0     C85196   4.048  11.253   7.005 -0.6820 -0.0318  0.3926
  632MOL0     C85197   4.138  11.293   7.126  0.6102 -0.9597  0.0173
  632MOL0     C85198   4.281  11.338   7.069  0.4530 -0.4618  0.0438
  632MOL0     C85199   4.362  11.232   6.995 -0.7671  0.5145  0.3439
  632MOL0     C85200   4.484  11.299   6.929 -1.1074  1.0003  0.1244
  632MOL0     C85201   4.590  11.346   7.030 -0.0705 -0.1766 -0.0016
  632MOL0     N85202   4.641  11.237   7.108 -0.1031 -0.0765  0.3237
  632MOL0     C85203   4.592  11.197   7.231  0.4073  0.0253 -0.2150
  632MOL0     C85204   4.676  11.094   7.260 -0.2682 -0.3449 -0.6969
  632MOL0     C85205   4.693  11.020   7.394  0.4324 -0.2483 -0.2136
  632MOL0     C85206   4.839  11.013   7.447  0.1724  0.4491  0.2158
  632MOL0     C85207   4.842  10.970   7.601 -0.4893  0.4245 -0.4325
  632MOL0     C85208   4.976  10.951   7.665 -0.7101  0.5504  0.1505
  632MOL0     O85209   5.028  11.084   7.687 -0.2230  0.4118 -0.1161
  632MOL0     C85210   5.150  11.096   7.747  0.6217  0.5236 -1.1484
  632MOL0     C85211   5.193  11.223   7.779  0.2664 -0.0234 -0.2352
  632MOL0     C85212   5.313  11.253   7.841  0.8178  0.5838 -0.3322
  632MOL0     C85213   5.397  11.146   7.888 -0.1017 -0.8919 -0.8157
  632MOL0     C85214   5.508  11.172   7.972  0.7667  0.0517 -0.0853
  632MOL0     O85215   5.556  11.294   7.984  0.0766 -0.1915 -0.0116
  632MOL0     C85216   5.686  11.303   8.041 -0.0258 -0.7424 -0.1455
  632MOL0     C85217   5.783  11.328   7.944 -0.7280  0.5773 -0.6617
  632MOL0     C85218   5.922  11.341   7.984 -0.4436 -0.1869 -0.6156
  632MOL0     C85219   5.957  11.326   8.122  0.0439 -0.3121 -0.4648
  632MOL0     O85220   6.081  11.338   8.176 -0.6417  0.1716 -0.1867
  632MOL0     C85221   6.197  11.327   8.093 -0.3004  0.0814  0.4684
  632MOL0     C85222   6.310  11.393   8.162  0.2481 -0.3432  0.5823
  632MOL0     C85223   6.303  11.551   8.172 -0.8346 -0.4012  0.3163
  632MOL0     C85224   6.399  11.610   8.282  0.3499  0.7512  0.1690
  632MOL0     C85225   6.413  11.763   8.266 -0.6093  0.3252 -0.8063
  632MOL0     C85226   6.288  11.843   8.275  0.6879 -0.2261 -0.1637
  632MOL0     C85227   6.313  11.992   8.245  0.2982 -0.3303 -0.2124
  632MOL0     C85228   6.398  12.069   8.339  0.2807 -0.6366  0.4743
  632MOL0    Cl85229   6.328  12.086   8.499  0.1278 -0.1190  0.1554
  632MOL0     C85230   5.856  11.300   8.214  1.0918  0.1963  0.2879
  632MOL0     C85231   5.721  11.279   8.175  0.0338 -0.3179  0.3576
  632MOL0     O85232   5.560  11.072   8.013 -0.3742  0.4975  0.2265
  632MOL0     C85233   5.353  11.016   7.855 -0.7814 -0.7667  1.0192
  632MOL0     C85234   5.226  10.996   7.799 -1.0320  0.0183 -0.2207
  632MOL0     N85235   4.758  11.064   7.150 -0.4052 -0.1102  0.3012
  632MOL0     N85236   4.730  11.152   7.054 -0.1098  0.7344  0.2174
  632MOL0     C85237   3.486  11.045   7.140  0.0259 -0.1961  0.8588
  632MOL0     C85238   3.360  11.062   7.197  0.0186  0.4273  0.1277
  632MOL0     C85239   2.962  11.283   7.309 -0.3257  0.0574  0.3739
  632MOL0     C85240   2.932  11.194   7.412 -0.5550 -1.1522 -0.7301
  632MOL0     C85241   2.809  11.199   7.476 -0.2134  0.5270  0.1819
  632MOL0     C85242   2.714  11.298   7.441 -0.7925  0.8648 -0.2198
  632MOL0     O85243   2.585  11.303   7.489  0.1307 -0.1926 -0.7685
  632MOL0     C85244   2.553  11.188   7.582  0.6780  0.1327  0.3099
  632MOL0     C85245   2.401  11.183   7.597  0.0150 -0.3179 -0.6099
  632MOL0     C85246   2.336  11.302   7.674 -1.0052 -0.1282 -0.3980
  632MOL0     C85247   2.200  11.275   7.725 -0.3028  0.2911 -0.5841
  632MOL0     C85248   2.090  11.268   7.624 -0.3938 -0.4524 -0.1075
  632MOL0     C85249   2.018  11.270   7.533  0.9314  0.1971  0.8050
  632MOL0     C85250   2.747  11.391   7.344  0.4834  0.3942  0.9430
  632MOL0     C85251   2.864  11.380   7.273 -0.0655 -0.2636 -0.8723
  632MOL0     C85252   2.870  11.468   7.156  0.0638 -0.2150  0.5263
  632MOL0     H85253   3.391  11.396   7.283  1.8089  0.0317  3.2563
  632MOL0     H85254   3.594  11.361   7.162 -1.7174  1.2325 -0.9270
  632MOL0     H85255   3.781  11.303   6.987 -0.0233  1.2843  0.6422
  632MOL0     H85256   3.801  11.298   7.151  1.1590  0.9910 -0.9569
  632MOL0     H85257   3.908  11.086   6.966  2.5564 -0.3943  0.2174
  632MOL0     H85258   3.955  11.099   7.132  0.9809  1.5573  1.0244
  632MOL0     H85259   4.015  11.349   6.964 -0.1351  0.0610  0.1647
  632MOL0     H85260   4.100  11.179   6.944 -1.8553  1.4366 -2.6254
  632MOL0     H85261   4.087  11.370   7.185 -1.9590 -1.2608 -1.6945
  632MOL0     H85262   4.141  11.207   7.194 -0.6984 -1.5115 -0.6000
  632MOL0     H85263   4.264  11.416   6.995  1.0844 -1.4173 -1.1568
  632MOL0     H85264   4.344  11.367   7.153 -0.0990  2.8802 -0.5475
  632MOL0     H85265   4.393  11.145   7.054  0.2274 -3.0174 -4.7385
  632MOL0     H85266   4.304  11.187   6.914 -2.2478  2.1740  0.4302
  632MOL0     H85267   4.455  11.393   6.881 -1.1030  0.9689  0.0605
  632MOL0     H85268   4.531  11.228   6.861 -0.6591  0.1123  1.3316
  632MOL0     H85269   4.675  11.382   6.971  0.2982  1.4705  1.4663
  632MOL0     H85270   4.557  11.428   7.094 -0.3628 -0.6585  0.4741
  632MOL0     H85271   4.524  11.245   7.301  2.8309  1.5357  1.2742
  632MOL0     H85272   4.636  11.074   7.471  0.1551 -2.9481  1.5943
  632MOL0     H85273   4.645  10.924   7.374 -0.3800  0.4302 -1.7744
  632MOL0     H85274   4.894  10.934   7.396  0.5230 -0.6893  2.2148
  632MOL0     H85275   4.897  11.105   7.448 -0.5166  0.9357  2.5759
  632MOL0     H85276   4.801  10.869   7.611  0.0219  0.3398  1.0997
  632MOL0     H85277   4.792  11.038   7.671 -0.1360 -1.1511  1.4518
  632MOL0     H85278   5.043  10.907   7.590  0.7016 -0.5664  2.0052
  632MOL0     H85279   4.965  10.894   7.757  2.0248 -3.1608 -1.5469
  632MOL0     H85280   5.124  11.307   7.768  1.2571  0.7409 -0.7871
  632MOL0     H85281   5.336  11.355   7.868 -0.9228  0.1959  3.0895
  632MOL0     H85282   5.748  11.363   7.848  0.7123 -2.0123 -2.2330
  632MOL0     H85283   5.987  11.383   7.907  2.4447 -0.5369  1.4747
  632MOL0     H85284   6.218  11.224   8.062 -1.2509 -0.3844  1.3433
  632MOL0     H85285   6.170  11.386   8.005 -0.4072 -1.5553 -0.6353
  632MOL0     H85286   6.324  11.358   8.265  6.1034 -1.0445 -0.1174
  632MOL0     H85287   6.403  11.372   8.109  0.6264  0.9170  0.7272
  632MOL0     H85288   6.329  11.591   8.074  2.2291  0.4101  1.3675
  632MOL0     H85289   6.202  11.585   8.197 -1.7834 -3.6238  1.3551
  632MOL0     H85290   6.502  11.581   8.259 -0.2227 -0.0058 -1.6094
  632MOL0     H85291   6.365  11.584   8.382  0.4669 -1.3173 -0.2683
  632MOL0     H85292   6.459  11.780   8.169  1.3030  0.5576  0.0934
  632MOL0     H85293   6.483  11.796   8.344  0.1442  2.0975 -2.1544
  632MOL0     H85294   6.203  11.812   8.213  0.0977  2.5031 -0.8331
  632MOL0     H85295   6.245  11.830   8.375  3.3305 -3.6062  0.7356
  632MOL0     H85296   6.219  12.046   8.232 -0.8017 -2.2212 -0.4891
  632MOL0     H85297   6.363  12.000   8.148  0.7160  3.4354  0.1836
  632MOL0     H85298   6.491  12.012   8.347  0.3127 -0.6022  0.3549
  632MOL0     H85299   6.413  12.168   8.296 -0.2315 -1.2941 -1.3314
  632MOL0     H85300   5.881  11.289   8.319  1.4100  2.4126  0.4865
  632MOL0     H85301   5.642  11.256   8.245 -1.1626  1.4267 -0.3283
  632MOL0     H85302   5.407  10.937   7.905  1.0598 -1.9297 -2.4824
  632MOL0     H85303   5.191  10.893   7.789  0.7130 -0.9388  2.3875
  632MOL0     H85304   3.522  10.952   7.096 -0.8518 -0.0472 -0.2209
  632MOL0     H85305   3.290  10.979   7.202  0.5968  0.0181  1.9446
  632MOL0     H85306   3.007  11.121   7.441 -2.5182 -1.9364  2.9535
  632MOL0     H85307   2.793  11.117   7.545  0.0837 -0.3654 -0.7801
  632MOL0     H85308   2.602  11.208   7.677  0.4255  1.5880  0.1570
  632MOL0     H85309   2.581  11.094   7.534  1.4278  0.8360 -0.6735
  632MOL0     H85310   2.381  11.084   7.638  2.3350 -1.8416 -2.8739
  632MOL0     H85311   2.349  11.184   7.500  0.7737 -1.8538 -1.0672
  632MOL0     H85312   2.331  11.383   7.600 -0.1057 -0.1765 -0.5166
  632MOL0     H85313   2.395  11.330   7.762 -3.0285 -0.9529  1.3164
  632MOL0     H85314   2.188  11.174   7.765 -0.4507 -0.5896 -2.7325
  632MOL0     H85315   2.178  11.345   7.807  1.1318 -1.5914  1.5375
  632MOL0     H85316   1.954  11.271   7.447 -2.3336 -1.0808  3.0411
  632MOL0     H85317   2.672  11.464   7.315  0.6377  1.0232  2.0614
  632MOL0     H85318   2.919  11.564   7.176  1.5319 -1.2707  2.3038
  632MOL0     H85319   2.921  11.414   7.076 -2.0186 -1.3261 -0.1453
  632MOL0     H85320   2.770  11.484   7.114 -0.5154 -2.2936  1.0117
  633MOL0     O85321   1.004   1.657   7.867 -0.8092 -0.4208  0.4175
  633MOL0     C85322   1.032   1.657   7.743  0.8482  0.0793  0.1085
  633MOL0     O85323   1.146   1.605   7.685 -0.2950  0.3758  0.3714
  633MOL0     C85324   1.247   1.552   7.759 -0.3107  0.2833 -0.7134
  633MOL0     C85325   1.309   1.435   7.723  0.4413 -0.4265  0.5027
  633MOL0     C85326   1.417   1.390   7.796  0.6840 -0.1936  0.1356
  633MOL0     C85327   1.470   1.454   7.907 -0.0782 -0.0839 -0.3463
  633MOL0     O85328   1.567   1.390   7.972 -0.6113 -0.6922  0.4401
  633MOL0     C85329   1.656   1.478   8.039 -0.1603  0.2767  0.0546
  633MOL0     C85330   1.778   1.390   8.064  0.3938 -0.0521  0.3817
  633MOL0     C85331   1.881   1.478   8.134  0.5311 -0.6843 -0.2934
  633MOL0     C85332   1.995   1.395   8.213  0.0008  0.6895 -0.0785
  633MOL0     C85333   2.095   1.492   8.283  0.2143  0.7619 -0.3338
  633MOL0     C85334   2.183   1.551   8.174  0.0791  0.1978  0.2888
  633MOL0     C85335   2.289   1.641   8.233 -0.7383 -0.2965  0.0891
  633MOL0     C85336   2.384   1.691   8.115  0.0549 -0.4715  0.1708
  633MOL0     N85337   2.514   1.636   8.150 -0.8201  0.0921 -0.0769
  633MOL0     C85338   2.599   1.698   8.233 -0.2146  0.2948  0.1577
  633MOL0     C85339   2.681   1.591   8.264  1.2875 -0.8150  0.5336
  633MOL0     C85340   2.794   1.597   8.365  0.3963 -0.1510  0.5592
  633MOL0     C85341   2.907   1.693   8.308  0.1815  0.7428  0.1885
  633MOL0     C85342   2.965   1.787   8.418 -0.2458  1.0112 -0.1902
  633MOL0     C85343   3.067   1.707   8.508  1.1777 -0.4150 -0.5398
  633MOL0     O85344   3.175   1.680   8.434  0.1358  0.3214  0.2500
  633MOL0     C85345   3.281   1.612   8.487  0.2297 -0.3061  0.0513
  633MOL0     C85346   3.286   1.544   8.603 -0.0104  0.2567 -1.0526
  633MOL0     C85347   3.400   1.476   8.646  0.6163 -0.5247  0.3936
  633MOL0     C85348   3.520   1.481   8.568 -0.2711 -0.0606  0.4483
  633MOL0     C85349   3.649   1.416   8.620 -0.2474  0.0385 -0.4176
  633MOL0     O85350   3.767   1.443   8.554  0.6199 -0.0405 -0.4614
  633MOL0     C85351   3.879   1.372   8.578 -0.8317 -0.2672 -0.6454
  633MOL0     C85352   3.892   1.240   8.613 -1.0049  0.5422 -0.8819
  633MOL0     C85353   4.019   1.171   8.612 -0.0578 -0.6876 -0.1747
  633MOL0     C85354   4.139   1.240   8.588 -0.4150 -0.5690 -0.1586
  633MOL0     O85355   4.259   1.169   8.587 -0.0128  0.5188 -0.3013
  633MOL0     C85356   4.373   1.251   8.618  0.4371  0.5870 -0.6703
  633MOL0     C85357   4.488   1.165   8.668  0.1558 -0.1796  0.3948
  633MOL0     C85358   4.634   1.218   8.632  0.1724 -0.2656  0.9735
  633MOL0     C85359   4.740   1.178   8.732  0.8050 -0.3211  0.4140
  633MOL0     C85360   4.876   1.205   8.658  0.0670 -0.2888  0.2152
  633MOL0     C85361   4.995   1.223   8.762  0.2866 -0.0968 -0.1899
  633MOL0     C85362   5.057   1.093   8.809  0.0674  0.3158  0.2516
  633MOL0     C85363   5.201   1.119   8.848  0.1837  0.0094 -0.5642
  633MOL0    Cl85364   5.302   1.166   8.714  0.1849 -0.0856  0.0794
  633MOL0     C85365   4.125   1.375   8.549  0.5221  0.6094  0.0735
  633MOL0     C85366   3.997   1.437   8.543  0.7824 -0.4943  0.6586
  633MOL0     O85367   3.638   1.342   8.718  0.4736 -0.1164 -0.5080
  633MOL0     C85368   3.522   1.555   8.451  0.9966  0.3312  0.5345
  633MOL0     C85369   3.401   1.613   8.414  0.3024 -0.0288  0.9814
  633MOL0     N85370   2.635   1.476   8.201 -0.4613 -0.1728 -0.0925
  633MOL0     N85371   2.537   1.504   8.125 -0.5068  0.2424  0.7748
  633MOL0     C85372   1.406   1.574   7.950  0.7302  0.2154  0.1306
  633MOL0     C85373   1.291   1.620   7.875 -0.3462 -0.1653  0.2285
  633MOL0     C85374   0.920   1.712   7.661 -0.4172 -0.1559 -0.5752
  633MOL0     C85375   0.890   1.652   7.538 -0.3329  0.5245  0.7719
  633MOL0     C85376   0.790   1.702   7.455 -0.4096  0.0127  0.1660
  633MOL0     C85377   0.714   1.817   7.497 -1.3407  0.4879  0.0341
  633MOL0     O85378   0.605   1.851   7.417 -0.1610 -0.2350 -0.4683
  633MOL0     C85379   0.598   1.981   7.367  0.5841  0.3464  0.6223
  633MOL0     C85380   0.453   2.019   7.392 -0.1290 -0.3928  0.7847
  633MOL0     C85381   0.355   1.933   7.312  0.5017 -0.1914  0.1953
  633MOL0     C85382   0.345   1.982   7.157  0.6780 -0.1308  0.2602
  633MOL0     C85383   0.241   1.901   7.089  0.2763 -0.0944  0.7142
  633MOL0     C85384   0.143   1.848   7.048  0.3889  0.3560 -0.5026
  633MOL0     C85385   0.739   1.874   7.622  0.7218 -0.9669 -0.0915
  633MOL0     C85386   0.848   1.832   7.702  0.1954  0.2247  0.7464
  633MOL0     C85387   0.872   1.910   7.835  0.5877 -0.1154 -0.5061
  633MOL0     H85388   1.255   1.377   7.649  1.6888 -0.8153 -0.1273
  633MOL0     H85389   1.465   1.298   7.764  0.4452 -1.4514  3.0938
  633MOL0     H85390   1.679   1.561   7.972 -0.0307 -0.4325 -0.7941
  633MOL0     H85391   1.621   1.517   8.135  1.7393 -1.1466  1.4131
  633MOL0     H85392   1.825   1.364   7.969 -0.1338  1.1407 -0.2197
  633MOL0     H85393   1.750   1.295   8.112  0.1246 -0.2131 -0.0912
  633MOL0     H85394   1.820   1.541   8.200 -1.4967 -2.5507 -0.2525
  633MOL0     H85395   1.924   1.544   8.059  1.3027 -0.2591  0.4980
  633MOL0     H85396   1.956   1.315   8.278 -0.4668 -0.1106 -1.3172
  633MOL0     H85397   2.049   1.334   8.141  0.6064  0.3465  0.6515
  633MOL0     H85398   2.042   1.573   8.333 -0.9422 -0.4330  0.4425
  633MOL0     H85399   2.160   1.443   8.357  1.9277  0.9769 -1.6400
  633MOL0     H85400   2.229   1.471   8.115  0.0792  1.3227 -1.3118
  633MOL0     H85401   2.128   1.610   8.099  3.9183  1.6883 -1.6542
  633MOL0     H85402   2.342   1.591   8.314 -0.8033 -0.2452  0.1644
  633MOL0     H85403   2.238   1.727   8.279 -2.7630 -1.5429  0.3096
  633MOL0     H85404   2.346   1.655   8.019 -0.6017  0.1359  0.1935
  633MOL0     H85405   2.395   1.799   8.120 -0.3462 -0.4716  2.5722
  633MOL0     H85406   2.597   1.796   8.281 -2.6995 -0.9478  2.8848
  633MOL0     H85407   2.753   1.625   8.463  2.2869 -1.7047  1.8700
  633MOL0     H85408   2.840   1.498   8.370  2.9915  1.0263  1.9990
  633MOL0     H85409   2.981   1.619   8.275 -1.5518 -1.9144  1.8755
  633MOL0     H85410   2.879   1.764   8.229 -2.1637 -0.3847 -0.0865
  633MOL0     H85411   2.893   1.825   8.491 -0.2105  3.7247 -1.4463
  633MOL0     H85412   3.013   1.877   8.378 -0.5239  1.1249 -0.2742
  633MOL0     H85413   3.024   1.613   8.542 -0.1913  0.7796  1.2138
  633MOL0     H85414   3.095   1.765   8.597  0.5506  1.6053 -1.6114
  633MOL0     H85415   3.201   1.537   8.671  2.1362 -0.1945  1.7820
  633MOL0     H85416   3.382   1.401   8.722 -0.5812  0.1054  0.7672
  633MOL0     H85417   3.818   1.181   8.665  0.1335  0.6526  0.9686
  633MOL0     H85418   4.032   1.073   8.656  0.8826 -0.2390  0.5924
  633MOL0     H85419   4.408   1.293   8.524 -2.4962  1.5960 -1.3978
  633MOL0     H85420   4.347   1.326   8.692  3.1415  1.2008 -0.2171
  633MOL0     H85421   4.476   1.172   8.777  2.9657  1.1745  0.7082
  633MOL0     H85422   4.477   1.066   8.623  0.2728  0.4644 -1.1084
  633MOL0     H85423   4.659   1.179   8.533 -0.9792  0.5937  0.3231
  633MOL0     H85424   4.644   1.327   8.629  1.1211 -0.3483 -1.1449
  633MOL0     H85425   4.733   1.076   8.771 -4.1597  0.5611  2.6279
  633MOL0     H85426   4.734   1.240   8.821 -1.9541  0.5917 -0.3140
  633MOL0     H85427   4.867   1.293   8.594 -0.8614 -1.5585 -1.4785
  633MOL0     H85428   4.905   1.124   8.591 -0.8170 -1.3016  1.0189
  633MOL0     H85429   5.075   1.286   8.721  1.0604  2.8094  4.9532
  633MOL0     H85430   4.960   1.293   8.839  0.5419 -0.7915  0.5616
  633MOL0     H85431   5.057   1.018   8.729  0.2125 -1.8004  2.1184
  633MOL0     H85432   4.994   1.048   8.887  1.6677 -0.9528  0.8668
  633MOL0     H85433   5.196   1.200   8.920  2.4638  0.3588 -0.7117
  633MOL0     H85434   5.234   1.028   8.901  1.9402 -0.5231 -2.4170
  633MOL0     H85435   4.210   1.437   8.519 -0.6405  2.1578 -0.1573
  633MOL0     H85436   3.992   1.534   8.496  1.2788 -0.6320  0.3164
  633MOL0     H85437   3.603   1.572   8.380  0.8584 -1.1391 -0.0165
  633MOL0     H85438   3.396   1.682   8.331  1.1077 -1.4021 -0.2441
  633MOL0     H85439   1.432   1.628   8.041  0.1790 -0.9937  1.0383
  633MOL0     H85440   1.248   1.718   7.894  0.5268  0.9371 -2.8624
  633MOL0     H85441   0.947   1.566   7.503  0.9526  1.6642 -0.0355
  633MOL0     H85442   0.768   1.654   7.360  2.6694  1.0466 -1.2018
  633MOL0     H85443   0.614   1.978   7.259  0.7525 -0.1800  0.6613
  633MOL0     H85444   0.660   2.053   7.422 -0.7712  1.4297  0.7804
  633MOL0     H85445   0.421   2.122   7.380 -2.5990 -1.3315 -1.7946
  633MOL0     H85446   0.431   1.994   7.496  1.3991 -0.1604  1.1842
  633MOL0     H85447   0.257   1.943   7.358  0.0989  1.4109 -0.9333
  633MOL0     H85448   0.392   1.830   7.306 -1.4556 -0.9025 -0.1641
  633MOL0     H85449   0.312   2.086   7.155 -2.5517 -1.0426 -2.1800
  633MOL0     H85450   0.444   1.960   7.115  1.3748 -0.6493  2.0352
  633MOL0     H85451   0.054   1.803   7.010  1.2121 -2.5969  0.7545
  633MOL0     H85452   0.686   1.958   7.665  1.0986 -1.4856  1.4775
  633MOL0     H85453   0.962   1.887   7.892  2.0949  2.4012 -1.6721
  633MOL0     H85454   0.880   2.016   7.808  0.5929 -0.2274 -0.9556
  633MOL0     H85455   0.791   1.895   7.906  1.9568 -3.7165  0.4834
  634MOL0     O85456   0.762   5.704  10.429 -0.5097  0.5206 -0.5393
  634MOL0     C85457   0.795   5.613  10.352 -0.2898 -0.4987 -0.1781
  634MOL0     O85458   0.701   5.554  10.267  0.5726 -0.4770 -0.6759
  634MOL0     C85459   0.575   5.618  10.272  0.2306  0.0755  0.1706
  634MOL0     C85460   0.480   5.553  10.349 -0.1302  0.3240  1.0492
  634MOL0     C85461   0.356   5.605  10.365  0.3918  0.2015  0.1170
  634MOL0     C85462   0.318   5.725  10.300  0.5571 -0.3790  0.2025
  634MOL0     O85463   0.198   5.780  10.310 -0.3058 -0.2097  0.5997
  634MOL0     C85464   0.091   5.700  10.254  0.0942  1.0428  0.4828
  634MOL0     C85465  -0.040   5.773  10.218  0.5119  0.5208 -0.1861
  634MOL0     C85466  -0.148   5.672  10.161 -0.0837  0.2152  0.7966
  634MOL0     C85467  -0.273   5.744  10.123 -0.0632 -0.0620 -0.1572
  634MOL0     C85468  -0.366   5.641  10.054 -0.7826 -0.0329 -1.1585
  634MOL0     C85469  -0.486   5.722   9.997  0.1886 -0.6649 -0.5581
  634MOL0     C85470  -0.579   5.648   9.899  0.3472  0.7010 -0.1792
  634MOL0     C85471  -0.642   5.521   9.951 -0.7346 -1.1364  0.3977
  634MOL0     N85472  -0.733   5.459   9.853  0.4743 -0.2053  0.5012
  634MOL0     C85473  -0.807   5.518   9.758 -0.3245  0.5850 -0.2276
  634MOL0     C85474  -0.852   5.413   9.677  0.1683 -0.2810  0.5220
  634MOL0     C85475  -0.941   5.434   9.564  0.2056 -0.2885 -0.5231
  634MOL0     C85476  -1.067   5.340   9.581 -0.3957 -0.3099 -0.3865
  634MOL0     C85477  -1.169   5.363   9.472  0.4561  0.7764  1.1220
  634MOL0     C85478  -1.295   5.271   9.473 -0.0978 -0.4663  0.0435
  634MOL0     O85479  -1.379   5.297   9.581  0.0488  0.1877 -1.1146
  634MOL0     C85480  -1.503   5.239   9.571  0.3367 -0.7817 -0.2336
  634MOL0     C85481  -1.611   5.309   9.629  0.2060  0.2787  0.5241
  634MOL0     C85482  -1.741   5.255   9.618 -0.0409 -0.1262 -0.4508
  634MOL0     C85483  -1.765   5.130   9.559 -0.0431 -0.4690 -0.3858
  634MOL0     C85484  -1.897   5.072   9.550  0.8215 -0.2261 -1.9258
  634MOL0     O85485  -1.915   4.961   9.472 -0.1714 -0.4195  0.3322
  634MOL0     C85486  -2.031   4.894   9.464 -0.6022  0.6328  0.0646
  634MOL0     C85487  -2.058   4.827   9.343  0.2765 -0.0866 -0.8180
  634MOL0     C85488  -2.169   4.750   9.317 -0.2656  0.2220 -0.7817
  634MOL0     C85489  -2.249   4.723   9.429  0.6355 -0.7626  0.5629
  634MOL0     O85490  -2.358   4.643   9.421  0.5019  0.2316 -0.0501
  634MOL0     C85491  -2.473   4.679   9.343  0.2456 -0.2398 -0.2619
  634MOL0     C85492  -2.604   4.636   9.417 -0.5515  0.5574  0.9364
  634MOL0     C85493  -2.728   4.641   9.325 -0.0046  0.3009  0.2211
  634MOL0     C85494  -2.863   4.638   9.407  0.6484 -0.2379  0.4053
  634MOL0     C85495  -2.980   4.638   9.308  0.0696 -0.4299  0.1191
  634MOL0     C85496  -3.090   4.730   9.364  0.1095 -0.2730 -0.2013
  634MOL0     C85497  -3.158   4.663   9.480 -0.1240 -0.3979  0.0056
  634MOL0     C85498  -3.246   4.767   9.543  0.0728  0.3192  0.2507
  634MOL0    Cl85499  -3.160   4.919   9.592 -0.3548  0.1616  0.4940
  634MOL0     C85500  -2.217   4.773   9.557  0.4520 -0.7624  0.2636
  634MOL0     C85501  -2.109   4.864   9.571  0.2441 -0.1126 -0.4469
  634MOL0     O85502  -1.983   5.138   9.616  0.6588  0.0068  0.3067
  634MOL0     C85503  -1.665   5.071   9.487  0.1520 -0.3598 -0.1674
  634MOL0     C85504  -1.533   5.117   9.494 -0.6882  0.2224 -0.1582
  634MOL0     N85505  -0.805   5.295   9.733 -0.3120 -0.6479  0.3544
  634MOL0     N85506  -0.722   5.330   9.825  0.5742  0.5409  0.0580
  634MOL0     C85507   0.421   5.791  10.218  0.1162  1.4486  0.3752
  634MOL0     C85508   0.542   5.735  10.209  0.5701  0.7567 -0.4597
  634MOL0     C85509   0.928   5.552  10.377  0.0333  0.1986  0.2496
  634MOL0     C85510   0.999   5.535  10.257  0.8711  0.2752 -0.8048
  634MOL0     C85511   1.120   5.468  10.262  0.6846  0.5209  0.3108
  634MOL0     C85512   1.170   5.428  10.392 -0.5886 -0.4524 -0.2080
  634MOL0     O85513   1.296   5.371  10.375 -0.4823  0.3040  0.3031
  634MOL0     C85514   1.357   5.306  10.480  0.2750 -0.1615 -0.0511
  634MOL0     C85515   1.490   5.241  10.464  0.2287 -0.5755  0.6314
  634MOL0     C85516   1.595   5.353  10.431 -0.6268 -0.1382  0.2326
  634MOL0     C85517   1.740   5.327  10.495  0.4893 -0.4212 -0.2340
  634MOL0     C85518   1.798   5.211  10.429  0.6468  0.6918  0.0426
  634MOL0     C85519   1.848   5.112  10.381 -0.0344 -0.2314  0.2289
  634MOL0     C85520   1.100   5.437  10.513  0.6602  0.5659 -0.2349
  634MOL0     C85521   0.972   5.503  10.501 -0.3183  0.2590  0.2493
  634MOL0     C85522   0.894   5.517  10.621  0.6336  0.2048 -0.0238
  634MOL0     H85523   0.500   5.463  10.406 -1.9570  0.5554  2.1131
  634MOL0     H85524   0.289   5.555  10.434  2.1730 -0.4179  1.4631
  634MOL0     H85525   0.130   5.672  10.156  0.9672  1.9182  0.5625
  634MOL0     H85526   0.066   5.614  10.317 -2.5330  1.8298  0.6307
  634MOL0     H85527  -0.010   5.850  10.146  2.5905  0.3364  0.4284
  634MOL0     H85528  -0.078   5.819  10.309 -0.8835  0.0298 -0.4945
  634MOL0     H85529  -0.176   5.606  10.243 -0.6903 -0.6715 -0.1027
  634MOL0     H85530  -0.104   5.613  10.080  0.3147 -2.5876  2.8857
  634MOL0     H85531  -0.325   5.791  10.207 -0.2373  0.8445 -0.7550
  634MOL0     H85532  -0.253   5.816  10.043  0.8590 -0.5429 -0.3655
  634MOL0     H85533  -0.311   5.604   9.966  1.7642  1.6315 -0.3716
  634MOL0     H85534  -0.396   5.560  10.121 -0.3686  1.5036  0.9591
  634MOL0     H85535  -0.541   5.762  10.082  2.7061  1.7626  0.0303
  634MOL0     H85536  -0.447   5.809   9.943 -2.3284 -1.1131 -3.3917
  634MOL0     H85537  -0.526   5.632   9.804  0.6637 -0.0262  0.1110
  634MOL0     H85538  -0.657   5.722   9.879  0.0196  0.0985 -1.2287
  634MOL0     H85539  -0.560   5.455   9.980 -0.1196 -0.8259 -0.5861
  634MOL0     H85540  -0.714   5.529  10.034 -2.7642 -0.6769 -1.3035
  634MOL0     H85541  -0.810   5.623   9.731  0.4236  0.0645 -2.5520
  634MOL0     H85542  -0.976   5.537   9.563  0.3810 -0.2276 -2.2003
  634MOL0     H85543  -0.884   5.412   9.474  2.6897 -2.9927  1.4850
  634MOL0     H85544  -1.028   5.238   9.576  1.3175  0.3572 -4.4079
  634MOL0     H85545  -1.115   5.358   9.677 -1.3880 -0.8153 -0.7761
  634MOL0     H85546  -1.112   5.360   9.378 -0.7134  3.1301  0.2538
  634MOL0     H85547  -1.216   5.462   9.482 -2.1549 -0.4219  1.3419
  634MOL0     H85548  -1.272   5.165   9.467 -1.3601 -0.7643  0.2144
  634MOL0     H85549  -1.346   5.310   9.385  0.7119  0.5843  0.0149
  634MOL0     H85550  -1.581   5.398   9.683  1.5912 -0.9693  1.9329
  634MOL0     H85551  -1.810   5.316   9.675  1.2709  1.9591 -0.9646
  634MOL0     H85552  -1.998   4.843   9.254 -0.3697 -0.5826 -1.3510
  634MOL0     H85553  -2.188   4.710   9.218  0.5940 -0.2707 -0.7568
  634MOL0     H85554  -2.487   4.787   9.338  0.3776 -0.1721  0.6461
  634MOL0     H85555  -2.469   4.635   9.243  2.3565 -0.0314 -0.3151
  634MOL0     H85556  -2.581   4.535   9.451 -0.5760 -0.6619 -2.3107
  634MOL0     H85557  -2.626   4.705   9.499  0.3744  2.0841 -0.0342
  634MOL0     H85558  -2.726   4.733   9.266 -0.4506  0.5690  0.6139
  634MOL0     H85559  -2.726   4.558   9.254 -3.2351 -0.1437  0.4769
  634MOL0     H85560  -2.871   4.724   9.474  2.8640  0.0231  0.4125
  634MOL0     H85561  -2.872   4.550   9.471 -0.6227  0.2587  0.9447
  634MOL0     H85562  -3.028   4.541   9.310  0.6723 -0.7317  1.8583
  634MOL0     H85563  -2.944   4.672   9.210  2.3713  2.1067  1.6866
  634MOL0     H85564  -3.030   4.817   9.390  2.7060 -2.0492  0.1314
  634MOL0     H85565  -3.158   4.762   9.285 -0.5972 -0.9181  0.1324
  634MOL0     H85566  -3.089   4.627   9.557  0.8297  3.5036  1.2163
  634MOL0     H85567  -3.216   4.574   9.455  1.9082 -1.8034  0.0284
  634MOL0     H85568  -3.322   4.804   9.474  0.8668  0.2381 -0.6785
  634MOL0     H85569  -3.283   4.730   9.640 -1.5275  1.7556  0.2341
  634MOL0     H85570  -2.273   4.738   9.643 -1.0466  0.3509 -0.2172
  634MOL0     H85571  -2.078   4.893   9.671 -0.3866 -0.4871 -0.1381
  634MOL0     H85572  -1.689   4.989   9.421 -5.4065  2.4427 -2.1922
  634MOL0     H85573  -1.455   5.071   9.433  0.1214  0.8860  0.3539
  634MOL0     H85574   0.395   5.888  10.176  1.4272  1.4264 -0.5357
  634MOL0     H85575   0.618   5.770  10.140  1.2778  2.2571  1.0059
  634MOL0     H85576   0.975   5.569  10.157 -1.0955 -0.8270 -0.7631
  634MOL0     H85577   1.182   5.431  10.181 -1.9447 -2.0026 -0.7610
  634MOL0     H85578   1.281   5.229  10.496  0.9712 -0.9646 -0.5232
  634MOL0     H85579   1.354   5.369  10.569 -0.2523 -0.5306  0.1982
  634MOL0     H85580   1.504   5.184  10.371  3.5674  0.1892  0.5205
  634MOL0     H85581   1.502   5.168  10.544  0.4484 -3.4169 -1.8073
  634MOL0     H85582   1.575   5.453  10.469  3.2764  1.6861 -1.9549
  634MOL0     H85583   1.608   5.374  10.325 -1.8423  0.0938  0.1127
  634MOL0     H85584   1.803   5.415  10.480 -2.3304  1.9402  0.7229
  634MOL0     H85585   1.729   5.302  10.601  0.9351 -1.0488 -0.3270
  634MOL0     H85586   1.894   5.030  10.329  2.5633  0.1121  1.7927
  634MOL0     H85587   1.142   5.406  10.608  1.5677  0.5184 -0.6448
  634MOL0     H85588   0.786   5.513  10.602  0.7740 -0.9539 -0.6392
  634MOL0     H85589   0.920   5.439  10.693 -1.7376 -0.9415 -0.3066
  634MOL0     H85590   0.930   5.607  10.673  0.3281  0.5882 -0.4635
  635MOL0     O85591   4.777  10.101   4.166  0.8749 -0.1797  0.3835
  635MOL0     C85592   4.788  10.079   4.041  0.7982 -0.1773  0.4788
  635MOL0     O85593   4.899  10.086   3.967  0.9559 -1.1101  0.1477
  635MOL0     C85594   5.004  10.169   4.006 -0.3890 -0.7309  0.0755
  635MOL0     C85595   5.004  10.291   4.094  0.0132  0.4566  0.3491
  635MOL0     C85596   5.123  10.364   4.120  0.0159  0.3731 -0.8415
  635MOL0     C85597   5.242  10.327   4.058  0.3772  0.4455 -0.5993
  635MOL0     O85598   5.357  10.401   4.063 -0.5691  0.3079 -0.6506
  635MOL0     C85599   5.337  10.546   4.070 -0.3263  1.1951 -0.2408
  635MOL0     C85600   5.455  10.616   4.134  0.9139 -0.0373 -0.5881
  635MOL0     C85601   5.582  10.609   4.046 -0.9695 -0.1696  0.2435
  635MOL0     C85602   5.564  10.650   3.891  0.1008 -0.5149 -0.0918
  635MOL0     C85603   5.699  10.664   3.834 -0.3495  0.1856  0.6930
  635MOL0     C85604   5.690  10.684   3.686 -0.0514  0.1125  0.7982
  635MOL0     C85605   5.821  10.696   3.618 -0.1392  0.6392  0.2261
  635MOL0     C85606   5.909  10.575   3.609  0.5560 -0.2332  0.3512
  635MOL0     N85607   6.026  10.593   3.520  0.2656 -0.0875  0.0404
  635MOL0     C85608   6.131  10.682   3.526 -0.3186 -0.9269 -0.4445
  635MOL0     C85609   6.211  10.638   3.422 -0.9151 -0.0783 -0.5638
  635MOL0     C85610   6.344  10.695   3.394 -0.8537 -0.1171  0.9213
  635MOL0     C85611   6.454  10.636   3.485 -0.7013  0.1904  1.0488
  635MOL0     C85612   6.585  10.723   3.492 -0.6479  0.6517  0.3884
  635MOL0     C85613   6.680  10.649   3.586 -0.2678 -0.3275 -0.0777
  635MOL0     O85614   6.818  10.685   3.585  0.1858  0.7908  0.3961
  635MOL0     C85615   6.909  10.638   3.489 -0.8666  0.6988 -0.6815
  635MOL0     C85616   7.045  10.669   3.515  0.1089  0.0864  0.5608
  635MOL0     C85617   7.137  10.618   3.428 -0.2586 -0.4463  0.2689
  635MOL0     C85618   7.101  10.548   3.310  0.2635  0.7616 -0.1874
  635MOL0     C85619   7.200  10.507   3.213 -0.0407 -0.3958  0.4409
  635MOL0     O85620   7.155  10.493   3.079 -0.2393  0.6268  0.3594
  635MOL0     C85621   7.238  10.426   2.995  0.1576 -0.2905  0.7277
  635MOL0     C85622   7.249  10.290   3.010 -1.3375 -0.0211  0.4152
  635MOL0     C85623   7.330  10.221   2.912  0.3587 -0.5907 -0.6600
  635MOL0     C85624   7.396  10.283   2.803  0.3048  0.8294  1.2919
  635MOL0     O85625   7.468  10.198   2.716 -0.0091  0.3257 -0.7344
  635MOL0     C85626   7.514  10.248   2.595 -0.1949  0.6271  0.2790
  635MOL0     C85627   7.578  10.135   2.515 -0.4417 -0.7203 -0.5658
  635MOL0     C85628   7.661  10.208   2.412  0.8368 -0.4166  0.4120
  635MOL0     C85629   7.712  10.115   2.319  0.0199 -0.6825  0.6033
  635MOL0     C85630   7.786  10.186   2.217 -0.0666 -0.3479 -0.1493
  635MOL0     C85631   7.865  10.087   2.121 -0.2946 -0.2723 -0.2125
  635MOL0     C85632   7.930  10.151   1.995  0.1715  0.6692 -0.5684
  635MOL0     C85633   8.042  10.248   2.022  0.0967 -0.2040  0.7720
  635MOL0    Cl85634   8.124  10.288   1.868  0.0550 -0.1057 -0.1504
  635MOL0     C85635   7.381  10.420   2.798  0.5664 -0.0286  0.4139
  635MOL0     C85636   7.304  10.494   2.892  0.2156  1.2144  0.7641
  635MOL0     O85637   7.310  10.471   3.261  0.2327  0.5782 -0.2955
  635MOL0     C85638   6.966  10.532   3.279  0.4874  0.2584 -1.0693
  635MOL0     C85639   6.869  10.568   3.364  0.6049  0.1383 -1.1955
  635MOL0     N85640   6.156  10.525   3.355  0.0009  0.0817  0.3694
  635MOL0     N85641   6.044  10.505   3.415 -0.3187  0.8034  0.3927
  635MOL0     C85642   5.240  10.220   3.968 -0.7114  0.7244  0.1815
  635MOL0     C85643   5.131  10.142   3.936  0.2479 -0.1176  0.6151
  635MOL0     C85644   4.666  10.042   3.966 -0.5237 -1.1547 -0.0895
  635MOL0     C85645   4.678  10.050   3.828  0.2012 -0.3373 -0.2209
  635MOL0     C85646   4.573  10.020   3.735  0.5026 -0.1237 -0.3245
  635MOL0     C85647   4.450   9.976   3.782  0.0719 -0.4611 -0.0914
  635MOL0     O85648   4.337   9.955   3.705  0.0832  0.2243  0.2644
  635MOL0     C85649   4.361   9.871   3.591  1.2217  0.3970 -0.1835
  635MOL0     C85650   4.313   9.732   3.615 -0.1339  0.0866  0.4368
  635MOL0     C85651   4.167   9.716   3.589  0.3260 -0.4243 -0.3474
  635MOL0     C85652   4.134   9.621   3.476 -0.1484 -0.0097  0.1431
  635MOL0     C85653   4.194   9.653   3.343 -0.2464  0.5000 -0.1275
  635MOL0     C85654   4.245   9.702   3.243 -0.2077  0.9440 -0.3023
  635MOL0     C85655   4.443   9.959   3.924 -0.3434 -0.1660  0.2717
  635MOL0     C85656   4.543   9.991   4.013 -0.3874 -0.0503  0.1933
  635MOL0     C85657   4.518   9.971   4.162 -0.1967  1.1650  0.6346
  635MOL0     H85658   4.921  10.337   4.147  0.5781  0.3267  1.3763
  635MOL0     H85659   5.132  10.448   4.188  3.2475 -1.3111  1.0477
  635MOL0     H85660   5.311  10.580   3.969 -1.2515 -1.0322 -0.8235
  635MOL0     H85661   5.256  10.578   4.136  1.3158  0.5437  2.1928
  635MOL0     H85662   5.473  10.560   4.226  0.1444  0.1576 -0.3104
  635MOL0     H85663   5.433  10.721   4.155  0.5374  0.3888 -2.8322
  635MOL0     H85664   5.623  10.507   4.041  1.7099  0.8781 -3.5051
  635MOL0     H85665   5.661  10.670   4.091  0.9745 -1.2078 -1.5702
  635MOL0     H85666   5.509  10.571   3.839 -1.6454  1.2732 -1.0773
  635MOL0     H85667   5.505  10.741   3.878 -1.5820 -1.4086  0.9472
  635MOL0     H85668   5.738  10.746   3.895  0.3448  0.1809  0.2660
  635MOL0     H85669   5.762  10.580   3.866 -1.1367 -1.2230 -1.2777
  635MOL0     H85670   5.627  10.606   3.643 -2.8437  2.7017 -0.1275
  635MOL0     H85671   5.647  10.782   3.666  1.9434  0.5392 -2.1890
  635MOL0     H85672   5.873  10.776   3.671 -1.1649  0.8541  0.9267
  635MOL0     H85673   5.811  10.730   3.514 -0.7066 -0.0357  0.0483
  635MOL0     H85674   5.955  10.559   3.707  0.4495  2.3982  0.9051
  635MOL0     H85675   5.845  10.495   3.571  0.6701 -0.6619  1.0480
  635MOL0     H85676   6.147  10.760   3.600 -0.9884 -0.7115 -0.5232
  635MOL0     H85677   6.378  10.670   3.293  2.5720 -1.5429  2.2783
  635MOL0     H85678   6.341  10.804   3.397 -0.6148 -0.1195  3.4134
  635MOL0     H85679   6.416  10.639   3.587  0.2210  1.0221  1.3796
  635MOL0     H85680   6.466  10.539   3.435 -2.0429  0.3835  0.2980
  635MOL0     H85681   6.568  10.821   3.539  3.9399  2.7262 -1.6967
  635MOL0     H85682   6.627  10.747   3.394  0.1337 -1.0877  0.2559
  635MOL0     H85683   6.667  10.544   3.559 -2.0403 -0.0064 -0.5757
  635MOL0     H85684   6.647  10.671   3.688  0.5187 -3.2332  0.9213
  635MOL0     H85685   7.076  10.720   3.606 -1.5981  1.6796  0.3208
  635MOL0     H85686   7.242  10.643   3.441 -0.5921  1.1575  0.0247
  635MOL0     H85687   7.190  10.247   3.091 -4.6374  1.6259 -0.8926
  635MOL0     H85688   7.361  10.117   2.918  1.3866 -0.2673 -0.1713
  635MOL0     H85689   7.448  10.316   2.541  1.3728  3.1570  1.3835
  635MOL0     H85690   7.597  10.311   2.630 -1.2570  0.5093  3.3714
  635MOL0     H85691   7.633  10.074   2.587 -2.1699 -0.3703  1.1495
  635MOL0     H85692   7.492  10.079   2.474 -2.7360 -0.3559  3.2576
  635MOL0     H85693   7.595  10.277   2.358 -1.1468 -1.8902  0.8692
  635MOL0     H85694   7.736  10.268   2.465  1.7187 -0.0695 -1.1558
  635MOL0     H85695   7.627  10.077   2.262  2.0110  0.5582 -3.6030
  635MOL0     H85696   7.776  10.041   2.370  2.4902 -0.7074 -2.2073
  635MOL0     H85697   7.860  10.248   2.269 -0.0315 -0.9538  0.5392
  635MOL0     H85698   7.729  10.264   2.166  1.5546  0.9588 -0.0565
  635MOL0     H85699   7.938  10.032   2.180  1.0267  0.3968 -1.1593
  635MOL0     H85700   7.789  10.022   2.077 -0.0730  0.1108 -1.2082
  635MOL0     H85701   7.854  10.206   1.940  2.5301  3.0424 -1.6696
  635MOL0     H85702   7.965  10.073   1.926  1.4934  0.7627 -0.0299
  635MOL0     H85703   8.007  10.342   2.065 -1.9557 -1.1882  1.4233
  635MOL0     H85704   8.121  10.215   2.091  1.5174  2.4175  0.5063
  635MOL0     H85705   7.435  10.473   2.721 -0.1876  0.7956  0.4337
  635MOL0     H85706   7.291  10.601   2.880  3.4739  1.4097 -3.4495
  635MOL0     H85707   6.927  10.489   3.188 -2.5232 -1.6905  0.9468
  635MOL0     H85708   6.764  10.543   3.345 -0.7781  1.8001  3.0864
  635MOL0     H85709   5.342  10.200   3.937 -0.4972  1.7629  0.2053
  635MOL0     H85710   5.143  10.066   3.859  0.8712 -0.2462  0.8342
  635MOL0     H85711   4.773  10.072   3.782 -0.8023  1.4721 -1.5779
  635MOL0     H85712   4.597  10.032   3.630  3.0366 -1.1820  0.0682
  635MOL0     H85713   4.463   9.873   3.549  1.1653  1.0670 -0.3011
  635MOL0     H85714   4.300   9.920   3.514  3.0013 -0.9631 -2.6442
  635MOL0     H85715   4.331   9.709   3.720 -1.4288  2.6791  1.2882
  635MOL0     H85716   4.365   9.664   3.547 -0.6002 -0.5638  0.7190
  635MOL0     H85717   4.124   9.815   3.577 -1.9000 -0.9176  2.4693
  635MOL0     H85718   4.113   9.682   3.678  0.5944 -2.2960 -0.8569
  635MOL0     H85719   4.157   9.518   3.504 -2.9433 -1.1057 -1.2405
  635MOL0     H85720   4.025   9.628   3.464 -0.2305  0.9201  1.2983
  635MOL0     H85721   4.284   9.761   3.163 -1.1136  2.6276  0.4356
  635MOL0     H85722   4.348   9.920   3.959 -1.7518 -0.4253 -3.3929
  635MOL0     H85723   4.423   9.920   4.180 -0.7900  2.0698  0.1561
  635MOL0     H85724   4.591   9.900   4.203  0.7294  1.5081 -0.3888
  635MOL0     H85725   4.512  10.061   4.225 -1.9173  0.4243  1.6258
  636MOL0     O85726   3.467  10.296   0.369 -0.0695  0.4708 -0.8888
  636MOL0     C85727   3.385  10.217   0.321 -0.8168 -0.3202 -0.2469
  636MOL0     O85728   3.416  10.084   0.292 -0.0922  0.4983  1.1166
  636MOL0     C85729   3.547  10.046   0.284  0.3218  0.4795 -0.5614
  636MOL0     C85730   3.603  10.020   0.160  0.1587 -1.4038 -0.0481
  636MOL0     C85731   3.734   9.966   0.147 -0.2261 -0.5630 -0.6028
  636MOL0     C85732   3.796   9.927   0.275 -0.7164  0.7330 -0.2147
  636MOL0     O85733   3.920   9.861   0.287 -0.1479 -0.0779  0.2157
  636MOL0     C85734   3.979   9.810   0.163  0.3843 -0.4387 -0.0396
  636MOL0     C85735   4.113   9.758   0.195 -0.9748 -0.2361  0.2088
  636MOL0     C85736   4.121   9.649   0.305  0.0242 -0.1728  0.0295
  636MOL0     C85737   4.207   9.666   0.427 -0.0182 -0.2761  0.2118
  636MOL0     C85738   4.206   9.544   0.513  0.0081 -0.1017 -0.3206
  636MOL0     C85739   4.304   9.550   0.632  0.0631  0.6605 -0.4163
  636MOL0     C85740   4.439   9.475   0.612  0.0460 -0.5968  0.2478
  636MOL0     C85741   4.432   9.330   0.619  0.4562  0.4511  0.2558
  636MOL0     N85742   4.451   9.273   0.753 -0.7156 -0.0953 -0.6947
  636MOL0     C85743   4.538   9.177   0.803  0.5043  1.4392  0.2991
  636MOL0     C85744   4.535   9.181   0.936 -0.4002  0.2870  0.0774
  636MOL0     C85745   4.629   9.101   1.017  0.3544 -0.5234  0.2645
  636MOL0     C85746   4.686   9.203   1.116  0.1929  1.0626  1.0995
  636MOL0     C85747   4.762   9.129   1.224 -0.2027 -0.4142  1.1003
  636MOL0     C85748   4.863   9.218   1.302  0.2814 -0.6370  0.6687
  636MOL0     O85749   4.984   9.210   1.233 -0.2069  0.0615  0.5693
  636MOL0     C85750   5.097   9.269   1.279  0.1503 -0.1197 -0.1534
  636MOL0     C85751   5.101   9.334   1.397 -0.1631 -0.1647  0.1329
  636MOL0     C85752   5.222   9.387   1.434  0.5575 -1.9919 -0.0760
  636MOL0     C85753   5.348   9.366   1.367  0.2614  0.1369  0.3020
  636MOL0     C85754   5.476   9.408   1.418  0.4837 -0.2181 -0.2610
  636MOL0     O85755   5.482   9.468   1.547 -0.0185  0.3856  0.4943
  636MOL0     C85756   5.587   9.521   1.597  0.0605 -0.0923 -0.2362
  636MOL0     C85757   5.567   9.660   1.631 -0.6177 -0.1849  0.2526
  636MOL0     C85758   5.679   9.755   1.661  0.9296  1.2946 -0.1257
  636MOL0     C85759   5.802   9.691   1.664 -0.0529 -0.0936  0.1292
  636MOL0     O85760   5.896   9.779   1.693  0.7322  0.5071 -0.7125
  636MOL0     C85761   6.031   9.754   1.675 -0.9513 -0.5061  0.2170
  636MOL0     C85762   6.105   9.883   1.687  0.6668  0.3904 -0.6215
  636MOL0     C85763   6.261   9.857   1.672 -0.0283 -0.2143  0.1485
  636MOL0     C85764   6.334   9.807   1.794  0.1582  0.0038  0.7347
  636MOL0     C85765   6.488   9.801   1.766  0.3053 -0.6077  0.6514
  636MOL0     C85766   6.565   9.743   1.889  0.2418 -0.1006  0.2138
  636MOL0     C85767   6.586   9.830   2.016  0.1671  0.8930 -0.3111
  636MOL0     C85768   6.664   9.947   1.961 -0.2294  0.5052  0.5343
  636MOL0    Cl85769   6.716  10.039   2.104  0.0526  0.0051  0.1470
  636MOL0     C85770   5.826   9.552   1.643  0.1972  0.7710 -1.3640
  636MOL0     C85771   5.713   9.472   1.603 -0.0803 -1.0631  0.0816
  636MOL0     O85772   5.575   9.362   1.367  0.1921  0.7232  0.3637
  636MOL0     C85773   5.339   9.299   1.247 -0.1681  0.1885  0.2919
  636MOL0     C85774   5.213   9.259   1.202  0.3807 -0.6863  0.1723
  636MOL0     N85775   4.427   9.260   0.968  0.2624 -0.4368  0.3452
  636MOL0     N85776   4.377   9.317   0.862 -0.7800  0.5261 -0.1534
  636MOL0     C85777   3.737   9.948   0.398  1.0617  0.1977  0.2327
  636MOL0     C85778   3.613  10.010   0.404 -0.1090 -0.5268 -0.0248
  636MOL0     C85779   3.264  10.282   0.273 -0.1046  0.0953 -0.4373
  636MOL0     C85780   3.227  10.399   0.340  0.6473 -0.1835  0.3895
  636MOL0     C85781   3.111  10.464   0.311  0.0129  0.1381 -0.1841
  636MOL0     C85782   3.034  10.410   0.209 -0.3523  1.0382  0.0320
  636MOL0     O85783   2.923  10.481   0.189  0.1876  0.0430 -0.2450
  636MOL0     C85784   2.861  10.470   0.057 -0.2427 -0.3756 -0.3684
  636MOL0     C85785   2.751  10.369   0.072 -0.6051 -0.0888  1.3236
  636MOL0     C85786   2.659  10.370   0.190  0.0383 -0.3853 -0.4902
  636MOL0     C85787   2.557  10.489   0.180  0.2542 -0.8608  0.6707
  636MOL0     C85788   2.445  10.453   0.264  0.2094 -1.3534  0.6726
  636MOL0     C85789   2.344  10.415   0.322  0.3189 -1.1351 -0.0045
  636MOL0     C85790   3.065  10.290   0.143 -1.1817 -0.1481 -0.9217
  636MOL0     C85791   3.188  10.225   0.169 -0.9516 -0.3848  0.5681
  636MOL0     C85792   3.224  10.107   0.090 -0.0808  0.1397  0.5548
  636MOL0     H85793   3.544  10.052   0.075 -2.9926  2.0187  3.0806
  636MOL0     H85794   3.779   9.956   0.049 -2.1736  0.1880 -1.6211
  636MOL0     H85795   3.921   9.724   0.131 -0.1252 -1.0811  2.4087
  636MOL0     H85796   3.984   9.888   0.086  0.4483 -1.0025 -0.6161
  636MOL0     H85797   4.175   9.842   0.227 -1.6905 -0.5407  2.6613
  636MOL0     H85798   4.148   9.721   0.098 -2.6543 -0.4697 -0.3399
  636MOL0     H85799   4.144   9.560   0.246 -1.6432  1.2195 -2.9481
  636MOL0     H85800   4.024   9.630   0.352 -0.0244 -3.6073 -1.1639
  636MOL0     H85801   4.311   9.678   0.396 -0.3797 -0.4006 -1.0946
  636MOL0     H85802   4.177   9.754   0.485  0.2552  1.2033 -1.7723
  636MOL0     H85803   4.109   9.534   0.562 -1.2607  1.2875 -2.3993
  636MOL0     H85804   4.224   9.450   0.459  2.9807 -0.7803  1.5919
  636MOL0     H85805   4.337   9.653   0.649  1.8992  0.3586 -1.8029
  636MOL0     H85806   4.248   9.517   0.720 -1.0469  1.3821 -0.8364
  636MOL0     H85807   4.514   9.509   0.683 -0.1068 -0.0456  0.1456
  636MOL0     H85808   4.462   9.493   0.507  2.0596 -3.0023  0.1732
  636MOL0     H85809   4.343   9.304   0.561  0.6843  5.0682 -2.6682
  636MOL0     H85810   4.514   9.293   0.556 -0.2550 -2.0749  0.6939
  636MOL0     H85811   4.614   9.127   0.743 -2.5700 -3.2537 -0.2000
  636MOL0     H85812   4.562   9.029   1.065 -0.0963 -0.8657 -0.8362
  636MOL0     H85813   4.701   9.057   0.948 -0.8252 -0.8280 -0.8336
  636MOL0     H85814   4.748   9.273   1.061  0.4033  1.1095  1.3944
  636MOL0     H85815   4.604   9.257   1.164  0.8795  2.2143  1.0181
  636MOL0     H85816   4.821   9.044   1.190 -0.1868  0.7393 -2.0705
  636MOL0     H85817   4.682   9.093   1.290  0.2743 -2.0013  0.8458
  636MOL0     H85818   4.884   9.180   1.403 -3.8615  1.3677  2.5369
  636MOL0     H85819   4.828   9.320   1.316  0.6583 -0.1777 -1.4587
  636MOL0     H85820   5.013   9.366   1.453 -1.0773 -0.7251 -0.9528
  636MOL0     H85821   5.224   9.453   1.521  0.0486 -1.2633 -0.6106
  636MOL0     H85822   5.474   9.712   1.617  0.5976  1.5580 -1.9228
  636MOL0     H85823   5.670   9.862   1.675  3.8562  1.7286 -0.8653
  636MOL0     H85824   6.061   9.688   1.757 -3.1948 -0.6933  0.9526
  636MOL0     H85825   6.056   9.713   1.577  3.0588 -1.1130  1.3045
  636MOL0     H85826   6.075   9.957   1.611 -1.4185  1.7078  1.3492
  636MOL0     H85827   6.080   9.929   1.783 -1.3907 -3.7929  1.0779
  636MOL0     H85828   6.271   9.786   1.589 -1.9496  0.0442 -0.3492
  636MOL0     H85829   6.304   9.954   1.647 -1.9258 -0.0048 -2.8256
  636MOL0     H85830   6.299   9.708   1.825 -1.1718  0.6111  1.2423
  636MOL0     H85831   6.302   9.865   1.881  1.1782  3.3710 -0.9511
  636MOL0     H85832   6.522   9.903   1.744 -2.4547  0.7034  1.9696
  636MOL0     H85833   6.514   9.750   1.673  0.6355 -1.1124  1.0099
  636MOL0     H85834   6.515   9.649   1.912  1.2228 -0.8056 -0.4423
  636MOL0     H85835   6.660   9.721   1.839 -0.3193  1.7100 -1.8405
  636MOL0     H85836   6.647   9.772   2.086 -1.5075  1.6446  1.9026
  636MOL0     H85837   6.497   9.859   2.073  1.1618 -1.6077  2.7535
  636MOL0     H85838   6.753   9.918   1.905  1.0731  1.3423  2.0676
  636MOL0     H85839   6.612  10.022   1.900 -1.9684  0.4542  1.8671
  636MOL0     H85840   5.917   9.495   1.657 -1.1845 -1.7748 -2.2079
  636MOL0     H85841   5.730   9.373   1.563 -1.6864 -0.5302 -2.1090
  636MOL0     H85842   5.423   9.298   1.179  0.0477 -0.9698  0.5503
  636MOL0     H85843   5.199   9.197   1.114 -1.9103 -2.3050  1.5759
  636MOL0     H85844   3.786   9.902   0.483 -1.9799 -2.3525  0.7815
  636MOL0     H85845   3.582  10.028   0.507 -0.5659 -1.7856  0.0762
  636MOL0     H85846   3.272  10.458   0.419  0.6210 -0.9212  0.9650
  636MOL0     H85847   3.088  10.559   0.358  1.6249  2.0841 -3.0393
  636MOL0     H85848   2.936  10.443  -0.019 -0.9458 -1.9620 -0.5479
  636MOL0     H85849   2.823  10.571   0.042 -1.7269 -0.3047  2.9661
  636MOL0     H85850   2.796  10.271   0.053  3.1947  1.5516  0.9507
  636MOL0     H85851   2.685  10.373  -0.016  1.4862  1.4074 -0.2926
  636MOL0     H85852   2.714  10.383   0.284  0.0228 -0.4747 -0.4687
  636MOL0     H85853   2.619  10.268   0.192 -0.0459 -0.4330 -2.8071
  636MOL0     H85854   2.600  10.582   0.218  3.5774 -1.6959 -0.7445
  636MOL0     H85855   2.525  10.505   0.077  0.1646  2.5339  1.1149
  636MOL0     H85856   2.244  10.388   0.349  0.6381 -0.8949  1.5010
  636MOL0     H85857   3.000  10.243   0.071 -1.0941 -1.1369 -0.3802
  636MOL0     H85858   3.196  10.016   0.144  1.1661 -0.7707 -0.2961
  636MOL0     H85859   3.167  10.094  -0.003  1.5855  2.5728 -0.8982
  636MOL0     H85860   3.329  10.098   0.063 -0.3461  0.8470 -0.7891
  637MOL0     O85861   7.590   9.787   2.617 -0.1194 -0.6231 -0.1189
  637MOL0     C85862   7.524   9.744   2.522 -0.3450 -0.1114 -0.0211
  637MOL0     O85863   7.561   9.745   2.393  0.0107  0.4520  1.0532
  637MOL0     C85864   7.688   9.759   2.356 -0.1874  0.2885  0.3159
  637MOL0     C85865   7.714   9.739   2.219  1.0123 -0.1261  0.3373
  637MOL0     C85866   7.835   9.737   2.157 -0.2305  0.4267 -0.7479
  637MOL0     C85867   7.944   9.748   2.238 -0.2974  1.2140 -0.3616
  637MOL0     O85868   8.067   9.737   2.194 -0.4864 -0.0127  0.1568
  637MOL0     C85869   8.106   9.668   2.074 -0.9599 -0.6391  0.0758
  637MOL0     C85870   8.132   9.512   2.100  0.6971 -0.6865 -0.2791
  637MOL0     C85871   8.190   9.436   1.991  0.0272 -0.1612  0.2873
  637MOL0     C85872   8.334   9.477   1.962 -1.3280  0.2238 -0.2164
  637MOL0     C85873   8.408   9.368   1.874  0.2339  0.1718 -0.4767
  637MOL0     C85874   8.558   9.396   1.847 -0.4099 -0.2473 -0.0029
  637MOL0     C85875   8.610   9.282   1.760  0.5647  0.2318 -0.0091
  637MOL0     C85876   8.755   9.278   1.741 -0.8016  0.0621  0.9328
  637MOL0     N85877   8.808   9.400   1.668  0.0374  0.0309 -0.0006
  637MOL0     C85878   8.846   9.513   1.728  0.4434  0.3846  0.2449
  637MOL0     C85879   8.909   9.578   1.630 -1.0326 -0.1248 -0.5631
  637MOL0     C85880   8.976   9.707   1.648 -0.4755 -0.4984  0.4052
  637MOL0     C85881   9.111   9.703   1.719  0.4224  0.3251  0.6982
  637MOL0     C85882   9.222   9.641   1.627  0.4144  0.2817  0.1615
  637MOL0     C85883   9.364   9.651   1.668  0.0357 -0.4435 -0.3362
  637MOL0     O85884   9.381   9.577   1.797  0.2597 -0.1488 -0.7737
  637MOL0     C85885   9.505   9.559   1.861 -0.5884  0.5447 -0.1591
  637MOL0     C85886   9.630   9.601   1.805 -0.0769  0.2104 -0.7186
  637MOL0     C85887   9.747   9.556   1.859 -0.4326 -0.1115  0.0435
  637MOL0     C85888   9.746   9.475   1.971  0.3783  0.8910 -0.3106
  637MOL0     C85889   9.869   9.430   2.036  0.0438 -0.2982  1.1223
  637MOL0     O85890   9.983   9.452   1.958  0.6888 -0.2943 -0.0825
  637MOL0     C85891  10.107   9.408   2.004  0.1480  0.2041  0.3706
  637MOL0     C85892  10.160   9.423   2.129 -0.1208 -0.5968 -1.1224
  637MOL0     C85893  10.283   9.375   2.158 -0.3346 -0.7741  0.2267
  637MOL0     C85894  10.354   9.306   2.072  0.4971 -0.4122  1.3383
  637MOL0     O85895  10.485   9.276   2.113  0.0521  0.1560 -0.2580
  637MOL0     C85896  10.601   9.343   2.054  0.1028 -0.7030 -0.2798
  637MOL0     C85897  10.690   9.380   2.169  0.2591 -0.4051  0.5255
  637MOL0     C85898  10.810   9.474   2.139  0.3455 -0.5417 -0.1804
  637MOL0     C85899  10.912   9.483   2.258 -0.5780 -0.3870  0.3707
  637MOL0     C85900  11.020   9.592   2.253 -0.2215 -0.3541 -1.0733
  637MOL0     C85901  11.093   9.603   2.115 -0.0513  0.2365  0.3127
  637MOL0     C85902  11.201   9.714   2.106 -0.2480  0.3070  0.3353
  637MOL0     C85903  11.273   9.712   1.967  0.2408  0.5239 -0.5320
  637MOL0    Cl85904  11.372   9.558   1.953  0.1271 -0.1342  0.1995
  637MOL0     C85905  10.305   9.285   1.936  0.6565  0.1363  0.3644
  637MOL0     C85906  10.173   9.333   1.913 -0.4717 -0.2177  0.6576
  637MOL0     O85907   9.876   9.383   2.149  1.0859 -0.4987 -0.0366
  637MOL0     C85908   9.625   9.446   2.035  0.5228  0.0036 -0.6684
  637MOL0     C85909   9.507   9.492   1.980  0.6684  1.1371 -0.4939
  637MOL0     N85910   8.909   9.508   1.514  0.4928 -0.4064 -0.1923
  637MOL0     N85911   8.835   9.406   1.538  0.1655  0.5696  0.2455
  637MOL0     C85912   7.931   9.789   2.371 -0.0662 -0.2666  0.5780
  637MOL0     C85913   7.803   9.796   2.423 -0.0261  0.7798  0.2310
  637MOL0     C85914   7.398   9.687   2.558 -0.2501 -0.7602 -1.1368
  637MOL0     C85915   7.360   9.555   2.504  0.2177  0.3160 -0.0943
  637MOL0     C85916   7.231   9.499   2.544 -0.5589 -0.5246  0.2619
  637MOL0     C85917   7.157   9.554   2.652  0.1676  0.2311  0.7446
  637MOL0     O85918   7.041   9.484   2.689  0.3487 -0.3098  0.4247
  637MOL0     C85919   7.046   9.349   2.727 -0.1305 -0.3177  0.4434
  637MOL0     C85920   6.904   9.294   2.681  0.1540  1.1255 -0.9023
  637MOL0     C85921   6.902   9.294   2.533  0.1124  0.4915 -0.6557
  637MOL0     C85922   6.776   9.240   2.485  0.1285  0.7132  0.1930
  637MOL0     C85923   6.779   9.098   2.475 -0.0935 -0.4157  0.1218
  637MOL0     C85924   6.787   8.976   2.480 -0.7121 -0.0238 -0.5947
  637MOL0     C85925   7.200   9.680   2.694 -0.3431 -0.7751  0.2520
  637MOL0     C85926   7.314   9.751   2.653 -0.0910  0.3511 -0.9936
  637MOL0     C85927   7.342   9.888   2.723  0.4532 -0.0720  0.1204
  637MOL0     H85928   7.632   9.724   2.149  2.2302  1.5487 -1.5938
  637MOL0     H85929   7.833   9.719   2.050  0.9050  1.4164 -0.9587
  637MOL0     H85930   8.031   9.681   1.995 -1.8410 -4.8674 -0.0336
  637MOL0     H85931   8.195   9.710   2.027 -1.9375 -0.5924 -1.8265
  637MOL0     H85932   8.045   9.454   2.130  0.2024  0.1826 -0.0156
  637MOL0     H85933   8.207   9.508   2.180 -0.5481 -1.0843  0.9034
  637MOL0     H85934   8.133   9.455   1.899  1.2213  2.4755 -0.0188
  637MOL0     H85935   8.189   9.332   2.025 -0.0316 -0.2778 -0.0635
  637MOL0     H85936   8.330   9.574   1.912 -3.5884  0.7555  0.8664
  637MOL0     H85937   8.389   9.470   2.056 -2.8797 -4.3237  0.5972
  637MOL0     H85938   8.408   9.270   1.923  0.4787 -0.2959 -1.3877
  637MOL0     H85939   8.349   9.372   1.782  0.7440 -0.0231 -0.8195
  637MOL0     H85940   8.566   9.489   1.790 -2.1980 -1.7819 -2.9884
  637MOL0     H85941   8.615   9.397   1.940  0.6967 -1.4991 -0.6310
  637MOL0     H85942   8.562   9.286   1.662 -0.5645 -0.0118  0.5232
  637MOL0     H85943   8.587   9.181   1.794  1.0679  0.4232  0.9416
  637MOL0     H85944   8.810   9.255   1.833  2.6515 -0.6311 -1.1300
  637MOL0     H85945   8.768   9.197   1.669 -0.1968  1.0387 -0.0765
  637MOL0     H85946   8.841   9.536   1.834  1.5858 -1.6786  0.8036
  637MOL0     H85947   8.977   9.764   1.555  1.8918  1.5450  1.5813
  637MOL0     H85948   8.905   9.760   1.713  2.4135  3.8573  0.3991
  637MOL0     H85949   9.130   9.804   1.755 -3.8788  1.1978  1.0632
  637MOL0     H85950   9.109   9.631   1.802 -2.9344 -1.9369 -1.1025
  637MOL0     H85951   9.215   9.680   1.525  0.4713  0.4497  0.2199
  637MOL0     H85952   9.189   9.539   1.608 -0.2111  0.6686 -0.8992
  637MOL0     H85953   9.396   9.755   1.679  0.2085 -0.6401  1.2959
  637MOL0     H85954   9.425   9.599   1.593 -2.6947 -3.9049 -0.4205
  637MOL0     H85955   9.630   9.670   1.721  0.2328 -0.2988 -1.1325
  637MOL0     H85956   9.839   9.594   1.816 -0.5427  0.7854  0.5656
  637MOL0     H85957  10.099   9.477   2.201 -0.8537 -1.1773 -1.3011
  637MOL0     H85958  10.327   9.390   2.256 -0.8337 -0.2539  0.3733
  637MOL0     H85959  10.653   9.282   1.979  0.1900 -1.5062  0.4253
  637MOL0     H85960  10.575   9.437   2.003  1.5575  0.1703  0.5285
  637MOL0     H85961  10.634   9.435   2.246  2.3027 -0.7643  2.3651
  637MOL0     H85962  10.731   9.287   2.209  1.2378  0.2745  1.1379
  637MOL0     H85963  10.858   9.433   2.051 -0.2305 -1.0578 -0.2609
  637MOL0     H85964  10.761   9.569   2.115  1.6177  0.5276  1.2439
  637MOL0     H85965  10.963   9.387   2.251 -2.2301 -1.5317  2.8156
  637MOL0     H85966  10.860   9.493   2.353  2.7648 -0.9080  2.4171
  637MOL0     H85967  11.094   9.580   2.332 -1.6264 -0.1800  0.3245
  637MOL0     H85968  10.980   9.692   2.274  0.5829 -0.1114 -0.6553
  637MOL0     H85969  11.147   9.508   2.108  0.1374  0.4035 -0.5843
  637MOL0     H85970  11.023   9.600   2.032 -0.8628 -2.7986  0.9923
  637MOL0     H85971  11.271   9.700   2.189 -1.4026 -0.0235  1.2873
  637MOL0     H85972  11.159   9.815   2.111 -1.7177 -0.2869  0.6982
  637MOL0     H85973  11.202   9.709   1.884 -1.5993  1.3631  0.9244
  637MOL0     H85974  11.332   9.803   1.952  0.4478  0.2218 -1.5969
  637MOL0     H85975  10.359   9.220   1.869 -1.8908 -0.0229 -1.6888
  637MOL0     H85976  10.127   9.306   1.819  1.4743 -2.0136  0.1447
  637MOL0     H85977   9.619   9.393   2.129  0.3973  1.9440  0.4824
  637MOL0     H85978   9.413   9.471   2.030  2.1017  0.4929  2.1295
  637MOL0     H85979   8.016   9.808   2.437  0.9971  0.0518 -0.8380
  637MOL0     H85980   7.799   9.833   2.525 -1.0173  2.1001 -0.2565
  637MOL0     H85981   7.428   9.506   2.435  1.2414 -0.3883  1.3457
  637MOL0     H85982   7.206   9.403   2.502  0.0689 -1.5488  2.1218
  637MOL0     H85983   7.060   9.334   2.834  2.1318 -0.5436  0.1616
  637MOL0     H85984   7.125   9.297   2.673  0.4277  0.9065  0.0478
  637MOL0     H85985   6.823   9.352   2.727 -0.3179 -0.1495 -0.0731
  637MOL0     H85986   6.897   9.192   2.721  2.5255  0.9460 -0.8187
  637MOL0     H85987   6.994   9.244   2.502  0.2362  2.1027 -3.1813
  637MOL0     H85988   6.907   9.389   2.479  0.6965 -1.5291 -4.5854
  637MOL0     H85989   6.702   9.277   2.556 -0.8305 -0.5427 -0.0985
  637MOL0     H85990   6.743   9.276   2.387  0.0097  2.7051  0.9188
  637MOL0     H85991   6.797   8.871   2.499  0.8217  0.2928  0.4821
  637MOL0     H85992   7.145   9.718   2.780  0.0271  0.5246 -0.0644
  637MOL0     H85993   7.252   9.947   2.744  0.2859 -0.3332  0.1389
  637MOL0     H85994   7.392   9.866   2.817 -2.5374 -0.6829  1.6908
  637MOL0     H85995   7.401   9.949   2.654 -2.0934  1.2442 -1.0742
  638MOL0     O85996   0.541   5.196  10.519 -0.3389 -0.0852  0.4123
  638MOL0     C85997   0.573   5.163  10.630  0.2310  1.1203 -0.1294
  638MOL0     O85998   0.482   5.155  10.735  0.0811  1.0553 -0.2333
  638MOL0     C85999   0.363   5.089  10.712 -0.4413 -0.3163  0.1623
  638MOL0     C86000   0.252   5.137  10.774  0.6538  0.9506 -0.8648
  638MOL0     C86001   0.120   5.090  10.745  0.3719  0.0424 -0.4101
  638MOL0     C86002   0.108   4.972  10.667  0.5511 -0.1524  0.5138
  638MOL0     O86003  -0.010   4.909  10.623 -0.4139  0.2956 -0.5141
  638MOL0     C86004  -0.124   4.983  10.597  0.3146  0.5729  0.0268
  638MOL0     C86005  -0.223   4.970  10.714  0.2091  0.0433  0.2703
  638MOL0     C86006  -0.356   5.035  10.684 -0.4007 -0.1566  0.3349
  638MOL0     C86007  -0.452   5.025  10.800  0.3228 -0.2233  0.3203
  638MOL0     C86008  -0.567   5.135  10.795 -0.2939  0.3510 -0.6532
  638MOL0     C86009  -0.683   5.103  10.894  0.7211  0.6763  1.1594
  638MOL0     C86010  -0.798   5.203  10.870  0.7130  0.0920 -0.0730
  638MOL0     C86011  -0.896   5.206  10.994  0.0553 -0.0577  0.4700
  638MOL0     N86012  -1.034   5.258  10.968  0.3955 -0.0057 -0.1174
  638MOL0     C86013  -1.063   5.394  10.966 -0.1912  0.6395 -0.1641
  638MOL0     C86014  -1.199   5.393  10.940 -0.1944  0.0290  0.3480
  638MOL0     C86015  -1.292   5.504  10.919  0.2701  0.5022  0.0091
  638MOL0     C86016  -1.267   5.574  10.791  0.5686  0.5302 -0.3529
  638MOL0     C86017  -1.307   5.487  10.665  0.2798  0.0412  0.4778
  638MOL0     C86018  -1.287   5.570  10.532 -0.1670  0.1494 -0.0422
  638MOL0     O86019  -1.299   5.469  10.428  0.0432 -0.5936 -0.1279
  638MOL0     C86020  -1.418   5.429  10.381 -0.0114 -0.3421 -0.3811
  638MOL0     C86021  -1.541   5.496  10.413 -1.4059 -0.5145 -1.0266
  638MOL0     C86022  -1.664   5.465  10.351  1.0477  1.4605  0.4009
  638MOL0     C86023  -1.677   5.366  10.253 -0.1057 -0.4596  0.3747
  638MOL0     C86024  -1.811   5.324  10.192  0.8394 -1.1602 -0.0731
  638MOL0     O86025  -1.813   5.200  10.136  0.1372  0.9445 -0.2793
  638MOL0     C86026  -1.935   5.131  10.126 -0.1131 -0.6132 -0.4352
  638MOL0     C86027  -1.957   5.003  10.189 -0.1731 -0.0625 -0.6225
  638MOL0     C86028  -2.088   4.947  10.182 -0.0789  0.3720  0.2492
  638MOL0     C86029  -2.175   4.994  10.087  0.5997 -1.1081  0.2219
  638MOL0     O86030  -2.292   4.931  10.097 -0.2429 -0.5190 -0.5813
  638MOL0     C86031  -2.414   4.969  10.031 -0.8075  0.0018  0.0134
  638MOL0     C86032  -2.466   5.107  10.090  0.6547  0.0518 -0.1066
  638MOL0     C86033  -2.488   5.114  10.245 -0.3006 -0.2178  0.2568
  638MOL0     C86034  -2.632   5.085  10.281  0.0171  0.0590  0.3912
  638MOL0     C86035  -2.655   5.068  10.434 -0.3861 -0.4368  0.6138
  638MOL0     C86036  -2.783   4.990  10.462 -0.3237  0.5045 -0.0414
  638MOL0     C86037  -2.913   5.066  10.417 -0.8663  1.6080  0.7203
  638MOL0     C86038  -3.035   4.998  10.475  0.2205  0.5625  0.8164
  638MOL0    Cl86039  -3.169   5.079  10.392  0.1860  0.3203  0.1271
  638MOL0     C86040  -2.151   5.105  10.014  0.9804  0.2640 -0.3332
  638MOL0     C86041  -2.033   5.178  10.032  0.0262 -0.4917  0.1921
  638MOL0     O86042  -1.911   5.403  10.193 -0.3334 -0.5865  0.6059
  638MOL0     C86043  -1.562   5.307  10.204  0.0364 -0.4262  0.0568
  638MOL0     C86044  -1.433   5.332  10.274  0.4803 -0.7115 -0.1114
  638MOL0     N86045  -1.243   5.261  10.920 -0.4445 -0.2125  0.3056
  638MOL0     N86046  -1.134   5.185  10.920  0.0141  0.2536  1.0001
  638MOL0     C86047   0.229   4.904  10.623  0.6276 -0.0451  0.3168
  638MOL0     C86048   0.348   4.974  10.644 -0.7553  0.4466  0.4478
  638MOL0     C86049   0.718   5.153  10.675 -0.1067  0.7083 -0.6109
  638MOL0     C86050   0.742   5.138  10.815 -0.0788 -0.7306  1.0614
  638MOL0     C86051   0.874   5.154  10.856  0.1984  0.5615  0.1999
  638MOL0     C86052   0.977   5.158  10.765  0.4066 -0.4070 -0.7041
  638MOL0     O86053   1.115   5.148  10.788  0.5399 -0.5138  0.8123
  638MOL0     C86054   1.155   5.094  10.908 -0.2890 -0.0726  0.3196
  638MOL0     C86055   1.304   5.086  10.926 -0.1759  0.3800  0.1807
  638MOL0     C86056   1.370   4.963  10.852 -0.2059  0.4456  0.3419
  638MOL0     C86057   1.527   4.940  10.869 -0.8805 -0.0979 -0.2233
  638MOL0     C86058   1.573   4.956  11.005 -0.7638  0.6475  0.0866
  638MOL0     C86059   1.614   4.975  11.115 -0.5556 -0.3244 -0.0060
  638MOL0     C86060   0.950   5.156  10.627  0.2487 -0.7112 -0.7973
  638MOL0     C86061   0.824   5.160  10.578 -0.2012  0.1065 -0.2793
  638MOL0     C86062   0.806   5.175  10.438  0.3989  0.4211 -0.4718
  638MOL0     H86063   0.253   5.211  10.853 -1.4326  1.3653 -1.1775
  638MOL0     H86064   0.028   5.120  10.794  0.8842 -1.4995  1.6373
  638MOL0     H86065  -0.116   5.086  10.562 -0.6026  0.8382  0.5761
  638MOL0     H86066  -0.180   4.935  10.516 -3.1147  3.1992  0.6311
  638MOL0     H86067  -0.187   5.018  10.805  1.0217 -1.4686  0.7863
  638MOL0     H86068  -0.235   4.864  10.736 -0.0973  0.4286  2.0672
  638MOL0     H86069  -0.401   4.978  10.602  1.6453  1.3215 -1.9679
  638MOL0     H86070  -0.351   5.137  10.647 -0.3668  1.0505  3.3504
  638MOL0     H86071  -0.493   4.923  10.806 -0.7680  0.2782  2.3131
  638MOL0     H86072  -0.410   5.037  10.901 -3.2907 -3.2619  2.4376
  638MOL0     H86073  -0.517   5.230  10.812  0.2893  0.4076 -2.4890
  638MOL0     H86074  -0.611   5.138  10.695 -0.7594  1.0724 -0.4372
  638MOL0     H86075  -0.722   5.002  10.877  0.7232  0.9113 -0.4108
  638MOL0     H86076  -0.638   5.126  10.991  2.8891  1.2974  0.0652
  638MOL0     H86077  -0.855   5.166  10.784  0.4214  0.9818 -0.2740
  638MOL0     H86078  -0.758   5.302  10.846 -0.3826  1.1408  2.1105
  638MOL0     H86079  -0.895   5.104  11.033 -0.9447 -0.9543 -1.7121
  638MOL0     H86080  -0.861   5.278  11.070  0.9819  0.7745 -0.7009
  638MOL0     H86081  -0.992   5.476  10.970  1.1123 -0.4564 -0.1262
  638MOL0     H86082  -1.396   5.472  10.920  0.6144 -0.8758  2.8668
  638MOL0     H86083  -1.271   5.576  10.998  3.6494 -0.3556  0.0384
  638MOL0     H86084  -1.335   5.659  10.791 -0.1087  0.0923  2.7448
  638MOL0     H86085  -1.162   5.603  10.793  0.9994 -0.7139 -2.2174
  638MOL0     H86086  -1.414   5.463  10.667 -0.2196  1.8475 -1.4721
  638MOL0     H86087  -1.250   5.394  10.661 -0.7622 -0.5769 -1.1990
  638MOL0     H86088  -1.190   5.619  10.519  0.8126 -2.1349 -2.3569
  638MOL0     H86089  -1.364   5.645  10.511  1.1538  2.0671  1.6138
  638MOL0     H86090  -1.551   5.576  10.486 -1.9040 -1.9393  0.5227
  638MOL0     H86091  -1.755   5.508  10.392  1.3042 -0.4024  3.1810
  638MOL0     H86092  -1.881   4.965  10.257 -1.3054 -1.2952 -0.0115
  638MOL0     H86093  -2.133   4.872  10.246 -4.1784  0.0923 -2.5992
  638MOL0     H86094  -2.411   4.960   9.922 -0.8979 -1.7836  0.1321
  638MOL0     H86095  -2.490   4.893  10.050 -0.1348 -1.5329 -2.7722
  638MOL0     H86096  -2.396   5.189  10.070 -1.2079  1.8469  0.4515
  638MOL0     H86097  -2.559   5.129  10.037 -0.3705  1.8969  2.2591
  638MOL0     H86098  -2.430   5.032  10.288  1.0232  1.2210  1.3312
  638MOL0     H86099  -2.443   5.201  10.294 -0.6169  1.4076 -2.1755
  638MOL0     H86100  -2.665   4.991  10.235 -0.2968 -0.5648  1.8204
  638MOL0     H86101  -2.691   5.164  10.233 -0.2041 -0.3225  0.0211
  638MOL0     H86102  -2.648   5.170  10.473  2.9849 -0.6807  0.9289
  638MOL0     H86103  -2.574   5.013  10.483  2.2465  1.1274 -1.6783
  638MOL0     H86104  -2.788   4.894  10.411 -2.7021  1.2219 -1.3236
  638MOL0     H86105  -2.777   4.977  10.571  3.4200  1.8960  0.0912
  638MOL0     H86106  -2.922   5.071  10.308  1.1863  1.5442  0.5073
  638MOL0     H86107  -2.910   5.169  10.455 -0.2126  1.2414  1.7199
  638MOL0     H86108  -3.031   4.896  10.435 -1.3394  0.3403  1.1536
  638MOL0     H86109  -3.039   5.004  10.584  0.9153  3.2196  0.7618
  638MOL0     H86110  -2.228   5.132   9.942  1.6300 -1.0675 -1.5964
  638MOL0     H86111  -2.019   5.273   9.981 -0.8579  0.9850  2.5597
  638MOL0     H86112  -1.556   5.230  10.128  2.3278  1.0221 -1.3726
  638MOL0     H86113  -1.345   5.287  10.229  1.4037  1.7728 -0.9817
  638MOL0     H86114   0.217   4.811  10.570  1.3189  0.0267  0.0253
  638MOL0     H86115   0.430   4.932  10.587  1.1864  1.5505  2.2619
  638MOL0     H86116   0.664   5.140  10.890 -2.9398 -0.3916 -1.6831
  638MOL0     H86117   0.907   5.149  10.959  4.5486 -0.4002 -1.0159
  638MOL0     H86118   1.112   4.993  10.908 -0.7802  0.1256 -0.3116
  638MOL0     H86119   1.108   5.148  10.991 -1.1007 -0.8773  0.4062
  638MOL0     H86120   1.325   5.074  11.032 -4.9200 -1.4623  1.1417
  638MOL0     H86121   1.348   5.178  10.886 -0.1045 -0.4245 -1.7277
  638MOL0     H86122   1.362   4.964  10.743 -2.6323 -1.7175  0.4134
  638MOL0     H86123   1.309   4.876  10.877 -0.4783 -0.3736 -2.8045
  638MOL0     H86124   1.565   4.850  10.821 -3.5612  0.0456 -2.8794
  638MOL0     H86125   1.570   5.022  10.810  0.6713 -0.1294  0.8047
  638MOL0     H86126   1.649   4.982  11.216 -0.8320 -0.3104  0.0891
  638MOL0     H86127   1.039   5.160  10.566  0.8320  1.8524  0.0989
  638MOL0     H86128   0.744   5.265  10.431  0.8012  0.5799 -2.7589
  638MOL0     H86129   0.899   5.194  10.384  0.4767 -0.6012 -0.7162
  638MOL0     H86130   0.752   5.091  10.393  1.1324 -0.8103  0.8910
  639MOL0     O86131   5.015   0.545  10.722 -0.1072  0.0761 -0.2461
  639MOL0     C86132   5.064   0.463  10.637 -0.4142  0.2288 -0.1521
  639MOL0     O86133   5.005   0.432  10.514 -0.1616 -0.3367 -0.1144
  639MOL0     C86134   4.906   0.514  10.472  0.4911  0.7542  0.6833
  639MOL0     C86135   4.922   0.630  10.395 -0.5314  0.0215 -0.3089
  639MOL0     C86136   4.808   0.694  10.343  0.0948 -0.3392 -0.9730
  639MOL0     C86137   4.679   0.652  10.375 -0.4158  0.7646 -0.2997
  639MOL0     O86138   4.576   0.728  10.339  0.3021  0.5820  0.1188
  639MOL0     C86139   4.432   0.683  10.345 -0.3666  0.6696  0.7689
  639MOL0     C86140   4.347   0.708  10.221 -0.2850  0.4416  0.7229
  639MOL0     C86141   4.348   0.854  10.177 -0.7853 -0.1856  0.5418
  639MOL0     C86142   4.299   0.948  10.281  0.9373 -0.3792 -0.4315
  639MOL0     C86143   4.277   1.090  10.224  0.2026  0.6560 -0.2550
  639MOL0     C86144   4.241   1.187  10.344  1.1179 -0.3497 -0.3276
  639MOL0     C86145   4.106   1.172  10.422 -0.1974  1.0283  0.0322
  639MOL0     C86146   3.992   1.226  10.328 -0.0205  0.0306  0.0059
  639MOL0     N86147   3.871   1.158  10.364  0.6085 -0.6350 -0.6101
  639MOL0     C86148   3.771   1.204  10.448  0.4816  0.0024 -0.9545
  639MOL0     C86149   3.665   1.120  10.438  0.3327 -0.5130  0.1362
  639MOL0     C86150   3.539   1.135  10.514 -0.3971 -0.8719  0.1020
  639MOL0     C86151   3.481   1.004  10.548  0.3697  0.2257  0.8289
  639MOL0     C86152   3.570   0.932  10.653 -0.5968 -0.2109  0.4969
  639MOL0     C86153   3.696   0.865  10.611 -0.2654  0.0552 -0.9167
  639MOL0     O86154   3.753   0.791  10.718 -1.1870  0.1756  0.0837
  639MOL0     C86155   3.869   0.721  10.719  0.2090  0.4521  0.1427
  639MOL0     C86156   3.947   0.699  10.601 -0.2398  0.7191 -0.4733
  639MOL0     C86157   4.076   0.638  10.606  0.6632 -0.3872 -0.6329
  639MOL0     C86158   4.134   0.597  10.726 -0.0996 -0.0813  0.2611
  639MOL0     C86159   4.271   0.542  10.738  0.7214  0.0546  0.1884
  639MOL0     O86160   4.316   0.513  10.864  0.1646  0.8402  0.9174
  639MOL0     C86161   4.434   0.449  10.875 -0.6461 -0.4967 -0.0873
  639MOL0     C86162   4.548   0.518  10.837  0.3084 -0.2825  1.2155
  639MOL0     C86163   4.682   0.468  10.842 -0.3162  0.5611 -0.1443
  639MOL0     C86164   4.698   0.338  10.889 -0.1096 -0.0213 -0.3378
  639MOL0     O86165   4.822   0.272  10.894  0.2813 -0.1182  0.7889
  639MOL0     C86166   4.907   0.318  10.997  1.3019 -0.3104  0.5310
  639MOL0     C86167   5.035   0.235  10.979  1.2718 -0.0876  0.9490
  639MOL0     C86168   5.131   0.235  11.095 -0.1129 -0.7632 -0.3269
  639MOL0     C86169   5.233   0.123  11.074 -0.3772  0.4843 -0.5968
  639MOL0     C86170   5.317   0.103  11.206 -1.3125  1.0653 -0.2988
  639MOL0     C86171   5.447   0.025  11.173 -0.0522 -0.4071 -0.6393
  639MOL0     C86172   5.524   0.023  11.311 -0.2299 -0.3150  0.8966
  639MOL0     C86173   5.660  -0.049  11.304 -0.2273  0.2290  0.3491
  639MOL0    Cl86174   5.749  -0.029  11.460  0.4854 -0.2117 -0.1221
  639MOL0     C86175   4.586   0.268  10.927 -0.1717 -0.0923  0.4229
  639MOL0     C86176   4.458   0.315  10.914  0.4942  0.7720  0.5652
  639MOL0     O86177   4.324   0.508  10.629  0.7509  0.0979 -0.0581
  639MOL0     C86178   4.059   0.627  10.846 -0.8665  0.6188  0.0482
  639MOL0     C86179   3.930   0.677  10.837 -0.0135  0.1516  0.0421
  639MOL0     N86180   3.702   1.023  10.345  0.5883  0.3749 -0.2437
  639MOL0     N86181   3.830   1.044  10.312  0.7308  0.6226 -0.0365
  639MOL0     C86182   4.671   0.547  10.471  0.2593  0.2525 -0.4301
  639MOL0     C86183   4.777   0.467  10.507 -0.8134  1.1084  0.9177
  639MOL0     C86184   5.179   0.386  10.668 -1.2416  0.4413  0.4940
  639MOL0     C86185   5.218   0.276  10.585  0.5150 -0.6280 -0.0102
  639MOL0     C86186   5.327   0.196  10.609 -0.1064  1.5909 -0.2948
  639MOL0     C86187   5.410   0.222  10.710 -0.4716 -0.0986 -0.3835
  639MOL0     O86188   5.503   0.126  10.732 -0.2602 -0.9807  0.4045
  639MOL0     C86189   5.634   0.165  10.774  0.3352 -0.1715 -0.5593
  639MOL0     C86190   5.729   0.051  10.766  0.4729  0.2440  0.0212
  639MOL0     C86191   5.676  -0.064  10.859 -0.3965 -0.4639 -0.2797
  639MOL0     C86192   5.773  -0.172  10.899 -0.6439  0.8707 -0.2025
  639MOL0     C86193   5.909  -0.126  10.940 -0.2157  0.8516 -0.1588
  639MOL0     C86194   6.020  -0.084  10.975  0.4192 -0.0547  0.2357
  639MOL0     C86195   5.388   0.339  10.793 -0.3183 -0.1947 -0.0475
  639MOL0     C86196   5.274   0.420  10.769  0.4899 -0.1360 -0.0495
  639MOL0     C86197   5.279   0.557  10.838  0.1448  0.5983  1.3104
  639MOL0     H86198   5.020   0.673  10.375 -1.8547  2.4372 -2.2330
  639MOL0     H86199   4.839   0.784  10.292 -0.0758  1.5326  1.9680
  639MOL0     H86200   4.427   0.575  10.360  1.2211  0.6547  1.3916
  639MOL0     H86201   4.394   0.734  10.435  0.1578 -3.5904  3.7414
  639MOL0     H86202   4.240   0.693  10.232 -0.5621  0.5841 -1.3958
  639MOL0     H86203   4.369   0.660  10.126  1.1453  1.7897  0.3158
  639MOL0     H86204   4.303   0.863  10.078  0.9590  1.0498 -0.2046
  639MOL0     H86205   4.453   0.876  10.155 -0.3060 -2.9477 -0.3625
  639MOL0     H86206   4.207   0.909  10.325 -0.8976  2.4203 -1.4790
  639MOL0     H86207   4.362   0.942  10.371 -1.2853  2.1479  1.4679
  639MOL0     H86208   4.368   1.131  10.180  0.6494 -1.6207 -1.5978
  639MOL0     H86209   4.209   1.085  10.138  1.6752  3.5440 -1.7375
  639MOL0     H86210   4.315   1.183  10.425  1.0780 -0.2950 -0.2885
  639MOL0     H86211   4.236   1.288  10.303 -0.2992  0.7933  2.4225
  639MOL0     H86212   4.096   1.224  10.517 -2.8515 -1.4934  1.2710
  639MOL0     H86213   4.107   1.064  10.435  4.0490  0.4555 -2.7241
  639MOL0     H86214   3.987   1.331  10.356 -2.6549  0.3016 -1.1237
  639MOL0     H86215   4.017   1.221  10.221  2.4225  0.9135  0.4666
  639MOL0     H86216   3.763   1.297  10.503 -1.8131  0.1388 -1.4383
  639MOL0     H86217   3.567   1.198  10.598  1.7641 -1.3235 -0.2363
  639MOL0     H86218   3.462   1.188  10.455  0.1519  0.2299  0.3473
  639MOL0     H86219   3.380   1.013  10.588 -0.4017 -1.6908 -0.5194
  639MOL0     H86220   3.476   0.942  10.457  0.1756  1.3969  0.0197
  639MOL0     H86221   3.517   0.853  10.706 -2.4754  1.5403  1.3437
  639MOL0     H86222   3.594   1.010  10.726  1.8713 -2.1200  1.8823
  639MOL0     H86223   3.771   0.934  10.570 -0.9608  1.1740 -0.3453
  639MOL0     H86224   3.669   0.797  10.530  0.1745 -3.6971  1.8128
  639MOL0     H86225   3.912   0.718  10.500 -0.4568 -3.3791 -1.3228
  639MOL0     H86226   4.130   0.649  10.513  1.6317  3.0390  0.1829
  639MOL0     H86227   4.529   0.623  10.814 -2.2337 -0.3830  2.5328
  639MOL0     H86228   4.768   0.526  10.808 -1.0514  0.0084 -3.2210
  639MOL0     H86229   4.927   0.425  10.989 -0.2140 -0.1150 -1.3718
  639MOL0     H86230   4.855   0.300  11.092  0.5831 -0.9924  0.0194
  639MOL0     H86231   5.007   0.130  10.971 -0.3744  0.2803  1.6288
  639MOL0     H86232   5.084   0.268  10.887  0.6274  1.2444  1.0708
  639MOL0     H86233   5.191   0.323  11.119 -1.1965 -0.3140  0.8309
  639MOL0     H86234   5.072   0.216  11.185  1.7969 -2.8298  0.5883
  639MOL0     H86235   5.292   0.163  10.992  0.2582 -1.5405 -1.1941
  639MOL0     H86236   5.191   0.026  11.045  0.1684  0.1886 -0.4063
  639MOL0     H86237   5.259   0.040  11.274  2.4636 -1.0870  1.2261
  639MOL0     H86238   5.342   0.198  11.254  1.2152  0.7098 -0.7644
  639MOL0     H86239   5.416  -0.074  11.137 -0.8172 -0.1852 -0.6000
  639MOL0     H86240   5.496   0.085  11.096  1.4065 -0.6512  0.0724
  639MOL0     H86241   5.459  -0.015  11.391 -0.6945 -3.1999 -0.7307
  639MOL0     H86242   5.538   0.128  11.339  0.6651 -0.1084 -0.2845
  639MOL0     H86243   5.651  -0.156  11.283 -0.8853 -0.0749  1.9883
  639MOL0     H86244   5.715  -0.003  11.222  0.7635  0.3193  1.0505
  639MOL0     H86245   4.599   0.173  10.978 -0.6036  0.6048  1.8811
  639MOL0     H86246   4.380   0.249  10.949  1.8453 -0.7398  0.8639
  639MOL0     H86247   4.100   0.614  10.945 -0.0711  0.9301 -0.2257
  639MOL0     H86248   3.870   0.697  10.925  0.5245 -1.1909  0.7333
  639MOL0     H86249   4.570   0.515  10.497  0.4712  0.4530  0.6809
  639MOL0     H86250   4.770   0.366  10.547  3.0213 -0.3038 -1.4138
  639MOL0     H86251   5.151   0.245  10.505 -0.3158 -1.6295  1.0407
  639MOL0     H86252   5.332   0.104  10.551 -0.5609  1.2216  0.2375
  639MOL0     H86253   5.630   0.187  10.881  2.0051 -1.6969 -0.1292
  639MOL0     H86254   5.666   0.246  10.709  0.4941 -1.6893 -2.4437
  639MOL0     H86255   5.829   0.090  10.788  0.2431 -0.0892  1.7812
  639MOL0     H86256   5.733   0.009  10.665 -1.9827 -0.8686  0.3074
  639MOL0     H86257   5.590  -0.105  10.805 -0.7006  2.5267 -2.2895
  639MOL0     H86258   5.637  -0.033  10.956  3.0790 -3.3957  2.3697
  639MOL0     H86259   5.727  -0.236  10.976 -0.6991 -0.9167 -1.6518
  639MOL0     H86260   5.787  -0.241  10.815 -4.6214 -1.7410  0.9790
  639MOL0     H86261   6.108  -0.041  11.018 -0.5043  1.5375  0.5929
  639MOL0     H86262   5.464   0.369  10.865 -0.6191 -0.6330  0.4658
  639MOL0     H86263   5.367   0.563  10.903  3.3814 -0.5908 -2.5658
  639MOL0     H86264   5.280   0.639  10.765  1.7727  0.1342  0.7752
  639MOL0     H86265   5.183   0.563  10.889 -2.1254 -4.4331 -1.6514
  640MOL0     O86266  10.865  11.092   1.024  0.2103  1.2279  0.6785
  640MOL0     C86267  10.783  11.107   1.110 -0.6073  0.3172 -0.1358
  640MOL0     O86268  10.805  11.187   1.220 -0.0815  0.3937  0.5740
  640MOL0     C86269  10.934  11.244   1.227  0.6772  0.6955 -1.1795
  640MOL0     C86270  11.037  11.179   1.301 -0.3027  0.5557 -0.0172
  640MOL0     C86271  11.169  11.240   1.307 -0.6189  0.0201 -0.2723
  640MOL0     C86272  11.192  11.373   1.269 -0.0057 -0.3763 -0.2924
  640MOL0     O86273  11.307  11.443   1.267 -0.6721 -0.6587 -0.2328
  640MOL0     C86274  11.415  11.367   1.323  0.5468  0.2800  0.4075
  640MOL0     C86275  11.549  11.448   1.328 -0.4036  0.0357  0.4746
  640MOL0     C86276  11.673  11.359   1.331  0.0936  0.5340 -0.5404
  640MOL0     C86277  11.791  11.461   1.357 -0.3219 -0.0350  0.0673
  640MOL0     C86278  11.924  11.413   1.395 -0.0840 -0.2969 -0.0514
  640MOL0     C86279  12.004  11.371   1.270  0.1653 -0.5955  0.1951
  640MOL0     C86280  12.148  11.335   1.306 -0.0127  0.1870 -1.1137
  640MOL0     C86281  12.233  11.453   1.354 -0.1108 -0.3699  0.0136
  640MOL0     N86282  12.366  11.420   1.398 -0.1604 -0.4375 -0.8314
  640MOL0     C86283  12.466  11.372   1.323 -0.1409  0.3373  0.4289
  640MOL0     C86284  12.576  11.377   1.399  1.1416  0.3630 -0.4513
  640MOL0     C86285  12.702  11.317   1.366  0.1411 -0.2419 -0.1182
  640MOL0     C86286  12.823  11.398   1.404  0.0091  0.2977 -0.5992
  640MOL0     C86287  12.949  11.328   1.359 -0.7325 -0.2200  0.2118
  640MOL0     C86288  13.069  11.397   1.426  0.0964 -0.2313  0.1732
  640MOL0     O86289  13.181  11.332   1.363 -0.1777  0.3845  0.3785
  640MOL0     C86290  13.306  11.359   1.410 -0.6546  0.0702  0.3209
  640MOL0     C86291  13.411  11.268   1.377  0.2815  0.1465  0.1999
  640MOL0     C86292  13.544  11.292   1.424  0.0848 -1.0349 -0.2514
  640MOL0     C86293  13.562  11.395   1.522  0.3025  0.0500  0.0169
  640MOL0     C86294  13.697  11.409   1.584 -0.3622  0.2640 -0.6532
  640MOL0     O86295  13.785  11.313   1.552 -0.1621 -0.7527  0.4090
  640MOL0     C86296  13.910  11.307   1.609 -0.1835  0.2509  0.6127
  640MOL0     C86297  13.948  11.342   1.733 -0.9474  0.2824  0.1776
  640MOL0     C86298  14.082  11.336   1.768 -0.3286 -0.6661 -0.4651
  640MOL0     C86299  14.185  11.293   1.686 -0.0643  0.7922 -0.4599
  640MOL0     O86300  14.316  11.296   1.715 -0.0540 -0.1271 -0.5610
  640MOL0     C86301  14.352  11.399   1.807  0.0115 -1.1735 -0.0352
  640MOL0     C86302  14.502  11.417   1.791 -0.7426  0.0512 -0.1269
  640MOL0     C86303  14.555  11.559   1.821  0.4194  0.9838 -0.2670
  640MOL0     C86304  14.697  11.581   1.793  0.6999 -0.5480  0.4245
  640MOL0     C86305  14.742  11.730   1.805 -0.5646 -0.1118  0.7940
  640MOL0     C86306  14.896  11.752   1.825  0.1845 -0.1841  0.3965
  640MOL0     C86307  14.973  11.718   1.706 -0.5245  0.1201 -0.8059
  640MOL0     C86308  15.120  11.746   1.742  0.3157 -0.1255 -0.0817
  640MOL0    Cl86309  15.227  11.682   1.602  0.5243  0.3459 -0.5230
  640MOL0     C86310  14.151  11.266   1.555 -0.2898 -0.1668 -0.2923
  640MOL0     C86311  14.017  11.263   1.519  0.9420  0.6255 -0.2698
  640MOL0     O86312  13.717  11.500   1.663  0.9521  0.5973 -0.3548
  640MOL0     C86313  13.457  11.483   1.558  0.3031  0.0628 -0.5752
  640MOL0     C86314  13.335  11.471   1.492  0.8466 -0.2279  0.2487
  640MOL0     N86315  12.547  11.428   1.518 -0.0993  0.3494 -0.7030
  640MOL0     N86316  12.423  11.456   1.518  0.8694 -0.0034  0.5507
  640MOL0     C86317  11.085  11.438   1.213  0.1570  0.8411 -0.6055
  640MOL0     C86318  10.957  11.372   1.190 -0.5591 -0.2585 -0.4186
  640MOL0     C86319  10.650  11.045   1.085  0.4871  0.7650 -0.3307
  640MOL0     C86320  10.616  10.984   0.964 -1.2390 -0.2048  0.2216
  640MOL0     C86321  10.498  10.917   0.944  0.4000  0.4822  0.2638
  640MOL0     C86322  10.414  10.896   1.048  0.2767  0.8222  0.3833
  640MOL0     O86323  10.288  10.832   1.050 -0.2804 -0.2660 -0.3532
  640MOL0     C86324  10.266  10.734   0.952 -0.1170 -0.0001  0.6481
  640MOL0     C86325  10.139  10.650   1.002  0.0842 -0.6502 -0.1239
  640MOL0     C86326  10.015  10.732   1.022 -0.7774 -0.2308  0.7112
  640MOL0     C86327   9.899  10.644   0.986  0.2599  1.0779 -0.2457
  640MOL0     C86328   9.767  10.708   1.001 -0.1672 -0.0182 -0.4350
  640MOL0     C86329   9.659  10.757   1.004  0.3774 -0.3972 -0.5813
  640MOL0     C86330  10.434  10.968   1.168  0.6298  0.0074 -0.2905
  640MOL0     C86331  10.549  11.036   1.191  0.9140 -0.3766  0.0608
  640MOL0     C86332  10.560  11.092   1.329 -0.4819 -1.1007 -0.1521
  640MOL0     H86333  11.025  11.078   1.340 -2.8486  0.9379  0.3653
  640MOL0     H86334  11.248  11.172   1.338 -1.3189 -1.0817 -0.8296
  640MOL0     H86335  11.389  11.346   1.427  1.5440 -0.8157  0.4585
  640MOL0     H86336  11.429  11.278   1.260  1.2560  1.2171 -0.8133
  640MOL0     H86337  11.544  11.527   1.403 -0.0633  0.6608 -0.1428
  640MOL0     H86338  11.553  11.524   1.249  1.0430 -0.9957 -0.5212
  640MOL0     H86339  11.690  11.303   1.239 -0.3597  4.4677 -3.2914
  640MOL0     H86340  11.673  11.299   1.422  2.1250  0.1597 -0.7281
  640MOL0     H86341  11.793  11.505   1.257 -2.4464 -2.3434 -1.1149
  640MOL0     H86342  11.747  11.531   1.428 -2.7920 -2.3266  0.9993
  640MOL0     H86343  11.966  11.487   1.464  0.0773 -3.1252  3.1655
  640MOL0     H86344  11.907  11.328   1.462  0.7210  1.2206  2.1940
  640MOL0     H86345  11.958  11.294   1.207 -0.3533  0.4276 -0.7257
  640MOL0     H86346  11.999  11.458   1.203 -3.9426  0.0225  1.0559
  640MOL0     H86347  12.206  11.279   1.232  1.2367 -2.8213  1.8740
  640MOL0     H86348  12.146  11.269   1.394  0.4946  0.4046 -0.9383
  640MOL0     H86349  12.236  11.515   1.264 -2.4047  0.2943  0.3437
  640MOL0     H86350  12.182  11.510   1.432  1.4509  2.3399 -0.8020
  640MOL0     H86351  12.455  11.338   1.221 -1.5838  4.0890 -0.8442
  640MOL0     H86352  12.701  11.218   1.414  0.3919 -0.5166 -0.6685
  640MOL0     H86353  12.714  11.302   1.258  0.0156 -1.1575 -0.0138
  640MOL0     H86354  12.819  11.501   1.367 -0.0435 -0.1566 -1.9008
  640MOL0     H86355  12.817  11.408   1.513  2.1463 -3.3248  0.0067
  640MOL0     H86356  12.954  11.334   1.250  1.9768  3.5809  0.3497
  640MOL0     H86357  12.943  11.224   1.393  0.5037  0.5104  2.9288
  640MOL0     H86358  13.059  11.399   1.535 -1.9890 -3.4741  0.2045
  640MOL0     H86359  13.078  11.502   1.397  0.2111 -0.2930 -0.0144
  640MOL0     H86360  13.382  11.189   1.309 -0.1415 -0.5505  1.1706
  640MOL0     H86361  13.633  11.236   1.399  1.4641  0.6871  0.5088
  640MOL0     H86362  13.871  11.373   1.802 -2.8982  0.1679 -1.8417
  640MOL0     H86363  14.107  11.370   1.868 -0.3869 -1.2391 -0.2512
  640MOL0     H86364  14.299  11.493   1.787 -1.2591 -2.3449 -2.7203
  640MOL0     H86365  14.340  11.377   1.913  0.7887  2.2537  0.8962
  640MOL0     H86366  14.560  11.344   1.848  0.2158 -0.1966 -1.3789
  640MOL0     H86367  14.528  11.397   1.686 -2.9399 -3.2651 -0.1727
  640MOL0     H86368  14.499  11.629   1.759 -1.2072  1.4970  1.6488
  640MOL0     H86369  14.544  11.579   1.928  1.9237  0.5181  0.0006
  640MOL0     H86370  14.710  11.556   1.688  0.0065  2.1825 -0.3877
  640MOL0     H86371  14.757  11.519   1.861  2.4293 -0.2462 -0.7706
  640MOL0     H86372  14.693  11.775   1.892  0.5975 -0.7041  1.7973
  640MOL0     H86373  14.701  11.785   1.720 -0.6107  0.7205  1.3407
  640MOL0     H86374  14.907  11.859   1.840 -1.0291 -0.0118  0.1256
  640MOL0     H86375  14.938  11.690   1.906  2.0958  1.3730  0.6740
  640MOL0     H86376  14.934  11.772   1.620 -2.4013 -1.9449 -1.3477
  640MOL0     H86377  14.974  11.609   1.691 -0.5067  0.1751 -1.2178
  640MOL0     H86378  15.144  11.852   1.750  1.2937 -0.4754  2.4402
  640MOL0     H86379  15.139  11.691   1.834 -1.8475 -0.9750 -0.0786
  640MOL0     H86380  14.228  11.251   1.480 -2.0816  2.1159 -2.7901
  640MOL0     H86381  13.994  11.232   1.418 -1.6165 -0.2933  0.4984
  640MOL0     H86382  13.462  11.558   1.636 -1.8461 -0.7369  0.4155
  640MOL0     H86383  13.252  11.529   1.531  1.4412  0.7610  0.0665
  640MOL0     H86384  11.104  11.541   1.183  0.1411  0.1039 -3.3738
  640MOL0     H86385  10.869  11.429   1.163 -0.3541 -0.1293 -0.8257
  640MOL0     H86386  10.680  11.010   0.881 -1.2830 -0.4224  0.1167
  640MOL0     H86387  10.482  10.871   0.847 -0.9983 -1.5452  1.3931
  640MOL0     H86388  10.346  10.666   0.920 -0.1902  0.9337 -1.7485
  640MOL0     H86389  10.233  10.794   0.867 -0.4192  1.1007  1.5259
  640MOL0     H86390  10.172  10.597   1.093  1.6575 -0.0235 -0.3056
  640MOL0     H86391  10.115  10.574   0.927 -3.8115  0.5624 -0.3277
  640MOL0     H86392  10.015  10.817   0.953 -1.5733  0.0942  1.0981
  640MOL0     H86393  10.003  10.767   1.125  2.4608  0.9741  0.7843
  640MOL0     H86394   9.916  10.592   0.891 -3.3271  0.8934 -0.9473
  640MOL0     H86395   9.890  10.563   1.060  3.5322  0.0277 -0.8157
  640MOL0     H86396   9.558  10.789   1.018  0.1034 -1.6219  0.4339
  640MOL0     H86397  10.359  10.954   1.245 -0.2407 -2.8159 -1.5254
  640MOL0     H86398  10.463  11.098   1.379 -0.2179 -1.9875  0.4901
  640MOL0     H86399  10.625  11.033   1.394 -0.7148  0.9830  2.1154
  640MOL0     H86400  10.580  11.199   1.336  2.2058 -1.5597  0.2293
  641MOL0     O86401   9.753   8.646   6.343 -0.1360  0.0909 -0.6318
  641MOL0     C86402   9.780   8.528   6.334 -0.9519 -0.2636 -0.2131
  641MOL0     O86403   9.903   8.477   6.373  0.0308  0.1771 -0.1534
  641MOL0     C86404  10.003   8.543   6.442  0.9862 -1.0251 -0.2559
  641MOL0     C86405   9.977   8.658   6.518 -0.3233 -0.3799 -0.5013
  641MOL0     C86406  10.069   8.715   6.601  0.0281 -0.9344  0.2379
  641MOL0     C86407  10.179   8.648   6.627 -0.5752 -0.2842  0.0444
  641MOL0     O86408  10.252   8.694   6.728  0.7052 -0.4201  0.4365
  641MOL0     C86409  10.384   8.725   6.688 -0.3596  0.0498  1.1021
  641MOL0     C86410  10.432   8.849   6.772 -0.5382  0.0984  0.1895
  641MOL0     C86411  10.400   8.841   6.924  0.0532  0.0529 -0.1883
  641MOL0     C86412  10.447   8.721   7.002 -0.7210 -0.7946 -0.5609
  641MOL0     C86413  10.383   8.692   7.137  1.2472 -0.7739 -0.7245
  641MOL0     C86414  10.448   8.573   7.197 -0.3886  0.9597 -0.5257
  641MOL0     C86415  10.371   8.519   7.316  0.3378  0.5625  0.0940
  641MOL0     C86416  10.312   8.613   7.423  0.5133 -0.1307 -1.0720
  641MOL0     N86417  10.404   8.717   7.466 -0.0641  0.3419  0.1159
  641MOL0     C86418  10.508   8.679   7.545 -0.6282  0.6304 -1.4710
  641MOL0     C86419  10.539   8.788   7.613 -0.8724 -0.5177  0.1446
  641MOL0     C86420  10.626   8.790   7.737  0.3315  0.1345  0.4062
  641MOL0     C86421  10.772   8.775   7.712  0.2988  0.8236  0.6084
  641MOL0     C86422  10.841   8.682   7.815 -0.1153  0.1204 -0.4896
  641MOL0     C86423  10.878   8.545   7.756 -0.2080  0.1792 -0.7687
  641MOL0     O86424  10.925   8.465   7.861 -0.2814 -0.0949  0.2600
  641MOL0     C86425  10.937   8.334   7.823  0.0851  0.1462  0.3088
  641MOL0     C86426  10.947   8.239   7.935 -0.6679  0.2170  0.3184
  641MOL0     C86427  10.962   8.108   7.908  0.4228  0.3636  0.0921
  641MOL0     C86428  10.945   8.055   7.778 -0.4588 -0.3170  0.1971
  641MOL0     C86429  10.956   7.912   7.747  0.0433  0.1739  0.4910
  641MOL0     O86430  10.946   7.870   7.619 -0.2308  0.1820  0.4628
  641MOL0     C86431  10.978   7.738   7.589 -0.0612 -0.2483 -0.0265
  641MOL0     C86432  10.876   7.636   7.587  0.0906 -1.0031 -0.1269
  641MOL0     C86433  10.902   7.511   7.536 -0.3057  0.0006 -0.1234
  641MOL0     C86434  11.025   7.472   7.488 -0.2194  0.6211 -1.1036
  641MOL0     O86435  11.052   7.345   7.442 -0.9613 -0.9283  0.1792
  641MOL0     C86436  11.054   7.262   7.555  0.6035  0.7321 -0.1023
  641MOL0     C86437  11.157   7.290   7.659 -1.1629 -0.1287 -0.3285
  641MOL0     C86438  11.168   7.183   7.779 -0.0673 -0.6677 -0.0032
  641MOL0     C86439  11.193   7.042   7.735  0.1678 -0.2252 -0.0955
  641MOL0     C86440  11.344   7.006   7.727 -0.4291  0.1111  0.9152
  641MOL0     C86441  11.401   6.987   7.587  0.6658 -0.0277  0.2195
  641MOL0     C86442  11.521   6.891   7.579 -0.0224 -0.5196  0.2797
  641MOL0     C86443  11.562   6.878   7.434  0.0899  0.5964 -0.7340
  641MOL0    Cl86444  11.729   6.816   7.437  0.5808 -0.1406 -0.0657
  641MOL0     C86445  11.119   7.571   7.480  0.6294  0.1286  1.0974
  641MOL0     C86446  11.110   7.703   7.536  0.2883 -1.3649 -0.6169
  641MOL0     O86447  10.996   7.836   7.838  0.1407  0.5938  0.5476
  641MOL0     C86448  10.935   8.145   7.665  0.1355 -0.1786  0.1349
  641MOL0     C86449  10.943   8.280   7.694  0.0240 -0.5611 -0.2007
  641MOL0     N86450  10.452   8.890   7.567 -0.6399  0.3316 -0.4932
  641MOL0     N86451  10.387   8.854   7.475 -0.3646  0.9022 -0.0499
  641MOL0     C86452  10.207   8.526   6.561 -0.9161 -0.2873 -0.5239
  641MOL0     C86453  10.115   8.479   6.467 -0.3677 -0.2555 -0.2530
  641MOL0     C86454   9.684   8.424   6.278 -0.2829  0.3494 -0.7146
  641MOL0     C86455   9.728   8.297   6.245  0.6400 -0.5127 -0.3232
  641MOL0     C86456   9.636   8.197   6.204  0.1971 -0.5152  0.2509
  641MOL0     C86457   9.492   8.216   6.211  0.2924  0.1115 -0.6882
  641MOL0     O86458   9.397   8.121   6.176 -0.0998 -0.2963 -0.9544
  641MOL0     C86459   9.428   8.005   6.103 -0.3412 -0.1602  0.4579
  641MOL0     C86460   9.303   7.916   6.104  0.1606 -0.2412  0.6102
  641MOL0     C86461   9.291   7.822   6.223  0.1349 -0.2982 -0.2973
  641MOL0     C86462   9.229   7.868   6.338 -0.0975 -0.7450  0.3426
  641MOL0     C86463   9.085   7.891   6.311  1.2736  0.5876 -0.1517
  641MOL0     C86464   8.962   7.913   6.303  0.1112 -0.4097 -0.1832
  641MOL0     C86465   9.450   8.343   6.240  0.4554  0.5076  0.1982
  641MOL0     C86466   9.539   8.447   6.264  0.5016  0.4457  0.2689
  641MOL0     C86467   9.470   8.571   6.316 -0.3405  0.3315 -0.7037
  641MOL0     H86468   9.881   8.708   6.520  0.9777  2.2693  0.5602
  641MOL0     H86469  10.054   8.806   6.658 -0.4117 -0.8337 -0.0324
  641MOL0     H86470  10.454   8.641   6.691  0.4262  0.6681  0.5362
  641MOL0     H86471  10.381   8.758   6.584 -0.1497 -2.1115  0.3557
  641MOL0     H86472  10.387   8.941   6.734  0.5443 -0.3202 -2.2978
  641MOL0     H86473  10.540   8.858   6.756 -0.4866 -0.3468  0.2687
  641MOL0     H86474  10.291   8.837   6.931 -0.1965  0.0219 -2.9878
  641MOL0     H86475  10.439   8.927   6.980 -2.1844  0.3957  0.9561
  641MOL0     H86476  10.428   8.630   6.945  0.8442 -2.3860  1.3181
  641MOL0     H86477  10.554   8.733   7.020 -1.3651  2.2589  2.4289
  641MOL0     H86478  10.377   8.777   7.205 -5.7643 -0.9862 -0.4172
  641MOL0     H86479  10.279   8.660   7.125  0.2995  2.0725 -0.8482
  641MOL0     H86480  10.453   8.490   7.126  1.3779 -1.3916  2.1744
  641MOL0     H86481  10.552   8.597   7.221 -0.7258  0.7040  1.2948
  641MOL0     H86482  10.433   8.444   7.367  1.3535  2.0993  1.2120
  641MOL0     H86483  10.294   8.456   7.271  2.4908 -0.8790 -1.8227
  641MOL0     H86484  10.220   8.651   7.377 -0.7277 -1.2683  0.3422
  641MOL0     H86485  10.284   8.552   7.510  2.7679  0.2056 -0.0468
  641MOL0     H86486  10.544   8.583   7.579 -0.7554  1.4749  1.3270
  641MOL0     H86487  10.602   8.886   7.783  1.0849 -0.0287  1.1776
  641MOL0     H86488  10.594   8.710   7.806  3.7723 -3.0493 -1.3320
  641MOL0     H86489  10.786   8.727   7.615 -0.3140 -1.3091  1.5108
  641MOL0     H86490  10.819   8.874   7.706  0.5704  0.6042 -4.3053
  641MOL0     H86491  10.787   8.676   7.910  2.2450  2.0164  1.0920
  641MOL0     H86492  10.934   8.728   7.850 -0.8419 -0.5764  2.6448
  641MOL0     H86493  10.956   8.564   7.680  1.5158  1.6972  1.2504
  641MOL0     H86494  10.793   8.495   7.709 -0.1573 -2.0726  1.3294
  641MOL0     H86495  10.964   8.278   8.035  0.6446  2.5504 -0.7415
  641MOL0     H86496  10.998   8.057   7.996  2.0819  1.3255  0.0106
  641MOL0     H86497  10.772   7.653   7.615 -1.0720 -1.7730 -3.4803
  641MOL0     H86498  10.821   7.441   7.524  1.5095 -1.9961 -1.5160
  641MOL0     H86499  10.952   7.256   7.594  0.4233 -0.1942 -0.6846
  641MOL0     H86500  11.074   7.159   7.525 -0.2364 -0.0098  1.7414
  641MOL0     H86501  11.252   7.283   7.606  0.2414 -0.5857  2.1152
  641MOL0     H86502  11.144   7.392   7.698 -1.2341 -1.1667  2.6619
  641MOL0     H86503  11.253   7.206   7.844  0.4032  0.1627 -0.8784
  641MOL0     H86504  11.077   7.183   7.841  1.4093  0.3836  2.2868
  641MOL0     H86505  11.144   7.012   7.643 -1.5492 -0.0923  0.7412
  641MOL0     H86506  11.156   6.983   7.820 -0.4155  0.7557  0.3533
  641MOL0     H86507  11.348   6.913   7.784 -3.2435 -0.7346 -0.1058
  641MOL0     H86508  11.401   7.091   7.766  0.5038 -0.5587  1.0594
  641MOL0     H86509  11.321   6.953   7.520  1.0995 -1.4013  0.3710
  641MOL0     H86510  11.440   7.080   7.545  1.0540 -0.4788 -0.4337
  641MOL0     H86511  11.499   6.791   7.617 -1.0281 -0.2833  0.3417
  641MOL0     H86512  11.601   6.942   7.632  0.1213  2.2315 -2.2758
  641MOL0     H86513  11.497   6.807   7.382 -0.2838 -0.5588  1.2172
  641MOL0     H86514  11.568   6.977   7.387  1.7161  1.2537  0.7610
  641MOL0     H86515  11.212   7.548   7.429 -1.0449 -1.4128 -1.4953
  641MOL0     H86516  11.187   7.776   7.514  0.5642 -1.3226  0.4368
  641MOL0     H86517  10.930   8.102   7.565 -2.1908 -0.3308  0.2521
  641MOL0     H86518  10.957   8.342   7.606  0.4594  2.1534  1.6583
  641MOL0     H86519  10.298   8.472   6.585  0.4797  2.0129 -0.3153
  641MOL0     H86520  10.128   8.386   6.413  4.0810  0.3201 -0.5739
  641MOL0     H86521   9.834   8.277   6.251  0.5215 -1.5684 -1.3980
  641MOL0     H86522   9.676   8.097   6.188  0.2006 -0.4453 -0.1910
  641MOL0     H86523   9.515   7.949   6.139 -0.6208 -1.4691 -0.8222
  641MOL0     H86524   9.448   8.036   6.000  0.3733 -0.8644  0.3785
  641MOL0     H86525   9.301   7.856   6.013  0.5037  1.7106 -0.7316
  641MOL0     H86526   9.211   7.975   6.099 -2.0609 -3.2766  2.2317
  641MOL0     H86527   9.388   7.791   6.261 -0.5438  0.8420  2.5797
  641MOL0     H86528   9.240   7.731   6.191 -2.3410 -0.4784  3.5192
  641MOL0     H86529   9.239   7.808   6.428 -1.1721 -1.5704 -0.0605
  641MOL0     H86530   9.260   7.972   6.353 -1.6690  0.0275 -1.3482
  641MOL0     H86531   8.857   7.930   6.300 -0.3654 -2.0001  2.7663
  641MOL0     H86532   9.344   8.363   6.232 -0.0174 -1.1627  1.6176
  641MOL0     H86533   9.529   8.658   6.285  0.4528  0.0693  0.0282
  641MOL0     H86534   9.368   8.581   6.277 -1.4260 -1.7130  1.4043
  641MOL0     H86535   9.465   8.566   6.425  1.4108 -3.1134 -0.6473
  642MOL0     O86536   1.576  10.019   5.718 -0.2857  0.4522 -0.1159
  642MOL0     C86537   1.540   9.969   5.610 -0.6380  0.5182  0.3685
  642MOL0     O86538   1.572  10.017   5.485 -0.3142 -0.6973 -0.3299
  642MOL0     C86539   1.683  10.095   5.462  0.7817 -0.6008 -0.2464
  642MOL0     C86540   1.662  10.173   5.345  0.3286 -0.5347 -0.4373
  642MOL0     C86541   1.771  10.248   5.297 -1.4123  0.6298 -0.0113
  642MOL0     C86542   1.890  10.259   5.371  0.1968 -0.4799  0.3982
  642MOL0     O86543   1.998  10.328   5.332 -0.2161 -0.1234 -0.9441
  642MOL0     C86544   2.002  10.371   5.194 -0.1134  0.4438  0.1811
  642MOL0     C86545   2.115  10.475   5.175 -0.8341 -0.8074 -0.1116
  642MOL0     C86546   2.249  10.428   5.243 -0.4214  0.3724 -0.2337
  642MOL0     C86547   2.327  10.309   5.192 -0.4973 -0.5083 -0.0377
  642MOL0     C86548   2.460  10.284   5.270  0.2438  0.1587 -0.2977
  642MOL0     C86549   2.567  10.389   5.240 -0.3379 -0.3811  0.2506
  642MOL0     C86550   2.686  10.333   5.161 -0.1196  0.1853  0.0853
  642MOL0     C86551   2.665  10.352   5.013 -0.5920  0.6464  0.9050
  642MOL0     N86552   2.769  10.272   4.936  1.0998 -0.5830 -0.3220
  642MOL0     C86553   2.749  10.207   4.818  0.6514  0.2898 -0.7736
  642MOL0     C86554   2.864  10.141   4.803  0.0225 -0.1402 -0.1166
  642MOL0     C86555   2.901  10.057   4.689  0.2506 -0.0064  0.0362
  642MOL0     C86556   2.993  10.126   4.599  0.1607 -0.5419 -0.1747
  642MOL0     C86557   2.940  10.246   4.523  0.3068  0.4624  0.3763
  642MOL0     C86558   3.012  10.296   4.392 -0.3294 -0.7336  0.0639
  642MOL0     O86559   3.044  10.191   4.294 -0.4928 -0.0327 -0.9016
  642MOL0     C86560   2.950  10.161   4.200  0.2785 -0.7290 -0.3066
  642MOL0     C86561   2.998  10.088   4.093  1.1226  0.0358  0.5699
  642MOL0     C86562   2.912  10.060   3.984  0.2078  0.1193  0.7721
  642MOL0     C86563   2.778  10.100   3.989  0.6917 -0.5033  0.1780
  642MOL0     C86564   2.682  10.080   3.877  0.5582 -0.4359 -1.2689
  642MOL0     O86565   2.736  10.037   3.763  0.0573  0.5922  0.3649
  642MOL0     C86566   2.656  10.028   3.652  0.0697 -0.4795 -0.3729
  642MOL0     C86567   2.606   9.903   3.603  0.7241  0.1382  0.0313
  642MOL0     C86568   2.536   9.902   3.474 -0.7538 -0.1102 -0.2233
  642MOL0     C86569   2.478  10.022   3.425 -0.1722  0.0831  0.3419
  642MOL0     O86570   2.396  10.036   3.315  0.1684 -0.2289 -0.3696
  642MOL0     C86571   2.381   9.915   3.233  0.6221  0.8352 -0.1121
  642MOL0     C86572   2.298   9.955   3.111  0.5224  0.5390  0.6410
  642MOL0     C86573   2.363  10.064   3.028  0.3949  0.2930  0.2897
  642MOL0     C86574   2.499  10.042   2.967 -0.3241  0.6951  0.6893
  642MOL0     C86575   2.478   9.937   2.856 -0.0003 -0.5475 -0.2823
  642MOL0     C86576   2.566   9.811   2.872 -0.0253 -1.4728 -0.8832
  642MOL0     C86577   2.521   9.690   2.784 -0.2529 -1.0114 -0.5024
  642MOL0     C86578   2.634   9.587   2.780  0.2446 -0.1317  0.5214
  642MOL0    Cl86579   2.737   9.613   2.632 -0.4260  0.6225 -0.0410
  642MOL0     C86580   2.515  10.142   3.479 -0.2633  0.6795 -0.2740
  642MOL0     C86581   2.606  10.142   3.583 -0.4331  0.9849  0.0438
  642MOL0     O86582   2.559  10.099   3.899  0.4710  0.0316 -0.7356
  642MOL0     C86583   2.725  10.149   4.110 -0.5068 -1.1238 -0.8469
  642MOL0     C86584   2.816  10.184   4.213  0.9804 -0.4053  0.1159
  642MOL0     N86585   2.945  10.166   4.906  0.3101  0.0363  0.0902
  642MOL0     N86586   2.892  10.251   4.985  0.4056  0.5925 -0.8471
  642MOL0     C86587   1.896  10.202   5.494  0.0983 -0.4478 -0.6843
  642MOL0     C86588   1.794  10.116   5.542 -0.3888 -0.2237  1.1122
  642MOL0     C86589   1.441   9.858   5.616  0.2438 -0.3745 -0.0033
  642MOL0     C86590   1.389   9.813   5.493 -1.0429  0.0227  0.0041
  642MOL0     C86591   1.302   9.704   5.489  0.0808 -0.0683  0.1643
  642MOL0     C86592   1.262   9.637   5.604  0.1381 -0.0731 -0.2770
  642MOL0     O86593   1.159   9.537   5.606  0.3535 -0.3043  0.4063
  642MOL0     C86594   1.113   9.466   5.485 -0.0753 -1.0130  0.4300
  642MOL0     C86595   1.214   9.369   5.428  0.3418  0.1596 -0.7947
  642MOL0     C86596   1.260   9.257   5.528  0.3341 -0.0411 -0.4226
  642MOL0     C86597   1.350   9.307   5.647  0.5322 -0.1022 -0.2134
  642MOL0     C86598   1.428   9.197   5.711  0.3336  0.0649  0.0818
  642MOL0     C86599   1.505   9.112   5.761  0.5719  0.1719  0.0226
  642MOL0     C86600   1.307   9.687   5.725 -0.1753 -0.3443 -0.2434
  642MOL0     C86601   1.403   9.790   5.736 -0.7821 -0.3896  0.1734
  642MOL0     C86602   1.454   9.816   5.876 -0.5491 -1.1122 -0.5391
  642MOL0     H86603   1.578  10.152   5.280  0.8584  1.4907 -1.8767
  642MOL0     H86604   1.758  10.310   5.209  2.2850  2.3749  0.4949
  642MOL0     H86605   2.024  10.281   5.137 -0.5962 -1.6157  3.0123
  642MOL0     H86606   1.912  10.423   5.160 -0.1983  2.1438  2.7167
  642MOL0     H86607   2.096  10.574   5.218 -4.1316 -1.3155 -0.1580
  642MOL0     H86608   2.124  10.481   5.067 -1.5376 -1.3590 -0.2094
  642MOL0     H86609   2.242  10.412   5.351  1.3346  1.5973  0.0957
  642MOL0     H86610   2.321  10.508   5.228  2.0919 -1.4963  1.1144
  642MOL0     H86611   2.268  10.220   5.215 -0.7820 -0.8198 -1.8105
  642MOL0     H86612   2.354  10.325   5.087  2.6276  3.1640  1.0783
  642MOL0     H86613   2.429  10.302   5.373 -1.4832 -1.0916 -0.5633
  642MOL0     H86614   2.497  10.181   5.258 -1.2795 -0.3497 -0.8900
  642MOL0     H86615   2.525  10.473   5.184 -1.6657  1.4904  3.7466
  642MOL0     H86616   2.606  10.432   5.333 -1.2100  1.9851 -0.4191
  642MOL0     H86617   2.694  10.225   5.174 -2.1278 -0.2018 -1.4019
  642MOL0     H86618   2.773  10.388   5.199  0.1324 -0.9269  1.1720
  642MOL0     H86619   2.570  10.312   4.976 -1.5463  1.8470  1.9934
  642MOL0     H86620   2.674  10.456   4.981  0.9128  0.4736  0.6657
  642MOL0     H86621   2.659  10.198   4.759  1.0580  0.2277 -1.3893
  642MOL0     H86622   2.952   9.971   4.733 -1.3992  0.1990  2.5669
  642MOL0     H86623   2.804  10.040   4.641 -0.9677 -1.2381  2.7181
  642MOL0     H86624   3.083  10.161   4.650  0.3055  2.2283 -2.0625
  642MOL0     H86625   3.021  10.059   4.517  0.0905 -0.4203 -0.2997
  642MOL0     H86626   2.945  10.324   4.599 -1.3201 -1.1310  2.2013
  642MOL0     H86627   2.833  10.242   4.501  0.5890 -0.6280 -0.9087
  642MOL0     H86628   3.107  10.337   4.428 -0.7008  0.7199 -0.5094
  642MOL0     H86629   2.962  10.382   4.345 -3.1198 -4.0071 -3.5848
  642MOL0     H86630   3.104  10.067   4.088  0.7086 -2.4448  0.7158
  642MOL0     H86631   2.940  10.004   3.895 -0.0620 -0.7752  1.2465
  642MOL0     H86632   2.634   9.807   3.645 -0.1427  1.1692  3.2485
  642MOL0     H86633   2.507   9.803   3.439 -0.2469 -0.1243 -0.6048
  642MOL0     H86634   2.474   9.861   3.213 -0.0458 -0.1932 -0.5356
  642MOL0     H86635   2.329   9.842   3.297  3.3093  0.9860  2.4525
  642MOL0     H86636   2.277   9.866   3.049 -0.4759 -0.1356  1.8922
  642MOL0     H86637   2.194   9.984   3.128 -0.0882 -0.3801 -1.2620
  642MOL0     H86638   2.295  10.082   2.944  0.9787 -3.0963 -1.1118
  642MOL0     H86639   2.368  10.145   3.100  0.4934 -0.0578  0.6833
  642MOL0     H86640   2.564  10.024   3.054  0.1056  0.0582  0.2414
  642MOL0     H86641   2.529  10.138   2.924 -0.5478  0.6445  0.4181
  642MOL0     H86642   2.505   9.983   2.761 -2.4381  1.3412 -0.1304
  642MOL0     H86643   2.372   9.917   2.843  0.2226 -1.8878 -0.1866
  642MOL0     H86644   2.672   9.828   2.849  0.5455 -3.3675  0.1515
  642MOL0     H86645   2.560   9.786   2.978 -0.8650  1.7151 -0.0871
  642MOL0     H86646   2.478   9.718   2.687 -4.3911 -2.1150  0.8090
  642MOL0     H86647   2.431   9.649   2.831  0.2610  0.6458  2.0955
  642MOL0     H86648   2.702   9.588   2.865  1.2903 -5.2323  0.0706
  642MOL0     H86649   2.578   9.493   2.789 -1.8621  1.1138  1.2441
  642MOL0     H86650   2.473  10.234   3.440 -0.1341  1.5326  1.4942
  642MOL0     H86651   2.644  10.237   3.620 -0.0177  0.2504  1.5718
  642MOL0     H86652   2.622  10.181   4.121 -0.3974  0.3941 -3.4569
  642MOL0     H86653   2.763  10.226   4.297  1.0960 -1.1571  0.5707
  642MOL0     H86654   1.976  10.220   5.565  0.6585 -0.7023 -1.2380
  642MOL0     H86655   1.821  10.050   5.623  1.3851 -1.1528 -0.1499
  642MOL0     H86656   1.417   9.860   5.400  0.9708  2.2943  1.6261
  642MOL0     H86657   1.257   9.669   5.397 -1.7968 -1.3062  1.4791
  642MOL0     H86658   1.091   9.542   5.409  1.3407 -2.2702 -1.3110
  642MOL0     H86659   1.027   9.401   5.505  1.3443 -3.2268 -0.2865
  642MOL0     H86660   1.298   9.423   5.383 -0.5391  0.2617 -2.4128
  642MOL0     H86661   1.161   9.316   5.348  1.7900 -2.4647 -0.1165
  642MOL0     H86662   1.317   9.200   5.454 -0.2442  2.3023 -2.8453
  642MOL0     H86663   1.183   9.195   5.576  1.4470 -0.6987  0.5683
  642MOL0     H86664   1.419   9.384   5.614  1.5396 -0.8005  0.2188
  642MOL0     H86665   1.291   9.351   5.728  2.9046  1.8981  0.5299
  642MOL0     H86666   1.558   9.049   5.830  0.5912 -1.2440 -1.2212
  642MOL0     H86667   1.273   9.628   5.810  0.6002 -0.9588 -0.3476
  642MOL0     H86668   1.406   9.905   5.917  2.4244 -0.9909  3.2480
  642MOL0     H86669   1.419   9.734   5.938  0.6588 -2.0257 -1.0314
  642MOL0     H86670   1.560   9.845   5.887 -0.8294 -0.5719  0.9208
  643MOL0     O86671   1.491   7.941   0.829 -0.1829 -0.3686 -0.3805
  643MOL0     C86672   1.472   7.885   0.941  0.9795 -0.2732 -0.5598
  643MOL0     O86673   1.557   7.798   1.005 -0.1364 -0.2745  0.2124
  643MOL0     C86674   1.683   7.763   0.957 -0.6713  0.5783  0.3280
  643MOL0     C86675   1.746   7.796   0.828  0.4793 -0.1344 -0.4804
  643MOL0     C86676   1.880   7.760   0.804 -0.2860 -0.4899  0.0236
  643MOL0     C86677   1.962   7.718   0.911  0.5937  0.5121  0.9682
  643MOL0     O86678   2.092   7.704   0.887 -0.4084 -0.0399  0.4221
  643MOL0     C86679   2.186   7.771   0.964  0.1774  0.2421 -0.2070
  643MOL0     C86680   2.321   7.792   0.886 -0.3014 -0.5369  0.1680
  643MOL0     C86681   2.411   7.878   0.967 -0.2111 -0.7327 -0.7081
  643MOL0     C86682   2.542   7.900   0.891 -0.5168  0.3056 -0.1211
  643MOL0     C86683   2.647   7.965   0.987 -0.3055 -0.0884 -0.0974
  643MOL0     C86684   2.779   7.952   0.909 -0.0847 -0.5048 -0.3741
  643MOL0     C86685   2.894   8.016   0.988 -0.3323 -0.2454 -0.4655
  643MOL0     C86686   3.025   7.998   0.904  0.3378  0.0788  0.0822
  643MOL0     N86687   3.130   8.086   0.959 -0.1809  0.3862 -0.5553
  643MOL0     C86688   3.195   8.078   1.077  0.0251  0.9578 -0.0273
  643MOL0     C86689   3.266   8.186   1.091 -0.3414  0.9003  0.3362
  643MOL0     C86690   3.378   8.211   1.186 -0.1586 -0.6480  0.5773
  643MOL0     C86691   3.495   8.274   1.119  0.4109  0.3296  0.3283
  643MOL0     C86692   3.572   8.168   1.029  1.0068 -0.1272 -0.3876
  643MOL0     C86693   3.724   8.190   1.018 -0.2858 -1.2509 -0.3720
  643MOL0     O86694   3.772   8.144   1.139 -0.6517 -0.1038 -0.2382
  643MOL0     C86695   3.910   8.145   1.160  0.3486  0.2672 -0.0419
  643MOL0     C86696   3.957   8.092   1.280  0.2279  0.3656 -0.4614
  643MOL0     C86697   4.096   8.102   1.314  0.4329  0.9706  0.1700
  643MOL0     C86698   4.193   8.133   1.223  0.9778  0.5326 -0.0030
  643MOL0     C86699   4.343   8.140   1.247  0.7005 -0.8459 -0.1197
  643MOL0     O86700   4.419   8.167   1.136 -0.3137 -0.2435  0.5975
  643MOL0     C86701   4.554   8.163   1.146  0.5506 -0.0808  0.7312
  643MOL0     C86702   4.622   8.077   1.061  0.4115  0.2240 -0.2321
  643MOL0     C86703   4.767   8.085   1.063 -0.2064 -0.2429 -0.8436
  643MOL0     C86704   4.832   8.181   1.147 -0.9322  0.2290  0.3813
  643MOL0     O86705   4.972   8.168   1.158 -0.8681  0.2577 -0.7327
  643MOL0     C86706   5.058   8.269   1.212  0.7231 -0.0932  0.5573
  643MOL0     C86707   5.072   8.393   1.126  0.9173  0.7722 -0.0430
  643MOL0     C86708   5.145   8.514   1.188  0.3028  0.0686 -0.4393
  643MOL0     C86709   5.286   8.483   1.225  0.3243  0.4738 -0.7879
  643MOL0     C86710   5.361   8.570   1.331  0.6234  0.0349  0.4950
  643MOL0     C86711   5.497   8.513   1.364 -0.0053 -0.4615  0.8100
  643MOL0     C86712   5.575   8.588   1.471  0.1231  0.5556 -0.1709
  643MOL0     C86713   5.711   8.525   1.506 -0.0644  0.0165  0.8394
  643MOL0    Cl86714   5.810   8.631   1.622  0.3515  0.3800 -0.0866
  643MOL0     C86715   4.760   8.271   1.219  0.5306  0.2592 -0.3161
  643MOL0     C86716   4.620   8.259   1.215 -0.4802 -0.2166 -0.7028
  643MOL0     O86717   4.382   8.131   1.360 -0.3626 -0.2648  0.7313
  643MOL0     C86718   4.143   8.195   1.106 -0.0040  0.5237  0.6870
  643MOL0     C86719   4.000   8.214   1.083 -0.2692  0.1319  0.3321
  643MOL0     N86720   3.240   8.251   0.971 -0.9666 -0.0589 -0.0603
  643MOL0     N86721   3.170   8.194   0.891 -0.0856 -0.1512  0.4602
  643MOL0     C86722   1.906   7.693   1.034 -0.4435 -0.4974  0.0301
  643MOL0     C86723   1.768   7.706   1.057 -0.1411  0.1162  0.4178
  643MOL0     C86724   1.351   7.912   1.021  0.8010  0.9004  0.4614
  643MOL0     C86725   1.315   7.804   1.108 -0.3452 -0.0338  0.1224
  643MOL0     C86726   1.191   7.811   1.172  0.1183 -0.0883 -0.0766
  643MOL0     C86727   1.101   7.907   1.146 -0.6596  0.9929  0.0063
  643MOL0     O86728   0.992   7.889   1.228 -0.8166 -0.4785 -0.7024
  643MOL0     C86729   0.895   7.989   1.205 -0.4036  0.6581 -0.0049
  643MOL0     C86730   0.767   7.939   1.274  0.6311 -0.0057 -0.4734
  643MOL0     C86731   0.642   8.034   1.250  0.4524  0.4505  0.3885
  643MOL0     C86732   0.535   8.020   1.362 -0.8090  0.0346 -0.7100
  643MOL0     C86733   0.485   7.876   1.378 -0.0322 -0.4991 -0.3395
  643MOL0     C86734   0.437   7.761   1.365 -0.7690 -0.8202  0.2274
  643MOL0     C86735   1.134   8.012   1.055  0.3764  0.1811 -1.1225
  643MOL0     C86736   1.259   8.017   0.995  0.4347  0.4057  0.2793
  643MOL0     C86737   1.298   8.130   0.925  0.4969  0.8772 -0.1620
  643MOL0     H86738   1.687   7.813   0.739 -1.5504  0.1682  0.8475
  643MOL0     H86739   1.925   7.768   0.706  1.7040 -2.0042  0.7610
  643MOL0     H86740   2.140   7.865   0.996 -0.1448 -0.5878  1.9348
  643MOL0     H86741   2.211   7.719   1.057 -1.5744 -0.9027 -0.3413
  643MOL0     H86742   2.300   7.833   0.787 -0.6837  2.4510  1.3926
  643MOL0     H86743   2.365   7.692   0.885  0.2108 -0.3143  0.2521
  643MOL0     H86744   2.420   7.831   1.065 -3.3052  1.9633  1.0499
  643MOL0     H86745   2.366   7.973   0.998  0.4998 -0.6873  0.2230
  643MOL0     H86746   2.570   7.798   0.865  4.1613  1.6567 -1.3523
  643MOL0     H86747   2.523   7.961   0.802  0.6861 -1.7362 -1.8766
  643MOL0     H86748   2.625   8.072   0.999  1.6956  0.1701  1.9901
  643MOL0     H86749   2.639   7.918   1.085  1.3884  1.2112  0.7218
  643MOL0     H86750   2.801   7.848   0.887  0.4548 -0.5833  0.4831
  643MOL0     H86751   2.775   8.001   0.811 -1.1279 -0.5188 -0.3526
  643MOL0     H86752   2.903   7.960   1.082 -0.8027 -0.3677 -0.4954
  643MOL0     H86753   2.876   8.116   1.029  1.8368 -1.1045  3.0468
  643MOL0     H86754   3.051   7.893   0.920 -2.5834 -0.5103  1.7285
  643MOL0     H86755   3.009   8.026   0.800  1.5557 -0.2644 -0.2110
  643MOL0     H86756   3.197   8.000   1.153  1.9129  0.4969 -0.4973
  643MOL0     H86757   3.353   8.284   1.264 -1.4765 -0.3010 -0.1236
  643MOL0     H86758   3.402   8.111   1.224  1.0445 -0.4091  0.4804
  643MOL0     H86759   3.472   8.364   1.062 -0.3587 -0.0046  0.0913
  643MOL0     H86760   3.558   8.305   1.203  0.8471 -0.8913  0.4799
  643MOL0     H86761   3.512   8.159   0.938 -1.2146  2.7734  0.6505
  643MOL0     H86762   3.565   8.068   1.073  2.7834 -0.7273 -1.3464
  643MOL0     H86763   3.745   8.296   0.999 -2.0134 -0.7875  0.1964
  643MOL0     H86764   3.763   8.137   0.930  0.4513 -0.5877 -0.4633
  643MOL0     H86765   3.885   8.058   1.354 -2.1022  1.5454 -2.0755
  643MOL0     H86766   4.116   8.071   1.416 -1.6759  2.4775  1.1120
  643MOL0     H86767   4.565   8.006   1.001 -0.0369 -1.8710  2.4928
  643MOL0     H86768   4.827   8.026   0.994  0.1131  3.3977 -3.9948
  643MOL0     H86769   5.022   8.296   1.311  0.6657 -1.8569  1.0458
  643MOL0     H86770   5.156   8.223   1.227  1.9946  2.3342  0.2287
  643MOL0     H86771   5.114   8.383   1.025  1.7284 -2.9217  0.4877
  643MOL0     H86772   4.968   8.421   1.106  1.0904  0.1858 -1.9519
  643MOL0     H86773   5.143   8.608   1.132 -0.0596  1.5062  1.8578
  643MOL0     H86774   5.093   8.542   1.280  0.1098  0.1244 -0.5644
  643MOL0     H86775   5.343   8.469   1.133  3.1651 -0.3436  0.9530
  643MOL0     H86776   5.270   8.387   1.275 -0.5447 -0.0788 -2.0965
  643MOL0     H86777   5.306   8.593   1.423 -1.8607  0.4708 -0.9829
  643MOL0     H86778   5.388   8.659   1.272  1.8306 -1.6137 -1.5750
  643MOL0     H86779   5.489   8.409   1.398 -2.4147 -1.9947 -3.5978
  643MOL0     H86780   5.559   8.524   1.275 -1.9731 -5.1773 -1.5440
  643MOL0     H86781   5.524   8.577   1.567 -1.7031 -0.2702 -1.1719
  643MOL0     H86782   5.581   8.693   1.443 -0.0923  0.8644  0.8922
  643MOL0     H86783   5.694   8.425   1.547 -0.0479 -0.3672 -0.0840
  643MOL0     H86784   5.773   8.519   1.417  0.5306 -0.3620  1.2675
  643MOL0     H86785   4.799   8.343   1.291 -0.7314  1.2089 -0.5468
  643MOL0     H86786   4.555   8.325   1.273 -3.1188 -1.9524 -1.5162
  643MOL0     H86787   4.215   8.239   1.038  0.0122  2.9996  2.1657
  643MOL0     H86788   3.963   8.272   0.998  2.8445  1.7164 -0.1154
  643MOL0     H86789   1.979   7.675   1.113 -1.1227  0.3717  0.8819
  643MOL0     H86790   1.724   7.673   1.151  1.2786  0.6701  1.3272
  643MOL0     H86791   1.375   7.715   1.117 -0.9183 -0.2929  1.6800
  643MOL0     H86792   1.168   7.727   1.236 -2.9292  1.0592  0.4886
  643MOL0     H86793   0.867   8.006   1.101  0.6046  3.1639  0.0720
  643MOL0     H86794   0.939   8.087   1.228  3.3186 -1.2598  2.1340
  643MOL0     H86795   0.767   7.937   1.384 -0.7054 -3.3138 -0.4236
  643MOL0     H86796   0.758   7.835   1.243  2.0005 -0.1490 -0.4788
  643MOL0     H86797   0.592   8.011   1.156  0.5962  0.0322  0.4128
  643MOL0     H86798   0.674   8.138   1.241 -0.7991  0.7270 -1.2422
  643MOL0     H86799   0.577   8.067   1.452  1.0989  1.2950 -2.1702
  643MOL0     H86800   0.457   8.088   1.326 -1.2500  0.1873  0.5062
  643MOL0     H86801   0.392   7.664   1.358 -3.0108  0.2516 -1.9442
  643MOL0     H86802   1.073   8.100   1.038 -0.3743  0.1000  0.8675
  643MOL0     H86803   1.278   8.214   0.991 -3.9277 -0.6183  0.7370
  643MOL0     H86804   1.404   8.144   0.901  0.6952  0.2378  0.3072
  643MOL0     H86805   1.233   8.145   0.838  0.7600 -0.6874 -0.6659
  644MOL0     O86806   9.645   9.029   9.282  0.0305  0.0165  0.5224
  644MOL0     C86807   9.705   8.921   9.274 -0.0512 -0.0358 -0.5703
  644MOL0     O86808   9.709   8.836   9.170 -0.1448  0.4024  0.0118
  644MOL0     C86809   9.642   8.882   9.059  0.5587 -0.2948 -0.2903
  644MOL0     C86810   9.504   8.870   9.042  0.7838 -0.3103  0.5738
  644MOL0     C86811   9.448   8.894   8.914 -0.6453  0.0042 -0.6357
  644MOL0     C86812   9.525   8.937   8.801  0.0048  0.4216 -0.2742
  644MOL0     O86813   9.482   8.965   8.669  0.2394 -0.2884 -0.1447
  644MOL0     C86814   9.342   8.991   8.638 -0.1504 -0.2307 -0.7010
  644MOL0     C86815   9.259   8.857   8.620  0.6528 -0.4817 -0.6004
  644MOL0     C86816   9.116   8.886   8.579 -0.0912 -0.6766  0.3304
  644MOL0     C86817   9.029   8.891   8.707  0.3187 -0.4571 -0.0586
  644MOL0     C86818   8.895   8.942   8.660 -0.3392  0.0853 -0.3169
  644MOL0     C86819   8.827   9.007   8.777 -0.3265  0.1934 -0.7017
  644MOL0     C86820   8.681   9.032   8.758 -1.1136  0.1919  0.6477
  644MOL0     C86821   8.621   9.137   8.852 -0.3996 -0.3375 -0.6013
  644MOL0     N86822   8.675   9.271   8.838  0.8504 -0.5515 -0.0390
  644MOL0     C86823   8.659   9.362   8.738 -0.0833 -0.5322  0.4738
  644MOL0     C86824   8.744   9.466   8.761 -0.2131  0.6719  1.1226
  644MOL0     C86825   8.737   9.586   8.671 -0.7255  0.6619 -0.1517
  644MOL0     C86826   8.799   9.714   8.727  0.5375 -0.0673 -0.6859
  644MOL0     C86827   8.873   9.806   8.630  0.8083  0.4949  0.4235
  644MOL0     C86828   8.781   9.870   8.530  0.1644 -0.2020 -0.6164
  644MOL0     O86829   8.675   9.928   8.598 -0.7668 -0.0328  0.3269
  644MOL0     C86830   8.560   9.952   8.525 -0.3032  1.2244  0.6782
  644MOL0     C86831   8.438   9.947   8.591 -1.2774  0.4671 -0.2295
  644MOL0     C86832   8.318   9.980   8.529  0.3355  0.0076 -0.0364
  644MOL0     C86833   8.321   9.997   8.393  0.1515  1.0928  1.1124
  644MOL0     C86834   8.191  10.007   8.319 -0.3963 -0.0225 -0.2162
  644MOL0     O86835   8.081  10.015   8.403 -0.4150 -0.1704  0.0304
  644MOL0     C86836   7.957  10.040   8.355  0.8066 -0.6784  0.8591
  644MOL0     C86837   7.934  10.142   8.259  0.1392  0.4010  0.0799
  644MOL0     C86838   7.810  10.168   8.203  0.6313  0.2594  0.7634
  644MOL0     C86839   7.704  10.087   8.251  0.3852 -1.6727 -0.7765
  644MOL0     O86840   7.592  10.095   8.176  0.3457 -0.6101 -0.0317
  644MOL0     C86841   7.488  10.168   8.241 -0.1906 -0.5789  0.4776
  644MOL0     C86842   7.370  10.183   8.143  0.1144  0.2812 -0.3727
  644MOL0     C86843   7.423  10.277   8.033 -0.1844 -0.2932 -0.3436
  644MOL0     C86844   7.382  10.420   8.074 -0.0316  0.3518  0.5498
  644MOL0     C86845   7.423  10.529   7.976  0.4154  0.2557 -1.2200
  644MOL0     C86846   7.407  10.504   7.821 -0.2308  0.1461 -0.0615
  644MOL0     C86847   7.261  10.484   7.781  0.8192  0.1044 -0.4128
  644MOL0     C86848   7.200  10.597   7.695 -0.0501  0.1400  0.8396
  644MOL0    Cl86849   7.039  10.544   7.640  0.0373  0.1094 -0.3912
  644MOL0     C86850   7.720  10.010   8.367 -1.1777  0.4021 -0.3683
  644MOL0     C86851   7.848   9.986   8.417  0.3082  0.3251  0.0999
  644MOL0     O86852   8.190  10.035   8.198  0.1851 -0.3929 -0.3008
  644MOL0     C86853   8.443  10.002   8.324  0.3732  0.5971 -0.1902
  644MOL0     C86854   8.561   9.976   8.388 -0.1230 -0.1631  0.9248
  644MOL0     N86855   8.781   9.445   8.888 -0.3016 -0.5405  0.0652
  644MOL0     N86856   8.765   9.326   8.927  0.0915  0.4552 -0.8060
  644MOL0     C86857   9.664   8.960   8.826  0.5555  0.9379 -0.5222
  644MOL0     C86858   9.721   8.921   8.953 -0.2800  0.0294  0.2671
  644MOL0     C86859   9.768   8.885   9.402  0.0674  0.6486  0.1222
  644MOL0     C86860   9.845   8.982   9.463  0.4678 -0.1638  0.7128
  644MOL0     C86861   9.925   8.963   9.574  0.4900  0.6199 -0.3859
  644MOL0     C86862   9.908   8.842   9.648 -0.7913  0.1829  0.5794
  644MOL0     O86863   9.958   8.815   9.772 -0.3996  0.5598  0.5914
  644MOL0     C86864  10.023   8.926   9.836  0.5923  0.3921  0.3417
  644MOL0     C86865  10.081   8.874   9.961  0.0195  0.2497 -0.2474
  644MOL0     C86866   9.983   8.872  10.081  0.4297  0.2966 -0.0867
  644MOL0     C86867  10.047   8.817  10.201  0.0805  0.1922 -0.4373
  644MOL0     C86868  10.088   8.673  10.206 -0.0494  0.8248  0.1200
  644MOL0     C86869  10.132   8.558  10.213 -0.2932  0.5104  0.3409
  644MOL0     C86870   9.845   8.733   9.588  1.0941  0.6045  0.7494
  644MOL0     C86871   9.782   8.751   9.456  0.2127 -0.5977  0.5637
  644MOL0     C86872   9.702   8.632   9.395 -0.9443  0.7872 -0.1031
  644MOL0     H86873   9.439   8.831   9.119 -0.4547  0.4961 -0.0354
  644MOL0     H86874   9.340   8.888   8.915 -0.6730 -0.0093 -1.9282
  644MOL0     H86875   9.307   9.066   8.710 -2.2295  1.3633 -3.1797
  644MOL0     H86876   9.353   9.043   8.543  4.3110  0.4828  0.0147
  644MOL0     H86877   9.267   8.807   8.717 -2.0361  0.4220  0.1686
  644MOL0     H86878   9.317   8.790   8.556  1.6748 -1.0528  0.8625
  644MOL0     H86879   9.084   8.809   8.508 -0.0135  0.5374 -1.0743
  644MOL0     H86880   9.099   8.977   8.520 -4.0353 -2.6925 -2.1061
  644MOL0     H86881   9.020   8.796   8.761  3.0984 -0.7762  0.0274
  644MOL0     H86882   9.076   8.966   8.772 -0.4839  2.4469 -2.5679
  644MOL0     H86883   8.895   9.003   8.570 -0.3485  0.7933  0.1559
  644MOL0     H86884   8.845   8.850   8.629  0.1417 -0.4490  0.4444
  644MOL0     H86885   8.839   8.940   8.863  2.8747  1.7911  0.2520
  644MOL0     H86886   8.868   9.105   8.803  1.0732 -0.5161 -0.1125
  644MOL0     H86887   8.637   8.933   8.773  0.2537 -0.8790 -1.8583
  644MOL0     H86888   8.655   9.058   8.655 -2.6985 -1.6404  0.5326
  644MOL0     H86889   8.512   9.138   8.840 -0.4400  1.1556 -0.2919
  644MOL0     H86890   8.644   9.114   8.956  0.3915 -2.5064 -1.1889
  644MOL0     H86891   8.610   9.347   8.642  0.2904  0.9469  0.0183
  644MOL0     H86892   8.787   9.557   8.578 -1.1172 -1.9764  0.3727
  644MOL0     H86893   8.632   9.612   8.655 -0.2806  1.7457 -1.5068
  644MOL0     H86894   8.723   9.769   8.783  0.5373 -0.1121 -0.6417
  644MOL0     H86895   8.867   9.688   8.809 -1.8261  4.0557  3.0640
  644MOL0     H86896   8.944   9.740   8.579  0.0529 -2.3007  2.6963
  644MOL0     H86897   8.919   9.886   8.689 -0.6872  0.8032  1.2134
  644MOL0     H86898   8.748   9.801   8.451  0.9525  1.5822 -2.5747
  644MOL0     H86899   8.833   9.953   8.483  0.2412 -0.8153 -1.6523
  644MOL0     H86900   8.454   9.932   8.697 -0.5737  2.3294 -0.0355
  644MOL0     H86901   8.230   9.998   8.589  0.5895  2.0310 -0.1771
  644MOL0     H86902   8.020  10.205   8.240  0.1553  1.0153  1.9181
  644MOL0     H86903   7.786  10.246   8.131  0.2038 -0.4308  0.1367
  644MOL0     H86904   7.456  10.112   8.330 -0.5265  3.2125  2.9862
  644MOL0     H86905   7.525  10.266   8.272  2.0482 -1.6354  1.3828
  644MOL0     H86906   7.355  10.080   8.108 -1.9893  1.3095 -2.7110
  644MOL0     H86907   7.287  10.224   8.202  0.3675  0.7666 -0.3521
  644MOL0     H86908   7.530  10.284   8.011 -0.3843  0.6846 -1.1129
  644MOL0     H86909   7.363  10.250   7.945 -2.6769 -1.8027  1.6618
  644MOL0     H86910   7.413  10.450   8.175  0.5263 -2.0571  1.1406
  644MOL0     H86911   7.273  10.417   8.069  0.0555 -0.7613 -2.0093
  644MOL0     H86912   7.526  10.559   7.996  0.2608 -0.4677  0.8760
  644MOL0     H86913   7.364  10.616   8.006 -0.1287 -0.1913 -0.9587
  644MOL0     H86914   7.441  10.585   7.755 -1.0407  0.2748 -0.3285
  644MOL0     H86915   7.468  10.416   7.797  0.2038  0.8346 -1.6486
  644MOL0     H86916   7.207  10.471   7.875  1.1095 -1.2899 -0.4110
  644MOL0     H86917   7.251  10.386   7.733  0.4884  0.5263 -1.2331
  644MOL0     H86918   7.201  10.693   7.748 -1.4011 -0.0527  1.2727
  644MOL0     H86919   7.257  10.613   7.603 -0.6014  0.3183  0.5186
  644MOL0     H86920   7.633   9.959   8.406 -0.0361  0.6687  2.8109
  644MOL0     H86921   7.869   9.912   8.494  0.0415  0.4021  0.2472
  644MOL0     H86922   8.451  10.020   8.217 -1.5572  2.0582 -0.1317
  644MOL0     H86923   8.652   9.966   8.330 -1.0241 -0.9595 -0.4161
  644MOL0     H86924   9.715   9.017   8.749 -0.2261  1.5770 -0.5804
  644MOL0     H86925   9.823   8.955   8.967 -0.3443 -1.0814  5.4714
  644MOL0     H86926   9.834   9.086   9.431  1.4040  0.5313  2.5033
  644MOL0     H86927   9.976   9.044   9.627  0.3894 -1.7418  3.7843
  644MOL0     H86928   9.941   8.990   9.867 -2.6671 -2.2132 -2.1547
  644MOL0     H86929  10.100   8.977   9.778  0.4304 -0.5044 -0.6938
  644MOL0     H86930  10.171   8.927   9.993 -0.0237 -0.5102  1.2594
  644MOL0     H86931  10.103   8.768   9.950  0.1095  0.2512 -0.0980
  644MOL0     H86932   9.889   8.818  10.065 -0.7484  2.3028 -0.2577
  644MOL0     H86933   9.955   8.975  10.103  4.3151  1.2432  1.2689
  644MOL0     H86934  10.139   8.873  10.219  0.6061 -0.2511 -1.5878
  644MOL0     H86935   9.982   8.832  10.287  0.1320 -0.1891 -0.3303
  644MOL0     H86936  10.178   8.463  10.228 -0.4938  0.1320 -1.2291
  644MOL0     H86937   9.833   8.640   9.642  1.2598  0.4174  0.4644
  644MOL0     H86938   9.598   8.632   9.429  0.0288 -1.6900  3.4214
  644MOL0     H86939   9.705   8.627   9.285 -0.2483  0.4833 -0.0766
  644MOL0     H86940   9.744   8.538   9.431 -3.4661 -0.4756 -0.2431
  645MOL0     O86941   2.886  10.034   8.792  0.0319  0.2707  0.8057
  645MOL0     C86942   2.999  10.005   8.815 -0.2473  0.2764  0.7936
  645MOL0     O86943   3.100  10.018   8.734 -0.2050 -0.7637  0.3279
  645MOL0     C86944   3.062  10.018   8.595  0.6771 -0.0040  0.9978
  645MOL0     C86945   3.018  10.140   8.543  0.0171 -0.2327 -1.0465
  645MOL0     C86946   2.975  10.155   8.407 -0.6407 -1.0887  0.1600
  645MOL0     C86947   2.988  10.045   8.320  0.0271 -0.9791 -0.7394
  645MOL0     O86948   2.960  10.071   8.191  0.9200  0.3198  0.0517
  645MOL0     C86949   2.877   9.972   8.131 -0.1652 -0.5275  0.5613
  645MOL0     C86950   2.794  10.041   8.021  0.1903  0.2679 -0.6923
  645MOL0     C86951   2.791   9.953   7.902  0.2619  0.0081  0.8159
  645MOL0     C86952   2.765  10.036   7.778  0.5674 -0.1678 -0.1674
  645MOL0     C86953   2.708   9.949   7.667  0.6337 -0.4192  0.3750
  645MOL0     C86954   2.802   9.839   7.617  0.3766  0.2478 -0.1638
  645MOL0     C86955   2.730   9.745   7.522 -0.2126  0.2055  0.5574
  645MOL0     C86956   2.803   9.617   7.506 -0.4742  0.9943  0.4802
  645MOL0     N86957   2.720   9.507   7.458  0.4895  0.7956 -0.8901
  645MOL0     C86958   2.620   9.531   7.373  0.3979 -0.2600  0.2645
  645MOL0     C86959   2.538   9.419   7.379  0.0779 -0.0904 -0.5445
  645MOL0     C86960   2.416   9.383   7.291 -0.4764  0.6153  1.0828
  645MOL0     C86961   2.285   9.450   7.342  0.3867 -0.3306  0.0820
  645MOL0     C86962   2.172   9.465   7.232  0.6973 -0.0549 -0.1818
  645MOL0     C86963   2.093   9.342   7.188 -0.1434 -1.1703 -0.4647
  645MOL0     O86964   2.005   9.367   7.071 -0.0744  0.5689 -0.3410
  645MOL0     C86965   1.872   9.397   7.086 -0.1570 -0.8108  0.1056
  645MOL0     C86966   1.803   9.428   7.204 -0.5468 -0.6647  0.5293
  645MOL0     C86967   1.667   9.460   7.197  0.2508  0.1518 -0.1697
  645MOL0     C86968   1.595   9.439   7.079  0.9259 -0.3824 -0.1352
  645MOL0     C86969   1.442   9.437   7.083  0.0445 -0.1566 -1.1354
  645MOL0     O86970   1.384   9.437   6.952  0.2108 -0.0100 -0.5316
  645MOL0     C86971   1.249   9.435   6.924  0.8991 -0.4109 -0.1307
  645MOL0     C86972   1.213   9.381   6.795  0.9271 -0.3524 -0.2567
  645MOL0     C86973   1.083   9.382   6.750 -0.4405  0.5060 -0.0026
  645MOL0     C86974   0.979   9.428   6.823  0.3920 -0.6427  0.5121
  645MOL0     O86975   0.855   9.426   6.778 -0.3869 -0.5858 -0.1472
  645MOL0     C86976   0.802   9.297   6.752  0.5571  0.0105  0.4209
  645MOL0     C86977   0.651   9.310   6.716  0.5457 -0.5116  0.1426
  645MOL0     C86978   0.588   9.181   6.667  0.1782  0.8647  0.2182
  645MOL0     C86979   0.440   9.182   6.655 -0.5032 -0.2266 -0.8400
  645MOL0     C86980   0.389   9.037   6.648 -0.4322 -0.3064 -0.1480
  645MOL0     C86981   0.234   9.019   6.618 -0.5671 -0.5433  0.4565
  645MOL0     C86982   0.193   9.069   6.479  0.4409  0.1869 -0.5509
  645MOL0     C86983   0.057   9.006   6.432 -0.1981 -0.0063 -0.1836
  645MOL0    Cl86984   0.086   8.825   6.390 -0.0840 -0.1470 -0.2353
  645MOL0     C86985   1.013   9.470   6.959 -0.3044 -0.2976  0.5108
  645MOL0     C86986   1.147   9.482   7.004  0.1113  0.4304  0.5236
  645MOL0     O86987   1.390   9.437   7.195  0.7277  0.6745  0.4533
  645MOL0     C86988   1.663   9.411   6.960 -0.3485 -0.5262 -0.2883
  645MOL0     C86989   1.801   9.390   6.964  0.4385  0.2460  0.1326
  645MOL0     N86990   2.597   9.341   7.478 -0.1194 -0.3210  0.4300
  645MOL0     N86991   2.713   9.389   7.515 -0.0144 -0.1791  0.3549
  645MOL0     C86992   3.045   9.926   8.376  0.2424 -1.2897  0.5023
  645MOL0     C86993   3.080   9.911   8.508  0.8807  0.2624 -0.1254
  645MOL0     C86994   3.033   9.988   8.958  0.2087  0.6548  1.0057
  645MOL0     C86995   2.928   9.982   9.056 -0.2066  0.8448 -0.5817
  645MOL0     C86996   2.941   9.951   9.192 -0.3752  0.8276 -0.1901
  645MOL0     C86997   3.075   9.944   9.244  1.2078 -0.7891  0.1218
  645MOL0     O86998   3.094   9.908   9.378  0.0895  0.4488 -0.4608
  645MOL0     C86999   2.984   9.872   9.468 -0.5620  0.7306  0.3951
  645MOL0     C87000   2.910   9.998   9.517 -0.2917 -0.3530  0.4494
  645MOL0     C87001   2.831   9.958   9.642  0.1536  0.6897 -0.9957
  645MOL0     C87002   2.731  10.070   9.678 -0.3748 -0.1906  0.4378
  645MOL0     C87003   2.636  10.016   9.784 -0.4440 -0.7877  1.2198
  645MOL0     C87004   2.561   9.960   9.856  0.1654 -0.3546 -0.4813
  645MOL0     C87005   3.187   9.966   9.160  0.4167  0.8939 -0.1415
  645MOL0     C87006   3.167   9.980   9.016 -0.0406 -0.2383  0.2766
  645MOL0     C87007   3.294   9.972   8.931  0.6734  0.7068  1.3248
  645MOL0     H87008   2.999  10.218   8.617 -2.4826 -1.7516  0.0437
  645MOL0     H87009   2.930  10.248   8.374 -0.1060 -1.4467 -1.6324
  645MOL0     H87010   2.952   9.903   8.091  2.8700  2.1170  1.2440
  645MOL0     H87011   2.819   9.920   8.208  0.2654  0.3480  1.5093
  645MOL0     H87012   2.842  10.134   7.989  0.3263 -0.0114 -1.3197
  645MOL0     H87013   2.699  10.083   8.057  0.6419 -0.5336  1.6158
  645MOL0     H87014   2.716   9.875   7.920  2.4699 -2.3589  0.4040
  645MOL0     H87015   2.887   9.900   7.892 -0.5944 -1.2523 -1.3980
  645MOL0     H87016   2.683  10.107   7.796 -0.4728 -1.7512  1.6274
  645MOL0     H87017   2.853  10.088   7.736  0.9448 -1.0193 -0.4537
  645MOL0     H87018   2.619   9.899   7.708 -0.4443  1.0463 -0.0839
  645MOL0     H87019   2.662  10.011   7.590  0.9856 -1.3821 -0.6333
  645MOL0     H87020   2.887   9.890   7.569  1.9122 -1.6496  0.4207
  645MOL0     H87021   2.842   9.779   7.699  1.0794  1.4715  0.4263
  645MOL0     H87022   2.720   9.794   7.425  1.9183 -0.3695 -0.0223
  645MOL0     H87023   2.632   9.714   7.559 -2.3163 -0.9055 -5.0140
  645MOL0     H87024   2.878   9.641   7.430  0.5817 -0.4343  1.0367
  645MOL0     H87025   2.862   9.586   7.593  1.8276  3.1862 -0.1727
  645MOL0     H87026   2.621   9.620   7.310  0.1654  0.1589  0.8412
  645MOL0     H87027   2.430   9.405   7.185 -0.2048  0.7100  1.1370
  645MOL0     H87028   2.417   9.274   7.304  4.7464  0.2306 -0.0967
  645MOL0     H87029   2.249   9.396   7.430 -0.3436 -3.4103 -1.9381
  645MOL0     H87030   2.309   9.543   7.393 -0.7066  0.0323 -0.0474
  645MOL0     H87031   2.221   9.515   7.148  2.4619 -2.8344 -0.9520
  645MOL0     H87032   2.098   9.529   7.281  2.2895  1.1737  0.7233
  645MOL0     H87033   2.027   9.311   7.270  0.0811  3.4948  1.8289
  645MOL0     H87034   2.168   9.266   7.164  1.8197  0.6762 -0.4661
  645MOL0     H87035   1.847   9.440   7.302 -0.8667 -0.2851  0.6293
  645MOL0     H87036   1.615   9.485   7.289 -0.1718 -0.3104 -0.2833
  645MOL0     H87037   1.297   9.340   6.739  1.5085  2.1872 -1.3849
  645MOL0     H87038   1.056   9.348   6.651  1.8749  0.2495 -0.6131
  645MOL0     H87039   0.844   9.253   6.661 -1.2637  1.2682 -1.1289
  645MOL0     H87040   0.821   9.240   6.843  0.2225  0.6936  0.9202
  645MOL0     H87041   0.605   9.335   6.813 -2.1373 -0.8680 -0.9590
  645MOL0     H87042   0.642   9.396   6.649  2.3130  2.6639  3.5855
  645MOL0     H87043   0.622   9.156   6.566 -2.1911 -0.9747 -0.2086
  645MOL0     H87044   0.622   9.104   6.737 -0.7174  0.4271  0.1808
  645MOL0     H87045   0.425   9.235   6.560  1.3402  3.1025  0.5649
  645MOL0     H87046   0.385   9.243   6.728  2.3872 -0.9423  2.1774
  645MOL0     H87047   0.416   8.981   6.738 -0.1976 -0.2430 -0.1787
  645MOL0     H87048   0.449   8.994   6.567  2.3342 -0.3233  1.7645
  645MOL0     H87049   0.203   8.915   6.607 -1.1296 -0.4657  1.2309
  645MOL0     H87050   0.171   9.060   6.697 -1.5356 -2.1231  0.5481
  645MOL0     H87051   0.276   9.036   6.415 -0.2728 -0.5480 -1.1219
  645MOL0     H87052   0.186   9.178   6.469 -1.6221  0.3334  1.7323
  645MOL0     H87053  -0.006   9.013   6.521 -1.2160  0.7229 -0.9398
  645MOL0     H87054   0.017   9.056   6.343 -0.3178  1.9298  0.9280
  645MOL0     H87055   0.938   9.496   7.033 -1.1754  0.5745 -0.6510
  645MOL0     H87056   1.170   9.520   7.103  1.4994  2.7277 -0.5939
  645MOL0     H87057   1.604   9.398   6.870 -0.0307  2.2125 -0.9544
  645MOL0     H87058   1.850   9.378   6.867 -0.4480  0.8044 -0.3887
  645MOL0     H87059   3.069   9.843   8.310 -0.4926 -2.2562  1.4027
  645MOL0     H87060   3.121   9.820   8.552 -0.6634 -0.8190 -0.8031
  645MOL0     H87061   2.824   9.995   9.027 -0.9236  0.0543  1.4418
  645MOL0     H87062   2.861   9.909   9.252  0.4383  0.0193  0.3582
  645MOL0     H87063   3.030   9.813   9.547 -1.6689  1.2092  1.4161
  645MOL0     H87064   2.909   9.799   9.435  0.2203 -0.2261  0.7064
  645MOL0     H87065   2.834  10.016   9.441  0.1583 -4.5488 -1.2971
  645MOL0     H87066   2.974  10.086   9.530 -0.2252 -0.5447  1.5574
  645MOL0     H87067   2.906   9.936   9.718 -1.1093 -2.2271 -0.4435
  645MOL0     H87068   2.774   9.865   9.629 -2.5574  2.1252 -0.2111
  645MOL0     H87069   2.778  10.160   9.718 -0.6690 -0.7125  2.0450
  645MOL0     H87070   2.679  10.107   9.589  1.2670  1.5069  0.1316
  645MOL0     H87071   2.494   9.904   9.918  1.4546 -0.2593  1.0481
  645MOL0     H87072   3.288   9.960   9.201 -0.2658 -2.8111  1.4644
  645MOL0     H87073   3.390   9.961   8.982  0.7921 -1.2205  0.7939
  645MOL0     H87074   3.277   9.884   8.868 -1.8169  1.2158  1.1889
  645MOL0     H87075   3.293  10.064   8.873 -2.5316  0.3967  0.6742
  646MOL0     O87076   7.518   2.433   1.767  0.2318 -0.8509  0.0405
  646MOL0     C87077   7.430   2.416   1.685  0.5513 -0.7579  0.1440
  646MOL0     O87078   7.454   2.361   1.563  0.6162 -0.4348 -0.0319
  646MOL0     C87079   7.575   2.353   1.509  0.4185  0.6400 -0.0724
  646MOL0     C87080   7.662   2.238   1.529  0.0522 -0.1555 -0.7355
  646MOL0     C87081   7.793   2.236   1.474  0.4765 -0.6894 -0.4884
  646MOL0     C87082   7.837   2.341   1.394  0.0523  0.2370 -0.1344
  646MOL0     O87083   7.971   2.356   1.343 -0.1226  0.5098 -0.2499
  646MOL0     C87084   8.070   2.266   1.376  0.6156  0.5065  0.3345
  646MOL0     C87085   8.197   2.319   1.326  0.0091 -0.2972  0.4296
  646MOL0     C87086   8.288   2.201   1.289 -0.1083  0.0682 -0.4623
  646MOL0     C87087   8.424   2.247   1.244 -0.3439  0.9788  0.4017
  646MOL0     C87088   8.505   2.123   1.204  0.4114 -0.3522  0.4311
  646MOL0     C87089   8.628   2.172   1.135  0.3986 -0.3809  0.0025
  646MOL0     C87090   8.716   2.251   1.231  0.1704 -0.1293  0.0925
  646MOL0     C87091   8.854   2.255   1.166 -0.2282 -0.1849  0.5942
  646MOL0     N87092   8.938   2.328   1.256  0.2860  0.1857 -0.3516
  646MOL0     C87093   9.003   2.272   1.371 -0.9026  0.3356 -0.1670
  646MOL0     C87094   9.088   2.364   1.421  0.3904  0.5935  0.0523
  646MOL0     C87095   9.179   2.350   1.536 -0.1139  0.1277 -0.3859
  646MOL0     C87096   9.307   2.412   1.502  0.0402  0.6648  0.8383
  646MOL0     C87097   9.310   2.563   1.524  0.2473  0.8459 -0.8771
  646MOL0     C87098   9.439   2.617   1.457  0.3360  0.1291  0.5940
  646MOL0     O87099   9.440   2.757   1.489 -0.7918 -0.1663  0.8706
  646MOL0     C87100   9.571   2.796   1.512 -0.3190  0.7514 -0.0755
  646MOL0     C87101   9.683   2.747   1.433  0.8992  1.1815 -0.1746
  646MOL0     C87102   9.809   2.777   1.467  0.1986  0.7416  0.2393
  646MOL0     C87103   9.837   2.854   1.575 -0.0329 -0.4023  0.0099
  646MOL0     C87104   9.973   2.874   1.610  0.1859  0.4203 -0.1806
  646MOL0     O87105  10.075   2.825   1.534  0.1296 -0.2273  0.2403
  646MOL0     C87106  10.206   2.819   1.585  0.3352 -0.8665  0.8139
  646MOL0     C87107  10.241   2.818   1.721 -0.4175  0.2656  0.6044
  646MOL0     C87108  10.376   2.817   1.754  1.1517 -0.6404 -0.2657
  646MOL0     C87109  10.473   2.823   1.651  0.0706 -0.0275  0.2969
  646MOL0     O87110  10.607   2.818   1.680 -0.2635  0.8349 -0.6542
  646MOL0     C87111  10.696   2.775   1.582  1.2968  0.2474  0.6218
  646MOL0     C87112  10.837   2.739   1.634  0.0400  0.4347 -0.3104
  646MOL0     C87113  10.839   2.639   1.746 -0.2418  0.5647  0.2292
  646MOL0     C87114  10.874   2.702   1.873  0.0817 -0.5279 -1.3677
  646MOL0     C87115  10.858   2.615   1.987  0.1503 -0.0809  0.3090
  646MOL0     C87116  10.846   2.712   2.108 -0.8736  0.0856 -0.5695
  646MOL0     C87117  10.819   2.621   2.234 -0.4707 -0.3806 -0.1346
  646MOL0     C87118  10.898   2.687   2.349 -0.0221 -0.3173  0.2206
  646MOL0    Cl87119  10.901   2.581   2.491  0.4760  0.0850  0.0371
  646MOL0     C87120  10.429   2.814   1.523 -0.3307  0.0232  0.6666
  646MOL0     C87121  10.296   2.812   1.490 -0.2931 -0.3745  0.8348
  646MOL0     O87122   9.996   2.948   1.706 -0.4344 -0.2430  0.4691
  646MOL0     C87123   9.728   2.917   1.652 -0.2791 -0.0192 -0.0110
  646MOL0     C87124   9.596   2.878   1.626  0.2131  0.2764  0.4321
  646MOL0     N87125   9.057   2.479   1.343 -0.7190  0.9187  0.4699
  646MOL0     N87126   8.973   2.456   1.248 -0.1798 -0.3101 -0.4077
  646MOL0     C87127   7.747   2.443   1.365 -0.3258 -0.6239  0.3515
  646MOL0     C87128   7.623   2.456   1.426 -0.1114 -0.8564 -0.1357
  646MOL0     C87129   7.291   2.459   1.710 -0.2127 -0.0087 -0.1817
  646MOL0     C87130   7.245   2.564   1.641 -0.1976  0.0513  1.1413
  646MOL0     C87131   7.106   2.606   1.661 -0.3409 -0.3618 -0.5164
  646MOL0     C87132   7.023   2.539   1.748  1.3069 -0.5458 -0.3804
  646MOL0     O87133   6.889   2.573   1.767  0.2835 -0.1780 -0.6319
  646MOL0     C87134   6.839   2.700   1.718 -0.8789 -0.0173 -0.1418
  646MOL0     C87135   6.900   2.826   1.787  1.1273 -0.3788 -0.5752
  646MOL0     C87136   6.900   2.852   1.942  0.1685  0.4129 -0.4274
  646MOL0     C87137   6.764   2.831   2.011 -0.4755  0.1290  0.3055
  646MOL0     C87138   6.655   2.906   1.944 -0.3103  0.0774 -0.8576
  646MOL0     C87139   6.565   2.968   1.891 -0.2117  0.3821  0.1262
  646MOL0     C87140   7.066   2.424   1.814 -0.4525  0.5211  0.3752
  646MOL0     C87141   7.205   2.387   1.805  0.2120 -0.5739 -0.0182
  646MOL0     C87142   7.246   2.255   1.863  0.3306 -1.6659 -0.3093
  646MOL0     H87143   7.623   2.154   1.585 -0.5797  1.5898  1.6038
  646MOL0     H87144   7.856   2.154   1.506  0.3126  0.7964  4.4855
  646MOL0     H87145   8.075   2.254   1.485  0.5623  1.4848  0.4538
  646MOL0     H87146   8.043   2.169   1.333 -0.1111  0.6549  0.4502
  646MOL0     H87147   8.239   2.375   1.411 -2.5245  0.1741  1.4632
  646MOL0     H87148   8.184   2.392   1.246  1.4645 -0.3250  0.1449
  646MOL0     H87149   8.235   2.139   1.217 -1.1394  1.3509 -0.8469
  646MOL0     H87150   8.306   2.154   1.386 -0.7199  0.7444 -0.0134
  646MOL0     H87151   8.429   2.316   1.159 -0.6829  2.4095  1.4891
  646MOL0     H87152   8.480   2.293   1.327 -0.5922 -0.4755  1.4107
  646MOL0     H87153   8.529   2.054   1.285  1.6693  0.1799  0.5278
  646MOL0     H87154   8.444   2.075   1.126 -3.0874 -1.2781  3.4615
  646MOL0     H87155   8.687   2.092   1.089  0.9752  1.4838 -2.7374
  646MOL0     H87156   8.588   2.239   1.059  1.5397  0.0040 -0.2746
  646MOL0     H87157   8.721   2.195   1.325  1.5763  0.2892  0.2963
  646MOL0     H87158   8.669   2.348   1.250  1.3406  1.0190 -2.4704
  646MOL0     H87159   8.901   2.158   1.146 -0.6861 -0.1763 -0.5806
  646MOL0     H87160   8.845   2.312   1.073 -1.4973  1.3632  1.6162
  646MOL0     H87161   8.990   2.167   1.395  1.4143  0.1107  0.2932
  646MOL0     H87162   9.126   2.389   1.623 -0.4543 -0.7724 -0.1782
  646MOL0     H87163   9.195   2.243   1.556 -1.4687 -0.1350 -0.5759
  646MOL0     H87164   9.382   2.359   1.562 -2.2963 -1.2729  2.2482
  646MOL0     H87165   9.329   2.390   1.397  0.0768  0.2789  0.9245
  646MOL0     H87166   9.329   2.590   1.628  2.8793 -1.1419 -0.7205
  646MOL0     H87167   9.227   2.617   1.478  1.3325  1.4365 -2.2054
  646MOL0     H87168   9.421   2.600   1.350 -1.5409 -0.4819  0.9634
  646MOL0     H87169   9.525   2.560   1.493  2.9856  2.3748 -1.7367
  646MOL0     H87170   9.666   2.692   1.342  1.7458  0.8603 -0.1459
  646MOL0     H87171   9.885   2.750   1.395 -1.1588  0.3964 -1.1027
  646MOL0     H87172  10.181   2.821   1.811 -0.4434  1.0151  0.5748
  646MOL0     H87173  10.407   2.832   1.858  1.0382  1.4155 -0.4800
  646MOL0     H87174  10.650   2.677   1.567 -0.6476  0.9673  1.5123
  646MOL0     H87175  10.690   2.851   1.505 -1.0734  0.0655  0.5577
  646MOL0     H87176  10.886   2.687   1.552  0.7839  0.4196  0.1323
  646MOL0     H87177  10.890   2.830   1.662 -3.0704  2.3255 -0.0939
  646MOL0     H87178  10.741   2.590   1.738 -0.3290  1.0079 -2.0777
  646MOL0     H87179  10.916   2.563   1.728 -0.1278  0.8147 -0.3671
  646MOL0     H87180  10.815   2.793   1.886  2.1061  0.7040 -0.2179
  646MOL0     H87181  10.973   2.748   1.871  0.3267 -0.9259  0.0705
  646MOL0     H87182  10.946   2.551   1.995  1.6807  2.0389  1.0843
  646MOL0     H87183  10.773   2.546   1.981  1.5808 -2.0405  1.1879
  646MOL0     H87184  10.944   2.760   2.110 -1.3683  1.1173 -0.0453
  646MOL0     H87185  10.768   2.789   2.098 -0.3257  1.1050  2.1922
  646MOL0     H87186  10.861   2.521   2.221 -2.4628 -1.1411 -1.0863
  646MOL0     H87187  10.715   2.602   2.261 -0.9518  2.7298  0.6157
  646MOL0     H87188  11.000   2.708   2.318  0.0431 -1.7450 -0.6376
  646MOL0     H87189  10.852   2.779   2.385  1.4133  0.5079 -0.0113
  646MOL0     H87190  10.498   2.825   1.440  2.3211 -1.2655  2.5503
  646MOL0     H87191  10.286   2.817   1.382 -1.1328 -1.2592  0.8526
  646MOL0     H87192   9.758   2.983   1.733 -0.0384 -1.6567  1.2929
  646MOL0     H87193   9.514   2.898   1.694  0.8021 -0.8110  1.5056
  646MOL0     H87194   7.786   2.522   1.300 -1.1347  0.0826  0.6973
  646MOL0     H87195   7.562   2.545   1.414  2.4544  1.2801  1.7904
  646MOL0     H87196   7.312   2.599   1.563  1.5734 -4.3179  0.4279
  646MOL0     H87197   7.072   2.692   1.603 -3.3471 -0.8527  0.3459
  646MOL0     H87198   6.733   2.698   1.747 -0.8321 -0.1173  0.0246
  646MOL0     H87199   6.850   2.705   1.609  0.7323 -2.4362 -0.1750
  646MOL0     H87200   6.852   2.916   1.746  0.2775  0.1536  1.4918
  646MOL0     H87201   7.004   2.840   1.756  1.0853 -0.2129 -0.6428
  646MOL0     H87202   6.924   2.958   1.957  0.3487  0.2177  0.7432
  646MOL0     H87203   6.979   2.791   1.987  0.4824  0.6657 -0.6263
  646MOL0     H87204   6.739   2.725   2.002 -2.9556  0.7450 -0.7114
  646MOL0     H87205   6.768   2.856   2.117 -1.3473  0.3762  0.2839
  646MOL0     H87206   6.483   3.011   1.837 -0.0113 -1.2289 -1.5670
  646MOL0     H87207   6.995   2.361   1.866  0.7241  1.5728  3.4950
  646MOL0     H87208   7.200   2.173   1.807  2.0107 -1.5876 -1.8934
  646MOL0     H87209   7.354   2.239   1.856  0.4748 -1.4893  1.0996
  646MOL0     H87210   7.226   2.247   1.971  2.5974 -0.3662  0.2751
  647MOL0     O87211   3.672   1.557   1.935 -0.4477  0.0620 -0.2976
  647MOL0     C87212   3.792   1.559   1.912 -0.1160 -0.4198  0.0583
  647MOL0     O87213   3.879   1.484   1.985  0.1239  0.5694  0.4409
  647MOL0     C87214   4.010   1.532   1.977  0.6082  0.3022  0.2132
  647MOL0     C87215   4.098   1.460   1.899 -1.3871 -0.0257  0.0657
  647MOL0     C87216   4.234   1.510   1.893 -0.2097 -0.2023  0.0789
  647MOL0     C87217   4.271   1.615   1.976 -0.2136 -1.0771  0.5851
  647MOL0     O87218   4.399   1.659   1.965  0.7431 -0.0090 -0.1080
  647MOL0     C87219   4.448   1.779   2.024 -0.2825  0.4236 -0.3100
  647MOL0     C87220   4.594   1.789   1.964 -0.2154  0.0135  0.7906
  647MOL0     C87221   4.667   1.915   1.990  0.3942  0.4651 -0.2324
  647MOL0     C87222   4.593   2.049   1.981 -0.9508 -0.4376  0.7971
  647MOL0     C87223   4.696   2.158   1.933 -0.4497  1.0068 -0.0290
  647MOL0     C87224   4.642   2.298   1.963  0.2132  0.1419  0.1809
  647MOL0     C87225   4.742   2.407   1.939 -0.2150  0.1465 -0.6284
  647MOL0     C87226   4.847   2.416   2.052  0.4731  0.0427 -0.2494
  647MOL0     N87227   4.910   2.548   2.046 -0.3694  0.3100 -0.1627
  647MOL0     C87228   5.008   2.593   1.967 -0.1493 -0.3206  0.6036
  647MOL0     C87229   5.057   2.703   2.029 -0.9107  0.1148 -0.2457
  647MOL0     C87230   5.185   2.776   2.006  0.1832 -0.0484  0.2550
  647MOL0     C87231   5.291   2.709   2.094 -0.6691 -0.4147  0.7276
  647MOL0     C87232   5.427   2.783   2.079  1.0105  1.3511 -0.1229
  647MOL0     C87233   5.415   2.928   2.132 -0.6015  0.0457 -0.3216
  647MOL0     O87234   5.416   2.917   2.273  0.2355 -0.2605  0.0568
  647MOL0     C87235   5.519   2.978   2.341  0.4593 -0.5313 -0.2091
  647MOL0     C87236   5.510   3.101   2.409  0.1804  0.1532 -0.0732
  647MOL0     C87237   5.614   3.148   2.488 -0.2185 -0.3782  0.2532
  647MOL0     C87238   5.732   3.080   2.513 -0.1907 -0.1068  0.1205
  647MOL0     C87239   5.858   3.128   2.574 -0.2132  0.1073 -0.0250
  647MOL0     O87240   5.978   3.056   2.556  0.5167 -0.2097  0.4483
  647MOL0     C87241   6.093   3.108   2.607  0.3360  0.2308 -0.0827
  647MOL0     C87242   6.188   3.168   2.527 -1.1574  0.3216  0.4843
  647MOL0     C87243   6.317   3.215   2.587  0.3552 -0.0969  0.7269
  647MOL0     C87244   6.348   3.169   2.715  0.5031  0.3172 -0.7188
  647MOL0     O87245   6.477   3.210   2.762  0.0152  0.4191  0.5188
  647MOL0     C87246   6.513   3.184   2.901 -0.0684 -1.2964 -0.2810
  647MOL0     C87247   6.640   3.265   2.930  1.0953 -0.4583  0.3375
  647MOL0     C87248   6.748   3.267   2.823 -0.3061 -0.4156 -0.0187
  647MOL0     C87249   6.865   3.358   2.855 -0.0380 -0.5550 -0.6901
  647MOL0     C87250   6.908   3.386   3.005 -0.0232  0.4819  0.9438
  647MOL0     C87251   6.815   3.493   3.062 -0.5893 -1.2934 -0.1373
  647MOL0     C87252   6.891   3.543   3.190  0.3591 -0.5816  0.9604
  647MOL0     C87253   6.963   3.678   3.178  0.2454 -0.0360  0.9156
  647MOL0    Cl87254   7.023   3.745   3.336  0.1146 -0.5145 -0.2849
  647MOL0     C87255   6.253   3.099   2.784  0.1314 -0.5062  0.3908
  647MOL0     C87256   6.132   3.066   2.730  0.8428  0.3949  0.3142
  647MOL0     O87257   5.847   3.232   2.642  0.1826 -0.2599 -0.1411
  647MOL0     C87258   5.741   2.957   2.441 -0.1518 -0.4691  0.9483
  647MOL0     C87259   5.633   2.898   2.363 -0.1556 -0.1734  0.0210
  647MOL0     N87260   4.980   2.739   2.137  0.1110  0.4214 -0.9026
  647MOL0     N87261   4.898   2.637   2.150 -0.2790 -0.0263 -0.0744
  647MOL0     C87262   4.177   1.675   2.067 -0.9514 -0.5527  0.3270
  647MOL0     C87263   4.050   1.626   2.062  0.7386  0.4251  0.2551
  647MOL0     C87264   3.833   1.624   1.792  0.3579  0.0611  0.7837
  647MOL0     C87265   3.826   1.550   1.668 -0.3447  0.1408 -0.2363
  647MOL0     C87266   3.858   1.599   1.542 -0.3333 -1.0635 -0.3083
  647MOL0     C87267   3.898   1.737   1.543 -0.4435  0.3370  0.2358
  647MOL0     O87268   3.941   1.800   1.424  0.5107 -0.1703  0.4687
  647MOL0     C87269   3.841   1.885   1.368 -0.3127 -1.1627  0.5118
  647MOL0     C87270   3.820   1.839   1.221 -0.3388 -0.0194 -0.1177
  647MOL0     C87271   3.673   1.837   1.178 -0.5694 -0.7468 -0.7318
  647MOL0     C87272   3.589   1.737   1.251  0.7083  1.2180 -0.3911
  647MOL0     C87273   3.456   1.725   1.191 -0.8495  0.5955  0.3115
  647MOL0     C87274   3.362   1.717   1.119  0.0874 -0.2903 -0.8363
  647MOL0     C87275   3.903   1.816   1.658 -0.2104  0.8225  0.5150
  647MOL0     C87276   3.857   1.765   1.781  0.3410 -0.1187 -0.6656
  647MOL0     C87277   3.850   1.858   1.894 -0.1691  0.0908 -0.1516
  647MOL0     H87278   4.073   1.373   1.838 -2.5047  1.9959 -2.5817
  647MOL0     H87279   4.318   1.474   1.836  0.7305  1.4964  0.3338
  647MOL0     H87280   4.397   1.872   1.997 -0.9403 -0.6231 -3.0137
  647MOL0     H87281   4.455   1.769   2.133  0.2343 -1.2002 -0.4578
  647MOL0     H87282   4.591   1.788   1.855  0.4219 -0.1903  0.7694
  647MOL0     H87283   4.658   1.708   2.000  0.9774  0.2508 -0.7061
  647MOL0     H87284   4.751   1.924   1.921  0.4658 -0.3509 -0.2599
  647MOL0     H87285   4.706   1.902   2.091 -0.6383  0.2577  0.1602
  647MOL0     H87286   4.511   2.056   1.909  1.1017  2.3690 -1.5130
  647MOL0     H87287   4.548   2.088   2.073 -2.9659 -0.4663 -0.1165
  647MOL0     H87288   4.796   2.147   1.975 -1.1482  2.3247  2.1612
  647MOL0     H87289   4.714   2.135   1.827 -0.2016 -4.7686  0.9769
  647MOL0     H87290   4.559   2.313   1.893  1.2974  0.7834 -0.9910
  647MOL0     H87291   4.608   2.298   2.067  0.7557 -2.0454  0.4186
  647MOL0     H87292   4.690   2.502   1.950  1.3172  0.8438  1.5102
  647MOL0     H87293   4.777   2.412   1.836 -3.9357  0.6242 -2.0206
  647MOL0     H87294   4.798   2.402   2.148  0.4201 -3.9088 -0.6706
  647MOL0     H87295   4.925   2.341   2.034  2.2979  1.5514  1.0158
  647MOL0     H87296   5.051   2.541   1.882 -0.0033  1.9881 -0.8035
  647MOL0     H87297   5.201   2.774   1.898  0.1923  1.2433  0.2235
  647MOL0     H87298   5.171   2.882   2.028  1.9695  0.8985 -2.6200
  647MOL0     H87299   5.264   2.713   2.200  0.6498  0.1274  1.0691
  647MOL0     H87300   5.310   2.603   2.071 -0.6393 -0.3916  0.6448
  647MOL0     H87301   5.455   2.790   1.973  0.2167 -3.6514 -0.9454
  647MOL0     H87302   5.509   2.728   2.124  0.7045  2.0781  1.3694
  647MOL0     H87303   5.333   2.988   2.093 -2.6476 -1.0867  1.9653
  647MOL0     H87304   5.505   2.979   2.098  0.3229 -0.0884  1.7370
  647MOL0     H87305   5.419   3.154   2.383  0.1831 -1.2746 -3.5248
  647MOL0     H87306   5.612   3.254   2.513  1.5961 -0.1924 -0.2500
  647MOL0     H87307   6.155   3.201   2.429 -3.0577 -1.3261  0.5073
  647MOL0     H87308   6.375   3.285   2.528 -0.2979  0.4071  0.6672
  647MOL0     H87309   6.431   3.208   2.969  1.0942  1.5471  0.2454
  647MOL0     H87310   6.536   3.077   2.913 -0.3479 -1.4069 -0.7155
  647MOL0     H87311   6.590   3.362   2.939  1.9415  0.0534 -0.3484
  647MOL0     H87312   6.692   3.243   3.023  0.8951 -1.8618  0.1422
  647MOL0     H87313   6.775   3.161   2.817  0.9922 -0.1818  1.2843
  647MOL0     H87314   6.712   3.307   2.727  0.9737 -1.5932 -1.0278
  647MOL0     H87315   6.842   3.454   2.809  0.2055 -0.1325  0.0539
  647MOL0     H87316   6.955   3.324   2.802  2.0751 -0.7934  2.7608
  647MOL0     H87317   7.015   3.411   3.008  0.4013 -1.0491 -0.2288
  647MOL0     H87318   6.905   3.291   3.061 -0.2847 -1.0893 -1.5894
  647MOL0     H87319   6.785   3.568   2.988 -1.7406  0.4485  1.9889
  647MOL0     H87320   6.719   3.460   3.103  0.0693 -1.7889  1.0374
  647MOL0     H87321   6.943   3.458   3.236 -1.5289 -1.6058  1.3041
  647MOL0     H87322   6.820   3.570   3.269  1.2584 -1.1036  1.9865
  647MOL0     H87323   7.043   3.667   3.104 -1.1926  1.8094 -1.0499
  647MOL0     H87324   6.887   3.747   3.141 -0.7287 -0.8495  1.3591
  647MOL0     H87325   6.275   3.060   2.883  1.6363  1.2870  0.8224
  647MOL0     H87326   6.060   3.009   2.788  0.2114 -0.4593 -1.2408
  647MOL0     H87327   5.834   2.901   2.439  1.2925  1.6265  3.4817
  647MOL0     H87328   5.657   2.811   2.303 -1.8804  0.1896 -1.2495
  647MOL0     H87329   4.213   1.762   2.122 -3.1546  0.7141 -0.1283
  647MOL0     H87330   3.984   1.681   2.128 -1.0764 -0.9262 -0.3485
  647MOL0     H87331   3.800   1.445   1.664 -0.9293  0.3269 -1.6111
  647MOL0     H87332   3.837   1.549   1.448 -2.0249 -0.9765 -0.0051
  647MOL0     H87333   3.871   1.990   1.373 -1.8303 -0.7654  3.6305
  647MOL0     H87334   3.748   1.884   1.425  0.3064 -0.6940  1.5700
  647MOL0     H87335   3.870   1.744   1.198 -0.3689  0.0674 -0.5429
  647MOL0     H87336   3.881   1.909   1.164  1.5713 -2.5141 -1.3632
  647MOL0     H87337   3.662   1.808   1.073 -1.7036  0.3840 -0.9563
  647MOL0     H87338   3.622   1.934   1.175  1.8664  0.5794 -1.4096
  647MOL0     H87339   3.644   1.643   1.252 -1.1533  0.0570  2.3317
  647MOL0     H87340   3.551   1.767   1.349 -2.1352 -0.7673 -0.7969
  647MOL0     H87341   3.278   1.710   1.053  0.4362 -0.3563 -1.2814
  647MOL0     H87342   3.920   1.923   1.658 -1.0496  0.9623  0.6308
  647MOL0     H87343   3.781   1.827   1.973 -1.0582 -1.1813 -1.3863
  647MOL0     H87344   3.955   1.871   1.922 -0.3883  1.6857  0.0071
  647MOL0     H87345   3.821   1.953   1.848  0.3951 -0.5610 -1.9629
  648MOL0     O87346   9.057   3.822   9.189  0.3893  0.0571 -0.1414
  648MOL0     C87347   9.040   3.937   9.149 -0.9565  0.0469  0.6928
  648MOL0     O87348   9.133   4.037   9.173 -0.7844 -0.1817  1.0355
  648MOL0     C87349   9.245   4.019   9.256 -0.0481  0.2105 -0.1256
  648MOL0     C87350   9.238   3.942   9.373 -0.4013 -0.1773 -0.0425
  648MOL0     C87351   9.351   3.916   9.453  0.4591 -0.9082 -0.8330
  648MOL0     C87352   9.470   3.992   9.418 -0.0359  0.5066 -0.1703
  648MOL0     O87353   9.589   3.983   9.483  0.4881 -0.1805 -0.4406
  648MOL0     C87354   9.597   3.898   9.603  0.1115  0.1375  0.5355
  648MOL0     C87355   9.736   3.908   9.674  0.4251  0.7499  0.4182
  648MOL0     C87356   9.774   4.044   9.740  0.2126 -0.1123  0.1531
  648MOL0     C87357   9.694   4.089   9.864  0.0631 -0.5436  0.3614
  648MOL0     C87358   9.715   4.227   9.917  0.9396  0.1289 -0.1002
  648MOL0     C87359   9.842   4.256   9.997  0.3929 -0.7067  0.2677
  648MOL0     C87360   9.860   4.402   9.994 -0.2116  0.7373 -0.7235
  648MOL0     C87361   9.967   4.453  10.087 -0.4450  0.9795 -0.5232
  648MOL0     N87362  10.100   4.399  10.053  0.0793  0.6135  0.0083
  648MOL0     C87363  10.175   4.327  10.140 -0.4986  0.5235 -0.0862
  648MOL0     C87364  10.289   4.297  10.073 -0.3041 -0.3845  0.7920
  648MOL0     C87365  10.390   4.192  10.120  0.3252  0.2341 -0.0953
  648MOL0     C87366  10.535   4.250  10.108  0.4958 -0.2089  0.4685
  648MOL0     C87367  10.597   4.288  10.243 -0.2906 -0.2798  1.2150
  648MOL0     C87368  10.630   4.162  10.335  0.3359 -0.5217 -0.4081
  648MOL0     O87369  10.740   4.111  10.261  0.7137 -0.4181 -0.3238
  648MOL0     C87370  10.804   4.001  10.309 -1.0908  0.0315 -0.1900
  648MOL0     C87371  10.894   3.933  10.225  0.2868  0.0220  0.2450
  648MOL0     C87372  10.952   3.812  10.264 -0.2408 -0.0668 -0.2170
  648MOL0     C87373  10.937   3.763  10.402 -0.0066 -0.4996  0.1784
  648MOL0     C87374  11.023   3.656  10.444 -0.3629  0.1706 -1.0003
  648MOL0     O87375  11.012   3.629  10.574  0.1347 -0.0909 -0.2834
  648MOL0     C87376  11.069   3.515  10.634  0.4231  0.1021  0.7834
  648MOL0     C87377  10.993   3.448  10.726  0.1625  0.9053  0.0340
  648MOL0     C87378  11.051   3.348  10.806 -0.7432  0.3561  0.0981
  648MOL0     C87379  11.183   3.306  10.786 -0.6153 -0.2127  0.7988
  648MOL0     O87380  11.226   3.211  10.866  0.5351 -0.1167  0.1787
  648MOL0     C87381  11.336   3.128  10.822  0.9325  0.2933 -0.0663
  648MOL0     C87382  11.353   3.004  10.921  0.7115 -0.8480  0.5277
  648MOL0     C87383  11.280   2.878  10.871 -1.5724 -0.3859 -0.2755
  648MOL0     C87384  11.133   2.892  10.853  0.2145 -0.4453  0.2487
  648MOL0     C87385  11.061   2.937  10.982 -0.1704 -0.2397 -0.9955
  648MOL0     C87386  10.917   2.897  10.980  0.0078 -0.7594  0.3853
  648MOL0     C87387  10.855   2.891  11.120 -0.6139  0.2998 -0.6294
  648MOL0     C87388  10.713   2.946  11.135  1.1078  0.0029  0.2810
  648MOL0    Cl87389  10.717   3.117  11.183  0.3905  0.2053  0.0496
  648MOL0     C87390  11.261   3.363  10.681  0.1507  0.7953  0.1763
  648MOL0     C87391  11.205   3.473  10.611 -0.1483 -0.0727  0.5368
  648MOL0     O87392  11.107   3.601  10.362  0.2538  1.0670  0.1433
  648MOL0     C87393  10.848   3.830  10.487 -0.7647  0.0392  0.3398
  648MOL0     C87394  10.784   3.952  10.442  0.3517  0.6290  0.6146
  648MOL0     N87395  10.289   4.360   9.954 -0.1290  0.0712 -0.4481
  648MOL0     N87396  10.180   4.431   9.952  0.5108  0.2537  0.9547
  648MOL0     C87397   9.476   4.070   9.304 -0.5267 -0.7073 -0.8481
  648MOL0     C87398   9.367   4.074   9.221 -0.4245  0.8230  0.0032
  648MOL0     C87399   8.952   3.958   9.033  0.3123  0.2748  0.3675
  648MOL0     C87400   8.992   4.051   8.928 -0.1569 -0.1672 -0.0301
  648MOL0     C87401   8.915   4.060   8.814  0.9808 -0.0337 -0.4592
  648MOL0     C87402   8.792   3.997   8.797  0.8995  1.1843 -0.4408
  648MOL0     O87403   8.708   4.013   8.692  0.2796  1.0186  0.0765
  648MOL0     C87404   8.742   4.086   8.574 -0.1423 -0.0362 -0.9026
  648MOL0     C87405   8.629   4.079   8.473 -0.7811  1.7608  0.1474
  648MOL0     C87406   8.622   3.932   8.416 -0.7184 -0.6038  0.0842
  648MOL0     C87407   8.498   3.926   8.321 -1.0435  0.0160 -0.4269
  648MOL0     C87408   8.547   3.957   8.178  1.0060 -0.0270 -0.2562
  648MOL0     C87409   8.572   3.994   8.067  0.2607 -0.3429  0.2145
  648MOL0     C87410   8.741   3.923   8.905  0.0535  0.0810 -0.1433
  648MOL0     C87411   8.823   3.898   9.024 -0.3055  0.4466 -0.0688
  648MOL0     C87412   8.762   3.811   9.126  0.2133  0.5103  0.1568
  648MOL0     H87413   9.144   3.902   9.409 -1.0946  1.0483 -0.4341
  648MOL0     H87414   9.340   3.841   9.532  0.8902 -4.0514 -3.5229
  648MOL0     H87415   9.521   3.917   9.679 -0.8647  1.3148 -0.7035
  648MOL0     H87416   9.588   3.800   9.557  1.2951  0.4538 -0.4288
  648MOL0     H87417   9.805   3.897   9.590 -0.3995  1.2802 -0.3461
  648MOL0     H87418   9.751   3.842   9.760  2.7335 -1.5544 -1.6319
  648MOL0     H87419   9.767   4.126   9.667 -0.4129 -0.6511 -0.3952
  648MOL0     H87420   9.880   4.031   9.764  1.2579 -1.3502 -4.1810
  648MOL0     H87421   9.588   4.074   9.841 -0.4073  1.9254  0.6184
  648MOL0     H87422   9.730   4.022   9.942  2.4775 -0.8550 -0.9416
  648MOL0     H87423   9.718   4.291   9.828  1.4962  1.8369  1.0949
  648MOL0     H87424   9.625   4.264   9.969  0.7570  1.2947 -1.1780
  648MOL0     H87425   9.851   4.224  10.101 -1.0195 -2.6087 -0.1320
  648MOL0     H87426   9.920   4.203   9.941  0.0637 -1.2978  0.3659
  648MOL0     H87427   9.764   4.443  10.025 -0.6119 -1.4546  1.1691
  648MOL0     H87428   9.874   4.435   9.890 -1.7015  1.0220 -0.8622
  648MOL0     H87429   9.961   4.562  10.098 -4.3119  0.5971  5.1041
  648MOL0     H87430   9.949   4.422  10.191 -2.3216 -2.4130 -1.7045
  648MOL0     H87431  10.146   4.281  10.234  4.0464 -1.2275  0.7560
  648MOL0     H87432  10.361   4.155  10.219  1.9458  3.5196  1.7705
  648MOL0     H87433  10.387   4.112  10.045 -0.3054 -0.9085  1.1160
  648MOL0     H87434  10.596   4.172  10.061 -0.6735  0.1355 -1.7420
  648MOL0     H87435  10.538   4.343  10.050  2.4955  2.0456  3.8329
  648MOL0     H87436  10.537   4.364  10.294  1.1149  0.9400  1.1275
  648MOL0     H87437  10.689   4.340  10.214 -0.5237 -1.4832 -2.0929
  648MOL0     H87438  10.548   4.091  10.350  0.8636 -1.2004 -0.7393
  648MOL0     H87439  10.659   4.194  10.436 -1.5800 -1.4348  0.4835
  648MOL0     H87440  10.899   3.966  10.121 -1.7646 -2.6482 -0.8285
  648MOL0     H87441  11.026   3.769  10.197 -0.0973 -0.3264  0.1024
  648MOL0     H87442  10.886   3.462  10.738 -0.5859 -3.3514 -0.1008
  648MOL0     H87443  10.995   3.299  10.885 -2.1689  3.3482  1.0472
  648MOL0     H87444  11.332   3.090  10.720  5.8969 -2.2264  0.3717
  648MOL0     H87445  11.429   3.184  10.836  0.7774  0.4108  0.5075
  648MOL0     H87446  11.456   2.980  10.949  0.1850 -1.1997  2.3055
  648MOL0     H87447  11.303   3.043  11.011 -2.1396 -0.5208 -1.0871
  648MOL0     H87448  11.323   2.858  10.772  0.5779  2.4669 -0.0275
  648MOL0     H87449  11.315   2.796  10.935  2.5505  3.0001  2.3868
  648MOL0     H87450  11.084   2.804  10.810  0.6318 -1.9896  2.7411
  648MOL0     H87451  11.115   2.974  10.782 -0.6774 -2.4703 -2.0151
  648MOL0     H87452  11.059   3.046  10.991  2.0511 -0.1511 -1.1343
  648MOL0     H87453  11.115   2.900  11.070 -1.7201  2.1430  1.0960
  648MOL0     H87454  10.856   2.954  10.909 -1.8384 -1.2216  1.5319
  648MOL0     H87455  10.914   2.798  10.934 -2.3119 -0.1664 -0.8941
  648MOL0     H87456  10.920   2.937  11.196 -1.0993  0.6989 -0.4500
  648MOL0     H87457  10.856   2.785  11.145 -0.9256 -0.3552 -3.0974
  648MOL0     H87458  10.657   2.939  11.041 -0.0227 -0.5695  0.9760
  648MOL0     H87459  10.656   2.884  11.204  0.2876  0.9469  0.4740
  648MOL0     H87460  11.366   3.344  10.662  0.1782  0.4392  0.6461
  648MOL0     H87461  11.274   3.524  10.544  0.1935 -1.5764 -0.2846
  648MOL0     H87462  10.834   3.798  10.590  1.2512 -0.2933  0.5451
  648MOL0     H87463  10.721   3.999  10.517 -1.2524 -0.4195 -0.0274
  648MOL0     H87464   9.574   4.114   9.287  0.7421 -2.8671  0.3968
  648MOL0     H87465   9.372   4.138   9.134 -2.0882 -1.9509 -2.3319
  648MOL0     H87466   9.089   4.099   8.937  0.9736 -1.8597 -2.1981
  648MOL0     H87467   8.953   4.114   8.727  0.6030 -1.7845 -1.7523
  648MOL0     H87468   8.820   4.026   8.526 -2.7936 -1.6157 -3.5603
  648MOL0     H87469   8.773   4.190   8.588 -1.2079 -0.0177  2.0558
  648MOL0     H87470   8.643   4.134   8.380 -2.2859  0.9767 -0.5789
  648MOL0     H87471   8.532   4.099   8.519 -0.6093 -0.8977  1.8801
  648MOL0     H87472   8.615   3.865   8.502  0.5599  1.1115  1.6031
  648MOL0     H87473   8.718   3.895   8.378  1.0469  3.4691  0.0540
  648MOL0     H87474   8.451   3.828   8.327 -0.1956 -0.3262  2.2456
  648MOL0     H87475   8.430   4.010   8.340  2.0036  2.5556  0.1888
  648MOL0     H87476   8.596   4.014   7.965  1.0022  4.3353  1.0853
  648MOL0     H87477   8.639   3.887   8.899 -0.2978  0.4490  2.5702
  648MOL0     H87478   8.659   3.787   9.098  1.2010 -1.1493 -2.3367
  648MOL0     H87479   8.818   3.720   9.148 -0.2515 -0.1397 -1.2294
  648MOL0     H87480   8.760   3.864   9.222 -0.6666 -0.1701  0.5381
  649MOL0     O87481   2.883   3.362   0.221 -0.0684  0.3911  0.2016
  649MOL0     C87482   2.919   3.263   0.165  0.0017  0.7076  0.5767
  649MOL0     O87483   3.017   3.254   0.080  0.4148  0.3313  0.9236
  649MOL0     C87484   3.108   3.359   0.079  1.0614  0.0617 -0.0456
  649MOL0     C87485   3.086   3.484   0.010 -0.6872  0.4489  0.0863
  649MOL0     C87486   3.191   3.571  -0.012 -0.2566 -0.9417 -0.5269
  649MOL0     C87487   3.313   3.553   0.052 -0.1757  0.4686  0.1820
  649MOL0     O87488   3.412   3.650   0.026  0.4403  0.0255 -0.2566
  649MOL0     C87489   3.549   3.615  -0.005 -0.0253 -0.2378 -1.0289
  649MOL0     C87490   3.562   3.634  -0.160  0.1945  1.3844  0.1224
  649MOL0     C87491   3.516   3.769  -0.209 -0.4190 -0.4890  1.1304
  649MOL0     C87492   3.592   3.797  -0.340 -0.4010  0.3603  0.4024
  649MOL0     C87493   3.540   3.921  -0.415 -0.0302  0.0649 -0.5142
  649MOL0     C87494   3.631   3.977  -0.528 -0.4158  0.9134 -1.0694
  649MOL0     C87495   3.786   3.978  -0.486  1.2967  0.3014 -0.1020
  649MOL0     C87496   3.845   4.062  -0.601  0.5451 -0.0608  0.3472
  649MOL0     N87497   3.966   4.122  -0.558 -0.7601  0.0645 -0.2468
  649MOL0     C87498   3.976   4.206  -0.451  0.8136  0.1947 -0.5806
  649MOL0     C87499   4.107   4.217  -0.429  0.5499  0.4842  1.5122
  649MOL0     C87500   4.176   4.287  -0.327 -1.0747 -0.9225  1.0140
  649MOL0     C87501   4.154   4.221  -0.192 -0.7028  0.9270 -0.2035
  649MOL0     C87502   4.205   4.074  -0.176  0.0294 -0.0758 -0.0401
  649MOL0     C87503   4.302   4.066  -0.062  0.1359 -0.4115  0.3917
  649MOL0     O87504   4.237   4.076   0.067  0.2190  0.2037 -0.1188
  649MOL0     C87505   4.145   3.981   0.111 -0.2287 -0.1092  0.0325
  649MOL0     C87506   4.130   3.851   0.066 -0.0352  0.7596  0.3456
  649MOL0     C87507   4.033   3.753   0.118 -0.0491 -0.0249  0.1845
  649MOL0     C87508   3.953   3.781   0.229 -0.8456  0.0769 -0.3776
  649MOL0     C87509   3.865   3.679   0.287 -0.0151  0.0810 -0.1018
  649MOL0     O87510   3.917   3.549   0.290 -0.2700  0.7784  0.0974
  649MOL0     C87511   3.831   3.442   0.308 -0.4760 -0.4160  0.1325
  649MOL0     C87512   3.755   3.436   0.424 -0.3736  0.5831 -0.1835
  649MOL0     C87513   3.663   3.330   0.444 -0.0781  0.0920  0.1596
  649MOL0     C87514   3.648   3.226   0.339 -0.2221 -0.5048 -0.1523
  649MOL0     O87515   3.559   3.119   0.342  1.0510  0.1827  0.6043
  649MOL0     C87516   3.493   3.106   0.472  0.2942  0.5523 -0.5795
  649MOL0     C87517   3.392   2.988   0.473  0.4116 -0.3502 -0.9122
  649MOL0     C87518   3.296   3.004   0.357  0.1797 -0.4800 -0.2546
  649MOL0     C87519   3.184   2.901   0.375 -0.3438  0.1516 -0.5328
  649MOL0     C87520   3.069   2.888   0.268  0.0546  0.1842  0.7048
  649MOL0     C87521   2.990   2.755   0.291 -1.1416 -0.1181 -1.4130
  649MOL0     C87522   3.065   2.623   0.273  0.1458  0.7436 -0.6765
  649MOL0     C87523   2.973   2.507   0.257 -0.0588  1.1594 -0.3708
  649MOL0    Cl87524   3.039   2.342   0.268  0.3166 -0.0492 -0.4358
  649MOL0     C87525   3.747   3.236   0.235  1.1088 -0.1613 -0.6428
  649MOL0     C87526   3.830   3.335   0.219 -0.5622  0.5875  0.3255
  649MOL0     O87527   3.769   3.718   0.343  0.3515  0.3998  0.4539
  649MOL0     C87528   3.971   3.910   0.277 -1.3486 -0.8875  0.4353
  649MOL0     C87529   4.055   4.007   0.209  0.2039 -0.6180 -0.0648
  649MOL0     N87530   4.169   4.122  -0.512 -0.0386 -0.8515 -0.5336
  649MOL0     N87531   4.082   4.056  -0.572 -0.2604  0.7047 -0.0141
  649MOL0     C87532   3.338   3.428   0.118  0.4561 -0.3646 -0.0415
  649MOL0     C87533   3.237   3.339   0.135  0.3447  0.2982 -0.6782
  649MOL0     C87534   2.830   3.154   0.201 -0.3315  0.3749  0.6272
  649MOL0     C87535   2.766   3.078   0.101  0.0129 -0.5366  0.7375
  649MOL0     C87536   2.660   2.995   0.143  0.4492 -0.6682  1.0614
  649MOL0     C87537   2.612   2.987   0.269  0.0143  0.4306 -0.6025
  649MOL0     O87538   2.492   2.915   0.288 -0.2742 -0.5082  0.0907
  649MOL0     C87539   2.456   2.889   0.426  0.0749 -0.0087  0.3242
  649MOL0     C87540   2.533   2.764   0.464  0.4593  0.1631  0.1939
  649MOL0     C87541   2.495   2.649   0.362 -0.8590  0.5194 -0.1803
  649MOL0     C87542   2.620   2.610   0.280  0.1792  0.0976 -0.4698
  649MOL0     C87543   2.593   2.489   0.190  0.1789  0.0834 -1.1204
  649MOL0     C87544   2.579   2.401   0.103  0.2033  0.3895  0.3395
  649MOL0     C87545   2.695   3.042   0.373 -0.1564  0.0062 -0.2162
  649MOL0     C87546   2.796   3.125   0.334 -0.3577  0.3494  0.2584
  649MOL0     C87547   2.857   3.197   0.454  0.5849  0.0823 -0.5877
  649MOL0     H87548   3.001   3.482  -0.058 -0.9306  0.6455  0.3823
  649MOL0     H87549   3.181   3.660  -0.074 -3.1118 -0.4384  0.4838
  649MOL0     H87550   3.615   3.694   0.033 -0.3781 -0.5875  0.3218
  649MOL0     H87551   3.580   3.518   0.034 -0.0580  0.2773  0.3180
  649MOL0     H87552   3.520   3.556  -0.224  1.0055  2.1161 -1.3374
  649MOL0     H87553   3.667   3.615  -0.185  0.0206 -0.1009  0.3902
  649MOL0     H87554   3.529   3.856  -0.144  1.4777 -0.5711  0.9328
  649MOL0     H87555   3.410   3.751  -0.228 -0.5001 -3.3979  3.5601
  649MOL0     H87556   3.701   3.793  -0.329 -0.2774 -0.6296 -0.9384
  649MOL0     H87557   3.571   3.725  -0.419  2.1563  2.2932 -2.2732
  649MOL0     H87558   3.447   3.896  -0.467  0.8556 -2.3434 -1.1024
  649MOL0     H87559   3.521   4.006  -0.350 -0.1021 -1.9474  2.3188
  649MOL0     H87560   3.624   3.907  -0.613  0.2161 -0.6712  0.1273
  649MOL0     H87561   3.591   4.076  -0.552 -1.2666  0.9008  0.2006
  649MOL0     H87562   3.839   3.882  -0.486  0.1684 -0.3558 -1.4359
  649MOL0     H87563   3.812   4.028  -0.393  0.7824  0.8657 -0.2549
  649MOL0     H87564   3.859   3.997  -0.687  1.2078  0.7724 -0.1935
  649MOL0     H87565   3.785   4.146  -0.638  1.6543  1.1952  1.2719
  649MOL0     H87566   3.895   4.252  -0.395  0.6337  0.9275 -1.4334
  649MOL0     H87567   4.278   4.309  -0.359 -2.2261  1.7959 -1.1132
  649MOL0     H87568   4.130   4.385  -0.310  2.0469  0.6764  0.9348
  649MOL0     H87569   4.208   4.296  -0.134 -1.7260  1.4024  0.1522
  649MOL0     H87570   4.047   4.227  -0.173 -1.0731 -0.7098 -1.5114
  649MOL0     H87571   4.256   4.040  -0.267  0.4591 -0.0990  0.2051
  649MOL0     H87572   4.117   4.009  -0.176 -0.8672  1.0675  1.4516
  649MOL0     H87573   4.373   4.149  -0.056  1.2168 -1.4020  2.6936
  649MOL0     H87574   4.359   3.973  -0.058 -3.0485 -2.5019  0.3514
  649MOL0     H87575   4.205   3.815  -0.004  0.3583  1.1850  0.5437
  649MOL0     H87576   4.029   3.654   0.074 -0.1392 -0.1336  0.4365
  649MOL0     H87577   3.764   3.516   0.498 -1.1090  0.0195  0.5270
  649MOL0     H87578   3.600   3.341   0.531 -0.4708 -0.4114 -0.0624
  649MOL0     H87579   3.574   3.087   0.543  0.0492 -3.8255 -1.1609
  649MOL0     H87580   3.440   3.201   0.485 -3.5099 -1.0880 -2.3494
  649MOL0     H87581   3.458   2.901   0.463  0.5757 -0.0259 -3.3380
  649MOL0     H87582   3.340   2.978   0.569  0.4435 -0.1689 -0.8758
  649MOL0     H87583   3.250   3.100   0.384 -1.4362 -1.8088  1.9868
  649MOL0     H87584   3.335   3.007   0.255  0.5436  1.3585 -0.1105
  649MOL0     H87585   3.143   2.905   0.477  1.6165  2.2698  0.2692
  649MOL0     H87586   3.243   2.810   0.367  1.9440  1.6374 -1.6658
  649MOL0     H87587   3.098   2.907   0.164  2.2894  2.3082  1.6104
  649MOL0     H87588   3.005   2.975   0.287  0.1567  1.0629 -2.3947
  649MOL0     H87589   2.932   2.761   0.384 -0.6611  0.6237 -1.1486
  649MOL0     H87590   2.923   2.748   0.205 -0.8472  1.8133 -1.8527
  649MOL0     H87591   3.127   2.615   0.362 -1.2085  1.5402  0.3883
  649MOL0     H87592   3.137   2.625   0.191  1.8466 -1.6150  0.6484
  649MOL0     H87593   2.891   2.520   0.327  0.9208 -0.2318  1.0990
  649MOL0     H87594   2.930   2.524   0.158  1.4081  2.2286 -0.8655
  649MOL0     H87595   3.735   3.163   0.155  0.2671 -1.6405  0.7549
  649MOL0     H87596   3.890   3.352   0.130  0.0582  1.6026  0.9141
  649MOL0     H87597   3.921   3.922   0.373 -1.0721  1.7216  0.3189
  649MOL0     H87598   4.069   4.094   0.272 -1.6747 -1.9790  2.4145
  649MOL0     H87599   3.436   3.397   0.156  0.0302 -1.8983 -0.1194
  649MOL0     H87600   3.254   3.239   0.173 -3.7569 -0.5474 -0.5826
  649MOL0     H87601   2.803   3.087  -0.001  2.9834  1.2206  1.8497
  649MOL0     H87602   2.613   2.937   0.065  0.7134 -0.1250  0.4848
  649MOL0     H87603   2.348   2.875   0.434  0.0969 -0.8557 -0.6125
  649MOL0     H87604   2.488   2.963   0.500  0.0820 -0.3818  0.6953
  649MOL0     H87605   2.512   2.735   0.568  3.2994 -0.3904  0.6806
  649MOL0     H87606   2.639   2.788   0.459  0.3078  0.9687  0.6552
  649MOL0     H87607   2.426   2.691   0.288  1.0103  3.3633 -0.4556
  649MOL0     H87608   2.460   2.562   0.419  1.9786 -0.1234  0.7065
  649MOL0     H87609   2.663   2.684   0.211  2.6052 -0.9410 -0.1955
  649MOL0     H87610   2.698   2.587   0.353 -1.3620  1.7062  1.8007
  649MOL0     H87611   2.575   2.339   0.016 -1.0442  1.8884 -0.7474
  649MOL0     H87612   2.678   3.023   0.479 -0.1490 -2.0974 -0.5510
  649MOL0     H87613   2.859   3.134   0.544 -1.7628 -1.1077 -1.2774
  649MOL0     H87614   2.949   3.252   0.438  0.4212 -0.0778 -2.2916
  649MOL0     H87615   2.781   3.275   0.466  0.1728 -0.2772 -0.8359
  650MOL0     O87616   4.740   7.492   9.086  0.1090 -0.6986 -0.0082
  650MOL0     C87617   4.835   7.533   9.163 -0.0023 -1.1594  0.4971
  650MOL0     O87618   4.824   7.576   9.295  0.8454 -0.2783 -0.7516
  650MOL0     C87619   4.709   7.577   9.372  0.6007 -0.0605  0.2906
  650MOL0     C87620   4.723   7.588   9.511  0.2025 -0.1561  0.2904
  650MOL0     C87621   4.614   7.580   9.597  0.3802 -0.5500 -0.3528
  650MOL0     C87622   4.490   7.547   9.549  0.1386  0.8609 -0.8404
  650MOL0     O87623   4.384   7.531   9.635  0.0593  0.1130 -1.0345
  650MOL0     C87624   4.253   7.565   9.595 -0.4418  0.7485 -0.1418
  650MOL0     C87625   4.176   7.603   9.728  0.6891  0.6333 -0.5331
  650MOL0     C87626   4.024   7.629   9.711  0.4006  0.2121  0.4594
  650MOL0     C87627   3.966   7.547   9.598  0.2397 -0.4746 -0.9712
  650MOL0     C87628   3.815   7.545   9.611  0.0651 -0.6721 -0.4095
  650MOL0     C87629   3.758   7.418   9.533 -1.0377 -1.0455  0.4483
  650MOL0     C87630   3.623   7.397   9.583  0.9724  0.0607 -0.3129
  650MOL0     C87631   3.567   7.251   9.571  0.2036 -0.4057  0.2502
  650MOL0     N87632   3.562   7.201   9.432  0.0983  0.3297  0.5884
  650MOL0     C87633   3.463   7.232   9.340  1.1362  0.2823 -0.7909
  650MOL0     C87634   3.504   7.182   9.225 -0.0404 -0.7894 -0.2046
  650MOL0     C87635   3.429   7.183   9.098 -0.0204 -0.2728 -0.5575
  650MOL0     C87636   3.497   7.261   8.993  0.2210 -0.5689  0.2815
  650MOL0     C87637   3.459   7.224   8.853  0.9430 -0.1681 -0.5156
  650MOL0     C87638   3.313   7.246   8.830  0.9502 -0.5266  0.2845
  650MOL0     O87639   3.275   7.196   8.703  0.0300 -0.2009 -0.0675
  650MOL0     C87640   3.145   7.220   8.661 -0.8043  0.3438  0.8959
  650MOL0     C87641   3.126   7.188   8.525  0.9106  1.0312  0.4400
  650MOL0     C87642   3.002   7.197   8.464  0.4200 -0.7065  0.4944
  650MOL0     C87643   2.889   7.253   8.534  0.1308  0.6205  0.1729
  650MOL0     C87644   2.752   7.266   8.470 -0.3731  0.2176  0.4138
  650MOL0     O87645   2.649   7.330   8.535 -0.0204 -0.3408 -0.4233
  650MOL0     C87646   2.524   7.331   8.485  0.8280  1.1396 -0.5548
  650MOL0     C87647   2.453   7.214   8.452  0.3881 -0.0496  0.2977
  650MOL0     C87648   2.320   7.216   8.402  0.0628  0.2802 -0.3822
  650MOL0     C87649   2.268   7.342   8.370 -0.4323  0.6504 -0.5922
  650MOL0     O87650   2.143   7.342   8.323 -0.0061  0.4823 -1.8906
  650MOL0     C87651   2.082   7.461   8.272  0.3278 -0.0733  0.5303
  650MOL0     C87652   1.950   7.417   8.204  0.1476  0.7718  0.3361
  650MOL0     C87653   1.984   7.331   8.087 -0.2526  0.9913  1.0719
  650MOL0     C87654   1.994   7.410   7.957 -0.4452 -1.3201  0.6660
  650MOL0     C87655   2.065   7.323   7.852  0.5101 -0.1274 -0.1547
  650MOL0     C87656   2.219   7.284   7.879  0.0988 -0.2238 -0.4122
  650MOL0     C87657   2.314   7.381   7.946  0.8629 -0.1972  0.8411
  650MOL0     C87658   2.455   7.334   7.949  0.1391 -1.0395 -0.2395
  650MOL0    Cl87659   2.480   7.166   8.028  0.0890 -0.3496  0.0312
  650MOL0     C87660   2.353   7.454   8.374  0.7253  0.0084 -0.3994
  650MOL0     C87661   2.472   7.450   8.447  0.0981 -0.5940 -0.5661
  650MOL0     O87662   2.738   7.215   8.360 -0.5290 -0.6560 -0.5493
  650MOL0     C87663   2.906   7.294   8.670  0.5639  0.6341  0.7695
  650MOL0     C87664   3.035   7.273   8.730  0.4264  0.0367 -0.3272
  650MOL0     N87665   3.621   7.118   9.247  0.0109 -1.0307  0.1210
  650MOL0     N87666   3.657   7.132   9.368 -0.0201 -0.1578  0.3316
  650MOL0     C87667   4.473   7.531   9.412  0.3169 -0.3227  0.9698
  650MOL0     C87668   4.582   7.551   9.323 -0.2688  0.2876 -0.7209
  650MOL0     C87669   4.968   7.501   9.117  0.1098  0.4188  0.1333
  650MOL0     C87670   5.072   7.472   9.212  0.1234 -0.2296 -0.2489
  650MOL0     C87671   5.204   7.444   9.177 -0.5709  0.3278 -0.2713
  650MOL0     C87672   5.239   7.431   9.043 -0.0080  1.0063 -0.8131
  650MOL0     O87673   5.361   7.389   8.993 -0.0260  0.3133  0.0832
  650MOL0     C87674   5.452   7.333   9.080  0.3022 -0.6848 -0.1899
  650MOL0     C87675   5.568   7.259   8.997  0.3050 -0.9121 -0.2947
  650MOL0     C87676   5.699   7.281   9.080  0.6900 -0.5399  0.1690
  650MOL0     C87677   5.805   7.248   8.988 -0.7816  0.4207 -0.8329
  650MOL0     C87678   5.937   7.256   9.052 -0.3359 -1.0583 -0.3767
  650MOL0     C87679   6.049   7.264   9.102  0.2378 -0.9373 -0.1788
  650MOL0     C87680   5.140   7.462   8.950 -0.1689  0.0748  0.3841
  650MOL0     C87681   5.006   7.506   8.980 -0.2922  0.6607 -0.1696
  650MOL0     C87682   4.913   7.546   8.866  0.2632 -0.5906 -0.2749
  650MOL0     H87683   4.811   7.625   9.562  0.3865  1.5016 -1.1351
  650MOL0     H87684   4.605   7.589   9.705 -1.5360 -2.5242 -0.2913
  650MOL0     H87685   4.248   7.647   9.522 -0.0007  1.0374  0.1480
  650MOL0     H87686   4.218   7.476   9.542 -0.7946 -1.0877  2.9262
  650MOL0     H87687   4.226   7.690   9.771  3.4104  0.4630 -3.0484
  650MOL0     H87688   4.199   7.519   9.794  2.8575  2.4059  1.1393
  650MOL0     H87689   4.009   7.736   9.692  2.8338  0.4132 -0.6866
  650MOL0     H87690   3.976   7.605   9.807 -1.2122 -2.0515 -0.8268
  650MOL0     H87691   3.990   7.596   9.503 -2.2298  2.1726 -0.3765
  650MOL0     H87692   4.013   7.449   9.600  0.9845 -0.1457 -1.7571
  650MOL0     H87693   3.780   7.547   9.714 -1.8271 -2.0223 -0.9652
  650MOL0     H87694   3.776   7.634   9.561  0.1220  0.5412  1.6250
  650MOL0     H87695   3.764   7.431   9.425 -1.4770 -3.8098  0.0354
  650MOL0     H87696   3.811   7.329   9.567 -0.4222 -1.1768 -0.8247
  650MOL0     H87697   3.552   7.464   9.534 -0.7241 -0.3756  1.4253
  650MOL0     H87698   3.609   7.421   9.689 -3.2422  3.4933 -1.3636
  650MOL0     H87699   3.617   7.175   9.633 -0.9460  1.1630  3.3132
  650MOL0     H87700   3.463   7.262   9.603  0.6871  1.7597  1.1961
  650MOL0     H87701   3.369   7.271   9.376  0.6063 -3.8425  3.2767
  650MOL0     H87702   3.429   7.080   9.060 -1.0865 -0.5881  0.2426
  650MOL0     H87703   3.325   7.212   9.111  0.3300  0.1126  2.1249
  650MOL0     H87704   3.477   7.366   9.014 -0.3856 -0.9390  1.6536
  650MOL0     H87705   3.605   7.245   9.008 -0.3001 -3.1183  1.8216
  650MOL0     H87706   3.484   7.120   8.829 -1.2464 -1.0937  0.9232
  650MOL0     H87707   3.503   7.290   8.778  2.0472  0.3000  0.5126
  650MOL0     H87708   3.290   7.352   8.841  0.1672 -0.8242  1.8842
  650MOL0     H87709   3.258   7.191   8.907 -0.6224  1.9773  1.0896
  650MOL0     H87710   3.207   7.133   8.478 -2.2284 -5.4328  1.4750
  650MOL0     H87711   2.988   7.157   8.364 -0.0374 -1.5394  0.8855
  650MOL0     H87712   2.500   7.116   8.456 -0.2576 -0.4121 -0.6363
  650MOL0     H87713   2.265   7.125   8.379  2.1830 -1.3107  0.5132
  650MOL0     H87714   2.055   7.529   8.353 -0.8954 -2.4405  2.2526
  650MOL0     H87715   2.146   7.512   8.199 -1.5368 -1.8236 -2.5181
  650MOL0     H87716   1.889   7.375   8.284  0.3700  1.0904  0.6756
  650MOL0     H87717   1.889   7.501   8.167 -1.0890 -0.4839 -0.5835
  650MOL0     H87718   2.068   7.266   8.111 -0.0086  1.4022  1.3279
  650MOL0     H87719   1.904   7.259   8.069  2.9989 -2.4221 -1.4077
  650MOL0     H87720   2.041   7.507   7.974 -1.2683 -1.2564  2.9948
  650MOL0     H87721   1.897   7.444   7.921  1.0861 -0.2754 -2.9728
  650MOL0     H87722   2.056   7.370   7.754 -0.2406  0.8022  0.3498
  650MOL0     H87723   2.018   7.224   7.846 -0.8733  0.1092  3.6413
  650MOL0     H87724   2.212   7.196   7.943 -0.1378  0.5488  0.6514
  650MOL0     H87725   2.260   7.264   7.779 -2.2510 -2.8995 -0.9722
  650MOL0     H87726   2.279   7.414   8.044 -0.7481 -0.8088  0.5119
  650MOL0     H87727   2.306   7.479   7.897 -2.0905 -0.1454  1.2081
  650MOL0     H87728   2.493   7.345   7.847 -1.4311  1.0021 -0.6892
  650MOL0     H87729   2.519   7.398   8.010 -1.3480 -0.9034  1.2433
  650MOL0     H87730   2.319   7.554   8.348 -0.8562 -0.4287 -0.0847
  650MOL0     H87731   2.533   7.539   8.462  0.6855 -0.8083 -1.5918
  650MOL0     H87732   2.822   7.333   8.727 -0.1811  0.7492 -0.3748
  650MOL0     H87733   3.046   7.299   8.835  0.6818  1.1572 -0.6164
  650MOL0     H87734   4.375   7.512   9.368  0.6619 -0.8326  0.4142
  650MOL0     H87735   4.560   7.549   9.216  1.4500  1.0071 -1.1311
  650MOL0     H87736   5.051   7.508   9.312 -0.0012  0.1939 -0.4277
  650MOL0     H87737   5.280   7.444   9.255  3.8259  0.1985 -4.1717
  650MOL0     H87738   5.400   7.262   9.144  0.7855 -0.9211 -0.0510
  650MOL0     H87739   5.505   7.404   9.144  0.2861 -0.5466 -0.3300
  650MOL0     H87740   5.582   7.309   8.900  1.4579 -2.2342 -0.8299
  650MOL0     H87741   5.558   7.151   8.986  1.8548 -0.9847 -1.1427
  650MOL0     H87742   5.701   7.223   9.173  0.7598 -1.4885 -0.4054
  650MOL0     H87743   5.713   7.385   9.111  2.6819 -0.6716 -0.1501
  650MOL0     H87744   5.796   7.155   8.932  4.3025  0.0917 -1.5855
  650MOL0     H87745   5.814   7.323   8.909  2.7941  1.6730  0.5312
  650MOL0     H87746   6.145   7.281   9.147  0.2830  1.7130 -1.0606
  650MOL0     H87747   5.173   7.469   8.847 -0.9876 -0.1133  0.1047
  650MOL0     H87748   4.961   7.592   8.779  0.6153 -0.1360  0.1513
  650MOL0     H87749   4.865   7.453   8.835  0.6522 -0.8650 -0.0601
  650MOL0     H87750   4.829   7.611   8.893 -1.4486 -3.1895  1.0879
  651MOL0     O87751   2.575   8.453   3.176 -0.3056 -0.0105  0.6834
  651MOL0     C87752   2.568   8.330   3.159 -0.0831 -0.1186  0.7351
  651MOL0     O87753   2.668   8.248   3.120  0.5009 -0.7341 -0.2392
  651MOL0     C87754   2.788   8.303   3.137  0.3512 -0.7112 -0.1537
  651MOL0     C87755   2.835   8.339   3.267  0.1599 -0.1506  0.4918
  651MOL0     C87756   2.968   8.375   3.282  1.0858  0.2973 -0.3071
  651MOL0     C87757   3.059   8.377   3.179  0.0228  0.4138  0.0064
  651MOL0     O87758   3.192   8.420   3.190  1.0010  0.5357 -0.1462
  651MOL0     C87759   3.233   8.490   3.307  0.5328  0.5606  0.2179
  651MOL0     C87760   3.337   8.594   3.279 -0.5403  0.1311 -0.4549
  651MOL0     C87761   3.474   8.527   3.255  1.3111  0.2933  0.4288
  651MOL0     C87762   3.571   8.624   3.209 -0.7555 -0.0938 -0.0901
  651MOL0     C87763   3.710   8.585   3.154 -1.0113  0.1193 -0.4652
  651MOL0     C87764   3.811   8.587   3.275 -0.0414 -0.5636 -0.3623
  651MOL0     C87765   3.962   8.567   3.235 -0.0730  0.0852  0.6189
  651MOL0     C87766   4.045   8.494   3.340 -1.2101  0.9378  0.1175
  651MOL0     N87767   4.042   8.572   3.469 -0.0202  0.0269 -0.0192
  651MOL0     C87768   4.134   8.674   3.493  0.2349  0.4071 -0.3243
  651MOL0     C87769   4.117   8.698   3.627  0.5215 -0.3857  0.4593
  651MOL0     C87770   4.192   8.794   3.712  0.4215  0.2614 -0.6915
  651MOL0     C87771   4.305   8.718   3.788  0.1190 -0.9312  0.0474
  651MOL0     C87772   4.257   8.607   3.878 -0.6403  0.3719 -0.0315
  651MOL0     C87773   4.367   8.551   3.972  0.1659  0.2464 -0.1415
  651MOL0     O87774   4.395   8.651   4.078 -0.1189  0.3773  0.2513
  651MOL0     C87775   4.506   8.617   4.154 -1.0471  0.1683  0.0792
  651MOL0     C87776   4.556   8.487   4.173  0.4174  0.4015  0.1496
  651MOL0     C87777   4.668   8.461   4.261  0.6405 -0.4938 -0.8192
  651MOL0     C87778   4.737   8.561   4.330  0.1759  0.1681 -0.4425
  651MOL0     C87779   4.832   8.535   4.435 -0.6474  0.0603  0.1173
  651MOL0     O87780   4.850   8.638   4.519  0.5411 -0.2364 -0.2975
  651MOL0     C87781   4.977   8.667   4.566 -0.0470  0.3092  0.1716
  651MOL0     C87782   5.099   8.622   4.511  0.0569 -0.0335 -0.5182
  651MOL0     C87783   5.224   8.647   4.575  0.0481  0.1496  0.3948
  651MOL0     C87784   5.231   8.735   4.686 -0.2599  0.4738  1.1799
  651MOL0     O87785   5.350   8.773   4.734  0.1211 -0.3501 -0.0376
  651MOL0     C87786   5.440   8.832   4.637  1.0465  1.1838 -0.4993
  651MOL0     C87787   5.550   8.729   4.625  0.3972  0.4553  0.2102
  651MOL0     C87788   5.677   8.744   4.706  1.0792 -0.4120 -0.0994
  651MOL0     C87789   5.812   8.668   4.657 -0.8962  0.6479  0.4636
  651MOL0     C87790   5.939   8.735   4.721 -0.2078  0.2290  0.5216
  651MOL0     C87791   6.064   8.670   4.668 -1.5370  0.3169  0.2692
  651MOL0     C87792   6.189   8.713   4.733 -0.1986 -0.2643 -0.7084
  651MOL0     C87793   6.322   8.682   4.646 -0.4274 -0.0005  0.4402
  651MOL0    Cl87794   6.324   8.500   4.611  0.3056 -0.0497  0.2691
  651MOL0     C87795   5.107   8.773   4.738  0.6359 -0.1356 -0.2205
  651MOL0     C87796   4.982   8.738   4.686 -1.5081 -0.0283  0.2023
  651MOL0     O87797   4.901   8.429   4.445  0.2219 -0.0730  0.3458
  651MOL0     C87798   4.689   8.695   4.295  0.1662 -0.2324 -0.1531
  651MOL0     C87799   4.578   8.721   4.209 -0.4130  0.7815 -0.1164
  651MOL0     N87800   4.018   8.615   3.683 -0.4698 -0.1154  0.7145
  651MOL0     N87801   3.968   8.546   3.584  0.8308  0.2396  0.5242
  651MOL0     C87802   3.016   8.349   3.050 -0.4056  0.6002  0.4257
  651MOL0     C87803   2.878   8.321   3.028 -0.7219  0.7649  0.5690
  651MOL0     C87804   2.441   8.257   3.178  1.1554  0.1911  0.6793
  651MOL0     C87805   2.405   8.165   3.077 -0.2983  1.0344  0.0259
  651MOL0     C87806   2.273   8.119   3.058 -0.5835 -0.3161  0.2824
  651MOL0     C87807   2.175   8.158   3.147 -0.1580  0.0669 -0.1101
  651MOL0     O87808   2.045   8.114   3.113 -0.4489  0.2139 -0.1654
  651MOL0     C87809   1.938   8.203   3.146 -0.3989 -0.5831  0.4701
  651MOL0     C87810   1.809   8.147   3.108  0.4341 -0.0329 -0.6324
  651MOL0     C87811   1.783   8.172   2.950 -0.0851  0.1918  0.3936
  651MOL0     C87812   1.645   8.125   2.895 -0.5037  0.3882 -0.2068
  651MOL0     C87813   1.543   8.213   2.949  0.5664  0.1036 -1.1541
  651MOL0     C87814   1.465   8.291   2.999  0.2934 -0.1311  0.9581
  651MOL0     C87815   2.207   8.249   3.245  0.3960  0.2953  0.2805
  651MOL0     C87816   2.338   8.283   3.270 -0.0448  0.3903 -0.3595
  651MOL0     C87817   2.357   8.378   3.394 -0.1193 -0.1410  0.1876
  651MOL0     H87818   2.758   8.339   3.344 -2.8449 -1.1402 -2.2980
  651MOL0     H87819   3.000   8.406   3.381  1.6295  1.2942 -0.7722
  651MOL0     H87820   3.145   8.548   3.337 -0.0076 -0.7905  1.3873
  651MOL0     H87821   3.255   8.418   3.386  0.7040  0.8751  0.4583
  651MOL0     H87822   3.344   8.646   3.375 -0.2541 -1.1849  0.2696
  651MOL0     H87823   3.296   8.653   3.197 -2.3779  0.9668  0.9896
  651MOL0     H87824   3.470   8.452   3.176  1.5359 -0.1680  0.8523
  651MOL0     H87825   3.497   8.476   3.349 -1.2777 -2.3569 -0.2329
  651MOL0     H87826   3.525   8.659   3.116  0.8943 -3.4205 -2.3651
  651MOL0     H87827   3.575   8.706   3.281 -0.8442  1.8705 -2.1959
  651MOL0     H87828   3.725   8.491   3.099  0.0925 -0.2448  0.4256
  651MOL0     H87829   3.746   8.663   3.085  0.0170 -0.7300 -0.9182
  651MOL0     H87830   3.805   8.684   3.325 -4.7920 -1.1309  0.6217
  651MOL0     H87831   3.786   8.509   3.348  0.3041 -0.2572  0.0870
  651MOL0     H87832   4.003   8.666   3.213  0.0450  0.0221  0.5584
  651MOL0     H87833   3.969   8.500   3.149  1.8029 -0.2203  0.9811
  651MOL0     H87834   4.028   8.387   3.354 -2.3699  1.1904  0.7362
  651MOL0     H87835   4.153   8.503   3.325 -1.2352  2.2371  0.5620
  651MOL0     H87836   4.202   8.713   3.418 -1.5560 -1.1308 -2.9104
  651MOL0     H87837   4.244   8.868   3.651 -1.5754  2.4393  0.0867
  651MOL0     H87838   4.137   8.845   3.792 -0.2975  2.0044 -2.2316
  651MOL0     H87839   4.368   8.679   3.707  1.1129  2.7883 -1.1764
  651MOL0     H87840   4.363   8.786   3.851 -2.2756 -0.4548  1.8818
  651MOL0     H87841   4.220   8.530   3.811  1.1544  0.3802 -1.0985
  651MOL0     H87842   4.169   8.646   3.930 -1.2379  1.5309 -1.7867
  651MOL0     H87843   4.454   8.501   3.929 -1.4615 -1.1374 -1.9942
  651MOL0     H87844   4.330   8.464   4.026 -0.7710  0.2971 -0.6861
  651MOL0     H87845   4.494   8.408   4.134 -2.1404  3.4967 -2.6542
  651MOL0     H87846   4.695   8.358   4.282 -0.1325 -0.8901 -1.7015
  651MOL0     H87847   5.099   8.577   4.413 -0.4476  0.9475 -0.9793
  651MOL0     H87848   5.316   8.603   4.537  1.6486  2.5903  1.1846
  651MOL0     H87849   5.382   8.857   4.548  1.6151  3.2971 -0.3285
  651MOL0     H87850   5.480   8.927   4.672 -0.8436  0.9313  2.8672
  651MOL0     H87851   5.517   8.625   4.623  0.8401  0.2581  1.9627
  651MOL0     H87852   5.584   8.752   4.523  3.2016 -0.0359  0.9518
  651MOL0     H87853   5.691   8.852   4.718 -3.2263  0.1700  1.5323
  651MOL0     H87854   5.647   8.716   4.808 -3.9144  2.2312 -0.5030
  651MOL0     H87855   5.812   8.686   4.549 -0.3387 -0.4916  0.2572
  651MOL0     H87856   5.811   8.559   4.671  0.0457  0.2230 -2.1576
  651MOL0     H87857   5.941   8.713   4.828 -3.4233  0.2478  0.6916
  651MOL0     H87858   5.923   8.842   4.702  1.4223  0.7824  2.0055
  651MOL0     H87859   6.052   8.562   4.682 -0.2729  0.1635  0.3391
  651MOL0     H87860   6.071   8.682   4.560 -1.3085  1.0535  0.3587
  651MOL0     H87861   6.200   8.665   4.831  0.6605  0.4987 -0.4120
  651MOL0     H87862   6.188   8.821   4.752 -2.5470 -0.3877  0.2172
  651MOL0     H87863   6.319   8.737   4.552  1.8741  1.5153  1.1594
  651MOL0     H87864   6.416   8.716   4.691  0.3998 -0.4118 -0.9208
  651MOL0     H87865   5.110   8.839   4.824 -3.1051 -0.5068  0.3914
  651MOL0     H87866   4.887   8.760   4.735 -1.3552  2.0642 -0.3486
  651MOL0     H87867   4.736   8.779   4.345 -0.4621 -0.8732  1.5808
  651MOL0     H87868   4.540   8.822   4.200  0.4667  1.0370 -1.3822
  651MOL0     H87869   3.075   8.337   2.960 -3.0414 -7.0118 -1.0785
  651MOL0     H87870   2.867   8.308   2.921  1.4169  2.5047  0.0473
  651MOL0     H87871   2.470   8.153   2.991  0.2646 -0.0048  0.5835
  651MOL0     H87872   2.250   8.051   2.977  0.6102  0.0141 -0.3590
  651MOL0     H87873   1.952   8.294   3.088  2.9256 -0.9336  0.5165
  651MOL0     H87874   1.929   8.235   3.250 -3.2565 -1.1594  0.4777
  651MOL0     H87875   1.725   8.197   3.156  0.6031  1.4001 -1.7498
  651MOL0     H87876   1.811   8.038   3.123 -3.2257 -0.2588 -0.8448
  651MOL0     H87877   1.856   8.116   2.890 -0.8813 -0.2034 -0.2393
  651MOL0     H87878   1.788   8.278   2.925 -1.7564 -0.4523 -3.4385
  651MOL0     H87879   1.633   8.099   2.790  0.4582 -4.3669  0.6348
  651MOL0     H87880   1.636   8.022   2.932  1.1679 -0.8133 -2.8192
  651MOL0     H87881   1.405   8.375   3.027  0.7809  0.6217 -0.1943
  651MOL0     H87882   2.136   8.284   3.319  0.0068  2.3909 -1.0091
  651MOL0     H87883   2.295   8.345   3.478  0.8658 -1.8326  0.3037
  651MOL0     H87884   2.454   8.389   3.444 -0.2819  2.5368  0.0562
  651MOL0     H87885   2.343   8.484   3.371  0.9320 -0.2899 -1.2855
  652MOL0     O87886   3.088   5.699   3.431  0.1990 -0.8252  0.0399
  652MOL0     C87887   3.067   5.656   3.545  0.4278 -0.3592 -0.6544
  652MOL0     O87888   3.147   5.677   3.656  0.3199  0.2169  0.0322
  652MOL0     C87889   3.261   5.752   3.648 -0.0999  0.8517  0.0797
  652MOL0     C87890   3.349   5.763   3.537  0.1585 -0.4231  0.8861
  652MOL0     C87891   3.455   5.848   3.542 -0.2938  0.2727  0.9264
  652MOL0     C87892   3.484   5.916   3.664  0.2608 -0.1666  0.2391
  652MOL0     O87893   3.595   5.994   3.656 -0.3174 -0.1809 -0.0650
  652MOL0     C87894   3.637   6.063   3.772  0.0287  0.0447  0.5318
  652MOL0     C87895   3.781   6.103   3.745  0.6490 -0.2875 -0.4176
  652MOL0     C87896   3.841   6.200   3.857 -0.3028  0.8359  0.4536
  652MOL0     C87897   3.988   6.182   3.880 -0.8252 -0.0996  0.6237
  652MOL0     C87898   4.061   6.263   3.768 -0.5961 -0.6184 -0.3144
  652MOL0     C87899   4.209   6.226   3.759 -0.2596 -0.8636 -0.6244
  652MOL0     C87900   4.286   6.283   3.640  0.0122 -0.0115 -0.3463
  652MOL0     C87901   4.246   6.237   3.507  0.3205 -0.0718  0.4074
  652MOL0     N87902   4.285   6.098   3.489  0.4302  0.4215  0.1480
  652MOL0     C87903   4.188   5.996   3.475 -0.5416  0.2984  0.2314
  652MOL0     C87904   4.259   5.887   3.472  0.2983  1.4450 -0.9715
  652MOL0     C87905   4.206   5.741   3.460  0.4415  0.2097  0.7039
  652MOL0     C87906   4.058   5.725   3.461  0.5167  0.3782  0.8236
  652MOL0     C87907   3.987   5.768   3.598  0.1406 -0.0263  0.9998
  652MOL0     C87908   3.857   5.697   3.613  0.2022 -0.7392  0.2768
  652MOL0     O87909   3.864   5.600   3.723  0.7072  0.7489 -0.0509
  652MOL0     C87910   3.749   5.541   3.775 -0.5925 -0.5510 -0.0630
  652MOL0     C87911   3.772   5.427   3.846 -0.1443 -0.7854  0.4168
  652MOL0     C87912   3.665   5.348   3.887  0.0987 -0.2373 -0.4387
  652MOL0     C87913   3.530   5.382   3.865 -0.7438 -0.1309 -0.8356
  652MOL0     C87914   3.425   5.288   3.899 -0.4272 -0.0590 -0.9060
  652MOL0     O87915   3.312   5.352   3.951 -0.4718 -0.4546  0.2181
  652MOL0     C87916   3.208   5.282   4.002  0.7622 -0.3630  0.1704
  652MOL0     C87917   3.147   5.167   3.951 -0.3576 -1.4672  0.6476
  652MOL0     C87918   3.045   5.103   4.023 -0.7280  0.7008  0.5073
  652MOL0     C87919   2.974   5.165   4.128 -0.0528 -0.4386 -1.2623
  652MOL0     O87920   2.868   5.114   4.197  0.1108  0.3240  0.0324
  652MOL0     C87921   2.798   4.996   4.154 -0.3828 -0.8830  0.0147
  652MOL0     C87922   2.677   4.986   4.246  0.4407 -0.0919  0.9008
  652MOL0     C87923   2.701   4.936   4.386 -0.8098  0.2782 -0.8861
  652MOL0     C87924   2.568   4.934   4.463  1.1062  0.0605  0.2603
  652MOL0     C87925   2.481   4.804   4.416 -0.4315 -0.6458 -0.7861
  652MOL0     C87926   2.387   4.747   4.529 -0.5258  0.4881  0.5167
  652MOL0     C87927   2.263   4.842   4.564 -0.6948  0.1574 -0.2547
  652MOL0     C87928   2.208   4.810   4.703 -0.5515 -0.0531 -0.4108
  652MOL0    Cl87929   2.325   4.866   4.822 -0.5393 -0.4813 -0.0239
  652MOL0     C87930   3.030   5.284   4.173  0.3527 -0.3556 -0.0541
  652MOL0     C87931   3.149   5.335   4.120  0.4820  0.4856  1.3591
  652MOL0     O87932   3.448   5.165   3.901 -0.3333  0.3903 -0.3817
  652MOL0     C87933   3.509   5.506   3.790 -0.1223 -0.3114  0.6159
  652MOL0     C87934   3.618   5.573   3.736 -0.1610 -0.9919 -0.4271
  652MOL0     N87935   4.389   5.911   3.494  0.2586  0.2391 -0.0896
  652MOL0     N87936   4.400   6.035   3.514  0.8005 -0.0856 -0.7721
  652MOL0     C87937   3.402   5.904   3.773  0.0812  0.3498 -0.2433
  652MOL0     C87938   3.286   5.823   3.765  0.1728  0.8358 -0.5993
  652MOL0     C87939   2.921   5.599   3.557  0.4233 -0.2394  0.0517
  652MOL0     C87940   2.826   5.641   3.461 -0.0696  0.8694  0.1788
  652MOL0     C87941   2.694   5.587   3.458 -0.3461 -0.2964  0.2664
  652MOL0     C87942   2.654   5.500   3.573  1.0895  0.0591 -0.1528
  652MOL0     O87943   2.526   5.458   3.592  0.4856 -0.4339 -0.8869
  652MOL0     C87944   2.423   5.542   3.553  0.0686  0.3066  0.5006
  652MOL0     C87945   2.292   5.492   3.619 -0.0436 -0.7944 -0.3285
  652MOL0     C87946   2.259   5.347   3.578 -0.8065  0.2029 -0.1442
  652MOL0     C87947   2.142   5.292   3.660  0.6632 -0.3679 -0.1708
  652MOL0     C87948   2.056   5.387   3.722 -0.0674 -0.4212  0.7156
  652MOL0     C87949   2.000   5.461   3.793  1.1305  0.3438  0.3674
  652MOL0     C87950   2.751   5.462   3.666 -0.5981 -0.5627  0.5138
  652MOL0     C87951   2.886   5.498   3.658 -0.3279  0.5510  0.1099
  652MOL0     C87952   2.971   5.453   3.774  0.0059 -0.3975 -0.2644
  652MOL0     H87953   3.343   5.714   3.440 -0.1931  2.3297 -0.5753
  652MOL0     H87954   3.516   5.860   3.453  1.6441  0.4272  2.2214
  652MOL0     H87955   3.574   6.148   3.799 -1.2922 -1.2619  1.6958
  652MOL0     H87956   3.640   5.990   3.854 -1.5006 -2.9536 -1.8582
  652MOL0     H87957   3.792   6.155   3.650  0.7035  1.3529  0.4501
  652MOL0     H87958   3.837   6.010   3.740  2.0684  0.5981 -1.9426
  652MOL0     H87959   3.788   6.162   3.945  1.2764 -2.1881  0.1971
  652MOL0     H87960   3.817   6.302   3.824  0.5319  0.6187 -0.8871
  652MOL0     H87961   4.012   6.238   3.971  2.1313  0.9498 -0.6713
  652MOL0     H87962   4.028   6.080   3.876  3.2390  1.3110 -2.3566
  652MOL0     H87963   4.009   6.255   3.672  1.8657 -0.9179 -1.7153
  652MOL0     H87964   4.056   6.369   3.794 -2.7523  0.0360 -2.9685
  652MOL0     H87965   4.258   6.267   3.848 -2.6487  0.9645 -0.0516
  652MOL0     H87966   4.219   6.118   3.769 -1.9686 -0.8915  1.4707
  652MOL0     H87967   4.392   6.262   3.657 -0.2607 -2.1469 -1.0246
  652MOL0     H87968   4.261   6.390   3.645 -1.1260 -0.3022  0.4326
  652MOL0     H87969   4.143   6.265   3.484  0.8171  1.5340  0.0074
  652MOL0     H87970   4.289   6.302   3.430 -3.1627 -0.6062 -2.2202
  652MOL0     H87971   4.086   6.026   3.454 -0.4059  2.1853  2.0126
  652MOL0     H87972   4.251   5.697   3.370 -2.1943 -1.0208 -0.0991
  652MOL0     H87973   4.245   5.679   3.541  0.0782 -1.5267 -0.4006
  652MOL0     H87974   4.011   5.783   3.382  3.1041  0.5081 -0.7420
  652MOL0     H87975   4.044   5.616   3.453  2.5060  0.0494  1.2654
  652MOL0     H87976   3.971   5.876   3.601  3.9016  0.6571  3.2576
  652MOL0     H87977   4.058   5.759   3.681  0.1867  0.6206  1.0375
  652MOL0     H87978   3.825   5.648   3.520 -0.0086 -0.7465  0.3535
  652MOL0     H87979   3.784   5.777   3.624 -0.7050 -1.6111  0.7156
  652MOL0     H87980   3.873   5.395   3.865 -0.1888  0.2789  2.8108
  652MOL0     H87981   3.694   5.259   3.942 -3.3463 -0.9875  0.3917
  652MOL0     H87982   3.184   5.117   3.862 -1.0967  1.4052 -1.4339
  652MOL0     H87983   2.998   5.021   3.969 -0.3666 -0.2353  1.5663
  652MOL0     H87984   2.764   4.995   4.050 -0.7466  0.7331  0.0948
  652MOL0     H87985   2.865   4.911   4.169  2.5788  1.7798  3.7780
  652MOL0     H87986   2.630   5.085   4.251  0.3582  0.1400 -2.2848
  652MOL0     H87987   2.606   4.920   4.195  2.0758  0.3148 -2.1307
  652MOL0     H87988   2.757   4.842   4.381 -0.6987  0.3324 -0.6893
  652MOL0     H87989   2.769   5.006   4.435  1.0815 -2.1434  0.2147
  652MOL0     H87990   2.511   5.024   4.439  3.6145  1.8722  0.7199
  652MOL0     H87991   2.589   4.938   4.571 -3.3202 -0.4089  1.3425
  652MOL0     H87992   2.557   4.726   4.403  0.7197  0.0758  1.2113
  652MOL0     H87993   2.419   4.825   4.329  0.5864  3.4205 -0.7286
  652MOL0     H87994   2.361   4.650   4.487  0.3460 -0.6215  2.3774
  652MOL0     H87995   2.451   4.733   4.618 -1.2415  1.1422  1.1564
  652MOL0     H87996   2.185   4.828   4.488  0.5534 -3.9276 -1.0027
  652MOL0     H87997   2.289   4.947   4.548 -0.2759 -0.1528 -1.7610
  652MOL0     H87998   2.113   4.864   4.713 -1.6092 -1.8647 -0.0991
  652MOL0     H87999   2.175   4.705   4.709  2.7755 -1.3121 -1.7785
  652MOL0     H88000   2.980   5.339   4.253  1.4077  1.2937 -0.4642
  652MOL0     H88001   3.187   5.430   4.153  1.2714  0.3645  0.8198
  652MOL0     H88002   3.406   5.538   3.773  0.7613  2.3046 -0.3399
  652MOL0     H88003   3.603   5.661   3.674  0.7180 -0.3606  0.2333
  652MOL0     H88004   3.422   5.961   3.863 -1.6616  2.6363 -1.1954
  652MOL0     H88005   3.225   5.832   3.854 -1.1956 -0.9345 -1.2801
  652MOL0     H88006   2.850   5.721   3.392 -1.5211  2.0540  0.9796
  652MOL0     H88007   2.625   5.635   3.390  0.6987  2.2352  0.8980
  652MOL0     H88008   2.427   5.543   3.444  1.2976 -0.3474  0.5251
  652MOL0     H88009   2.450   5.645   3.578  3.7221 -0.4039  0.0617
  652MOL0     H88010   2.202   5.553   3.604 -1.7012 -2.7769  0.8651
  652MOL0     H88011   2.312   5.498   3.727  1.2081 -1.6285 -0.4973
  652MOL0     H88012   2.340   5.276   3.594  0.1180  1.3115  0.2493
  652MOL0     H88013   2.237   5.347   3.471  1.2126 -0.3251 -0.5923
  652MOL0     H88014   2.078   5.234   3.593  0.3042 -0.2217  0.0422
  652MOL0     H88015   2.178   5.228   3.741 -0.7410 -0.8494  0.0984
  652MOL0     H88016   1.963   5.523   3.872  1.3523 -4.5535  4.9297
  652MOL0     H88017   2.719   5.396   3.746 -2.8463 -4.3952 -3.0891
  652MOL0     H88018   3.030   5.362   3.759  0.3751 -0.3737  0.9352
  652MOL0     H88019   3.039   5.531   3.811  2.8506 -3.6994  2.1678
  652MOL0     H88020   2.916   5.433   3.866 -0.5979 -1.2619 -0.7965
  653MOL0     O88021   3.111   0.658   2.779  0.7621 -0.3059 -0.3445
  653MOL0     C88022   3.191   0.715   2.852 -0.3345 -0.3887  0.3223
  653MOL0     O88023   3.323   0.685   2.880 -0.4825  0.5020 -0.2101
  653MOL0     C88024   3.375   0.557   2.856  0.1371 -0.7630  0.6496
  653MOL0     C88025   3.299   0.442   2.827 -0.1790 -0.4995 -0.1126
  653MOL0     C88026   3.369   0.318   2.812 -1.0126 -0.4985  0.2000
  653MOL0     C88027   3.512   0.307   2.795 -0.7298  0.3229  0.7489
  653MOL0     O88028   3.588   0.192   2.788 -0.0884 -0.7760  0.1306
  653MOL0     C88029   3.522   0.070   2.797 -0.3557  0.1484  0.6954
  653MOL0     C88030   3.629  -0.048   2.785  0.5243 -0.1972 -0.2196
  653MOL0     C88031   3.572  -0.187   2.809 -0.6563 -0.8017 -0.3768
  653MOL0     C88032   3.689  -0.292   2.814 -0.0801 -0.0310 -0.6359
  653MOL0     C88033   3.655  -0.416   2.889 -0.2135 -0.8325  0.2878
  653MOL0     C88034   3.776  -0.504   2.900 -0.2427 -0.0556 -0.4444
  653MOL0     C88035   3.750  -0.652   2.954 -0.5162 -0.0417  0.0784
  653MOL0     C88036   3.809  -0.755   2.860 -0.5676 -0.3472  0.3450
  653MOL0     N88037   3.964  -0.755   2.853 -0.1586  0.1975  0.4942
  653MOL0     C88038   4.051  -0.799   2.950 -0.0225  0.5243  0.5301
  653MOL0     C88039   4.172  -0.778   2.909  0.1799 -0.8224  0.3575
  653MOL0     C88040   4.293  -0.821   2.979  0.7677  0.9109 -0.0947
  653MOL0     C88041   4.319  -0.974   2.955  0.1509 -0.4979 -0.7923
  653MOL0     C88042   4.456  -1.012   2.994  0.5782 -0.4578 -0.1891
  653MOL0     C88043   4.514  -1.094   2.884  0.2344 -0.6576  1.2834
  653MOL0     O88044   4.633  -1.165   2.926 -1.1099 -0.2447  0.7735
  653MOL0     C88045   4.759  -1.112   2.900 -0.8939 -0.4404 -0.7148
  653MOL0     C88046   4.791  -1.044   2.787 -0.9315 -1.0896  0.3455
  653MOL0     C88047   4.921  -0.986   2.780  0.8256  1.4064  1.1386
  653MOL0     C88048   5.022  -0.999   2.874 -0.6093  0.5265  0.4132
  653MOL0     C88049   5.160  -0.940   2.853  0.4271 -0.1883 -0.6212
  653MOL0     O88050   5.167  -0.818   2.794  0.4378 -0.1451 -0.0046
  653MOL0     C88051   5.287  -0.769   2.751  0.0266 -0.2143 -0.7438
  653MOL0     C88052   5.417  -0.785   2.803 -0.4026  0.8455 -0.1032
  653MOL0     C88053   5.523  -0.716   2.757 -0.2453  0.3873  0.9718
  653MOL0     C88054   5.513  -0.638   2.644  0.1960 -0.3611  0.0871
  653MOL0     O88055   5.619  -0.576   2.582  0.0273 -0.4543  0.4796
  653MOL0     C88056   5.752  -0.627   2.578  0.3582  0.3501  0.3208
  653MOL0     C88057   5.843  -0.575   2.688 -0.1096 -0.6393 -0.7497
  653MOL0     C88058   5.870  -0.430   2.685  0.1948 -0.0622 -0.1202
  653MOL0     C88059   5.915  -0.382   2.546  0.6728 -0.3884  0.0429
  653MOL0     C88060   5.982  -0.249   2.551  0.3946 -0.2126 -0.4777
  653MOL0     C88061   6.130  -0.270   2.604  0.3386  0.0330 -0.2749
  653MOL0     C88062   6.219  -0.144   2.593 -0.5739 -0.5794  0.3108
  653MOL0     C88063   6.206  -0.059   2.464 -0.0462  0.0230  0.0952
  653MOL0    Cl88064   6.345   0.065   2.484  1.0244 -0.0267 -0.3472
  653MOL0     C88065   5.385  -0.619   2.594 -0.7513  0.5085 -0.2825
  653MOL0     C88066   5.279  -0.679   2.646  0.9203 -0.3847  0.1679
  653MOL0     O88067   5.258  -1.006   2.889  0.1631 -0.4696 -0.1425
  653MOL0     C88068   5.002  -1.099   2.973 -0.3813 -0.4957  1.0299
  653MOL0     C88069   4.866  -1.142   2.983 -0.3959  0.5662 -1.0421
  653MOL0     N88070   4.154  -0.706   2.788 -0.3695  0.3681  0.0642
  653MOL0     N88071   4.035  -0.702   2.750 -0.4734 -0.4521  0.1735
  653MOL0     C88072   3.574   0.425   2.797  0.7891 -0.1709  0.0328
  653MOL0     C88073   3.510   0.545   2.829 -0.1103  0.4273 -0.1600
  653MOL0     C88074   3.137   0.823   2.938 -0.3921  0.3130  0.9452
  653MOL0     C88075   3.167   0.817   3.073  0.1320 -1.2436 -0.4091
  653MOL0     C88076   3.123   0.909   3.161 -0.2860 -0.2833  0.5990
  653MOL0     C88077   3.034   1.009   3.118  0.2618 -0.0623 -0.1700
  653MOL0     O88078   2.972   1.096   3.204 -0.1289  0.6894 -0.0272
  653MOL0     C88079   3.023   1.103   3.339  1.4669 -1.6168 -0.7326
  653MOL0     C88080   2.934   1.210   3.412 -0.3699  1.0308 -0.1739
  653MOL0     C88081   2.797   1.148   3.457 -0.4472  0.3697  0.3490
  653MOL0     C88082   2.805   1.069   3.586  0.6603  0.0459 -0.1281
  653MOL0     C88083   2.666   1.073   3.648 -1.0422  0.1101 -0.3473
  653MOL0     C88084   2.554   1.084   3.694  0.0773  0.0875 -0.3797
  653MOL0     C88085   3.004   1.010   2.985  0.2751  0.3455 -0.2387
  653MOL0     C88086   3.058   0.924   2.892  0.2789  0.0665  0.1375
  653MOL0     C88087   3.011   0.930   2.744  0.7654 -0.5906  0.0297
  653MOL0     H88088   3.191   0.431   2.819 -0.2173  0.5018 -1.2639
  653MOL0     H88089   3.299   0.235   2.818 -3.3688  1.3577 -0.5102
  653MOL0     H88090   3.459   0.064   2.886 -2.2303 -1.4085 -0.6338
  653MOL0     H88091   3.450   0.071   2.714  0.1387  2.6384  0.2305
  653MOL0     H88092   3.715  -0.027   2.850  1.7423 -0.6238 -1.6391
  653MOL0     H88093   3.671  -0.045   2.684  2.3941 -0.8317  0.4968
  653MOL0     H88094   3.499  -0.218   2.734 -2.1759  0.4080  0.5470
  653MOL0     H88095   3.524  -0.186   2.907  2.8033 -0.4742  1.4895
  653MOL0     H88096   3.702  -0.322   2.709 -0.0016  0.0904 -0.6605
  653MOL0     H88097   3.782  -0.245   2.846 -1.4371  2.6110 -0.3424
  653MOL0     H88098   3.624  -0.390   2.991  0.3246  2.9368 -0.3561
  653MOL0     H88099   3.577  -0.466   2.831  1.7901 -1.2230 -2.2369
  653MOL0     H88100   3.813  -0.512   2.797 -0.1807  2.3310 -0.6644
  653MOL0     H88101   3.855  -0.460   2.961  0.9685 -2.1326 -0.4241
  653MOL0     H88102   3.643  -0.670   2.967 -0.5765 -0.7535 -1.2533
  653MOL0     H88103   3.799  -0.659   3.051 -2.0315 -1.0985  0.8013
  653MOL0     H88104   3.774  -0.857   2.880 -3.1598  0.4874  0.3770
  653MOL0     H88105   3.783  -0.732   2.757 -0.4992 -0.6112  0.2683
  653MOL0     H88106   4.034  -0.854   3.042  0.1225 -0.0445  0.2240
  653MOL0     H88107   4.377  -0.766   2.935 -0.4411  1.4960 -1.7727
  653MOL0     H88108   4.283  -0.797   3.085 -0.7951  0.9189 -0.2186
  653MOL0     H88109   4.255  -1.028   3.025 -0.1307  1.1022  0.2466
  653MOL0     H88110   4.293  -1.003   2.853  0.9581 -3.2675 -0.2933
  653MOL0     H88111   4.453  -1.064   3.090  0.4179  0.8019  0.5127
  653MOL0     H88112   4.514  -0.919   3.005 -2.3532  1.5344 -0.3255
  653MOL0     H88113   4.533  -1.021   2.804 -3.1438 -1.3082 -0.2991
  653MOL0     H88114   4.441  -1.165   2.844 -0.2803  1.2556 -1.4658
  653MOL0     H88115   4.721  -1.030   2.706  0.2523  3.3540 -0.2088
  653MOL0     H88116   4.929  -0.930   2.687 -0.5091  2.0487  1.3855
  653MOL0     H88117   5.428  -0.835   2.899 -2.2268  2.1536  0.8417
  653MOL0     H88118   5.620  -0.727   2.805  0.6639  0.3228 -0.7699
  653MOL0     H88119   5.754  -0.736   2.586 -3.0748  0.3050  3.6368
  653MOL0     H88120   5.802  -0.600   2.484 -1.6856  0.8303 -0.6743
  653MOL0     H88121   5.811  -0.596   2.790  0.4157  2.0207  0.0515
  653MOL0     H88122   5.941  -0.621   2.675  0.8465  1.2129 -0.4713
  653MOL0     H88123   5.782  -0.371   2.710 -0.8251 -0.7603 -1.8300
  653MOL0     H88124   5.955  -0.417   2.752  1.9903  0.3397 -2.3715
  653MOL0     H88125   5.826  -0.362   2.484  1.4549  0.6940 -0.7666
  653MOL0     H88126   5.977  -0.459   2.500 -0.3395 -1.5764  0.5996
  653MOL0     H88127   5.937  -0.172   2.615  0.8416  0.4075 -0.8868
  653MOL0     H88128   5.977  -0.203   2.452  1.7716  0.1421 -0.4048
  653MOL0     H88129   6.138  -0.309   2.706 -0.0585 -1.5359 -0.8212
  653MOL0     H88130   6.177  -0.344   2.539  1.5558 -0.6375  1.3207
  653MOL0     H88131   6.321  -0.182   2.599 -0.5933 -0.8592 -0.8249
  653MOL0     H88132   6.187  -0.084   2.679 -2.4411 -0.5911 -0.3219
  653MOL0     H88133   6.205  -0.113   2.370 -1.8284 -1.1435  0.7289
  653MOL0     H88134   6.116   0.003   2.452  1.7548  2.4747 -1.7337
  653MOL0     H88135   5.373  -0.549   2.512  0.7118  2.2017  0.8787
  653MOL0     H88136   5.187  -0.659   2.594  1.0402 -1.2234 -0.3957
  653MOL0     H88137   5.076  -1.131   3.046  0.7513  2.9313  1.5975
  653MOL0     H88138   4.845  -1.200   3.073  1.5279  2.2455  0.5877
  653MOL0     H88139   3.682   0.435   2.788  0.5433  0.7317 -2.6909
  653MOL0     H88140   3.573   0.633   2.827 -1.8258  1.7337  0.4814
  653MOL0     H88141   3.234   0.737   3.102  0.5119 -1.7406 -2.4848
  653MOL0     H88142   3.155   0.900   3.265 -2.0910 -4.8216  0.9719
  653MOL0     H88143   3.122   1.149   3.344  1.2249 -0.8002 -2.5621
  653MOL0     H88144   3.027   1.000   3.376  4.3092 -2.8147 -3.8436
  653MOL0     H88145   2.909   1.293   3.346 -3.0664  1.1077  0.8510
  653MOL0     H88146   2.989   1.242   3.501 -1.7421 -0.4892  1.3003
  653MOL0     H88147   2.751   1.082   3.382  0.6308 -0.3027  0.2623
  653MOL0     H88148   2.741   1.241   3.466 -1.1350 -0.0387  0.3946
  653MOL0     H88149   2.838   0.967   3.566 -1.2668 -0.7341  0.4268
  653MOL0     H88150   2.867   1.126   3.656 -1.0303 -0.1934  1.6371
  653MOL0     H88151   2.464   1.114   3.744 -0.4114 -1.3774 -0.3393
  653MOL0     H88152   2.928   1.083   2.960 -0.8865 -0.8401 -0.2799
  653MOL0     H88153   2.968   1.025   2.711  2.9057 -0.1729 -1.8441
  653MOL0     H88154   3.086   0.906   2.668 -0.9282  0.4063 -2.0609
  653MOL0     H88155   2.937   0.851   2.732 -0.0641  0.6232 -4.8343
  654MOL0     O88156  10.611   2.145   4.932  0.4797  0.4140 -0.2273
  654MOL0     C88157  10.694   2.090   4.858 -0.0584  0.0806 -0.6285
  654MOL0     O88158  10.674   2.071   4.718  0.2826  0.0404 -0.5196
  654MOL0     C88159  10.550   2.091   4.660 -0.3300 -0.3891  0.3684
  654MOL0     C88160  10.547   2.153   4.538 -0.5469  0.0744  0.5270
  654MOL0     C88161  10.427   2.175   4.470  0.3077 -0.0258  0.7459
  654MOL0     C88162  10.306   2.133   4.525 -0.1531 -0.1963 -0.0490
  654MOL0     O88163  10.182   2.170   4.473 -1.3557 -0.3110  0.2688
  654MOL0     C88164  10.179   2.295   4.403  0.7762  0.1880  0.2888
  654MOL0     C88165  10.186   2.417   4.493 -0.0950 -0.2528  0.5027
  654MOL0     C88166  10.084   2.428   4.613 -0.8207 -1.0179  0.0712
  654MOL0     C88167   9.953   2.481   4.551 -0.4864  0.2626  0.5729
  654MOL0     C88168   9.850   2.490   4.659 -0.3179 -0.3334 -0.1773
  654MOL0     C88169   9.727   2.542   4.583  0.1253 -0.5994  0.6631
  654MOL0     C88170   9.614   2.549   4.690  0.5572 -0.0679  0.3851
  654MOL0     C88171   9.481   2.505   4.629  0.3209 -0.7658  0.2584
  654MOL0     N88172   9.374   2.487   4.726 -0.2336 -0.5172  0.1241
  654MOL0     C88173   9.315   2.371   4.753 -0.3000 -0.3385  0.2803
  654MOL0     C88174   9.194   2.403   4.808 -0.3621 -0.1967  1.4126
  654MOL0     C88175   9.088   2.313   4.865 -0.0820  0.4117 -0.4221
  654MOL0     C88176   9.070   2.330   5.015 -0.3595  0.2797 -1.0228
  654MOL0     C88177   9.165   2.232   5.089 -0.4498  0.0354 -0.0087
  654MOL0     C88178   9.173   2.277   5.235 -0.3894  0.7962 -0.3961
  654MOL0     O88179   9.269   2.180   5.291  0.2407  0.5548 -0.4591
  654MOL0     C88180   9.302   2.196   5.425 -0.1106  0.0870  0.5093
  654MOL0     C88181   9.234   2.274   5.515 -0.1240  0.8117  0.4821
  654MOL0     C88182   9.272   2.283   5.653  0.5920 -0.3798  0.2356
  654MOL0     C88183   9.382   2.218   5.703 -0.7301  0.1486 -0.2947
  654MOL0     C88184   9.450   2.246   5.830 -0.6184  0.1420  0.2897
  654MOL0     O88185   9.427   2.360   5.896  0.2033  0.5172 -0.0726
  654MOL0     C88186   9.493   2.379   6.010 -0.5599  0.2002  0.1796
  654MOL0     C88187   9.444   2.332   6.127  0.2381 -1.0010  0.1232
  654MOL0     C88188   9.509   2.352   6.244  0.3302  0.1736  0.4295
  654MOL0     C88189   9.628   2.412   6.246  0.6111  0.5118  0.8152
  654MOL0     O88190   9.691   2.447   6.360 -0.1552 -0.0509  0.0335
  654MOL0     C88191   9.720   2.574   6.404  0.2693 -0.0700 -0.0246
  654MOL0     C88192   9.764   2.555   6.556  0.2798 -0.2595  0.9149
  654MOL0     C88193   9.778   2.693   6.634 -0.5129  0.2487  0.2582
  654MOL0     C88194   9.874   2.794   6.564  0.3646 -0.1973  0.2153
  654MOL0     C88195   9.867   2.938   6.626 -0.2400 -0.0660 -0.3139
  654MOL0     C88196   9.948   3.045   6.548 -0.2029  0.3359  0.1327
  654MOL0     C88197   9.917   3.183   6.616 -0.1531 -0.6601  0.7576
  654MOL0     C88198   9.994   3.301   6.551 -0.0955  0.2442 -0.1296
  654MOL0    Cl88199   9.956   3.452   6.633 -0.0361 -0.1209 -0.1237
  654MOL0     C88200   9.680   2.459   6.129  0.5910 -1.2730  0.1332
  654MOL0     C88201   9.616   2.444   6.007 -0.7983  0.9214 -0.1437
  654MOL0     O88202   9.527   2.163   5.864  0.4029  0.5936  0.0471
  654MOL0     C88203   9.458   2.141   5.611 -0.8520 -0.2226  0.7381
  654MOL0     C88204   9.418   2.129   5.470 -0.3020 -0.1317 -0.3675
  654MOL0     N88205   9.195   2.545   4.822 -0.0950  0.1942  0.3359
  654MOL0     N88206   9.308   2.591   4.778  0.9891  0.4758  0.0814
  654MOL0     C88207  10.311   2.070   4.656  0.4304  0.3699 -0.3659
  654MOL0     C88208  10.432   2.052   4.722  0.1445  0.2613 -0.4074
  654MOL0     C88209  10.813   2.032   4.916  0.0303 -0.3107  0.2758
  654MOL0     C88210  10.906   1.978   4.826  0.6363  0.1610  0.1811
  654MOL0     C88211  11.023   1.914   4.870  0.0018  0.3917 -0.1564
  654MOL0     C88212  11.051   1.914   5.009  0.0328  1.2976  0.5206
  654MOL0     O88213  11.158   1.863   5.083  0.3913  0.3303  0.6956
  654MOL0     C88214  11.273   1.824   5.018 -0.4405  0.9951  0.5146
  654MOL0     C88215  11.399   1.900   5.076 -0.1887 -0.0373 -0.2665
  654MOL0     C88216  11.427   1.887   5.234  0.8499 -0.6442  0.2654
  654MOL0     C88217  11.439   1.740   5.291  0.1100  0.7771 -0.6516
  654MOL0     C88218  11.557   1.665   5.234  0.5273  0.0852 -0.7406
  654MOL0     C88219  11.661   1.613   5.200 -0.0589  0.0031  0.0289
  654MOL0     C88220  10.955   1.962   5.102  0.2962  0.0741 -0.3699
  654MOL0     C88221  10.838   2.022   5.055  0.1946  0.0496 -0.5065
  654MOL0     C88222  10.735   2.071   5.156 -0.4706 -0.8279 -0.2177
  654MOL0     H88223  10.638   2.181   4.486 -1.2801  0.7098 -0.4218
  654MOL0     H88224  10.435   2.228   4.375  0.7997 -1.6079 -0.1472
  654MOL0     H88225  10.250   2.292   4.320 -0.0523  2.3149 -0.5745
  654MOL0     H88226  10.079   2.291   4.358  0.4785  1.7422  0.7258
  654MOL0     H88227  10.173   2.500   4.423  0.1697 -0.4093  0.2647
  654MOL0     H88228  10.291   2.416   4.523  0.4090 -2.3219 -1.1294
  654MOL0     H88229  10.116   2.491   4.697  2.4873 -1.7956 -0.4366
  654MOL0     H88230  10.060   2.332   4.659 -0.7694  0.3841  3.2738
  654MOL0     H88231   9.969   2.585   4.519 -1.3233  0.8152  1.8620
  654MOL0     H88232   9.921   2.417   4.468  0.1202 -0.0844  0.6029
  654MOL0     H88233   9.826   2.395   4.707 -3.4934  0.1766 -0.5854
  654MOL0     H88234   9.884   2.559   4.737 -1.4293  0.2539 -0.2026
  654MOL0     H88235   9.748   2.644   4.549  2.3284  0.0193  3.4661
  654MOL0     H88236   9.695   2.493   4.491  1.4922 -0.5241  0.1292
  654MOL0     H88237   9.611   2.650   4.733 -1.5723 -1.0649  2.7705
  654MOL0     H88238   9.633   2.484   4.775 -0.6115  1.9020  2.2566
  654MOL0     H88239   9.468   2.586   4.557 -1.0368 -1.8539 -0.7700
  654MOL0     H88240   9.489   2.411   4.574 -0.9897 -1.1520  0.6881
  654MOL0     H88241   9.343   2.268   4.732  1.3332  0.4530 -1.7135
  654MOL0     H88242   8.994   2.337   4.815 -0.7499 -1.0136  0.1052
  654MOL0     H88243   9.127   2.213   4.846  1.4021  0.6043  1.3137
  654MOL0     H88244   9.087   2.431   5.053  1.0036 -0.4562  0.5016
  654MOL0     H88245   8.971   2.301   5.051  0.3734 -0.4864  0.5262
  654MOL0     H88246   9.268   2.228   5.053 -0.6466 -0.7425 -0.5140
  654MOL0     H88247   9.130   2.129   5.077  0.6083 -0.6055  1.9625
  654MOL0     H88248   9.076   2.280   5.285 -0.2312 -0.6627  0.0475
  654MOL0     H88249   9.212   2.379   5.239 -0.6829  0.9965 -1.9670
  654MOL0     H88250   9.141   2.319   5.483 -1.5082  0.3425  3.4679
  654MOL0     H88251   9.210   2.349   5.713 -2.1976 -0.1528 -2.6188
  654MOL0     H88252   9.352   2.277   6.112 -1.0100  0.7281  1.0621
  654MOL0     H88253   9.464   2.313   6.335 -1.9732 -0.2204 -0.7978
  654MOL0     H88254   9.788   2.624   6.335  0.6438  0.2772  0.5896
  654MOL0     H88255   9.627   2.632   6.398 -1.0924 -2.2853 -1.6453
  654MOL0     H88256   9.712   2.476   6.611  1.9117 -1.9332  0.1466
  654MOL0     H88257   9.862   2.507   6.551  0.3208 -0.1516 -4.0605
  654MOL0     H88258   9.680   2.737   6.652 -0.2715  0.3426  1.4501
  654MOL0     H88259   9.819   2.671   6.733  2.5514 -1.4732 -1.2519
  654MOL0     H88260   9.850   2.798   6.457  0.6273 -3.2436 -0.0537
  654MOL0     H88261   9.976   2.753   6.557  1.7268  2.9273 -0.0266
  654MOL0     H88262   9.896   2.938   6.731 -0.7503  1.2493 -0.1543
  654MOL0     H88263   9.762   2.969   6.634 -0.0767  0.7354 -1.0587
  654MOL0     H88264  10.054   3.021   6.546 -0.2553  0.1007 -0.8458
  654MOL0     H88265   9.923   3.051   6.441 -1.6276 -0.7343  0.3728
  654MOL0     H88266   9.948   3.169   6.720 -1.8727  0.9794  1.5433
  654MOL0     H88267   9.809   3.199   6.618 -0.1448 -0.4624 -0.0296
  654MOL0     H88268  10.102   3.292   6.558 -0.0020  1.8165  1.1727
  654MOL0     H88269   9.968   3.312   6.445 -2.1687  0.8726  0.3880
  654MOL0     H88270   9.774   2.515   6.133  0.2223 -0.6067 -0.2859
  654MOL0     H88271   9.653   2.493   5.917 -0.5183  0.8289 -0.0830
  654MOL0     H88272   9.552   2.095   5.640 -0.4689  0.6681  0.9566
  654MOL0     H88273   9.475   2.065   5.403  0.9978  1.7421 -1.1334
  654MOL0     H88274  10.231   2.030   4.716  2.4083 -1.3553  1.2866
  654MOL0     H88275  10.431   2.006   4.820 -2.3076 -2.6125 -1.6483
  654MOL0     H88276  10.886   1.974   4.719  2.4971  0.1560 -0.2058
  654MOL0     H88277  11.080   1.854   4.799  1.7085  0.7746  0.8543
  654MOL0     H88278  11.266   1.841   4.911 -0.6401  1.1117  0.5460
  654MOL0     H88279  11.278   1.715   5.030 -3.4250  0.3422 -2.6034
  654MOL0     H88280  11.380   2.002   5.043  0.3612 -0.2654 -1.3527
  654MOL0     H88281  11.479   1.844   5.025 -0.3843 -2.5868  2.0251
  654MOL0     H88282  11.347   1.939   5.287  0.2052 -0.7276 -0.5986
  654MOL0     H88283  11.518   1.942   5.262  1.5205 -0.1586 -2.5616
  654MOL0     H88284  11.455   1.733   5.399  0.0954 -5.9058 -0.6759
  654MOL0     H88285  11.341   1.692   5.279  0.0971 -0.0363  1.9240
  654MOL0     H88286  11.751   1.565   5.169  0.0952 -0.0477  0.5413
  654MOL0     H88287  10.961   1.963   5.210  2.0386  3.6100 -0.3728
  654MOL0     H88288  10.698   2.171   5.133  0.4418 -0.0857  1.3612
  654MOL0     H88289  10.652   2.002   5.171  0.2154 -1.4315  1.0661
  654MOL0     H88290  10.774   2.089   5.257  0.8670  1.1615 -1.0290
  655MOL0     O88291   6.542   4.155   2.557 -0.4611  0.3903 -0.2765
  655MOL0     C88292   6.529   4.038   2.519 -0.1477 -0.4768  0.1909
  655MOL0     O88293   6.631   3.944   2.497 -0.4685  0.1669 -0.7469
  655MOL0     C88294   6.764   3.993   2.486  0.0128  0.9796 -0.0248
  655MOL0     C88295   6.827   3.987   2.367 -0.0169 -0.1777 -0.2218
  655MOL0     C88296   6.966   4.030   2.358  0.0371 -1.0066 -0.2249
  655MOL0     C88297   7.039   4.075   2.474 -0.4253  0.1616 -1.0825
  655MOL0     O88298   7.171   4.105   2.486 -0.4593 -0.1144  0.3655
  655MOL0     C88299   7.222   4.160   2.362 -0.2383 -0.6251 -0.4790
  655MOL0     C88300   7.372   4.186   2.378 -0.6292  0.4280 -0.1370
  655MOL0     C88301   7.415   4.306   2.463 -0.2458  0.8128 -0.6133
  655MOL0     C88302   7.567   4.310   2.488  0.2535 -0.4079 -0.2016
  655MOL0     C88303   7.588   4.437   2.570  0.5344 -0.6470  0.2237
  655MOL0     C88304   7.732   4.465   2.616 -0.8141  0.4334 -0.1593
  655MOL0     C88305   7.853   4.460   2.512 -0.4023  0.4497  0.5374
  655MOL0     C88306   7.930   4.597   2.503  0.0749 -0.8641 -0.2411
  655MOL0     N88307   8.042   4.617   2.601 -1.2698 -0.2744 -0.2067
  655MOL0     C88308   8.063   4.560   2.725 -0.0474  0.4603  0.3064
  655MOL0     C88309   8.184   4.612   2.759 -0.3662  0.2319 -0.5446
  655MOL0     C88310   8.268   4.583   2.880  0.6224 -0.4648  0.2945
  655MOL0     C88311   8.240   4.446   2.932 -0.6659 -0.3593 -0.7154
  655MOL0     C88312   8.317   4.337   2.852  0.2090  0.1633 -0.3268
  655MOL0     C88313   8.468   4.340   2.861 -0.3800  0.4903 -0.3290
  655MOL0     O88314   8.506   4.205   2.844  0.1374 -0.3549  0.3557
  655MOL0     C88315   8.635   4.165   2.831  1.1782 -0.0032 -0.4262
  655MOL0     C88316   8.655   4.034   2.817  0.1129  0.4345 -0.2829
  655MOL0     C88317   8.782   3.977   2.804  0.3236 -0.1282  0.6372
  655MOL0     C88318   8.897   4.063   2.815 -0.0201 -0.1976 -0.2479
  655MOL0     C88319   9.029   4.002   2.797 -0.0772  0.2779  0.1528
  655MOL0     O88320   9.047   3.905   2.701 -0.3935  0.0086 -0.1794
  655MOL0     C88321   9.171   3.850   2.684  0.7889  0.3938  1.3021
  655MOL0     C88322   9.259   3.910   2.595  0.0518  0.4124 -0.3548
  655MOL0     C88323   9.389   3.858   2.575  0.8501  0.4359 -0.2978
  655MOL0     C88324   9.430   3.737   2.638 -0.0040  0.1464  0.0335
  655MOL0     O88325   9.554   3.685   2.618  0.4542 -0.7924 -0.4427
  655MOL0     C88326   9.593   3.560   2.671 -0.3511  0.3884  0.0639
  655MOL0     C88327   9.732   3.534   2.638  0.2952  0.1630  0.5272
  655MOL0     C88328   9.773   3.382   2.630 -0.2066  0.6280 -0.1159
  655MOL0     C88329   9.816   3.315   2.757 -0.4303  0.4524 -1.3403
  655MOL0     C88330   9.866   3.174   2.719  0.6319 -0.5813 -0.5144
  655MOL0     C88331   9.936   3.102   2.834 -0.2701  0.4119  0.0052
  655MOL0     C88332  10.027   2.979   2.776 -1.3372  0.1677  0.2926
  655MOL0     C88333   9.959   2.864   2.695  0.1492  0.3427  0.4792
  655MOL0    Cl88334   9.966   2.911   2.528  0.0367  0.4784  0.6276
  655MOL0     C88335   9.332   3.679   2.723  0.1827  0.3962 -0.0178
  655MOL0     C88336   9.211   3.731   2.751  0.4529 -1.3270 -0.4458
  655MOL0     O88337   9.119   4.060   2.862  0.3759 -0.3194 -0.1581
  655MOL0     C88338   8.880   4.201   2.841  0.2855  0.4916 -0.2487
  655MOL0     C88339   8.750   4.253   2.843  0.8311  1.2900 -0.5217
  655MOL0     N88340   8.221   4.704   2.662  0.1815  0.7671 -0.0872
  655MOL0     N88341   8.134   4.713   2.569 -0.2979 -0.1247 -0.0846
  655MOL0     C88342   6.968   4.076   2.600  0.3256 -0.2881  0.7220
  655MOL0     C88343   6.827   4.043   2.587 -0.7309  0.9322 -0.6488
  655MOL0     C88344   6.381   3.994   2.504 -0.4329  0.4087  0.0267
  655MOL0     C88345   6.358   3.853   2.505  0.0488 -1.0378 -0.6536
  655MOL0     C88346   6.227   3.814   2.486 -0.5173  0.0323  0.2704
  655MOL0     C88347   6.121   3.899   2.458  0.2458 -0.2820 -0.2966
  655MOL0     O88348   6.006   3.834   2.430  0.7383 -0.1653 -0.0641
  655MOL0     C88349   5.899   3.906   2.357 -0.1800 -0.3712 -0.3620
  655MOL0     C88350   5.787   3.967   2.436 -0.1505 -0.7625 -0.2499
  655MOL0     C88351   5.686   4.032   2.337 -0.1677  0.2341  0.2914
  655MOL0     C88352   5.551   4.040   2.413 -0.0604  0.3180  0.8320
  655MOL0     C88353   5.463   3.918   2.403 -0.2363  0.2006 -1.4360
  655MOL0     C88354   5.380   3.829   2.396  0.9560 -0.1738  0.4123
  655MOL0     C88355   6.144   4.033   2.458 -0.1995  0.3476  0.5759
  655MOL0     C88356   6.278   4.085   2.482  0.4856  0.1342  0.7182
  655MOL0     C88357   6.291   4.237   2.470  0.0469  0.0426 -0.4964
  655MOL0     H88358   6.767   3.961   2.280  1.1961 -1.9506 -0.5813
  655MOL0     H88359   6.998   4.023   2.254 -2.1723 -1.6380 -0.9247
  655MOL0     H88360   7.211   4.094   2.275  1.7639 -3.0380  0.9632
  655MOL0     H88361   7.175   4.256   2.339  0.8039  0.1874  0.6878
  655MOL0     H88362   7.415   4.200   2.279 -2.0883  0.9705 -0.7131
  655MOL0     H88363   7.408   4.089   2.415  1.0487  0.7548 -0.8476
  655MOL0     H88364   7.366   4.283   2.558 -2.1046 -1.9988 -2.1177
  655MOL0     H88365   7.375   4.400   2.422 -0.3529  0.3541 -1.5818
  655MOL0     H88366   7.589   4.218   2.544 -1.7044 -0.7435  0.0897
  655MOL0     H88367   7.624   4.310   2.395  1.5462 -1.0964  0.5461
  655MOL0     H88368   7.566   4.525   2.509  1.4506 -1.2717 -1.0369
  655MOL0     H88369   7.520   4.442   2.656  0.0917 -0.1183 -0.1573
  655MOL0     H88370   7.724   4.571   2.645 -4.1070  0.5083 -0.8814
  655MOL0     H88371   7.757   4.401   2.702  0.4272 -0.5751 -1.2400
  655MOL0     H88372   7.815   4.443   2.410 -1.3555  3.3713  0.3058
  655MOL0     H88373   7.925   4.381   2.535  0.2037  0.7088 -0.3997
  655MOL0     H88374   7.976   4.593   2.404 -0.8832 -0.6648 -0.6995
  655MOL0     H88375   7.865   4.685   2.500 -0.5176 -1.2709  0.3981
  655MOL0     H88376   8.010   4.486   2.784  2.2414  2.0571  4.8488
  655MOL0     H88377   8.376   4.581   2.861  0.6478 -0.7838  0.4643
  655MOL0     H88378   8.230   4.660   2.948  0.4893  0.5633 -0.9030
  655MOL0     H88379   8.255   4.441   3.040 -0.3452  1.8598 -0.6164
  655MOL0     H88380   8.133   4.430   2.919 -1.1122  2.0405 -0.4204
  655MOL0     H88381   8.296   4.353   2.745 -0.2055  2.2523  0.0112
  655MOL0     H88382   8.274   4.246   2.894 -3.2534  1.4508 -0.7860
  655MOL0     H88383   8.497   4.375   2.961 -2.5303  0.8061  0.2367
  655MOL0     H88384   8.513   4.403   2.784  0.0129  1.8543  0.9597
  655MOL0     H88385   8.566   3.973   2.827  0.0318  0.6558  0.4015
  655MOL0     H88386   8.787   3.869   2.808 -3.8424 -0.5668 -1.1176
  655MOL0     H88387   9.227   4.003   2.547 -2.3787  0.8911  1.9633
  655MOL0     H88388   9.461   3.913   2.515 -0.8941  2.3230 -0.8169
  655MOL0     H88389   9.602   3.568   2.780  1.7483  0.6010 -0.0905
  655MOL0     H88390   9.532   3.480   2.626 -0.5618  1.3071 -1.3407
  655MOL0     H88391   9.736   3.566   2.534  0.5547 -1.0958  0.1285
  655MOL0     H88392   9.797   3.591   2.705  0.0515 -0.3272  1.2009
  655MOL0     H88393   9.686   3.324   2.597  0.2055 -0.2480  0.3096
  655MOL0     H88394   9.849   3.367   2.554 -0.3053  1.4064 -0.3684
  655MOL0     H88395   9.741   3.301   2.835  0.5243 -3.5808 -0.9245
  655MOL0     H88396   9.899   3.371   2.801 -3.1496  2.7935  1.3003
  655MOL0     H88397   9.939   3.172   2.638  0.4611 -0.2637 -0.6755
  655MOL0     H88398   9.780   3.117   2.684 -1.4255  0.9013  1.7991
  655MOL0     H88399   9.999   3.168   2.895  0.7662 -0.0444 -0.5444
  655MOL0     H88400   9.860   3.055   2.897 -1.0500 -0.0777 -1.2781
  655MOL0     H88401  10.070   2.932   2.865 -2.9067  1.7029  1.9565
  655MOL0     H88402  10.112   3.023   2.723  0.3716 -4.0077 -0.7825
  655MOL0     H88403  10.018   2.775   2.719 -0.8602 -0.1521  1.1869
  655MOL0     H88404   9.860   2.839   2.732  0.7297  0.1213  1.9921
  655MOL0     H88405   9.353   3.590   2.781 -0.0876  1.5311  1.8887
  655MOL0     H88406   9.141   3.691   2.825  1.4870 -1.6268  0.3908
  655MOL0     H88407   8.966   4.266   2.829  0.2088  0.3120 -2.0427
  655MOL0     H88408   8.742   4.361   2.853 -1.5553  1.2001 -0.9141
  655MOL0     H88409   7.003   4.118   2.694 -0.8770 -0.4014  1.2383
  655MOL0     H88410   6.767   4.050   2.678  0.2160 -1.3676  0.2243
  655MOL0     H88411   6.439   3.782   2.516  3.1264  2.3505  0.7039
  655MOL0     H88412   6.203   3.708   2.481 -0.7404  0.0643  0.6159
  655MOL0     H88413   5.853   3.825   2.299 -0.2614 -0.0281 -0.7846
  655MOL0     H88414   5.926   3.988   2.289 -0.4545 -1.4371 -1.7935
  655MOL0     H88415   5.818   4.044   2.507  0.7484 -1.5771  0.2652
  655MOL0     H88416   5.733   3.887   2.487 -1.6612  0.1005 -0.4533
  655MOL0     H88417   5.674   3.974   2.245 -0.0788  0.1132  0.3542
  655MOL0     H88418   5.737   4.121   2.300  2.4751  0.2767  3.5150
  655MOL0     H88419   5.555   4.053   2.521 -1.5784  0.8425  0.8557
  655MOL0     H88420   5.491   4.120   2.367 -1.4947 -0.7595  0.7427
  655MOL0     H88421   5.305   3.752   2.388  1.5981 -0.6014 -3.3762
  655MOL0     H88422   6.056   4.096   2.450  0.2321  1.1597  1.9304
  655MOL0     H88423   6.361   4.258   2.388  0.7161  3.2479  0.7339
  655MOL0     H88424   6.194   4.283   2.450  0.2008  0.0733 -1.2051
  655MOL0     H88425   6.324   4.282   2.564  0.2127  1.7806 -1.3319
  656MOL0     O88426   7.136   4.376   1.479 -0.0352 -0.4712 -1.0768
  656MOL0     C88427   7.131   4.467   1.403  0.5508 -0.2111  0.0761
  656MOL0     O88428   7.242   4.532   1.335  0.5745 -0.2735 -0.8545
  656MOL0     C88429   7.359   4.467   1.321 -0.0907  0.3265 -0.2621
  656MOL0     C88430   7.415   4.456   1.195 -0.5037 -0.1960 -1.0349
  656MOL0     C88431   7.541   4.404   1.183 -0.3836 -0.2212  0.7798
  656MOL0     C88432   7.613   4.355   1.288 -1.3913 -0.4495  0.4056
  656MOL0     O88433   7.738   4.291   1.281  0.7831 -0.0136  1.0079
  656MOL0     C88434   7.836   4.361   1.194 -0.1356 -0.0130 -0.3431
  656MOL0     C88435   7.986   4.356   1.239 -0.4779 -0.4596  0.2588
  656MOL0     C88436   8.046   4.214   1.228 -0.0187  0.0411 -0.5311
  656MOL0     C88437   7.983   4.112   1.316  0.7052  0.3928 -0.1884
  656MOL0     C88438   7.969   4.160   1.460  0.3592  0.9866  0.0892
  656MOL0     C88439   7.874   4.062   1.534  0.9718  0.2889  0.4114
  656MOL0     C88440   7.878   4.090   1.686 -0.4222 -0.2015  0.1328
  656MOL0     C88441   7.768   4.024   1.772  0.4283  0.1367 -0.3590
  656MOL0     N88442   7.631   4.049   1.725 -1.1242  0.0017  0.3128
  656MOL0     C88443   7.558   3.968   1.638  0.0339  0.4625  0.4438
  656MOL0     C88444   7.448   4.040   1.609  0.0199  0.7708 -0.1416
  656MOL0     C88445   7.335   4.003   1.514 -0.1737  0.2222 -0.5890
  656MOL0     C88446   7.201   3.975   1.587 -0.7312 -0.5275 -0.4497
  656MOL0     C88447   7.088   3.925   1.485  0.5125 -0.3547 -0.0755
  656MOL0     C88448   6.957   3.981   1.543  0.9732  0.7736  0.4308
  656MOL0     O88449   6.831   3.950   1.483 -0.4573 -0.1301 -0.0598
  656MOL0     C88450   6.725   4.039   1.505 -0.7529  0.2241 -0.0941
  656MOL0     C88451   6.731   4.144   1.605  0.1682 -0.1002 -0.3265
  656MOL0     C88452   6.619   4.213   1.637 -0.8656 -0.5178 -0.4455
  656MOL0     C88453   6.493   4.182   1.584  0.2587  0.8964 -0.0413
  656MOL0     C88454   6.376   4.259   1.616 -0.2903 -0.4111 -0.3246
  656MOL0     O88455   6.265   4.190   1.638  0.6626 -0.1042 -0.1160
  656MOL0     C88456   6.138   4.245   1.646  0.0156  0.4590  1.2499
  656MOL0     C88457   6.116   4.374   1.706 -0.2234 -0.4641  0.0401
  656MOL0     C88458   5.986   4.428   1.696  0.5532 -0.3761  0.2483
  656MOL0     C88459   5.876   4.354   1.638 -0.5242 -0.5466 -0.8690
  656MOL0     O88460   5.748   4.416   1.643 -0.5472 -0.7246  0.3158
  656MOL0     C88461   5.649   4.371   1.550  0.7306 -0.6839 -0.0050
  656MOL0     C88462   5.695   4.423   1.409  1.0782  0.8564  0.2753
  656MOL0     C88463   5.572   4.457   1.318  0.0239  0.3813 -0.6447
  656MOL0     C88464   5.625   4.479   1.178  0.0052  0.6704 -0.9581
  656MOL0     C88465   5.501   4.488   1.083 -0.1214  0.9648  0.6582
  656MOL0     C88466   5.414   4.361   1.077 -0.4429  0.5323 -0.0355
  656MOL0     C88467   5.349   4.363   0.938  0.0694 -0.1300  0.7071
  656MOL0     C88468   5.235   4.267   0.933 -0.4765 -0.1732  0.4082
  656MOL0    Cl88469   5.096   4.323   1.026 -0.1392  0.6747  0.1273
  656MOL0     C88470   5.902   4.222   1.589  0.3665  0.8060  0.1988
  656MOL0     C88471   6.031   4.164   1.593  0.0131 -0.1710  0.0036
  656MOL0     O88472   6.396   4.382   1.631  0.6780  0.0303  0.6945
  656MOL0     C88473   6.485   4.093   1.473 -0.1246 -0.0313 -0.0080
  656MOL0     C88474   6.600   4.019   1.445 -0.3334  0.3840 -0.8396
  656MOL0     N88475   7.456   4.158   1.686  0.0871 -0.1134 -1.4227
  656MOL0     N88476   7.565   4.167   1.747 -0.3932 -0.0709 -0.4318
  656MOL0     C88477   7.562   4.361   1.419  0.6760 -0.0342  0.2184
  656MOL0     C88478   7.432   4.418   1.435  0.3027  0.4649 -0.5201
  656MOL0     C88479   6.992   4.515   1.373 -0.0751 -0.0184 -0.4977
  656MOL0     C88480   6.955   4.542   1.240  0.4522 -0.3479 -0.0337
  656MOL0     C88481   6.827   4.595   1.207  0.0646  0.2784 -0.8322
  656MOL0     C88482   6.737   4.627   1.311 -0.0700 -1.3742  0.3322
  656MOL0     O88483   6.617   4.666   1.263 -0.7965 -0.0333 -0.0729
  656MOL0     C88484   6.523   4.709   1.356 -0.5685  0.6934 -0.0833
  656MOL0     C88485   6.435   4.588   1.397 -0.2292  0.2451 -0.1973
  656MOL0     C88486   6.332   4.559   1.286  0.9290 -0.7971 -0.5629
  656MOL0     C88487   6.251   4.440   1.319 -0.4569 -0.0966  0.2924
  656MOL0     C88488   6.187   4.380   1.204 -0.6923  0.0035 -0.1998
  656MOL0     C88489   6.136   4.321   1.107 -0.4761 -0.1081  0.2913
  656MOL0     C88490   6.767   4.589   1.440  0.7159  0.0892 -0.7133
  656MOL0     C88491   6.896   4.543   1.473 -0.3671  0.4769 -0.0877
  656MOL0     C88492   6.929   4.534   1.618 -0.5383 -0.2982  0.5485
  656MOL0     H88493   7.368   4.503   1.110 -0.2668 -0.5689 -1.3741
  656MOL0     H88494   7.580   4.410   1.082 -2.1609 -0.5897  0.0302
  656MOL0     H88495   7.816   4.299   1.106  2.5169  0.8698 -1.6452
  656MOL0     H88496   7.816   4.466   1.172 -0.4150  0.1033  0.4343
  656MOL0     H88497   8.008   4.407   1.333 -0.6880 -2.2754  1.3401
  656MOL0     H88498   8.034   4.417   1.162  1.3541  0.0143  1.7076
  656MOL0     H88499   8.147   4.239   1.262  0.4043  0.0140 -1.7060
  656MOL0     H88500   8.055   4.182   1.123 -0.5915 -2.4324  0.0925
  656MOL0     H88501   7.888   4.076   1.277 -0.6242  2.8748  0.4842
  656MOL0     H88502   8.044   4.021   1.320 -0.2331 -0.3518 -1.8082
  656MOL0     H88503   8.065   4.160   1.513  1.4290 -1.5628 -1.6010
  656MOL0     H88504   7.923   4.259   1.463 -2.5775 -0.2709  0.3019
  656MOL0     H88505   7.774   4.068   1.491  1.6154  0.1551 -1.1661
  656MOL0     H88506   7.912   3.960   1.521  0.3311  0.1913 -0.8388
  656MOL0     H88507   7.869   4.198   1.701  2.3086  0.2810 -1.0233
  656MOL0     H88508   7.973   4.056   1.729  1.4603  1.8360 -2.1209
  656MOL0     H88509   7.781   3.915   1.781  2.1682  0.4538  2.0846
  656MOL0     H88510   7.775   4.057   1.876  0.1887 -2.1094  0.4206
  656MOL0     H88511   7.584   3.875   1.588 -1.7316 -0.6108  1.4348
  656MOL0     H88512   7.322   4.085   1.443  1.4299 -0.0108 -1.2002
  656MOL0     H88513   7.371   3.921   1.452  0.1584 -0.1986  0.1388
  656MOL0     H88514   7.211   3.919   1.681  3.6982  2.5669  1.3011
  656MOL0     H88515   7.175   4.073   1.628  0.6995 -1.2571  2.5068
  656MOL0     H88516   7.081   3.818   1.466 -0.9315  0.1603 -3.1700
  656MOL0     H88517   7.112   3.963   1.385 -0.6574 -3.0666 -1.4691
  656MOL0     H88518   6.961   4.090   1.540  3.7312  0.7350  0.9131
  656MOL0     H88519   6.948   3.950   1.647 -0.4350 -2.5760 -0.5399
  656MOL0     H88520   6.823   4.168   1.657  1.2173 -2.4267 -0.9794
  656MOL0     H88521   6.629   4.295   1.708 -0.7107 -1.0784  0.1975
  656MOL0     H88522   6.192   4.431   1.758 -0.5155 -1.1296  1.2596
  656MOL0     H88523   5.970   4.532   1.725  1.4097 -0.6984  2.0247
  656MOL0     H88524   5.624   4.265   1.551 -1.7701 -0.1766 -1.0209
  656MOL0     H88525   5.555   4.420   1.576 -0.0993 -0.9904 -2.2357
  656MOL0     H88526   5.751   4.517   1.416 -0.2783  1.6607  0.5814
  656MOL0     H88527   5.754   4.342   1.365 -2.2489 -3.2857  2.5944
  656MOL0     H88528   5.511   4.366   1.313  0.4310  0.0289  0.6487
  656MOL0     H88529   5.524   4.540   1.370  0.4191 -0.1334  0.5810
  656MOL0     H88530   5.685   4.395   1.141 -0.8237 -0.2309 -0.3124
  656MOL0     H88531   5.691   4.566   1.173  2.9570 -0.7311  5.0284
  656MOL0     H88532   5.539   4.492   0.981 -1.7281 -3.1320 -0.2885
  656MOL0     H88533   5.452   4.586   1.089  3.9885  3.2274  0.9969
  656MOL0     H88534   5.476   4.271   1.074 -0.4169  0.5329  0.3657
  656MOL0     H88535   5.329   4.357   1.146 -2.5441  0.1019 -2.5097
  656MOL0     H88536   5.426   4.325   0.870  0.8285 -1.8715  2.3992
  656MOL0     H88537   5.332   4.463   0.898  3.0769  0.3656  0.4169
  656MOL0     H88538   5.201   4.251   0.830 -0.1270  0.1133  0.2443
  656MOL0     H88539   5.276   4.176   0.978 -0.3276 -0.1233  0.3721
  656MOL0     H88540   5.824   4.165   1.541  2.5580 -0.5910 -1.9144
  656MOL0     H88541   6.063   4.066   1.559  1.4380 -0.1121  1.0787
  656MOL0     H88542   6.394   4.072   1.418 -0.1292  0.6621 -0.2768
  656MOL0     H88543   6.602   3.936   1.376  1.4532  2.1346 -3.0660
  656MOL0     H88544   7.609   4.322   1.509  2.9200 -0.7962 -1.2085
  656MOL0     H88545   7.402   4.438   1.537 -0.0248 -0.7318 -0.3704
  656MOL0     H88546   7.027   4.523   1.161  0.0683 -0.9751 -0.2398
  656MOL0     H88547   6.789   4.624   1.110 -4.4731 -2.1530 -0.0924
  656MOL0     H88548   6.457   4.786   1.316 -2.3144 -0.7133 -0.0181
  656MOL0     H88549   6.571   4.757   1.441  1.5031  0.1790 -0.8870
  656MOL0     H88550   6.391   4.618   1.493  0.9978 -1.7358  1.0736
  656MOL0     H88551   6.487   4.498   1.431 -1.2699  0.5884  2.5954
  656MOL0     H88552   6.376   4.545   1.187 -0.3602 -1.9615 -1.0067
  656MOL0     H88553   6.267   4.645   1.268 -0.1976 -0.6887  3.1911
  656MOL0     H88554   6.325   4.367   1.353  2.1934  1.7214 -1.2018
  656MOL0     H88555   6.181   4.462   1.400 -0.6962 -0.3671  0.1633
  656MOL0     H88556   6.098   4.270   1.020 -3.3209  0.0435  1.3389
  656MOL0     H88557   6.693   4.601   1.518 -2.1228 -0.9367 -3.0595
  656MOL0     H88558   6.887   4.627   1.657  3.2080  2.1471 -0.6887
  656MOL0     H88559   6.883   4.441   1.651  1.5136 -1.5973 -0.0497
  656MOL0     H88560   7.033   4.539   1.652 -1.4210  0.4018  3.4121
  657MOL0     O88561   3.489  10.378   4.128  0.3037 -0.4997 -0.1984
  657MOL0     C88562   3.479  10.359   4.250 -0.6916  0.5667 -0.1166
  657MOL0     O88563   3.472  10.460   4.344  0.0463  0.1634 -0.0339
  657MOL0     C88564   3.525  10.585   4.319 -0.3485 -0.0054 -0.0489
  657MOL0     C88565   3.488  10.668   4.214 -0.3455  0.3810  0.0724
  657MOL0     C88566   3.543  10.790   4.190  0.9346  0.0939 -0.5501
  657MOL0     C88567   3.638  10.841   4.284 -0.5137 -0.0510  0.3307
  657MOL0     O88568   3.688  10.971   4.263  0.1144  0.5611  0.1352
  657MOL0     C88569   3.800  11.018   4.329  0.0503 -0.5777 -0.6592
  657MOL0     C88570   3.837  11.163   4.282 -0.3699  0.1164 -1.1800
  657MOL0     C88571   3.928  11.223   4.391  0.6512  0.2542 -0.3999
  657MOL0     C88572   4.083  11.204   4.378 -0.2321  0.6894  0.7076
  657MOL0     C88573   4.136  11.288   4.258  0.1436  0.1944  0.2148
  657MOL0     C88574   4.204  11.188   4.161 -0.5944  0.0951  0.3459
  657MOL0     C88575   4.290  11.268   4.062 -0.2307  0.6553 -0.0830
  657MOL0     C88576   4.222  11.347   3.949 -0.1809 -0.0182  0.0051
  657MOL0     N88577   4.300  11.381   3.826 -0.2676  0.3879 -0.2257
  657MOL0     C88578   4.328  11.290   3.727 -0.7946  0.3584 -0.1884
  657MOL0     C88579   4.396  11.352   3.632 -0.5475  1.1140  0.1982
  657MOL0     C88580   4.452  11.304   3.503 -0.3948  0.3346  0.0311
  657MOL0     C88581   4.553  11.196   3.536 -0.1515  0.0943  0.4174
  657MOL0     C88582   4.594  11.127   3.402  0.3783  0.5294  0.4429
  657MOL0     C88583   4.678  11.002   3.432 -0.0519 -0.6376 -0.3199
  657MOL0     O88584   4.761  11.004   3.546  0.2681  0.2854 -0.5264
  657MOL0     C88585   4.889  11.055   3.539 -0.2530  0.9655 -0.2924
  657MOL0     C88586   4.953  11.063   3.659 -0.6183 -0.0355  0.5243
  657MOL0     C88587   5.075  11.136   3.675  0.6748 -0.2893  0.3710
  657MOL0     C88588   5.140  11.193   3.561  0.3562 -0.0156  0.3428
  657MOL0     C88589   5.276  11.244   3.569  0.8698  0.0894 -0.6655
  657MOL0     O88590   5.336  11.233   3.688 -0.6119  0.1279 -0.1052
  657MOL0     C88591   5.470  11.272   3.703 -0.0860  0.2359 -0.0161
  657MOL0     C88592   5.579  11.180   3.707  0.0904 -1.0598  0.1225
  657MOL0     C88593   5.705  11.227   3.710  0.2892  1.1486 -0.7274
  657MOL0     C88594   5.732  11.359   3.739  0.9120 -0.6930  0.3896
  657MOL0     O88595   5.860  11.395   3.750  0.5501 -0.5107  0.1503
  657MOL0     C88596   5.886  11.542   3.757 -0.3666 -0.4297  0.0069
  657MOL0     C88597   6.030  11.569   3.764 -0.4323 -0.6309 -0.2948
  657MOL0     C88598   6.056  11.719   3.798  0.1437 -0.0252 -0.5061
  657MOL0     C88599   6.198  11.763   3.777  0.4122  0.4420  0.2619
  657MOL0     C88600   6.302  11.698   3.882  1.1031 -0.0947 -0.0016
  657MOL0     C88601   6.448  11.702   3.847  0.9592 -0.3619  0.1263
  657MOL0     C88602   6.517  11.819   3.908 -0.2967 -0.4612 -0.5456
  657MOL0     C88603   6.656  11.838   3.851 -0.4791 -0.2864  0.3450
  657MOL0    Cl88604   6.759  11.933   3.959 -0.2023  0.5002 -0.1716
  657MOL0     C88605   5.622  11.459   3.753  0.4390 -0.3946 -0.1384
  657MOL0     C88606   5.492  11.411   3.725  0.6307  0.6928 -1.4050
  657MOL0     O88607   5.327  11.286   3.463 -0.2073 -0.5522  0.3878
  657MOL0     C88608   5.085  11.157   3.442  0.2487  0.0609 -0.0386
  657MOL0     C88609   4.966  11.084   3.426 -0.4593 -0.8768 -0.6410
  657MOL0     N88610   4.416  11.479   3.671  0.0089 -0.5794 -0.4051
  657MOL0     N88611   4.361  11.498   3.783 -0.3854 -0.4935 -0.2243
  657MOL0     C88612   3.659  10.772   4.403  0.2532  0.4370 -1.4464
  657MOL0     C88613   3.607  10.638   4.416 -0.0778 -0.5470 -0.7305
  657MOL0     C88614   3.450  10.213   4.302  0.5949  0.3696  0.5731
  657MOL0     C88615   3.390  10.204   4.425 -0.2588  0.5357 -0.6755
  657MOL0     C88616   3.351  10.078   4.483 -0.2892  0.0016 -0.1530
  657MOL0     C88617   3.384   9.964   4.416 -0.4170 -0.4693  1.0905
  657MOL0     O88618   3.329   9.853   4.464 -0.4035  0.5407  0.0312
  657MOL0     C88619   3.289   9.750   4.376  0.2985  0.3438  0.5916
  657MOL0     C88620   3.152   9.777   4.328 -0.0059  0.8431 -0.2271
  657MOL0     C88621   3.042   9.745   4.427 -0.6341  0.3298  0.6661
  657MOL0     C88622   2.907   9.780   4.381 -0.1999  0.2494  0.1211
  657MOL0     C88623   2.804   9.766   4.486  0.2319  0.3696 -0.5484
  657MOL0     C88624   2.730   9.768   4.590  0.5567  0.5641 -0.3895
  657MOL0     C88625   3.462   9.967   4.294  0.2366 -0.4801  0.4555
  657MOL0     C88626   3.500  10.093   4.239  0.3208 -0.0538 -0.2206
  657MOL0     C88627   3.591  10.088   4.120  0.3751  0.3339  0.2193
  657MOL0     H88628   3.416  10.631   4.140  2.1162  0.3854 -2.5013
  657MOL0     H88629   3.520  10.854   4.105 -0.7642 -1.5408 -1.3842
  657MOL0     H88630   3.785  11.021   4.437 -0.1198  3.3479 -0.6619
  657MOL0     H88631   3.880  10.951   4.296 -0.4535  0.0756 -3.4790
  657MOL0     H88632   3.752  11.228   4.260 -1.4616 -0.1551  1.8010
  657MOL0     H88633   3.902  11.161   4.194  0.4262  4.7709 -0.9507
  657MOL0     H88634   3.901  11.181   4.488  0.2314  0.0601 -0.6015
  657MOL0     H88635   3.906  11.330   4.397  0.6714  0.1754  2.1391
  657MOL0     H88636   4.138  11.241   4.465 -0.0035 -1.3065  1.4681
  657MOL0     H88637   4.101  11.097   4.363 -1.8041  0.2262  1.9011
  657MOL0     H88638   4.053  11.340   4.211  1.6455  1.4721 -1.1604
  657MOL0     H88639   4.203  11.365   4.299  0.1593  0.3848 -0.1678
  657MOL0     H88640   4.270  11.124   4.220 -1.7807 -1.9920 -0.5020
  657MOL0     H88641   4.133  11.138   4.096  2.3951 -2.6166 -1.1287
  657MOL0     H88642   4.348  11.193   4.008 -0.7760  0.0867  0.1119
  657MOL0     H88643   4.355  11.335   4.120  2.0335  0.5466 -2.3261
  657MOL0     H88644   4.130  11.295   3.921 -1.0739  1.7500 -0.4601
  657MOL0     H88645   4.196  11.440   4.000 -0.7548  0.6687 -1.4965
  657MOL0     H88646   4.293  11.187   3.718 -0.7643  0.4988 -2.2444
  657MOL0     H88647   4.370  11.264   3.442 -1.5319  1.8643  0.4927
  657MOL0     H88648   4.497  11.388   3.450 -2.9874  2.1423  0.4998
  657MOL0     H88649   4.629  11.243   3.599 -1.1126 -0.7830  2.3466
  657MOL0     H88650   4.499  11.121   3.595 -1.9102  0.8901 -0.0981
  657MOL0     H88651   4.657  11.186   3.334 -1.7815  0.0866 -2.1121
  657MOL0     H88652   4.509  11.106   3.337  0.8332 -0.1131  0.0401
  657MOL0     H88653   4.736  10.974   3.344  0.9805 -3.3089  1.0801
  657MOL0     H88654   4.614  10.913   3.424  0.8835 -1.2351 -1.3965
  657MOL0     H88655   4.891  11.014   3.733  1.6806 -0.5649  2.2141
  657MOL0     H88656   5.112  11.155   3.775  1.4192 -1.8015  0.4003
  657MOL0     H88657   5.553  11.075   3.702 -1.1248 -0.9549  2.7845
  657MOL0     H88658   5.794  11.170   3.690 -0.4256 -0.1204 -0.4125
  657MOL0     H88659   5.848  11.593   3.669  0.2177  3.2577  1.6859
  657MOL0     H88660   5.837  11.584   3.846 -4.1700 -1.1568 -1.5487
  657MOL0     H88661   6.083  11.501   3.832 -0.6458 -1.5598 -1.0389
  657MOL0     H88662   6.053  11.541   3.661  0.9570 -1.2565  0.1499
  657MOL0     H88663   5.999  11.786   3.734  0.9636  0.0434 -1.1696
  657MOL0     H88664   6.028  11.733   3.903 -0.4134  2.9525 -0.9636
  657MOL0     H88665   6.210  11.872   3.784  0.9048  0.2854  2.5108
  657MOL0     H88666   6.223  11.744   3.672 -1.5765  0.8631 -0.3247
  657MOL0     H88667   6.280  11.592   3.891  0.7126 -0.1215 -1.1662
  657MOL0     H88668   6.278  11.746   3.977  1.9522  2.3324 -0.9296
  657MOL0     H88669   6.500  11.610   3.874  0.1368 -1.2099 -1.1096
  657MOL0     H88670   6.463  11.703   3.739  0.1094 -1.6560 -0.0241
  657MOL0     H88671   6.517  11.798   4.015 -0.7287 -1.3496 -0.7140
  657MOL0     H88672   6.462  11.912   3.890 -1.3243 -0.5881  1.6356
  657MOL0     H88673   6.716  11.750   3.829  2.1058  0.9428  1.9638
  657MOL0     H88674   6.648  11.893   3.757 -2.5537  0.0450  0.6621
  657MOL0     H88675   5.624  11.565   3.777 -0.3295 -0.3417 -0.3032
  657MOL0     H88676   5.410  11.482   3.734 -0.7673 -1.0879  1.5666
  657MOL0     H88677   5.128  11.179   3.344 -1.3569  1.6570 -0.4403
  657MOL0     H88678   4.929  11.063   3.326 -3.6932 -0.8083  0.4202
  657MOL0     H88679   3.702  10.816   4.493 -1.4353  1.5958 -1.1618
  657MOL0     H88680   3.622  10.577   4.504 -2.4332  0.3797  0.3773
  657MOL0     H88681   3.361  10.298   4.471 -2.9474 -0.0340 -1.0268
  657MOL0     H88682   3.286  10.070   4.570  2.3868 -1.2635  1.8665
  657MOL0     H88683   3.308   9.655   4.427  1.4342 -0.1912 -0.7467
  657MOL0     H88684   3.348   9.746   4.284  1.7113  3.8906  1.1779
  657MOL0     H88685   3.134   9.717   4.238 -1.6621  0.7588  0.1224
  657MOL0     H88686   3.137   9.883   4.306 -4.1438  0.2991 -0.9410
  657MOL0     H88687   3.064   9.809   4.513 -2.1912  2.5339 -0.4795
  657MOL0     H88688   3.061   9.638   4.444 -1.7730 -0.0043 -0.0484
  657MOL0     H88689   2.898   9.881   4.339 -2.2510 -0.0959 -0.3945
  657MOL0     H88690   2.882   9.710   4.301 -0.2342 -3.0439  2.8013
  657MOL0     H88691   2.681   9.767   4.685  1.2840 -0.2134 -0.0023
  657MOL0     H88692   3.504   9.883   4.241  1.8426  1.1495 -0.9840
  657MOL0     H88693   3.547  10.122   4.025  1.2264 -0.5798 -0.5212
  657MOL0     H88694   3.683  10.146   4.133  1.4557 -0.6322 -2.4708
  657MOL0     H88695   3.625   9.987   4.095 -2.2159 -0.3378 -0.9348
  658MOL0     O88696   3.680   7.780   2.323  0.3875 -0.6331  0.6677
  658MOL0     C88697   3.648   7.781   2.205 -0.2661  0.1539  0.1457
  658MOL0     O88698   3.727   7.775   2.097 -0.6457  0.2502 -0.0838
  658MOL0     C88699   3.862   7.775   2.126 -0.0845  0.1901  0.6788
  658MOL0     C88700   3.940   7.896   2.116  0.0354  0.5880 -1.0797
  658MOL0     C88701   4.074   7.891   2.149  0.5030  0.8605 -0.3094
  658MOL0     C88702   4.136   7.768   2.185  0.2990  0.1932  0.4242
  658MOL0     O88703   4.267   7.756   2.225 -0.0985  0.4335 -0.1831
  658MOL0     C88704   4.357   7.843   2.165  0.0213 -0.7550  0.6922
  658MOL0     C88705   4.459   7.755   2.095 -0.4959 -0.1212  0.4053
  658MOL0     C88706   4.563   7.683   2.186  0.1011 -0.1589 -0.4191
  658MOL0     C88707   4.522   7.538   2.208 -0.0230 -0.5380 -0.4253
  658MOL0     C88708   4.578   7.479   2.336 -0.1532  0.2325  0.1646
  658MOL0     C88709   4.726   7.478   2.353 -0.4320  0.7210  0.0563
  658MOL0     C88710   4.780   7.476   2.498  0.1714 -0.7388  0.8305
  658MOL0     C88711   4.933   7.478   2.477  0.7900  0.0084 -0.5878
  658MOL0     N88712   4.992   7.474   2.607 -0.1153  0.9808 -0.3756
  658MOL0     C88713   5.013   7.359   2.693 -0.4996 -0.8870 -0.8911
  658MOL0     C88714   5.056   7.415   2.807 -0.0987 -0.4897  0.8214
  658MOL0     C88715   5.117   7.346   2.922  0.5093 -0.6258 -0.5901
  658MOL0     C88716   5.014   7.288   3.021 -0.8448  0.6712 -0.1307
  658MOL0     C88717   4.942   7.393   3.104  0.3264 -0.4070 -0.0282
  658MOL0     C88718   5.017   7.453   3.219 -0.6619 -0.3681 -0.3736
  658MOL0     O88719   5.005   7.381   3.341 -0.3294 -0.2813 -0.3692
  658MOL0     C88720   4.880   7.386   3.413 -0.7190  0.6537  0.0290
  658MOL0     C88721   4.871   7.311   3.536  0.0795 -0.4544 -0.4329
  658MOL0     C88722   4.757   7.317   3.621 -0.6160  0.3857  0.0819
  658MOL0     C88723   4.640   7.374   3.573 -0.3765 -0.3305 -0.5719
  658MOL0     C88724   4.522   7.374   3.655 -1.1295  0.6782  0.0529
  658MOL0     O88725   4.526   7.310   3.767 -0.3851 -0.0124  0.1532
  658MOL0     C88726   4.411   7.284   3.827 -0.8492  0.2687 -1.1064
  658MOL0     C88727   4.324   7.380   3.877  0.0704 -0.1812  0.3888
  658MOL0     C88728   4.212   7.333   3.953 -0.3438 -0.0960 -0.4597
  658MOL0     C88729   4.187   7.201   3.976 -0.4640  1.0849  0.2477
  658MOL0     O88730   4.077   7.180   4.047 -0.3458 -0.2466 -0.0907
  658MOL0     C88731   4.080   7.089   4.159 -0.7367  0.1742  0.1481
  658MOL0     C88732   3.936   7.086   4.211  0.2929 -0.8490  0.1877
  658MOL0     C88733   3.913   7.026   4.345  0.1372 -0.7959 -0.6549
  658MOL0     C88734   3.779   7.074   4.400  0.1645  0.0464 -0.7100
  658MOL0     C88735   3.715   6.948   4.462  0.2720 -0.0312 -0.1542
  658MOL0     C88736   3.567   6.975   4.512 -0.2315  0.2582  0.3873
  658MOL0     C88737   3.496   6.836   4.531  0.3795  0.1073 -0.8085
  658MOL0     C88738   3.362   6.834   4.618 -0.9274 -0.1132 -0.6086
  658MOL0    Cl88739   3.263   6.984   4.605 -0.6995 -0.3109  0.2402
  658MOL0     C88740   4.283   7.109   3.941 -0.2250  0.0746 -0.3695
  658MOL0     C88741   4.395   7.149   3.866 -0.2536 -0.0095  0.4680
  658MOL0     O88742   4.425   7.433   3.609 -0.0593 -0.4765 -0.1045
  658MOL0     C88743   4.646   7.440   3.440  0.0539  0.2987  0.9553
  658MOL0     C88744   4.764   7.450   3.375 -0.4507 -0.2789  0.2014
  658MOL0     N88745   5.068   7.546   2.782 -0.0536  0.3551 -0.0942
  658MOL0     N88746   5.036   7.590   2.664  0.7492 -0.0607  0.1388
  658MOL0     C88747   4.066   7.654   2.191  0.0460 -0.8682  0.3638
  658MOL0     C88748   3.934   7.656   2.157 -0.3224 -0.1092  0.4312
  658MOL0     C88749   3.502   7.809   2.185  0.8641  0.2591 -1.2429
  658MOL0     C88750   3.410   7.731   2.256 -0.5800 -0.7299 -0.1850
  658MOL0     C88751   3.268   7.752   2.242  0.1293 -0.0032  0.1988
  658MOL0     C88752   3.223   7.860   2.162 -0.7987  0.1565  0.7383
  658MOL0     O88753   3.094   7.899   2.153  0.5121  0.4167  0.3563
  658MOL0     C88754   2.994   7.805   2.200  0.7771 -0.6623  0.5218
  658MOL0     C88755   2.860   7.868   2.161 -0.0853  0.3768  0.7380
  658MOL0     C88756   2.739   7.801   2.229  0.5032 -0.1423  0.2500
  658MOL0     C88757   2.726   7.858   2.372 -0.5940 -0.0692 -0.5593
  658MOL0     C88758   2.629   7.965   2.386 -0.4849 -0.3151  0.3317
  658MOL0     C88759   2.551   8.060   2.398  0.4327 -0.0112 -0.2494
  658MOL0     C88760   3.319   7.936   2.096  0.5863 -0.4146  0.1542
  658MOL0     C88761   3.451   7.904   2.100  0.3988  0.1013  0.1744
  658MOL0     C88762   3.548   7.997   2.033 -0.1345 -0.2257 -0.5089
  658MOL0     H88763   3.894   7.990   2.088 -1.3187 -0.2941 -1.9086
  658MOL0     H88764   4.132   7.983   2.149  3.6502 -0.9301  1.1559
  658MOL0     H88765   4.323   7.910   2.086  1.8408 -0.3552  0.2033
  658MOL0     H88766   4.398   7.899   2.250  1.4361 -1.2523  0.3661
  658MOL0     H88767   4.513   7.818   2.024  0.0818 -0.2531  0.7217
  658MOL0     H88768   4.394   7.687   2.039 -0.2594  1.0459 -1.3639
  658MOL0     H88769   4.567   7.748   2.273 -3.0946  2.7492 -2.1799
  658MOL0     H88770   4.657   7.694   2.131 -2.1465  1.7937 -4.2939
  658MOL0     H88771   4.414   7.525   2.220 -0.0591 -0.6885 -0.9096
  658MOL0     H88772   4.541   7.478   2.118 -0.8458 -0.4687 -0.6481
  658MOL0     H88773   4.530   7.534   2.418 -0.3159 -0.2064  0.3734
  658MOL0     H88774   4.556   7.373   2.353 -0.2164 -0.2498 -2.4608
  658MOL0     H88775   4.762   7.386   2.306 -3.2436  0.5251 -1.9933
  658MOL0     H88776   4.781   7.558   2.303  3.0026 -2.7165 -2.2758
  658MOL0     H88777   4.743   7.380   2.536 -1.9644 -1.1225 -1.9587
  658MOL0     H88778   4.730   7.564   2.540 -3.0042 -1.4860 -1.0992
  658MOL0     H88779   4.966   7.383   2.435 -0.1518 -0.4287 -0.3638
  658MOL0     H88780   4.963   7.558   2.408  0.1524  1.5626  0.8627
  658MOL0     H88781   5.005   7.251   2.681  1.5224 -1.1582 -0.1655
  658MOL0     H88782   5.183   7.266   2.886 -0.5453 -1.9212  0.2976
  658MOL0     H88783   5.178   7.422   2.973 -0.7093  1.7674 -2.4597
  658MOL0     H88784   4.947   7.227   2.960 -1.9644 -1.4641  3.0194
  658MOL0     H88785   5.069   7.215   3.081 -0.7827  1.0529  0.2812
  658MOL0     H88786   4.849   7.345   3.136 -0.1490  0.1590 -0.5306
  658MOL0     H88787   4.895   7.473   3.045 -2.0570 -0.9414  0.9983
  658MOL0     H88788   4.992   7.558   3.235  0.5557  0.3913 -2.8756
  658MOL0     H88789   5.123   7.462   3.191 -0.3738  0.0329  0.7874
  658MOL0     H88790   4.948   7.246   3.577 -2.0114 -2.2653  0.8147
  658MOL0     H88791   4.767   7.265   3.715  0.0164  0.8114  0.2510
  658MOL0     H88792   4.340   7.485   3.853 -1.1453 -0.3635 -1.4477
  658MOL0     H88793   4.152   7.416   3.988  0.3545  0.9405 -1.6214
  658MOL0     H88794   4.115   6.989   4.131  1.4093  0.4701  1.5476
  658MOL0     H88795   4.156   7.133   4.224 -0.4370  0.3871 -0.3411
  658MOL0     H88796   3.901   7.190   4.211  0.5133 -0.7757  0.4712
  658MOL0     H88797   3.873   7.040   4.134  0.5581 -1.1742  0.1668
  658MOL0     H88798   3.923   6.918   4.328 -1.0385 -0.6134 -2.9384
  658MOL0     H88799   3.991   7.058   4.414  1.2967 -0.0866 -2.2194
  658MOL0     H88800   3.712   7.112   4.322 -1.6622  0.3155  0.9111
  658MOL0     H88801   3.787   7.156   4.472  0.2516  0.4819 -1.2064
  658MOL0     H88802   3.771   6.895   4.539 -0.4209 -0.3163  0.1641
  658MOL0     H88803   3.713   6.882   4.375  0.1276  0.0129 -0.1839
  658MOL0     H88804   3.569   7.027   4.608 -0.1995  1.4853 -0.2572
  658MOL0     H88805   3.522   7.043   4.439  3.3396  0.1349 -2.2356
  658MOL0     H88806   3.565   6.761   4.568  1.0532  1.2016  0.2023
  658MOL0     H88807   3.460   6.799   4.434  0.7146  0.5189 -1.0967
  658MOL0     H88808   3.299   6.748   4.591 -3.8542  1.8142 -0.4418
  658MOL0     H88809   3.375   6.826   4.726 -1.5723  2.8728 -0.2326
  658MOL0     H88810   4.257   7.007   3.967  2.3872 -0.7473 -0.7189
  658MOL0     H88811   4.471   7.074   3.848  0.6319  0.8406  0.6041
  658MOL0     H88812   4.557   7.483   3.396  1.4055  1.9019 -0.3388
  658MOL0     H88813   4.770   7.512   3.286  0.8709 -1.6868 -0.7534
  658MOL0     H88814   4.118   7.560   2.212  1.5234  0.0117  0.8338
  658MOL0     H88815   3.902   7.555   2.137  3.4670 -1.6749  1.4371
  658MOL0     H88816   3.437   7.668   2.339 -2.1170 -2.3654 -0.8541
  658MOL0     H88817   3.202   7.685   2.298 -0.3665  2.5207  2.9077
  658MOL0     H88818   2.997   7.783   2.307 -0.5967  0.1026  0.7302
  658MOL0     H88819   3.009   7.712   2.144  4.1848  0.0499 -0.0057
  658MOL0     H88820   2.835   7.856   2.055 -1.0147  0.1025  0.9768
  658MOL0     H88821   2.865   7.976   2.177  2.0670  0.4200  0.0703
  658MOL0     H88822   2.772   7.697   2.231 -2.9214 -1.3257  0.4406
  658MOL0     H88823   2.644   7.820   2.178 -0.6446 -0.4759  2.1531
  658MOL0     H88824   2.698   7.774   2.437 -0.6923  0.0986 -0.3849
  658MOL0     H88825   2.821   7.900   2.406 -2.2376  2.9902  0.5787
  658MOL0     H88826   2.480   8.137   2.419  1.3145 -0.1506  4.1485
  658MOL0     H88827   3.276   8.002   2.021 -0.3439 -0.4013  0.6945
  658MOL0     H88828   3.633   7.998   2.102  0.9279 -0.8664 -1.7618
  658MOL0     H88829   3.575   7.947   1.940 -2.8374 -2.3857 -0.2742
  658MOL0     H88830   3.507   8.097   2.021  0.4895 -0.0004 -0.8124
  659MOL0     O88831   4.986   7.277   8.158  0.4068  0.4901  0.0656
  659MOL0     C88832   4.961   7.158   8.152  0.0744 -0.2003  0.0126
  659MOL0     O88833   5.051   7.060   8.140  0.3164 -0.9329  0.6792
  659MOL0     C88834   5.185   7.096   8.144 -0.0778 -0.8855 -0.3694
  659MOL0     C88835   5.236   7.153   8.259  0.3060  0.0764  0.4432
  659MOL0     C88836   5.379   7.165   8.271 -0.0267 -0.3743 -0.6959
  659MOL0     C88837   5.471   7.120   8.166 -0.6886 -0.0794  0.2098
  659MOL0     O88838   5.610   7.124   8.173  0.9548  0.2920 -0.0702
  659MOL0     C88839   5.673   7.181   8.291 -0.0188  0.2381 -0.4703
  659MOL0     C88840   5.827   7.199   8.260 -0.1172  0.2530  0.4146
  659MOL0     C88841   5.915   7.137   8.367 -0.0836  0.6696  0.7389
  659MOL0     C88842   6.061   7.155   8.322  0.0295  0.6688  0.8080
  659MOL0     C88843   6.153   7.086   8.429 -0.3482  0.1860 -0.6625
  659MOL0     C88844   6.305   7.091   8.401  0.6760 -0.0324  0.2771
  659MOL0     C88845   6.388   7.030   8.515 -1.0413 -0.1285 -0.4994
  659MOL0     C88846   6.416   6.876   8.499 -0.2852  0.6178  0.8156
  659MOL0     N88847   6.532   6.818   8.564 -0.4204 -0.6108 -0.1194
  659MOL0     C88848   6.634   6.754   8.488 -0.4023  0.2323 -0.2568
  659MOL0     C88849   6.723   6.704   8.584  0.3302  0.3064 -0.7803
  659MOL0     C88850   6.845   6.624   8.567 -0.3653  0.5227  0.1797
  659MOL0     C88851   6.910   6.646   8.432  0.3348 -0.0816  0.1633
  659MOL0     C88852   6.998   6.529   8.394  0.3056  0.1206 -0.1948
  659MOL0     C88853   7.120   6.528   8.479  0.0767  0.0174 -0.3673
  659MOL0     O88854   7.195   6.405   8.471  0.4622 -0.0064 -0.8965
  659MOL0     C88855   7.318   6.408   8.527  0.1589 -0.5197  0.0598
  659MOL0     C88856   7.416   6.338   8.462 -0.4972  0.1572 -1.1808
  659MOL0     C88857   7.552   6.361   8.497 -0.1423  0.3543  0.2109
  659MOL0     C88858   7.591   6.437   8.614 -0.2668  0.2147  0.4462
  659MOL0     C88859   7.733   6.450   8.659 -0.3553  0.9321  0.4838
  659MOL0     O88860   7.833   6.429   8.560  0.9416  0.5982  0.3417
  659MOL0     C88861   7.968   6.446   8.581  0.4799 -0.2207  0.0170
  659MOL0     C88862   8.028   6.529   8.671 -0.2646 -0.2797  0.3893
  659MOL0     C88863   8.161   6.533   8.679  0.6986  0.5851 -0.7940
  659MOL0     C88864   8.245   6.454   8.596  0.2063 -0.0792  1.0599
  659MOL0     O88865   8.375   6.464   8.617  0.1541 -0.6184  0.9180
  659MOL0     C88866   8.459   6.360   8.572  0.5901 -0.1970  0.5146
  659MOL0     C88867   8.603   6.397   8.598 -0.8676  0.1898  0.6160
  659MOL0     C88868   8.640   6.400   8.749 -0.4038  0.2686 -0.2954
  659MOL0     C88869   8.676   6.544   8.788 -0.4199  0.4137  0.9376
  659MOL0     C88870   8.743   6.552   8.924  0.1677 -0.2194  0.2892
  659MOL0     C88871   8.785   6.688   8.959 -0.1863 -0.1980 -1.3502
  659MOL0     C88872   8.868   6.695   9.088  0.2381 -0.7053 -0.5103
  659MOL0     C88873   8.952   6.821   9.098 -0.1876 -0.1714 -0.6656
  659MOL0    Cl88874   8.995   6.848   9.270  0.0444  0.1755 -0.0484
  659MOL0     C88875   8.178   6.369   8.503 -0.4974 -1.1398  0.5864
  659MOL0     C88876   8.044   6.363   8.496 -0.0897 -1.2050  0.2645
  659MOL0     O88877   7.757   6.460   8.782 -0.1886  0.1210  0.4874
  659MOL0     C88878   7.487   6.499   8.681  0.5295  0.2329 -0.1327
  659MOL0     C88879   7.348   6.492   8.638  0.8028  0.0606  0.6061
  659MOL0     N88880   6.675   6.744   8.704  0.6819 -0.1566 -0.0856
  659MOL0     N88881   6.562   6.812   8.699 -0.8084 -0.4460 -0.5026
  659MOL0     C88882   5.410   7.071   8.049 -0.5061 -0.1632 -0.6078
  659MOL0     C88883   5.276   7.058   8.046  0.4805 -0.5399  0.2914
  659MOL0     C88884   4.820   7.104   8.140  0.4097 -0.2253 -0.0892
  659MOL0     C88885   4.792   6.974   8.173  1.0070 -0.2846  0.3970
  659MOL0     C88886   4.664   6.921   8.178 -0.1902  1.1857  0.1703
  659MOL0     C88887   4.555   6.998   8.144  1.1167 -0.0145 -0.5444
  659MOL0     O88888   4.428   6.945   8.144 -0.2506 -0.8372 -0.0283
  659MOL0     C88889   4.338   6.978   8.037 -0.4422  1.0691 -0.2265
  659MOL0     C88890   4.198   6.935   8.090 -0.6041  0.6056 -0.1342
  659MOL0     C88891   4.140   7.019   8.204 -0.2307 -0.9458  0.6948
  659MOL0     C88892   4.120   7.159   8.153 -1.0821  0.0211 -0.3387
  659MOL0     C88893   4.228   7.253   8.196 -0.9336  0.7689  0.2450
  659MOL0     C88894   4.312   7.323   8.247 -0.2142 -0.7307  0.2081
  659MOL0     C88895   4.581   7.129   8.100 -1.6268 -1.3241 -0.3133
  659MOL0     C88896   4.710   7.185   8.096 -0.1348  1.1624 -0.6987
  659MOL0     C88897   4.736   7.324   8.042 -0.5720  0.2064 -0.4175
  659MOL0     H88898   5.171   7.181   8.341 -0.5409  1.4591 -0.6359
  659MOL0     H88899   5.422   7.209   8.360  0.2936 -2.7200  0.3609
  659MOL0     H88900   5.624   7.277   8.308 -3.8648 -1.8356  1.6279
  659MOL0     H88901   5.664   7.115   8.378  0.8437  3.0147  1.8971
  659MOL0     H88902   5.856   7.304   8.249  0.6835  0.1595  1.5724
  659MOL0     H88903   5.854   7.165   8.160 -2.6646  2.4214 -1.1644
  659MOL0     H88904   5.888   7.032   8.380  1.7871  0.0944  0.2981
  659MOL0     H88905   5.896   7.198   8.455  0.2367  2.4093 -0.3450
  659MOL0     H88906   6.088   7.101   8.231  2.2352  0.7276  1.3694
  659MOL0     H88907   6.087   7.260   8.309  1.5739 -0.0036 -2.5901
  659MOL0     H88908   6.125   7.127   8.527  1.0012 -1.5325  0.5199
  659MOL0     H88909   6.119   6.983   8.436 -2.4284  0.8723 -0.1702
  659MOL0     H88910   6.334   7.046   8.305  0.1246 -2.6738  1.2664
  659MOL0     H88911   6.336   7.196   8.391  2.9898 -0.5505  1.4062
  659MOL0     H88912   6.341   7.043   8.613 -3.2315 -0.1651 -1.5070
  659MOL0     H88913   6.481   7.087   8.507 -0.8902 -0.5239 -1.7175
  659MOL0     H88914   6.328   6.819   8.532  1.2020 -1.7868  0.8459
  659MOL0     H88915   6.418   6.846   8.394  0.7968 -2.4676  1.6225
  659MOL0     H88916   6.641   6.746   8.380 -0.8323 -1.3722 -0.1946
  659MOL0     H88917   6.914   6.635   8.651 -1.5304 -1.5613  1.5018
  659MOL0     H88918   6.812   6.521   8.585  0.2809  0.3278  0.2688
  659MOL0     H88919   6.834   6.663   8.356  1.7112  4.4273 -0.5123
  659MOL0     H88920   6.963   6.742   8.439  0.0537  0.6654 -4.5993
  659MOL0     H88921   7.018   6.543   8.288 -0.1675 -1.4648 -0.5205
  659MOL0     H88922   6.958   6.428   8.400  3.1850 -1.2908 -2.0891
  659MOL0     H88923   7.094   6.556   8.582  1.6344  1.2547 -0.2546
  659MOL0     H88924   7.173   6.616   8.440  1.9235 -1.1696 -0.6601
  659MOL0     H88925   7.392   6.285   8.370 -1.1234 -1.5445 -0.0850
  659MOL0     H88926   7.627   6.312   8.437  0.9228  1.1340  0.8818
  659MOL0     H88927   7.970   6.597   8.733  0.9069  0.5104  0.6472
  659MOL0     H88928   8.201   6.596   8.757 -1.5369  0.7672  0.2682
  659MOL0     H88929   8.435   6.266   8.624 -0.7725 -0.3228 -0.3016
  659MOL0     H88930   8.456   6.346   8.464  2.3034  1.3248  0.2344
  659MOL0     H88931   8.664   6.319   8.552 -1.2643 -0.6597  1.4858
  659MOL0     H88932   8.633   6.487   8.544  1.7920  0.2741  2.0568
  659MOL0     H88933   8.556   6.367   8.811 -0.3377  1.9964  0.7981
  659MOL0     H88934   8.723   6.330   8.751 -0.9363 -0.4178 -1.2250
  659MOL0     H88935   8.595   6.616   8.772  1.5849  2.2511 -1.8462
  659MOL0     H88936   8.754   6.573   8.718 -0.9195 -1.5387 -0.5056
  659MOL0     H88937   8.834   6.492   8.926  0.8409  0.7418 -0.4285
  659MOL0     H88938   8.668   6.522   8.998 -2.2091 -0.6368 -2.1364
  659MOL0     H88939   8.835   6.731   8.872  0.3457  1.3267 -0.3181
  659MOL0     H88940   8.694   6.744   8.984  1.2061  2.3171 -1.6425
  659MOL0     H88941   8.944   6.616   9.078 -0.6106 -1.7743  1.0678
  659MOL0     H88942   8.804   6.683   9.176  0.6326 -2.4793 -0.4216
  659MOL0     H88943   9.038   6.805   9.032  0.2051 -2.2876  0.3012
  659MOL0     H88944   8.901   6.912   9.064  1.0610  0.7001 -0.3034
  659MOL0     H88945   8.237   6.317   8.428  0.9565 -1.3408  1.8149
  659MOL0     H88946   7.992   6.304   8.420 -1.5865 -0.7633  0.9004
  659MOL0     H88947   7.502   6.553   8.774 -4.6276  2.3675 -0.1662
  659MOL0     H88948   7.278   6.549   8.698  3.3132  2.2835  1.6068
  659MOL0     H88949   5.473   7.037   7.967  0.7048 -0.1278  0.2745
  659MOL0     H88950   5.227   7.010   7.962  1.6512 -1.6683  0.2257
  659MOL0     H88951   4.880   6.916   8.199  2.6209  1.0407 -1.7381
  659MOL0     H88952   4.646   6.818   8.206  1.8470  0.9264  0.6990
  659MOL0     H88953   4.359   6.916   7.950 -1.7925 -1.4311  1.1036
  659MOL0     H88954   4.345   7.086   8.023  3.4005  1.9211  4.9404
  659MOL0     H88955   4.205   6.838   8.139  0.7726  1.3383  1.2157
  659MOL0     H88956   4.130   6.920   8.006 -0.9588 -2.7880  0.6321
  659MOL0     H88957   4.196   7.010   8.298  1.5213 -0.6853 -0.2673
  659MOL0     H88958   4.043   6.977   8.231 -1.4425 -0.3456 -2.3322
  659MOL0     H88959   4.111   7.151   8.044  1.1563  1.0989 -0.6536
  659MOL0     H88960   4.033   7.205   8.201 -2.0562 -1.9333 -0.1049
  659MOL0     H88961   4.375   7.402   8.281 -4.2282  4.2903 -2.4658
  659MOL0     H88962   4.500   7.195   8.074  1.4247  3.1036  0.1875
  659MOL0     H88963   4.772   7.392   8.120  3.6005  0.7732 -2.5565
  659MOL0     H88964   4.814   7.320   7.965 -0.1683 -0.6705  0.0240
  659MOL0     H88965   4.646   7.366   7.996 -1.1746  0.1339  0.6696
  660MOL0     O88966   1.446   1.375   1.776 -0.0874  0.5715 -0.5863
  660MOL0     C88967   1.571   1.377   1.790 -0.1248  0.5414  0.6478
  660MOL0     O88968   1.661   1.379   1.684 -0.2542 -0.3379  0.6161
  660MOL0     C88969   1.620   1.372   1.551 -0.0257 -0.3326  0.0622
  660MOL0     C88970   1.523   1.277   1.514 -0.0016 -0.2543 -0.0285
  660MOL0     C88971   1.477   1.289   1.386  0.3388 -0.6486  0.6495
  660MOL0     C88972   1.516   1.397   1.299 -0.0247  0.1306 -0.4271
  660MOL0     O88973   1.477   1.405   1.171 -0.2413  0.1768 -0.7854
  660MOL0     C88974   1.351   1.353   1.138 -0.0562  0.0878  0.4523
  660MOL0     C88975   1.368   1.219   1.071 -0.0277 -0.5602  0.2102
  660MOL0     C88976   1.453   1.235   0.946 -0.3303 -0.7431  0.3102
  660MOL0     C88977   1.445   1.119   0.851 -0.2387  0.9312  0.1282
  660MOL0     C88978   1.521   1.140   0.721  0.6766  1.0141 -0.7678
  660MOL0     C88979   1.667   1.142   0.731  0.2390  0.1654 -0.3050
  660MOL0     C88980   1.733   1.080   0.862 -0.2041 -0.0581 -1.1063
  660MOL0     C88981   1.884   1.084   0.882 -0.0368 -0.2333  0.5338
  660MOL0     N88982   1.949   1.073   0.753  0.6586 -0.0315  0.3016
  660MOL0     C88983   1.985   1.190   0.684 -0.5167  1.3287 -0.0806
  660MOL0     C88984   2.068   1.149   0.589 -0.2610  0.7748 -0.7567
  660MOL0     C88985   2.133   1.229   0.480  0.8339  0.3801 -0.4469
  660MOL0     C88986   2.270   1.262   0.528  0.2803  0.1384  0.0218
  660MOL0     C88987   2.264   1.379   0.634  0.0666  0.1519 -0.5939
  660MOL0     C88988   2.403   1.395   0.704  1.0123 -0.0713 -1.1157
  660MOL0     O88989   2.497   1.411   0.594 -0.8970  0.4440 -0.2357
  660MOL0     C88990   2.614   1.473   0.618 -0.6605  0.1151  0.1225
  660MOL0     C88991   2.664   1.494   0.747  0.5111 -0.6788  0.4021
  660MOL0     C88992   2.795   1.535   0.771  0.2841 -1.0116  1.0473
  660MOL0     C88993   2.881   1.566   0.674  0.2645 -0.4976  0.7183
  660MOL0     C88994   3.020   1.597   0.714  0.9939 -0.4721  0.9797
  660MOL0     O88995   3.107   1.626   0.609  0.0756  0.3331 -0.4553
  660MOL0     C88996   3.239   1.646   0.641 -0.7859  0.6102 -0.7217
  660MOL0     C88997   3.302   1.726   0.544 -0.1576 -0.8674 -0.5635
  660MOL0     C88998   3.443   1.743   0.547  0.5884 -0.2079 -0.5543
  660MOL0     C88999   3.516   1.681   0.647 -0.5303 -1.2563 -1.0483
  660MOL0     O89000   3.653   1.719   0.659  0.0074 -0.1614 -0.4733
  660MOL0     C89001   3.744   1.699   0.549  0.2023 -0.6039 -0.3924
  660MOL0     C89002   3.827   1.575   0.547 -0.6854  1.4667  0.4612
  660MOL0     C89003   3.940   1.548   0.440 -0.5317  0.3769  0.4173
  660MOL0     C89004   4.023   1.417   0.458  0.3450  0.3115  0.3457
  660MOL0     C89005   4.152   1.440   0.368  0.1729 -0.4882 -0.4626
  660MOL0     C89006   4.280   1.478   0.445 -1.6369  0.3666 -0.5921
  660MOL0     C89007   4.272   1.617   0.511 -0.7447 -0.5483  0.6177
  660MOL0     C89008   4.408   1.649   0.570  0.2630 -0.6822 -1.0224
  660MOL0    Cl89009   4.458   1.551   0.722  0.0649 -0.3320  0.1189
  660MOL0     C89010   3.452   1.602   0.745 -0.3813  0.9021  0.1832
  660MOL0     C89011   3.320   1.582   0.737  0.2080 -0.2393  0.3940
  660MOL0     O89012   3.049   1.597   0.829 -0.0058  0.0108 -0.4309
  660MOL0     C89013   2.841   1.542   0.542 -0.4294  0.2365 -0.6769
  660MOL0     C89014   2.709   1.506   0.511 -0.5902  1.5999  0.2934
  660MOL0     N89015   2.086   1.010   0.601 -0.5405  0.2084  0.1161
  660MOL0     N89016   2.022   0.968   0.704 -0.0106 -0.1199  0.1850
  660MOL0     C89017   1.619   1.485   1.352  0.4706 -0.2745  1.1723
  660MOL0     C89018   1.663   1.476   1.473  0.1163 -0.3959  0.2264
  660MOL0     C89019   1.624   1.376   1.929  0.0042 -0.2869  0.3454
  660MOL0     C89020   1.734   1.292   1.956  0.3190 -0.4242 -0.8274
  660MOL0     C89021   1.803   1.304   2.077  0.1028  0.2207 -0.2351
  660MOL0     C89022   1.765   1.410   2.165  0.2619 -0.3699  0.1175
  660MOL0     O89023   1.839   1.443   2.271 -0.3053  0.9934  0.2207
  660MOL0     C89024   1.776   1.450   2.399 -0.5423 -0.0255  0.0430
  660MOL0     C89025   1.724   1.310   2.449 -0.1017 -0.8859  0.2000
  660MOL0     C89026   1.625   1.337   2.569 -0.7470  0.2804  0.1091
  660MOL0     C89027   1.597   1.194   2.628  0.4974  0.9782 -0.8347
  660MOL0     C89028   1.525   1.209   2.753 -0.9877 -0.7446 -1.0282
  660MOL0     C89029   1.461   1.221   2.852 -0.5382  0.2386 -0.7866
  660MOL0     C89030   1.654   1.487   2.136  0.4075  0.5347  0.2986
  660MOL0     C89031   1.577   1.473   2.019 -0.6712  0.0217 -0.0971
  660MOL0     C89032   1.473   1.573   1.987  1.0645 -0.2928 -0.2662
  660MOL0     H89033   1.494   1.201   1.586 -1.9133 -2.4013 -2.8521
  660MOL0     H89034   1.404   1.216   1.351  0.4461  0.9591 -3.4719
  660MOL0     H89035   1.276   1.345   1.218 -0.0761 -0.2855  0.4004
  660MOL0     H89036   1.303   1.421   1.068  2.2506  0.9587 -0.3802
  660MOL0     H89037   1.272   1.179   1.037 -0.5273  1.6778 -1.2146
  660MOL0     H89038   1.415   1.144   1.136  0.2889 -0.6232 -0.0910
  660MOL0     H89039   1.556   1.270   0.961 -0.9258  1.5416 -0.5276
  660MOL0     H89040   1.409   1.308   0.877  0.5678 -1.2465 -0.8238
  660MOL0     H89041   1.479   1.025   0.895  0.2190  1.0730  0.0754
  660MOL0     H89042   1.340   1.100   0.825  0.4493 -0.9849 -1.4859
  660MOL0     H89043   1.490   1.056   0.658  2.3403 -1.6489  1.6898
  660MOL0     H89044   1.507   1.232   0.663  2.3135  2.2761  0.7120
  660MOL0     H89045   1.702   1.098   0.637 -0.0992 -1.3566  0.2459
  660MOL0     H89046   1.695   1.247   0.742 -1.2029  0.3985  1.6210
  660MOL0     H89047   1.705   0.975   0.851  0.3140 -0.2781 -0.3152
  660MOL0     H89048   1.682   1.113   0.953 -0.2170 -2.4409 -0.1686
  660MOL0     H89049   1.920   1.179   0.924  0.5498 -1.1046  2.0873
  660MOL0     H89050   1.914   1.004   0.950 -0.6035 -1.5669 -0.7481
  660MOL0     H89051   1.959   1.290   0.718 -1.4771  1.2359 -0.4969
  660MOL0     H89052   2.141   1.175   0.385  3.4282  1.9909 -1.2482
  660MOL0     H89053   2.073   1.317   0.455  1.2621  0.5352 -0.9352
  660MOL0     H89054   2.314   1.178   0.582 -0.6239  0.5888  1.5263
  660MOL0     H89055   2.320   1.296   0.437  0.4887  1.4172  0.5914
  660MOL0     H89056   2.179   1.375   0.702 -1.7370 -1.8010 -2.7747
  660MOL0     H89057   2.259   1.478   0.588  1.6190  2.1609  3.1556
  660MOL0     H89058   2.423   1.300   0.753  2.7143 -0.2810 -2.1299
  660MOL0     H89059   2.399   1.484   0.768 -0.2541 -0.6440 -0.3665
  660MOL0     H89060   2.604   1.465   0.833  1.2474  0.4421  1.3242
  660MOL0     H89061   2.819   1.557   0.874 -1.4017  0.2281  1.2241
  660MOL0     H89062   3.250   1.776   0.463 -2.1095  2.0329  2.2392
  660MOL0     H89063   3.493   1.802   0.471 -1.4036 -2.8507 -4.1789
  660MOL0     H89064   3.700   1.717   0.450  2.3603  2.5918 -0.9504
  660MOL0     H89065   3.816   1.782   0.550  0.1938 -0.5968  0.6316
  660MOL0     H89066   3.864   1.563   0.649  1.2249 -2.5381 -0.4681
  660MOL0     H89067   3.757   1.492   0.532 -2.7009  3.2238 -0.3648
  660MOL0     H89068   3.899   1.540   0.339 -3.8600 -3.9080  1.7927
  660MOL0     H89069   4.010   1.628   0.467 -1.3492  1.2909 -0.0962
  660MOL0     H89070   3.960   1.335   0.421  1.0426 -0.5078  0.9368
  660MOL0     H89071   4.035   1.393   0.564  1.8054 -0.6895 -0.0181
  660MOL0     H89072   4.128   1.521   0.298 -1.9066 -0.0485  0.6873
  660MOL0     H89073   4.166   1.353   0.304 -0.0257 -2.0987  1.5930
  660MOL0     H89074   4.295   1.400   0.520  1.0799  1.6572  0.3378
  660MOL0     H89075   4.367   1.478   0.378  1.0445  0.1214  2.6374
  660MOL0     H89076   4.204   1.615   0.597  1.7030 -1.8535  2.6943
  660MOL0     H89077   4.241   1.696   0.443  0.5679  0.2689  0.9341
  660MOL0     H89078   4.490   1.628   0.501  3.7371  2.3199  1.7317
  660MOL0     H89079   4.406   1.756   0.597 -2.1178 -0.5478 -1.5547
  660MOL0     H89080   3.504   1.545   0.822 -1.6306  2.5935  2.4254
  660MOL0     H89081   3.280   1.507   0.806  2.0247 -1.3980  0.2424
  660MOL0     H89082   2.908   1.548   0.457 -1.2296 -0.0810 -1.3441
  660MOL0     H89083   2.690   1.506   0.404  0.9269  0.4704  0.0026
  660MOL0     H89084   1.669   1.552   1.283  2.3232 -2.6847  0.0328
  660MOL0     H89085   1.741   1.547   1.501 -0.8396  1.8437 -2.3914
  660MOL0     H89086   1.755   1.219   1.878 -0.6100 -0.5968 -0.9255
  660MOL0     H89087   1.885   1.239   2.105 -0.2676  1.2157  3.8964
  660MOL0     H89088   1.691   1.519   2.397  1.6924  2.9369 -0.0936
  660MOL0     H89089   1.841   1.485   2.480 -0.8042  1.8395 -0.5047
  660MOL0     H89090   1.810   1.248   2.474  2.0169  0.0079 -3.9953
  660MOL0     H89091   1.662   1.267   2.370  0.7332 -3.6408  0.9639
  660MOL0     H89092   1.534   1.384   2.532 -0.0398 -0.3863 -2.7863
  660MOL0     H89093   1.660   1.406   2.647 -1.2887 -0.0412  0.6399
  660MOL0     H89094   1.546   1.145   2.545  0.1936  2.3938 -1.5176
  660MOL0     H89095   1.687   1.138   2.655 -2.4280 -3.2470  1.3359
  660MOL0     H89096   1.396   1.223   2.937  0.6378  0.3293  0.1282
  660MOL0     H89097   1.625   1.565   2.206 -0.5170 -1.7891  2.6723
  660MOL0     H89098   1.377   1.521   1.977  1.2254 -0.8177  0.7871
  660MOL0     H89099   1.455   1.644   2.068 -2.4611  0.2513 -1.3830
  660MOL0     H89100   1.503   1.634   1.902  0.2841 -0.2345 -0.5011
  661MOL0     O89101   6.246  10.443   8.493 -0.1081 -0.2164  0.0661
  661MOL0     C89102   6.131  10.491   8.473  0.2458 -0.4030  0.7230
  661MOL0     O89103   6.072  10.580   8.545  0.9977  0.1392 -0.4986
  661MOL0     C89104   6.150  10.634   8.645  0.0832  0.3540  0.5796
  661MOL0     C89105   6.134  10.576   8.768 -0.0659 -0.4911  0.5218
  661MOL0     C89106   6.228  10.612   8.871  0.3788  0.6436 -0.0712
  661MOL0     C89107   6.323  10.712   8.859 -0.8347  0.7682 -0.4358
  661MOL0     O89108   6.400  10.757   8.964 -0.9410 -0.5244  0.7990
  661MOL0     C89109   6.352  10.745   9.102  0.2851  0.2123 -0.3482
  661MOL0     C89110   6.407  10.861   9.193 -0.0286 -0.2699 -0.3891
  661MOL0     C89111   6.406  10.826   9.347  0.9013 -0.2561  0.3481
  661MOL0     C89112   6.505  10.911   9.426 -0.3815 -0.6132  0.1797
  661MOL0     C89113   6.654  10.863   9.430  0.2253  0.4196  0.0574
  661MOL0     C89114   6.741  10.976   9.483  0.4713 -0.5105  0.8927
  661MOL0     C89115   6.889  10.928   9.478  0.3962 -0.2418  0.7536
  661MOL0     C89116   6.990  11.045   9.497  0.3993  0.2275  0.2500
  661MOL0     N89117   7.121  10.987   9.515 -0.7447 -0.4896 -0.0553
  661MOL0     C89118   7.167  10.860   9.476  1.3537  0.5571  0.1647
  661MOL0     C89119   7.287  10.843   9.522  0.0974 -0.9196 -0.3438
  661MOL0     C89120   7.369  10.732   9.511 -0.0922  0.4430  0.3770
  661MOL0     C89121   7.475  10.749   9.387  0.2291 -0.9745  0.3733
  661MOL0     C89122   7.605  10.824   9.423  1.1806  0.2395  0.7223
  661MOL0     C89123   7.697  10.742   9.504 -0.6452  0.9860  0.0528
  661MOL0     O89124   7.821  10.821   9.519 -0.3828  0.6065  0.2038
  661MOL0     C89125   7.938  10.761   9.560 -0.5537 -0.3936  0.2788
  661MOL0     C89126   7.939  10.634   9.620  0.3963  0.8091  0.3681
  661MOL0     C89127   8.056  10.586   9.666  0.2917  0.2740 -0.0529
  661MOL0     C89128   8.177  10.661   9.665 -0.1823  0.0797 -0.7042
  661MOL0     C89129   8.308  10.619   9.713 -0.9132 -0.0478 -0.4571
  661MOL0     O89130   8.412  10.707   9.696  0.4690  0.4293  0.4091
  661MOL0     C89131   8.539  10.675   9.705 -1.3622 -0.2363 -0.4549
  661MOL0     C89132   8.622  10.792   9.727 -0.0378  0.5985  0.0452
  661MOL0     C89133   8.757  10.772   9.748 -0.4268 -0.1161 -0.5528
  661MOL0     C89134   8.818  10.647   9.749  0.1039 -0.3798  0.8231
  661MOL0     O89135   8.943  10.641   9.802 -0.2883 -0.1361 -0.7775
  661MOL0     C89136   8.972  10.533   9.899 -0.1925 -0.3313 -0.4128
  661MOL0     C89137   9.072  10.585  10.007 -0.2746  1.1914 -0.0795
  661MOL0     C89138   9.038  10.724  10.068  0.6791  0.2495  0.6089
  661MOL0     C89139   9.109  10.833  10.009 -0.2182 -0.1992  0.4591
  661MOL0     C89140   9.060  10.961  10.070  0.2792 -0.8896  0.4183
  661MOL0     C89141   9.128  11.081   9.999  1.7280  0.3660  0.2857
  661MOL0     C89142   9.066  11.213  10.045  0.0394  0.3877  0.4172
  661MOL0     C89143   9.066  11.236  10.195  0.1501  0.1917  0.5248
  661MOL0    Cl89144   9.224  11.279  10.267  0.4955 -0.0315 -0.0690
  661MOL0     C89145   8.743  10.529   9.718 -0.0336  0.1508  1.1734
  661MOL0     C89146   8.604  10.549   9.687 -0.2259 -0.2175 -0.1387
  661MOL0     O89147   8.324  10.503   9.738 -0.3811 -0.1503 -0.8070
  661MOL0     C89148   8.170  10.791   9.607 -0.6673 -0.9161  0.2849
  661MOL0     C89149   8.052  10.839   9.558 -0.6409  0.4423 -0.6894
  661MOL0     N89150   7.320  10.964   9.585 -0.3457 -0.2190  0.3241
  661MOL0     N89151   7.221  11.048   9.579  0.4890  0.5715  0.3475
  661MOL0     C89152   6.327  10.782   8.734  0.6511  1.1129  0.5383
  661MOL0     C89153   6.250  10.729   8.620 -0.8162 -0.9716 -0.0218
  661MOL0     C89154   6.052  10.425   8.364  0.5500 -0.1648  0.6227
  661MOL0     C89155   5.925  10.373   8.398  0.4505  0.1755  0.3916
  661MOL0     C89156   5.845  10.313   8.304  0.2072  0.3875  0.9068
  661MOL0     C89157   5.887  10.300   8.170  0.0010 -0.0421  0.2358
  661MOL0     O89158   5.807  10.263   8.071 -0.3558 -0.3395  0.3009
  661MOL0     C89159   5.676  10.234   8.101  0.4159  0.4791  0.1754
  661MOL0     C89160   5.610  10.168   7.980 -0.0520 -0.1447  1.1770
  661MOL0     C89161   5.457  10.163   8.013 -0.1084 -0.4503  0.2879
  661MOL0     C89162   5.377  10.097   7.904 -0.0830 -0.2015  0.0743
  661MOL0     C89163   5.398   9.952   7.895  0.4080  0.2860  0.1025
  661MOL0     C89164   5.417   9.829   7.896 -0.5282  0.0941 -0.7980
  661MOL0     C89165   6.017  10.348   8.133 -0.1153  0.3992  0.6164
  661MOL0     C89166   6.095  10.411   8.228 -0.5759  0.0501 -0.0195
  661MOL0     C89167   6.228  10.478   8.175 -0.1660  0.3445  0.1498
  661MOL0     H89168   6.062  10.496   8.784  0.3085 -1.0786 -0.6548
  661MOL0     H89169   6.217  10.575   8.973  0.5293  5.5612  2.0187
  661MOL0     H89170   6.243  10.743   9.111  0.2765  2.0721  0.5473
  661MOL0     H89171   6.397  10.654   9.143  4.2480  2.1252  0.0472
  661MOL0     H89172   6.348  10.952   9.179 -0.4534 -0.8906 -3.2783
  661MOL0     H89173   6.512  10.882   9.174  0.0502  1.4837  1.6195
  661MOL0     H89174   6.427  10.721   9.367  1.1112 -0.7870 -2.3976
  661MOL0     H89175   6.307  10.847   9.388  0.5625 -1.1314 -0.0059
  661MOL0     H89176   6.509  11.011   9.380 -0.9231 -1.0516 -0.8565
  661MOL0     H89177   6.468  10.931   9.527 -2.2831 -2.1050 -0.1611
  661MOL0     H89178   6.669  10.768   9.483  0.2465  0.4722  0.1468
  661MOL0     H89179   6.673  10.831   9.327  1.2894 -1.8632  0.8930
  661MOL0     H89180   6.731  11.063   9.417  2.5515 -0.5076  0.5015
  661MOL0     H89181   6.728  11.010   9.586 -2.1639 -2.7509  1.4086
  661MOL0     H89182   6.925  10.881   9.386 -0.1703 -1.9356  1.3659
  661MOL0     H89183   6.905  10.858   9.560 -4.5743  0.0191  2.2944
  661MOL0     H89184   6.993  11.104   9.405  0.5431 -1.8153 -1.1083
  661MOL0     H89185   6.961  11.111   9.580 -2.1788 -3.0503  2.2428
  661MOL0     H89186   7.117  10.777   9.427  2.3240  0.5630 -0.8784
  661MOL0     H89187   7.419  10.709   9.606 -3.3570 -0.0756  2.1270
  661MOL0     H89188   7.311  10.640   9.500  3.6783 -1.9851 -1.3409
  661MOL0     H89189   7.492  10.656   9.331 -1.8655 -0.8330 -0.6109
  661MOL0     H89190   7.423  10.815   9.317  0.6989 -1.5491 -0.5404
  661MOL0     H89191   7.593  10.916   9.482  0.0265 -0.9456  2.4438
  661MOL0     H89192   7.649  10.863   9.331 -0.9562  0.0602 -0.4201
  661MOL0     H89193   7.722  10.647   9.455  1.4880  0.8660  1.2332
  661MOL0     H89194   7.646  10.720   9.598 -3.5609  4.3209 -0.5413
  661MOL0     H89195   7.848  10.578   9.640  1.5949 -0.8455  1.4738
  661MOL0     H89196   8.052  10.485   9.706  2.8665 -0.8608 -2.3645
  661MOL0     H89197   8.577  10.890   9.735  2.5482  2.1153 -2.6224
  661MOL0     H89198   8.810  10.863   9.772 -1.0129  0.7448 -2.3437
  661MOL0     H89199   8.882  10.500   9.953  0.3320 -1.7692 -0.3865
  661MOL0     H89200   9.026  10.457   9.844 -1.7921 -0.6795 -1.5659
  661MOL0     H89201   9.069  10.518  10.093  2.1483 -0.8133 -1.4228
  661MOL0     H89202   9.177  10.580   9.976  1.4999  2.5933  4.8451
  661MOL0     H89203   8.931  10.739  10.048  1.0230 -0.6502 -2.4374
  661MOL0     H89204   9.046  10.722  10.177 -0.1590 -1.5489  0.6879
  661MOL0     H89205   9.089  10.826   9.902  2.2881 -2.0230 -0.0126
  661MOL0     H89206   9.217  10.815  10.016  0.3727  2.8414  0.6402
  661MOL0     H89207   9.085  10.949  10.176  0.1302 -1.3002  0.4075
  661MOL0     H89208   8.951  10.962  10.061  0.3385  1.6930 -1.0211
  661MOL0     H89209   9.234  11.081  10.024  1.7940 -2.5617  0.4109
  661MOL0     H89210   9.115  11.067   9.891 -2.7711 -1.5017  0.8123
  661MOL0     H89211   8.961  11.210  10.015  0.0388  0.7803  0.3814
  661MOL0     H89212   9.114  11.297   9.994 -0.4313  1.4001  1.5808
  661MOL0     H89213   8.998  11.320  10.208  0.7134  0.9748 -1.2863
  661MOL0     H89214   9.029  11.145  10.242 -0.3649  0.8704  1.4620
  661MOL0     H89215   8.789  10.432   9.731 -1.3687 -0.3193  2.7329
  661MOL0     H89216   8.548  10.461   9.657 -0.5477 -0.3002  0.6786
  661MOL0     H89217   8.253  10.861   9.605 -0.7196 -0.8352  0.8237
  661MOL0     H89218   8.055  10.938   9.514 -2.9834  1.7075  1.7545
  661MOL0     H89219   6.403  10.857   8.717  2.8900 -1.4424 -1.7928
  661MOL0     H89220   6.266  10.761   8.518 -1.1892  1.1233  0.5239
  661MOL0     H89221   5.895  10.370   8.502 -1.9092  1.9911 -0.1583
  661MOL0     H89222   5.751  10.278   8.345  0.5267 -1.2267  0.3505
  661MOL0     H89223   5.631  10.328   8.135 -0.3593  0.1513  0.0961
  661MOL0     H89224   5.661  10.161   8.182 -3.6624 -1.4479 -1.9704
  661MOL0     H89225   5.646  10.066   7.967  1.7442  0.6659 -0.6549
  661MOL0     H89226   5.622  10.232   7.892 -2.5526 -1.8798 -0.5458
  661MOL0     H89227   5.411  10.261   8.030  0.8375 -0.4346  3.3280
  661MOL0     H89228   5.444  10.104   8.104  1.8278  1.3531  1.8326
  661MOL0     H89229   5.271  10.118   7.925 -0.3695 -1.5348  0.0446
  661MOL0     H89230   5.410  10.146   7.812  0.5980  0.7286  0.8006
  661MOL0     H89231   5.441   9.725   7.894  0.8267  0.1819  2.7867
  661MOL0     H89232   6.051  10.349   8.030  0.7251 -1.0497  0.8415
  661MOL0     H89233   6.300  10.416   8.230 -3.7366 -2.4503  2.0574
  661MOL0     H89234   6.239  10.481   8.066 -0.3564  0.8899  0.1398
  661MOL0     H89235   6.242  10.584   8.199  0.5416  0.5921 -1.2158
  662MOL0     O89236   5.236   4.982   8.510  0.2621 -0.3695  0.3433
  662MOL0     C89237   5.300   4.889   8.572  0.3324  0.0026  0.3999
  662MOL0     O89238   5.228   4.776   8.627  0.1146 -0.1591  0.2630
  662MOL0     C89239   5.089   4.779   8.618 -0.4054 -0.2588 -0.3191
  662MOL0     C89240   5.016   4.673   8.577  0.4873 -0.5391 -0.6475
  662MOL0     C89241   4.873   4.664   8.597  0.0599  0.2083  0.7793
  662MOL0     C89242   4.807   4.762   8.662  0.4157 -0.7700 -0.2397
  662MOL0     O89243   4.667   4.760   8.666 -0.5083  0.0165 -0.6354
  662MOL0     C89244   4.612   4.831   8.777  0.5064  0.0366 -0.4908
  662MOL0     C89245   4.478   4.779   8.833  0.8949 -0.6216 -0.2403
  662MOL0     C89246   4.353   4.792   8.732  0.6121 -0.3766  0.2228
  662MOL0     C89247   4.215   4.769   8.806 -0.8873  0.3996 -0.5785
  662MOL0     C89248   4.102   4.844   8.726  0.1555  0.1082  0.0127
  662MOL0     C89249   4.095   4.831   8.575 -0.4121 -0.4381 -0.1250
  662MOL0     C89250   4.061   4.684   8.540  0.7650  1.5227  0.1557
  662MOL0     C89251   4.036   4.659   8.392  0.0634  0.7203  0.7920
  662MOL0     N89252   4.176   4.668   8.339  0.8719 -0.0623  0.5185
  662MOL0     C89253   4.288   4.609   8.389 -0.5912  0.6211  0.5664
  662MOL0     C89254   4.390   4.639   8.303  0.2720 -0.3126  0.5554
  662MOL0     C89255   4.524   4.570   8.281  0.3162 -0.0329  0.0613
  662MOL0     C89256   4.638   4.663   8.246 -0.0874  0.1354 -0.5196
  662MOL0     C89257   4.764   4.587   8.198 -0.2992  1.2038 -0.0346
  662MOL0     C89258   4.851   4.674   8.106  0.8586  0.4041  0.0785
  662MOL0     O89259   4.957   4.602   8.058  0.4590  0.0329  0.6444
  662MOL0     C89260   5.074   4.622   8.125  0.0561 -0.0061  0.6421
  662MOL0     C89261   5.130   4.525   8.209 -0.0620 -0.8092 -0.1569
  662MOL0     C89262   5.256   4.541   8.267 -0.5475 -0.2988  0.0828
  662MOL0     C89263   5.329   4.653   8.240  0.8400  0.0795 -0.7400
  662MOL0     C89264   5.470   4.662   8.297  0.0125  0.4323  0.1657
  662MOL0     O89265   5.546   4.775   8.267  0.5731  0.0887  0.6615
  662MOL0     C89266   5.676   4.796   8.307 -0.5028  0.8960 -0.2358
  662MOL0     C89267   5.763   4.703   8.379 -0.2343 -0.4081 -0.4024
  662MOL0     C89268   5.891   4.757   8.408  0.3595  0.6770 -0.1185
  662MOL0     C89269   5.934   4.879   8.368  0.0902 -0.2884 -0.3883
  662MOL0     O89270   6.067   4.895   8.378 -1.1364  0.3543 -0.6128
  662MOL0     C89271   6.126   5.002   8.302  0.3302  0.4062  0.2600
  662MOL0     C89272   6.272   5.003   8.320  0.2466 -0.2869  0.6601
  662MOL0     C89273   6.310   5.004   8.466 -0.2781  0.2495 -0.6805
  662MOL0     C89274   6.458   5.048   8.476 -0.5514  0.0692 -0.1613
  662MOL0     C89275   6.554   4.971   8.386 -0.1753 -0.2293  0.1165
  662MOL0     C89276   6.574   4.822   8.438  0.1816  0.0003 -0.2210
  662MOL0     C89277   6.645   4.798   8.570  0.7384 -0.1015 -1.0458
  662MOL0     C89278   6.613   4.658   8.625 -0.4257 -0.0281 -0.2797
  662MOL0    Cl89279   6.698   4.544   8.520  0.7242  0.0558  0.2763
  662MOL0     C89280   5.848   4.965   8.296 -0.2188  0.0142  0.2754
  662MOL0     C89281   5.722   4.920   8.254 -0.6277 -0.3888 -0.7183
  662MOL0     O89282   5.507   4.561   8.350 -0.7343 -0.5487 -0.1419
  662MOL0     C89283   5.274   4.758   8.163 -0.9752 -0.0942  0.3978
  662MOL0     C89284   5.149   4.739   8.100 -0.2045  0.2705  1.0624
  662MOL0     N89285   4.337   4.726   8.210  0.7974 -0.0620  0.2759
  662MOL0     N89286   4.212   4.751   8.236 -0.5481  0.7870  0.4819
  662MOL0     C89287   4.884   4.877   8.698  0.3218  0.4121 -0.5202
  662MOL0     C89288   5.021   4.885   8.676  0.0480  0.7523  1.0366
  662MOL0     C89289   5.444   4.915   8.606 -0.1638 -0.7671 -0.3675
  662MOL0     C89290   5.488   5.048   8.603 -0.0811  0.2870 -0.4343
  662MOL0     C89291   5.617   5.085   8.642 -1.0074  0.4947 -0.4419
  662MOL0     C89292   5.713   4.995   8.696  0.6140 -0.3714 -0.2902
  662MOL0     O89293   5.832   5.023   8.755  0.3371  0.0492  0.2807
  662MOL0     C89294   5.874   5.158   8.743  0.0566  0.2759  0.9931
  662MOL0     C89295   6.007   5.174   8.810 -0.1582  0.8727  0.9941
  662MOL0     C89296   6.073   5.318   8.804 -1.2297  1.5509  0.0147
  662MOL0     C89297   6.009   5.438   8.874 -0.5417 -0.0743  0.1950
  662MOL0     C89298   5.918   5.512   8.785  0.2995  0.3669  0.5233
  662MOL0     C89299   5.869   5.577   8.690  0.2524 -0.4179 -0.2110
  662MOL0     C89300   5.665   4.858   8.692 -0.0202 -0.1149 -0.9647
  662MOL0     C89301   5.531   4.818   8.655 -1.0038 -1.3178 -0.0411
  662MOL0     C89302   5.501   4.678   8.669  0.4711  0.1296 -0.9758
  662MOL0     H89303   5.063   4.576   8.564  0.3858 -0.8159  0.8101
  662MOL0     H89304   4.824   4.577   8.554 -1.8767  0.5914  2.1054
  662MOL0     H89305   4.691   4.835   8.853 -1.4888  2.6999  1.6521
  662MOL0     H89306   4.600   4.934   8.743  0.6634  0.0302 -0.5691
  662MOL0     H89307   4.451   4.847   8.914 -0.6376  0.6259 -1.7262
  662MOL0     H89308   4.490   4.672   8.856 -0.2457 -0.5313  0.8470
  662MOL0     H89309   4.363   4.719   8.651  3.1496 -1.1769  1.1474
  662MOL0     H89310   4.348   4.891   8.684  0.4683 -0.7739 -0.6050
  662MOL0     H89311   4.180   4.665   8.806 -3.8607  1.2766  1.1760
  662MOL0     H89312   4.215   4.804   8.910 -1.9193  2.7789 -1.3137
  662MOL0     H89313   4.001   4.817   8.757 -1.3228  2.1564 -2.6231
  662MOL0     H89314   4.102   4.951   8.749 -1.6106 -0.1802  1.6543
  662MOL0     H89315   4.020   4.903   8.539 -1.7717 -1.7540  0.0018
  662MOL0     H89316   4.190   4.865   8.532 -1.3340  3.4163  0.5220
  662MOL0     H89317   3.967   4.669   8.593  0.6498 -0.9794 -0.6335
  662MOL0     H89318   4.140   4.615   8.573 -1.1676 -0.7174  0.3547
  662MOL0     H89319   3.988   4.566   8.360 -0.2059  1.0451  0.2282
  662MOL0     H89320   3.964   4.733   8.356  0.6810  1.0512  0.2044
  662MOL0     H89321   4.296   4.530   8.463 -0.7538 -0.8861 -0.9543
  662MOL0     H89322   4.554   4.514   8.370  0.3096 -2.6889 -1.5052
  662MOL0     H89323   4.504   4.505   8.196  1.1265  0.7254 -0.7409
  662MOL0     H89324   4.602   4.729   8.167 -2.9497 -0.0298  0.5456
  662MOL0     H89325   4.663   4.725   8.332 -0.8166  1.7558 -1.4316
  662MOL0     H89326   4.746   4.502   8.130  3.3621  1.7973 -2.0364
  662MOL0     H89327   4.812   4.542   8.285 -1.8483 -1.0055 -0.2322
  662MOL0     H89328   4.886   4.764   8.156  3.1017 -1.4459  2.0934
  662MOL0     H89329   4.790   4.719   8.027  2.1816  3.5058  0.6906
  662MOL0     H89330   5.068   4.439   8.230 -1.4356 -0.1507 -1.2645
  662MOL0     H89331   5.282   4.456   8.330 -2.4193 -1.9545 -1.2311
  662MOL0     H89332   5.734   4.605   8.413  0.3452 -0.2706  0.5391
  662MOL0     H89333   5.960   4.692   8.460 -0.0473 -1.5622 -2.1797
  662MOL0     H89334   6.111   4.976   8.197 -0.8280 -0.7007  0.6714
  662MOL0     H89335   6.089   5.101   8.328 -0.7488  0.4262 -1.2486
  662MOL0     H89336   6.312   4.925   8.255  2.3992  0.6151  0.8245
  662MOL0     H89337   6.317   5.094   8.278 -1.1566  0.4174  0.6254
  662MOL0     H89338   6.251   5.080   8.518 -0.7643  0.4836 -1.5545
  662MOL0     H89339   6.285   4.908   8.513 -0.4165  0.8345  0.4636
  662MOL0     H89340   6.487   5.039   8.581 -0.7859  0.6409 -0.0437
  662MOL0     H89341   6.473   5.152   8.447  0.5930  0.5833  2.0136
  662MOL0     H89342   6.652   5.018   8.398 -1.3620  3.0556 -1.6677
  662MOL0     H89343   6.531   4.987   8.280 -1.1073  1.4151  0.5345
  662MOL0     H89344   6.480   4.766   8.441  0.0198  0.2995  0.4902
  662MOL0     H89345   6.640   4.768   8.371  2.9076  1.3041  1.2283
  662MOL0     H89346   6.616   4.866   8.650  1.2877 -1.2110  0.1321
  662MOL0     H89347   6.754   4.809   8.558  0.4884  3.1622 -0.9538
  662MOL0     H89348   6.641   4.638   8.729 -2.0155 -2.1795 -0.1851
  662MOL0     H89349   6.504   4.651   8.619 -0.7827  3.8406 -0.3831
  662MOL0     H89350   5.880   5.064   8.265 -0.3172 -0.3222 -0.9285
  662MOL0     H89351   5.645   4.983   8.210  0.2713  1.0225 -0.3089
  662MOL0     H89352   5.335   4.847   8.151 -2.1565  1.0186  2.2046
  662MOL0     H89353   5.127   4.814   8.024 -0.2256 -1.1137 -0.3521
  662MOL0     H89354   4.832   4.965   8.732 -2.2271 -1.6125  1.2778
  662MOL0     H89355   5.075   4.975   8.704 -0.4111  1.5101 -0.4204
  662MOL0     H89356   5.420   5.124   8.566 -0.4875 -0.1689 -0.6367
  662MOL0     H89357   5.640   5.191   8.640 -0.9788  0.5567  1.7025
  662MOL0     H89358   5.803   5.224   8.795  0.1735  1.3669 -0.1934
  662MOL0     H89359   5.882   5.188   8.639  0.1283  0.2252  0.9845
  662MOL0     H89360   6.081   5.107   8.766 -0.4044  2.6159 -2.4024
  662MOL0     H89361   5.998   5.149   8.916 -0.6635 -0.9641  0.5601
  662MOL0     H89362   6.097   5.341   8.700  0.3537  0.6253  0.1412
  662MOL0     H89363   6.173   5.300   8.844 -1.6502 -2.5080 -0.2754
  662MOL0     H89364   5.947   5.397   8.955 -1.9452 -1.2697 -1.4198
  662MOL0     H89365   6.090   5.506   8.903  0.1217 -1.1660  0.9677
  662MOL0     H89366   5.826   5.639   8.614 -0.6357  1.5968  1.8092
  662MOL0     H89367   5.740   4.788   8.727  2.1084  1.6247 -1.8125
  662MOL0     H89368   5.598   4.627   8.672  2.9749  4.4261 -0.9661
  662MOL0     H89369   5.446   4.663   8.762  2.4274 -3.2726 -0.1647
  662MOL0     H89370   5.450   4.638   8.580 -2.3748 -1.0938  1.0778
  663MOL0     O89371   0.187  10.172  11.362  0.0760  0.3154  0.1793
  663MOL0     C89372   0.083  10.136  11.420 -1.2354  0.4302 -0.2011
  663MOL0     O89373   0.079  10.037  11.514  0.1766  0.4430 -0.7584
  663MOL0     C89374   0.186   9.999  11.590 -1.1289 -1.0283  0.2065
  663MOL0     C89375   0.306  10.070  11.607  0.1024 -0.0621  0.0123
  663MOL0     C89376   0.413  10.002  11.668  0.2922 -0.7339  0.1336
  663MOL0     C89377   0.405   9.890  11.744  0.6165  0.9757 -0.0055
  663MOL0     O89378   0.493   9.842  11.835 -0.6242 -0.8535  1.4870
  663MOL0     C89379   0.598   9.938  11.875  0.7331 -0.4987  0.4541
  663MOL0     C89380   0.706   9.872  11.950  0.1509  0.4125  0.0892
  663MOL0     C89381   0.796   9.792  11.855 -0.7613  0.1376 -0.4264
  663MOL0     C89382   0.880   9.888  11.765  0.3176 -0.2545 -0.4094
  663MOL0     C89383   0.989   9.825  11.687  1.5552  0.3267 -0.1100
  663MOL0     C89384   1.120   9.821  11.752 -0.2503 -0.3591  0.2384
  663MOL0     C89385   1.226   9.778  11.642  0.4080 -0.1074 -0.3495
  663MOL0     C89386   1.354   9.710  11.705 -0.4513 -0.1972  0.4646
  663MOL0     N89387   1.441   9.810  11.763 -0.8778  0.1904 -0.2615
  663MOL0     C89388   1.526   9.891  11.686  0.6711 -0.4326 -0.6468
  663MOL0     C89389   1.584   9.970  11.770 -1.3495  0.4496 -0.8236
  663MOL0     C89390   1.666  10.101  11.746 -0.6685  0.8855 -0.3765
  663MOL0     C89391   1.818  10.068  11.710 -0.5967 -0.1385  0.4376
  663MOL0     C89392   1.892  10.188  11.743 -0.5059 -0.2425  0.2603
  663MOL0     C89393   2.038  10.161  11.698  0.8963  0.1243  0.4336
  663MOL0     O89394   2.040  10.131  11.561  0.1268  0.4800  0.6423
  663MOL0     C89395   2.159  10.079  11.511  0.8245  0.7796  0.2520
  663MOL0     C89396   2.168  10.040  11.373 -0.4882  0.3505 -0.2593
  663MOL0     C89397   2.275   9.977  11.309 -1.1585  0.1396 -0.1864
  663MOL0     C89398   2.388   9.945  11.396  0.0173  0.5583 -0.2860
  663MOL0     C89399   2.508   9.864  11.352 -0.3610  0.6046  0.2225
  663MOL0     O89400   2.613   9.848  11.443  0.2541  0.4563 -0.8070
  663MOL0     C89401   2.737   9.791  11.409  0.4936  0.3782 -0.0973
  663MOL0     C89402   2.741   9.669  11.344 -1.3948 -0.1880  0.2686
  663MOL0     C89403   2.872   9.617  11.306 -0.2140  0.5604  0.1239
  663MOL0     C89404   2.991   9.678  11.345  0.3658 -0.4022 -0.6466
  663MOL0     O89405   3.107   9.630  11.290  0.7915 -0.1434  1.3892
  663MOL0     C89406   3.232   9.643  11.355 -0.5738  1.1015  0.4622
  663MOL0     C89407   3.332   9.556  11.278  0.5038 -0.1816  0.0671
  663MOL0     C89408   3.469   9.587  11.348 -0.0722 -0.6892  0.6215
  663MOL0     C89409   3.587   9.508  11.278  0.0254 -0.7763 -1.0401
  663MOL0     C89410   3.722   9.521  11.353  0.0385 -0.9103  0.0283
  663MOL0     C89411   3.821   9.424  11.280  0.3234 -0.2309  0.1596
  663MOL0     C89412   3.953   9.411  11.354 -0.0727  0.7463  0.6571
  663MOL0     C89413   4.064   9.358  11.252  0.6381  0.0912  0.0080
  663MOL0    Cl89414   4.199   9.290  11.349  0.8118  0.0331 -0.2996
  663MOL0     C89415   2.977   9.796  11.419  0.3942  0.3526  0.7527
  663MOL0     C89416   2.858   9.853  11.451  0.8615  0.5049  0.4371
  663MOL0     O89417   2.511   9.817  11.235 -1.1484  0.1034 -0.3971
  663MOL0     C89418   2.382   9.980  11.530  0.0577 -1.3521  0.1829
  663MOL0     C89419   2.275  10.054  11.586 -0.6993 -0.0997  0.4529
  663MOL0     N89420   1.549   9.942  11.909 -0.4753  0.0403  0.8203
  663MOL0     N89421   1.446   9.849  11.898 -0.4194 -0.5624 -0.2940
  663MOL0     C89422   0.283   9.819  11.728  0.5501 -0.9891  0.3622
  663MOL0     C89423   0.179   9.878  11.649  0.6113  0.5693 -0.0145
  663MOL0     C89424  -0.046  10.187  11.371  0.1373  0.0447  1.0944
  663MOL0     C89425  -0.144  10.104  11.335  0.1471 -0.0735 -0.2199
  663MOL0     C89426  -0.263  10.138  11.266 -0.5751 -0.4166 -0.6478
  663MOL0     C89427  -0.290  10.278  11.248  0.7525  0.6822  0.1003
  663MOL0     O89428  -0.416  10.312  11.198  0.8514  0.0957  0.6214
  663MOL0     C89429  -0.445  10.453  11.167 -0.0201 -0.3093 -0.0073
  663MOL0     C89430  -0.588  10.483  11.123 -0.8543 -0.2110  0.1765
  663MOL0     C89431  -0.658  10.410  11.008 -0.3843  0.2811  0.2531
  663MOL0     C89432  -0.629  10.501  10.881  0.2191  0.7293 -0.2417
  663MOL0     C89433  -0.491  10.505  10.838 -0.3161 -0.5442  0.2864
  663MOL0     C89434  -0.375  10.516  10.799 -0.7691 -0.1789 -0.0387
  663MOL0     C89435  -0.192  10.360  11.278  0.2366 -0.4229 -0.7391
  663MOL0     C89436  -0.076  10.320  11.332 -0.2574  0.4815 -0.6485
  663MOL0     C89437   0.032  10.431  11.351  0.7081 -0.4425  0.5100
  663MOL0     H89438   0.321  10.171  11.569  1.0635  0.7368  2.3217
  663MOL0     H89439   0.510  10.049  11.654 -0.2172 -0.4413 -3.1592
  663MOL0     H89440   0.636   9.987  11.785 -2.8201  2.9436  0.5424
  663MOL0     H89441   0.556  10.014  11.942 -2.2904  1.3073 -3.1210
  663MOL0     H89442   0.657   9.812  12.027  0.2689 -1.0835 -0.9560
  663MOL0     H89443   0.758   9.954  12.000 -1.1266  1.5966 -0.4591
  663MOL0     H89444   0.746   9.720  11.789 -1.6891  0.0314  0.3541
  663MOL0     H89445   0.867   9.739  11.919 -1.4829  0.6269  0.8069
  663MOL0     H89446   0.811   9.940  11.697  1.9180  2.6749  0.0372
  663MOL0     H89447   0.927   9.969  11.822 -0.5243  2.3090 -3.0926
  663MOL0     H89448   0.953   9.725  11.660 -0.4380  1.5185 -2.1867
  663MOL0     H89449   1.013   9.875  11.593  2.3809 -0.9936 -0.6368
  663MOL0     H89450   1.147   9.924  11.775  3.0284 -0.6222 -1.7053
  663MOL0     H89451   1.134   9.753  11.836  5.0889  0.2439  0.2186
  663MOL0     H89452   1.241   9.867  11.581 -2.3029 -0.2642 -1.3732
  663MOL0     H89453   1.187   9.704  11.572 -0.8474  1.4807 -1.3939
  663MOL0     H89454   1.311   9.649  11.785 -0.8232  0.9454  1.1584
  663MOL0     H89455   1.411   9.668  11.621  1.6400  3.7173 -0.3059
  663MOL0     H89456   1.536   9.890  11.578 -1.4160  1.1034 -0.9142
  663MOL0     H89457   1.624  10.163  11.666 -1.4866  1.6031  0.5738
  663MOL0     H89458   1.669  10.168  11.832 -0.3143  1.7292 -1.0303
  663MOL0     H89459   1.862   9.990  11.773  0.5110  0.7193  0.7614
  663MOL0     H89460   1.830  10.025  11.610  2.1935  4.7445 -1.6591
  663MOL0     H89461   1.890  10.202  11.851 -0.0729  0.4035  0.1919
  663MOL0     H89462   1.859  10.279  11.693 -0.8025 -0.9339 -0.8258
  663MOL0     H89463   2.069  10.072  11.752 -1.3827 -0.1650  1.3705
  663MOL0     H89464   2.097  10.246  11.734 -0.1884  1.4243 -0.7049
  663MOL0     H89465   2.087  10.063  11.305 -2.3000 -1.6887  1.1037
  663MOL0     H89466   2.261   9.952  11.204 -1.5861  0.2772 -0.1632
  663MOL0     H89467   2.653   9.607  11.332 -3.6198  2.6767  0.5297
  663MOL0     H89468   2.888   9.525  11.250 -1.2018 -0.3426  1.2453
  663MOL0     H89469   3.258   9.750  11.356  0.0510  0.9580  1.5495
  663MOL0     H89470   3.220   9.599  11.455 -2.5125 -1.8751 -0.9517
  663MOL0     H89471   3.320   9.449  11.295 -1.1503 -0.1256 -0.5724
  663MOL0     H89472   3.319   9.573  11.171 -0.8741 -2.4384 -0.1685
  663MOL0     H89473   3.481   9.695  11.333  0.2136 -0.8970 -0.8107
  663MOL0     H89474   3.456   9.556  11.452 -1.5903 -0.3573  0.5441
  663MOL0     H89475   3.591   9.547  11.175  0.8681  1.8280 -0.1000
  663MOL0     H89476   3.565   9.401  11.267 -1.4034 -0.6466  0.3443
  663MOL0     H89477   3.710   9.490  11.457  2.1277  1.8125  1.2239
  663MOL0     H89478   3.754   9.626  11.348  1.9264 -1.4700 -0.4665
  663MOL0     H89479   3.772   9.327  11.287 -0.2096  0.0736  0.6884
  663MOL0     H89480   3.838   9.459  11.178  4.0644  0.7083  0.9547
  663MOL0     H89481   3.944   9.339  11.436 -0.7703  1.8290  1.5620
  663MOL0     H89482   3.980   9.501  11.410  5.7077  0.7063 -1.4498
  663MOL0     H89483   4.026   9.287  11.178 -0.3712  1.3458 -0.7228
  663MOL0     H89484   4.099   9.446  11.197 -0.1379  0.6884  0.4393
  663MOL0     H89485   3.072   9.838  11.452  0.2656  0.6572  0.7364
  663MOL0     H89486   2.860   9.953  11.493  5.5661  0.8416 -0.0818
  663MOL0     H89487   2.470   9.964  11.591  0.1145 -0.7018  0.2731
  663MOL0     H89488   2.291  10.096  11.685 -0.9811  0.2019  0.3724
  663MOL0     H89489   0.268   9.727  11.783 -0.5667 -0.4090  1.0670
  663MOL0     H89490   0.090   9.817  11.637  1.1170 -0.5723  1.7472
  663MOL0     H89491  -0.112  10.000  11.344  2.8054  0.3962 -2.8007
  663MOL0     H89492  -0.336  10.064  11.235 -1.4380 -0.0581  0.4663
  663MOL0     H89493  -0.371  10.486  11.092 -0.7954  2.6368  0.3904
  663MOL0     H89494  -0.427  10.505  11.261  0.3611 -2.1643  0.9825
  663MOL0     H89495  -0.591  10.591  11.108  3.3022 -0.3160 -2.7837
  663MOL0     H89496  -0.641  10.443  11.210 -0.1362 -2.7268 -0.4528
  663MOL0     H89497  -0.766  10.395  11.020 -0.8602  2.8562 -0.2467
  663MOL0     H89498  -0.622  10.308  10.991 -0.9324 -0.1563  1.5851
  663MOL0     H89499  -0.689  10.461  10.798  0.2536  2.5244 -1.1872
  663MOL0     H89500  -0.676  10.598  10.899 -1.1427 -0.3957  2.9583
  663MOL0     H89501  -0.273  10.520  10.768 -0.3816  0.5982  1.2951
  663MOL0     H89502  -0.201  10.464  11.249 -0.6136  0.0000  0.9230
  663MOL0     H89503   0.029  10.482  11.448 -0.7277 -2.2524  1.5089
  663MOL0     H89504   0.126  10.391  11.314  0.1204 -1.0317 -0.3888
  663MOL0     H89505   0.001  10.513  11.287 -0.7428  0.3974  2.1912
  664MOL0     O89506   3.936   8.149   4.630 -0.1077  0.0881 -0.1345
  664MOL0     C89507   3.864   8.236   4.594 -0.3414  0.4369  0.7999
  664MOL0     O89508   3.875   8.370   4.639  0.2036  0.6665 -0.1261
  664MOL0     C89509   3.955   8.410   4.737  0.1344  0.6357 -0.9651
  664MOL0     C89510   4.070   8.491   4.721  0.5816  0.0787 -0.3934
  664MOL0     C89511   4.149   8.525   4.832 -0.1949 -0.9687 -0.1714
  664MOL0     C89512   4.125   8.467   4.958 -0.6742 -0.2140 -0.3684
  664MOL0     O89513   4.193   8.473   5.077 -0.5932 -0.1412  0.4246
  664MOL0     C89514   4.339   8.470   5.059  0.5288  0.7663  0.1155
  664MOL0     C89515   4.386   8.330   5.031 -0.1689  0.8312 -1.0458
  664MOL0     C89516   4.541   8.331   5.027 -0.3748  0.8048 -0.1327
  664MOL0     C89517   4.598   8.225   4.932 -0.0751  0.2213 -0.5534
  664MOL0     C89518   4.748   8.204   4.933  0.3360 -0.0904 -1.0630
  664MOL0     C89519   4.824   8.322   4.872  0.3014  0.6058  0.3385
  664MOL0     C89520   4.982   8.312   4.900  1.2344  0.1833 -0.5590
  664MOL0     C89521   5.060   8.422   4.826 -0.0223  0.6250  0.2697
  664MOL0     N89522   5.208   8.410   4.846  0.0411 -0.2433  0.4479
  664MOL0     C89523   5.291   8.491   4.923  0.2557  0.4005  0.6426
  664MOL0     C89524   5.415   8.447   4.925 -0.1333  0.7969 -0.1830
  664MOL0     C89525   5.529   8.509   5.001  0.3413  1.0885 -0.2740
  664MOL0     C89526   5.670   8.448   4.974 -0.6534 -0.2534 -0.6081
  664MOL0     C89527   5.766   8.542   5.041  0.2158 -0.3370 -0.0370
  664MOL0     C89528   5.910   8.487   5.032  0.0939  0.0947  0.6326
  664MOL0     O89529   6.002   8.548   5.128  0.0757 -0.8903  0.0362
  664MOL0     C89530   6.130   8.530   5.101  0.1415  0.4065  0.6611
  664MOL0     C89531   6.224   8.610   5.171  0.4753 -0.6809  0.3787
  664MOL0     C89532   6.355   8.622   5.119 -1.1995  0.3768  0.8580
  664MOL0     C89533   6.409   8.531   5.025  1.5619  1.5633  0.1566
  664MOL0     C89534   6.551   8.521   4.998  0.1007  0.4370  0.3430
  664MOL0     O89535   6.627   8.605   5.083  0.4647 -0.4135 -0.7342
  664MOL0     C89536   6.765   8.601   5.074 -0.5769  0.1528 -0.8098
  664MOL0     C89537   6.831   8.477   5.068  0.6917  0.7436  0.5771
  664MOL0     C89538   6.967   8.465   5.086 -0.1256  0.3380 -0.0038
  664MOL0     C89539   7.047   8.579   5.115  0.8939 -1.1312  0.2570
  664MOL0     O89540   7.176   8.582   5.164  0.3992  0.5302 -0.5209
  664MOL0     C89541   7.233   8.453   5.183 -0.0717  0.2620 -0.4687
  664MOL0     C89542   7.384   8.470   5.214  0.4363  0.4686  0.1097
  664MOL0     C89543   7.464   8.453   5.082  0.9582 -0.1494  0.0637
  664MOL0     C89544   7.603   8.519   5.101 -0.4851  0.2354 -0.4178
  664MOL0     C89545   7.691   8.458   5.215 -0.9697  0.9384  0.1125
  664MOL0     C89546   7.829   8.520   5.211 -0.4690  0.2053 -0.1066
  664MOL0     C89547   7.901   8.465   5.345  0.2285 -0.7874  0.5801
  664MOL0     C89548   8.035   8.545   5.350  0.0092 -0.0438 -0.7855
  664MOL0    Cl89549   8.129   8.456   5.470  0.1031  0.3143 -0.0888
  664MOL0     C89550   6.978   8.709   5.117 -0.2407 -0.3793  0.0031
  664MOL0     C89551   6.842   8.715   5.087 -0.2029  0.3995 -0.4498
  664MOL0     O89552   6.591   8.456   4.902  0.0791  0.5303  0.8921
  664MOL0     C89553   6.316   8.441   4.966  0.3224  0.0720  0.5627
  664MOL0     C89554   6.179   8.438   5.005 -0.3584  0.3978 -0.3220
  664MOL0     N89555   5.407   8.333   4.841  0.9898 -0.3461  0.3886
  664MOL0     N89556   5.290   8.314   4.798 -0.6570 -0.6233  0.0985
  664MOL0     C89557   4.015   8.380   4.966  0.5633  0.4788  0.5283
  664MOL0     C89558   3.934   8.356   4.857 -0.2553 -0.4915 -0.7351
  664MOL0     C89559   3.763   8.208   4.486 -0.2491 -0.6041 -0.5404
  664MOL0     C89560   3.715   8.317   4.414 -0.2197  0.2611 -0.3442
  664MOL0     C89561   3.607   8.308   4.322  1.2587  0.3033  0.1681
  664MOL0     C89562   3.566   8.178   4.282 -0.1862  0.3814 -0.1925
  664MOL0     O89563   3.457   8.156   4.196 -0.1021 -0.0958 -0.3364
  664MOL0     C89564   3.367   8.262   4.166  0.2795 -0.6202  0.5821
  664MOL0     C89565   3.233   8.222   4.102  0.5323 -0.0375 -0.3471
  664MOL0     C89566   3.158   8.134   4.204 -0.2610  0.4971  0.2834
  664MOL0     C89567   3.015   8.110   4.167  0.7477 -1.0325 -0.2103
  664MOL0     C89568   2.981   8.077   4.027 -0.2514  0.4245 -0.1208
  664MOL0     C89569   2.947   8.070   3.913 -1.0237  0.1974  0.6921
  664MOL0     C89570   3.623   8.068   4.340  0.9040  1.0656 -0.1214
  664MOL0     C89571   3.725   8.079   4.438  0.1551 -0.0572 -0.2434
  664MOL0     C89572   3.803   7.955   4.486 -0.9897  0.4621 -0.0637
  664MOL0     H89573   4.093   8.526   4.621 -0.7631 -2.0239 -1.5211
  664MOL0     H89574   4.232   8.595   4.827 -0.3530 -0.7665  0.0203
  664MOL0     H89575   4.366   8.537   4.977  0.2139 -0.4151 -0.9799
  664MOL0     H89576   4.394   8.501   5.148  1.6268 -1.2633  0.2101
  664MOL0     H89577   4.353   8.288   4.935  2.6872  1.6243 -2.4899
  664MOL0     H89578   4.348   8.269   5.113  1.4814  2.4994  1.0785
  664MOL0     H89579   4.579   8.314   5.128  0.9978  3.2214 -0.1579
  664MOL0     H89580   4.570   8.426   4.981 -2.1173  0.8676 -1.1950
  664MOL0     H89581   4.545   8.131   4.952  1.3750 -0.0921  2.5240
  664MOL0     H89582   4.575   8.272   4.836 -0.0412 -1.1430 -1.2446
  664MOL0     H89583   4.780   8.198   5.038  0.7822 -1.5813 -1.2549
  664MOL0     H89584   4.770   8.109   4.885 -2.2110 -0.6770 -1.1903
  664MOL0     H89585   4.819   8.317   4.763  3.9335 -1.9007  0.1184
  664MOL0     H89586   4.794   8.421   4.907  0.7185  0.6837  0.4762
  664MOL0     H89587   5.015   8.217   4.858 -1.3663 -0.9859 -0.1877
  664MOL0     H89588   5.007   8.338   5.003 -0.3578  1.8718 -0.5358
  664MOL0     H89589   5.044   8.397   4.721  2.8543 -1.5748  0.2185
  664MOL0     H89590   4.999   8.512   4.837 -2.7984 -0.8194 -1.9287
  664MOL0     H89591   5.270   8.589   4.966 -0.5354  0.4464  0.1709
  664MOL0     H89592   5.528   8.613   4.968 -0.1927  1.4286  0.7811
  664MOL0     H89593   5.517   8.514   5.109 -0.4170  0.7367 -0.3335
  664MOL0     H89594   5.672   8.347   5.016  2.8261 -1.5495 -3.3319
  664MOL0     H89595   5.692   8.444   4.867 -1.4394  0.5731 -0.8128
  664MOL0     H89596   5.739   8.559   5.145 -1.4945 -0.5525 -0.4210
  664MOL0     H89597   5.779   8.637   4.989  4.8187 -0.6821  0.0624
  664MOL0     H89598   5.939   8.512   4.930  0.5173  1.1231  0.9962
  664MOL0     H89599   5.916   8.378   5.034  2.2212  0.1286 -0.9136
  664MOL0     H89600   6.200   8.657   5.265  1.5595 -0.5008  0.5842
  664MOL0     H89601   6.422   8.680   5.181 -1.2811 -1.0504  2.3425
  664MOL0     H89602   6.777   8.384   5.057  1.7012 -0.0799  2.2122
  664MOL0     H89603   7.002   8.363   5.078  0.8528  0.5948  0.8688
  664MOL0     H89604   7.185   8.392   5.259  0.2235 -0.1013 -0.5693
  664MOL0     H89605   7.222   8.394   5.091 -0.3791 -1.4306  0.6128
  664MOL0     H89606   7.393   8.569   5.259  0.8422 -0.4637  2.1896
  664MOL0     H89607   7.429   8.396   5.282  0.7996  0.8518  0.2873
  664MOL0     H89608   7.487   8.351   5.050  1.2425 -0.7048  1.9198
  664MOL0     H89609   7.409   8.492   4.996  1.7670 -0.1169 -0.4419
  664MOL0     H89610   7.596   8.628   5.111 -0.7400  0.2119 -0.3437
  664MOL0     H89611   7.654   8.499   5.006  1.7446  2.1057  0.2938
  664MOL0     H89612   7.697   8.351   5.195  0.9375  0.1824  3.8171
  664MOL0     H89613   7.655   8.472   5.317  0.5963  1.6102  0.5904
  664MOL0     H89614   7.885   8.489   5.122  0.5629 -0.3834  0.7135
  664MOL0     H89615   7.834   8.629   5.212  0.1257  0.1993  1.6554
  664MOL0     H89616   7.923   8.360   5.328  2.1962 -0.3478  0.2055
  664MOL0     H89617   7.838   8.479   5.433 -0.3163 -1.2028  0.2629
  664MOL0     H89618   8.091   8.547   5.256  2.8688  1.9056  0.8104
  664MOL0     H89619   8.020   8.646   5.387 -1.4813  0.1647 -1.8905
  664MOL0     H89620   7.035   8.798   5.143  3.8866 -2.2065 -1.8006
  664MOL0     H89621   6.795   8.813   5.081  0.9047  0.8965 -1.6709
  664MOL0     H89622   6.348   8.380   4.883  1.3706  1.8569 -0.4062
  664MOL0     H89623   6.106   8.374   4.956 -0.2086  1.1220 -1.5440
  664MOL0     H89624   3.987   8.340   5.063 -0.3880  2.0158  0.9188
  664MOL0     H89625   3.841   8.300   4.871  1.1180 -3.4128 -2.3758
  664MOL0     H89626   3.755   8.415   4.438 -2.1890  0.8561  0.7521
  664MOL0     H89627   3.567   8.398   4.277 -0.6012 -0.9522 -0.8211
  664MOL0     H89628   3.420   8.313   4.085 -0.1391 -3.1994 -1.4181
  664MOL0     H89629   3.348   8.327   4.252 -1.7391 -1.2483  0.6634
  664MOL0     H89630   3.250   8.160   4.014 -1.0595  0.5070 -1.0813
  664MOL0     H89631   3.164   8.303   4.073  2.1107  1.5723  0.1839
  664MOL0     H89632   3.150   8.190   4.297 -5.1393  0.3713  0.1661
  664MOL0     H89633   3.216   8.042   4.217 -1.6343 -0.5756 -0.8175
  664MOL0     H89634   2.964   8.031   4.224  1.5849 -1.1665  0.3668
  664MOL0     H89635   2.960   8.203   4.184  0.2128 -1.9608  4.7332
  664MOL0     H89636   2.927   8.044   3.811  2.1446 -4.0733  0.8763
  664MOL0     H89637   3.575   7.973   4.315  0.7788  0.9644  0.4889
  664MOL0     H89638   3.772   7.860   4.440  1.7648 -0.9878  0.8455
  664MOL0     H89639   3.907   7.970   4.455 -1.7391  0.9789 -2.5458
  664MOL0     H89640   3.790   7.943   4.594  0.5342  2.9953  0.4740
  665MOL0     O89641   4.754   4.062   0.581  0.1722  0.3038  0.0611
  665MOL0     C89642   4.753   4.104   0.694  0.2988  0.0954 -0.1765
  665MOL0     O89643   4.816   4.209   0.733 -0.3074 -0.5806  0.0883
  665MOL0     C89644   4.914   4.279   0.667 -0.7563  0.7417 -0.2493
  665MOL0     C89645   4.951   4.412   0.688  0.2957  0.0759  0.0536
  665MOL0     C89646   5.055   4.476   0.622 -0.6049  0.2195 -1.3233
  665MOL0     C89647   5.121   4.422   0.522 -0.0181 -0.5536  0.7976
  665MOL0     O89648   5.210   4.509   0.460  0.1319  0.1004 -0.5232
  665MOL0     C89649   5.332   4.449   0.405  0.9463 -0.0272  0.5089
  665MOL0     C89650   5.428   4.424   0.512  0.3959  0.5198  0.3857
  665MOL0     C89651   5.567   4.385   0.439  0.5221  0.0660  0.1482
  665MOL0     C89652   5.669   4.326   0.544 -0.1305 -0.2927 -0.3743
  665MOL0     C89653   5.817   4.314   0.516  0.4154 -0.4096  0.9122
  665MOL0     C89654   5.900   4.266   0.626  0.1366  0.2670  0.0699
  665MOL0     C89655   6.028   4.195   0.585 -0.4184  0.3075  0.1012
  665MOL0     C89656   6.098   4.145   0.711  0.4626 -0.1129 -0.1226
  665MOL0     N89657   6.214   4.066   0.673  0.6304  0.6004  0.5125
  665MOL0     C89658   6.314   4.121   0.602 -0.1314  0.1851 -0.6031
  665MOL0     C89659   6.388   4.019   0.560  0.5000  0.4531  0.3909
  665MOL0     C89660   6.519   4.028   0.485  0.4529 -0.0223  0.3353
  665MOL0     C89661   6.636   4.051   0.582 -0.1493 -0.3581  0.5919
  665MOL0     C89662   6.716   3.927   0.605  0.0417  0.0633 -0.3090
  665MOL0     C89663   6.823   3.966   0.707 -0.0650 -0.2563 -0.0646
  665MOL0     O89664   6.943   4.026   0.650 -0.3617  0.0369  0.2407
  665MOL0     C89665   7.062   3.956   0.631  0.4052  0.8984 -0.2332
  665MOL0     C89666   7.176   4.011   0.691 -0.5314  0.3156  0.2813
  665MOL0     C89667   7.307   3.960   0.673  1.0731 -0.1026 -0.7216
  665MOL0     C89668   7.325   3.852   0.583 -0.6935  0.8721  0.8665
  665MOL0     C89669   7.456   3.778   0.564  0.5931 -0.3106  0.4393
  665MOL0     O89670   7.556   3.824   0.648  0.5519 -0.2100 -0.5240
  665MOL0     C89671   7.685   3.786   0.647  0.0756 -0.2901 -0.2758
  665MOL0     C89672   7.750   3.750   0.524  0.1951  0.8878  0.3471
  665MOL0     C89673   7.886   3.733   0.518  0.2461  0.5653 -0.5368
  665MOL0     C89674   7.966   3.753   0.630  0.4060  0.7658  0.3467
  665MOL0     O89675   8.100   3.727   0.631  0.0124  0.0827 -0.0198
  665MOL0     C89676   8.133   3.629   0.728  0.2526 -0.4610 -0.0881
  665MOL0     C89677   8.259   3.555   0.679  0.2126 -1.3586  0.8162
  665MOL0     C89678   8.355   3.499   0.783  0.4526 -0.1137  1.9214
  665MOL0     C89679   8.452   3.394   0.715  0.2685  0.0908  0.7389
  665MOL0     C89680   8.556   3.338   0.807  0.3684  0.0052 -0.2033
  665MOL0     C89681   8.684   3.294   0.741 -0.8133  0.0217  0.5287
  665MOL0     C89682   8.802   3.265   0.840 -0.4585  0.0941 -0.1429
  665MOL0     C89683   8.779   3.150   0.933  0.3122  0.2847  0.5131
  665MOL0    Cl89684   8.931   3.083   0.983 -0.4361 -0.0899 -0.2396
  665MOL0     C89685   7.906   3.806   0.745 -0.1044 -0.1455 -0.3662
  665MOL0     C89686   7.773   3.825   0.751 -0.3043  0.2578 -0.5713
  665MOL0     O89687   7.465   3.685   0.482 -0.1150  0.4350  0.0437
  665MOL0     C89688   7.210   3.805   0.505 -0.7743  0.3090 -0.3876
  665MOL0     C89689   7.083   3.851   0.533  0.2799  0.1671 -0.1834
  665MOL0     N89690   6.317   3.899   0.593 -0.0737 -0.0131  0.2832
  665MOL0     N89691   6.210   3.933   0.654 -0.4598  0.0771 -0.4238
  665MOL0     C89692   5.083   4.291   0.481  0.3373 -0.1598  0.0576
  665MOL0     C89693   4.987   4.220   0.557 -0.1289  0.5792 -0.7873
  665MOL0     C89694   4.654   4.043   0.787  0.4909  0.6770 -0.8189
  665MOL0     C89695   4.584   4.142   0.861  0.0066  0.0150  0.4942
  665MOL0     C89696   4.476   4.106   0.948  0.7539  1.0541 -0.2150
  665MOL0     C89697   4.445   3.962   0.954 -0.3526  0.2277  0.0771
  665MOL0     O89698   4.349   3.909   1.032  0.4406 -0.4412 -0.0530
  665MOL0     C89699   4.272   3.988   1.120  0.9633 -0.0748  0.9732
  665MOL0     C89700   4.198   3.890   1.219  0.0386  0.1636  0.1016
  665MOL0     C89701   4.087   3.811   1.134  1.2138 -0.3046  0.1204
  665MOL0     C89702   4.089   3.651   1.163 -0.7657  0.4545 -0.7645
  665MOL0     C89703   4.214   3.592   1.103  0.1395  0.1872 -0.9068
  665MOL0     C89704   4.295   3.518   1.056 -0.3005 -0.6283  0.1725
  665MOL0     C89705   4.519   3.873   0.884 -0.0266  0.0486  0.3447
  665MOL0     C89706   4.622   3.905   0.795  0.5253 -1.3151 -0.0466
  665MOL0     C89707   4.717   3.802   0.741 -0.0683  0.5271 -0.6368
  665MOL0     H89708   4.909   4.462   0.774 -1.0189 -2.0590  0.7517
  665MOL0     H89709   5.092   4.570   0.660  0.3996 -0.1460 -1.3588
  665MOL0     H89710   5.306   4.358   0.350 -2.6285  0.2794  1.4228
  665MOL0     H89711   5.379   4.514   0.331 -1.4121 -1.0205 -2.0332
  665MOL0     H89712   5.386   4.345   0.575 -0.3488  0.6920  0.1079
  665MOL0     H89713   5.440   4.519   0.564  1.3759  0.3522  0.4884
  665MOL0     H89714   5.607   4.475   0.391  0.3119 -0.1741 -0.4927
  665MOL0     H89715   5.553   4.303   0.368  0.7781  0.4726 -0.3798
  665MOL0     H89716   5.673   4.392   0.631  0.8345 -1.1950  0.2859
  665MOL0     H89717   5.630   4.234   0.588 -3.3386 -0.3150 -2.8983
  665MOL0     H89718   5.828   4.255   0.424 -0.0180  1.1306 -0.1691
  665MOL0     H89719   5.859   4.413   0.493 -0.8881 -0.0872 -0.1995
  665MOL0     H89720   5.937   4.343   0.695 -0.4226 -0.1125  0.8039
  665MOL0     H89721   5.837   4.194   0.678 -2.7208  1.6565 -1.2597
  665MOL0     H89722   6.101   4.263   0.541 -0.8367  1.3067  0.8840
  665MOL0     H89723   6.014   4.119   0.509  2.1045 -1.8300  1.6124
  665MOL0     H89724   6.130   4.235   0.764 -2.1788  0.1498  1.1676
  665MOL0     H89725   6.030   4.079   0.766  0.4985 -2.2578 -2.4140
  665MOL0     H89726   6.344   4.225   0.594  2.4551 -0.5153 -0.8971
  665MOL0     H89727   6.536   3.942   0.420  2.3843  0.9355 -0.5239
  665MOL0     H89728   6.496   4.111   0.418 -2.2387  0.4428  1.7005
  665MOL0     H89729   6.707   4.124   0.542  1.1277 -2.4771 -1.2579
  665MOL0     H89730   6.593   4.095   0.672  0.4829  2.1830 -0.2562
  665MOL0     H89731   6.775   3.895   0.519 -1.8364  1.1769 -2.0989
  665MOL0     H89732   6.661   3.841   0.646 -0.1770  1.4476  2.5465
  665MOL0     H89733   6.857   3.871   0.747  0.5002 -1.0429 -2.2782
  665MOL0     H89734   6.780   4.020   0.792 -2.4074 -4.4815  1.7557
  665MOL0     H89735   7.170   4.065   0.785  3.6522  2.7222 -0.5664
  665MOL0     H89736   7.385   3.993   0.740  0.2673  0.0650  0.1588
  665MOL0     H89737   7.694   3.733   0.432 -1.1473 -1.2953  1.4989
  665MOL0     H89738   7.932   3.697   0.427 -1.5130 -0.5719 -1.0193
  665MOL0     H89739   8.155   3.661   0.830 -0.1137 -1.7000  0.3874
  665MOL0     H89740   8.048   3.564   0.752 -0.2387  0.0646 -0.3511
  665MOL0     H89741   8.235   3.476   0.606  1.6689 -2.1772  1.1790
  665MOL0     H89742   8.317   3.631   0.626 -0.6609 -0.1107  1.6010
  665MOL0     H89743   8.414   3.577   0.830  1.6736  0.8782 -1.0072
  665MOL0     H89744   8.290   3.448   0.855 -2.3184 -1.0001 -0.9563
  665MOL0     H89745   8.515   3.452   0.647 -0.6611 -2.0100 -2.1181
  665MOL0     H89746   8.399   3.314   0.662  0.8575  0.3988 -0.3502
  665MOL0     H89747   8.512   3.255   0.863 -1.2891 -2.0647 -4.2002
  665MOL0     H89748   8.597   3.419   0.868  1.6833 -0.2389 -0.7300
  665MOL0     H89749   8.666   3.203   0.683  0.2065  0.6012 -0.7551
  665MOL0     H89750   8.722   3.366   0.668 -2.2307  1.2637  0.9626
  665MOL0     H89751   8.799   3.351   0.907  0.9027  1.3910 -1.6593
  665MOL0     H89752   8.897   3.260   0.787  1.8451 -0.3618  3.6857
  665MOL0     H89753   8.736   3.180   1.029 -0.2779  1.1881 -0.0204
  665MOL0     H89754   8.726   3.083   0.865  1.0592 -0.8078  0.9772
  665MOL0     H89755   7.977   3.829   0.823  3.9111 -2.2613 -2.9738
  665MOL0     H89756   7.745   3.873   0.844  0.9002  1.2964 -0.7130
  665MOL0     H89757   7.230   3.736   0.423  0.0709 -0.7152  0.6488
  665MOL0     H89758   6.996   3.808   0.484  0.1075  0.2620  0.0356
  665MOL0     H89759   5.129   4.266   0.386  0.7064 -0.9469  0.4347
  665MOL0     H89760   4.968   4.128   0.504  1.7134  0.6632 -1.6798
  665MOL0     H89761   4.616   4.245   0.856  0.2778 -0.0777 -4.4972
  665MOL0     H89762   4.421   4.182   1.001  2.7536  0.8956  2.3096
  665MOL0     H89763   4.202   4.053   1.067  1.2209  1.3482  2.3239
  665MOL0     H89764   4.333   4.061   1.173  2.2909 -0.3668 -0.0950
  665MOL0     H89765   4.153   3.951   1.298  1.4901  2.3846 -0.6832
  665MOL0     H89766   4.279   3.828   1.258 -0.3705 -0.7609 -0.4931
  665MOL0     H89767   4.095   3.833   1.027 -0.6364 -1.5908 -0.3347
  665MOL0     H89768   3.991   3.854   1.166  1.9990  0.8929  0.9261
  665MOL0     H89769   4.096   3.637   1.271  5.6882  1.1583 -0.7348
  665MOL0     H89770   3.995   3.599   1.141 -0.4678  0.2389 -1.5395
  665MOL0     H89771   4.373   3.454   1.021  1.3581  1.7774 -0.8123
  665MOL0     H89772   4.508   3.769   0.914  2.3975  0.0784  1.6057
  665MOL0     H89773   4.808   3.801   0.802 -0.0601 -0.4613 -0.6531
  665MOL0     H89774   4.680   3.699   0.747  0.6282  0.2974 -0.1743
  665MOL0     H89775   4.743   3.823   0.637  1.9337  2.8018  0.2197
  666MOL0     O89776   9.439  10.955   9.152  0.7484  0.0193 -0.1453
  666MOL0     C89777   9.421  10.996   9.042 -1.2082  0.0216  0.0513
  666MOL0     O89778   9.488  10.950   8.931  0.2371  0.0031  0.1934
  666MOL0     C89779   9.600  10.875   8.952  0.6245 -1.4414 -0.0811
  666MOL0     C89780   9.614  10.734   8.946  0.1577 -0.5709 -0.3495
  666MOL0     C89781   9.737  10.678   8.971  0.4802 -0.2605 -0.4220
  666MOL0     C89782   9.853  10.753   8.990 -0.1732 -0.5642 -0.0630
  666MOL0     O89783   9.968  10.676   9.018  0.4695 -0.2924  0.9999
  666MOL0     C89784  10.009  10.689   9.155 -0.3275  0.3947 -0.3424
  666MOL0     C89785  10.150  10.626   9.152  0.2692 -1.0830 -0.1772
  666MOL0     C89786  10.245  10.714   9.054 -1.1499  0.3733 -0.2749
  666MOL0     C89787  10.278  10.856   9.100  0.7361 -0.3590  0.1821
  666MOL0     C89788  10.376  10.929   9.009  0.8490  0.5387 -0.4967
  666MOL0     C89789  10.333  10.968   8.858  0.4713 -0.2861 -0.6946
  666MOL0     C89790  10.187  11.019   8.839 -0.0067  0.1015 -0.1628
  666MOL0     C89791  10.168  11.077   8.706 -0.5521  0.5394  0.3236
  666MOL0     N89792  10.037  11.147   8.690 -0.0250 -0.1177  0.3107
  666MOL0     C89793   9.918  11.085   8.664  0.0564 -0.3809 -0.2796
  666MOL0     C89794   9.826  11.183   8.650  0.8505  0.2602  0.4230
  666MOL0     C89795   9.678  11.154   8.631 -0.3389  0.1723  0.8342
  666MOL0     C89796   9.641  11.196   8.492 -0.7155  0.0874  0.0232
  666MOL0     C89797   9.501  11.151   8.466 -0.3925  0.0340 -0.3730
  666MOL0     C89798   9.449  11.192   8.325 -0.4651  0.9625 -0.5827
  666MOL0     O89799   9.309  11.218   8.325  0.1383  0.4066 -0.3099
  666MOL0     C89800   9.243  11.261   8.211  0.0277  0.0114  0.1444
  666MOL0     C89801   9.112  11.221   8.194  0.0973  0.1411  1.7514
  666MOL0     C89802   9.042  11.254   8.073  0.2148 -0.7423  1.1194
  666MOL0     C89803   9.099  11.334   7.970 -0.1600 -0.5492  0.1356
  666MOL0     C89804   9.030  11.378   7.847 -0.9194  0.0752 -0.6739
  666MOL0     O89805   8.894  11.347   7.841  0.2699  0.4344  0.4404
  666MOL0     C89806   8.819  11.403   7.741  0.7333 -0.0033 -0.1994
  666MOL0     C89807   8.840  11.515   7.660 -0.5902  0.3231 -0.7789
  666MOL0     C89808   8.749  11.547   7.558  0.3830 -0.1822 -0.0097
  666MOL0     C89809   8.623  11.482   7.541 -0.0300  0.7131  0.5453
  666MOL0     O89810   8.524  11.523   7.451 -0.5681  0.4106 -0.6208
  666MOL0     C89811   8.397  11.457   7.418 -0.0409 -0.1649 -0.8691
  666MOL0     C89812   8.331  11.521   7.288  0.8587  0.6838  0.3684
  666MOL0     C89813   8.195  11.458   7.256  0.4856  0.2321 -0.5761
  666MOL0     C89814   8.186  11.316   7.206 -0.5376 -0.1199  0.1960
  666MOL0     C89815   8.044  11.291   7.144 -0.6414  0.0120  0.4380
  666MOL0     C89816   8.014  11.139   7.121  0.1168 -0.2522 -0.5841
  666MOL0     C89817   7.882  11.123   7.051 -0.6755  0.1663 -0.0015
  666MOL0     C89818   7.871  10.985   6.991 -1.0588  0.2621 -0.3296
  666MOL0    Cl89819   7.856  10.872   7.128  0.3761  0.0077  0.1158
  666MOL0     C89820   8.602  11.374   7.629  0.4002  0.3963  0.0793
  666MOL0     C89821   8.704  11.328   7.717  0.8044 -0.4372 -0.4947
  666MOL0     O89822   9.102  11.436   7.757  0.1637  0.6272  0.2106
  666MOL0     C89823   9.237  11.374   8.000 -0.1931  0.7501  0.4428
  666MOL0     C89824   9.310  11.338   8.119  0.7646  0.5364 -0.0707
  666MOL0     N89825   9.895  11.306   8.662  0.5321  0.0920 -1.0224
  666MOL0     N89826  10.023  11.285   8.692  0.5525  0.6183 -0.0109
  666MOL0     C89827   9.841  10.891   8.987 -0.0291 -0.5172 -0.7624
  666MOL0     C89828   9.718  10.949   8.964  1.2559 -0.6876 -0.5345
  666MOL0     C89829   9.304  11.077   9.027 -0.0525 -0.3150  0.0801
  666MOL0     C89830   9.240  11.130   9.146 -1.4219  0.6260  0.4497
  666MOL0     C89831   9.139  11.216   9.135  0.3615  0.6354 -0.4923
  666MOL0     C89832   9.075  11.241   9.011  0.0469  0.7018  0.5850
  666MOL0     O89833   8.962  11.322   8.998  0.5560 -0.2742 -0.1291
  666MOL0     C89834   8.949  11.432   9.085  0.4582  0.6614  0.0463
  666MOL0     C89835   8.810  11.488   9.075 -0.5489 -0.0080  0.5141
  666MOL0     C89836   8.760  11.557   8.946 -0.7717  0.3391 -1.0291
  666MOL0     C89837   8.613  11.604   8.934 -0.0406  0.3449 -0.4669
  666MOL0     C89838   8.592  11.660   8.802  0.3158 -0.0100 -0.0284
  666MOL0     C89839   8.580  11.697   8.691  0.6398  0.4411 -0.1729
  666MOL0     C89840   9.127  11.185   8.896  0.4329  0.1534 -0.3002
  666MOL0     C89841   9.241  11.106   8.906 -0.8490 -0.3604  0.1115
  666MOL0     C89842   9.299  11.071   8.775  0.7881  0.5936  0.2263
  666MOL0     H89843   9.525  10.676   8.926 -1.2471  1.4066 -0.2027
  666MOL0     H89844   9.758  10.572   8.976  6.4462  0.5316 -1.7334
  666MOL0     H89845  10.003  10.792   9.190  0.6156  0.3434 -0.0066
  666MOL0     H89846   9.940  10.637   9.223 -1.1362  2.6458  0.6472
  666MOL0     H89847  10.135  10.522   9.120 -1.8039 -0.7641 -0.3970
  666MOL0     H89848  10.186  10.632   9.256 -0.1276  1.6272 -0.1286
  666MOL0     H89849  10.202  10.730   8.955 -0.6723  0.2695 -0.5026
  666MOL0     H89850  10.337  10.659   9.029 -0.3627  2.1418 -1.4582
  666MOL0     H89851  10.191  10.922   9.099  1.2030  0.2758  0.4736
  666MOL0     H89852  10.321  10.856   9.201  1.6395  0.4849 -0.1872
  666MOL0     H89853  10.377  11.024   9.063  0.1170  0.6480 -0.6638
  666MOL0     H89854  10.471  10.875   9.009  0.1996 -0.7000 -1.8810
  666MOL0     H89855  10.402  11.038   8.810 -2.0033  1.5612 -1.8147
  666MOL0     H89856  10.351  10.876   8.801  0.6933  0.0242 -1.1321
  666MOL0     H89857  10.167  11.083   8.925  1.0953 -1.2732  1.1771
  666MOL0     H89858  10.118  10.935   8.848 -2.5742  2.2098  1.6131
  666MOL0     H89859  10.259  11.128   8.673  1.0268 -1.4607  1.4109
  666MOL0     H89860  10.160  10.990   8.639 -1.4105  1.2470 -0.5266
  666MOL0     H89861   9.903  10.977   8.667  0.6901 -0.5172 -1.3882
  666MOL0     H89862   9.661  11.047   8.642  3.9566 -0.7341  0.5218
  666MOL0     H89863   9.626  11.221   8.700 -0.6877  1.6040 -0.7666
  666MOL0     H89864   9.652  11.304   8.482  0.4838 -0.2256 -3.4747
  666MOL0     H89865   9.719  11.164   8.422  1.3123  2.8240  0.8381
  666MOL0     H89866   9.444  11.201   8.545  3.0762  0.7910  1.9089
  666MOL0     H89867   9.484  11.045   8.484 -0.9364  0.0569 -0.7421
  666MOL0     H89868   9.478  11.112   8.256  0.0232 -0.9244  1.6898
  666MOL0     H89869   9.509  11.278   8.291 -0.1943  2.2581  2.8178
  666MOL0     H89870   9.063  11.165   8.273  0.3511 -0.8417  1.2309
  666MOL0     H89871   8.940  11.218   8.066  0.2553 -0.6697  0.0957
  666MOL0     H89872   8.926  11.579   7.681  0.8406 -2.0693  1.3353
  666MOL0     H89873   8.769  11.632   7.493  2.4406  0.8820  1.8845
  666MOL0     H89874   8.415  11.351   7.397 -2.7391 -1.0963  1.0717
  666MOL0     H89875   8.336  11.476   7.506  0.3717  1.0533 -0.8210
  666MOL0     H89876   8.315  11.621   7.331 -2.4951  0.2654  0.3910
  666MOL0     H89877   8.400  11.519   7.203  0.2346 -0.6936 -0.1443
  666MOL0     H89878   8.138  11.461   7.349  3.0892  1.5559  1.0890
  666MOL0     H89879   8.135  11.512   7.183 -2.1867 -1.4494  0.1998
  666MOL0     H89880   8.206  11.244   7.286  0.7146 -0.1528 -0.1146
  666MOL0     H89881   8.265  11.310   7.130 -1.5754 -0.1794 -0.8966
  666MOL0     H89882   8.045  11.360   7.058 -0.2269  0.0803  0.4950
  666MOL0     H89883   7.976  11.321   7.223  3.4671  1.4414  3.8344
  666MOL0     H89884   8.085  11.090   7.053  1.4562  0.6983  0.0845
  666MOL0     H89885   8.013  11.089   7.219  2.4725  0.0692 -0.3323
  666MOL0     H89886   7.878  11.193   6.966 -1.8403  2.1557  1.6011
  666MOL0     H89887   7.805  11.152   7.123  1.8832 -0.3388  3.1908
  666MOL0     H89888   7.784  10.988   6.925 -1.4174  0.6734  0.1538
  666MOL0     H89889   7.955  10.968   6.923  1.3802  1.7467  2.0965
  666MOL0     H89890   8.512  11.313   7.626  0.6003  0.1265 -2.0880
  666MOL0     H89891   8.659  11.259   7.788 -2.0044  0.8764 -0.8413
  666MOL0     H89892   9.297  11.430   7.929  0.5428  1.9150  1.9383
  666MOL0     H89893   9.411  11.378   8.124  0.0428  2.5696 -0.6165
  666MOL0     H89894   9.933  10.948   8.987 -0.3960  0.1217  1.2810
  666MOL0     H89895   9.703  11.057   8.960  1.3412 -0.7146 -2.5266
  666MOL0     H89896   9.289  11.119   9.242  0.1365 -2.4046 -0.5496
  666MOL0     H89897   9.110  11.268   9.226  1.7869  0.7449 -0.0801
  666MOL0     H89898   9.026  11.504   9.055  1.0663 -0.1985 -0.5480
  666MOL0     H89899   8.964  11.411   9.191 -1.0034  0.2035  0.1796
  666MOL0     H89900   8.803  11.563   9.154 -0.3544  2.6427 -1.8140
  666MOL0     H89901   8.741  11.411   9.111  1.7496 -1.1910  2.7054
  666MOL0     H89902   8.781  11.484   8.867  0.6683 -0.5010  0.0729
  666MOL0     H89903   8.823  11.644   8.922  1.6735 -1.1619 -0.4277
  666MOL0     H89904   8.547  11.519   8.950 -2.0462  1.4867 -2.2238
  666MOL0     H89905   8.594  11.680   9.011 -3.5857 -0.5029 -0.3641
  666MOL0     H89906   8.570  11.748   8.597 -1.4383 -3.0058 -2.0608
  666MOL0     H89907   9.083  11.203   8.799 -1.3832  1.4244  0.7063
  666MOL0     H89908   9.280  10.965   8.757  0.2410  0.3567  2.0245
  666MOL0     H89909   9.258  11.126   8.690  0.1921 -0.2133 -0.0129
  666MOL0     H89910   9.406  11.089   8.766  1.1021 -1.9855 -2.9895
  667MOL0     O89911   8.848   4.790   1.273  0.9341 -0.1587  0.6848
  667MOL0     C89912   8.834   4.818   1.393  0.1421 -0.2036 -0.9217
  667MOL0     O89913   8.946   4.827   1.478  0.5381 -0.7186 -0.0768
  667MOL0     C89914   9.066   4.773   1.437  0.0333  0.4530 -0.4248
  667MOL0     C89915   9.201   4.821   1.453  0.3245  0.3781 -0.2614
  667MOL0     C89916   9.311   4.759   1.398 -0.0235  0.7765 -0.1620
  667MOL0     C89917   9.295   4.636   1.331 -0.6105 -0.9594  0.6884
  667MOL0     O89918   9.393   4.548   1.287 -0.0192 -0.4795 -0.1621
  667MOL0     C89919   9.503   4.616   1.227  1.3663  0.1589  0.0705
  667MOL0     C89920   9.633   4.559   1.261 -0.4484  0.1112  0.1428
  667MOL0     C89921   9.752   4.637   1.216 -0.5564 -1.0710 -0.2031
  667MOL0     C89922   9.879   4.545   1.216 -0.1604  0.8544 -0.0563
  667MOL0     C89923  10.010   4.627   1.206 -0.0629  0.6459  0.2940
  667MOL0     C89924  10.137   4.542   1.193  0.6624  0.6172 -0.3584
  667MOL0     C89925  10.265   4.629   1.181 -0.7497  0.5211 -0.9198
  667MOL0     C89926  10.389   4.541   1.178  0.4397 -0.0825 -0.6820
  667MOL0     N89927  10.501   4.617   1.233 -0.1841  0.1507 -0.8310
  667MOL0     C89928  10.573   4.715   1.166  0.6611 -0.1527  0.4133
  667MOL0     C89929  10.672   4.752   1.253  0.1355 -0.1092  0.6649
  667MOL0     C89930  10.765   4.870   1.245 -0.4693 -0.2612 -0.8286
  667MOL0     C89931  10.797   4.928   1.391 -0.1997  0.1607  0.4776
  667MOL0     C89932  10.868   5.065   1.373 -0.1266 -1.0406 -0.4646
  667MOL0     C89933  10.936   5.117   1.502 -0.2836  0.6174  0.2500
  667MOL0     O89934  10.857   5.107   1.617  0.0583 -0.3796 -0.7625
  667MOL0     C89935  10.849   5.211   1.708 -0.1556 -0.2372 -0.0802
  667MOL0     C89936  10.953   5.302   1.728 -0.1941 -0.3147 -0.0246
  667MOL0     C89937  10.947   5.402   1.837 -0.1262 -0.1903  0.4358
  667MOL0     C89938  10.831   5.413   1.920 -0.6486  0.2493  0.2644
  667MOL0     C89939  10.822   5.522   2.022 -0.1407 -0.2277 -0.3950
  667MOL0     O89940  10.930   5.595   2.050 -0.0799 -0.1450  0.2632
  667MOL0     C89941  10.932   5.710   2.126  0.7204  0.6016  0.1032
  667MOL0     C89942  10.827   5.796   2.126  0.9710 -0.5258 -0.1416
  667MOL0     C89943  10.821   5.909   2.206  0.8812  0.7223  0.4422
  667MOL0     C89944  10.920   5.918   2.306 -0.4078  0.0542  0.8233
  667MOL0     O89945  10.937   6.015   2.399  0.1066 -0.1882  0.2757
  667MOL0     C89946  10.850   6.125   2.394  0.6177 -0.1994  0.3445
  667MOL0     C89947  10.890   6.215   2.516 -0.1872  0.7260  0.1061
  667MOL0     C89948  10.862   6.165   2.653 -0.0572  0.6318 -0.4149
  667MOL0     C89949  10.991   6.167   2.739 -0.6764 -0.1799 -0.4852
  667MOL0     C89950  10.964   6.136   2.893 -0.9393 -1.3946 -0.1869
  667MOL0     C89951  10.904   6.001   2.911 -0.6243 -0.0066  0.1765
  667MOL0     C89952  10.880   5.967   3.059  0.6674 -0.4371  0.5739
  667MOL0     C89953  10.850   5.808   3.065  0.9827  0.1325  0.4364
  667MOL0    Cl89954  10.683   5.781   2.988 -0.2694  0.1704  0.1297
  667MOL0     C89955  11.022   5.828   2.307 -0.3779  0.3430 -0.7386
  667MOL0     C89956  11.025   5.717   2.225  0.6985 -0.5994  0.3526
  667MOL0     O89957  10.705   5.544   2.066 -0.8953 -0.1234 -0.2973
  667MOL0     C89958  10.736   5.315   1.897 -0.5736  0.6749  0.1730
  667MOL0     C89959  10.738   5.212   1.800 -0.1231 -1.4310 -0.7678
  667MOL0     N89960  10.657   4.678   1.366  0.7664  0.1321 -0.4119
  667MOL0     N89961  10.563   4.596   1.352  0.0267  0.0143 -0.5633
  667MOL0     C89962   9.169   4.589   1.314 -0.2249  0.4629 -0.3668
  667MOL0     C89963   9.060   4.645   1.376  0.2038  0.3613 -1.0180
  667MOL0     C89964   8.706   4.876   1.435 -0.1307 -0.1277 -0.3634
  667MOL0     C89965   8.598   4.848   1.347  0.8398  0.4872  0.9397
  667MOL0     C89966   8.469   4.912   1.366  0.0389  0.4883  0.1453
  667MOL0     C89967   8.433   4.984   1.485 -1.0741  0.2402 -0.1870
  667MOL0     O89968   8.303   5.018   1.504  0.3718 -0.2200  0.7869
  667MOL0     C89969   8.264   5.106   1.609  0.4705 -0.2364 -0.3705
  667MOL0     C89970   8.109   5.112   1.600  0.7963 -0.8986  0.0918
  667MOL0     C89971   8.060   5.168   1.462  0.5979  0.2033  0.4436
  667MOL0     C89972   7.908   5.215   1.462 -1.0736 -0.6236 -0.1368
  667MOL0     C89973   7.872   5.277   1.336 -0.0953 -0.5200 -0.3970
  667MOL0     C89974   7.842   5.348   1.243  0.8207  0.2094  0.1662
  667MOL0     C89975   8.534   4.995   1.579  0.3941 -0.6225 -0.2179
  667MOL0     C89976   8.671   4.967   1.542  0.2014 -1.4632  0.3143
  667MOL0     C89977   8.780   5.012   1.634 -0.7698 -0.6736  0.5702
  667MOL0     H89978   9.207   4.910   1.515 -1.1804 -0.6044  1.4213
  667MOL0     H89979   9.412   4.791   1.424  0.4656  1.5575 -2.7644
  667MOL0     H89980   9.502   4.615   1.118 -0.7132  0.5628  0.0503
  667MOL0     H89981   9.507   4.720   1.259  0.6959  0.0359  0.5666
  667MOL0     H89982   9.652   4.470   1.201  0.6413  1.2527 -1.2905
  667MOL0     H89983   9.633   4.523   1.365 -0.5055 -1.1894 -0.2945
  667MOL0     H89984   9.762   4.712   1.295  1.1328 -0.9006 -0.5390
  667MOL0     H89985   9.746   4.692   1.121  0.7031 -0.2112  0.1898
  667MOL0     H89986   9.879   4.471   1.296  0.5217  2.8145  1.8630
  667MOL0     H89987   9.880   4.493   1.119  1.7753  1.6332 -0.5123
  667MOL0     H89988   9.998   4.683   1.113  0.2809  1.4849  0.7450
  667MOL0     H89989  10.019   4.697   1.289  0.2286 -0.1403  0.9448
  667MOL0     H89990  10.149   4.487   1.286 -1.0462 -1.9283 -1.5146
  667MOL0     H89991  10.132   4.465   1.114  2.1129 -0.2153  0.3260
  667MOL0     H89992  10.275   4.694   1.268  0.3821 -0.3845 -0.3426
  667MOL0     H89993  10.261   4.691   1.091  0.8612  1.4937 -0.3599
  667MOL0     H89994  10.377   4.455   1.244 -0.9402  1.2043  0.8310
  667MOL0     H89995  10.407   4.508   1.075  0.0747  1.9586 -1.4540
  667MOL0     H89996  10.545   4.759   1.071  1.2149 -2.0466 -0.6968
  667MOL0     H89997  10.862   4.844   1.200 -0.1183 -1.1957  0.4071
  667MOL0     H89998  10.710   4.942   1.184 -2.8661 -0.6481  0.7450
  667MOL0     H89999  10.709   4.944   1.454  1.1169  0.1256  2.4173
  667MOL0     H90000  10.864   4.858   1.442 -0.2391  1.2069  2.0392
  667MOL0     H90001  10.792   5.141   1.351  2.0496  0.7062 -2.5458
  667MOL0     H90002  10.940   5.064   1.291  0.0791 -1.5999 -0.2768
  667MOL0     H90003  10.971   5.219   1.485  3.7303 -0.6842 -0.4912
  667MOL0     H90004  11.029   5.064   1.525  1.9512  3.2180 -2.0922
  667MOL0     H90005  11.042   5.301   1.666 -0.3155  1.9366 -0.3161
  667MOL0     H90006  11.029   5.472   1.851  0.8923 -1.0046 -1.1571
  667MOL0     H90007  10.746   5.783   2.055 -1.1680  2.4559  1.5397
  667MOL0     H90008  10.732   5.970   2.196 -0.0643 -0.5780  0.8025
  667MOL0     H90009  10.847   6.170   2.295 -1.0590 -2.2242 -0.6071
  667MOL0     H90010  10.749   6.086   2.410 -0.0692  2.1230  2.4533
  667MOL0     H90011  10.994   6.245   2.500  0.8826 -2.9017 -0.6973
  667MOL0     H90012  10.844   6.313   2.500 -0.5066  0.5174 -0.2927
  667MOL0     H90013  10.786   6.225   2.704 -0.2436 -0.3124  0.4396
  667MOL0     H90014  10.825   6.062   2.649 -0.2693  0.4954  2.7905
  667MOL0     H90015  11.032   6.268   2.732 -2.2311  0.9684  3.6485
  667MOL0     H90016  11.064   6.101   2.691  2.0846  1.1449  1.6060
  667MOL0     H90017  10.893   6.207   2.936 -2.1120 -3.1703  0.8785
  667MOL0     H90018  11.059   6.136   2.947 -1.0693 -2.1738  0.0470
  667MOL0     H90019  10.807   5.999   2.861 -0.3938 -1.7012 -0.2659
  667MOL0     H90020  10.964   5.934   2.849 -1.4607 -1.0779  0.5050
  667MOL0     H90021  10.792   6.021   3.094  0.7142  1.6090 -2.1476
  667MOL0     H90022  10.967   5.976   3.124  0.8612 -1.9770  0.5628
  667MOL0     H90023  10.922   5.754   3.003  1.1382  0.3997  0.3843
  667MOL0     H90024  10.847   5.772   3.169 -0.0327  0.4201  0.5191
  667MOL0     H90025  11.103   5.843   2.378  3.3525 -0.3805 -4.4676
  667MOL0     H90026  11.103   5.642   2.230 -0.9555 -2.3738  0.4038
  667MOL0     H90027  10.653   5.314   1.966 -0.5032  0.7131  0.2576
  667MOL0     H90028  10.666   5.134   1.777 -1.5223  0.4293 -3.2223
  667MOL0     H90029   9.170   4.493   1.264 -0.5568 -0.2963  1.0298
  667MOL0     H90030   8.967   4.594   1.353  0.5669 -0.1457 -1.3977
  667MOL0     H90031   8.605   4.791   1.255 -0.2546 -0.7801  1.5964
  667MOL0     H90032   8.392   4.895   1.292 -1.5208 -0.4670  1.9180
  667MOL0     H90033   8.310   5.204   1.600  1.2983 -0.5846 -0.0633
  667MOL0     H90034   8.288   5.071   1.711 -1.8481  1.2276  0.7541
  667MOL0     H90035   8.060   5.180   1.670  0.3515  0.1160 -1.1520
  667MOL0     H90036   8.071   5.013   1.627  2.4073 -0.9928  2.2975
  667MOL0     H90037   8.081   5.096   1.383  2.0301  0.2248  0.7789
  667MOL0     H90038   8.122   5.254   1.436  1.1323 -1.1360 -3.3150
  667MOL0     H90039   7.849   5.125   1.481 -2.1373  0.3832  1.5398
  667MOL0     H90040   7.886   5.287   1.541 -0.2666  1.9800 -2.1723
  667MOL0     H90041   7.812   5.421   1.170 -0.3497 -0.6407 -0.2411
  667MOL0     H90042   8.512   5.044   1.674  1.9854  4.2268 -2.0389
  667MOL0     H90043   8.753   5.105   1.683 -0.4876 -0.0488 -0.4243
  667MOL0     H90044   8.788   4.930   1.706 -1.6885 -2.6918 -1.5039
  667MOL0     H90045   8.871   5.020   1.574 -2.7724 -0.1964 -2.6924
  668MOL0     O90046  11.220   0.035   5.835 -0.0331  0.3830 -0.8127
  668MOL0     C90047  11.310   0.012   5.925  0.3900 -0.6850  0.1006
  668MOL0     O90048  11.284   0.033   6.059  0.8089 -0.1443 -0.9309
  668MOL0     C90049  11.161   0.069   6.110 -0.0993  0.5876 -0.2703
  668MOL0     C90050  11.137   0.201   6.148  0.3026  0.6418 -0.5043
  668MOL0     C90051  11.011   0.237   6.191  0.2367 -0.2151 -0.1063
  668MOL0     C90052  10.913   0.140   6.215 -0.3311 -0.2603  0.3148
  668MOL0     O90053  10.802   0.195   6.278 -0.5752  0.4181 -0.5542
  668MOL0     C90054  10.699   0.099   6.315  0.2744 -0.8702 -0.2051
  668MOL0     C90055  10.584   0.179   6.390  0.0599 -0.5370  0.5286
  668MOL0     C90056  10.467   0.104   6.454  0.2167  0.0145 -0.2287
  668MOL0     C90057  10.346   0.078   6.349  0.3207 -0.6478  0.6292
  668MOL0     C90058  10.228  -0.007   6.412 -0.4731  0.2230 -0.2417
  668MOL0     C90059  10.112  -0.069   6.335  0.5326  0.5846 -0.2507
  668MOL0     C90060  10.062   0.017   6.208  0.1055 -0.1219  0.3339
  668MOL0     C90061  10.047   0.171   6.227 -0.0595 -0.0352 -0.5802
  668MOL0     N90062   9.940   0.226   6.150 -0.5665  0.2988  0.3124
  668MOL0     C90063   9.910   0.175   6.034 -0.8444  0.4201  0.0747
  668MOL0     C90064   9.778   0.177   6.020 -1.0864  0.1096  1.5103
  668MOL0     C90065   9.687   0.139   5.901  0.2113 -0.2218  0.4475
  668MOL0     C90066   9.675   0.254   5.801 -0.3331 -0.6318  0.0932
  668MOL0     C90067   9.551   0.243   5.721 -0.0228  0.8180 -0.2064
  668MOL0     C90068   9.465   0.354   5.771 -0.3084  0.3089 -0.1051
  668MOL0     O90069   9.331   0.331   5.718 -1.2880 -0.2606 -0.0234
  668MOL0     C90070   9.298   0.368   5.591  0.3494  0.4175 -0.3992
  668MOL0     C90071   9.178   0.310   5.555  1.1504 -0.2757 -0.3916
  668MOL0     C90072   9.114   0.346   5.433 -0.2624  0.6594  0.4198
  668MOL0     C90073   9.187   0.429   5.340 -0.0326  0.2300 -0.3203
  668MOL0     C90074   9.128   0.468   5.212 -0.7882 -0.2192 -0.4958
  668MOL0     O90075   9.186   0.586   5.158 -0.1050 -0.2920  0.5638
  668MOL0     C90076   9.130   0.629   5.042  0.5237  0.7659 -0.4433
  668MOL0     C90077   9.022   0.725   5.057  1.4599  0.2575 -0.1170
  668MOL0     C90078   8.937   0.755   4.949 -0.4481  0.0207 -0.6148
  668MOL0     C90079   8.976   0.713   4.824 -0.4843 -0.2775 -0.5364
  668MOL0     O90080   8.909   0.757   4.717  0.5638  1.0324  0.2089
  668MOL0     C90081   8.980   0.854   4.644 -0.7112 -0.0422 -0.1287
  668MOL0     C90082   8.891   0.906   4.540 -0.3840 -0.0672  0.1675
  668MOL0     C90083   8.753   0.956   4.579  0.3400 -1.1345 -0.0503
  668MOL0     C90084   8.732   1.102   4.610 -0.5699 -0.4524  0.8355
  668MOL0     C90085   8.607   1.134   4.688 -0.0836 -0.0570  1.1145
  668MOL0     C90086   8.491   1.031   4.659  0.2553 -0.0176  0.5399
  668MOL0     C90087   8.361   1.087   4.715 -0.2537  0.4550 -1.1005
  668MOL0     C90088   8.306   1.205   4.629 -1.2298 -0.1518  0.0183
  668MOL0    Cl90089   8.138   1.218   4.644  0.1833  0.5548  0.2014
  668MOL0     C90090   9.100   0.638   4.809  0.3646 -0.5086  0.0865
  668MOL0     C90091   9.180   0.598   4.915 -0.1093  0.4137 -0.2644
  668MOL0     O90092   9.028   0.401   5.161 -0.1004 -0.2246 -0.0198
  668MOL0     C90093   9.322   0.465   5.375 -0.0264 -0.0724  0.7420
  668MOL0     C90094   9.376   0.435   5.498  0.3903 -0.2994 -0.4813
  668MOL0     N90095   9.729   0.247   6.130 -0.2084  0.4621 -0.3179
  668MOL0     N90096   9.825   0.278   6.203 -0.1647  0.3899  0.5329
  668MOL0     C90097  10.937   0.009   6.185  0.8014 -0.6210 -0.6119
  668MOL0     C90098  11.055  -0.026   6.126  0.9037 -0.4679  0.0696
  668MOL0     C90099  11.453   0.009   5.885 -0.1615 -0.2292 -1.1636
  668MOL0     C90100  11.542  -0.035   5.984 -0.1515  1.1026 -0.6096
  668MOL0     C90101  11.686  -0.037   5.981  1.2646  0.7199  1.0026
  668MOL0     C90102  11.749   0.012   5.863 -0.1859  0.6379 -0.7297
  668MOL0     O90103  11.883   0.024   5.841  0.2003 -0.5963 -0.2194
  668MOL0     C90104  11.972   0.017   5.952  0.1147  0.3853 -0.1865
  668MOL0     C90105  12.019  -0.130   5.984 -0.1843 -0.4104 -0.7232
  668MOL0     C90106  12.071  -0.198   5.857 -0.3092  0.0900 -0.3133
  668MOL0     C90107  12.214  -0.257   5.881 -0.3239 -0.2678 -0.2894
  668MOL0     C90108  12.320  -0.158   5.897  0.2038 -0.0521  0.0642
  668MOL0     C90109  12.390  -0.059   5.928 -0.5223  0.2450  1.0155
  668MOL0     C90110  11.663   0.053   5.757  0.0628 -0.1632  0.0268
  668MOL0     C90111  11.520   0.055   5.768 -0.2380 -0.7283 -0.6164
  668MOL0     C90112  11.439   0.107   5.647 -0.6018  0.2337 -0.1777
  668MOL0     H90113  11.209   0.282   6.158 -0.1629  0.7866  2.7591
  668MOL0     H90114  10.977   0.334   6.226 -2.9986 -0.8577 -1.1585
  668MOL0     H90115  10.657   0.044   6.231 -3.2022 -1.7579  1.9187
  668MOL0     H90116  10.745   0.026   6.383  2.1371 -0.1010 -0.5724
  668MOL0     H90117  10.547   0.259   6.327 -0.9480 -2.1205 -0.9778
  668MOL0     H90118  10.640   0.225   6.472  2.3115  1.6010 -2.0205
  668MOL0     H90119  10.417   0.168   6.527 -0.6417  0.1223 -0.8980
  668MOL0     H90120  10.502   0.011   6.500  0.1968 -0.5634 -1.3431
  668MOL0     H90121  10.306   0.172   6.308 -2.1005 -1.8350  0.0749
  668MOL0     H90122  10.391   0.023   6.265 -2.4339 -1.7432 -0.2494
  668MOL0     H90123  10.279  -0.093   6.456 -1.8074 -0.6166 -0.2819
  668MOL0     H90124  10.185   0.052   6.493  1.4801 -0.1409  1.1242
  668MOL0     H90125  10.144  -0.166   6.297 -0.0907  0.5770 -0.7775
  668MOL0     H90126  10.031  -0.089   6.406 -0.7061 -2.2746 -2.2965
  668MOL0     H90127   9.961  -0.025   6.193 -1.0566  1.2560  3.5338
  668MOL0     H90128  10.129  -0.001   6.123  1.8467 -0.1081  1.6571
  668MOL0     H90129  10.031   0.191   6.334 -1.2076  1.7240 -1.0296
  668MOL0     H90130  10.138   0.220   6.190 -2.1116  1.7662 -3.7281
  668MOL0     H90131   9.981   0.128   5.966  5.1258  0.9852  5.0798
  668MOL0     H90132   9.717   0.045   5.853 -4.2233 -1.5173 -0.2033
  668MOL0     H90133   9.591   0.118   5.948  0.6275 -1.1362  0.9085
  668MOL0     H90134   9.685   0.344   5.862 -0.0986 -2.2693  2.5935
  668MOL0     H90135   9.762   0.241   5.735  1.3367 -0.8811  2.2344
  668MOL0     H90136   9.509   0.145   5.745 -0.9268  0.9727 -1.0964
  668MOL0     H90137   9.558   0.239   5.612 -0.1335 -3.1247 -0.1876
  668MOL0     H90138   9.515   0.448   5.744  0.7893  0.0481  0.9558
  668MOL0     H90139   9.455   0.358   5.880  2.8823  2.7221  0.2532
  668MOL0     H90140   9.121   0.267   5.637 -0.9536  0.4835 -1.3828
  668MOL0     H90141   9.015   0.313   5.401  0.0200 -2.9109  2.6781
  668MOL0     H90142   8.984   0.760   5.152  2.4959 -0.4543  0.5787
  668MOL0     H90143   8.850   0.819   4.962  0.7994  1.5652  0.5350
  668MOL0     H90144   9.018   0.930   4.712  0.0919 -0.9930  0.5216
  668MOL0     H90145   9.071   0.805   4.608 -1.5180 -1.6719 -0.0633
  668MOL0     H90146   8.947   0.981   4.484  0.4406 -0.9591 -0.2348
  668MOL0     H90147   8.875   0.826   4.467  0.8899  1.2172 -1.6109
  668MOL0     H90148   8.694   0.934   4.490  1.3076  0.3583 -1.1045
  668MOL0     H90149   8.719   0.888   4.658  3.2118 -1.6399  0.8804
  668MOL0     H90150   8.729   1.157   4.516  0.7000  1.1202  1.6433
  668MOL0     H90151   8.817   1.139   4.669 -0.8888 -1.1047  1.7233
  668MOL0     H90152   8.576   1.235   4.662  1.0242  0.0848  0.2714
  668MOL0     H90153   8.624   1.134   4.796  0.1744 -1.8947  1.1115
  668MOL0     H90154   8.475   1.007   4.553 -0.9907  0.8327  0.5172
  668MOL0     H90155   8.517   0.936   4.706  1.8659 -0.8070 -1.7409
  668MOL0     H90156   8.376   1.113   4.820  2.6037 -0.0828 -1.3021
  668MOL0     H90157   8.287   1.006   4.714  0.1836 -0.0027  0.3472
  668MOL0     H90158   8.353   1.301   4.653 -0.8473  0.9824 -4.3975
  668MOL0     H90159   8.331   1.178   4.526 -1.6402  0.6161 -0.2963
  668MOL0     H90160   9.133   0.606   4.710 -2.4516 -2.9919 -0.1600
  668MOL0     H90161   9.265   0.531   4.917 -0.1115  0.4006 -0.5640
  668MOL0     H90162   9.376   0.520   5.299 -1.2346  0.1019 -0.0106
  668MOL0     H90163   9.475   0.471   5.520  1.6650 -3.2948 -0.8868
  668MOL0     H90164  10.866  -0.072   6.201 -0.4698  0.6593  0.6308
  668MOL0     H90165  11.056  -0.125   6.081 -1.8629 -0.5667  0.0549
  668MOL0     H90166  11.498  -0.066   6.078  1.0135 -1.4321 -0.8205
  668MOL0     H90167  11.739  -0.075   6.068  1.1234 -1.2664  0.2742
  668MOL0     H90168  11.919   0.053   6.041 -0.9110 -4.3319  1.4220
  668MOL0     H90169  12.058   0.074   5.917  0.7286 -0.0085  0.6226
  668MOL0     H90170  11.933  -0.182   6.026 -1.9939  3.4522  0.8232
  668MOL0     H90171  12.098  -0.142   6.059 -1.7485 -2.1117  0.7228
  668MOL0     H90172  12.086  -0.134   5.769 -2.1179  3.1251  1.4222
  668MOL0     H90173  12.003  -0.278   5.827  2.9995 -2.5436 -1.4421
  668MOL0     H90174  12.204  -0.324   5.967 -1.3385  1.8266  1.3180
  668MOL0     H90175  12.242  -0.321   5.797  4.5960  0.0304  0.8189
  668MOL0     H90176  12.443   0.029   5.960 -0.5939  0.1139  1.5112
  668MOL0     H90177  11.714   0.091   5.669  0.8554  3.1228  1.7353
  668MOL0     H90178  11.393   0.206   5.657  2.3089  1.8529 -1.6691
  668MOL0     H90179  11.504   0.119   5.560 -0.3472  0.8822  0.0974
  668MOL0     H90180  11.364   0.028   5.637  0.9401 -1.5136  1.3739
  669MOL0     O90181   4.972   5.184   2.609  0.4985 -0.1607 -0.5970
  669MOL0     C90182   5.048   5.166   2.517 -0.7677  0.8382  0.7322
  669MOL0     O90183   5.172   5.229   2.503 -0.0803 -0.8128 -0.4169
  669MOL0     C90184   5.233   5.318   2.592  0.0129 -0.6743  0.5417
  669MOL0     C90185   5.359   5.370   2.548 -0.6409 -0.0212  0.0428
  669MOL0     C90186   5.435   5.462   2.622 -0.5756  0.3228  0.7100
  669MOL0     C90187   5.386   5.502   2.746 -1.1340  0.4540  0.1092
  669MOL0     O90188   5.459   5.575   2.841 -0.1099 -0.4334 -0.6353
  669MOL0     C90189   5.579   5.650   2.815 -0.5935  0.4521  0.3682
  669MOL0     C90190   5.639   5.679   2.952  0.5569 -0.1235 -0.1105
  669MOL0     C90191   5.782   5.733   2.932 -0.6845 -0.1712 -0.7217
  669MOL0     C90192   5.861   5.772   3.062  0.8264  0.8342 -0.5394
  669MOL0     C90193   6.001   5.823   3.020  0.2291 -0.4312 -0.1203
  669MOL0     C90194   6.072   5.926   3.125 -0.3006 -0.1677 -0.5693
  669MOL0     C90195   6.108   5.853   3.254 -0.0085 -0.3092  1.0729
  669MOL0     C90196   6.189   5.943   3.345 -0.7058 -0.3260  0.3525
  669MOL0     N90197   6.303   6.016   3.293 -0.4549  0.3901  0.0562
  669MOL0     C90198   6.301   6.156   3.264  0.0574 -0.7032 -0.3200
  669MOL0     C90199   6.425   6.194   3.259  0.0674  0.3735 -0.2792
  669MOL0     C90200   6.480   6.327   3.231  0.5591 -0.2613  0.7199
  669MOL0     C90201   6.419   6.372   3.094  0.5985 -0.4050 -0.5341
  669MOL0     C90202   6.479   6.505   3.046 -0.1566  0.3235 -0.4282
  669MOL0     C90203   6.610   6.495   2.959  0.1420 -0.9528  0.0165
  669MOL0     O90204   6.716   6.427   3.039  0.5402 -0.1488 -0.2390
  669MOL0     C90205   6.835   6.489   3.051  0.7933 -0.9567  0.0181
  669MOL0     C90206   6.918   6.522   2.940 -0.3147 -0.0098 -0.4552
  669MOL0     C90207   7.054   6.549   2.963  0.4212 -1.0530 -0.9665
  669MOL0     C90208   7.111   6.558   3.092  0.1388  0.1833  0.5616
  669MOL0     C90209   7.257   6.587   3.106 -0.2803 -1.3596  0.6416
  669MOL0     O90210   7.319   6.633   2.991  0.5464 -0.7211 -0.2207
  669MOL0     C90211   7.454   6.657   2.998 -1.0053  1.0488 -0.7402
  669MOL0     C90212   7.502   6.768   3.060  1.0771  0.3257  0.7289
  669MOL0     C90213   7.632   6.785   3.075 -0.5848  1.0161 -0.4911
  669MOL0     C90214   7.728   6.682   3.050  0.4936 -0.2690 -0.6921
  669MOL0     O90215   7.864   6.702   3.080  0.4335  0.2447  0.1665
  669MOL0     C90216   7.905   6.740   3.215 -1.4887  0.6252  0.1407
  669MOL0     C90217   8.007   6.626   3.265  0.4364  0.1841  0.2869
  669MOL0     C90218   8.070   6.666   3.401  0.9914  0.3630  0.5969
  669MOL0     C90219   8.174   6.578   3.464 -0.3288 -0.2733  0.2403
  669MOL0     C90220   8.243   6.655   3.577  0.3128 -0.1403  0.3200
  669MOL0     C90221   8.323   6.571   3.668 -0.0370  0.2914  0.2823
  669MOL0     C90222   8.242   6.457   3.733 -1.0138 -0.0929  0.0306
  669MOL0     C90223   8.334   6.376   3.829 -0.2687 -0.3758  0.1407
  669MOL0    Cl90224   8.379   6.476   3.971 -0.6792  0.4652 -0.1236
  669MOL0     C90225   7.681   6.575   2.979 -0.6964 -0.2390  0.2945
  669MOL0     C90226   7.542   6.559   2.952 -1.2648  0.1104 -0.8907
  669MOL0     O90227   7.307   6.600   3.214  0.2387  0.1280 -0.1553
  669MOL0     C90228   7.027   6.505   3.190  0.6157 -0.2595  0.0884
  669MOL0     C90229   6.894   6.477   3.173 -0.3949  0.7160 -0.1800
  669MOL0     N90230   6.511   6.087   3.290  0.3206 -0.3649  0.2992
  669MOL0     N90231   6.428   5.983   3.310 -1.5977  0.2104 -0.3815
  669MOL0     C90232   5.262   5.450   2.792 -0.8322 -0.2944  0.1952
  669MOL0     C90233   5.195   5.346   2.717  0.4497  0.0363 -0.4713
  669MOL0     C90234   4.998   5.081   2.395 -0.1966 -0.1265  0.1611
  669MOL0     C90235   5.090   5.088   2.285  0.3896  0.1879 -0.5434
  669MOL0     C90236   5.049   5.061   2.156  0.6220 -0.0504  0.3535
  669MOL0     C90237   4.920   5.002   2.141  0.1836  0.3406 -0.4839
  669MOL0     O90238   4.872   4.946   2.022  0.1580  0.7392  0.0420
  669MOL0     C90239   4.953   4.949   1.905  0.5317 -0.1953  0.2287
  669MOL0     C90240   4.897   5.077   1.837 -0.7809 -0.4610 -0.9712
  669MOL0     C90241   4.750   5.056   1.809  1.2879 -0.0478  0.5295
  669MOL0     C90242   4.717   5.144   1.678 -0.2048 -0.1951  0.0197
  669MOL0     C90243   4.580   5.123   1.647  0.1678  0.1770  0.5292
  669MOL0     C90244   4.461   5.099   1.620 -1.0344  1.0723  0.1705
  669MOL0     C90245   4.838   4.981   2.258  0.1783 -1.8807 -0.4005
  669MOL0     C90246   4.869   5.029   2.380 -0.9044  0.3666 -0.2325
  669MOL0     C90247   4.770   5.013   2.496 -0.2521  0.7397  0.2244
  669MOL0     H90248   5.400   5.335   2.454  1.2870 -2.9053  1.8074
  669MOL0     H90249   5.529   5.503   2.586 -1.0402  1.5203  0.8102
  669MOL0     H90250   5.641   5.576   2.765 -2.1380  0.8631 -2.3472
  669MOL0     H90251   5.560   5.736   2.751 -0.5433  0.6595  0.6331
  669MOL0     H90252   5.643   5.584   3.006 -0.5826  1.1232  2.4002
  669MOL0     H90253   5.578   5.744   3.016  1.7485 -1.4615  2.5306
  669MOL0     H90254   5.778   5.827   2.875 -3.7006  0.5504  0.4954
  669MOL0     H90255   5.844   5.668   2.870  1.5708 -0.0370  1.2261
  669MOL0     H90256   5.806   5.850   3.114  2.3584  1.5959  0.0081
  669MOL0     H90257   5.867   5.686   3.129 -0.5705 -0.8692 -2.4802
  669MOL0     H90258   6.073   5.744   2.995  0.4739  0.2727 -1.7352
  669MOL0     H90259   5.987   5.876   2.926 -1.3679 -0.5676  0.0279
  669MOL0     H90260   6.161   5.963   3.074 -1.0382  0.7178 -1.2559
  669MOL0     H90261   6.006   6.011   3.141  0.5800  0.9144 -2.4132
  669MOL0     H90262   6.172   5.766   3.236 -0.7411 -0.6918  0.2117
  669MOL0     H90263   6.022   5.818   3.313 -0.6885 -1.6354 -0.6132
  669MOL0     H90264   6.127   6.014   3.401  0.4202  0.7589  0.2772
  669MOL0     H90265   6.226   5.876   3.424 -1.0133  1.1541  1.8126
  669MOL0     H90266   6.203   6.202   3.258  0.2415 -0.3155 -0.3412
  669MOL0     H90267   6.452   6.406   3.301  0.8762  2.6688 -2.2148
  669MOL0     H90268   6.588   6.329   3.213  0.2045  2.8572 -2.1902
  669MOL0     H90269   6.426   6.303   3.009 -0.5102 -0.2962 -0.7263
  669MOL0     H90270   6.312   6.382   3.112  0.7591 -0.9125  0.8459
  669MOL0     H90271   6.498   6.569   3.133 -1.1675 -1.3140  1.0687
  669MOL0     H90272   6.414   6.563   2.979  2.2658  2.4915 -1.1041
  669MOL0     H90273   6.647   6.594   2.931  2.7637 -1.0397  2.6042
  669MOL0     H90274   6.598   6.440   2.865 -3.1751 -1.4431  0.6111
  669MOL0     H90275   6.872   6.504   2.843 -1.0575  2.6455 -0.6655
  669MOL0     H90276   7.123   6.549   2.879 -0.2614 -2.9921 -1.5915
  669MOL0     H90277   7.430   6.843   3.091  1.9974  0.0738  3.7717
  669MOL0     H90278   7.663   6.881   3.115  0.3754  0.1298  1.0300
  669MOL0     H90279   7.961   6.834   3.212 -1.3606  0.5478  0.0389
  669MOL0     H90280   7.815   6.762   3.272 -0.2821  5.1380  0.6858
  669MOL0     H90281   7.970   6.523   3.270  2.3105 -0.4548  2.6993
  669MOL0     H90282   8.088   6.624   3.191  1.4246 -1.7617  1.3566
  669MOL0     H90283   8.119   6.759   3.370 -1.1459  1.4716  0.3212
  669MOL0     H90284   7.991   6.692   3.472 -0.7904 -1.8723 -0.4236
  669MOL0     H90285   8.244   6.544   3.387 -2.2471  0.5254 -1.9854
  669MOL0     H90286   8.121   6.488   3.496  0.7336 -1.3264 -0.8623
  669MOL0     H90287   8.165   6.704   3.636 -0.4597  3.0287 -2.9831
  669MOL0     H90288   8.312   6.732   3.541 -0.0661  0.6451  1.2161
  669MOL0     H90289   8.411   6.537   3.613  0.3293  3.2393 -1.1267
  669MOL0     H90290   8.353   6.631   3.754  0.5585  0.8959 -0.3383
  669MOL0     H90291   8.205   6.391   3.653 -1.8118  1.4054 -0.8869
  669MOL0     H90292   8.160   6.498   3.792 -2.0919 -4.1091  1.7077
  669MOL0     H90293   8.275   6.286   3.850  0.6665 -1.3851 -1.3340
  669MOL0     H90294   8.417   6.341   3.767 -1.5265 -0.3460 -1.6298
  669MOL0     H90295   7.747   6.498   2.940 -1.7060  0.0152 -2.1145
  669MOL0     H90296   7.499   6.470   2.906  0.4271 -1.2828  0.1048
  669MOL0     H90297   7.067   6.505   3.291  1.2719  1.9575 -0.1259
  669MOL0     H90298   6.830   6.427   3.246  1.3684 -1.1544  0.1673
  669MOL0     H90299   5.232   5.479   2.892 -2.9967 -2.1288  0.1690
  669MOL0     H90300   5.101   5.300   2.747  0.1023 -0.0841 -1.6790
  669MOL0     H90301   5.183   5.143   2.297  1.8957 -2.1007 -0.9676
  669MOL0     H90302   5.106   5.077   2.065  0.9250 -2.9230 -0.0555
  669MOL0     H90303   4.926   4.870   1.834 -2.6634  0.7959  0.1841
  669MOL0     H90304   5.062   4.947   1.918  0.4430  0.2299  1.0896
  669MOL0     H90305   4.956   5.114   1.753  1.4429  2.8959  1.8211
  669MOL0     H90306   4.900   5.154   1.914 -1.7284 -1.7337  0.4181
  669MOL0     H90307   4.684   5.083   1.892 -1.3450 -1.1012 -1.1072
  669MOL0     H90308   4.730   4.953   1.779  0.1516  0.6296 -1.2821
  669MOL0     H90309   4.720   5.250   1.704 -2.6055  0.2345 -1.2504
  669MOL0     H90310   4.788   5.114   1.600 -1.5062 -2.4411 -0.3885
  669MOL0     H90311   4.355   5.102   1.606 -0.8834  3.7356 -1.0181
  669MOL0     H90312   4.751   4.921   2.235 -3.4692  1.5976  2.7457
  669MOL0     H90313   4.694   4.937   2.478 -1.7313  2.3632 -0.7594
  669MOL0     H90314   4.822   4.974   2.584 -1.3115  0.7925  0.8894
  669MOL0     H90315   4.729   5.112   2.519  1.0935  1.9144 -2.0611
  670MOL0     O90316   9.223   8.772   7.387  0.7710 -0.5840  0.3248
  670MOL0     C90317   9.255   8.824   7.284 -0.0163 -0.1684  0.7804
  670MOL0     O90318   9.353   8.916   7.271 -0.7234 -0.1586  0.8168
  670MOL0     C90319   9.418   8.933   7.389 -0.1915  0.3814  0.8056
  670MOL0     C90320   9.395   9.037   7.470 -0.4680 -0.0007 -0.0402
  670MOL0     C90321   9.479   9.069   7.574  0.3174 -1.1308 -0.7217
  670MOL0     C90322   9.594   9.001   7.599  0.2184 -0.8686  0.6960
  670MOL0     O90323   9.665   9.039   7.708  0.0611 -0.5656 -0.2415
  670MOL0     C90324   9.648   8.959   7.823 -0.8642  0.3073 -0.0363
  670MOL0     C90325   9.585   9.050   7.930 -0.4312  0.3747 -0.6988
  670MOL0     C90326   9.686   9.131   8.013  0.1867 -0.0479 -1.1702
  670MOL0     C90327   9.767   9.058   8.119  0.4223  0.7904  0.7283
  670MOL0     C90328   9.834   9.154   8.221 -0.3165 -0.0475 -0.6472
  670MOL0     C90329   9.937   9.092   8.316  0.7746 -1.3089  0.4608
  670MOL0     C90330  10.079   9.068   8.243 -0.4337 -0.4367 -0.7778
  670MOL0     C90331  10.161   9.196   8.240 -1.0349  1.3449 -0.0277
  670MOL0     N90332  10.258   9.194   8.130 -0.1337  0.2322  0.3377
  670MOL0     C90333  10.229   9.187   7.998  0.4524  0.2701  0.8273
  670MOL0     C90334  10.349   9.157   7.949 -1.0063  0.2957 -0.0605
  670MOL0     C90335  10.382   9.105   7.809  0.8318 -0.6991 -0.2754
  670MOL0     C90336  10.482   9.199   7.736 -0.1160  0.3201 -0.0599
  670MOL0     C90337  10.416   9.313   7.653 -1.0323 -0.5661  0.2825
  670MOL0     C90338  10.511   9.409   7.597 -0.2640  0.0631 -0.8180
  670MOL0     O90339  10.591   9.333   7.511 -0.6696 -0.0734 -0.0762
  670MOL0     C90340  10.727   9.338   7.517  0.1094  0.1307  0.2225
  670MOL0     C90341  10.797   9.455   7.522  0.4446 -0.0825 -0.2616
  670MOL0     C90342  10.933   9.461   7.515  1.3894 -0.3805 -0.0988
  670MOL0     C90343  11.013   9.351   7.498  0.2282 -0.1131 -0.1713
  670MOL0     C90344  11.157   9.356   7.500 -0.3436 -0.5989  0.2274
  670MOL0     O90345  11.221   9.249   7.551  0.7982 -0.5749  0.4077
  670MOL0     C90346  11.352   9.232   7.528  0.3818  0.0855  0.2332
  670MOL0     C90347  11.441   9.306   7.607  1.0226  0.0975 -0.3588
  670MOL0     C90348  11.579   9.290   7.597 -0.2167  0.3906  0.7826
  670MOL0     C90349  11.629   9.187   7.518  0.0140 -0.1366 -0.2922
  670MOL0     O90350  11.767   9.168   7.517 -0.5186  0.9274 -1.2055
  670MOL0     C90351  11.813   9.024   7.508  0.0482 -1.1395 -0.1727
  670MOL0     C90352  11.971   9.016   7.543  0.2130  0.2949 -0.2388
  670MOL0     C90353  12.044   9.077   7.425  0.1291  0.7084 -0.3821
  670MOL0     C90354  12.183   9.039   7.429 -0.0737  0.4482  0.6898
  670MOL0     C90355  12.267   9.120   7.335 -0.2704 -0.3514  0.3109
  670MOL0     C90356  12.408   9.059   7.340 -0.5248  0.3414 -0.4025
  670MOL0     C90357  12.498   9.150   7.259 -1.0177  0.2269  0.4254
  670MOL0     C90358  12.649   9.105   7.257  0.1888 -0.9932  0.6685
  670MOL0    Cl90359  12.677   9.000   7.120 -0.5124  0.0200 -0.0118
  670MOL0     C90360  11.545   9.108   7.444  0.9949 -0.1321 -0.2528
  670MOL0     C90361  11.405   9.141   7.440 -1.0393  0.4143 -0.6161
  670MOL0     O90362  11.209   9.463   7.469  0.1145 -0.4201  0.3278
  670MOL0     C90363  10.941   9.228   7.488 -0.6007 -0.3164 -0.2115
  670MOL0     C90364  10.801   9.220   7.496 -0.6736 -1.1723  0.9837
  670MOL0     N90365  10.441   9.165   8.050 -0.6721  0.1603  0.3076
  670MOL0     N90366  10.387   9.194   8.161 -0.7116  0.1203 -0.2726
  670MOL0     C90367   9.619   8.900   7.515 -0.2450 -0.5628  0.4871
  670MOL0     C90368   9.533   8.852   7.408 -0.6915 -0.1465 -0.7206
  670MOL0     C90369   9.181   8.791   7.157 -0.5634  0.3274 -0.0091
  670MOL0     C90370   9.045   8.764   7.165 -0.5980  0.3479 -0.6695
  670MOL0     C90371   8.956   8.740   7.055 -0.7532 -0.6541  0.7518
  670MOL0     C90372   9.014   8.753   6.932 -0.5261  0.1865  1.0517
  670MOL0     O90373   8.943   8.733   6.814 -0.0295  0.1921  0.0335
  670MOL0     C90374   8.808   8.687   6.801 -0.0116 -0.7631 -0.2760
  670MOL0     C90375   8.735   8.793   6.712 -0.7583 -0.4075 -0.3880
  670MOL0     C90376   8.594   8.735   6.689 -0.5278  0.2516  0.3284
  670MOL0     C90377   8.508   8.801   6.578 -0.4169 -0.1013 -0.4999
  670MOL0     C90378   8.380   8.727   6.563  0.0166 -1.0491  0.0824
  670MOL0     C90379   8.268   8.679   6.553  0.3392  0.7548 -0.6825
  670MOL0     C90380   9.151   8.775   6.919 -0.3431 -0.6153 -0.6300
  670MOL0     C90381   9.236   8.795   7.029 -0.7958 -0.4202  0.6186
  670MOL0     C90382   9.386   8.792   7.015 -0.0930 -0.5722  0.5934
  670MOL0     H90383   9.308   9.099   7.459  0.9972  2.7774  2.5711
  670MOL0     H90384   9.460   9.156   7.636  3.6264  0.3412 -1.5610
  670MOL0     H90385   9.574   8.881   7.805 -0.9763  0.2813  0.5156
  670MOL0     H90386   9.744   8.924   7.862  0.5443 -0.7889 -4.0207
  670MOL0     H90387   9.507   8.997   7.985  0.1656 -1.1837 -1.2998
  670MOL0     H90388   9.517   9.124   7.884 -1.6927 -0.3430 -0.0449
  670MOL0     H90389   9.650   9.226   8.054  3.3971  0.3477  1.1642
  670MOL0     H90390   9.762   9.165   7.942  0.6600 -1.3644 -1.3219
  670MOL0     H90391   9.702   8.983   8.164  0.8837 -3.2703 -4.3208
  670MOL0     H90392   9.850   9.008   8.067  0.0472 -0.6799  1.4969
  670MOL0     H90393   9.869   9.247   8.176 -3.9572  1.3640 -0.9026
  670MOL0     H90394   9.740   9.188   8.266 -1.2371  0.7977 -3.0428
  670MOL0     H90395   9.951   9.158   8.402 -0.3132 -1.0887  0.4755
  670MOL0     H90396   9.914   8.994   8.359  1.8974 -3.2117 -2.8753
  670MOL0     H90397  10.050   9.034   8.143 -1.3752  2.7448 -1.7078
  670MOL0     H90398  10.146   8.997   8.292  1.8675  1.7910 -0.4901
  670MOL0     H90399  10.103   9.287   8.227 -3.1149  0.1775  0.5078
  670MOL0     H90400  10.206   9.199   8.340  0.6655 -0.0443 -0.7043
  670MOL0     H90401  10.136   9.172   7.944 -0.6701  1.5696  2.3122
  670MOL0     H90402  10.413   9.001   7.820 -0.5652 -1.3487 -2.0249
  670MOL0     H90403  10.286   9.104   7.756  2.1447  0.4367 -2.8475
  670MOL0     H90404  10.550   9.241   7.811  0.7296  0.0220 -0.6442
  670MOL0     H90405  10.526   9.134   7.660 -4.7035 -2.6358 -0.5965
  670MOL0     H90406  10.337   9.356   7.715  0.2550  2.4578  0.0020
  670MOL0     H90407  10.375   9.260   7.566 -1.8096 -0.1799  0.4052
  670MOL0     H90408  10.561   9.461   7.679 -1.8618  1.0435 -0.4140
  670MOL0     H90409  10.464   9.495   7.547  0.5158  2.0614  1.7191
  670MOL0     H90410  10.732   9.538   7.547 -0.7677 -1.1510  0.2107
  670MOL0     H90411  10.987   9.556   7.519 -0.2333  0.5985 -0.6445
  670MOL0     H90412  11.402   9.383   7.673  0.0847  0.5311 -1.3748
  670MOL0     H90413  11.647   9.345   7.663  2.6239 -2.0594  0.0980
  670MOL0     H90414  11.747   8.978   7.582  1.3137  2.2016  3.3979
  670MOL0     H90415  11.801   8.983   7.407  1.1627 -1.9861  0.0156
  670MOL0     H90416  11.998   9.068   7.635  0.6358 -1.2110  0.5309
  670MOL0     H90417  11.995   8.909   7.550 -5.4112 -1.1455  3.1935
  670MOL0     H90418  12.001   9.030   7.336 -1.8769  1.0953  0.3424
  670MOL0     H90419  12.026   9.185   7.418  1.7896  1.1289  1.1102
  670MOL0     H90420  12.194   8.935   7.397  2.3831 -0.2982  3.5010
  670MOL0     H90421  12.216   9.046   7.533  0.5635  2.4599  0.3921
  670MOL0     H90422  12.281   9.223   7.369 -0.7754 -0.7528  1.8305
  670MOL0     H90423  12.230   9.108   7.233  1.4011 -2.8971 -0.0781
  670MOL0     H90424  12.437   9.060   7.446  1.4426 -2.9714 -0.7743
  670MOL0     H90425  12.397   8.957   7.303 -2.3002  0.9255 -1.6079
  670MOL0     H90426  12.486   9.243   7.314 -5.2568  0.9900 -1.3852
  670MOL0     H90427  12.452   9.175   7.163 -0.8774  0.3913  0.4014
  670MOL0     H90428  12.717   9.190   7.239  1.3246 -1.9611  0.2287
  670MOL0     H90429  12.680   9.053   7.348  2.0080  1.5328  1.6279
  670MOL0     H90430  11.568   9.010   7.404 -0.7826 -1.6936  2.2395
  670MOL0     H90431  11.339   9.072   7.388 -0.3003  0.5547 -1.7815
  670MOL0     H90432  10.993   9.133   7.475 -1.1165 -0.3894 -1.9435
  670MOL0     H90433  10.754   9.123   7.498  0.0918 -1.5379  1.4784
  670MOL0     H90434   9.711   8.844   7.527 -0.6751 -1.2780  0.5271
  670MOL0     H90435   9.555   8.767   7.343  1.6079 -0.3605  0.2371
  670MOL0     H90436   8.996   8.756   7.261  0.4816  1.7059  0.0346
  670MOL0     H90437   8.852   8.729   7.082 -0.7543 -2.4642  0.1124
  670MOL0     H90438   8.756   8.691   6.897  0.7131 -0.4577  0.1072
  670MOL0     H90439   8.807   8.587   6.757 -1.9897  0.4253 -3.2676
  670MOL0     H90440   8.788   8.804   6.617 -2.2102 -3.9772 -1.7884
  670MOL0     H90441   8.725   8.889   6.763 -1.7652 -0.7992  0.1775
  670MOL0     H90442   8.539   8.751   6.782  0.9971 -1.1164  1.5121
  670MOL0     H90443   8.610   8.632   6.654  0.4499  0.6317 -0.3757
  670MOL0     H90444   8.480   8.907   6.583 -1.9812 -0.3955 -1.9944
  670MOL0     H90445   8.563   8.786   6.485  1.2289 -1.0085  0.5629
  670MOL0     H90446   8.164   8.654   6.555  0.0249  1.9088 -1.5633
  670MOL0     H90447   9.201   8.779   6.823 -0.0978 -3.1272 -0.6560
  670MOL0     H90448   9.420   8.728   6.933  0.4953  2.2300 -1.5143
  670MOL0     H90449   9.436   8.887   6.996  0.4959 -1.0953 -0.5785
  670MOL0     H90450   9.435   8.754   7.105  2.4627  0.2802 -0.3537
  671MOL0     O90451   1.340   6.328  10.862 -1.0043  0.1997  0.2571
  671MOL0     C90452   1.260   6.255  10.811  0.5046 -0.7967  0.3956
  671MOL0     O90453   1.286   6.149  10.720 -0.5936 -0.2054 -0.0371
  671MOL0     C90454   1.414   6.108  10.699 -1.2689  0.5948 -0.0285
  671MOL0     C90455   1.486   6.020  10.778 -0.7448  0.0535  0.1278
  671MOL0     C90456   1.603   5.963  10.738  0.7554 -0.4636 -0.7838
  671MOL0     C90457   1.662   6.001  10.615  0.1841  0.2991 -0.0209
  671MOL0     O90458   1.779   5.942  10.579  0.5873 -0.3917  0.0853
  671MOL0     C90459   1.867   6.014  10.489  0.4564 -1.0328 -0.0548
  671MOL0     C90460   2.001   5.941  10.468 -1.2663  0.4856  0.1562
  671MOL0     C90461   2.096   6.017  10.371  0.6970  0.6444 -0.5456
  671MOL0     C90462   2.228   5.943  10.365 -0.0612  0.1078  0.6455
  671MOL0     C90463   2.345   6.025  10.420 -0.3128 -0.5160 -1.5360
  671MOL0     C90464   2.336   6.072  10.567  0.7486 -0.5298  0.2671
  671MOL0     C90465   2.469   6.123  10.618 -0.8089 -0.6990  0.0166
  671MOL0     C90466   2.545   6.225  10.535 -0.0150  0.7999 -0.0883
  671MOL0     N90467   2.691   6.217  10.553 -0.0809 -0.0982 -0.8275
  671MOL0     C90468   2.767   6.237  10.658 -0.1199 -0.3967  0.2150
  671MOL0     C90469   2.894   6.202  10.620  0.3925  0.3650  0.4199
  671MOL0     C90470   3.014   6.190  10.708 -0.5081 -0.4182  0.1565
  671MOL0     C90471   3.060   6.312  10.785  0.4018  0.2972 -0.2218
  671MOL0     C90472   3.132   6.421  10.692 -0.0026  0.1660 -0.9940
  671MOL0     C90473   3.150   6.568  10.745  1.0519  0.3641  0.1961
  671MOL0     O90474   3.236   6.573  10.854 -0.6341  0.0438  0.0113
  671MOL0     C90475   3.318   6.677  10.893 -0.4786  0.6058 -0.3499
  671MOL0     C90476   3.421   6.640  10.984 -0.3539 -0.7094 -0.4102
  671MOL0     C90477   3.517   6.738  11.018 -0.1110 -0.4975 -0.0026
  671MOL0     C90478   3.518   6.863  10.964  0.1609  0.3359  0.0658
  671MOL0     C90479   3.631   6.945  10.984 -0.8742  0.3119 -0.5653
  671MOL0     O90480   3.695   6.931  11.110 -0.1281  0.1695 -0.0871
  671MOL0     C90481   3.803   7.005  11.150 -0.0679  0.1245  0.2403
  671MOL0     C90482   3.812   7.148  11.131  0.0732  0.3718  0.2911
  671MOL0     C90483   3.914   7.222  11.176 -0.6316 -0.4113  0.0592
  671MOL0     C90484   4.018   7.160  11.254  0.6364 -0.5499  0.4694
  671MOL0     O90485   4.123   7.229  11.294 -0.6196  0.1382 -0.8390
  671MOL0     C90486   4.123   7.371  11.315 -0.3501 -0.1428 -0.7287
  671MOL0     C90487   4.274   7.395  11.340 -0.3840  0.7005  0.3437
  671MOL0     C90488   4.294   7.525  11.430  0.0885  0.5875 -0.1843
  671MOL0     C90489   4.450   7.559  11.421 -0.1036  0.0587 -1.0665
  671MOL0     C90490   4.532   7.466  11.503  0.0040 -0.7765 -0.2238
  671MOL0     C90491   4.675   7.498  11.472  0.2480 -0.7840 -0.5521
  671MOL0     C90492   4.780   7.410  11.548  0.6965 -0.2561  0.8340
  671MOL0     C90493   4.915   7.444  11.509 -0.3858  0.5489 -0.6193
  671MOL0    Cl90494   4.948   7.614  11.562 -0.8188  0.0997 -0.2388
  671MOL0     C90495   4.008   7.021  11.293  0.2464 -0.6744  0.3333
  671MOL0     C90496   3.902   6.949  11.241  0.2249  0.2154  0.0985
  671MOL0     O90497   3.684   6.997  10.888  0.1574  0.1995  0.3776
  671MOL0     C90498   3.408   6.899  10.880 -0.7347 -0.3582  0.0813
  671MOL0     C90499   3.306   6.802  10.847 -0.2390 -1.2181  0.3789
  671MOL0     N90500   2.892   6.168  10.489  0.4828 -0.0916 -0.9453
  671MOL0     N90501   2.770   6.189  10.443 -0.1284 -0.1374  0.2563
  671MOL0     C90502   1.595   6.081  10.523  0.9486  0.6106  0.5510
  671MOL0     C90503   1.470   6.132  10.570 -0.4284 -0.6660 -0.7252
  671MOL0     C90504   1.118   6.268  10.840  0.3013 -0.4004 -0.3761
  671MOL0     C90505   1.027   6.268  10.734  0.0709 -1.2133 -0.0613
  671MOL0     C90506   0.888   6.288  10.751  0.7233 -0.2239  0.5180
  671MOL0     C90507   0.834   6.296  10.876 -0.7757  0.3886  0.4656
  671MOL0     O90508   0.699   6.309  10.877 -0.1103  0.0325  0.1016
  671MOL0     C90509   0.629   6.324  10.996 -0.1763 -0.2270 -0.2921
  671MOL0     C90510   0.610   6.180  11.058  0.1736 -0.5329 -0.1032
  671MOL0     C90511   0.500   6.193  11.178 -1.4242 -0.2779 -0.5801
  671MOL0     C90512   0.357   6.189  11.126 -0.0366  0.9650 -1.0098
  671MOL0     C90513   0.262   6.260  11.215  0.1426  0.5417 -0.1202
  671MOL0     C90514   0.198   6.338  11.287 -0.5299 -0.5524 -0.3790
  671MOL0     C90515   0.925   6.297  10.984 -0.0032 -0.3569  0.3648
  671MOL0     C90516   1.059   6.270  10.971  0.0376 -0.3501  0.5904
  671MOL0     C90517   1.154   6.261  11.093  0.7024 -0.3336  0.3876
  671MOL0     H90518   1.446   6.000  10.877 -0.5112 -1.2920 -0.0340
  671MOL0     H90519   1.653   5.887  10.796  0.4531 -0.7849 -0.9358
  671MOL0     H90520   1.821   6.014  10.390 -1.1624  2.6048  0.5187
  671MOL0     H90521   1.884   6.114  10.531 -1.5588 -1.1092  1.0564
  671MOL0     H90522   1.978   5.842  10.427  0.1377  0.5025 -0.7539
  671MOL0     H90523   2.048   5.932  10.566  2.7940  0.0439 -1.6284
  671MOL0     H90524   2.097   6.122  10.404  0.4483  0.9596 -1.4967
  671MOL0     H90525   2.053   6.020  10.270  2.2173 -0.8427 -1.2806
  671MOL0     H90526   2.209   5.843  10.404  0.2107 -0.2258 -0.0573
  671MOL0     H90527   2.263   5.917  10.265 -2.1518  1.4835 -0.5175
  671MOL0     H90528   2.430   5.959  10.401 -1.7218 -2.7396 -0.4968
  671MOL0     H90529   2.350   6.110  10.352  1.9335 -0.1287 -0.9720
  671MOL0     H90530   2.255   6.145  10.577 -0.3721 -1.6234 -0.4695
  671MOL0     H90531   2.304   5.985  10.625 -2.6317  0.0010 -0.5902
  671MOL0     H90532   2.541   6.041  10.625  0.3681  0.3600  0.7988
  671MOL0     H90533   2.452   6.167  10.717  1.0209  1.6930 -0.6445
  671MOL0     H90534   2.519   6.214  10.430  1.0814 -0.6293 -0.2319
  671MOL0     H90535   2.505   6.322  10.567 -2.3407  1.0405 -3.3102
  671MOL0     H90536   2.741   6.255  10.762 -4.4696 -0.5543 -0.6784
  671MOL0     H90537   3.001   6.114  10.785  2.0642  2.6127  4.0099
  671MOL0     H90538   3.091   6.148  10.643  1.5546 -0.0003  2.1948
  671MOL0     H90539   2.970   6.364  10.821  0.8433  2.3903 -1.8932
  671MOL0     H90540   3.122   6.284  10.870 -2.1046 -1.2202  1.2192
  671MOL0     H90541   3.068   6.427  10.604 -1.5680  1.5976  0.1600
  671MOL0     H90542   3.234   6.391  10.667  0.0252 -1.0881  0.4935
  671MOL0     H90543   3.052   6.614  10.761  1.6204  1.7454 -0.1664
  671MOL0     H90544   3.198   6.618  10.661 -0.6613  2.4770  0.3835
  671MOL0     H90545   3.424   6.539  11.023 -2.2293 -0.5598  0.2565
  671MOL0     H90546   3.591   6.705  11.091 -0.5909 -0.5996  0.4392
  671MOL0     H90547   3.739   7.210  11.081 -1.1066 -0.5277  0.8552
  671MOL0     H90548   3.921   7.330  11.164  0.9118 -0.0666  2.9291
  671MOL0     H90549   4.095   7.436  11.232  0.2481  1.2304  0.1163
  671MOL0     H90550   4.064   7.389  11.405 -0.7433  1.7428 -1.3164
  671MOL0     H90551   4.325   7.307  11.379 -1.4698  0.8685  2.2922
  671MOL0     H90552   4.320   7.406  11.242 -1.9477 -1.3676 -0.6972
  671MOL0     H90553   4.234   7.612  11.402  2.0147  1.5240 -1.5681
  671MOL0     H90554   4.264   7.498  11.532  1.5000  0.6582  0.2582
  671MOL0     H90555   4.461   7.660  11.460  2.6838 -0.5924  0.0489
  671MOL0     H90556   4.481   7.565  11.316  0.9562 -2.5200 -0.9843
  671MOL0     H90557   4.503   7.362  11.485 -0.3559 -0.6585 -0.3524
  671MOL0     H90558   4.509   7.494  11.606  0.3821  0.3654 -0.4424
  671MOL0     H90559   4.683   7.496  11.363  0.6001 -2.3551 -0.5181
  671MOL0     H90560   4.693   7.597  11.515 -0.2767  0.0245 -2.1196
  671MOL0     H90561   4.752   7.308  11.522 -1.1147  0.6254 -0.9363
  671MOL0     H90562   4.759   7.419  11.655 -4.1108 -0.8900  0.1494
  671MOL0     H90563   4.985   7.383  11.568 -1.0155  0.5515  0.1478
  671MOL0     H90564   4.933   7.412  11.406 -1.5213 -3.4554  0.2503
  671MOL0     H90565   4.074   6.974  11.365 -0.8766  1.5403  3.0068
  671MOL0     H90566   3.900   6.844  11.270  1.8334  0.5639  1.6038
  671MOL0     H90567   3.401   6.995  10.830 -5.6671 -0.1491  0.7191
  671MOL0     H90568   3.230   6.838  10.779  1.5289 -1.9010 -2.0699
  671MOL0     H90569   1.633   6.096  10.422 -2.2671  0.1425 -0.8449
  671MOL0     H90570   1.409   6.193  10.504 -1.3748  1.6090  2.0696
  671MOL0     H90571   1.062   6.282  10.632 -1.9713  1.4682 -0.5096
  671MOL0     H90572   0.820   6.294  10.666  1.7226  0.7073 -0.2486
  671MOL0     H90573   0.534   6.368  10.967 -0.7365 -1.1678  0.0593
  671MOL0     H90574   0.684   6.390  11.064  0.0488 -0.1847 -0.5168
  671MOL0     H90575   0.705   6.139  11.093 -0.3105 -0.6861  1.0725
  671MOL0     H90576   0.576   6.105  10.985  2.1250 -0.5922 -1.0022
  671MOL0     H90577   0.505   6.293  11.223 -3.4463 -0.6356  0.5402
  671MOL0     H90578   0.526   6.107  11.240  3.5112 -1.1616 -3.3397
  671MOL0     H90579   0.347   6.236  11.028 -1.2688  0.3176 -1.2063
  671MOL0     H90580   0.330   6.084  11.116  0.2690  0.7712  0.0787
  671MOL0     H90581   0.136   6.389  11.358 -0.8531 -2.2058  0.5943
  671MOL0     H90582   0.888   6.322  11.083  0.9143  0.6985  0.4550
  671MOL0     H90583   1.086   6.223  11.170 -1.3941 -0.1345 -1.2692
  671MOL0     H90584   1.233   6.189  11.070  1.6233  0.2411  1.6258
  671MOL0     H90585   1.190   6.360  11.122  0.0455 -0.0173  0.1404
  672MOL0     O90586   9.166   3.792   7.779 -0.0928  0.2872  0.9672
  672MOL0     C90587   9.263   3.763   7.861  0.0563 -0.0077  0.4433
  672MOL0     O90588   9.376   3.834   7.875 -0.5086 -0.3538 -0.4833
  672MOL0     C90589   9.379   3.965   7.820  0.0696 -0.1215  0.3525
  672MOL0     C90590   9.431   3.974   7.694 -0.5100 -0.5414  0.3181
  672MOL0     C90591   9.424   4.098   7.627  0.3126  0.2975  0.1669
  672MOL0     C90592   9.375   4.209   7.689  0.3182 -0.3084  0.0656
  672MOL0     O90593   9.378   4.332   7.619  0.9891  0.3430  0.2313
  672MOL0     C90594   9.429   4.349   7.483  0.5090  0.1430  0.1159
  672MOL0     C90595   9.581   4.369   7.491 -1.0859 -0.1508 -0.5023
  672MOL0     C90596   9.645   4.384   7.355 -1.6133 -0.1240  0.6009
  672MOL0     C90597   9.665   4.249   7.284 -0.5640 -0.5027  0.2384
  672MOL0     C90598   9.755   4.274   7.157  0.5740  0.3455 -0.4345
  672MOL0     C90599   9.805   4.143   7.089  0.4405 -1.3400 -0.0374
  672MOL0     C90600   9.882   4.052   7.190  0.0073 -1.1228 -0.4086
  672MOL0     C90601   9.919   3.916   7.130 -0.2551 -0.1841  0.1329
  672MOL0     N90602  10.058   3.920   7.068  0.8032 -0.1393 -0.1507
  672MOL0     C90603  10.089   3.966   6.943  0.0603 -0.5332  0.0119
  672MOL0     C90604  10.226   3.990   6.937 -0.1671  0.1128 -0.3096
  672MOL0     C90605  10.309   4.074   6.846  0.1432 -0.3054 -0.1071
  672MOL0     C90606  10.302   3.998   6.713  0.3448  0.9091 -0.5280
  672MOL0     C90607  10.391   4.048   6.601  0.1006 -0.3493  0.5589
  672MOL0     C90608  10.539   4.037   6.619 -0.2336 -0.1055  0.5972
  672MOL0     O90609  10.574   4.156   6.699  0.3025  1.0771  0.1217
  672MOL0     C90610  10.700   4.188   6.716  0.3140  0.2303 -0.1643
  672MOL0     C90611  10.807   4.110   6.680  0.1724 -0.9791 -0.2761
  672MOL0     C90612  10.935   4.154   6.711  0.5945  0.9661  0.2290
  672MOL0     C90613  10.963   4.263   6.790  0.7518 -0.0964  0.2947
  672MOL0     C90614  11.104   4.295   6.829 -1.0071 -0.7257 -0.9610
  672MOL0     O90615  11.130   4.406   6.900  0.2543 -0.4215 -0.3886
  672MOL0     C90616  11.250   4.439   6.962  0.5074  0.5277  0.1527
  672MOL0     C90617  11.228   4.502   7.078  0.1714 -0.1318 -0.7106
  672MOL0     C90618  11.331   4.567   7.142  0.8741  0.1112  0.6907
  672MOL0     C90619  11.449   4.573   7.081 -0.5483  0.4831 -0.4891
  672MOL0     O90620  11.552   4.640   7.159  0.0805  1.0802 -0.8065
  672MOL0     C90621  11.683   4.594   7.131 -0.3667  0.5903  0.3652
  672MOL0     C90622  11.783   4.687   7.198 -0.2426 -0.2964  0.1594
  672MOL0     C90623  11.774   4.832   7.148 -0.8107 -0.2755 -0.5730
  672MOL0     C90624  11.881   4.923   7.213 -0.9073 -0.2020  0.9384
  672MOL0     C90625  11.870   5.069   7.157  0.4723 -0.0179  0.2411
  672MOL0     C90626  11.846   5.166   7.268  0.3728  0.0805 -0.3317
  672MOL0     C90627  11.796   5.308   7.226 -0.2858  0.6296 -0.4742
  672MOL0     C90628  11.804   5.410   7.340  0.6342 -0.5781  1.2172
  672MOL0    Cl90629  11.716   5.357   7.492 -0.4830  0.1917  0.5648
  672MOL0     C90630  11.475   4.488   6.968 -0.5089 -0.3678  0.1068
  672MOL0     C90631  11.376   4.420   6.909 -0.0547  0.1123  0.5312
  672MOL0     O90632  11.190   4.220   6.784  0.2843 -0.6920 -0.9657
  672MOL0     C90633  10.851   4.347   6.821  0.6505 -0.2577  0.6863
  672MOL0     C90634  10.723   4.309   6.784  0.4683  0.1616  0.1356
  672MOL0     N90635  10.266   3.954   7.061 -0.0004 -0.0842  0.4262
  672MOL0     N90636  10.177   3.910   7.137  0.7384  0.4634  0.7454
  672MOL0     C90637   9.340   4.210   7.824  0.6130  0.4897  0.3367
  672MOL0     C90638   9.329   4.081   7.880  0.2688 -0.2720 -0.4910
  672MOL0     C90639   9.256   3.629   7.918 -0.2315 -0.2916 -0.6712
  672MOL0     C90640   9.323   3.607   8.039 -0.3055  0.6991 -0.4347
  672MOL0     C90641   9.316   3.483   8.106  0.1911 -0.7080 -0.3766
  672MOL0     C90642   9.255   3.375   8.049  0.4969  0.4688  0.0052
  672MOL0     O90643   9.276   3.259   8.113 -0.5879 -0.3505  0.5171
  672MOL0     C90644   9.205   3.143   8.091 -0.4718 -0.4710  0.5050
  672MOL0     C90645   9.272   3.036   8.017 -0.9052  0.7977 -0.0974
  672MOL0     C90646   9.412   3.008   8.069 -0.4164  0.1056 -0.4125
  672MOL0     C90647   9.472   2.881   8.026 -0.3034  0.4928  0.4604
  672MOL0     C90648   9.525   2.878   7.886  0.8990 -0.0036  0.0998
  672MOL0     C90649   9.576   2.865   7.776  0.1407 -0.2957  0.4282
  672MOL0     C90650   9.199   3.392   7.924 -0.1856  0.3392  0.7964
  672MOL0     C90651   9.199   3.515   7.857  0.5853  0.2486  0.5931
  672MOL0     C90652   9.147   3.498   7.715 -0.2824  0.0796 -0.5903
  672MOL0     H90653   9.466   3.884   7.645  2.4464  2.7991 -4.5842
  672MOL0     H90654   9.467   4.096   7.527 -1.0409 -0.4988 -0.4228
  672MOL0     H90655   9.403   4.268   7.413  2.4811 -2.3744  2.0749
  672MOL0     H90656   9.377   4.433   7.438 -1.5594  0.2593  2.4822
  672MOL0     H90657   9.625   4.284   7.544 -2.2966  0.0769  0.9316
  672MOL0     H90658   9.601   4.455   7.555 -0.5041 -2.0154  1.9636
  672MOL0     H90659   9.741   4.434   7.365 -0.4941 -1.1931 -3.0435
  672MOL0     H90660   9.586   4.444   7.285  0.4416  0.4784 -0.6769
  672MOL0     H90661   9.718   4.184   7.353  4.0684 -2.6185 -4.5770
  672MOL0     H90662   9.565   4.213   7.256 -1.1534  0.3188  1.2139
  672MOL0     H90663   9.692   4.327   7.084 -0.4032 -2.7522 -2.0489
  672MOL0     H90664   9.844   4.327   7.191  1.6555 -1.5491 -0.2212
  672MOL0     H90665   9.726   4.083   7.043 -1.7718  1.5575 -0.3202
  672MOL0     H90666   9.878   4.175   7.014 -0.9161 -0.5102 -1.0383
  672MOL0     H90667   9.819   4.040   7.278 -0.2550  1.3498 -0.1820
  672MOL0     H90668   9.972   4.107   7.218  0.5167 -2.7776  1.3576
  672MOL0     H90669   9.917   3.840   7.208  1.2707  0.3624  0.7441
  672MOL0     H90670   9.857   3.890   7.043 -0.2775 -3.6085  1.0427
  672MOL0     H90671  10.012   3.984   6.868 -1.7275 -3.7884  0.8674
  672MOL0     H90672  10.270   4.175   6.836  0.2885 -0.3991 -2.0198
  672MOL0     H90673  10.414   4.075   6.878  0.1239  0.0291 -0.0573
  672MOL0     H90674  10.329   3.892   6.720  1.6369  1.2478 -0.0062
  672MOL0     H90675  10.198   3.999   6.678  0.7262 -0.5303 -1.8381
  672MOL0     H90676  10.362   4.153   6.589  1.1756 -0.1325 -0.3392
  672MOL0     H90677  10.363   3.995   6.510 -2.8277  0.6344  0.7893
  672MOL0     H90678  10.589   4.048   6.523  0.5460  3.1913  1.2801
  672MOL0     H90679  10.570   3.942   6.665 -0.7324 -2.2859 -3.1351
  672MOL0     H90680  10.801   4.016   6.627 -0.4929 -1.1622  0.1117
  672MOL0     H90681  11.007   4.084   6.668  2.3697  3.0221 -0.3202
  672MOL0     H90682  11.128   4.506   7.121 -0.0611 -1.7537 -1.0480
  672MOL0     H90683  11.297   4.623   7.228  0.7137  1.8455 -0.4521
  672MOL0     H90684  11.698   4.490   7.162  2.0736  0.4459 -1.1039
  672MOL0     H90685  11.699   4.614   7.025 -0.7927  1.0579  0.3860
  672MOL0     H90686  11.762   4.702   7.304 -0.6298 -1.6037  0.2805
  672MOL0     H90687  11.885   4.650   7.185 -0.4486 -0.5454 -0.9050
  672MOL0     H90688  11.788   4.835   7.039 -2.1725  0.6220 -0.7477
  672MOL0     H90689  11.679   4.882   7.170  1.1614  3.9473 -0.5161
  672MOL0     H90690  11.969   4.869   7.179 -0.9184  1.6403 -2.4473
  672MOL0     H90691  11.878   4.921   7.323  0.8991 -1.4104  1.0060
  672MOL0     H90692  11.799   5.082   7.074  0.5316 -0.5460  0.1018
  672MOL0     H90693  11.960   5.103   7.105  0.0282 -0.2924 -0.7367
  672MOL0     H90694  11.771   5.131   7.340 -0.4616 -0.5549 -1.4894
  672MOL0     H90695  11.941   5.189   7.318 -1.3690  3.4278  1.7890
  672MOL0     H90696  11.697   5.302   7.180  0.4356 -5.5031 -2.1970
  672MOL0     H90697  11.861   5.340   7.144  1.5981 -1.3583  0.1310
  672MOL0     H90698  11.912   5.423   7.352  0.4707  0.8731  1.2961
  672MOL0     H90699  11.772   5.502   7.292  0.0965 -0.8388  1.0632
  672MOL0     H90700  11.567   4.479   6.910 -2.3014  0.2974 -3.0836
  672MOL0     H90701  11.395   4.370   6.815  2.6975  0.1360  0.9849
  672MOL0     H90702  10.879   4.441   6.867 -0.3385 -0.5746  2.0088
  672MOL0     H90703  10.645   4.377   6.813  1.1531  1.1519 -0.3037
  672MOL0     H90704   9.291   4.298   7.866 -0.9119 -1.0243  1.8964
  672MOL0     H90705   9.293   4.083   7.982 -2.7229  1.6047 -1.4531
  672MOL0     H90706   9.386   3.686   8.080  2.6434 -1.0742 -1.2006
  672MOL0     H90707   9.360   3.463   8.203 -2.2515 -1.6872  0.6117
  672MOL0     H90708   9.105   3.160   8.050 -2.0581 -2.0845  3.4127
  672MOL0     H90709   9.200   3.102   8.192 -0.4294  0.2901  0.8218
  672MOL0     H90710   9.274   3.069   7.913 -1.8762  0.8060 -0.1251
  672MOL0     H90711   9.209   2.946   8.019 -0.7679  0.6164 -1.8705
  672MOL0     H90712   9.395   3.008   8.177 -2.4553  1.0721 -0.6778
  672MOL0     H90713   9.481   3.090   8.045  0.7124 -1.4383 -2.8349
  672MOL0     H90714   9.547   2.848   8.098 -0.2431  2.2542  1.2562
  672MOL0     H90715   9.394   2.804   8.024 -0.4123  0.6095  0.0037
  672MOL0     H90716   9.640   2.866   7.690  0.2608  2.3538  0.4635
  672MOL0     H90717   9.154   3.306   7.876 -1.6139  2.2840 -1.5727
  672MOL0     H90718   9.048   3.543   7.711 -1.7113 -2.2932  3.1020
  672MOL0     H90719   9.218   3.542   7.644 -1.5080 -2.0909 -3.3231
  672MOL0     H90720   9.131   3.396   7.679  0.2335  0.2883 -1.4397
  673MOL0     O90721   8.223   9.327   7.042 -0.0255 -0.4139 -0.6562
  673MOL0     C90722   8.151   9.424   7.043 -0.0114  0.4763  0.8298
  673MOL0     O90723   8.197   9.553   7.051 -0.5508 -0.0971 -0.0948
  673MOL0     C90724   8.332   9.575   7.067 -0.3971 -0.2438 -0.2945
  673MOL0     C90725   8.425   9.545   6.967 -0.9593  0.3729  0.5583
  673MOL0     C90726   8.561   9.584   6.986 -0.2754 -0.3264 -0.1625
  673MOL0     C90727   8.603   9.644   7.114  0.8006 -0.6861  0.1889
  673MOL0     O90728   8.730   9.678   7.138 -0.5648  0.3061  0.3882
  673MOL0     C90729   8.830   9.652   7.040 -0.2682  0.2363  0.5257
  673MOL0     C90730   8.961   9.709   7.088 -0.2687 -0.0074 -0.0513
  673MOL0     C90731   9.084   9.685   7.001 -0.2417  0.4343 -0.3271
  673MOL0     C90732   9.201   9.782   7.023 -0.3689 -0.1796  1.4324
  673MOL0     C90733   9.329   9.721   6.963 -0.5477 -0.3051 -0.5778
  673MOL0     C90734   9.431   9.713   7.072  0.2611 -0.2987 -0.4084
  673MOL0     C90735   9.530   9.604   7.035  0.2277  0.5172  0.4027
  673MOL0     C90736   9.613   9.643   6.916 -0.3886 -0.3625 -0.1003
  673MOL0     N90737   9.744   9.703   6.961 -0.6131  0.7522 -0.8240
  673MOL0     C90738   9.777   9.839   6.980  1.1426 -0.1961  0.6961
  673MOL0     C90739   9.908   9.840   7.005  0.3233 -0.8563 -0.0937
  673MOL0     C90740  10.005   9.955   7.020  0.1405  0.5520  0.0477
  673MOL0     C90741  10.123   9.944   7.123  0.6292 -0.6499  0.6967
  673MOL0     C90742  10.249   9.872   7.064  0.1318  0.1123  0.2449
  673MOL0     C90743  10.350   9.844   7.173 -0.0560 -1.2969  0.8431
  673MOL0     O90744  10.376   9.971   7.256 -0.0394  0.9001  1.0782
  673MOL0     C90745  10.464   9.958   7.358  0.2531 -0.1393  1.9429
  673MOL0     C90746  10.478  10.062   7.443  0.5415  0.2683 -0.3175
  673MOL0     C90747  10.579  10.059   7.548  0.9340  1.3152 -0.2007
  673MOL0     C90748  10.672   9.959   7.554  0.7908  0.4368  0.8729
  673MOL0     C90749  10.788   9.956   7.653  0.0376 -0.3079  0.0490
  673MOL0     O90750  10.800  10.085   7.711  0.2874 -0.1938  0.3158
  673MOL0     C90751  10.919  10.094   7.778 -0.9465  0.1812  0.3033
  673MOL0     C90752  10.910  10.137   7.907 -0.2565 -0.0573 -0.5960
  673MOL0     C90753  11.025  10.149   7.977 -0.7431  0.7589 -0.0216
  673MOL0     C90754  11.157  10.123   7.924 -0.6367  0.4915 -0.6756
  673MOL0     O90755  11.265  10.146   7.995  0.5641  0.8802 -0.8827
  673MOL0     C90756  11.389  10.188   7.941 -0.1352 -0.2692  0.0753
  673MOL0     C90757  11.478  10.067   7.899  0.3763 -0.4345 -0.3107
  673MOL0     C90758  11.597  10.102   7.808 -0.2721  0.0386 -1.0498
  673MOL0     C90759  11.677  10.222   7.850 -0.3345 -0.8055 -0.2059
  673MOL0     C90760  11.816  10.245   7.780  0.2102  0.9856 -1.0582
  673MOL0     C90761  11.918  10.138   7.830 -0.1091 -0.5158 -0.3079
  673MOL0     C90762  12.035  10.142   7.723  0.9176  0.1367  0.6584
  673MOL0     C90763  12.152  10.057   7.763  0.0347  1.2234 -0.1931
  673MOL0    Cl90764  12.094   9.892   7.785  0.4928  0.1685  0.0212
  673MOL0     C90765  11.169  10.084   7.788  0.4264 -0.3795  0.0387
  673MOL0     C90766  11.046  10.082   7.710  0.3783 -0.3491 -0.0485
  673MOL0     O90767  10.861   9.864   7.662  0.0830  0.2421 -0.1173
  673MOL0     C90768  10.655   9.862   7.463  0.1005 -0.1807  0.7535
  673MOL0     C90769  10.559   9.854   7.360 -0.4164  0.1959 -0.5175
  673MOL0     N90770   9.962   9.716   6.991 -0.8764 -0.7747 -0.3711
  673MOL0     N90771   9.859   9.638   6.977 -0.2706  0.9098 -0.4845
  673MOL0     C90772   8.506   9.656   7.213 -0.7986 -0.4591  1.4462
  673MOL0     C90773   8.374   9.623   7.190 -0.4746 -0.1007 -0.0184
  673MOL0     C90774   8.005   9.383   7.028 -0.9146 -0.1651  0.4092
  673MOL0     C90775   7.970   9.283   6.926 -0.6558 -0.1131  0.2553
  673MOL0     C90776   7.838   9.248   6.906 -0.0840 -0.4078  0.1391
  673MOL0     C90777   7.739   9.289   6.996  0.7833 -0.3151  0.2603
  673MOL0     O90778   7.615   9.254   6.956  0.0925  0.0186  0.8739
  673MOL0     C90779   7.506   9.339   6.995  0.8345 -0.5870  0.2035
  673MOL0     C90780   7.448   9.293   7.134  0.1773 -0.5391 -0.4840
  673MOL0     C90781   7.364   9.165   7.130  0.4766  0.5321 -0.6430
  673MOL0     C90782   7.277   9.136   7.243  0.3571  0.2830  0.2190
  673MOL0     C90783   7.340   9.124   7.380  1.2283 -1.3294 -0.1732
  673MOL0     C90784   7.397   9.099   7.487 -0.6024  0.6898 -0.7165
  673MOL0     C90785   7.769   9.387   7.094  0.7036  0.6618  0.2945
  673MOL0     C90786   7.904   9.432   7.111 -0.2848  0.4275 -0.0810
  673MOL0     C90787   7.937   9.514   7.229 -0.6593 -0.0352 -0.2277
  673MOL0     H90788   8.400   9.504   6.869  2.8928  4.0316 -2.3268
  673MOL0     H90789   8.626   9.571   6.900  2.6903 -0.4148  1.9321
  673MOL0     H90790   8.853   9.549   7.012 -0.9949  0.3261 -0.4760
  673MOL0     H90791   8.801   9.685   6.940 -1.2387 -0.3474  0.5986
  673MOL0     H90792   8.976   9.661   7.185 -0.5260 -0.3585 -0.1859
  673MOL0     H90793   8.956   9.818   7.096  3.1420  0.1463  5.5733
  673MOL0     H90794   9.044   9.685   6.900 -4.1052 -0.9889  1.0499
  673MOL0     H90795   9.119   9.582   7.003 -0.2263  0.4404 -0.2380
  673MOL0     H90796   9.179   9.871   6.963  1.2682  0.6670  2.0373
  673MOL0     H90797   9.206   9.830   7.122 -1.7783  0.6918  1.1233
  673MOL0     H90798   9.300   9.626   6.917 -1.6952  0.6722 -1.9473
  673MOL0     H90799   9.373   9.781   6.883  0.1317 -1.2214 -0.9169
  673MOL0     H90800   9.467   9.815   7.088 -1.4542  0.0722  1.5403
  673MOL0     H90801   9.385   9.682   7.166 -0.4763 -0.6438 -0.8808
  673MOL0     H90802   9.491   9.504   7.013  1.0696  0.4492 -0.8229
  673MOL0     H90803   9.596   9.590   7.121  0.0958 -0.2402  0.3920
  673MOL0     H90804   9.632   9.553   6.856  1.5751 -1.8339  2.5415
  673MOL0     H90805   9.571   9.719   6.850  2.1115  0.5348 -0.7513
  673MOL0     H90806   9.712   9.925   6.968  1.6479  0.1764  0.5924
  673MOL0     H90807  10.038   9.985   6.920 -0.6404 -0.0613 -0.4055
  673MOL0     H90808   9.939  10.037   7.051  1.3236  1.1588  1.0834
  673MOL0     H90809  10.152  10.048   7.137  1.8631 -1.1571  2.2639
  673MOL0     H90810  10.094   9.886   7.212  1.2622 -0.0294  1.3249
  673MOL0     H90811  10.277   9.942   6.984  0.0640 -1.0734 -0.8595
  673MOL0     H90812  10.224   9.778   7.014  2.7146  0.3010 -1.6108
  673MOL0     H90813  10.444   9.816   7.126  0.4116  1.9763 -0.3901
  673MOL0     H90814  10.328   9.756   7.234 -0.8402 -1.7379 -0.0589
  673MOL0     H90815  10.410  10.146   7.451  1.1289  0.5869  3.2904
  673MOL0     H90816  10.597  10.148   7.608  2.6002 -0.3685  1.9898
  673MOL0     H90817  10.815  10.154   7.956  1.9358  1.4244  3.6011
  673MOL0     H90818  11.013  10.188   8.078  0.8658  1.3292 -0.0257
  673MOL0     H90819  11.363  10.257   7.861  1.0017  2.7679  2.1285
  673MOL0     H90820  11.435  10.264   8.004 -2.1924  0.1559  1.1441
  673MOL0     H90821  11.503  10.041   8.002 -0.6169  2.0705  0.6492
  673MOL0     H90822  11.420   9.980   7.867 -1.1939 -0.1891  1.6671
  673MOL0     H90823  11.677  10.027   7.815 -1.7782 -1.6867 -1.6448
  673MOL0     H90824  11.569  10.119   7.704 -0.1709  0.8581 -0.9475
  673MOL0     H90825  11.683  10.233   7.958 -0.8159  0.1527 -0.2574
  673MOL0     H90826  11.623  10.310   7.812  4.1012  2.3902  0.0582
  673MOL0     H90827  11.861  10.343   7.795  3.8843 -0.6974  0.3153
  673MOL0     H90828  11.806  10.236   7.671  1.1529  1.4280 -1.1871
  673MOL0     H90829  11.959  10.170   7.927  1.3639  0.8736 -1.3363
  673MOL0     H90830  11.877  10.038   7.848 -0.2595 -0.2304  1.0626
  673MOL0     H90831  12.064  10.246   7.710  1.4095 -0.0285  0.4239
  673MOL0     H90832  11.989  10.105   7.631 -2.9850  1.1774  1.9734
  673MOL0     H90833  12.214  10.052   7.673 -3.0874 -0.6899 -2.4370
  673MOL0     H90834  12.202  10.084   7.857  0.6256 -1.8456  0.4895
  673MOL0     H90835  11.265  10.081   7.740  0.4804 -0.5396  0.1561
  673MOL0     H90836  11.055  10.085   7.602 -3.4603 -1.2315 -0.5098
  673MOL0     H90837  10.724   9.778   7.465  0.1994 -0.0892  1.2749
  673MOL0     H90838  10.557   9.773   7.288 -2.9443  1.4755 -2.0104
  673MOL0     H90839   8.530   9.699   7.310 -0.3957  2.7578  0.0554
  673MOL0     H90840   8.292   9.622   7.262 -1.4678 -3.3114 -0.9810
  673MOL0     H90841   8.053   9.260   6.859 -1.0429  0.3151 -0.3800
  673MOL0     H90842   7.797   9.182   6.831 -2.5336 -0.4151  1.3877
  673MOL0     H90843   7.422   9.329   6.925 -0.2944  1.9327  1.0768
  673MOL0     H90844   7.533   9.445   6.987 -2.3588  0.1839 -4.4380
  673MOL0     H90845   7.406   9.380   7.185  0.7998  0.7000 -1.9964
  673MOL0     H90846   7.536   9.265   7.193  0.1803  0.7472  0.1710
  673MOL0     H90847   7.438   9.084   7.127 -1.5937 -1.4566 -1.3043
  673MOL0     H90848   7.300   9.164   7.041 -0.5758 -0.1960  0.0983
  673MOL0     H90849   7.202   9.216   7.240  0.7533  0.6286 -1.4414
  673MOL0     H90850   7.238   9.036   7.223  1.7799 -0.2224 -0.1237
  673MOL0     H90851   7.438   9.091   7.585 -2.6716  0.9624  0.2216
  673MOL0     H90852   7.685   9.429   7.149  0.5747  1.5053 -0.5222
  673MOL0     H90853   8.031   9.492   7.281 -1.4767  3.3181  3.2108
  673MOL0     H90854   7.939   9.620   7.201 -1.0344  0.6554  2.1272
  673MOL0     H90855   7.857   9.495   7.301 -1.3711 -1.7936 -1.4246
  674MOL0     O90856   2.006  11.242  10.126  0.7749  0.6789 -0.0865
  674MOL0     C90857   1.968  11.292  10.237  0.1391  0.8843 -0.3082
  674MOL0     O90858   2.038  11.381  10.311 -0.3970 -0.3749 -0.3592
  674MOL0     C90859   2.163  11.423  10.282  0.5724 -0.1123  0.0886
  674MOL0     C90860   2.261  11.323  10.290 -0.1497  0.5596 -0.3941
  674MOL0     C90861   2.401  11.353  10.273  0.6441  0.4804  0.1374
  674MOL0     C90862   2.427  11.490  10.240  0.3886  0.0052 -0.8059
  674MOL0     O90863   2.556  11.526  10.209 -0.2179  0.2096 -0.4228
  674MOL0     C90864   2.657  11.422  10.224 -0.7368  1.0392 -0.8737
  674MOL0     C90865   2.794  11.463  10.192 -0.7832 -0.7079 -0.0730
  674MOL0     C90866   2.892  11.362  10.251 -0.3616 -0.3564  0.3378
  674MOL0     C90867   3.029  11.390  10.189 -0.3280 -0.1408  0.1648
  674MOL0     C90868   3.142  11.316  10.258 -0.9137  0.7565 -0.6484
  674MOL0     C90869   3.284  11.361  10.217 -0.7680 -1.0132 -0.7478
  674MOL0     C90870   3.402  11.287  10.289 -0.0725  0.2338  0.7785
  674MOL0     C90871   3.413  11.135  10.248  0.1054  0.0268 -1.0083
  674MOL0     N90872   3.537  11.069  10.293  0.0688  0.6181 -0.6319
  674MOL0     C90873   3.575  10.942  10.259 -0.7401 -0.0054  1.0352
  674MOL0     C90874   3.688  10.917  10.332  0.0468 -0.0437 -0.8593
  674MOL0     C90875   3.765  10.788  10.320  0.5908 -0.2189 -1.1149
  674MOL0     C90876   3.878  10.794  10.217  0.6377 -0.2166 -0.1935
  674MOL0     C90877   3.965  10.920  10.235  0.6687  0.0902 -0.3850
  674MOL0     C90878   4.101  10.884  10.160  0.5805  0.4253 -0.1053
  674MOL0     O90879   4.091  10.848  10.019 -0.3395 -0.5282 -0.1692
  674MOL0     C90880   4.214  10.822   9.954  0.1163 -0.5213 -0.5839
  674MOL0     C90881   4.209  10.806   9.819 -0.2506 -0.4830 -0.0621
  674MOL0     C90882   4.334  10.766   9.758 -0.4376  0.1506  0.3340
  674MOL0     C90883   4.457  10.751   9.831 -0.2742  0.1926 -0.0837
  674MOL0     C90884   4.584  10.704   9.769 -2.0240 -0.5299  0.3083
  674MOL0     O90885   4.582  10.705   9.638 -0.1452  0.4641  0.2287
  674MOL0     C90886   4.698  10.673   9.568  0.1309  0.3669  0.6636
  674MOL0     C90887   4.772  10.778   9.520 -0.6578 -0.6149  1.5202
  674MOL0     C90888   4.894  10.744   9.449  1.0842  1.2930  0.2378
  674MOL0     C90889   4.928  10.611   9.434  0.1849 -0.1024  0.6648
  674MOL0     O90890   5.048  10.589   9.364  0.2402  0.6363 -0.4292
  674MOL0     C90891   5.134  10.481   9.398  0.1154  0.2457  0.5988
  674MOL0     C90892   5.257  10.468   9.314 -0.0635  0.7790 -0.7671
  674MOL0     C90893   5.378  10.442   9.403 -0.5944 -0.1958  0.5237
  674MOL0     C90894   5.373  10.300   9.463  0.1490 -0.2427 -0.9671
  674MOL0     C90895   5.487  10.279   9.561 -0.4144  1.9574 -0.0966
  674MOL0     C90896   5.483  10.137   9.632  1.1936 -0.2245 -0.5823
  674MOL0     C90897   5.603  10.128   9.732  0.1637 -0.1997  0.5692
  674MOL0     C90898   5.636   9.983   9.757 -0.1924  0.1253  0.6379
  674MOL0    Cl90899   5.514   9.855   9.792  0.2694 -0.3657  0.4349
  674MOL0     C90900   4.851  10.510   9.481  0.5146  0.3272  0.0514
  674MOL0     C90901   4.740  10.541   9.552 -0.6228 -0.4703 -0.3754
  674MOL0     O90902   4.687  10.691   9.839 -0.4020  0.3043 -0.1001
  674MOL0     C90903   4.454  10.778   9.968 -0.3628 -0.3370  0.6629
  674MOL0     C90904   4.338  10.823  10.026  0.6134  0.1930 -0.1193
  674MOL0     N90905   3.699  11.021  10.429 -0.5092 -0.1279  0.3811
  674MOL0     N90906   3.603  11.106  10.410 -1.1388  0.4333 -0.3464
  674MOL0     C90907   2.327  11.584  10.225  0.4609 -0.3164  0.0957
  674MOL0     C90908   2.191  11.551  10.259  0.1349  0.5978  0.3825
  674MOL0     C90909   1.824  11.258  10.271  0.0793 -0.6561 -0.1771
  674MOL0     C90910   1.750  11.374  10.323 -0.3868 -0.3260 -1.7163
  674MOL0     C90911   1.621  11.362  10.359  2.0047 -0.2710  0.2283
  674MOL0     C90912   1.551  11.241  10.350  0.5217  0.0419  0.2192
  674MOL0     O90913   1.417  11.241  10.375  0.0003  0.1874  0.8435
  674MOL0     C90914   1.333  11.127  10.365  0.4653 -0.7988  0.4078
  674MOL0     C90915   1.348  11.007  10.459 -0.2000 -0.2978 -0.8056
  674MOL0     C90916   1.268  11.031  10.592  0.0560 -0.0391  0.9974
  674MOL0     C90917   1.346  11.123  10.684 -0.0412 -0.3430  0.0766
  674MOL0     C90918   1.253  11.186  10.776 -0.0164 -0.2633 -0.0987
  674MOL0     C90919   1.190  11.243  10.858  0.8680  0.6403 -0.4830
  674MOL0     C90920   1.618  11.131  10.301  0.2772 -1.1240 -0.3409
  674MOL0     C90921   1.755  11.142  10.257 -0.1545 -0.2697  0.0899
  674MOL0     C90922   1.812  11.022  10.183 -0.2927  0.5821  0.2260
  674MOL0     H90923   2.239  11.217  10.301  0.2834  0.3048 -1.7947
  674MOL0     H90924   2.461  11.263  10.282 -0.1518  0.1283  2.8428
  674MOL0     H90925   2.650  11.383  10.326 -0.0009  1.2902 -0.7193
  674MOL0     H90926   2.637  11.336  10.159 -1.3328  2.2972 -2.4049
  674MOL0     H90927   2.816  11.566  10.222  2.6730 -0.6527 -2.2552
  674MOL0     H90928   2.802  11.456  10.083 -0.8022 -1.7368 -0.0134
  674MOL0     H90929   2.858  11.263  10.219  3.4216 -1.6521 -0.2319
  674MOL0     H90930   2.901  11.367  10.360 -1.7076 -1.2265  0.5113
  674MOL0     H90931   3.023  11.352  10.087 -0.8195  2.8622 -0.9959
  674MOL0     H90932   3.050  11.497  10.201 -2.5113  0.1124  2.5768
  674MOL0     H90933   3.127  11.334  10.365 -0.1617 -0.4743 -0.3218
  674MOL0     H90934   3.140  11.207  10.252 -0.6947  0.8096 -1.9081
  674MOL0     H90935   3.296  11.338  10.111 -2.0903 -2.5456 -0.5851
  674MOL0     H90936   3.297  11.469  10.235  0.0914 -1.5720  2.7147
  674MOL0     H90937   3.400  11.299  10.398  1.8018 -0.5605  0.9530
  674MOL0     H90938   3.498  11.328  10.256 -1.2147  1.6378 -0.9582
  674MOL0     H90939   3.321  11.081  10.273  0.6678 -0.6269 -0.2820
  674MOL0     H90940   3.418  11.148  10.140  0.0077  2.4414 -0.7637
  674MOL0     H90941   3.544  10.878  10.178 -1.7327  0.3055  1.1567
  674MOL0     H90942   3.795  10.762  10.422 -2.1319 -1.8552 -0.6230
  674MOL0     H90943   3.700  10.702  10.296  1.4230 -1.0242 -0.5354
  674MOL0     H90944   3.939  10.707  10.243  0.6023  0.4537  2.3266
  674MOL0     H90945   3.835  10.795  10.116  1.6266  1.2203 -0.6232
  674MOL0     H90946   3.972  10.953  10.339  0.5744  1.9438 -0.9255
  674MOL0     H90947   3.925  10.999  10.172 -0.6326 -0.6227 -0.4689
  674MOL0     H90948   4.148  10.795  10.202  1.7603 -0.8354 -3.7343
  674MOL0     H90949   4.165  10.973  10.162 -0.5638  1.3202 -1.2142
  674MOL0     H90950   4.109  10.821   9.780 -0.5697 -0.0503  0.9071
  674MOL0     H90951   4.323  10.758   9.651  0.1404  0.2741  0.2625
  674MOL0     H90952   4.734  10.878   9.539  0.7607  1.4689 -4.3887
  674MOL0     H90953   4.981  10.804   9.422  1.4499  0.2083 -1.0867
  674MOL0     H90954   5.170  10.507   9.497  1.2105  1.1808 -0.0194
  674MOL0     H90955   5.075  10.389   9.398 -0.8327  0.8373  0.0496
  674MOL0     H90956   5.256  10.383   9.246  1.4397 -1.2665  1.6107
  674MOL0     H90957   5.273  10.563   9.262 -1.7546  1.2413 -0.5132
  674MOL0     H90958   5.470  10.449   9.345 -0.2689 -0.9529  0.9340
  674MOL0     H90959   5.384  10.515   9.484 -0.2646  2.0228 -1.4214
  674MOL0     H90960   5.387  10.231   9.378  0.0563 -1.0859 -0.3069
  674MOL0     H90961   5.278  10.287   9.514  1.0632  2.4150  1.7457
  674MOL0     H90962   5.494  10.354   9.641  2.7073  0.5328  1.1202
  674MOL0     H90963   5.580  10.263   9.507 -1.8940 -3.9326 -1.5992
  674MOL0     H90964   5.388  10.130   9.686  0.5490  3.1459 -1.0606
  674MOL0     H90965   5.500  10.056   9.561  0.9274  0.6264 -1.6269
  674MOL0     H90966   5.583  10.178   9.828 -0.8125  0.8507 -0.1492
  674MOL0     H90967   5.698  10.174   9.703 -0.1756 -0.3032 -0.7680
  674MOL0     H90968   5.673   9.944   9.662 -2.8295  1.2223 -0.9672
  674MOL0     H90969   5.707   9.977   9.840  2.0080  0.3570 -1.1512
  674MOL0     H90970   4.863  10.403   9.467  3.1041  0.3581  1.5301
  674MOL0     H90971   4.685  10.459   9.596  2.8503 -1.4816  2.5001
  674MOL0     H90972   4.543  10.779  10.030  0.5194  0.7854 -0.5745
  674MOL0     H90973   4.340  10.854  10.130 -2.0252  0.4386 -0.0691
  674MOL0     H90974   2.341  11.688  10.196  0.7755 -0.1755  0.7160
  674MOL0     H90975   2.113  11.620  10.229 -0.2363  0.1799  0.3811
  674MOL0     H90976   1.802  11.468  10.341  0.0160 -1.2186  2.8732
  674MOL0     H90977   1.566  11.449  10.394 -0.1141 -1.0967 -0.8480
  674MOL0     H90978   1.359  11.091  10.265  0.7684  0.7861 -0.1200
  674MOL0     H90979   1.231  11.165  10.360  0.3584 -1.2599 -2.0845
  674MOL0     H90980   1.452  10.990  10.491 -0.4118  0.2164  0.1800
  674MOL0     H90981   1.303  10.922  10.407  0.0284 -0.1623 -1.2394
  674MOL0     H90982   1.247  10.936  10.642 -2.4223 -0.5255 -0.7860
  674MOL0     H90983   1.171  11.069  10.559  0.7439  0.7787 -0.1336
  674MOL0     H90984   1.435  11.082  10.733 -0.2498  1.5800  2.2489
  674MOL0     H90985   1.367  11.201  10.611 -1.4878 -1.4945 -1.6563
  674MOL0     H90986   1.132  11.275  10.942  0.4822 -0.9478 -0.1121
  674MOL0     H90987   1.572  11.037  10.273  1.2401 -1.8040  0.2666
  674MOL0     H90988   1.834  11.037  10.077  1.7527 -1.2874  0.3250
  674MOL0     H90989   1.905  10.996  10.235  0.0870  2.8506  0.8285
  674MOL0     H90990   1.743  10.938  10.193 -0.6777  0.9615  0.8719
  675MOL0     O90991   3.608   8.525   5.002 -0.0494 -0.2820  0.0061
  675MOL0     C90992   3.585   8.550   4.885  0.4430 -0.7129 -1.0221
  675MOL0     O90993   3.610   8.670   4.830  0.2171  0.3213 -0.5983
  675MOL0     C90994   3.658   8.777   4.901 -0.5833 -0.0228  0.8474
  675MOL0     C90995   3.595   8.896   4.870 -0.5347  0.3725  0.6271
  675MOL0     C90996   3.630   9.017   4.929  0.3751 -0.2386 -0.0305
  675MOL0     C90997   3.719   9.016   5.045  0.4022  0.5315 -0.4850
  675MOL0     O90998   3.761   9.122   5.120  0.1394 -0.0585 -0.1020
  675MOL0     C90999   3.738   9.250   5.068  0.1719  0.2214 -0.0076
  675MOL0     C91000   3.796   9.358   5.166  0.5756  0.2313 -0.4705
  675MOL0     C91001   3.792   9.494   5.109  0.0127 -1.4638 -0.4902
  675MOL0     C91002   3.906   9.590   5.136 -1.1830 -0.5575 -0.3444
  675MOL0     C91003   4.049   9.537   5.080  0.5606  0.4712 -0.6032
  675MOL0     C91004   4.152   9.639   5.101  1.1710 -0.1407  0.3419
  675MOL0     C91005   4.285   9.591   5.043  0.6500  0.0142 -0.7683
  675MOL0     C91006   4.399   9.678   5.102 -0.2140 -0.3501  0.3608
  675MOL0     N91007   4.522   9.659   5.037 -0.1129  0.5335  0.3044
  675MOL0     C91008   4.610   9.547   5.051  1.5206  1.1383 -0.0276
  675MOL0     C91009   4.704   9.568   4.962 -0.3027  0.7056  0.1042
  675MOL0     C91010   4.807   9.465   4.939  0.1729  0.3215  1.0194
  675MOL0     C91011   4.929   9.484   5.027 -0.4466 -0.1988 -0.3648
  675MOL0     C91012   5.008   9.610   4.998 -0.6966 -0.1219  0.0416
  675MOL0     C91013   4.992   9.718   5.107  0.0102 -0.5688 -0.4307
  675MOL0     O91014   5.082   9.822   5.061  0.6971  1.0127  0.5900
  675MOL0     C91015   5.053   9.948   5.093  0.5248 -0.7948 -0.1642
  675MOL0     C91016   5.108  10.010   5.202 -0.3257 -0.7644 -0.3888
  675MOL0     C91017   5.093  10.147   5.236 -0.0124  0.1041  0.1683
  675MOL0     C91018   5.012  10.221   5.149 -0.0012 -0.6473  0.9806
  675MOL0     C91019   4.992  10.367   5.171 -0.0584  0.2806 -0.5068
  675MOL0     O91020   5.079  10.424   5.259 -0.0231 -0.4234 -0.7252
  675MOL0     C91021   5.085  10.563   5.259 -0.1567  0.7475 -0.0055
  675MOL0     C91022   5.089  10.637   5.377 -0.3814 -0.3028 -0.3148
  675MOL0     C91023   5.104  10.772   5.382 -0.4253  0.0966 -0.7586
  675MOL0     C91024   5.100  10.841   5.261 -0.2706  0.9225 -0.8243
  675MOL0     O91025   5.118  10.979   5.268  0.6502  0.6521 -0.4680
  675MOL0     C91026   5.176  11.044   5.151  1.1763  0.0287 -0.5019
  675MOL0     C91027   5.251  11.165   5.175  0.6555 -0.8550 -0.2347
  675MOL0     C91028   5.161  11.282   5.195  0.3897 -0.3439 -0.5195
  675MOL0     C91029   5.238  11.381   5.275 -0.7497 -0.4521  0.2057
  675MOL0     C91030   5.121  11.482   5.320  0.1931 -0.2917 -0.8056
  675MOL0     C91031   5.044  11.554   5.213 -0.2632 -0.3007 -0.1182
  675MOL0     C91032   4.957  11.674   5.259 -0.0390  1.0062  0.6313
  675MOL0     C91033   5.044  11.792   5.318 -0.8172  0.5596 -0.6016
  675MOL0    Cl91034   5.126  11.876   5.181 -0.1782 -0.1273 -0.1455
  675MOL0     C91035   5.072  10.772   5.145 -0.1593 -0.2434 -0.2477
  675MOL0     C91036   5.080  10.636   5.141 -0.1374 -0.2820 -0.2378
  675MOL0     O91037   4.899  10.418   5.112  0.7594 -0.2578 -0.0782
  675MOL0     C91038   4.949  10.159   5.042  0.0090  0.4429  0.1844
  675MOL0     C91039   4.979  10.024   5.010  0.5724  0.0394 -0.2363
  675MOL0     N91040   4.675   9.673   4.879 -0.1793  0.0817 -0.7516
  675MOL0     N91041   4.568   9.733   4.933 -0.8808 -0.0015 -0.4296
  675MOL0     C91042   3.783   8.895   5.069  0.1631  0.2153  0.0058
  675MOL0     C91043   3.755   8.773   5.007 -0.3031  0.2471 -0.5928
  675MOL0     C91044   3.523   8.448   4.806  0.0625 -0.1880  0.6240
  675MOL0     C91045   3.504   8.320   4.865  0.2424 -0.1493 -0.1364
  675MOL0     C91046   3.433   8.211   4.804 -0.8978 -0.5196 -0.3260
  675MOL0     C91047   3.390   8.235   4.671 -0.8072  0.1907  0.1193
  675MOL0     O91048   3.330   8.145   4.586 -0.3430 -0.2600 -0.1815
  675MOL0     C91049   3.350   8.012   4.628  0.9417 -0.6192  0.0507
  675MOL0     C91050   3.301   7.909   4.528  0.2334  0.0954 -0.3011
  675MOL0     C91051   3.149   7.924   4.538  0.3714 -0.1795  0.5237
  675MOL0     C91052   3.084   7.798   4.462  0.3737 -0.4319 -0.2070
  675MOL0     C91053   2.936   7.804   4.436  0.1163 -0.1756 -0.2249
  675MOL0     C91054   2.826   7.817   4.396  0.3436  0.2608  0.2091
  675MOL0     C91055   3.430   8.355   4.610  0.0926  0.3561  0.6413
  675MOL0     C91056   3.493   8.460   4.669 -0.6165  0.7353  0.1574
  675MOL0     C91057   3.524   8.574   4.574 -1.5421  0.4269  0.0613
  675MOL0     H91058   3.530   8.886   4.784 -2.7342 -0.8038  2.3203
  675MOL0     H91059   3.588   9.110   4.892  0.5824 -0.0339  0.2445
  675MOL0     H91060   3.791   9.268   4.974  0.1558  0.8974  0.1019
  675MOL0     H91061   3.632   9.271   5.052  0.3108  2.8379  1.8563
  675MOL0     H91062   3.893   9.330   5.206  0.3836  1.2273  0.7523
  675MOL0     H91063   3.737   9.354   5.258  0.6852  0.1530 -0.4028
  675MOL0     H91064   3.697   9.528   5.151  0.5712 -1.5560  0.9014
  675MOL0     H91065   3.789   9.486   5.000  3.3147 -3.8091 -0.5592
  675MOL0     H91066   3.884   9.684   5.083  1.1793 -0.8321 -1.9573
  675MOL0     H91067   3.911   9.600   5.245 -1.0783  0.4723 -0.4315
  675MOL0     H91068   4.074   9.449   5.140 -1.3307 -2.1679 -3.3639
  675MOL0     H91069   4.034   9.503   4.977 -4.1162  1.8863 -0.5944
  675MOL0     H91070   4.120   9.720   5.035  0.2600 -0.0213  0.9115
  675MOL0     H91071   4.147   9.662   5.208 -0.7118 -0.2543  0.3106
  675MOL0     H91072   4.282   9.606   4.935 -1.1978 -0.4213 -0.8128
  675MOL0     H91073   4.301   9.486   5.068  2.2639  0.2443 -0.7314
  675MOL0     H91074   4.381   9.785   5.088  1.4173  0.3272  2.8489
  675MOL0     H91075   4.406   9.669   5.211  3.6304  1.4438  0.3875
  675MOL0     H91076   4.589   9.464   5.118  2.9956  0.4067 -0.4417
  675MOL0     H91077   4.779   9.360   4.951 -0.0956  0.3969  1.0448
  675MOL0     H91078   4.848   9.489   4.841  3.5857 -2.5346  1.5403
  675MOL0     H91079   4.913   9.475   5.135 -0.9444 -2.0644 -0.5491
  675MOL0     H91080   4.995   9.401   5.001  0.1107 -0.4850  1.7811
  675MOL0     H91081   4.987   9.664   4.905  0.9290  2.1958  0.9408
  675MOL0     H91082   5.111   9.574   5.000  0.9417  4.0507  1.8234
  675MOL0     H91083   5.031   9.684   5.203  0.5632  2.9318  0.7402
  675MOL0     H91084   4.894   9.766   5.119  1.1930  1.6680  1.1341
  675MOL0     H91085   5.176   9.944   5.256  1.0227 -1.3097 -2.6022
  675MOL0     H91086   5.137  10.201   5.319  0.5172  2.3701 -1.4722
  675MOL0     H91087   5.104  10.590   5.474  0.5426  1.4533  0.4314
  675MOL0     H91088   5.117  10.827   5.475  0.9239  1.2329 -1.5848
  675MOL0     H91089   5.257  10.979   5.118  1.4049  0.3204 -0.5175
  675MOL0     H91090   5.104  11.050   5.068 -3.0384 -1.1813  2.7417
  675MOL0     H91091   5.306  11.137   5.265 -2.7563  1.6021  2.9444
  675MOL0     H91092   5.321  11.182   5.094  0.2844 -1.6705 -0.7410
  675MOL0     H91093   5.130  11.324   5.099 -1.0228 -0.3185 -0.0787
  675MOL0     H91094   5.069  11.262   5.252  1.0630 -0.6140  0.5021
  675MOL0     H91095   5.310  11.429   5.208  0.1771 -3.6189 -1.2582
  675MOL0     H91096   5.273  11.320   5.358 -2.1823 -4.3815 -1.8289
  675MOL0     H91097   5.166  11.556   5.387 -0.7313  0.6377 -1.1872
  675MOL0     H91098   5.047  11.433   5.383 -0.8616  1.3098 -0.7338
  675MOL0     H91099   5.114  11.590   5.137 -2.5197 -0.3560 -2.3540
  675MOL0     H91100   4.986  11.485   5.152  1.5561  0.7437 -3.2694
  675MOL0     H91101   4.896  11.641   5.343  0.0838 -1.0412 -0.0237
  675MOL0     H91102   4.895  11.704   5.174  0.4658  0.4203  0.0371
  675MOL0     H91103   4.960  11.852   5.353 -1.6261 -0.8747 -0.0000
  675MOL0     H91104   5.107  11.757   5.401 -0.6361 -0.8603 -1.2945
  675MOL0     H91105   5.062  10.831   5.055  4.6939  0.6971 -0.4363
  675MOL0     H91106   5.066  10.583   5.047  0.9942 -0.2701 -0.4277
  675MOL0     H91107   4.889  10.220   4.975 -1.2819 -0.1232  0.8003
  675MOL0     H91108   4.934   9.970   4.927 -0.1149  0.0070  0.1454
  675MOL0     H91109   3.855   8.908   5.148  1.9745 -0.2442 -1.4852
  675MOL0     H91110   3.796   8.677   5.036  0.5317  1.4732  2.7892
  675MOL0     H91111   3.540   8.308   4.966  3.0341  2.5715 -0.6329
  675MOL0     H91112   3.418   8.115   4.853 -0.6070 -0.3862  0.0310
  675MOL0     H91113   3.300   7.997   4.725  0.3136 -0.8457 -0.3015
  675MOL0     H91114   3.457   7.997   4.639  1.6219  2.3163 -1.5265
  675MOL0     H91115   3.348   7.815   4.557  5.0914  2.7915  1.9134
  675MOL0     H91116   3.344   7.940   4.432  2.5450  1.0539  0.9572
  675MOL0     H91117   3.113   8.010   4.481  2.1620  0.6851  0.6302
  675MOL0     H91118   3.095   7.938   4.632  0.8697 -0.9887  0.9342
  675MOL0     H91119   3.127   7.795   4.361  0.3144 -3.7629 -0.2625
  675MOL0     H91120   3.116   7.712   4.522  0.0480  1.3001  2.6363
  675MOL0     H91121   2.727   7.829   4.355  1.1833  0.7114 -1.8247
  675MOL0     H91122   3.405   8.368   4.505  0.4920 -2.7365  0.0563
  675MOL0     H91123   3.460   8.661   4.595 -0.2799  0.8054  2.6344
  675MOL0     H91124   3.623   8.620   4.583 -1.5987  1.6130 -3.5884
  675MOL0     H91125   3.510   8.543   4.470 -1.6971 -2.2662  0.8334
  676MOL0     O91126   2.903   3.969   3.928  0.9368 -0.8562 -0.0455
  676MOL0     C91127   2.898   3.858   3.888 -0.3588 -0.0744  0.3109
  676MOL0     O91128   3.010   3.793   3.833 -0.6016 -0.1459  0.4261
  676MOL0     C91129   3.129   3.853   3.804  0.1845  0.1316 -0.6852
  676MOL0     C91130   3.246   3.769   3.815  0.1133 -0.8868  0.1056
  676MOL0     C91131   3.375   3.814   3.802  0.4399 -0.8782 -0.4132
  676MOL0     C91132   3.389   3.950   3.755  0.6839  0.3163  0.4588
  676MOL0     O91133   3.516   4.010   3.744 -1.2262  0.2944  0.0449
  676MOL0     C91134   3.538   4.149   3.720  0.2462  0.0043  0.1967
  676MOL0     C91135   3.696   4.165   3.743 -0.5568  0.2411  0.1009
  676MOL0     C91136   3.749   4.293   3.714 -1.1938 -0.3336  0.3843
  676MOL0     C91137   3.677   4.415   3.763 -0.1406 -0.5371 -0.1761
  676MOL0     C91138   3.773   4.535   3.774 -0.1011 -0.6196  0.1980
  676MOL0     C91139   3.693   4.663   3.794  0.2095  0.9469  0.0298
  676MOL0     C91140   3.771   4.797   3.767 -0.9206  0.2379 -0.2718
  676MOL0     C91141   3.685   4.926   3.784 -0.0411  0.0376 -0.1524
  676MOL0     N91142   3.759   5.048   3.752  0.3771 -0.0367 -0.1347
  676MOL0     C91143   3.732   5.121   3.640  0.0527  0.3215  0.3731
  676MOL0     C91144   3.841   5.190   3.609  0.3467  0.1897 -0.4517
  676MOL0     C91145   3.864   5.308   3.521  0.4115 -0.5719  0.3696
  676MOL0     C91146   3.903   5.276   3.380  0.0343  0.4976  0.2479
  676MOL0     C91147   4.051   5.248   3.366  0.6446 -0.3678 -0.3937
  676MOL0     C91148   4.068   5.203   3.220  0.3817 -1.1273 -1.5893
  676MOL0     O91149   4.205   5.223   3.174 -0.6148  0.3435 -0.1750
  676MOL0     C91150   4.256   5.347   3.156 -0.6187 -0.2315  0.3351
  676MOL0     C91151   4.188   5.467   3.176 -0.3055  0.0989 -0.3554
  676MOL0     C91152   4.258   5.585   3.150  0.1928 -0.1820 -0.4694
  676MOL0     C91153   4.399   5.590   3.138 -1.0718  0.3913  0.9587
  676MOL0     C91154   4.471   5.722   3.116  0.5873  0.2496  0.2051
  676MOL0     O91155   4.603   5.711   3.143 -0.2665  0.3287 -0.2828
  676MOL0     C91156   4.683   5.816   3.116  0.2374  0.9903 -1.2029
  676MOL0     C91157   4.757   5.822   2.995 -0.4009  0.0545  0.2316
  676MOL0     C91158   4.830   5.934   2.972 -0.0991  0.0722 -0.4928
  676MOL0     C91159   4.830   6.047   3.049 -0.1123 -0.0465  0.5756
  676MOL0     O91160   4.902   6.157   3.010  0.5043  0.5546 -0.0727
  676MOL0     C91161   4.859   6.200   2.883 -0.0831 -0.1676  0.7088
  676MOL0     C91162   4.919   6.335   2.847 -0.0406  0.3894  0.1163
  676MOL0     C91163   5.069   6.321   2.821  0.3504 -0.8935 -0.1489
  676MOL0     C91164   5.111   6.456   2.796 -0.2738 -1.1101  0.7366
  676MOL0     C91165   5.258   6.442   2.771  0.6390 -0.2488  0.6123
  676MOL0     C91166   5.322   6.575   2.741 -0.2359  0.8986 -0.4720
  676MOL0     C91167   5.475   6.567   2.710 -1.1484 -0.2943  0.3422
  676MOL0     C91168   5.578   6.586   2.822 -0.0755 -0.2111  0.3822
  676MOL0    Cl91169   5.621   6.445   2.923  0.0494  0.6610 -0.2694
  676MOL0     C91170   4.758   6.037   3.176  0.4023 -0.2180  0.3300
  676MOL0     C91171   4.689   5.922   3.210 -0.5093 -0.3779 -1.2922
  676MOL0     O91172   4.414   5.825   3.090  0.3377  0.3627  0.3054
  676MOL0     C91173   4.468   5.467   3.137  0.4220 -0.5410  0.2682
  676MOL0     C91174   4.397   5.347   3.138  0.0212 -0.1806 -0.3325
  676MOL0     N91175   3.939   5.160   3.709  0.0904 -0.4512 -0.0539
  676MOL0     N91176   3.895   5.074   3.787 -0.0714  0.2816 -0.1203
  676MOL0     C91177   3.278   4.028   3.733 -0.5458 -0.4493  0.2978
  676MOL0     C91178   3.151   3.989   3.772  0.6990 -0.0600  0.1726
  676MOL0     C91179   2.787   3.773   3.923  0.2386 -0.3632  0.1194
  676MOL0     C91180   2.795   3.636   3.896  0.1757  0.4654 -0.5652
  676MOL0     C91181   2.701   3.543   3.935  0.2053  0.5859 -0.5225
  676MOL0     C91182   2.580   3.595   4.003 -0.0616  0.8123  0.5011
  676MOL0     O91183   2.486   3.507   4.051 -0.3569 -0.0517 -0.1803
  676MOL0     C91184   2.382   3.558   4.128  0.5657  0.0510  0.6658
  676MOL0     C91185   2.300   3.442   4.183  0.1119 -0.7376 -0.8899
  676MOL0     C91186   2.233   3.343   4.088 -0.0759  0.8152  0.0967
  676MOL0     C91187   2.324   3.241   4.024 -0.3719 -0.0524 -0.5049
  676MOL0     C91188   2.250   3.140   3.945  0.7218 -0.3327 -0.1623
  676MOL0     C91189   2.188   3.071   3.866  0.1482  0.5412  0.5409
  676MOL0     C91190   2.563   3.736   4.006  0.2401 -0.0528  1.2285
  676MOL0     C91191   2.660   3.821   3.964  0.1942  0.2919 -0.1524
  676MOL0     C91192   2.623   3.971   3.963  0.3335  0.9879 -0.3286
  676MOL0     H91193   3.250   3.664   3.840 -0.3014 -0.4412  2.2860
  676MOL0     H91194   3.464   3.753   3.817  0.4644 -0.9141 -0.6948
  676MOL0     H91195   3.496   4.179   3.624 -2.0766 -3.5565 -0.0678
  676MOL0     H91196   3.503   4.211   3.803 -0.0902  0.7541 -0.4856
  676MOL0     H91197   3.747   4.102   3.671 -2.4477  1.6341 -2.6702
  676MOL0     H91198   3.725   4.128   3.842 -2.6887  2.7648  1.8324
  676MOL0     H91199   3.763   4.308   3.607 -0.0512  0.2110  0.5911
  676MOL0     H91200   3.852   4.299   3.750 -0.3396  3.7845 -2.0941
  676MOL0     H91201   3.588   4.435   3.702 -0.9077 -1.5702  0.5659
  676MOL0     H91202   3.646   4.396   3.866  2.2442 -0.2787  0.6497
  676MOL0     H91203   3.845   4.521   3.855  0.4331 -0.0119 -0.1621
  676MOL0     H91204   3.829   4.542   3.680 -1.1392 -1.6351 -0.5172
  676MOL0     H91205   3.613   4.664   3.719 -1.2509 -0.9844  1.4399
  676MOL0     H91206   3.640   4.668   3.890  0.6632 -1.8431  0.5034
  676MOL0     H91207   3.817   4.785   3.669  0.1241 -1.0625  0.3410
  676MOL0     H91208   3.854   4.814   3.837 -2.4052  1.6267  1.2342
  676MOL0     H91209   3.596   4.922   3.720  0.4488 -0.3859 -0.8104
  676MOL0     H91210   3.651   4.933   3.888 -0.8354  0.0312 -0.4061
  676MOL0     H91211   3.638   5.123   3.585 -0.1385 -2.1266  0.4813
  676MOL0     H91212   3.776   5.373   3.518  0.1196 -0.9864 -2.5194
  676MOL0     H91213   3.951   5.366   3.554  1.2067 -0.2948 -2.0076
  676MOL0     H91214   3.846   5.192   3.339  0.3109  1.3594 -2.0925
  676MOL0     H91215   3.885   5.361   3.312 -2.7985 -1.3754 -1.5817
  676MOL0     H91216   4.093   5.170   3.430 -0.6939 -0.9933 -0.2626
  676MOL0     H91217   4.100   5.345   3.380  1.0628 -0.4427 -1.2368
  676MOL0     H91218   4.001   5.261   3.156 -0.0128 -0.4954 -0.6253
  676MOL0     H91219   4.037   5.098   3.222  0.4348 -1.1420  0.5333
  676MOL0     H91220   4.081   5.471   3.196 -0.5482 -0.2093 -1.5452
  676MOL0     H91221   4.208   5.681   3.138  2.0658  0.9408  0.1142
  676MOL0     H91222   4.756   5.742   2.922  1.4870 -0.0289  0.2346
  676MOL0     H91223   4.887   5.922   2.880 -0.6178 -0.7807 -0.7118
  676MOL0     H91224   4.881   6.132   2.799 -0.2767  0.8434 -0.1762
  676MOL0     H91225   4.750   6.207   2.888 -0.0635  2.5831 -0.7326
  676MOL0     H91226   4.872   6.370   2.755 -0.4786  1.7885  0.8460
  676MOL0     H91227   4.895   6.410   2.923  0.0628 -0.2839  0.8247
  676MOL0     H91228   5.121   6.288   2.911 -1.0597 -0.3752  0.9019
  676MOL0     H91229   5.085   6.262   2.730 -2.6179 -1.4153 -0.4309
  676MOL0     H91230   5.097   6.536   2.870  1.7727 -0.2522  0.2339
  676MOL0     H91231   5.068   6.482   2.699  0.1617 -1.4509  0.4514
  676MOL0     H91232   5.285   6.369   2.693  1.6685 -0.1730  0.8739
  676MOL0     H91233   5.312   6.397   2.855  1.2670 -2.0875 -0.7172
  676MOL0     H91234   5.273   6.614   2.651  0.8795  0.4651 -1.2886
  676MOL0     H91235   5.296   6.634   2.829  1.7249  0.9907  0.0751
  676MOL0     H91236   5.490   6.641   2.631  2.4720 -0.5250  0.6800
  676MOL0     H91237   5.491   6.471   2.660 -1.1383 -0.6865  1.0742
  676MOL0     H91238   5.676   6.614   2.782  0.4123 -1.1489  0.8860
  676MOL0     H91239   5.539   6.669   2.881 -0.4952 -0.5505  0.5931
  676MOL0     H91240   4.764   6.119   3.246 -1.9704  0.2577  0.0705
  676MOL0     H91241   4.634   5.913   3.303  0.2512  0.2511 -0.7631
  676MOL0     H91242   4.576   5.465   3.127  0.2848 -1.5172 -1.1768
  676MOL0     H91243   4.437   5.248   3.119 -1.2767 -0.5426 -1.3547
  676MOL0     H91244   3.290   4.130   3.697 -0.0058 -0.4691  0.4115
  676MOL0     H91245   3.064   4.047   3.743  0.2879  1.3602  3.6608
  676MOL0     H91246   2.890   3.599   3.858 -0.2884 -0.3565 -0.9630
  676MOL0     H91247   2.715   3.435   3.935 -2.1696  0.2227 -0.9125
  676MOL0     H91248   2.331   3.627   4.060  3.7408  1.9617 -0.0193
  676MOL0     H91249   2.422   3.622   4.207 -1.2337  1.4635  0.5184
  676MOL0     H91250   2.218   3.482   4.243 -0.1725 -0.3145 -1.5453
  676MOL0     H91251   2.370   3.396   4.252 -0.0023  0.0710 -0.2187
  676MOL0     H91252   2.168   3.391   4.014 -0.8474 -0.6630 -0.2469
  676MOL0     H91253   2.172   3.288   4.160 -0.8031 -0.3744 -1.3700
  676MOL0     H91254   2.398   3.286   3.958  0.6413 -0.6863  0.1647
  676MOL0     H91255   2.372   3.184   4.105  0.1409  0.1496 -0.6664
  676MOL0     H91256   2.119   3.019   3.803 -0.7716 -0.2980  2.1759
  676MOL0     H91257   2.472   3.790   4.032 -0.5818 -0.8682  0.1481
  676MOL0     H91258   2.689   4.037   4.021  0.9043  0.1617 -0.0202
  676MOL0     H91259   2.622   3.996   3.856  2.6369 -0.2832 -0.7119
  676MOL0     H91260   2.524   3.988   4.007  0.0409  0.4308 -0.7545
  677MOL0     O91261   8.820   3.883   5.797 -0.4456 -0.0297 -0.1906
  677MOL0     C91262   8.859   3.841   5.908  1.0137  0.6061  0.0684
  677MOL0     O91263   8.878   3.922   6.012  0.5874 -0.6717  1.1330
  677MOL0     C91264   8.847   4.058   6.009  0.5126 -0.0399 -0.5175
  677MOL0     C91265   8.880   4.143   5.904  0.2000 -0.3041  1.1715
  677MOL0     C91266   8.859   4.281   5.918 -0.5966 -0.4167 -0.3291
  677MOL0     C91267   8.808   4.337   6.040  0.2879 -0.4707 -0.0565
  677MOL0     O91268   8.802   4.472   6.056  0.6862  0.3192 -0.4944
  677MOL0     C91269   8.907   4.551   6.003 -0.2044  1.5528  1.1294
  677MOL0     C91270   8.945   4.673   6.093  0.8813  1.3539 -0.4706
  677MOL0     C91271   8.974   4.621   6.235 -0.5106  0.5619 -0.1235
  677MOL0     C91272   8.995   4.745   6.332  0.8602 -0.4330 -0.6042
  677MOL0     C91273   9.032   4.699   6.476 -0.1165 -0.2918  0.5556
  677MOL0     C91274   9.069   4.812   6.573 -0.4130 -0.4321  0.6596
  677MOL0     C91275   9.116   4.740   6.700  0.3940  0.0195 -0.1827
  677MOL0     C91276   9.132   4.852   6.808 -0.2917  0.6040  1.0330
  677MOL0     N91277   9.185   4.802   6.937  0.3051  0.0635 -0.2915
  677MOL0     C91278   9.315   4.764   6.958 -0.3936 -0.0067  0.4632
  677MOL0     C91279   9.334   4.772   7.086 -0.4372 -0.4217  0.9745
  677MOL0     C91280   9.456   4.738   7.161 -0.7652 -0.0599  0.3068
  677MOL0     C91281   9.474   4.799   7.298 -0.2884  0.0401 -0.2021
  677MOL0     C91282   9.607   4.759   7.355  0.9172 -0.4305 -0.6430
  677MOL0     C91283   9.613   4.727   7.508  0.1299  0.1095  0.2950
  677MOL0     O91284   9.731   4.666   7.556 -0.0441 -0.2163  0.3179
  677MOL0     C91285   9.828   4.743   7.613 -0.1214  0.5526  0.6841
  677MOL0     C91286   9.951   4.683   7.631 -0.1220  0.1399 -0.0720
  677MOL0     C91287  10.056   4.750   7.683 -0.0946 -0.2820 -0.2712
  677MOL0     C91288  10.045   4.881   7.735 -0.3209  0.3834  0.7406
  677MOL0     C91289  10.157   4.944   7.808  0.2301  0.2837  0.4613
  677MOL0     O91290  10.150   5.076   7.842 -0.3517  0.1879  1.0368
  677MOL0     C91291  10.247   5.137   7.914 -0.1488 -0.4083  0.9500
  677MOL0     C91292  10.284   5.076   8.031 -0.5663  0.2306 -1.2494
  677MOL0     C91293  10.373   5.142   8.123 -0.3866  0.6076 -0.8711
  677MOL0     C91294  10.407   5.281   8.101 -0.1888 -0.0510 -0.3626
  677MOL0     O91295  10.493   5.354   8.175  0.0858 -0.0306  0.2682
  677MOL0     C91296  10.572   5.286   8.269  1.1087 -0.1083  0.3300
  677MOL0     C91297  10.692   5.355   8.304 -1.0972 -0.8110  0.4578
  677MOL0     C91298  10.803   5.269   8.365 -0.0969 -0.0134  0.2747
  677MOL0     C91299  10.864   5.346   8.478  0.7999  0.0075 -0.1316
  677MOL0     C91300  10.961   5.261   8.564 -0.0758 -0.2618  0.0095
  677MOL0     C91301  11.066   5.170   8.498 -0.0816 -0.8206  0.7282
  677MOL0     C91302  11.161   5.103   8.597  0.3135  0.7616  0.2542
  677MOL0     C91303  11.110   4.964   8.644 -0.8528 -0.3619  0.0925
  677MOL0    Cl91304  11.250   4.915   8.750 -0.2166 -0.0908  0.0857
  677MOL0     C91305  10.368   5.336   7.976 -0.3091  0.6538  0.4493
  677MOL0     C91306  10.293   5.264   7.889  0.8091  0.3843  0.5507
  677MOL0     O91307  10.256   4.873   7.835  0.0494 -0.3649 -0.4463
  677MOL0     C91308   9.916   4.940   7.718  0.5465  0.1407  0.9008
  677MOL0     C91309   9.812   4.871   7.656  0.3900 -0.4790 -0.1603
  677MOL0     N91310   9.221   4.815   7.148 -0.2597  0.9466 -0.4699
  677MOL0     N91311   9.140   4.848   7.058  0.1780  0.4628  0.2722
  677MOL0     C91312   8.767   4.252   6.142 -1.2513 -0.0186  0.3982
  677MOL0     C91313   8.785   4.111   6.126 -0.5750  0.2882 -0.4415
  677MOL0     C91314   8.873   3.691   5.925  0.1371 -0.0252 -0.2408
  677MOL0     C91315   8.869   3.640   6.052  0.7879  0.1980  0.2608
  677MOL0     C91316   8.882   3.503   6.083  0.1382 -0.2351  1.2612
  677MOL0     C91317   8.906   3.415   5.979 -0.1230  0.9140  0.6998
  677MOL0     O91318   8.894   3.277   6.011 -0.0127  0.2920  0.0427
  677MOL0     C91319   8.996   3.230   6.112  1.1092 -0.3437 -0.9468
  677MOL0     C91320   8.969   3.076   6.130 -0.1563 -0.2174  0.7239
  677MOL0     C91321   8.833   3.045   6.194 -0.0273 -0.9462 -1.2127
  677MOL0     C91322   8.811   2.902   6.201 -0.2095  0.3797 -0.1980
  677MOL0     C91323   8.690   2.864   6.275 -0.8792 -0.1078  0.0392
  677MOL0     C91324   8.591   2.818   6.340  0.4482 -0.1227 -0.6693
  677MOL0     C91325   8.904   3.454   5.848  0.4190  0.9968 -0.1928
  677MOL0     C91326   8.894   3.595   5.823  0.1452 -0.3390  0.0305
  677MOL0     C91327   8.884   3.635   5.683  0.4022  0.4896 -0.1392
  677MOL0     H91328   8.943   4.105   5.823  0.8401 -0.8978  1.9330
  677MOL0     H91329   8.884   4.356   5.844  1.5765 -0.8174 -0.0586
  677MOL0     H91330   8.999   4.496   5.981 -0.3012 -0.4525  4.9872
  677MOL0     H91331   8.875   4.588   5.905  0.7632 -0.2808  0.0560
  677MOL0     H91332   8.852   4.730   6.102 -1.3868 -2.0631 -0.1619
  677MOL0     H91333   9.029   4.724   6.045  1.2542  0.1884 -1.1055
  677MOL0     H91334   9.067   4.565   6.221 -1.1560 -0.0476 -2.4740
  677MOL0     H91335   8.900   4.555   6.282  1.9622 -1.2002  1.5231
  677MOL0     H91336   9.081   4.801   6.295 -0.7161  1.6634 -1.2572
  677MOL0     H91337   8.900   4.798   6.333  1.1205  0.0278  0.3553
  677MOL0     H91338   8.948   4.642   6.519 -0.3552  0.0861  0.5958
  677MOL0     H91339   9.122   4.639   6.464  0.5015  1.1175 -2.6592
  677MOL0     H91340   9.159   4.863   6.538 -0.3097 -1.0117  0.0484
  677MOL0     H91341   8.987   4.884   6.572  0.6710  0.8649  1.6973
  677MOL0     H91342   9.209   4.689   6.675 -0.2140 -0.8074 -0.7790
  677MOL0     H91343   9.044   4.662   6.727  2.6595 -1.4463  2.1149
  677MOL0     H91344   9.202   4.925   6.768 -1.2764  0.8633 -0.2970
  677MOL0     H91345   9.045   4.918   6.819  0.0099  0.8496  2.0031
  677MOL0     H91346   9.393   4.736   6.887  1.6518 -1.1030  2.9701
  677MOL0     H91347   9.451   4.628   7.160 -0.8212 -0.0502 -0.4737
  677MOL0     H91348   9.544   4.757   7.100  2.0620 -4.6259  2.3625
  677MOL0     H91349   9.469   4.906   7.276  0.6555 -0.2071 -1.8117
  677MOL0     H91350   9.395   4.778   7.371  0.6131 -3.6610 -0.1058
  677MOL0     H91351   9.677   4.842   7.342  1.3737 -0.0998  2.8913
  677MOL0     H91352   9.645   4.671   7.301 -0.1813 -0.0708 -2.0441
  677MOL0     H91353   9.528   4.665   7.536 -1.6612  2.9292  1.5678
  677MOL0     H91354   9.596   4.818   7.567  1.0793 -0.2090  1.0748
  677MOL0     H91355   9.980   4.581   7.607  1.4001  0.0257  1.9777
  677MOL0     H91356  10.145   4.691   7.700 -0.4197 -0.1222  2.4432
  677MOL0     H91357  10.256   4.974   8.052 -0.7748  1.1513  5.1445
  677MOL0     H91358  10.416   5.092   8.208 -0.0212 -1.9550 -2.4650
  677MOL0     H91359  10.515   5.244   8.351  0.0512 -3.7019 -1.9966
  677MOL0     H91360  10.622   5.200   8.223  4.6922  1.6257  0.6388
  677MOL0     H91361  10.726   5.387   8.205 -1.3403 -2.3370 -0.1442
  677MOL0     H91362  10.680   5.447   8.361  2.0841  0.1998 -0.3141
  677MOL0     H91363  10.767   5.172   8.400 -0.6983  0.1394  0.0783
  677MOL0     H91364  10.883   5.239   8.296 -0.6779  0.2794 -0.5476
  677MOL0     H91365  10.771   5.373   8.528 -1.0726 -2.6856 -1.8485
  677MOL0     H91366  10.912   5.433   8.432 -0.4947  1.0524  0.4232
  677MOL0     H91367  10.894   5.204   8.628  0.1164 -0.5396 -0.0372
  677MOL0     H91368  11.019   5.341   8.613  0.7506  0.8032 -2.5181
  677MOL0     H91369  11.031   5.090   8.432 -0.8166 -0.7357  1.0149
  677MOL0     H91370  11.126   5.232   8.431  0.9330 -2.4146  0.0726
  677MOL0     H91371  11.174   5.166   8.685 -0.5452  1.0943  0.1493
  677MOL0     H91372  11.254   5.087   8.543  1.5479 -0.2400  2.5346
  677MOL0     H91373  11.025   4.975   8.711 -2.5914 -0.8105 -1.9486
  677MOL0     H91374  11.091   4.887   8.569  3.3434 -0.9386 -0.6430
  677MOL0     H91375  10.406   5.436   7.961  2.0571 -0.1315  0.7765
  677MOL0     H91376  10.262   5.311   7.796 -1.1035  0.3229  1.1174
  677MOL0     H91377   9.895   5.038   7.762  0.2245 -0.9124  3.2588
  677MOL0     H91378   9.719   4.927   7.664  1.0240  0.5748  0.0551
  677MOL0     H91379   8.729   4.298   6.233 -0.0924 -1.2653  1.5669
  677MOL0     H91380   8.772   4.035   6.202 -0.3743 -0.1923 -0.8834
  677MOL0     H91381   8.864   3.702   6.140 -2.3537  0.3538  0.0925
  677MOL0     H91382   8.883   3.459   6.182  1.8429 -1.9768  0.5492
  677MOL0     H91383   8.977   3.274   6.211 -0.1752  0.3759 -1.4925
  677MOL0     H91384   9.102   3.233   6.086  0.8806  0.2966 -1.8441
  677MOL0     H91385   9.041   3.024   6.193 -3.1408 -3.2633  1.9523
  677MOL0     H91386   8.962   3.039   6.027 -3.2650  2.3086 -0.1553
  677MOL0     H91387   8.747   3.094   6.147 -0.7966  1.1103  1.9904
  677MOL0     H91388   8.821   3.083   6.296  2.0429 -0.2753 -1.1586
  677MOL0     H91389   8.810   2.851   6.104 -2.2084 -1.5289  0.7202
  677MOL0     H91390   8.890   2.862   6.265 -2.1188 -2.2238  0.7291
  677MOL0     H91391   8.497   2.792   6.386  1.1913 -0.9464  0.4358
  677MOL0     H91392   8.912   3.380   5.769 -0.1988 -0.1532  0.7844
  677MOL0     H91393   8.963   3.711   5.675  2.0680 -0.6954  3.2227
  677MOL0     H91394   8.911   3.559   5.609  0.4414  2.5083 -2.3472
  677MOL0     H91395   8.781   3.670   5.672  0.2706  0.3723  0.6586
  678MOL0     O91396  11.392   5.208   3.444 -0.4564 -0.4219  0.2230
  678MOL0     C91397  11.322   5.160   3.354  0.3835 -0.6175 -0.0609
  678MOL0     O91398  11.356   5.155   3.223  0.4360 -0.6073 -0.1470
  678MOL0     C91399  11.495   5.163   3.201 -0.2856 -1.6965  0.7278
  678MOL0     C91400  11.569   5.044   3.200 -0.0943 -0.9202 -0.4123
  678MOL0     C91401  11.708   5.043   3.165  0.3373  0.5985  0.0224
  678MOL0     C91402  11.769   5.162   3.122 -0.5950 -1.2644  0.4500
  678MOL0     O91403  11.898   5.175   3.084 -0.9787 -0.3668  0.0160
  678MOL0     C91404  11.981   5.054   3.079  0.6934 -0.7718 -0.6150
  678MOL0     C91405  12.117   5.094   3.032 -0.0328  1.1850 -1.1533
  678MOL0     C91406  12.123   5.137   2.889 -0.3435 -0.1796 -0.3367
  678MOL0     C91407  12.252   5.220   2.854 -0.1239 -0.5279 -0.6478
  678MOL0     C91408  12.383   5.149   2.879  0.7170  0.2095  0.2481
  678MOL0     C91409  12.420   5.014   2.808 -0.1327  1.2837 -0.5673
  678MOL0     C91410  12.566   4.977   2.845  0.4048  0.3856 -0.2329
  678MOL0     C91411  12.628   4.866   2.755 -0.4946  0.8207  0.5324
  678MOL0     N91412  12.770   4.854   2.759  0.0089 -0.3486  0.2517
  678MOL0     C91413  12.831   4.784   2.857 -0.5077 -0.1141  0.7163
  678MOL0     C91414  12.959   4.813   2.824 -0.1700 -0.2831 -0.7461
  678MOL0     C91415  13.084   4.743   2.891  0.4408  0.3456 -0.0448
  678MOL0     C91416  13.191   4.825   2.968  0.5451 -0.4043  0.4707
  678MOL0     C91417  13.322   4.749   3.010  0.0700  0.2368 -0.1479
  678MOL0     C91418  13.434   4.850   3.053 -0.0061 -0.0464  0.1907
  678MOL0     O91419  13.535   4.778   3.122 -0.4898 -0.0340  0.0241
  678MOL0     C91420  13.666   4.821   3.126  0.6223 -0.4154  0.3818
  678MOL0     C91421  13.730   4.919   3.046  0.9751 -0.8977  0.0247
  678MOL0     C91422  13.852   4.969   3.079 -0.5576 -0.4207  0.5521
  678MOL0     C91423  13.921   4.912   3.185 -0.3228  0.2042  0.4006
  678MOL0     C91424  14.058   4.952   3.215 -0.4494 -0.1213  0.3858
  678MOL0     O91425  14.087   4.960   3.354 -0.2966  0.0398  0.5424
  678MOL0     C91426  14.205   5.020   3.389  1.0182 -0.6130 -0.8285
  678MOL0     C91427  14.197   5.141   3.457 -0.5571  0.1829  0.3544
  678MOL0     C91428  14.315   5.213   3.490 -0.7189  0.2524  0.3281
  678MOL0     C91429  14.439   5.151   3.457  0.2037  0.0314 -0.4941
  678MOL0     O91430  14.564   5.209   3.495 -0.1890  0.4805 -0.0170
  678MOL0     C91431  14.606   5.341   3.462 -0.5532  0.3400 -0.6885
  678MOL0     C91432  14.708   5.344   3.347 -0.0359 -0.2750 -0.2099
  678MOL0     C91433  14.826   5.249   3.372 -0.3396  0.3979  0.8441
  678MOL0     C91434  14.941   5.295   3.290 -0.6562 -0.0442 -0.4367
  678MOL0     C91435  14.923   5.294   3.138 -0.4815  0.3807  0.3337
  678MOL0     C91436  15.051   5.336   3.061  0.1058 -0.4723 -0.8691
  678MOL0     C91437  15.019   5.334   2.917 -0.1369 -0.1921 -0.2262
  678MOL0     C91438  15.150   5.359   2.832  0.1257  0.4288  0.1972
  678MOL0    Cl91439  15.291   5.248   2.853  0.4426  0.5499  0.1997
  678MOL0     C91440  14.447   5.035   3.389 -0.1254  0.6675  0.1516
  678MOL0     C91441  14.331   4.969   3.353  0.6989 -0.0083 -0.1043
  678MOL0     O91442  14.121   5.009   3.129  0.4259 -0.0858  0.7240
  678MOL0     C91443  13.868   4.801   3.254 -0.1287  0.0456  0.8208
  678MOL0     C91444  13.745   4.756   3.219 -0.3537 -1.4417 -0.2498
  678MOL0     N91445  12.970   4.909   2.729  0.0601 -1.0950 -0.5823
  678MOL0     N91446  12.853   4.930   2.692  1.1351  0.0597  0.7956
  678MOL0     C91447  11.700   5.284   3.128  0.0282 -0.9387  0.8599
  678MOL0     C91448  11.568   5.283   3.180 -0.1165  1.3078  0.4571
  678MOL0     C91449  11.181   5.116   3.382 -0.5590 -0.1263 -0.8079
  678MOL0     C91450  11.117   5.030   3.290 -0.6848 -0.3518  0.8607
  678MOL0     C91451  10.993   4.973   3.322 -0.2353  0.1545 -0.1195
  678MOL0     C91452  10.924   4.999   3.438 -0.5133  0.0812  0.2828
  678MOL0     O91453  10.801   4.948   3.478 -0.1027  0.6779 -0.2523
  678MOL0     C91454  10.730   4.877   3.373  0.0266  0.2969  0.0474
  678MOL0     C91455  10.579   4.880   3.381 -0.3940 -0.6744 -0.3232
  678MOL0     C91456  10.516   4.814   3.509  0.9387 -0.3063 -0.1233
  678MOL0     C91457  10.514   4.909   3.633  0.1120 -0.0461 -0.2008
  678MOL0     C91458  10.461   4.838   3.746  0.3390 -0.4959 -0.6154
  678MOL0     C91459  10.434   4.774   3.849 -0.7127  0.9724  0.2946
  678MOL0     C91460  10.985   5.079   3.528  0.5955 -0.7680  0.1908
  678MOL0     C91461  11.112   5.139   3.508  0.0290 -0.1786  0.1359
  678MOL0     C91462  11.178   5.203   3.628  0.6106 -0.2430  0.5052
  678MOL0     H91463  11.509   4.961   3.237 -0.2480 -0.7741 -0.3356
  678MOL0     H91464  11.754   4.946   3.178  0.5854  0.5279 -1.2178
  678MOL0     H91465  11.994   5.014   3.180  2.6383  0.0286 -0.4956
  678MOL0     H91466  11.943   4.975   3.015 -1.6308 -2.0882  2.1659
  678MOL0     H91467  12.171   5.000   3.050 -0.5277  1.2520  1.0275
  678MOL0     H91468  12.159   5.172   3.096 -0.4412  0.0863  0.5180
  678MOL0     H91469  12.032   5.193   2.868 -1.6020 -1.2033  1.9306
  678MOL0     H91470  12.106   5.050   2.824  0.4591 -0.4391 -0.2148
  678MOL0     H91471  12.266   5.243   2.748 -0.2563 -0.8541 -0.7370
  678MOL0     H91472  12.249   5.315   2.908  0.7947 -0.4107 -0.7922
  678MOL0     H91473  12.469   5.211   2.853  3.5204 -2.7078  1.8791
  678MOL0     H91474  12.394   5.128   2.986  1.6097  1.4854  0.4278
  678MOL0     H91475  12.353   4.935   2.843 -1.3324  0.8816 -3.5319
  678MOL0     H91476  12.409   5.008   2.700  0.9664 -0.0027 -0.6416
  678MOL0     H91477  12.566   4.935   2.946  0.1511  1.5517  0.2766
  678MOL0     H91478  12.637   5.059   2.834 -0.4584  1.0917 -0.7170
  678MOL0     H91479  12.582   4.768   2.772 -1.2066  1.2424  1.0803
  678MOL0     H91480  12.598   4.894   2.653  1.5777  2.8265  0.3976
  678MOL0     H91481  12.793   4.713   2.930  1.8535 -3.7104 -1.2471
  678MOL0     H91482  13.039   4.688   2.974 -3.9587  1.3333 -1.5082
  678MOL0     H91483  13.130   4.669   2.825 -0.5109 -0.5413  0.2576
  678MOL0     H91484  13.235   4.887   2.890  1.5194  0.1735  1.4555
  678MOL0     H91485  13.151   4.886   3.049 -0.9282  0.6840 -1.0088
  678MOL0     H91486  13.348   4.691   2.921  2.3057  1.8452 -0.6133
  678MOL0     H91487  13.313   4.677   3.092 -0.9364 -0.4157 -0.8080
  678MOL0     H91488  13.397   4.918   3.130  1.7090  0.9941  0.1524
  678MOL0     H91489  13.469   4.912   2.970  0.4956  2.0273  1.8827
  678MOL0     H91490  13.680   4.971   2.965  1.1038  0.4176  0.7647
  678MOL0     H91491  13.894   5.050   3.020  1.8610  0.2446  3.0059
  678MOL0     H91492  14.098   5.175   3.484 -1.7644 -2.0605 -0.9998
  678MOL0     H91493  14.305   5.302   3.551  0.3665 -1.2624  2.8657
  678MOL0     H91494  14.527   5.414   3.446  1.7098  2.9176 -0.9683
  678MOL0     H91495  14.652   5.376   3.555  1.3429 -3.2114 -0.0907
  678MOL0     H91496  14.659   5.324   3.251 -2.1653  0.9130  0.5622
  678MOL0     H91497  14.744   5.447   3.341 -1.0252  0.0648 -0.5524
  678MOL0     H91498  14.856   5.235   3.476  0.3763  2.8448  1.0408
  678MOL0     H91499  14.797   5.149   3.340 -0.7271  0.9059 -0.4678
  678MOL0     H91500  15.023   5.226   3.311 -0.2638  0.1672 -1.2067
  678MOL0     H91501  14.973   5.392   3.329 -0.8372 -0.5836  1.0904
  678MOL0     H91502  14.839   5.357   3.109  2.8766  4.4530 -1.5256
  678MOL0     H91503  14.910   5.187   3.117  1.6882  0.2018 -0.3864
  678MOL0     H91504  15.079   5.435   3.096 -2.1726  0.3270 -1.1433
  678MOL0     H91505  15.138   5.274   3.083  0.3366  0.4659  0.9863
  678MOL0     H91506  14.941   5.407   2.895  0.9039  0.8753 -0.4908
  678MOL0     H91507  14.986   5.232   2.893 -0.3535 -0.1186 -0.2414
  678MOL0     H91508  15.125   5.354   2.725  2.9295  2.2265 -0.6496
  678MOL0     H91509  15.183   5.462   2.848  3.4782 -0.5369  0.2606
  678MOL0     H91510  14.546   4.997   3.365  0.5294  2.7215 -0.5805
  678MOL0     H91511  14.336   4.874   3.300 -3.3752 -1.6051  1.9512
  678MOL0     H91512  13.916   4.749   3.336 -1.5222  0.2839  1.8192
  678MOL0     H91513  13.713   4.674   3.282 -0.2831  0.6689  2.7854
  678MOL0     H91514  11.752   5.375   3.099 -1.7071 -0.2097 -0.0874
  678MOL0     H91515  11.507   5.373   3.180 -1.2392  0.5753 -1.0928
  678MOL0     H91516  11.164   4.997   3.198  3.9854  2.0439  2.0575
  678MOL0     H91517  10.961   4.905   3.244  2.3814 -0.7668 -0.4775
  678MOL0     H91518  10.764   4.775   3.391  1.1716  0.7491  0.5528
  678MOL0     H91519  10.747   4.903   3.268  0.2668 -0.4988 -0.1156
  678MOL0     H91520  10.546   4.815   3.299  1.6897 -2.9651  0.5048
  678MOL0     H91521  10.538   4.980   3.366 -2.0096 -1.0750  1.0886
  678MOL0     H91522  10.565   4.717   3.523 -2.3063 -2.5200 -2.6423
  678MOL0     H91523  10.411   4.791   3.487  0.7174 -0.2793  0.8747
  678MOL0     H91524  10.617   4.937   3.656  0.1858 -1.2861  1.1139
  678MOL0     H91525  10.457   5.000   3.616  2.8541  1.6851 -0.8067
  678MOL0     H91526  10.424   4.717   3.939  0.2307  2.1874  1.1945
  678MOL0     H91527  10.933   5.102   3.620  0.5211  2.4955 -0.5500
  678MOL0     H91528  11.099   5.220   3.701 -0.5617 -1.6576 -0.3663
  678MOL0     H91529  11.255   5.138   3.669  0.3667 -0.4230  0.6792
  678MOL0     H91530  11.210   5.297   3.582  0.5948 -0.3566  0.2579
  679MOL0     O91531   6.474   7.142   7.659 -0.5291 -0.4383  0.3094
  679MOL0     C91532   6.477   7.162   7.531  1.2828  0.2634  0.3217
  679MOL0     O91533   6.559   7.245   7.465 -0.0748 -0.2682  0.7969
  679MOL0     C91534   6.673   7.299   7.512 -0.0706  0.5612  0.3824
  679MOL0     C91535   6.739   7.274   7.630 -0.0186 -0.1473 -0.5882
  679MOL0     C91536   6.864   7.336   7.650 -0.2817 -0.2282 -1.2481
  679MOL0     C91537   6.929   7.407   7.550  0.1398 -0.3363 -0.7901
  679MOL0     O91538   7.055   7.453   7.558  0.6632 -0.1548 -0.5209
  679MOL0     C91539   7.143   7.372   7.643  0.2135  0.1933  0.1288
  679MOL0     C91540   7.135   7.422   7.790  0.9907  0.4058  0.9950
  679MOL0     C91541   7.274   7.461   7.842 -0.8926  0.1894 -1.1091
  679MOL0     C91542   7.282   7.531   7.978  0.6969  0.0151 -0.1447
  679MOL0     C91543   7.274   7.427   8.093  0.8355 -0.0573  0.2267
  679MOL0     C91544   7.415   7.369   8.130 -0.2780  0.0045 -0.0435
  679MOL0     C91545   7.408   7.297   8.261 -0.4121 -0.0140  0.0941
  679MOL0     C91546   7.540   7.309   8.332  0.1876 -0.0352 -0.5369
  679MOL0     N91547   7.659   7.265   8.256  0.5967  0.4973  0.1659
  679MOL0     C91548   7.727   7.145   8.253 -0.3779  0.0874 -0.0724
  679MOL0     C91549   7.834   7.166   8.176  0.4166 -0.4711  0.5812
  679MOL0     C91550   7.939   7.072   8.159 -0.8131 -0.5986 -0.1265
  679MOL0     C91551   8.040   7.082   8.274  0.6057  0.2658 -0.2486
  679MOL0     C91552   8.175   7.003   8.246  0.4717 -0.3508  0.2428
  679MOL0     C91553   8.276   7.023   8.369  0.4061 -0.6341  0.2230
  679MOL0     O91554   8.401   6.942   8.349  0.6528 -0.5911  0.0681
  679MOL0     C91555   8.499   6.953   8.449 -0.4832  0.1785 -0.0980
  679MOL0     C91556   8.634   6.972   8.419 -0.0142  0.3300 -0.4734
  679MOL0     C91557   8.728   6.965   8.515 -0.4601 -0.5411 -0.1471
  679MOL0     C91558   8.701   6.959   8.651  0.1817  0.8978 -0.9047
  679MOL0     C91559   8.809   6.987   8.753 -0.1743  0.2164  0.5234
  679MOL0     O91560   8.936   6.995   8.702 -0.5346 -0.2558  0.8643
  679MOL0     C91561   9.034   7.007   8.793 -0.5873  0.6814 -0.5669
  679MOL0     C91562   9.145   6.910   8.791  1.0091  0.2286 -0.0095
  679MOL0     C91563   9.259   6.919   8.878  0.8062 -0.0492 -0.8611
  679MOL0     C91564   9.272   7.033   8.963  0.3534  0.0820 -0.3130
  679MOL0     O91565   9.373   7.055   9.061 -0.8569 -0.8438 -0.2468
  679MOL0     C91566   9.442   6.934   9.108 -0.2798 -0.2392 -1.1277
  679MOL0     C91567   9.532   6.972   9.228  0.0470  0.0047 -0.2224
  679MOL0     C91568   9.628   7.098   9.212  0.3854  0.4636  0.0228
  679MOL0     C91569   9.675   7.153   9.337  0.9015 -0.1568 -0.2568
  679MOL0     C91570   9.736   7.293   9.310  0.2651  0.2813 -0.5764
  679MOL0     C91571   9.862   7.304   9.233  0.1428 -0.3378  0.9312
  679MOL0     C91572   9.880   7.451   9.185  0.4284 -0.2119 -0.6621
  679MOL0     C91573   9.982   7.488   9.089  0.8722  0.5077  0.8742
  679MOL0    Cl91574  10.134   7.454   9.146 -0.1267 -0.2674  0.3836
  679MOL0     C91575   9.165   7.127   8.967 -0.0681  0.5963  0.1105
  679MOL0     C91576   9.052   7.112   8.880 -0.0265  0.2856  0.2280
  679MOL0     O91577   8.784   6.998   8.875 -0.2651  0.6390  0.2649
  679MOL0     C91578   8.568   6.945   8.687 -0.3383 -0.1582 -0.5933
  679MOL0     C91579   8.469   6.938   8.584  0.0643 -0.5191 -0.3335
  679MOL0     N91580   7.831   7.289   8.127 -0.6202 -0.3426 -0.3638
  679MOL0     N91581   7.731   7.349   8.177  0.1924 -0.6860 -1.1539
  679MOL0     C91582   6.863   7.430   7.433 -0.4864  0.0570  0.7531
  679MOL0     C91583   6.735   7.381   7.413 -0.5501 -0.0679 -0.1105
  679MOL0     C91584   6.381   7.080   7.440 -0.8066 -0.3120 -0.7946
  679MOL0     C91585   6.365   7.120   7.304 -0.3493 -0.4260 -0.2146
  679MOL0     C91586   6.269   7.052   7.222  0.4604 -0.4690  0.0863
  679MOL0     C91587   6.200   6.944   7.266  0.5018 -0.2975  0.9087
  679MOL0     O91588   6.122   6.881   7.175  0.4884  0.4426 -0.1267
  679MOL0     C91589   6.009   6.793   7.219 -0.1342 -0.2811  0.5144
  679MOL0     C91590   5.912   6.765   7.098 -0.3229 -0.5007 -0.4822
  679MOL0     C91591   5.989   6.714   6.975 -0.4529 -0.3175 -0.6677
  679MOL0     C91592   5.916   6.692   6.841  0.5232  0.6774 -0.1354
  679MOL0     C91593   5.819   6.579   6.853  0.6801 -0.9193  1.0326
  679MOL0     C91594   5.736   6.493   6.865 -0.5970  0.0856 -0.7562
  679MOL0     C91595   6.213   6.903   7.400 -0.5354 -0.1836  0.3371
  679MOL0     C91596   6.292   6.976   7.490  0.0116  0.3258  0.5504
  679MOL0     C91597   6.285   6.926   7.632 -0.4308 -0.3798  0.3135
  679MOL0     H91598   6.705   7.202   7.704  2.0906 -0.9262 -0.3020
  679MOL0     H91599   6.907   7.322   7.749 -1.5602  0.9612 -0.4976
  679MOL0     H91600   7.123   7.264   7.651  2.2002 -0.1942  0.5110
  679MOL0     H91601   7.246   7.375   7.608 -0.6655  2.7317 -2.6008
  679MOL0     H91602   7.079   7.364   7.864  1.1821 -1.4572 -0.2582
  679MOL0     H91603   7.082   7.517   7.778 -0.9568 -0.8330 -0.6488
  679MOL0     H91604   7.324   7.522   7.765  3.9263  0.2211  1.6725
  679MOL0     H91605   7.337   7.373   7.853 -2.3363 -0.9240 -1.4956
  679MOL0     H91606   7.373   7.590   7.989  1.3806 -1.0286 -0.0799
  679MOL0     H91607   7.203   7.607   7.983 -1.1262 -1.6509 -1.9020
  679MOL0     H91608   7.241   7.485   8.181 -0.3012  0.8523 -0.7659
  679MOL0     H91609   7.203   7.344   8.090  2.3941 -1.9561  5.1529
  679MOL0     H91610   7.456   7.310   8.047 -0.6090  2.2844 -1.9370
  679MOL0     H91611   7.491   7.447   8.131 -0.9746  0.8255 -2.6596
  679MOL0     H91612   7.378   7.195   8.235  2.0279 -0.3332 -1.8843
  679MOL0     H91613   7.337   7.340   8.333  1.5030  1.2820  1.3089
  679MOL0     H91614   7.552   7.410   8.372 -3.9549  0.8885 -1.1848
  679MOL0     H91615   7.535   7.239   8.416 -4.5614  2.2650  1.4673
  679MOL0     H91616   7.714   7.058   8.316 -1.1764  0.9162  0.9295
  679MOL0     H91617   7.903   6.969   8.170 -0.8897 -0.6941 -1.1474
  679MOL0     H91618   7.991   7.083   8.063 -1.5288  0.7062 -0.3922
  679MOL0     H91619   8.067   7.188   8.278  2.1411 -0.1111  2.2901
  679MOL0     H91620   7.994   7.057   8.370 -0.7705  1.4083 -0.5808
  679MOL0     H91621   8.222   7.037   8.153 -0.4054 -0.6431 -0.3217
  679MOL0     H91622   8.162   6.894   8.241  1.5054 -0.4275 -1.5370
  679MOL0     H91623   8.226   7.001   8.463  2.8463 -0.6716  1.5914
  679MOL0     H91624   8.303   7.129   8.359 -0.2551 -0.6685 -4.0308
  679MOL0     H91625   8.640   7.008   8.317 -1.9181 -3.4874 -2.1378
  679MOL0     H91626   8.830   6.970   8.478 -0.1619 -1.2518  0.5259
  679MOL0     H91627   9.119   6.821   8.735 -0.5195  0.9872 -0.5435
  679MOL0     H91628   9.338   6.847   8.864 -0.0012 -0.8902 -1.2211
  679MOL0     H91629   9.371   6.860   9.145  1.5835 -1.5262  0.0306
  679MOL0     H91630   9.499   6.889   9.027 -0.5283  2.7578 -3.1633
  679MOL0     H91631   9.463   6.987   9.312  0.9529 -3.9744  1.4699
  679MOL0     H91632   9.583   6.887   9.273 -1.5984 -1.3782 -0.8251
  679MOL0     H91633   9.716   7.063   9.156  0.7987  1.3887  0.0773
  679MOL0     H91634   9.570   7.168   9.152 -1.6736 -0.2124  1.1143
  679MOL0     H91635   9.754   7.087   9.374 -1.6845 -1.7520  2.8723
  679MOL0     H91636   9.596   7.170   9.411  0.7056  0.2751 -0.5569
  679MOL0     H91637   9.755   7.334   9.410  3.3726  2.2492 -1.7942
  679MOL0     H91638   9.658   7.348   9.255  1.1389  1.0061 -1.1352
  679MOL0     H91639   9.947   7.270   9.293  1.2333 -0.7304 -0.7832
  679MOL0     H91640   9.850   7.230   9.153  0.4865  0.2791  0.3071
  679MOL0     H91641   9.902   7.519   9.268  1.1263  2.0530 -2.5914
  679MOL0     H91642   9.783   7.492   9.153 -0.4872 -0.2956  1.8035
  679MOL0     H91643   9.971   7.431   8.996 -0.0204 -1.0978  1.9169
  679MOL0     H91644   9.973   7.596   9.073  1.7006  0.2750 -1.4730
  679MOL0     H91645   9.184   7.201   9.045 -0.0944 -1.1510  1.8405
  679MOL0     H91646   8.966   7.177   8.890  0.3088  0.4032  2.9309
  679MOL0     H91647   8.538   6.928   8.790 -0.3342 -0.0729 -0.5782
  679MOL0     H91648   8.366   6.914   8.608  0.0953  1.7232  2.5351
  679MOL0     H91649   6.910   7.483   7.351 -2.6024 -0.4965 -0.8894
  679MOL0     H91650   6.688   7.389   7.315  3.6822 -1.9911 -2.5692
  679MOL0     H91651   6.431   7.200   7.272  2.7414 -1.4296  3.0095
  679MOL0     H91652   6.263   7.095   7.122  1.3206 -1.4619 -0.4185
  679MOL0     H91653   5.949   6.842   7.296 -1.4259  0.7536 -1.0658
  679MOL0     H91654   6.051   6.697   7.250 -0.8043 -0.7470  0.0262
  679MOL0     H91655   5.862   6.863   7.092 -0.5031 -0.5537  0.1566
  679MOL0     H91656   5.833   6.694   7.125 -0.9627  0.6299  0.7228
  679MOL0     H91657   6.031   6.624   7.021 -0.6859  0.7428  1.7676
  679MOL0     H91658   6.072   6.784   6.958 -1.3059  0.5286 -1.4958
  679MOL0     H91659   5.862   6.782   6.812  0.4139  0.5600 -0.3021
  679MOL0     H91660   5.979   6.671   6.754 -2.4233 -1.2491 -1.9827
  679MOL0     H91661   5.666   6.413   6.854 -0.5142 -0.4975  2.2100
  679MOL0     H91662   6.150   6.819   7.425 -0.0062 -0.5645  0.4064
  679MOL0     H91663   6.211   6.845   7.631 -1.5888  0.6476 -0.1248
  679MOL0     H91664   6.380   6.893   7.675 -1.2121 -0.9157  1.7207
  679MOL0     H91665   6.247   6.998   7.705 -0.9557 -1.1688  0.8499
  680MOL0     O91666   7.023   1.922   7.485 -0.0239  0.0164  0.4430
  680MOL0     C91667   7.079   1.871   7.578  0.4995  1.0582 -0.6159
  680MOL0     O91668   7.043   1.756   7.649  0.2868  0.3276  0.0744
  680MOL0     C91669   6.931   1.674   7.624  0.2335  0.4621 -0.2949
  680MOL0     C91670   6.807   1.717   7.566 -0.8385 -0.4366  0.6904
  680MOL0     C91671   6.703   1.625   7.560  0.3332 -0.2080 -0.1935
  680MOL0     C91672   6.712   1.492   7.594  0.3355 -0.4467 -0.0087
  680MOL0     O91673   6.594   1.425   7.589  0.6580  0.3799  0.1673
  680MOL0     C91674   6.599   1.281   7.620 -0.0652 -0.2286 -0.5320
  680MOL0     C91675   6.458   1.231   7.621 -0.3264  0.3906 -0.4901
  680MOL0     C91676   6.393   1.224   7.483  0.5786 -0.4738  0.4644
  680MOL0     C91677   6.461   1.110   7.414  0.6533  0.2890  0.1736
  680MOL0     C91678   6.350   1.031   7.339  0.4203  0.2759 -0.0899
  680MOL0     C91679   6.403   0.886   7.312  0.0162 -0.3213 -0.5482
  680MOL0     C91680   6.296   0.811   7.234 -1.4366 -0.1167 -0.3412
  680MOL0     C91681   6.322   0.662   7.211  0.0926 -1.0398 -0.7699
  680MOL0     N91682   6.379   0.638   7.079 -0.2318  0.5887 -0.1906
  680MOL0     C91683   6.522   0.643   7.057  0.1207  0.0768 -0.1995
  680MOL0     C91684   6.526   0.651   6.920  0.1165  1.3855  0.2704
  680MOL0     C91685   6.646   0.644   6.840 -0.2217  0.4571  0.0897
  680MOL0     C91686   6.706   0.778   6.815  0.2862  0.0019 -0.1393
  680MOL0     C91687   6.755   0.855   6.937  0.6182 -0.7951  0.0483
  680MOL0     C91688   6.903   0.883   6.946  0.1989  0.4661  0.5061
  680MOL0     O91689   6.977   0.766   6.904  0.5424 -0.3783 -0.5087
  680MOL0     C91690   7.088   0.791   6.828  0.5912  0.3410  0.0143
  680MOL0     C91691   7.126   0.696   6.730  0.3388  0.3362  0.5780
  680MOL0     C91692   7.246   0.687   6.663  0.3165 -0.1056 -0.6412
  680MOL0     C91693   7.331   0.807   6.665  0.8841 -0.5696 -1.0052
  680MOL0     C91694   7.453   0.829   6.590  0.7515  0.7731  0.0840
  680MOL0     O91695   7.486   0.721   6.510 -0.4190 -0.1110  0.0839
  680MOL0     C91696   7.601   0.717   6.428  0.5719 -1.2050 -0.1406
  680MOL0     C91697   7.729   0.741   6.467  0.2424  0.6510 -0.6230
  680MOL0     C91698   7.840   0.737   6.380 -0.6427 -0.1220 -0.8658
  680MOL0     C91699   7.814   0.705   6.245 -0.4148  0.1412  0.3727
  680MOL0     O91700   7.910   0.706   6.146  0.3401 -0.6768 -0.4495
  680MOL0     C91701   8.041   0.679   6.193 -0.3472 -0.1604  0.2438
  680MOL0     C91702   8.127   0.673   6.066  0.2188 -0.3299  0.0691
  680MOL0     C91703   8.278   0.649   6.106 -0.1470  0.5555  0.6309
  680MOL0     C91704   8.366   0.666   5.980 -0.4491 -0.5691 -0.4079
  680MOL0     C91705   8.503   0.613   5.998  0.2427  0.2649  0.0321
  680MOL0     C91706   8.572   0.668   6.130  0.2158  0.0406 -0.7196
  680MOL0     C91707   8.717   0.623   6.153 -0.2206  0.3218  0.4005
  680MOL0     C91708   8.815   0.702   6.067 -0.7009  0.0862  0.4427
  680MOL0    Cl91709   8.972   0.665   6.116  0.2728 -0.1115 -0.1326
  680MOL0     C91710   7.690   0.675   6.211  0.4325 -0.4895  0.1482
  680MOL0     C91711   7.582   0.679   6.299  0.1587  0.3733 -0.0482
  680MOL0     O91712   7.521   0.931   6.597  0.5043  0.6656 -0.8117
  680MOL0     C91713   7.301   0.903   6.762 -0.2177 -0.9468 -0.1187
  680MOL0     C91714   7.185   0.892   6.845  1.4061  0.2106 -0.3464
  680MOL0     N91715   6.393   0.640   6.870  0.7216 -0.3894 -0.0679
  680MOL0     N91716   6.310   0.615   6.960  0.5629  0.4697  0.7190
  680MOL0     C91717   6.836   1.445   7.637 -0.9695  0.4972  0.3630
  680MOL0     C91718   6.941   1.535   7.656 -0.8064  0.1575 -0.5966
  680MOL0     C91719   7.204   1.942   7.629  0.3527  1.0005  0.0120
  680MOL0     C91720   7.278   1.863   7.728  0.5272 -0.1111  0.7317
  680MOL0     C91721   7.400   1.903   7.779  0.4201 -0.6249  0.4141
  680MOL0     C91722   7.449   2.025   7.734  0.1566 -0.2031 -0.3846
  680MOL0     O91723   7.571   2.078   7.780  0.6434  0.4400 -0.3866
  680MOL0     C91724   7.627   2.040   7.904 -1.0348  0.5549  0.7945
  680MOL0     C91725   7.714   1.911   7.902 -0.8358 -0.2761  0.1042
  680MOL0     C91726   7.766   1.885   8.039  0.0493  0.4102  0.4522
  680MOL0     C91727   7.894   1.802   8.058 -0.1113 -0.5237  0.1777
  680MOL0     C91728   7.893   1.676   7.984 -0.0900 -0.3411  0.0349
  680MOL0     C91729   7.905   1.579   7.913  0.1927  0.5678  0.3013
  680MOL0     C91730   7.389   2.096   7.630 -0.0444  0.5325 -0.5198
  680MOL0     C91731   7.264   2.057   7.568  0.6018 -0.3024  0.3356
  680MOL0     C91732   7.205   2.131   7.449 -0.5382  0.1257  0.3716
  680MOL0     H91733   6.805   1.822   7.538 -0.5386 -0.7121 -0.3844
  680MOL0     H91734   6.608   1.665   7.526 -0.3333 -2.1338 -0.7345
  680MOL0     H91735   6.656   1.217   7.551 -2.2446 -2.8293 -0.1009
  680MOL0     H91736   6.647   1.259   7.716 -3.0395  0.5807  1.2625
  680MOL0     H91737   6.407   1.311   7.675  0.3529  0.1450  0.5350
  680MOL0     H91738   6.462   1.147   7.690  0.9912  1.5608  0.9275
  680MOL0     H91739   6.404   1.322   7.436  1.4083  0.0082  1.6118
  680MOL0     H91740   6.285   1.202   7.486  0.0694  1.4546 -1.4550
  680MOL0     H91741   6.546   1.135   7.351 -0.1810 -0.2878 -1.2261
  680MOL0     H91742   6.505   1.038   7.483  0.3538 -0.1878 -0.1260
  680MOL0     H91743   6.253   1.030   7.388  1.6049  2.5634  2.5798
  680MOL0     H91744   6.335   1.082   7.243 -1.3909  1.3718  0.7234
  680MOL0     H91745   6.496   0.903   7.258  0.2484 -0.1042 -0.0895
  680MOL0     H91746   6.435   0.833   7.402  0.6012  0.6147 -0.1895
  680MOL0     H91747   6.277   0.861   7.139 -2.2899  1.2237  0.5030
  680MOL0     H91748   6.204   0.832   7.289 -0.6391 -0.7800  1.3458
  680MOL0     H91749   6.401   0.628   7.278  0.4756 -0.4281 -0.9076
  680MOL0     H91750   6.229   0.605   7.223  1.6350 -3.5173  0.3129
  680MOL0     H91751   6.607   0.652   7.124 -0.6545  0.1668  0.7966
  680MOL0     H91752   6.709   0.577   6.899 -0.3497  0.0552 -0.2331
  680MOL0     H91753   6.620   0.604   6.741  3.5921  1.3640 -1.4727
  680MOL0     H91754   6.784   0.764   6.740 -0.7202  1.1039 -1.4476
  680MOL0     H91755   6.635   0.839   6.758  1.4685  1.9258  0.3437
  680MOL0     H91756   6.741   0.794   7.027  1.4592 -0.0500  0.7028
  680MOL0     H91757   6.695   0.947   6.940 -2.0292 -2.2497 -2.9993
  680MOL0     H91758   6.933   0.915   7.046 -1.1629  1.0984  0.7303
  680MOL0     H91759   6.934   0.959   6.874  2.7431 -0.1901  0.8348
  680MOL0     H91760   7.064   0.608   6.712 -0.1148  1.1367 -2.3054
  680MOL0     H91761   7.262   0.594   6.609 -3.1303 -0.8528 -0.5712
  680MOL0     H91762   7.732   0.752   6.575 -2.5722  1.7736 -0.5822
  680MOL0     H91763   7.933   0.751   6.433 -1.2955 -1.6435  0.8010
  680MOL0     H91764   8.082   0.757   6.257 -0.6895 -0.2028  0.5190
  680MOL0     H91765   8.059   0.588   6.252  0.1647  1.3567  2.5743
  680MOL0     H91766   8.088   0.598   5.996 -2.3377 -2.0342  3.0290
  680MOL0     H91767   8.112   0.765   6.009 -1.2736  0.5059  1.7163
  680MOL0     H91768   8.293   0.719   6.188  1.1323  0.5016  0.4616
  680MOL0     H91769   8.293   0.544   6.132  0.2217  1.1398  2.9083
  680MOL0     H91770   8.367   0.771   5.949 -3.0600 -0.3910 -0.1196
  680MOL0     H91771   8.323   0.608   5.898 -3.5258  1.8559 -0.6791
  680MOL0     H91772   8.555   0.645   5.907  0.4284 -0.8089 -0.2528
  680MOL0     H91773   8.496   0.504   5.996  0.8762  0.2354 -0.8464
  680MOL0     H91774   8.569   0.777   6.132  0.1837  0.0537 -1.4548
  680MOL0     H91775   8.515   0.623   6.212 -1.0782  1.3196 -0.8746
  680MOL0     H91776   8.719   0.516   6.130 -3.1715  1.1529 -5.4717
  680MOL0     H91777   8.743   0.640   6.258 -0.6106  1.2747  0.3534
  680MOL0     H91778   8.805   0.677   5.961  1.7064  0.8866 -0.0271
  680MOL0     H91779   8.804   0.811   6.074 -0.8401  0.1404 -0.4665
  680MOL0     H91780   7.656   0.660   6.109  1.1085  1.9460 -0.5034
  680MOL0     H91781   7.481   0.678   6.260 -0.4445  1.7243  1.3714
  680MOL0     H91782   7.371   0.985   6.776  1.1592 -1.8413 -1.4517
  680MOL0     H91783   7.162   0.970   6.918 -1.0586 -2.6724  2.2567
  680MOL0     H91784   6.863   1.343   7.662 -0.4320 -0.0135 -2.0083
  680MOL0     H91785   7.037   1.502   7.695 -1.1681 -0.4408 -0.1989
  680MOL0     H91786   7.237   1.775   7.775 -2.1335  1.5356  1.7082
  680MOL0     H91787   7.431   1.847   7.867  0.6186 -0.7125  0.2871
  680MOL0     H91788   7.544   2.029   7.974 -0.6365 -1.5308  1.0232
  680MOL0     H91789   7.682   2.129   7.935 -1.4819  0.5152  1.7281
  680MOL0     H91790   7.798   1.921   7.833 -1.0012  0.3787 -0.0134
  680MOL0     H91791   7.657   1.823   7.872 -1.0101 -0.7939  1.8495
  680MOL0     H91792   7.687   1.828   8.090 -0.0574  0.3236  0.1908
  680MOL0     H91793   7.784   1.983   8.085  3.6459  0.5495 -0.9288
  680MOL0     H91794   7.979   1.856   8.014 -0.2633 -1.4626 -1.3075
  680MOL0     H91795   7.919   1.789   8.164 -0.6215  2.0444  0.6833
  680MOL0     H91796   7.903   1.487   7.859 -0.3364  1.1981 -0.7913
  680MOL0     H91797   7.439   2.182   7.587  4.5717 -1.1574  0.7757
  680MOL0     H91798   7.270   2.217   7.432  0.4355 -0.9292 -1.5404
  680MOL0     H91799   7.215   2.069   7.359  2.1800 -1.8190  1.8459
  680MOL0     H91800   7.101   2.159   7.470 -0.3720  0.6183  0.5353
  681MOL0     O91801   5.190   6.351   6.275  0.2980  0.4815 -0.0776
  681MOL0     C91802   5.134   6.433   6.203  1.2402 -0.6753  0.0847
  681MOL0     O91803   5.203   6.513   6.114  0.0286  0.2661 -0.0222
  681MOL0     C91804   5.335   6.496   6.091 -0.6299 -0.3410 -0.4411
  681MOL0     C91805   5.385   6.508   5.953 -0.4505  0.0867  0.3348
  681MOL0     C91806   5.522   6.511   5.932 -0.5122 -1.5200  0.3872
  681MOL0     C91807   5.612   6.506   6.038  0.0189  0.2159  0.3306
  681MOL0     O91808   5.740   6.510   5.995 -0.1217  0.3962  0.1345
  681MOL0     C91809   5.836   6.588   6.075 -0.2883  0.2519 -0.6296
  681MOL0     C91810   5.986   6.594   6.041  0.6407 -0.0087  0.1637
  681MOL0     C91811   6.081   6.682   6.121 -0.0395 -0.5885 -0.7989
  681MOL0     C91812   6.221   6.698   6.056  0.7562  0.4523 -0.2243
  681MOL0     C91813   6.318   6.756   6.166  0.0894  0.1071  0.1386
  681MOL0     C91814   6.459   6.761   6.106 -0.3644  0.0153 -0.5543
  681MOL0     C91815   6.566   6.781   6.220  0.4484  0.0162  0.0950
  681MOL0     C91816   6.703   6.769   6.159  0.5112 -0.3069 -0.3316
  681MOL0     N91817   6.812   6.792   6.260 -0.0623 -0.4111 -0.4650
  681MOL0     C91818   6.839   6.714   6.380  0.0822  0.5364  0.1671
  681MOL0     C91819   6.925   6.788   6.455  0.4592 -0.9341  0.5657
  681MOL0     C91820   6.986   6.747   6.584 -0.2363 -0.1067 -0.4377
  681MOL0     C91821   7.138   6.729   6.577  0.0638  0.2774 -0.1534
  681MOL0     C91822   7.174   6.617   6.477  0.6810 -0.3584 -0.0303
  681MOL0     C91823   7.308   6.531   6.514 -0.6207 -0.0623  0.5981
  681MOL0     O91824   7.422   6.619   6.497 -0.1584  0.7913  0.7083
  681MOL0     C91825   7.522   6.608   6.590 -0.0563 -0.4828  0.5146
  681MOL0     C91826   7.594   6.720   6.595 -0.7845 -0.0968 -0.6127
  681MOL0     C91827   7.701   6.728   6.681 -0.0712  0.1832 -0.3295
  681MOL0     C91828   7.737   6.615   6.756 -0.1404 -0.0230 -0.0495
  681MOL0     C91829   7.855   6.619   6.846  0.1658  0.0487  1.1483
  681MOL0     O91830   7.925   6.736   6.860  1.1949 -0.3950  0.9734
  681MOL0     C91831   8.020   6.737   6.955 -1.1883  0.4598 -0.3818
  681MOL0     C91832   8.149   6.738   6.910 -0.0000  0.2018  0.1140
  681MOL0     C91833   8.261   6.737   7.003  0.0917 -0.2222 -0.0048
  681MOL0     C91834   8.247   6.747   7.141 -0.2861 -0.0200  0.2253
  681MOL0     O91835   8.350   6.747   7.240  0.0499  0.5644 -0.7420
  681MOL0     C91836   8.466   6.829   7.202  0.0230 -0.6647 -0.1533
  681MOL0     C91837   8.558   6.846   7.315 -0.4320  0.4950 -0.5082
  681MOL0     C91838   8.656   6.739   7.317 -0.6919 -0.0814 -0.4066
  681MOL0     C91839   8.733   6.724   7.451  0.0232 -0.1507  0.3574
  681MOL0     C91840   8.844   6.831   7.476  0.6599 -0.0601 -0.3438
  681MOL0     C91841   8.981   6.799   7.400 -0.0126 -0.7590 -0.1171
  681MOL0     C91842   9.088   6.917   7.398 -0.1468 -0.0132 -0.2717
  681MOL0     C91843   9.206   6.905   7.497  0.3732  0.5291  0.6626
  681MOL0    Cl91844   9.305   6.777   7.436  0.0051  0.1359  0.1523
  681MOL0     C91845   8.109   6.765   7.184  0.4140  1.3004 -0.0223
  681MOL0     C91846   8.003   6.746   7.093 -0.2032  0.0619 -0.1041
  681MOL0     O91847   7.884   6.515   6.902  0.3200  0.1439 -0.0327
  681MOL0     C91848   7.659   6.496   6.752 -0.8843  0.2330  0.3753
  681MOL0     C91849   7.543   6.497   6.671  0.0671 -0.1575  0.3818
  681MOL0     N91850   6.939   6.910   6.383  0.0076 -0.1868 -0.1916
  681MOL0     N91851   6.877   6.914   6.269 -0.2438  0.2039 -0.0564
  681MOL0     C91852   5.569   6.499   6.169  0.2193  0.5307  1.0701
  681MOL0     C91853   5.430   6.488   6.195 -0.5752  0.1752  0.1744
  681MOL0     C91854   4.985   6.419   6.180 -0.8047  0.0083 -1.0249
  681MOL0     C91855   4.931   6.491   6.073 -0.2016  0.5465 -0.2054
  681MOL0     C91856   4.794   6.497   6.058 -0.8007 -0.3626  0.4128
  681MOL0     C91857   4.702   6.450   6.156 -1.2061 -1.1109 -0.1815
  681MOL0     O91858   4.571   6.469   6.165  0.1668  0.3438 -0.4593
  681MOL0     C91859   4.495   6.528   6.058  0.4231 -0.9186  1.0957
  681MOL0     C91860   4.451   6.671   6.080  0.6358 -0.0927  0.3641
  681MOL0     C91861   4.384   6.670   6.214  0.8704 -1.0990  0.5263
  681MOL0     C91862   4.336   6.804   6.259  0.6703 -0.9087 -0.1740
  681MOL0     C91863   4.186   6.803   6.283  0.1501 -0.2523  0.5009
  681MOL0     C91864   4.062   6.813   6.296 -0.4289 -0.0120  0.4843
  681MOL0     C91865   4.760   6.373   6.263  0.2663 -0.2354  0.0939
  681MOL0     C91866   4.894   6.363   6.273  0.1957 -0.5049  0.1491
  681MOL0     C91867   4.942   6.291   6.399  0.4224  0.5180 -0.7855
  681MOL0     H91868   5.323   6.505   5.865  0.1004  1.3098 -0.1226
  681MOL0     H91869   5.558   6.513   5.830 -0.4170  0.7649  0.4191
  681MOL0     H91870   5.823   6.696   6.086  1.6476  0.5082 -0.5248
  681MOL0     H91871   5.834   6.561   6.181  0.6665 -0.1686 -0.7107
  681MOL0     H91872   6.003   6.629   5.938  1.5010 -0.3774  0.1712
  681MOL0     H91873   6.027   6.494   6.058 -0.0335  0.0010  1.9811
  681MOL0     H91874   6.101   6.629   6.215  1.8424  1.1586 -0.1568
  681MOL0     H91875   6.031   6.776   6.143  1.0436  0.1493 -1.4232
  681MOL0     H91876   6.246   6.600   6.016 -3.7124 -1.3381  0.8024
  681MOL0     H91877   6.214   6.770   5.974 -1.3548  1.2190  0.5564
  681MOL0     H91878   6.288   6.858   6.192 -4.1035 -1.0639  0.6742
  681MOL0     H91879   6.322   6.696   6.258  0.5082  5.7946  4.3349
  681MOL0     H91880   6.489   6.665   6.063  0.5951 -0.6080  1.3894
  681MOL0     H91881   6.468   6.834   6.024  0.6451 -2.3551 -2.7215
  681MOL0     H91882   6.562   6.711   6.304  2.1192  0.0002  0.1823
  681MOL0     H91883   6.559   6.879   6.267  2.0577 -0.7836  2.1160
  681MOL0     H91884   6.724   6.668   6.122  0.7173 -0.4076  0.0429
  681MOL0     H91885   6.714   6.839   6.076 -3.0418  0.9016  0.0822
  681MOL0     H91886   6.794   6.619   6.408 -0.9570  0.9936  0.0885
  681MOL0     H91887   6.963   6.826   6.656  0.4173 -1.5987  1.4798
  681MOL0     H91888   6.935   6.658   6.620 -1.7490  0.5922 -0.7458
  681MOL0     H91889   7.181   6.824   6.544  0.4957  0.4343  0.8184
  681MOL0     H91890   7.177   6.706   6.677  2.6787  1.3980 -0.8378
  681MOL0     H91891   7.176   6.653   6.374 -1.8513  4.4381  1.2872
  681MOL0     H91892   7.103   6.535   6.492 -0.3210  0.7720  1.7780
  681MOL0     H91893   7.325   6.449   6.445  1.1970  1.0975 -0.4118
  681MOL0     H91894   7.297   6.499   6.618 -2.1091 -1.1822  0.1248
  681MOL0     H91895   7.561   6.812   6.548  0.1683  1.0941  0.9166
  681MOL0     H91896   7.770   6.811   6.682 -0.8207  0.8082  0.3024
  681MOL0     H91897   8.168   6.729   6.803 -0.8870  2.6544 -0.3162
  681MOL0     H91898   8.358   6.726   6.956  0.6179 -0.8070  1.1707
  681MOL0     H91899   8.506   6.798   7.105 -3.3679 -2.2508 -1.1708
  681MOL0     H91900   8.422   6.928   7.203 -1.5798 -1.3194 -1.2524
  681MOL0     H91901   8.622   6.934   7.302  4.6526 -2.6825  0.0006
  681MOL0     H91902   8.501   6.866   7.406 -0.3614 -1.1788 -0.0603
  681MOL0     H91903   8.610   6.640   7.308  2.3657 -1.8002  1.3319
  681MOL0     H91904   8.734   6.747   7.240  0.1046 -0.8573  0.2870
  681MOL0     H91905   8.795   6.635   7.462 -1.0236 -1.0671 -0.8024
  681MOL0     H91906   8.657   6.736   7.529 -1.1377  2.0952 -1.0250
  681MOL0     H91907   8.864   6.842   7.583 -1.9687  1.3128  0.1005
  681MOL0     H91908   8.804   6.924   7.436  0.4632 -0.1188 -0.2860
  681MOL0     H91909   9.029   6.704   7.427  0.4791 -1.2536 -2.4921
  681MOL0     H91910   8.954   6.777   7.296  0.2298 -1.0017 -0.1304
  681MOL0     H91911   9.035   7.011   7.416  1.0874  0.9437 -1.3709
  681MOL0     H91912   9.134   6.919   7.299  0.5940 -4.1589 -0.1800
  681MOL0     H91913   9.262   6.998   7.489  0.5982  0.4780  1.5458
  681MOL0     H91914   9.181   6.886   7.602  1.0795 -1.0927  0.5734
  681MOL0     H91915   8.081   6.775   7.289 -1.4350  0.2665 -0.3737
  681MOL0     H91916   7.906   6.727   7.138 -0.6975  1.4253 -0.5210
  681MOL0     H91917   7.683   6.406   6.809  0.2172  0.6779  0.6366
  681MOL0     H91918   7.488   6.404   6.664  0.0856 -0.1116 -0.4743
  681MOL0     H91919   5.637   6.483   6.251 -0.0856  0.0945  1.2438
  681MOL0     H91920   5.400   6.487   6.299 -0.0590  0.0496  0.3247
  681MOL0     H91921   4.993   6.535   5.996  1.3879 -0.5879  0.3450
  681MOL0     H91922   4.765   6.553   5.969  0.0815  1.1539  1.0429
  681MOL0     H91923   4.401   6.472   6.049 -0.7888  1.1936 -0.6250
  681MOL0     H91924   4.551   6.527   5.964 -1.1608 -0.9146  0.1089
  681MOL0     H91925   4.380   6.706   6.004  0.5231 -0.6006  0.2271
  681MOL0     H91926   4.538   6.736   6.087  1.6430 -1.4012  0.4389
  681MOL0     H91927   4.443   6.630   6.297  1.6044  5.2207  3.6552
  681MOL0     H91928   4.295   6.606   6.207 -0.9685  1.5048 -3.9424
  681MOL0     H91929   4.386   6.820   6.355 -0.2109  3.0482 -0.2064
  681MOL0     H91930   4.372   6.884   6.194  1.1187 -2.5031 -2.0122
  681MOL0     H91931   3.956   6.826   6.288 -0.4555 -0.8367 -0.5584
  681MOL0     H91932   4.696   6.323   6.334  2.2562 -2.9057  0.1644
  681MOL0     H91933   5.031   6.333   6.446  0.0776 -0.3495  0.7106
  681MOL0     H91934   4.876   6.299   6.485 -0.3039 -1.3077 -1.1301
  681MOL0     H91935   4.958   6.184   6.379 -0.8689  0.2967 -0.7274
  682MOL0     O91936   4.701   4.534   3.912  0.0705 -0.0129  0.2873
  682MOL0     C91937   4.628   4.626   3.894  0.6887 -0.4400 -0.1803
  682MOL0     O91938   4.630   4.718   3.792  0.5508 -0.1660 -0.1338
  682MOL0     C91939   4.553   4.831   3.818 -0.1890 -0.1830 -0.9520
  682MOL0     C91940   4.435   4.864   3.746 -0.6258  0.7627 -0.0685
  682MOL0     C91941   4.361   4.983   3.777  0.1869  1.4596 -0.0536
  682MOL0     C91942   4.412   5.066   3.876  0.8160 -0.1870  0.3706
  682MOL0     O91943   4.351   5.184   3.913 -0.0671 -0.0081  0.6073
  682MOL0     C91944   4.260   5.239   3.825  0.8029 -0.2354 -0.0874
  682MOL0     C91945   4.317   5.298   3.702 -0.6874  0.6574  0.1609
  682MOL0     C91946   4.401   5.427   3.733  0.2035 -0.8813  0.0866
  682MOL0     C91947   4.491   5.465   3.614  0.9026 -0.3165  0.2263
  682MOL0     C91948   4.556   5.601   3.642  0.1248 -0.4189 -0.6938
  682MOL0     C91949   4.627   5.674   3.524 -0.2952  0.0128  0.0824
  682MOL0     C91950   4.742   5.594   3.473  0.1809 -0.0833 -0.0267
  682MOL0     C91951   4.877   5.606   3.539  0.1464 -0.4444 -0.4260
  682MOL0     N91952   4.942   5.739   3.547  0.3895 -0.4639  0.0621
  682MOL0     C91953   5.017   5.795   3.446  0.3855  0.0831  0.1088
  682MOL0     C91954   5.035   5.921   3.487 -0.2352  1.0851  1.4021
  682MOL0     C91955   5.126   6.012   3.413  0.2424  0.1625 -0.6449
  682MOL0     C91956   5.047   6.133   3.350 -0.5689 -0.4856  0.3894
  682MOL0     C91957   5.136   6.249   3.309  0.4056 -0.2027  1.0392
  682MOL0     C91958   5.223   6.213   3.183  0.2361  0.1650 -0.7498
  682MOL0     O91959   5.333   6.126   3.213  0.4840  0.5778 -0.2998
  682MOL0     C91960   5.456   6.170   3.244 -0.3689 -0.0277  0.4911
  682MOL0     C91961   5.557   6.075   3.268  0.8010 -0.3745  0.4503
  682MOL0     C91962   5.680   6.122   3.309  0.6333  0.7341  0.4302
  682MOL0     C91963   5.714   6.258   3.311  0.9254 -0.8843  0.3897
  682MOL0     C91964   5.858   6.295   3.332  0.2087 -0.3276 -0.6106
  682MOL0     O91965   5.878   6.429   3.307 -0.2961 -0.0917  0.6976
  682MOL0     C91966   6.005   6.478   3.298  0.2866  0.7966 -0.3150
  682MOL0     C91967   6.048   6.562   3.195  0.8807 -0.8674  0.5632
  682MOL0     C91968   6.170   6.629   3.196 -0.5514 -0.0780 -1.5267
  682MOL0     C91969   6.261   6.605   3.305  0.2466 -0.0377 -1.0395
  682MOL0     O91970   6.381   6.675   3.307 -0.5251  0.7924 -0.4857
  682MOL0     C91971   6.467   6.652   3.419 -1.0706  0.0589  0.4877
  682MOL0     C91972   6.592   6.741   3.412  0.3998 -0.9584 -0.4437
  682MOL0     C91973   6.656   6.772   3.274  0.2855 -0.7938  1.0815
  682MOL0     C91974   6.727   6.906   3.285  0.1323  0.0089 -0.7843
  682MOL0     C91975   6.632   7.019   3.251 -0.2766 -0.4376  0.3922
  682MOL0     C91976   6.711   7.148   3.241 -0.6773  0.1482 -0.7066
  682MOL0     C91977   6.615   7.275   3.256 -0.1920  0.9912  0.4524
  682MOL0     C91978   6.533   7.297   3.124  0.8016  0.2672 -0.0703
  682MOL0    Cl91979   6.634   7.302   2.988 -0.4495 -0.0102  0.0068
  682MOL0     C91980   6.217   6.519   3.409 -0.5359  0.2088  0.5364
  682MOL0     C91981   6.102   6.454   3.400  0.1702  0.2375  0.2711
  682MOL0     O91982   5.940   6.207   3.348  0.1154  0.5900  0.4430
  682MOL0     C91983   5.612   6.353   3.283 -0.7088  0.4440 -0.3259
  682MOL0     C91984   5.485   6.304   3.258 -0.1082 -0.1591  0.8755
  682MOL0     N91985   4.988   5.934   3.613 -0.4284 -0.9656  0.8439
  682MOL0     N91986   4.936   5.825   3.647 -0.0557 -0.2729  0.2039
  682MOL0     C91987   4.534   5.041   3.946 -0.5847 -0.4282  0.4290
  682MOL0     C91988   4.599   4.920   3.910  0.3484 -0.5345 -0.2096
  682MOL0     C91989   4.506   4.604   3.991  0.9783  0.5317  0.0501
  682MOL0     C91990   4.375   4.597   3.931  0.4898  0.1765 -0.0351
  682MOL0     C91991   4.255   4.587   4.005  0.5159  0.5514 -0.4563
  682MOL0     C91992   4.264   4.589   4.149  0.5706  0.2657  0.6436
  682MOL0     O91993   4.156   4.584   4.235 -0.2149  0.3943  0.4230
  682MOL0     C91994   4.174   4.493   4.350  1.3626  0.5165  0.3385
  682MOL0     C91995   4.033   4.426   4.388 -0.0221 -0.0260 -0.1912
  682MOL0     C91996   3.966   4.341   4.282  0.2009  0.0826  0.6996
  682MOL0     C91997   3.820   4.317   4.303  1.0797 -0.0398  0.9852
  682MOL0     C91998   3.783   4.240   4.425 -0.0633 -0.8431  0.4780
  682MOL0     C91999   3.762   4.186   4.534 -0.1311 -0.0504 -0.1310
  682MOL0     C92000   4.396   4.596   4.202  0.3569 -0.0715 -0.1884
  682MOL0     C92001   4.519   4.586   4.136  0.2012  0.6211  0.2762
  682MOL0     C92002   4.658   4.575   4.206 -0.0176  0.0491 -0.0647
  682MOL0     H92003   4.391   4.796   3.673 -0.0918 -0.1977  0.4703
  682MOL0     H92004   4.274   5.006   3.715  0.6951  3.2112 -0.1972
  682MOL0     H92005   4.180   5.167   3.803  1.4827 -1.1094  0.2333
  682MOL0     H92006   4.218   5.322   3.882 -0.4402 -0.9150  0.0306
  682MOL0     H92007   4.231   5.326   3.640 -1.6876  0.9727  1.6517
  682MOL0     H92008   4.382   5.228   3.648 -2.1207  0.2582 -1.1074
  682MOL0     H92009   4.473   5.400   3.811  1.5245 -0.3761 -0.9133
  682MOL0     H92010   4.323   5.497   3.764 -0.6875 -2.6927  2.2564
  682MOL0     H92011   4.559   5.383   3.590  1.2800  0.6752 -2.3488
  682MOL0     H92012   4.422   5.491   3.534  0.4271 -0.7575  0.4846
  682MOL0     H92013   4.469   5.662   3.667 -0.7677 -1.8508 -0.1870
  682MOL0     H92014   4.617   5.593   3.733  0.1080 -2.0933 -0.8003
  682MOL0     H92015   4.546   5.683   3.450 -0.0038  0.6806 -0.1622
  682MOL0     H92016   4.659   5.778   3.536 -1.0594  0.2474  0.1553
  682MOL0     H92017   4.765   5.635   3.374  1.8348  1.8982  1.0947
  682MOL0     H92018   4.723   5.488   3.456  1.8961 -1.3451  4.4381
  682MOL0     H92019   4.872   5.568   3.641 -2.4665 -0.2997 -0.4186
  682MOL0     H92020   4.951   5.537   3.498  0.4434 -2.3883  3.0366
  682MOL0     H92021   5.044   5.748   3.352 -1.5435 -0.9049  0.0032
  682MOL0     H92022   5.202   6.042   3.486  0.4449  0.6854 -1.0623
  682MOL0     H92023   5.168   5.961   3.326 -0.3182 -0.7942 -0.3681
  682MOL0     H92024   4.994   6.099   3.260 -0.3013 -1.2225  0.4983
  682MOL0     H92025   4.976   6.156   3.430 -2.1869 -0.9825 -0.8336
  682MOL0     H92026   5.199   6.280   3.393  1.0044  0.1051  0.4874
  682MOL0     H92027   5.072   6.333   3.280  1.3832 -0.1314 -1.1482
  682MOL0     H92028   5.249   6.302   3.124 -4.0566  1.3860 -1.1420
  682MOL0     H92029   5.164   6.149   3.117 -1.7189  0.5167  0.5408
  682MOL0     H92030   5.550   5.968   3.255  3.2818 -0.5500  0.0588
  682MOL0     H92031   5.742   6.034   3.326 -2.8685 -1.8576  0.7774
  682MOL0     H92032   5.984   6.579   3.109 -0.8331 -2.5050  1.4412
  682MOL0     H92033   6.188   6.699   3.115 -0.9740  0.4294 -1.1915
  682MOL0     H92034   6.410   6.691   3.504 -0.3330  2.6114 -0.1014
  682MOL0     H92035   6.520   6.557   3.432  0.1218  0.9133  2.1286
  682MOL0     H92036   6.565   6.833   3.465 -1.7080 -0.7044 -1.8494
  682MOL0     H92037   6.675   6.702   3.472  0.9254  3.3518  2.0356
  682MOL0     H92038   6.732   6.697   3.248  1.0220  0.7742 -1.8354
  682MOL0     H92039   6.588   6.771   3.188  2.0065  0.6535 -0.3772
  682MOL0     H92040   6.809   6.912   3.213  1.6200  2.8187  0.9868
  682MOL0     H92041   6.779   6.917   3.380  2.4929 -0.0948 -1.9901
  682MOL0     H92042   6.547   7.040   3.316 -2.0509 -0.2559 -1.8841
  682MOL0     H92043   6.592   6.995   3.152 -0.3038  0.3785  0.2057
  682MOL0     H92044   6.784   7.163   3.322 -0.4282 -1.9594 -0.4862
  682MOL0     H92045   6.774   7.144   3.152  2.0828 -1.8497  1.1539
  682MOL0     H92046   6.670   7.362   3.295 -0.5733  0.4088  2.4142
  682MOL0     H92047   6.539   7.262   3.334  0.0655 -3.4482  0.2043
  682MOL0     H92048   6.446   7.231   3.121  0.9940  0.0244 -0.4223
  682MOL0     H92049   6.500   7.400   3.136  0.6182 -0.0514  2.6210
  682MOL0     H92050   6.275   6.479   3.492  1.0104 -0.9716 -1.0436
  682MOL0     H92051   6.061   6.393   3.480 -0.6835 -0.6359 -0.8003
  682MOL0     H92052   5.622   6.461   3.278 -0.0587  0.4241  0.4481
  682MOL0     H92053   5.421   6.388   3.232  2.8165  2.6276  1.8493
  682MOL0     H92054   4.567   5.127   4.005  0.1900 -0.6072  0.2746
  682MOL0     H92055   4.692   4.895   3.960  0.0846  3.3955  2.7237
  682MOL0     H92056   4.360   4.613   3.825  2.9828 -1.7244 -0.7917
  682MOL0     H92057   4.160   4.579   3.952 -0.5575 -1.7329  1.6351
  682MOL0     H92058   4.191   4.541   4.447 -0.8819  0.1404  0.9736
  682MOL0     H92059   4.256   4.422   4.338  1.2889  0.5341 -0.2785
  682MOL0     H92060   3.959   4.502   4.416  0.4523  0.2859  0.2273
  682MOL0     H92061   4.048   4.361   4.475 -3.0700 -1.8559 -0.8557
  682MOL0     H92062   4.015   4.244   4.275 -2.4616 -1.3623  0.7271
  682MOL0     H92063   3.973   4.392   4.186  2.3269 -2.1468 -0.4223
  682MOL0     H92064   3.769   4.414   4.294 -0.2530 -0.6165  2.1040
  682MOL0     H92065   3.776   4.267   4.216 -1.0144 -0.8459  2.4345
  682MOL0     H92066   3.739   4.149   4.632 -1.5159 -1.8008 -1.0455
  682MOL0     H92067   4.412   4.594   4.309  0.3743 -3.3277 -0.1620
  682MOL0     H92068   4.736   4.646   4.179 -0.0902  0.6332  1.2026
  682MOL0     H92069   4.654   4.568   4.315  1.4884 -0.4273 -0.0262
  682MOL0     H92070   4.699   4.476   4.183  0.6223  0.5233 -1.0161
  683MOL0     O92071   1.085  11.299   4.771 -0.0382 -0.2338 -0.3812
  683MOL0     C92072   1.193  11.244   4.776 -1.2982  1.0245 -0.6374
  683MOL0     O92073   1.208  11.109   4.769 -0.7487  0.9242 -0.0119
  683MOL0     C92074   1.098  11.019   4.760 -0.2666 -0.0119  0.0515
  683MOL0     C92075   0.963  11.046   4.810  0.0502  0.0750  0.1253
  683MOL0     C92076   0.861  10.950   4.800 -0.7332  0.2372 -0.1096
  683MOL0     C92077   0.888  10.824   4.741  0.1448  0.1426  0.7481
  683MOL0     O92078   0.791  10.730   4.710  0.3807 -0.3598  0.2645
  683MOL0     C92079   0.684  10.716   4.803  0.2415 -0.8010  0.2497
  683MOL0     C92080   0.605  10.591   4.770  0.5959  0.2289  0.6503
  683MOL0     C92081   0.457  10.593   4.805  0.3648  0.1258  0.1680
  683MOL0     C92082   0.383  10.711   4.746 -0.2119  0.3165 -0.0647
  683MOL0     C92083   0.238  10.671   4.739  0.0907 -0.6513 -0.7166
  683MOL0     C92084   0.162  10.782   4.669 -0.0336  0.2761 -0.7810
  683MOL0     C92085   0.164  10.772   4.518 -0.2143 -0.2965  0.8354
  683MOL0     C92086   0.070  10.878   4.448 -0.5284 -0.2002  0.0935
  683MOL0     N92087   0.070  10.890   4.303  0.1146 -0.5295  0.9528
  683MOL0     C92088   0.164  10.949   4.214 -0.0738  0.1887 -0.8975
  683MOL0     C92089   0.108  10.915   4.096 -0.7654 -0.9856  0.1747
  683MOL0     C92090   0.165  10.952   3.962 -0.4827  1.2959 -0.6093
  683MOL0     C92091   0.315  10.978   3.952 -0.7875  0.2136  0.3697
  683MOL0     C92092   0.391  10.849   3.984 -0.3764  0.6698  0.2906
  683MOL0     C92093   0.535  10.870   3.970  0.6498  0.8478  0.0592
  683MOL0     O92094   0.605  10.747   3.998 -0.2697  0.1178  0.2695
  683MOL0     C92095   0.725  10.723   3.941  0.6068 -1.1356  0.3234
  683MOL0     C92096   0.820  10.815   3.905  0.4878 -0.5530  0.2590
  683MOL0     C92097   0.944  10.774   3.863 -0.5436 -0.2175  0.5322
  683MOL0     C92098   0.974  10.639   3.853 -0.5968 -0.6198 -0.0468
  683MOL0     C92099   1.106  10.596   3.799  0.5127 -0.2294 -0.4250
  683MOL0     O92100   1.176  10.699   3.727  0.4885  0.5569 -0.1894
  683MOL0     C92101   1.312  10.692   3.686 -0.6542  0.1691  0.7351
  683MOL0     C92102   1.415  10.658   3.771  0.6375  0.0428 -0.6491
  683MOL0     C92103   1.550  10.651   3.721 -0.0671  1.0147  0.3694
  683MOL0     C92104   1.569  10.671   3.584 -0.4859  0.3600 -0.3895
  683MOL0     O92105   1.701  10.641   3.547 -0.0777 -0.2715  0.2388
  683MOL0     C92106   1.750  10.720   3.434  0.2392  0.0637  0.1956
  683MOL0     C92107   1.884  10.671   3.408  0.5943 -0.3845 -0.0175
  683MOL0     C92108   1.988  10.656   3.521 -0.0010  0.8494 -0.2768
  683MOL0     C92109   2.129  10.642   3.475 -0.4124  0.6473  0.0410
  683MOL0     C92110   2.227  10.615   3.593 -1.1240  0.0645 -0.3816
  683MOL0     C92111   2.372  10.617   3.537  0.4916  0.0976 -0.7436
  683MOL0     C92112   2.490  10.598   3.632  0.0670  0.0943  0.7917
  683MOL0     C92113   2.617  10.629   3.548 -0.2427  0.9332  0.7385
  683MOL0    Cl92114   2.636  10.507   3.417 -0.3167 -0.1130 -0.1934
  683MOL0     C92115   1.467  10.709   3.499 -0.3607 -0.5021 -0.1876
  683MOL0     C92116   1.335  10.725   3.551 -0.7722  0.1557  0.4813
  683MOL0     O92117   1.143  10.483   3.808 -0.4148 -0.1125 -0.2762
  683MOL0     C92118   0.871  10.547   3.880  0.0769 -0.2316 -0.2679
  683MOL0     C92119   0.750  10.592   3.929 -0.7359 -0.5051  0.7956
  683MOL0     N92120  -0.014  10.841   4.104 -0.2756  0.8750 -0.2421
  683MOL0     N92121  -0.033  10.828   4.232 -0.0038  0.0517 -0.1861
  683MOL0     C92122   1.024  10.802   4.699 -0.6568 -0.7915 -0.6582
  683MOL0     C92123   1.130  10.895   4.703  0.0405 -0.2309 -1.0557
  683MOL0     C92124   1.323  11.316   4.803 -0.5827 -0.6800  0.9252
  683MOL0     C92125   1.412  11.253   4.885  0.3900  0.3809 -0.5254
  683MOL0     C92126   1.519  11.325   4.942 -0.6341  0.5169  0.5805
  683MOL0     C92127   1.552  11.445   4.890 -0.4550  0.3126 -0.4013
  683MOL0     O92128   1.673  11.501   4.935  0.8175  0.0921 -0.5467
  683MOL0     C92129   1.721  11.629   4.907  0.1735 -0.8927  0.1557
  683MOL0     C92130   1.805  11.631   4.792 -0.5385  0.0282  0.0381
  683MOL0     C92131   1.750  11.587   4.651  0.4381 -0.4826 -0.2219
  683MOL0     C92132   1.854  11.615   4.540 -0.4073  0.5426 -0.2463
  683MOL0     C92133   1.879  11.752   4.521  0.1349  0.2284 -0.6306
  683MOL0     C92134   1.907  11.866   4.500 -0.5603 -0.3210  0.1722
  683MOL0     C92135   1.462  11.518   4.816  0.1939  0.7948  0.4741
  683MOL0     C92136   1.347  11.451   4.761  0.1317 -0.3868 -0.0613
  683MOL0     C92137   1.268  11.526   4.665  0.6862 -0.0960  0.1808
  683MOL0     H92138   0.931  11.139   4.854  0.0265 -0.3522  1.0269
  683MOL0     H92139   0.764  10.984   4.833  1.0903  1.9986  4.2561
  683MOL0     H92140   0.721  10.698   4.905  0.1221 -0.8962  0.2762
  683MOL0     H92141   0.627  10.809   4.799  3.0940  1.1947  1.6968
  683MOL0     H92142   0.659  10.504   4.808 -1.4950 -1.7313 -0.5900
  683MOL0     H92143   0.606  10.571   4.662  0.4429  2.6159  0.1581
  683MOL0     H92144   0.442  10.590   4.914  2.0808  1.0930  0.4672
  683MOL0     H92145   0.410  10.500   4.771  0.4830 -0.5619  1.7708
  683MOL0     H92146   0.384  10.804   4.802  0.1747  1.0028 -1.1868
  683MOL0     H92147   0.417  10.729   4.643 -0.8166 -0.1048 -0.3465
  683MOL0     H92148   0.217  10.579   4.683 -0.3663  1.0772 -3.5850
  683MOL0     H92149   0.205  10.651   4.841  0.6830 -1.8919 -0.7456
  683MOL0     H92150   0.061  10.786   4.712  0.9561 -2.4679  2.2288
  683MOL0     H92151   0.194  10.884   4.693 -0.2894 -0.1861  1.8579
  683MOL0     H92152   0.146  10.670   4.483 -1.3706  0.3526 -0.5738
  683MOL0     H92153   0.265  10.803   4.493  0.0727 -1.5662  0.3615
  683MOL0     H92154  -0.032  10.853   4.480 -1.6063  3.0796 -0.4058
  683MOL0     H92155   0.090  10.978   4.487 -1.3184  0.4117 -1.0290
  683MOL0     H92156   0.261  10.991   4.236  0.3489 -1.6491  1.0350
  683MOL0     H92157   0.136  10.869   3.897 -1.3199  1.1678 -0.0847
  683MOL0     H92158   0.115  11.044   3.931 -1.2083  0.7175 -1.2003
  683MOL0     H92159   0.327  11.018   3.851 -3.9821  4.2298  1.2899
  683MOL0     H92160   0.342  11.056   4.024 -2.9818  1.0031  0.4106
  683MOL0     H92161   0.366  10.769   3.914 -0.1655  0.0711  0.8854
  683MOL0     H92162   0.373  10.815   4.086 -1.6737  1.5078  0.3634
  683MOL0     H92163   0.568  10.944   4.043  3.1401 -0.7107  0.6161
  683MOL0     H92164   0.558  10.901   3.868  2.2376  1.0737  0.4648
  683MOL0     H92165   0.793  10.920   3.912  1.9762  0.2237 -3.3873
  683MOL0     H92166   1.009  10.850   3.821 -0.2224 -1.5405 -1.5186
  683MOL0     H92167   1.405  10.619   3.872 -0.9010  1.1782 -0.3235
  683MOL0     H92168   1.621  10.608   3.791 -1.3246  1.8108  2.2239
  683MOL0     H92169   1.686  10.714   3.345  0.9580 -0.7603 -0.2776
  683MOL0     H92170   1.750  10.827   3.456  1.8378  0.2058 -0.3866
  683MOL0     H92171   1.877  10.570   3.366  1.3809 -1.0766  1.4467
  683MOL0     H92172   1.932  10.729   3.328  0.8958 -1.1981 -0.4392
  683MOL0     H92173   1.982  10.742   3.589  0.2975  1.9236 -1.5690
  683MOL0     H92174   1.975  10.565   3.581  2.1207 -2.3635 -4.2174
  683MOL0     H92175   2.149  10.733   3.417 -0.1762  0.3367 -0.3781
  683MOL0     H92176   2.132  10.560   3.402 -0.8803  1.0439 -0.4282
  683MOL0     H92177   2.193  10.518   3.630 -0.1377  0.2073  0.9770
  683MOL0     H92178   2.211  10.687   3.674 -1.2118 -0.2259 -0.1388
  683MOL0     H92179   2.373  10.550   3.450 -2.1417 -0.6182 -0.3016
  683MOL0     H92180   2.382  10.720   3.502 -0.8514 -0.3436 -2.5840
  683MOL0     H92181   2.483  10.503   3.686 -3.4244 -0.1400  0.1796
  683MOL0     H92182   2.485  10.674   3.711 -0.9328  0.7787  0.1048
  683MOL0     H92183   2.614  10.730   3.507  1.7753  1.3635  1.5266
  683MOL0     H92184   2.711  10.638   3.604  0.3421  1.0611 -0.2530
  683MOL0     H92185   1.491  10.721   3.394 -0.6763  0.5731 -0.1448
  683MOL0     H92186   1.257  10.761   3.484  0.5933  2.7164  0.1302
  683MOL0     H92187   0.901  10.445   3.863  1.0950  0.3669 -2.4065
  683MOL0     H92188   0.672  10.520   3.953 -0.8553 -0.9345 -0.8119
  683MOL0     H92189   1.033  10.708   4.647 -1.4889 -1.1535 -0.1701
  683MOL0     H92190   1.229  10.868   4.667  0.9004  0.8368  0.4350
  683MOL0     H92191   1.390  11.152   4.918  2.0674 -0.6055 -2.2567
  683MOL0     H92192   1.594  11.285   5.010  1.0478 -0.2760 -1.6015
  683MOL0     H92193   1.764  11.681   4.992 -0.8676  0.6342 -0.2025
  683MOL0     H92194   1.640  11.699   4.884  1.1359  0.2349  0.1305
  683MOL0     H92195   1.888  11.562   4.811 -0.2869  0.7871  1.8578
  683MOL0     H92196   1.851  11.730   4.793 -0.6579  0.1159 -1.4557
  683MOL0     H92197   1.663  11.644   4.618  0.8236  0.3529  0.1714
  683MOL0     H92198   1.720  11.482   4.643  0.2998 -0.4127 -0.6153
  683MOL0     H92199   1.948  11.571   4.574  0.7712  1.6038 -1.9226
  683MOL0     H92200   1.830  11.555   4.452  0.6081  0.8931 -0.7850
  683MOL0     H92201   1.926  11.971   4.490  1.7385 -0.6709  0.2459
  683MOL0     H92202   1.494  11.613   4.775  4.1605  0.0191  1.3196
  683MOL0     H92203   1.325  11.528   4.572  0.9751  0.8796  0.3646
  683MOL0     H92204   1.170  11.479   4.651  0.5365 -0.1407  1.2903
  683MOL0     H92205   1.239  11.625   4.703 -0.9881 -0.4843 -0.0094
  684MOL0     O92206   0.274   3.571   2.955  0.9929 -0.6693 -0.1459
  684MOL0     C92207   0.202   3.492   2.890 -0.7763 -1.2162  0.1402
  684MOL0     O92208   0.233   3.353   2.862  0.1473 -0.5728 -0.5181
  684MOL0     C92209   0.359   3.317   2.887 -0.9067 -0.0615 -0.0544
  684MOL0     C92210   0.392   3.214   2.979 -0.0728  0.4953  0.1540
  684MOL0     C92211   0.521   3.175   3.010 -0.6955 -0.2635  0.3731
  684MOL0     C92212   0.632   3.241   2.945  0.1585  0.4592  1.0373
  684MOL0     O92213   0.761   3.210   2.976  0.8651 -0.4932 -0.1336
  684MOL0     C92214   0.826   3.310   3.044 -0.6511 -0.3716 -0.5419
  684MOL0     C92215   0.954   3.265   3.092 -0.9810 -0.1326 -0.0476
  684MOL0     C92216   1.022   3.190   2.983 -0.3227  0.5059  0.0457
  684MOL0     C92217   1.175   3.196   3.011  0.3519  0.6124  0.3139
  684MOL0     C92218   1.242   3.096   2.911  0.3318 -0.1991  0.4046
  684MOL0     C92219   1.385   3.059   2.963  0.0999 -0.7960  0.4491
  684MOL0     C92220   1.464   2.991   2.841  0.1854  0.5941 -0.3693
  684MOL0     C92221   1.567   2.891   2.901 -0.1465 -0.4529  0.7363
  684MOL0     N92222   1.690   2.962   2.929  0.1053 -0.7257  0.5718
  684MOL0     C92223   1.801   2.977   2.851 -0.1982  0.0510 -0.8490
  684MOL0     C92224   1.898   3.028   2.939 -0.1891 -0.2697  0.7377
  684MOL0     C92225   2.039   3.053   2.913 -0.6665 -0.0999 -0.9930
  684MOL0     C92226   2.124   2.930   2.864  0.0807 -0.4669  0.4315
  684MOL0     C92227   2.089   2.904   2.709 -0.7558  0.9932 -0.1193
  684MOL0     C92228   2.209   2.825   2.653  0.3619  0.4314 -0.0406
  684MOL0     O92229   2.319   2.907   2.632  0.3125 -0.4857 -0.0863
  684MOL0     C92230   2.334   3.011   2.538  0.8247 -0.1586 -0.3213
  684MOL0     C92231   2.442   3.096   2.555 -0.7859  0.2715 -0.3348
  684MOL0     C92232   2.468   3.202   2.471  0.1434  0.0151  0.0817
  684MOL0     C92233   2.390   3.217   2.356 -0.0555  0.7032  0.8511
  684MOL0     C92234   2.419   3.337   2.268 -0.0974 -0.3991  0.0548
  684MOL0     O92235   2.545   3.383   2.284 -0.3413  0.2185 -0.0332
  684MOL0     C92236   2.597   3.485   2.219  0.4015  0.6016  0.3002
  684MOL0     C92237   2.729   3.467   2.174 -0.5822  0.0473  1.2724
  684MOL0     C92238   2.784   3.559   2.080  0.2459  0.0912 -0.1559
  684MOL0     C92239   2.713   3.676   2.047 -1.1151 -0.3070  0.2318
  684MOL0     O92240   2.767   3.767   1.966  0.7954 -0.1369 -0.7433
  684MOL0     C92241   2.826   3.880   2.032  0.3252 -0.2960  0.9684
  684MOL0     C92242   2.742   3.999   2.011  0.3206 -0.8056  0.3194
  684MOL0     C92243   2.729   4.025   1.862  0.3842  0.3933 -0.6779
  684MOL0     C92244   2.844   4.110   1.802  0.7042  0.0562  0.4626
  684MOL0     C92245   2.809   4.182   1.673 -0.7124  0.4436  0.2567
  684MOL0     C92246   2.800   4.092   1.554 -1.0093  0.1451 -0.0724
  684MOL0     C92247   2.733   4.172   1.433 -0.6452 -0.0003  0.5747
  684MOL0     C92248   2.725   4.078   1.299 -0.3782  0.2331 -1.5366
  684MOL0    Cl92249   2.612   3.941   1.327 -0.0422  0.2708 -0.0102
  684MOL0     C92250   2.588   3.696   2.100  0.7146  1.1707 -0.0079
  684MOL0     C92251   2.523   3.605   2.187 -0.6092  0.0683 -0.1202
  684MOL0     O92252   2.336   3.374   2.184  0.7841 -0.5532 -0.0696
  684MOL0     C92253   2.270   3.149   2.348  0.3345 -0.2212  0.5464
  684MOL0     C92254   2.244   3.039   2.434  0.2176  0.1420 -0.3540
  684MOL0     N92255   1.841   3.032   3.068 -0.4593  0.8236  0.9235
  684MOL0     N92256   1.727   2.986   3.062  0.1093 -0.5660  0.0296
  684MOL0     C92257   0.602   3.336   2.846  0.4850  0.5622  0.1767
  684MOL0     C92258   0.466   3.379   2.821  0.8374 -0.1924  0.9530
  684MOL0     C92259   0.065   3.525   2.863 -0.0401 -0.5510 -0.3541
  684MOL0     C92260   0.006   3.481   2.742  0.0994 -0.1654  0.0447
  684MOL0     C92261  -0.123   3.531   2.701  0.4187  0.5461 -0.0414
  684MOL0     C92262  -0.195   3.615   2.793  1.0283  0.0083  0.6971
  684MOL0     O92263  -0.331   3.645   2.785  0.2354 -0.0428  0.0178
  684MOL0     C92264  -0.401   3.591   2.670  0.2881 -0.1207 -0.4495
  684MOL0     C92265  -0.380   3.664   2.539  0.1165  0.3198 -0.4124
  684MOL0     C92266  -0.436   3.573   2.413 -0.8754 -0.3441 -0.2001
  684MOL0     C92267  -0.538   3.620   2.320  0.1614  0.2434 -0.2631
  684MOL0     C92268  -0.663   3.655   2.387 -0.3115  0.2464 -1.1369
  684MOL0     C92269  -0.772   3.682   2.443  0.4903 -0.7862  0.9110
  684MOL0     C92270  -0.137   3.658   2.907 -0.6154  0.2752  1.4205
  684MOL0     C92271  -0.009   3.616   2.948 -0.3564  0.7604  0.5152
  684MOL0     C92272   0.031   3.670   3.080 -0.3043  0.0062 -0.3850
  684MOL0     H92273   0.313   3.157   3.027  1.3049 -1.0885  0.6668
  684MOL0     H92274   0.539   3.109   3.094  0.8598  2.1705  2.0672
  684MOL0     H92275   0.843   3.392   2.973 -0.3264  1.6916  1.8058
  684MOL0     H92276   0.764   3.357   3.121  0.3149  0.6382 -0.3488
  684MOL0     H92277   0.927   3.203   3.178  0.5287  0.7261  1.0834
  684MOL0     H92278   1.010   3.354   3.121  1.0366 -1.0536 -0.9778
  684MOL0     H92279   0.990   3.228   2.885 -0.9709  0.9475  0.4168
  684MOL0     H92280   0.985   3.087   2.989 -1.1923  0.8011 -0.0810
  684MOL0     H92281   1.215   3.292   2.975 -0.3020 -0.1215 -2.6206
  684MOL0     H92282   1.204   3.183   3.115 -0.6612  3.1995  1.0005
  684MOL0     H92283   1.185   3.008   2.880 -0.0906 -0.1801  1.0921
  684MOL0     H92284   1.270   3.147   2.818 -0.0314  0.7234  0.7887
  684MOL0     H92285   1.440   3.149   2.991 -0.3223 -1.0030  1.9905
  684MOL0     H92286   1.365   2.988   3.044 -3.1950  0.3133  0.7637
  684MOL0     H92287   1.500   3.074   2.780 -3.7764  2.8131  0.0035
  684MOL0     H92288   1.400   2.929   2.777 -1.4994  1.4618  0.4113
  684MOL0     H92289   1.549   2.840   2.996 -0.3932  3.1448  2.8043
  684MOL0     H92290   1.576   2.803   2.836 -1.7803 -0.6011  0.6757
  684MOL0     H92291   1.807   2.962   2.744  1.3952 -0.8115 -0.6762
  684MOL0     H92292   2.054   3.138   2.845  0.5294 -0.1731 -0.8388
  684MOL0     H92293   2.084   3.081   3.009  2.3484 -0.9544 -2.0433
  684MOL0     H92294   2.227   2.948   2.895  0.2824 -2.0507  0.7456
  684MOL0     H92295   2.096   2.842   2.924 -2.5672  1.0534  1.6415
  684MOL0     H92296   2.076   3.005   2.669  0.4039  0.9420 -0.6615
  684MOL0     H92297   2.006   2.836   2.689 -1.7291  3.1513 -4.4736
  684MOL0     H92298   2.186   2.786   2.554  3.7051 -0.3997 -0.6168
  684MOL0     H92299   2.253   2.754   2.723  0.9374  0.2868 -0.5460
  684MOL0     H92300   2.494   3.080   2.649  0.0071 -3.2499 -1.2477
  684MOL0     H92301   2.553   3.268   2.491 -1.4174  2.2204 -0.2517
  684MOL0     H92302   2.796   3.388   2.206 -1.4049 -1.2924 -0.1783
  684MOL0     H92303   2.881   3.547   2.034 -0.6950  2.5466 -3.2480
  684MOL0     H92304   2.851   3.852   2.135  0.7972  1.8173  1.4792
  684MOL0     H92305   2.926   3.888   1.988  0.9231 -3.3716  1.4973
  684MOL0     H92306   2.647   3.972   2.056  0.5344 -1.3115  0.4720
  684MOL0     H92307   2.773   4.087   2.068 -0.0199 -0.6116  0.2058
  684MOL0     H92308   2.711   3.933   1.806 -3.8030 -0.8279  2.1810
  684MOL0     H92309   2.638   4.083   1.845  1.3618  2.3227  0.2979
  684MOL0     H92310   2.933   4.047   1.796 -1.5082 -3.2963 -0.3292
  684MOL0     H92311   2.879   4.188   1.869  2.2043 -0.0120 -0.2051
  684MOL0     H92312   2.895   4.247   1.654  1.7774 -2.9155 -1.0488
  684MOL0     H92313   2.719   4.244   1.680 -1.0692  0.8687 -4.4077
  684MOL0     H92314   2.900   4.058   1.525 -2.0146 -1.6141 -1.7621
  684MOL0     H92315   2.737   4.007   1.584 -2.2139  0.2900 -2.0436
  684MOL0     H92316   2.803   4.250   1.401  2.7584 -2.9486  0.0857
  684MOL0     H92317   2.633   4.208   1.459 -1.6734 -2.0348 -0.3209
  684MOL0     H92318   2.694   4.139   1.213  1.7687  1.2037 -1.6858
  684MOL0     H92319   2.830   4.048   1.283  1.3096  4.2052  0.7316
  684MOL0     H92320   2.530   3.782   2.068  1.8476  1.4208 -1.5151
  684MOL0     H92321   2.426   3.622   2.231 -0.2684  0.9682  0.3038
  684MOL0     H92322   2.204   3.155   2.262 -1.2800  0.5220  1.7755
  684MOL0     H92323   2.155   2.978   2.422  0.4076 -0.1306 -0.3917
  684MOL0     H92324   0.686   3.368   2.787  0.9150  0.3814  0.6819
  684MOL0     H92325   0.446   3.434   2.729 -0.9518 -3.7486 -0.9845
  684MOL0     H92326   0.060   3.417   2.672 -1.2742  0.4174 -1.6299
  684MOL0     H92327  -0.169   3.495   2.610  1.5057 -0.9772 -0.0380
  684MOL0     H92328  -0.509   3.585   2.691  0.3141  0.6671 -0.0754
  684MOL0     H92329  -0.372   3.485   2.665 -3.6728 -1.4567  0.5246
  684MOL0     H92330  -0.272   3.674   2.529  0.6157 -1.6638  1.8588
  684MOL0     H92331  -0.428   3.761   2.552 -0.2692 -0.0956  1.7993
  684MOL0     H92332  -0.468   3.478   2.457 -0.3322 -0.5899 -0.3327
  684MOL0     H92333  -0.346   3.542   2.359  0.0763 -2.7501  2.5445
  684MOL0     H92334  -0.492   3.703   2.266  0.0790  1.2209  1.0932
  684MOL0     H92335  -0.574   3.541   2.254 -0.7300 -1.5319  2.1984
  684MOL0     H92336  -0.871   3.696   2.480  0.7808  1.4354  0.9873
  684MOL0     H92337  -0.180   3.724   2.981  1.1933  3.4519 -0.1181
  684MOL0     H92338   0.130   3.715   3.072  0.6368 -1.4986  1.8606
  684MOL0     H92339  -0.034   3.740   3.133 -0.5243  0.0101 -0.6565
  684MOL0     H92340   0.026   3.593   3.158  0.4907  2.5550  2.3614
  685MOL0     O92341   6.543   3.637   5.537 -0.1645 -0.0649  0.0399
  685MOL0     C92342   6.501   3.523   5.517 -0.9116 -0.0323 -0.4419
  685MOL0     O92343   6.541   3.408   5.588 -0.3586 -0.1227  0.3223
  685MOL0     C92344   6.636   3.404   5.683  0.1642  0.5210 -0.2174
  685MOL0     C92345   6.669   3.499   5.783  0.4232  0.1245  0.3230
  685MOL0     C92346   6.787   3.479   5.856  0.3057 -0.2818  0.4523
  685MOL0     C92347   6.881   3.388   5.829  0.0985  0.3362  0.6606
  685MOL0     O92348   7.007   3.407   5.883  0.3489  0.5495 -0.1876
  685MOL0     C92349   7.078   3.288   5.913  0.3182 -0.0344  0.5156
  685MOL0     C92350   7.212   3.324   5.985 -0.4054  0.0431 -0.4379
  685MOL0     C92351   7.190   3.440   6.090  0.1820  0.0217 -0.6951
  685MOL0     C92352   7.316   3.508   6.150 -0.4906 -0.1738  0.3825
  685MOL0     C92353   7.379   3.442   6.272  0.2848  0.2883 -0.3971
  685MOL0     C92354   7.475   3.528   6.352 -0.8116  0.0993  0.7149
  685MOL0     C92355   7.537   3.448   6.475  0.3484 -0.6602 -0.1211
  685MOL0     C92356   7.566   3.549   6.582  0.8231  0.0178 -0.1095
  685MOL0     N92357   7.679   3.628   6.539  0.3392  0.1048 -0.4467
  685MOL0     C92358   7.795   3.562   6.506  0.1760  0.4897  1.3330
  685MOL0     C92359   7.868   3.657   6.445 -0.1613 -1.1955  0.1512
  685MOL0     C92360   8.016   3.662   6.399  0.6081 -0.3006  0.5619
  685MOL0     C92361   8.027   3.640   6.247 -0.0725  0.2495  0.2865
  685MOL0     C92362   8.013   3.483   6.217 -1.0166 -0.5296  0.2629
  685MOL0     C92363   8.025   3.473   6.065 -0.9120  0.4708  0.9083
  685MOL0     O92364   8.017   3.339   6.031  0.3673  0.1670  0.8496
  685MOL0     C92365   7.894   3.279   6.002 -0.6325  1.2100  0.3993
  685MOL0     C92366   7.918   3.162   5.925 -0.5522  0.2221 -0.1676
  685MOL0     C92367   7.808   3.095   5.872 -0.9766 -0.0013 -0.8768
  685MOL0     C92368   7.674   3.135   5.902  0.3808  0.3727 -0.3400
  685MOL0     C92369   7.563   3.041   5.863  0.0400 -0.7750 -0.7984
  685MOL0     O92370   7.599   2.923   5.808 -0.1817 -0.6115  0.2270
  685MOL0     C92371   7.507   2.828   5.770  0.4408  0.1188 -0.5177
  685MOL0     C92372   7.366   2.813   5.793 -0.4911 -0.3245 -0.8095
  685MOL0     C92373   7.298   2.709   5.727 -0.0711  0.4820 -0.1239
  685MOL0     C92374   7.364   2.611   5.652  0.1439 -0.0404  0.1070
  685MOL0     O92375   7.300   2.511   5.590  0.4687  0.2290  0.0569
  685MOL0     C92376   7.302   2.387   5.660 -0.1403  0.3805 -0.3618
  685MOL0     C92377   7.168   2.341   5.707  0.0992  0.5063 -0.6616
  685MOL0     C92378   7.176   2.212   5.791  0.8192 -0.1181  0.3158
  685MOL0     C92379   7.043   2.141   5.821  0.4538 -0.7602 -0.0579
  685MOL0     C92380   7.055   2.005   5.906  0.3399  0.8416 -0.8598
  685MOL0     C92381   7.091   2.030   6.063  0.1562  0.2248  0.8811
  685MOL0     C92382   7.246   2.030   6.090  0.1263  0.2197  0.0071
  685MOL0     C92383   7.290   2.159   6.152 -0.0433 -0.2224  0.1168
  685MOL0    Cl92384   7.298   2.153   6.332 -0.4789  0.2758  0.4117
  685MOL0     C92385   7.503   2.622   5.636 -0.0757  0.6527  0.1759
  685MOL0     C92386   7.568   2.727   5.688 -0.5699 -0.1105  0.3136
  685MOL0     O92387   7.445   3.077   5.884  0.3970  0.2065  0.5563
  685MOL0     C92388   7.649   3.241   5.990  0.6418 -0.1210 -0.6423
  685MOL0     C92389   7.762   3.314   6.036  0.0504 -0.3925 -0.6051
  685MOL0     N92390   7.800   3.770   6.441 -0.2281 -1.2888  0.0205
  685MOL0     N92391   7.686   3.760   6.506 -0.5605 -0.6294  0.8963
  685MOL0     C92392   6.844   3.283   5.744 -0.8733  0.3158 -0.1593
  685MOL0     C92393   6.724   3.292   5.672 -0.9064 -1.2515 -0.6287
  685MOL0     C92394   6.409   3.509   5.401 -0.1393 -1.3044 -0.2086
  685MOL0     C92395   6.399   3.619   5.309  0.1647 -0.6145 -1.3140
  685MOL0     C92396   6.308   3.617   5.209  1.0961 -0.1719 -0.0126
  685MOL0     C92397   6.209   3.517   5.201 -0.5816 -1.1859 -0.0111
  685MOL0     O92398   6.116   3.536   5.110  0.0505 -0.0140  0.9007
  685MOL0     C92399   5.999   3.450   5.085 -0.0130  0.3840  0.1307
  685MOL0     C92400   5.902   3.515   4.991  0.2564 -0.1436  0.2345
  685MOL0     C92401   5.761   3.449   4.995  0.0746  0.1393  0.7054
  685MOL0     C92402   5.750   3.326   4.912  0.1062 -0.0437  0.0942
  685MOL0     C92403   5.708   3.373   4.782 -0.8053 -0.5213  0.8774
  685MOL0     C92404   5.673   3.415   4.669 -0.2317  0.5829  0.6980
  685MOL0     C92405   6.214   3.416   5.293 -0.2717  0.6427  0.7439
  685MOL0     C92406   6.313   3.407   5.388 -0.1274 -0.3647  0.0909
  685MOL0     C92407   6.293   3.291   5.483  0.1571 -0.6161 -0.6210
  685MOL0     H92408   6.611   3.590   5.794 -2.3965 -1.5424  0.2730
  685MOL0     H92409   6.820   3.551   5.930  0.6694  0.6374 -0.5744
  685MOL0     H92410   7.025   3.220   5.980 -1.0101 -2.9808 -3.1735
  685MOL0     H92411   7.090   3.234   5.819 -1.5550  0.3857 -0.0117
  685MOL0     H92412   7.287   3.341   5.907  0.1525 -0.5876 -0.0435
  685MOL0     H92413   7.232   3.234   6.043 -2.1547  0.8129  1.5018
  685MOL0     H92414   7.126   3.416   6.175  1.2565 -1.6309 -0.3172
  685MOL0     H92415   7.140   3.523   6.038  1.7884  0.5784 -1.4178
  685MOL0     H92416   7.388   3.520   6.069 -0.1503 -0.6586  0.6087
  685MOL0     H92417   7.286   3.610   6.175  3.0928 -0.0088  5.7191
  685MOL0     H92418   7.299   3.387   6.322 -1.1011  0.3034 -2.4754
  685MOL0     H92419   7.443   3.363   6.230  0.6658  0.4558 -0.1402
  685MOL0     H92420   7.554   3.559   6.284  0.7261 -3.8217  0.4386
  685MOL0     H92421   7.422   3.618   6.384 -3.4274 -0.9393 -0.4294
  685MOL0     H92422   7.620   3.386   6.439 -0.2550 -1.0395 -0.9101
  685MOL0     H92423   7.456   3.389   6.519  0.0836  0.5783  1.1077
  685MOL0     H92424   7.485   3.621   6.599  0.5921  0.5981 -3.1347
  685MOL0     H92425   7.600   3.506   6.677  1.7766 -0.3095 -0.5854
  685MOL0     H92426   7.818   3.458   6.524  0.7599  0.5318  0.8621
  685MOL0     H92427   8.061   3.760   6.422 -2.1721  1.1816  0.1446
  685MOL0     H92428   8.062   3.581   6.456 -0.0678 -0.8161  0.3921
  685MOL0     H92429   7.946   3.681   6.186  0.7353 -0.4644 -1.3119
  685MOL0     H92430   8.118   3.687   6.209  1.5731 -2.1184  1.0686
  685MOL0     H92431   7.919   3.445   6.260 -1.1493 -1.7437 -1.0232
  685MOL0     H92432   8.097   3.427   6.258  1.4189 -1.6533 -5.3625
  685MOL0     H92433   8.113   3.522   6.022 -2.2711  1.9708 -0.2633
  685MOL0     H92434   7.941   3.538   6.039  0.3210  1.6337 -0.2958
  685MOL0     H92435   8.021   3.128   5.919  0.0255  1.5272  1.5085
  685MOL0     H92436   7.828   2.998   5.827  2.2223 -0.1171  0.5235
  685MOL0     H92437   7.314   2.876   5.865  2.2554 -1.9153  2.8543
  685MOL0     H92438   7.193   2.692   5.747 -0.3006 -0.8828 -2.1650
  685MOL0     H92439   7.344   2.310   5.595  1.5239  0.7654  0.2193
  685MOL0     H92440   7.353   2.388   5.757 -2.8732 -2.4916  1.2891
  685MOL0     H92441   7.122   2.415   5.774 -3.1624 -1.6487 -0.2954
  685MOL0     H92442   7.099   2.325   5.624  1.4624 -1.6520 -1.4406
  685MOL0     H92443   7.240   2.140   5.740 -0.5791 -0.9587 -0.3244
  685MOL0     H92444   7.208   2.245   5.890  1.0501 -1.5112  0.7304
  685MOL0     H92445   6.985   2.130   5.729 -0.3607  1.1799  0.1671
  685MOL0     H92446   6.989   2.219   5.875  0.1471 -1.7630  1.1240
  685MOL0     H92447   7.134   1.938   5.870 -0.9267 -1.0878 -0.1853
  685MOL0     H92448   6.958   1.955   5.907  0.9886 -0.5716  2.3604
  685MOL0     H92449   7.031   2.107   6.112 -2.8568 -1.9581  0.8880
  685MOL0     H92450   7.059   1.939   6.115 -0.9345  0.6713  1.0234
  685MOL0     H92451   7.298   2.030   5.993 -0.2589  2.8716 -0.2733
  685MOL0     H92452   7.263   1.945   6.157 -2.3872 -0.0240  0.4321
  685MOL0     H92453   7.388   2.184   6.109 -1.9026  1.7728 -3.3664
  685MOL0     H92454   7.217   2.237   6.129 -3.0398 -3.2721 -1.5839
  685MOL0     H92455   7.554   2.549   5.573 -1.4095 -0.3856  0.2303
  685MOL0     H92456   7.672   2.737   5.659 -1.0300 -1.5010 -2.1312
  685MOL0     H92457   7.553   3.262   6.035  1.5600  1.9611  0.4396
  685MOL0     H92458   7.754   3.392   6.112  0.5211 -1.8055  0.9478
  685MOL0     H92459   6.917   3.210   5.710 -0.9421  1.1397 -2.1911
  685MOL0     H92460   6.701   3.213   5.602  0.0389  0.7056 -3.2996
  685MOL0     H92461   6.451   3.714   5.313 -2.0841  0.6551 -0.0499
  685MOL0     H92462   6.298   3.698   5.138  2.8701 -0.5893 -0.8088
  685MOL0     H92463   5.948   3.425   5.179  0.5736 -4.7192 -0.6184
  685MOL0     H92464   6.028   3.353   5.043  0.8026  0.4339  0.5522
  685MOL0     H92465   5.941   3.506   4.889  1.8264  0.9747  0.7044
  685MOL0     H92466   5.903   3.622   5.014  2.0027  0.3776 -1.8590
  685MOL0     H92467   5.690   3.527   4.968  0.3387  0.7255  1.6563
  685MOL0     H92468   5.738   3.431   5.101  2.4186 -0.4854  1.1673
  685MOL0     H92469   5.846   3.278   4.897  1.6123  1.6761  3.1453
  685MOL0     H92470   5.680   3.251   4.951 -0.2283 -0.4952 -1.3102
  685MOL0     H92471   5.632   3.446   4.575  0.1352 -2.3937 -0.5559
  685MOL0     H92472   6.146   3.333   5.274 -0.6404  0.6820  1.8064
  685MOL0     H92473   6.223   3.211   5.460  0.2196 -0.5792 -0.9574
  685MOL0     H92474   6.390   3.245   5.505 -0.2502 -0.0764  2.8542
  685MOL0     H92475   6.284   3.319   5.588  2.6949 -2.0859  0.0791
  686MOL0     O92476   6.115   3.417  10.151  0.3977  0.5066 -0.7315
  686MOL0     C92477   6.063   3.448  10.048 -0.1437 -0.5886  0.1671
  686MOL0     O92478   6.131   3.510   9.944  1.0795  0.6712 -0.4414
  686MOL0     C92479   6.264   3.501   9.944 -0.1181 -1.2394 -0.6513
  686MOL0     C92480   6.328   3.423   9.849  0.5250  0.6477 -0.3257
  686MOL0     C92481   6.461   3.405   9.843  0.1290 -0.3489  0.4444
  686MOL0     C92482   6.541   3.462   9.946 -0.1568  0.7915  0.0382
  686MOL0     O92483   6.669   3.441   9.926  0.4333  0.3551 -0.6382
  686MOL0     C92484   6.763   3.472  10.039 -0.5688 -0.1796  0.3953
  686MOL0     C92485   6.909   3.414  10.006  0.4638  0.6180  0.7364
  686MOL0     C92486   6.999   3.423  10.131 -0.0185 -0.2431 -0.0671
  686MOL0     C92487   7.144   3.360  10.131 -0.7882  0.3601  0.9768
  686MOL0     C92488   7.226   3.417  10.011 -0.4778 -0.8523 -0.6243
  686MOL0     C92489   7.367   3.394  10.041  0.9877  0.4315 -0.4647
  686MOL0     C92490   7.461   3.432   9.933 -0.9311 -0.4440 -0.3343
  686MOL0     C92491   7.458   3.571   9.879  0.8077 -0.2326 -0.1982
  686MOL0     N92492   7.544   3.588   9.756  0.3113 -0.3792 -0.2270
  686MOL0     C92493   7.573   3.507   9.653 -0.2558  0.5805 -0.8874
  686MOL0     C92494   7.665   3.571   9.574 -0.3144  0.3339 -0.0566
  686MOL0     C92495   7.727   3.509   9.460  1.5583 -0.1229  1.1908
  686MOL0     C92496   7.685   3.599   9.341 -0.3539 -0.4811  0.1756
  686MOL0     C92497   7.747   3.558   9.210  0.3348 -0.5160 -0.3190
  686MOL0     C92498   7.901   3.564   9.194 -1.9403  0.2253  0.0382
  686MOL0     O92499   7.957   3.689   9.217 -0.1824 -1.0741 -0.0425
  686MOL0     C92500   8.084   3.704   9.264  0.6506 -0.3983  0.2364
  686MOL0     C92501   8.098   3.824   9.339 -0.1448 -1.0269 -0.3570
  686MOL0     C92502   8.220   3.868   9.372 -1.6789  0.5783 -0.1549
  686MOL0     C92503   8.336   3.778   9.358  0.2883 -0.0096 -0.9293
  686MOL0     C92504   8.471   3.819   9.402  0.2974  0.3881 -0.5838
  686MOL0     O92505   8.483   3.954   9.432 -0.7417 -0.3566 -0.2904
  686MOL0     C92506   8.601   4.018   9.467  0.2349 -0.9682 -0.7663
  686MOL0     C92507   8.589   4.157   9.479  0.0875 -0.7222 -0.5921
  686MOL0     C92508   8.699   4.238   9.508 -0.2896 -0.4196 -0.2193
  686MOL0     C92509   8.831   4.191   9.502 -1.1981 -1.1546 -0.8264
  686MOL0     O92510   8.936   4.280   9.506  0.5290 -0.3140 -0.1152
  686MOL0     C92511   9.073   4.242   9.509  0.0744  0.1567 -0.3302
  686MOL0     C92512   9.180   4.356   9.521 -0.1342 -0.1942 -0.8554
  686MOL0     C92513   9.325   4.289   9.533 -0.9208 -0.3261 -0.1072
  686MOL0     C92514   9.426   4.406   9.520 -0.6025  0.6173 -0.4174
  686MOL0     C92515   9.554   4.353   9.581 -0.0776 -0.3019  0.6492
  686MOL0     C92516   9.669   4.448   9.549  0.3722  1.1797  0.3172
  686MOL0     C92517   9.676   4.563   9.655 -0.3406 -0.2959  0.1110
  686MOL0     C92518   9.756   4.683   9.604 -0.1838 -0.4922  1.2810
  686MOL0    Cl92519   9.678   4.739   9.461 -0.2982 -0.3708  0.1590
  686MOL0     C92520   8.846   4.055   9.505  0.5099 -0.1714 -0.4356
  686MOL0     C92521   8.732   3.966   9.487 -0.2232 -0.0933  0.1522
  686MOL0     O92522   8.561   3.734   9.416 -0.3015 -1.3458  0.0082
  686MOL0     C92523   8.312   3.650   9.306 -0.0470 -0.2313  0.0216
  686MOL0     C92524   8.184   3.615   9.259  0.8172 -0.0646  0.2083
  686MOL0     N92525   7.706   3.687   9.637 -0.2971 -0.5245  0.4345
  686MOL0     N92526   7.637   3.694   9.748  0.0633  0.2396  0.6199
  686MOL0     C92527   6.485   3.550  10.042  0.3856  0.2927  0.7871
  686MOL0     C92528   6.346   3.566  10.038 -0.7649  0.0186 -0.1115
  686MOL0     C92529   5.916   3.438  10.039 -1.9217 -1.1586 -0.0194
  686MOL0     C92530   5.875   3.381   9.924 -0.3001 -0.2600  0.2336
  686MOL0     C92531   5.746   3.359   9.893 -1.3867  0.0149  0.4792
  686MOL0     C92532   5.647   3.411   9.975  0.4196 -1.3695 -0.4581
  686MOL0     O92533   5.513   3.419   9.932 -0.1584 -0.1318  0.4758
  686MOL0     C92534   5.416   3.397  10.028 -0.6020 -0.2450  0.1416
  686MOL0     C92535   5.281   3.431   9.965 -0.0055  0.5421 -0.1173
  686MOL0     C92536   5.164   3.452  10.070  0.8991  0.5795  0.3166
  686MOL0     C92537   5.021   3.448  10.016  0.2234 -1.7773 -1.0989
  686MOL0     C92538   4.974   3.311   9.995  0.2169 -0.8839  0.2978
  686MOL0     C92539   4.942   3.203   9.983 -0.0356  0.7633  0.1169
  686MOL0     C92540   5.688   3.490  10.091  0.2552  0.1851  0.3109
  686MOL0     C92541   5.825   3.500  10.125 -0.1590 -0.1394  0.2346
  686MOL0     C92542   5.871   3.581  10.242  0.3730  0.2548 -0.6215
  686MOL0     H92543   6.259   3.386   9.774 -2.0257  3.0534  0.6452
  686MOL0     H92544   6.509   3.341   9.769  1.7963  0.9263  0.3568
  686MOL0     H92545   6.778   3.579  10.050  0.4737 -0.1529 -0.9054
  686MOL0     H92546   6.728   3.438  10.137  1.0349  2.7459  2.1128
  686MOL0     H92547   6.957   3.459   9.918  1.4393  0.6356  1.2632
  686MOL0     H92548   6.889   3.309   9.984  0.3643  1.1016 -1.8454
  686MOL0     H92549   6.942   3.387  10.217 -1.1019  2.0831  0.2533
  686MOL0     H92550   7.011   3.530  10.147 -4.3981  0.6633 -1.6368
  686MOL0     H92551   7.188   3.365  10.231 -3.1219 -1.4962  2.2022
  686MOL0     H92552   7.139   3.252  10.118  0.3617  0.3428  0.6034
  686MOL0     H92553   7.196   3.364   9.920  0.7409  0.8256 -2.0580
  686MOL0     H92554   7.215   3.525  10.000  2.9377 -0.4210 -1.0308
  686MOL0     H92555   7.392   3.437  10.139  1.0274  1.7922 -1.0360
  686MOL0     H92556   7.384   3.290  10.069  3.3857  0.8576 -0.0636
  686MOL0     H92557   7.444   3.358   9.854  2.8452 -3.3970  1.3082
  686MOL0     H92558   7.566   3.425   9.960 -0.5697 -0.7537 -1.7378
  686MOL0     H92559   7.360   3.611   9.854  0.8392  0.1029  0.2143
  686MOL0     H92560   7.495   3.632   9.962  1.4416 -0.2067 -0.4936
  686MOL0     H92561   7.525   3.413   9.628 -0.5626 -0.2112  2.1602
  686MOL0     H92562   7.836   3.510   9.476  1.9351 -0.1039 -1.0360
  686MOL0     H92563   7.691   3.408   9.442 -1.2518  1.0402 -0.1814
  686MOL0     H92564   7.576   3.610   9.349 -0.3812 -1.6355  2.4643
  686MOL0     H92565   7.724   3.699   9.363  2.8240 -1.7502  0.7724
  686MOL0     H92566   7.711   3.613   9.123  1.4114  1.5546  0.4662
  686MOL0     H92567   7.730   3.451   9.196  3.6769 -0.8682 -2.8733
  686MOL0     H92568   7.938   3.528   9.097 -2.6557  2.1163 -1.0061
  686MOL0     H92569   7.940   3.499   9.272 -2.1176  1.8652  1.5471
  686MOL0     H92570   8.012   3.888   9.359 -0.1510 -1.7751  2.4319
  686MOL0     H92571   8.244   3.956   9.430 -1.1130  0.0777  0.3929
  686MOL0     H92572   8.488   4.196   9.478  0.2426 -0.1776  1.3679
  686MOL0     H92573   8.691   4.346   9.500 -1.0192 -0.4748 -0.2580
  686MOL0     H92574   9.089   4.180   9.597  4.2085 -2.1109 -2.3528
  686MOL0     H92575   9.089   4.180   9.420  0.9444  3.0855 -2.3892
  686MOL0     H92576   9.167   4.418   9.431 -1.8540  1.0502  0.1825
  686MOL0     H92577   9.160   4.416   9.610 -0.2321 -0.7254 -0.5143
  686MOL0     H92578   9.332   4.248   9.635 -1.7164 -0.8208 -0.2379
  686MOL0     H92579   9.345   4.215   9.456 -0.4803  0.3735 -0.6712
  686MOL0     H92580   9.399   4.489   9.587 -0.8093  0.4236 -0.2579
  686MOL0     H92581   9.432   4.437   9.416 -0.6086  0.5781 -0.4295
  686MOL0     H92582   9.584   4.255   9.544  0.3215  0.1511 -0.2630
  686MOL0     H92583   9.548   4.348   9.690  0.5365  0.1860  0.7113
  686MOL0     H92584   9.761   4.389   9.557  0.5054  1.0941 -1.5224
  686MOL0     H92585   9.660   4.481   9.445 -1.2705 -0.8259 -0.2481
  686MOL0     H92586   9.718   4.524   9.748 -0.0798 -0.4957 -0.0857
  686MOL0     H92587   9.576   4.603   9.670 -0.9443 -0.0488 -3.4855
  686MOL0     H92588   9.762   4.759   9.683 -1.7054 -0.4299  1.3591
  686MOL0     H92589   9.858   4.654   9.577 -1.2417 -0.5729 -3.6161
  686MOL0     H92590   8.950   4.022   9.500 -0.0862 -2.0745 -1.0318
  686MOL0     H92591   8.748   3.862   9.463 -0.8066 -0.1854  0.1377
  686MOL0     H92592   8.395   3.582   9.290  2.4107  1.7664  3.0570
  686MOL0     H92593   8.167   3.534   9.188 -1.0468  1.6612 -1.4725
  686MOL0     H92594   6.546   3.593  10.120  1.4915 -2.4110  1.5501
  686MOL0     H92595   6.296   3.635  10.105  0.2494  2.9016 -2.1364
  686MOL0     H92596   5.949   3.339   9.857 -1.4699 -1.6560 -0.2356
  686MOL0     H92597   5.717   3.309   9.801 -0.8054 -1.9473  1.3028
  686MOL0     H92598   5.433   3.453  10.120  2.5642 -0.4943 -0.1986
  686MOL0     H92599   5.414   3.290  10.049 -2.2130 -0.8574 -2.5725
  686MOL0     H92600   5.250   3.344   9.905  0.6269  1.1354 -1.3265
  686MOL0     H92601   5.290   3.518   9.900 -2.3322 -0.8232 -2.4704
  686MOL0     H92602   5.188   3.549  10.114  1.3288 -0.1277  1.6849
  686MOL0     H92603   5.179   3.385  10.154  2.9771  2.1490  1.2814
  686MOL0     H92604   4.952   3.499  10.084  1.8446  0.7865 -1.2147
  686MOL0     H92605   5.009   3.496   9.918  2.5344 -1.3897 -1.2428
  686MOL0     H92606   4.907   3.104   9.960  0.4494 -0.3414  3.5114
  686MOL0     H92607   5.619   3.543  10.156 -1.3432 -0.4364 -0.8447
  686MOL0     H92608   5.932   3.663  10.204  3.2175 -0.4086  2.0457
  686MOL0     H92609   5.797   3.624  10.310  0.3812 -1.1100  0.2839
  686MOL0     H92610   5.919   3.507  10.307 -1.0198  1.2975  1.7358
  687MOL0     O92611   0.392   4.680   4.105 -0.2903 -0.5530 -0.6083
  687MOL0     C92612   0.349   4.685   3.990 -0.2286 -0.0707  0.4664
  687MOL0     O92613   0.409   4.724   3.878  0.6129 -0.5649 -0.0239
  687MOL0     C92614   0.540   4.778   3.891 -0.3460  0.0804  0.4909
  687MOL0     C92615   0.568   4.913   3.899 -0.7477 -0.8249  0.1758
  687MOL0     C92616   0.704   4.956   3.911  0.3009  0.2956 -0.1644
  687MOL0     C92617   0.805   4.859   3.921  0.5111 -0.7936  0.4444
  687MOL0     O92618   0.928   4.915   3.932 -0.2302 -0.3375  0.6166
  687MOL0     C92619   1.040   4.817   3.948 -0.3525  0.1415 -1.3014
  687MOL0     C92620   1.169   4.881   4.010 -0.2088 -0.1592  0.2800
  687MOL0     C92621   1.225   5.004   3.923 -0.7152  0.3367 -0.2213
  687MOL0     C92622   1.360   5.055   3.974 -0.2120  0.0960 -0.0458
  687MOL0     C92623   1.428   5.150   3.871 -0.8772 -0.5719 -0.2911
  687MOL0     C92624   1.354   5.278   3.858  0.3309  0.0298 -0.0419
  687MOL0     C92625   1.417   5.358   3.740  0.3223  0.0568  0.1387
  687MOL0     C92626   1.527   5.447   3.802  0.3634  0.3291 -0.4407
  687MOL0     N92627   1.573   5.539   3.704 -0.0586 -0.0625 -0.2925
  687MOL0     C92628   1.692   5.505   3.638  0.0268  0.3546  0.3961
  687MOL0     C92629   1.740   5.613   3.586  0.7866  0.7828 -0.5235
  687MOL0     C92630   1.855   5.619   3.487  0.1432  0.4773 -0.8373
  687MOL0     C92631   1.895   5.764   3.455 -0.8322  0.2568  0.5076
  687MOL0     C92632   2.012   5.753   3.361 -0.2319 -0.3563 -0.0913
  687MOL0     C92633   2.032   5.888   3.291  0.0946 -0.7995 -0.2606
  687MOL0     O92634   2.153   5.901   3.210  0.5982  0.7640 -0.1619
  687MOL0     C92635   2.275   5.907   3.277  0.3235  0.2537  0.6967
  687MOL0     C92636   2.293   5.905   3.411  0.3539 -0.8902 -0.2955
  687MOL0     C92637   2.422   5.912   3.466  0.5034  1.1350 -0.1535
  687MOL0     C92638   2.542   5.927   3.387  0.0949  0.2516  1.2754
  687MOL0     C92639   2.677   5.939   3.432 -0.7369  0.1513 -0.8535
  687MOL0     O92640   2.776   5.967   3.344  0.0341  0.0329  0.0886
  687MOL0     C92641   2.907   5.985   3.376 -0.5811  0.6405 -0.0985
  687MOL0     C92642   2.989   5.979   3.259  0.4860 -0.1439  0.0439
  687MOL0     C92643   3.123   6.023   3.262  0.5605  0.1328 -0.3405
  687MOL0     C92644   3.173   6.066   3.379  0.1681  0.2682 -0.1204
  687MOL0     O92645   3.302   6.111   3.374 -0.2272  0.2778 -0.7226
  687MOL0     C92646   3.335   6.230   3.447  0.4415 -0.5130 -0.1736
  687MOL0     C92647   3.477   6.268   3.435 -0.0925 -0.7809  0.2000
  687MOL0     C92648   3.517   6.328   3.291  0.4894  0.8629 -0.7600
  687MOL0     C92649   3.672   6.335   3.293  0.6161 -0.8893  0.6860
  687MOL0     C92650   3.714   6.302   3.144  0.1179  0.3504  0.0242
  687MOL0     C92651   3.868   6.275   3.150  0.7251  0.8048 -0.5722
  687MOL0     C92652   3.917   6.219   3.022 -0.1175 -0.5461  0.5226
  687MOL0     C92653   4.074   6.228   3.027  0.4817  0.3351  0.2172
  687MOL0    Cl92654   4.162   6.117   3.142  0.0390  0.1353 -0.0686
  687MOL0     C92655   3.098   6.085   3.489  0.2711  0.5260 -0.2126
  687MOL0     C92656   2.963   6.041   3.491 -0.0711  0.7010  0.0297
  687MOL0     O92657   2.699   5.906   3.553  0.1335  0.6492  0.0775
  687MOL0     C92658   2.514   5.923   3.248  0.6759  0.4552  0.8337
  687MOL0     C92659   2.385   5.912   3.202 -1.0019  1.3226  1.3523
  687MOL0     N92660   1.660   5.726   3.624 -0.0835  0.2880 -0.4013
  687MOL0     N92661   1.565   5.682   3.701  0.6254  0.2060 -0.2924
  687MOL0     C92662   0.777   4.723   3.922 -0.0936  0.0707 -0.0782
  687MOL0     C92663   0.641   4.680   3.901  1.1852 -0.6499  0.4281
  687MOL0     C92664   0.220   4.620   3.978  0.1735  0.7225  0.0830
  687MOL0     C92665   0.131   4.672   3.894  0.4834 -0.0157  1.1986
  687MOL0     C92666   0.015   4.619   3.858 -0.3493 -0.2024  0.4791
  687MOL0     C92667  -0.028   4.493   3.919 -0.0156 -0.1707  0.5929
  687MOL0     O92668  -0.144   4.424   3.882 -0.4924 -0.0492 -0.5593
  687MOL0     C92669  -0.199   4.435   3.751  0.0562 -0.9187  0.6542
  687MOL0     C92670  -0.316   4.334   3.716  0.0804  0.2051  0.5413
  687MOL0     C92671  -0.437   4.345   3.814 -0.1593 -0.1587  0.1496
  687MOL0     C92672  -0.539   4.232   3.781 -0.4995  0.7826  0.1029
  687MOL0     C92673  -0.664   4.299   3.761 -0.0600  0.6911  0.2652
  687MOL0     C92674  -0.770   4.349   3.734 -0.0245  0.7941  1.3289
  687MOL0     C92675   0.059   4.438   4.013 -0.0428  0.1815  0.7980
  687MOL0     C92676   0.180   4.497   4.046  0.4125 -0.3307 -1.0438
  687MOL0     C92677   0.272   4.425   4.150  0.2474  0.3664 -0.3967
  687MOL0     H92678   0.493   4.991   3.895 -0.7152 -0.8632 -2.0573
  687MOL0     H92679   0.730   5.060   3.895 -2.0889  0.6642 -2.2775
  687MOL0     H92680   1.008   4.734   4.011 -1.8930  1.5274 -0.1647
  687MOL0     H92681   1.060   4.784   3.846 -0.5281 -1.2765 -0.8956
  687MOL0     H92682   1.242   4.802   4.026  0.2778  0.6198  2.1444
  687MOL0     H92683   1.145   4.926   4.107  0.9770  1.0303  0.0499
  687MOL0     H92684   1.150   5.081   3.941 -2.3635 -1.4549  0.8964
  687MOL0     H92685   1.222   4.982   3.816  0.1181  0.5617 -0.3042
  687MOL0     H92686   1.350   5.107   4.070  2.5844 -0.1663  0.4915
  687MOL0     H92687   1.431   4.972   3.980  3.5044  2.9837 -0.4283
  687MOL0     H92688   1.527   5.177   3.911  0.3957 -2.6133 -1.8501
  687MOL0     H92689   1.442   5.097   3.777  2.0076  0.2973 -0.4678
  687MOL0     H92690   1.248   5.264   3.835  0.3315 -0.2010  0.0988
  687MOL0     H92691   1.359   5.328   3.955 -3.0887 -2.2358  1.5205
  687MOL0     H92692   1.340   5.424   3.700  2.1819  1.2002 -1.7354
  687MOL0     H92693   1.455   5.296   3.658  0.5240 -0.9268  0.9572
  687MOL0     H92694   1.474   5.514   3.870  1.9908  1.0203  0.1797
  687MOL0     H92695   1.608   5.395   3.853 -1.8716 -2.1781  0.8338
  687MOL0     H92696   1.746   5.411   3.631  2.1615  1.5550 -0.1383
  687MOL0     H92697   1.949   5.573   3.518  0.3626  0.2358 -1.8232
  687MOL0     H92698   1.821   5.578   3.391 -0.9411  1.8986 -1.1050
  687MOL0     H92699   1.809   5.807   3.404 -0.8322  3.4560  2.9504
  687MOL0     H92700   1.934   5.824   3.537  0.1650 -0.4614  0.5888
  687MOL0     H92701   1.989   5.686   3.277  1.7967  0.7230 -1.5920
  687MOL0     H92702   2.102   5.715   3.409  0.8416  0.1182 -1.6321
  687MOL0     H92703   2.036   5.971   3.361 -0.4243 -0.1162 -1.0171
  687MOL0     H92704   1.939   5.913   3.239 -0.0714 -2.2021 -0.6863
  687MOL0     H92705   2.217   5.901   3.489  1.8075  2.2909  1.4978
  687MOL0     H92706   2.432   5.910   3.574 -0.1808  1.6550 -0.0781
  687MOL0     H92707   2.952   5.951   3.161  0.4458  2.8940 -0.9028
  687MOL0     H92708   3.189   6.017   3.177 -1.6418 -1.6206 -2.0411
  687MOL0     H92709   3.282   6.324   3.428  0.2433 -0.1882  1.7283
  687MOL0     H92710   3.321   6.203   3.552 -0.3307 -4.6006 -1.1583
  687MOL0     H92711   3.505   6.338   3.515  0.2910 -0.7514  0.0402
  687MOL0     H92712   3.519   6.169   3.451 -0.3412 -1.5046 -3.0675
  687MOL0     H92713   3.473   6.261   3.216 -0.4185  0.5820 -0.0030
  687MOL0     H92714   3.477   6.428   3.275 -1.4715  0.0933 -1.0321
  687MOL0     H92715   3.714   6.253   3.352 -1.7340 -2.8578 -0.2419
  687MOL0     H92716   3.703   6.431   3.336 -3.2759  0.3789  1.0357
  687MOL0     H92717   3.675   6.370   3.068 -2.3015  0.9060  1.6197
  687MOL0     H92718   3.669   6.204   3.124 -0.8876  0.4576  1.5805
  687MOL0     H92719   3.931   6.360   3.180  3.9221 -1.5885  0.0757
  687MOL0     H92720   3.886   6.198   3.224 -1.1639  1.0381  0.1643
  687MOL0     H92721   3.874   6.284   2.946 -3.2991 -0.8548  1.8675
  687MOL0     H92722   3.893   6.114   3.001  0.2779 -0.2608 -1.5308
  687MOL0     H92723   4.103   6.199   2.926  0.8941 -2.6599  1.1063
  687MOL0     H92724   4.077   6.336   3.043 -2.2446  0.5200 -0.0538
  687MOL0     H92725   3.137   6.145   3.571 -0.7720  0.7107  0.1620
  687MOL0     H92726   2.903   6.048   3.581 -2.8226  1.2321 -1.7169
  687MOL0     H92727   2.589   5.912   3.171 -0.2420 -2.9356  0.2616
  687MOL0     H92728   2.383   5.896   3.095 -0.2610  1.0073  1.3760
  687MOL0     H92729   0.839   4.637   3.944 -0.0801  0.2420  0.5751
  687MOL0     H92730   0.623   4.573   3.894 -0.9476 -0.3161  0.1500
  687MOL0     H92731   0.152   4.766   3.844 -1.6841  0.4396  1.0409
  687MOL0     H92732  -0.050   4.655   3.780 -1.1506 -2.6605 -0.0800
  687MOL0     H92733  -0.111   4.429   3.687  0.2852  1.0955  0.7107
  687MOL0     H92734  -0.236   4.538   3.750 -1.3151 -1.3698 -1.2674
  687MOL0     H92735  -0.284   4.231   3.734  0.1417  0.2754  0.8508
  687MOL0     H92736  -0.346   4.344   3.612  0.8497 -2.8004 -0.0649
  687MOL0     H92737  -0.486   4.442   3.802 -1.8260 -1.1362 -1.4516
  687MOL0     H92738  -0.395   4.338   3.915  5.0325  0.1791 -1.6753
  687MOL0     H92739  -0.503   4.171   3.697  2.8200  0.8211  1.3229
  687MOL0     H92740  -0.547   4.162   3.864  0.3701 -0.2293 -0.6243
  687MOL0     H92741  -0.869   4.386   3.714 -0.6377 -1.0673  0.6791
  687MOL0     H92742   0.046   4.337   4.051  2.0874 -0.4329  0.0415
  687MOL0     H92743   0.231   4.329   4.182  0.6972 -0.1732 -1.3866
  687MOL0     H92744   0.369   4.406   4.103 -0.3566 -2.6225 -0.6249
  687MOL0     H92745   0.285   4.491   4.236  0.2548 -0.5123  0.2878
  688MOL0     O92746   3.286  10.500   5.878 -0.9668 -0.3878 -0.6917
  688MOL0     C92747   3.249  10.420   5.791 -0.4266  0.7347 -0.6913
  688MOL0     O92748   3.167  10.453   5.693 -0.0894  0.3866  0.0222
  688MOL0     C92749   3.163  10.583   5.646  1.2943 -0.0563 -1.0008
  688MOL0     C92750   3.256  10.626   5.553  0.3374 -0.1332  0.4261
  688MOL0     C92751   3.249  10.760   5.511 -0.8412  0.1248 -0.8200
  688MOL0     C92752   3.155  10.852   5.568 -0.0547  0.1374 -0.1211
  688MOL0     O92753   3.176  10.983   5.519 -0.7310 -0.4185  0.4163
  688MOL0     C92754   3.156  11.080   5.619  0.1785 -1.4768 -0.3108
  688MOL0     C92755   3.227  11.061   5.760  0.3878 -0.7645  0.2901
  688MOL0     C92756   3.368  11.030   5.731 -0.4102  0.0114 -0.3910
  688MOL0     C92757   3.449  11.064   5.860  0.0232  0.2348 -0.1771
  688MOL0     C92758   3.565  10.970   5.888  0.6441  0.2955 -0.3035
  688MOL0     C92759   3.679  10.982   5.784 -0.3156  0.2059 -0.7083
  688MOL0     C92760   3.814  10.913   5.825  0.5067  0.6384  0.1776
  688MOL0     C92761   3.797  10.779   5.871 -0.6016  1.0609 -0.1235
  688MOL0     N92762   3.933  10.712   5.888  0.4669  0.7936 -0.3881
  688MOL0     C92763   4.019  10.761   5.986 -0.1570 -0.3865 -0.7535
  688MOL0     C92764   4.136  10.705   5.964 -0.1428  0.8306  0.2572
  688MOL0     C92765   4.263  10.724   6.046  0.3313 -0.0264  0.0976
  688MOL0     C92766   4.360  10.604   6.052  0.5596  0.0133  0.3910
  688MOL0     C92767   4.423  10.580   6.193 -0.9602  0.8715  0.9289
  688MOL0     C92768   4.514  10.703   6.214 -0.4212  0.1422  0.5855
  688MOL0     O92769   4.618  10.701   6.322 -0.2036 -0.1365  0.2867
  688MOL0     C92770   4.676  10.587   6.376  0.1051  0.2386 -0.2304
  688MOL0     C92771   4.712  10.576   6.512 -0.9092 -0.6198  0.0565
  688MOL0     C92772   4.773  10.459   6.561  0.0768 -0.3693  0.2117
  688MOL0     C92773   4.803  10.356   6.476 -0.6468 -0.7187  0.2474
  688MOL0     C92774   4.896  10.257   6.533 -0.1590  0.8404 -0.8163
  688MOL0     O92775   4.959  10.281   6.649  0.2956  0.0043  0.3905
  688MOL0     C92776   5.066  10.210   6.693 -0.2809 -0.9010 -0.3159
  688MOL0     C92777   5.059  10.183   6.837 -0.2111  0.6646 -0.4608
  688MOL0     C92778   5.164  10.112   6.901  0.4246  0.4940 -0.3170
  688MOL0     C92779   5.279  10.069   6.833  0.5704 -0.5140  0.3272
  688MOL0     O92780   5.361   9.987   6.898  0.1973  0.8618 -0.1794
  688MOL0     C92781   5.495   9.976   6.848 -0.3069 -0.0064  0.5717
  688MOL0     C92782   5.563   9.861   6.929 -0.5357  0.4516  0.4718
  688MOL0     C92783   5.498   9.723   6.906  0.1790 -0.8059 -0.5235
  688MOL0     C92784   5.512   9.660   6.761 -0.1414 -0.0101 -0.7675
  688MOL0     C92785   5.641   9.592   6.729 -0.3021  0.5930 -0.5478
  688MOL0     C92786   5.647   9.548   6.587 -0.2664  0.7244 -0.8834
  688MOL0     C92787   5.735   9.417   6.563 -0.3575 -0.0196 -0.0665
  688MOL0     C92788   5.832   9.432   6.446  0.8092  0.6155  0.1692
  688MOL0    Cl92789   5.921   9.585   6.454 -0.0638 -0.1500 -0.5404
  688MOL0     C92790   5.283  10.101   6.694 -0.4967 -0.1237 -0.7789
  688MOL0     C92791   5.188  10.173   6.630 -0.0068  0.3828  0.6141
  688MOL0     O92792   4.907  10.152   6.463 -0.7308 -0.1892  0.1428
  688MOL0     C92793   4.775  10.364   6.334  0.0375 -0.8039  0.0935
  688MOL0     C92794   4.719  10.482   6.289 -0.4089 -0.6543  0.7906
  688MOL0     N92795   4.124  10.636   5.849  0.2202  0.2704  0.4281
  688MOL0     N92796   4.009  10.638   5.803 -0.1661 -0.3417  0.2030
  688MOL0     C92797   3.060  10.802   5.667  0.0964 -0.4110  0.5097
  688MOL0     C92798   3.058  10.665   5.700  0.8566 -0.1274 -0.0195
  688MOL0     C92799   3.301  10.280   5.788  0.0006 -0.1633 -0.8030
  688MOL0     C92800   3.303  10.208   5.670 -0.3948 -0.1738 -1.6173
  688MOL0     C92801   3.363  10.080   5.677 -0.3440  0.8662 -0.4665
  688MOL0     C92802   3.424  10.026   5.788  0.5973  0.2945 -0.7157
  688MOL0     O92803   3.470   9.890   5.797 -0.4076 -0.0703 -0.4797
  688MOL0     C92804   3.511   9.813   5.687 -0.3538 -0.2146  0.9265
  688MOL0     C92805   3.655   9.754   5.706 -0.1059 -0.4118 -0.3972
  688MOL0     C92806   3.759   9.863   5.695 -0.2512 -0.4683  0.4524
  688MOL0     C92807   3.906   9.812   5.688  0.5277  0.0091  0.2788
  688MOL0     C92808   3.942   9.750   5.816  1.0222  0.6093  0.3845
  688MOL0     C92809   3.968   9.711   5.932 -1.4184 -0.3975  0.8939
  688MOL0     C92810   3.410  10.097   5.904  1.1674 -0.0124 -0.8672
  688MOL0     C92811   3.350  10.218   5.912  0.0001 -0.1629  0.2463
  688MOL0     C92812   3.347  10.280   6.047  0.4509  0.2945 -0.2304
  688MOL0     H92813   3.318  10.549   5.510  1.1717  0.4436  0.5786
  688MOL0     H92814   3.331  10.801   5.452  0.6218  1.1544  1.7492
  688MOL0     H92815   3.191  11.171   5.570  2.9910 -1.9599  0.6389
  688MOL0     H92816   3.051  11.094   5.647  0.8416  2.8730  0.7263
  688MOL0     H92817   3.172  10.981   5.810  1.0331 -1.9601 -0.8613
  688MOL0     H92818   3.221  11.157   5.811 -2.2076  0.0289 -1.2707
  688MOL0     H92819   3.407  11.093   5.650  2.1314 -0.1577  0.6272
  688MOL0     H92820   3.380  10.923   5.712 -0.3681 -0.1389  0.4551
  688MOL0     H92821   3.490  11.163   5.839  0.4484 -0.0284 -0.6083
  688MOL0     H92822   3.385  11.060   5.948 -2.4006  0.0524 -1.8549
  688MOL0     H92823   3.602  10.999   5.986 -0.5336 -2.3399  1.0204
  688MOL0     H92824   3.539  10.864   5.897  0.0071  0.2832 -1.8529
  688MOL0     H92825   3.659  10.941   5.685  1.4051 -1.7682 -0.3191
  688MOL0     H92826   3.705  11.087   5.772  1.7591 -0.0305  1.0642
  688MOL0     H92827   3.840  10.962   5.919  0.2121 -0.3226  0.7670
  688MOL0     H92828   3.893  10.926   5.750 -0.7343 -1.4494 -1.6436
  688MOL0     H92829   3.741  10.761   5.963 -0.4222 -0.8327 -0.3257
  688MOL0     H92830   3.734  10.728   5.797  1.0464 -0.2466 -0.7284
  688MOL0     H92831   3.990  10.827   6.067 -0.2357 -1.8002  0.4064
  688MOL0     H92832   4.324  10.804   6.004 -1.3314  2.2738  1.8106
  688MOL0     H92833   4.237  10.756   6.147 -1.2276  0.7630 -0.5157
  688MOL0     H92834   4.302  10.514   6.028 -1.0835  1.2855 -0.5329
  688MOL0     H92835   4.445  10.605   5.982  2.0569 -3.3960  1.8936
  688MOL0     H92836   4.487  10.491   6.192  2.2020  2.9286 -1.1612
  688MOL0     H92837   4.350  10.562   6.272 -1.3426 -0.0964  0.3700
  688MOL0     H92838   4.460  10.797   6.233 -1.1081 -0.5982  2.6923
  688MOL0     H92839   4.578  10.730   6.130  0.0213  0.6133  1.0676
  688MOL0     H92840   4.703  10.664   6.575 -1.0634  1.0570 -2.1569
  688MOL0     H92841   4.799  10.449   6.666  1.1885 -1.5727 -0.1378
  688MOL0     H92842   4.973  10.216   6.893  0.1892  2.7904 -1.0212
  688MOL0     H92843   5.148  10.083   7.005 -2.3566 -0.0317 -0.8264
  688MOL0     H92844   5.504   9.941   6.745 -0.9213  0.6979  0.2673
  688MOL0     H92845   5.547  10.071   6.863  0.6123 -0.4146  0.0517
  688MOL0     H92846   5.670   9.866   6.907 -0.8515 -2.2130 -2.2545
  688MOL0     H92847   5.554   9.888   7.035  0.1925  0.2079  0.5993
  688MOL0     H92848   5.537   9.647   6.975 -2.5887 -1.1269  0.8503
  688MOL0     H92849   5.390   9.731   6.921  0.3960  4.8719 -0.0509
  688MOL0     H92850   5.489   9.729   6.679 -3.0081 -1.2834 -1.1703
  688MOL0     H92851   5.441   9.579   6.742  0.1558  0.0727 -2.3678
  688MOL0     H92852   5.652   9.500   6.789  0.7605 -0.9802 -2.9952
  688MOL0     H92853   5.723   9.660   6.751 -1.0748  0.9834  1.3252
  688MOL0     H92854   5.546   9.519   6.558  0.1561 -0.7882 -0.9401
  688MOL0     H92855   5.681   9.627   6.519 -0.1855 -0.3473 -2.1246
  688MOL0     H92856   5.684   9.321   6.547 -0.4684  0.3726 -2.3755
  688MOL0     H92857   5.785   9.404   6.660 -2.3972  0.9613  1.1670
  688MOL0     H92858   5.898   9.345   6.451  0.0327  0.0255  0.2573
  688MOL0     H92859   5.780   9.411   6.352 -1.9042 -0.2026  1.7394
  688MOL0     H92860   5.366  10.066   6.633 -0.0740  0.3322 -0.4604
  688MOL0     H92861   5.200  10.217   6.532  1.2734 -0.0553  0.5503
  688MOL0     H92862   4.801  10.283   6.266 -1.8767 -0.5375 -1.0158
  688MOL0     H92863   4.704  10.479   6.181  0.0948 -2.5786  0.7414
  688MOL0     H92864   2.972  10.856   5.700  0.3857  0.2394  0.2278
  688MOL0     H92865   3.000  10.628   5.783  1.3103  0.1393  0.4269
  688MOL0     H92866   3.260  10.256   5.583 -1.2138  2.6721  0.2372
  688MOL0     H92867   3.378  10.013   5.593 -0.2542 -1.2052  1.1456
  688MOL0     H92868   3.499   9.872   5.596  0.0530  0.8940  1.5841
  688MOL0     H92869   3.432   9.736   5.685  0.3650 -1.0990 -3.7004
  688MOL0     H92870   3.685   9.672   5.640  2.8339  0.1487  0.0777
  688MOL0     H92871   3.660   9.719   5.810  2.5676  2.2391  0.5218
  688MOL0     H92872   3.775   9.938   5.773  0.1260  0.5464 -0.5837
  688MOL0     H92873   3.740   9.913   5.600 -0.0907  0.5292  0.9387
  688MOL0     H92874   3.925   9.744   5.604 -2.7300 -0.8637  0.1055
  688MOL0     H92875   3.961   9.907   5.681 -1.7413  1.4986  1.5684
  688MOL0     H92876   4.000   9.655   6.018  2.5607  0.6001  0.2521
  688MOL0     H92877   3.432  10.052   6.001 -1.2055 -0.0966 -0.2951
  688MOL0     H92878   3.377  10.212   6.127 -2.0648  2.7994  3.1311
  688MOL0     H92879   3.408  10.370   6.046  1.0234 -0.0900 -0.6360
  688MOL0     H92880   3.247  10.303   6.084  0.0206 -0.7781 -0.6815
  689MOL0     O92881   8.863   7.010   6.499  0.3117 -0.3667 -0.3082
  689MOL0     C92882   8.883   6.936   6.402 -0.7022  0.3639 -0.7394
  689MOL0     O92883   8.988   6.847   6.395 -0.5156 -0.0927  0.7566
  689MOL0     C92884   9.115   6.869   6.447  0.2436 -0.2506 -0.2059
  689MOL0     C92885   9.219   6.914   6.366 -0.5746 -1.0507 -0.8012
  689MOL0     C92886   9.339   6.962   6.424  0.9217  0.3154  0.3829
  689MOL0     C92887   9.358   6.963   6.560 -0.4005 -1.1234  0.3234
  689MOL0     O92888   9.464   7.026   6.624  0.9552  0.6980 -0.1587
  689MOL0     C92889   9.584   7.049   6.547  0.1418 -0.1432  0.5498
  689MOL0     C92890   9.692   7.119   6.624  1.0171 -0.5118 -0.1258
  689MOL0     C92891   9.828   7.102   6.554  0.0605 -0.9511 -0.1455
  689MOL0     C92892   9.945   7.164   6.638 -0.3352 -0.2509  0.1675
  689MOL0     C92893  10.091   7.151   6.581  0.1831 -0.1889  1.0427
  689MOL0     C92894  10.194   7.167   6.690 -0.2920 -0.2290 -1.1397
  689MOL0     C92895  10.338   7.138   6.643 -0.1283  0.6390  0.2563
  689MOL0     C92896  10.433   7.199   6.744  0.8503 -0.4868  0.2705
  689MOL0     N92897  10.466   7.126   6.859 -0.8492  0.1041 -0.1494
  689MOL0     C92898  10.393   7.040   6.948 -0.1364 -0.1214 -0.5410
  689MOL0     C92899  10.479   6.994   7.039 -0.5271 -0.1683 -0.5138
  689MOL0     C92900  10.461   6.921   7.168  0.3823  0.0528  0.2486
  689MOL0     C92901  10.513   6.771   7.155 -0.3882 -0.4765  0.3467
  689MOL0     C92902  10.664   6.757   7.131  0.2176 -0.0137  0.0096
  689MOL0     C92903  10.742   6.812   7.246 -0.2803  0.0026 -0.6300
  689MOL0     O92904  10.875   6.794   7.207 -0.7414 -0.3486 -0.4889
  689MOL0     C92905  10.967   6.894   7.214  0.5731 -0.0980 -0.2961
  689MOL0     C92906  11.096   6.860   7.261  0.5110  0.0509 -0.1139
  689MOL0     C92907  11.199   6.961   7.266  0.6879  0.1917 -0.3063
  689MOL0     C92908  11.175   7.094   7.218  0.2714 -0.5470  0.3042
  689MOL0     C92909  11.298   7.180   7.206  0.8487 -0.3669 -0.1527
  689MOL0     O92910  11.269   7.302   7.139  0.2130  0.4813  0.1043
  689MOL0     C92911  11.356   7.405   7.139  0.3915 -0.2465 -0.0261
  689MOL0     C92912  11.492   7.392   7.105  0.4436  0.0961 -0.6876
  689MOL0     C92913  11.564   7.513   7.100 -0.2207 -0.9598 -0.4958
  689MOL0     C92914  11.505   7.639   7.133  0.6432  0.7050  0.5154
  689MOL0     O92915  11.574   7.757   7.132 -0.6581  0.7238 -0.6282
  689MOL0     C92916  11.704   7.764   7.070 -0.0882 -0.2575  0.5761
  689MOL0     C92917  11.779   7.881   7.130  0.2388  0.4465  0.1310
  689MOL0     C92918  11.915   7.898   7.049 -0.6153 -0.7271 -0.3089
  689MOL0     C92919  12.006   8.008   7.109 -0.7845 -0.4411 -0.3893
  689MOL0     C92920  12.144   8.022   7.039 -0.3850  1.0327  0.2863
  689MOL0     C92921  12.239   7.908   7.081  0.0368  0.0678 -0.1026
  689MOL0     C92922  12.363   7.905   7.000 -0.4651  0.4678 -0.3973
  689MOL0     C92923  12.431   8.036   6.985  0.0933  0.2062  0.4660
  689MOL0    Cl92924  12.597   8.015   6.917  0.1851 -0.0665  0.0317
  689MOL0     C92925  11.375   7.638   7.180  0.0263  0.1777  0.7245
  689MOL0     C92926  11.299   7.523   7.170  1.0448 -0.4321  0.0932
  689MOL0     O92927  11.410   7.145   7.249 -0.4928 -0.2259 -0.3748
  689MOL0     C92928  11.042   7.126   7.180  0.0069 -0.3141 -0.1838
  689MOL0     C92929  10.942   7.031   7.179 -0.6600  0.1793  0.6626
  689MOL0     N92930  10.604   7.052   7.013  0.1955  0.2683 -0.3951
  689MOL0     N92931  10.597   7.120   6.901  0.7612 -0.4139  0.3786
  689MOL0     C92932   9.264   6.902   6.642 -0.1130 -0.0409  0.3387
  689MOL0     C92933   9.146   6.853   6.583 -1.2480 -0.0966  0.0713
  689MOL0     C92934   8.790   6.922   6.280 -0.3968  0.3897  0.0029
  689MOL0     C92935   8.831   6.839   6.180 -0.2521 -1.0463  0.1270
  689MOL0     C92936   8.751   6.818   6.070  0.1394  0.4210 -0.3254
  689MOL0     C92937   8.623   6.876   6.057  0.3191 -1.1205 -0.3656
  689MOL0     O92938   8.550   6.839   5.942  0.0666  0.1677  0.1927
  689MOL0     C92939   8.421   6.899   5.951  0.2371 -0.6822  0.9986
  689MOL0     C92940   8.333   6.848   5.835  0.0108 -0.2032 -1.1286
  689MOL0     C92941   8.191   6.908   5.834  1.2575  0.0215 -0.2885
  689MOL0     C92942   8.193   7.057   5.798 -0.4898  0.9677  0.5055
  689MOL0     C92943   8.061   7.110   5.789  0.5134 -0.4869  0.4468
  689MOL0     C92944   7.943   7.150   5.768 -0.4064  0.7201  0.7101
  689MOL0     C92945   8.578   6.955   6.166 -0.8298  0.0646  0.2643
  689MOL0     C92946   8.658   6.974   6.276 -0.2347 -0.3978  0.5109
  689MOL0     C92947   8.604   7.057   6.384  0.7131 -0.1706 -0.1886
  689MOL0     H92948   9.195   6.909   6.260 -1.1108  0.9109 -0.8123
  689MOL0     H92949   9.419   7.001   6.362  0.2155  4.2512  1.6478
  689MOL0     H92950   9.616   6.966   6.483 -0.4260 -0.5904  0.8448
  689MOL0     H92951   9.561   7.122   6.468 -1.2787 -1.4364 -0.2737
  689MOL0     H92952   9.709   7.069   6.720 -1.6477 -1.0501  0.1505
  689MOL0     H92953   9.665   7.225   6.637  0.6894 -0.5076 -0.8108
  689MOL0     H92954   9.826   7.153   6.458  1.0377 -1.8678 -0.6774
  689MOL0     H92955   9.846   6.997   6.528 -1.2532 -1.4088  0.6526
  689MOL0     H92956   9.921   7.269   6.655  1.1569  0.1005  0.2250
  689MOL0     H92957   9.949   7.112   6.734  1.6109 -0.5977 -0.0502
  689MOL0     H92958  10.106   7.049   6.545 -0.5299 -0.6022  1.8793
  689MOL0     H92959  10.122   7.215   6.498  0.9248 -1.3571  0.4066
  689MOL0     H92960  10.200   7.274   6.708  2.9915 -0.5319  0.1025
  689MOL0     H92961  10.167   7.122   6.786  2.4762  2.8062  1.2901
  689MOL0     H92962  10.355   7.178   6.543 -0.2883 -1.1482 -0.5218
  689MOL0     H92963  10.353   7.031   6.630 -0.9943  0.6266 -0.7588
  689MOL0     H92964  10.520   7.205   6.677 -0.4008 -2.4318 -1.6804
  689MOL0     H92965  10.405   7.303   6.765  1.3430 -0.0113 -1.2518
  689MOL0     H92966  10.286   7.022   6.938  0.0798 -0.6673 -2.1709
  689MOL0     H92967  10.521   6.978   7.239 -0.3719  1.1655  0.0243
  689MOL0     H92968  10.354   6.921   7.193 -0.0415  1.2771 -1.4222
  689MOL0     H92969  10.490   6.717   7.248 -1.4424  0.9335  0.9501
  689MOL0     H92970  10.455   6.721   7.077 -0.7074  0.7894 -0.2540
  689MOL0     H92971  10.685   6.807   7.036 -0.1881  0.0799 -0.0301
  689MOL0     H92972  10.691   6.651   7.128  0.3375  0.0187 -0.0761
  689MOL0     H92973  10.705   6.761   7.335 -0.8533  2.9540  0.9068
  689MOL0     H92974  10.719   6.916   7.270 -1.9082 -0.4199 -0.2364
  689MOL0     H92975  11.118   6.760   7.299  0.6848  0.9062  2.1557
  689MOL0     H92976  11.297   6.936   7.306  0.2409  0.1963  0.8528
  689MOL0     H92977  11.527   7.292   7.083  1.0799 -0.3487  1.9307
  689MOL0     H92978  11.668   7.498   7.074 -0.4540 -1.0190 -1.4218
  689MOL0     H92979  11.756   7.668   7.080 -0.3748 -0.4753 -0.0058
  689MOL0     H92980  11.695   7.775   6.962  0.8453  1.7125  0.6480
  689MOL0     H92981  11.715   7.969   7.120 -0.7852 -0.3362 -0.3694
  689MOL0     H92982  11.795   7.850   7.233 -1.8431  1.6477  0.8741
  689MOL0     H92983  11.966   7.801   7.040  0.7400 -0.0159 -0.6874
  689MOL0     H92984  11.893   7.930   6.947  0.1645  1.4927  0.1601
  689MOL0     H92985  12.024   7.981   7.213  2.5407 -0.7741 -0.9598
  689MOL0     H92986  11.955   8.105   7.105 -0.4665 -0.3081 -2.6429
  689MOL0     H92987  12.192   8.116   7.068  1.9706 -0.7519  2.6190
  689MOL0     H92988  12.121   8.031   6.932 -2.1548  1.3155  0.6636
  689MOL0     H92989  12.264   7.923   7.186 -2.8870  0.9275  0.5824
  689MOL0     H92990  12.177   7.817   7.076 -1.9266  0.9948  3.6233
  689MOL0     H92991  12.341   7.866   6.900 -4.1464  1.9957 -0.3394
  689MOL0     H92992  12.434   7.844   7.057 -0.9172  0.7166  0.4484
  689MOL0     H92993  12.365   8.090   6.918 -1.6410 -1.0114  1.1319
  689MOL0     H92994  12.432   8.073   7.088 -2.0144 -4.4132  2.4315
  689MOL0     H92995  11.328   7.731   7.211  0.7068  1.0979 -0.9007
  689MOL0     H92996  11.194   7.526   7.198  1.5214  0.8458  1.9075
  689MOL0     H92997  11.022   7.231   7.162  3.0724  0.1355 -1.5860
  689MOL0     H92998  10.837   7.040   7.157 -1.5732 -3.6942  2.5893
  689MOL0     H92999   9.278   6.900   6.750 -0.6747 -1.0927  0.4055
  689MOL0     H93000   9.066   6.816   6.646 -1.8178 -0.0339 -0.6032
  689MOL0     H93001   8.928   6.793   6.194  1.5883  2.4532 -0.1146
  689MOL0     H93002   8.787   6.754   5.990  0.9397  0.6102 -0.1264
  689MOL0     H93003   8.434   7.007   5.945 -0.3432 -0.2968  4.6657
  689MOL0     H93004   8.369   6.881   6.045 -1.3797  0.0379  0.2827
  689MOL0     H93005   8.331   6.739   5.831 -0.2641 -0.1642 -3.0120
  689MOL0     H93006   8.392   6.876   5.748  0.3888 -0.2955 -0.9047
  689MOL0     H93007   8.139   6.896   5.929  1.3785  0.7597 -0.1209
  689MOL0     H93008   8.143   6.847   5.756  0.5011  0.8984 -0.5320
  689MOL0     H93009   8.260   7.109   5.866  0.9701 -0.0884 -0.0702
  689MOL0     H93010   8.244   7.075   5.702 -1.4200  1.7133  0.1290
  689MOL0     H93011   7.839   7.170   5.750 -1.8191 -3.7394  2.5157
  689MOL0     H93012   8.483   7.007   6.168 -0.3999  0.8667  0.4662
  689MOL0     H93013   8.503   7.091   6.359 -0.2356 -0.9080  2.3194
  689MOL0     H93014   8.589   7.006   6.480 -2.9506  0.2723 -0.3743
  689MOL0     H93015   8.665   7.148   6.393 -0.3317  0.4453  1.0981
  690MOL0     O93016   1.339   6.583   4.289 -0.4317 -0.2402  0.1341
  690MOL0     C93017   1.296   6.570   4.170  0.1090 -0.4906  0.2982
  690MOL0     O93018   1.366   6.582   4.056 -1.0827 -0.1074 -0.2611
  690MOL0     C93019   1.499   6.574   4.059 -1.5912 -0.2062  0.9060
  690MOL0     C93020   1.563   6.474   4.118  1.1114  0.3820 -0.4952
  690MOL0     C93021   1.709   6.468   4.120  0.8131 -0.5352 -0.1783
  690MOL0     C93022   1.786   6.559   4.053  0.3335  0.1630  0.9084
  690MOL0     O93023   1.920   6.556   4.077  0.5372  0.3248  0.0185
  690MOL0     C93024   2.013   6.598   3.977 -0.0412  0.0508 -0.2857
  690MOL0     C93025   2.154   6.580   4.048  0.3025  0.0653 -0.5403
  690MOL0     C93026   2.198   6.708   4.130 -1.3812 -0.2938 -0.3272
  690MOL0     C93027   2.104   6.739   4.254 -1.8582 -0.3354  0.4414
  690MOL0     C93028   2.167   6.841   4.348 -0.9632  0.2384 -0.3353
  690MOL0     C93029   2.183   6.984   4.293  0.0308 -0.4514 -0.5187
  690MOL0     C93030   2.053   7.067   4.261 -0.1500 -0.1509  0.0351
  690MOL0     C93031   2.078   7.189   4.167 -0.9724  0.1145 -0.2493
  690MOL0     N93032   2.180   7.286   4.231 -0.8281 -0.2600 -0.2325
  690MOL0     C93033   2.156   7.381   4.325  0.3352  0.0006 -0.5077
  690MOL0     C93034   2.275   7.443   4.356 -0.4136 -0.3499  0.0691
  690MOL0     C93035   2.307   7.550   4.449  1.3260 -0.3326 -1.3435
  690MOL0     C93036   2.203   7.661   4.462 -0.4602  0.3534  0.7773
  690MOL0     C93037   2.263   7.800   4.493 -1.2845 -0.2657 -0.0592
  690MOL0     C93038   2.274   7.829   4.640  1.1214 -0.0835 -0.2220
  690MOL0     O93039   2.330   7.734   4.728  0.1373  0.1069 -0.0170
  690MOL0     C93040   2.458   7.735   4.742 -0.6246  0.7714  0.3676
  690MOL0     C93041   2.558   7.810   4.677 -0.5610  0.5838  0.0528
  690MOL0     C93042   2.689   7.809   4.724 -0.0855  0.5957 -0.2177
  690MOL0     C93043   2.722   7.727   4.837  0.5666 -0.6480  0.4101
  690MOL0     C93044   2.864   7.704   4.877  1.6128  0.0331  0.1566
  690MOL0     O93045   2.944   7.798   4.836 -0.5239  0.2896 -0.0732
  690MOL0     C93046   3.067   7.800   4.898 -0.1990  0.5916  0.1945
  690MOL0     C93047   3.168   7.710   4.859 -0.6265 -0.4542 -0.1074
  690MOL0     C93048   3.294   7.726   4.911 -0.0309 -0.6162 -0.3604
  690MOL0     C93049   3.324   7.842   4.993 -0.4087 -0.1594  0.0009
  690MOL0     O93050   3.449   7.872   5.043  0.0511  0.2929  0.0481
  690MOL0     C93051   3.562   7.811   4.972 -0.3781 -0.1073  0.3677
  690MOL0     C93052   3.659   7.924   4.939 -0.1684 -0.7057 -0.7050
  690MOL0     C93053   3.800   7.918   5.004  0.4918 -0.5987  0.2694
  690MOL0     C93054   3.871   7.801   4.964 -0.1183  0.1959  0.4359
  690MOL0     C93055   4.020   7.833   4.971 -0.3969 -0.4086  0.1750
  690MOL0     C93056   4.078   7.865   4.825 -0.6922 -0.1764 -0.1983
  690MOL0     C93057   4.230   7.887   4.820  0.9362 -0.4296 -0.3153
  690MOL0     C93058   4.283   7.923   4.681  0.3984 -0.3529  0.3650
  690MOL0    Cl93059   4.253   7.797   4.548 -0.4367 -0.1353 -0.4112
  690MOL0     C93060   3.227   7.933   5.026  0.0211 -0.0249 -0.5763
  690MOL0     C93061   3.097   7.907   4.974 -1.0404 -0.5488 -0.3141
  690MOL0     O93062   2.894   7.602   4.946 -0.0080 -0.4375  1.0767
  690MOL0     C93063   2.626   7.650   4.896 -0.0113  0.0019 -0.8080
  690MOL0     C93064   2.497   7.654   4.852 -0.2965  0.3876  0.1083
  690MOL0     N93065   2.361   7.371   4.277 -0.0918 -0.1013 -0.3123
  690MOL0     N93066   2.315   7.273   4.219 -0.4039  0.4006  0.1861
  690MOL0     C93067   1.725   6.659   3.984  0.6932  0.6173  0.7523
  690MOL0     C93068   1.586   6.656   3.976  0.3648 -0.3962 -0.5766
  690MOL0     C93069   1.149   6.543   4.152 -0.4293 -0.0992 -0.2447
  690MOL0     C93070   1.058   6.584   4.245  0.0746 -0.3052  0.4723
  690MOL0     C93071   0.922   6.565   4.231  0.1334  0.4378  0.3982
  690MOL0     C93072   0.868   6.510   4.117 -1.0952 -0.5899 -0.6472
  690MOL0     O93073   0.737   6.505   4.106  0.4135  0.9656  0.3332
  690MOL0     C93074   0.673   6.388   4.042  0.2647 -0.4263 -0.7488
  690MOL0     C93075   0.521   6.380   4.054 -0.9975  0.5206  0.7352
  690MOL0     C93076   0.456   6.360   4.193 -0.7925  0.7737  0.9141
  690MOL0     C93077   0.464   6.474   4.294 -0.3764  0.9509 -0.6240
  690MOL0     C93078   0.428   6.600   4.238 -0.1582 -0.3731 -0.3831
  690MOL0     C93079   0.401   6.712   4.203 -0.2516  0.3305  0.0420
  690MOL0     C93080   0.960   6.456   4.024 -0.2852  0.4053 -0.0136
  690MOL0     C93081   1.093   6.460   4.044 -1.0175 -0.0151 -1.1097
  690MOL0     C93082   1.179   6.385   3.944  0.6291 -0.2305  0.5119
  690MOL0     H93083   1.504   6.399   4.170  0.9949  0.0190 -1.1491
  690MOL0     H93084   1.757   6.386   4.172  1.5163 -0.9082 -1.3770
  690MOL0     H93085   2.004   6.534   3.888  0.9411 -0.5675  0.0398
  690MOL0     H93086   1.989   6.699   3.944 -2.0551  0.3682  1.9071
  690MOL0     H93087   2.231   6.566   3.972  1.7379  2.0843  0.4704
  690MOL0     H93088   2.147   6.492   4.113 -0.8769 -1.4486 -2.5676
  690MOL0     H93089   2.201   6.791   4.059 -0.3986  0.1917  0.2631
  690MOL0     H93090   2.304   6.703   4.158 -1.2838  0.9673 -0.4307
  690MOL0     H93091   2.022   6.786   4.199  0.2237 -1.1494 -3.7622
  690MOL0     H93092   2.082   6.647   4.310  0.2290 -0.7888  0.6194
  690MOL0     H93093   2.108   6.847   4.440 -0.8200  2.6880 -0.3408
  690MOL0     H93094   2.266   6.804   4.376 -0.6798  1.5925  0.5364
  690MOL0     H93095   2.227   7.042   4.375 -0.0537 -2.2691  0.8663
  690MOL0     H93096   2.255   6.979   4.211 -2.1107 -1.8966 -2.4462
  690MOL0     H93097   1.993   7.102   4.345  0.7311 -0.4689  0.8097
  690MOL0     H93098   1.979   7.002   4.214 -0.6030 -0.5516  1.2762
  690MOL0     H93099   2.129   7.146   4.080  2.6635 -0.3879  1.9116
  690MOL0     H93100   1.988   7.250   4.158 -0.5957  1.5868  3.6348
  690MOL0     H93101   2.059   7.415   4.358 -0.4880 -0.1136 -2.6574
  690MOL0     H93102   2.321   7.510   4.550  2.6107  3.6419  0.2172
  690MOL0     H93103   2.404   7.591   4.422  0.4604  3.0297  0.2223
  690MOL0     H93104   2.143   7.679   4.373  0.8055  0.9414  0.0131
  690MOL0     H93105   2.129   7.642   4.540  1.6992 -0.2671  2.7893
  690MOL0     H93106   2.192   7.870   4.449 -1.5744  0.6095  1.7301
  690MOL0     H93107   2.359   7.822   4.445 -2.6898 -0.2560 -3.0710
  690MOL0     H93108   2.168   7.837   4.666  0.9817  2.1418 -1.3048
  690MOL0     H93109   2.315   7.929   4.657  1.4975 -0.1753 -0.5860
  690MOL0     H93110   2.538   7.873   4.591 -0.0135 -1.8712 -2.0106
  690MOL0     H93111   2.772   7.863   4.680  3.2007 -0.6846  3.7357
  690MOL0     H93112   3.154   7.628   4.791  4.0510 -1.6771  0.0599
  690MOL0     H93113   3.359   7.646   4.877 -1.3857 -1.3236 -1.4023
  690MOL0     H93114   3.596   7.746   5.053  0.8227 -1.1023 -0.8929
  690MOL0     H93115   3.530   7.761   4.880  2.9424  0.2506 -1.1143
  690MOL0     H93116   3.674   7.909   4.832 -2.7548 -1.0170 -1.0804
  690MOL0     H93117   3.612   8.022   4.947 -1.8019 -1.3099 -2.1290
  690MOL0     H93118   3.843   8.013   4.971 -0.4508 -0.4955 -0.7627
  690MOL0     H93119   3.781   7.913   5.111  0.4663  0.4908  0.3261
  690MOL0     H93120   3.852   7.767   4.861 -3.1853  0.6192  0.7884
  690MOL0     H93121   3.848   7.718   5.030  1.0402  1.4458  2.5103
  690MOL0     H93122   4.069   7.744   5.013  1.0625  0.7289  1.0022
  690MOL0     H93123   4.048   7.919   5.033 -0.5312 -0.4761  0.3299
  690MOL0     H93124   4.060   7.782   4.757  0.3582  3.7156 -5.9140
  690MOL0     H93125   4.012   7.942   4.785  0.9180  1.5906  0.3425
  690MOL0     H93126   4.284   7.796   4.849  0.8258 -0.0174  1.2698
  690MOL0     H93127   4.262   7.970   4.883  2.3583 -1.2549  0.1042
  690MOL0     H93128   4.232   8.018   4.660 -0.0966 -0.6699  0.0963
  690MOL0     H93129   4.389   7.948   4.684  0.0963  1.0276  0.5862
  690MOL0     H93130   3.255   8.022   5.082 -1.4619 -0.2204  0.5403
  690MOL0     H93131   3.019   7.981   4.989  0.8902  1.1446  2.2777
  690MOL0     H93132   2.637   7.589   4.985 -1.0216 -2.0875 -2.0297
  690MOL0     H93133   2.413   7.608   4.903 -0.7697  0.7777 -0.3062
  690MOL0     H93134   1.778   6.742   3.938  1.9534 -0.7218 -0.2821
  690MOL0     H93135   1.546   6.738   3.918  1.1780 -0.9874 -2.0551
  690MOL0     H93136   1.083   6.647   4.330 -0.2928  1.8424 -0.9359
  690MOL0     H93137   0.863   6.611   4.309  1.8486 -0.2950  2.2229
  690MOL0     H93138   0.701   6.295   4.093 -0.3866 -0.9923 -1.4040
  690MOL0     H93139   0.701   6.390   3.936 -1.5118  1.6550 -1.2473
  690MOL0     H93140   0.503   6.289   3.995  0.9581 -0.3417  1.3986
  690MOL0     H93141   0.478   6.469   4.007  0.0584  0.8089  0.2815
  690MOL0     H93142   0.503   6.275   4.244 -1.0529  0.9535  1.4676
  690MOL0     H93143   0.351   6.346   4.165 -0.2243 -1.9174 -0.2179
  690MOL0     H93144   0.392   6.461   4.376 -2.9525  0.5324 -2.8296
  690MOL0     H93145   0.564   6.473   4.340 -1.4506  1.1352  1.9249
  690MOL0     H93146   0.371   6.806   4.162 -0.9636 -0.6658 -1.8521
  690MOL0     H93147   0.919   6.404   3.939  0.6769  2.1402 -1.5998
  690MOL0     H93148   1.217   6.448   3.863  0.2720 -2.2797 -1.3560
  690MOL0     H93149   1.266   6.329   3.980  1.0303 -0.9176 -1.3981
  690MOL0     H93150   1.129   6.299   3.898 -0.1802  0.2312  0.5033
  691MOL0     O93151   4.633   3.340   5.057 -0.5981  0.3584 -0.1370
  691MOL0     C93152   4.539   3.294   5.121  1.2159 -0.4442  0.0825
  691MOL0     O93153   4.496   3.347   5.235  0.2772  0.6230  0.0817
  691MOL0     C93154   4.586   3.431   5.292  0.1581 -0.2660  0.5780
  691MOL0     C93155   4.704   3.378   5.336 -0.9026 -0.2528 -0.5462
  691MOL0     C93156   4.789   3.464   5.395 -0.1473  0.2068  0.3696
  691MOL0     C93157   4.763   3.597   5.426  0.2243 -0.2088  0.0933
  691MOL0     O93158   4.862   3.675   5.479  0.1547  0.5110 -0.0109
  691MOL0     C93159   4.836   3.798   5.548  0.4854  0.0009 -0.6398
  691MOL0     C93160   4.943   3.826   5.649  0.4190  0.1138 -0.7345
  691MOL0     C93161   5.056   3.924   5.603 -0.2081 -0.6540 -0.0464
  691MOL0     C93162   5.187   3.854   5.552 -0.1236  0.6676 -0.3552
  691MOL0     C93163   5.300   3.954   5.540 -0.6636 -0.5762 -0.3739
  691MOL0     C93164   5.443   3.900   5.510  0.5380  0.2015  0.0854
  691MOL0     C93165   5.521   3.875   5.639 -0.1234 -0.7478  0.0983
  691MOL0     C93166   5.646   3.795   5.626  0.2604  0.3512  0.7878
  691MOL0     N93167   5.685   3.753   5.756 -1.0632 -0.0724 -1.0625
  691MOL0     C93168   5.698   3.822   5.878  0.2141  0.3809 -0.0352
  691MOL0     C93169   5.731   3.725   5.967  1.4126 -0.4214 -1.0809
  691MOL0     C93170   5.764   3.745   6.112  0.9890 -0.0360  0.2925
  691MOL0     C93171   5.912   3.790   6.141  0.7534  1.2558  0.2898
  691MOL0     C93172   5.917   3.810   6.286 -0.4353 -0.0261 -0.6589
  691MOL0     C93173   6.053   3.854   6.334  0.8428  0.3979 -0.1432
  691MOL0     O93174   6.101   3.976   6.269  0.2390 -0.0125  0.1706
  691MOL0     C93175   6.227   4.016   6.290  0.3498 -0.2111 -0.1653
  691MOL0     C93176   6.291   4.007   6.419  0.8041 -0.3097  0.0983
  691MOL0     C93177   6.424   4.054   6.429 -0.7808  0.3945  0.2646
  691MOL0     C93178   6.486   4.123   6.319  0.6893 -0.4551  0.2652
  691MOL0     C93179   6.626   4.170   6.321 -0.3171  0.2631  0.7910
  691MOL0     O93180   6.658   4.254   6.213 -0.3924  0.3681 -0.0960
  691MOL0     C93181   6.789   4.297   6.183  0.3995  0.0660 -0.2061
  691MOL0     C93182   6.908   4.239   6.234 -0.0576  0.2266  0.4039
  691MOL0     C93183   7.031   4.287   6.185  0.9378  0.3673 -1.3695
  691MOL0     C93184   7.039   4.379   6.076  0.5390 -0.1801  0.6461
  691MOL0     O93185   7.161   4.429   6.025  0.5309  0.0576  0.1435
  691MOL0     C93186   7.293   4.378   6.069 -0.8397 -0.1610 -0.5113
  691MOL0     C93187   7.399   4.460   5.999 -0.1150 -0.5495  0.3250
  691MOL0     C93188   7.530   4.427   6.071  0.3971 -0.2353 -0.6381
  691MOL0     C93189   7.639   4.495   5.997 -0.9980 -0.6101 -0.4489
  691MOL0     C93190   7.775   4.473   6.060  0.6264 -0.8483 -0.2001
  691MOL0     C93191   7.885   4.557   5.995  1.1090 -0.2031  0.5371
  691MOL0     C93192   8.013   4.504   6.055  0.3271  0.3428 -0.5880
  691MOL0     C93193   8.140   4.587   6.036  1.2615  0.6353  1.0120
  691MOL0    Cl93194   8.099   4.752   6.104 -0.3090  0.2759  0.2177
  691MOL0     C93195   6.922   4.439   6.028  0.4574 -0.6559  0.4040
  691MOL0     C93196   6.799   4.388   6.070 -0.4446 -0.4891 -0.1256
  691MOL0     O93197   6.698   4.143   6.418 -0.0242  0.0416 -0.1292
  691MOL0     C93198   6.417   4.119   6.194 -0.1677  0.2876 -0.3158
  691MOL0     C93199   6.289   4.071   6.176  0.6533  0.2619 -0.0113
  691MOL0     N93200   5.745   3.607   5.902 -0.3284 -0.0182  0.4331
  691MOL0     N93201   5.714   3.624   5.785  0.5009  0.0768 -0.3729
  691MOL0     C93202   4.638   3.644   5.391  0.6179  0.4400  0.1452
  691MOL0     C93203   4.550   3.558   5.318  0.6568  0.6431 -1.0639
  691MOL0     C93204   4.449   3.179   5.071  0.7856 -0.2200  0.2346
  691MOL0     C93205   4.348   3.129   5.156  0.1056  0.8808  0.0978
  691MOL0     C93206   4.269   3.023   5.126 -0.0331  0.3518 -0.0497
  691MOL0     C93207   4.283   2.965   4.992  0.1481 -0.1597 -0.4909
  691MOL0     O93208   4.215   2.857   4.964 -0.3666 -0.7355  0.1247
  691MOL0     C93209   4.078   2.834   5.024 -0.7196 -0.4462 -0.4104
  691MOL0     C93210   4.000   2.755   4.920 -0.1518 -0.0666  0.3320
  691MOL0     C93211   3.975   2.831   4.789 -0.3395 -0.0967  1.2128
  691MOL0     C93212   3.823   2.837   4.743  0.3958  0.0998 -0.0382
  691MOL0     C93213   3.794   2.923   4.631  0.0801  0.6239  0.1380
  691MOL0     C93214   3.781   3.009   4.549 -0.7618  1.0106 -0.5745
  691MOL0     C93215   4.381   3.001   4.902  1.1918  0.2750 -0.6318
  691MOL0     C93216   4.462   3.113   4.941 -0.2317  0.6938  0.0534
  691MOL0     C93217   4.566   3.147   4.845  0.2570  0.0266  0.0031
  691MOL0     H93218   4.719   3.270   5.332  1.7031 -0.1251  2.1277
  691MOL0     H93219   4.889   3.426   5.413  0.5621  0.9491 -1.7240
  691MOL0     H93220   4.829   3.883   5.479  3.7120  1.0952  0.1867
  691MOL0     H93221   4.742   3.796   5.603  1.3589  1.2319  1.0050
  691MOL0     H93222   4.991   3.730   5.668  3.7522  0.6290 -4.8444
  691MOL0     H93223   4.894   3.868   5.737  0.2914  0.5086 -0.9881
  691MOL0     H93224   5.067   3.988   5.691  0.3055 -0.7779 -0.0181
  691MOL0     H93225   5.015   3.976   5.516  4.9602  1.1087 -1.8252
  691MOL0     H93226   5.220   3.772   5.616  2.2195  2.9342  1.5520
  691MOL0     H93227   5.156   3.805   5.459 -1.2104 -2.4134  1.5043
  691MOL0     H93228   5.278   4.032   5.466 -1.4795 -2.2146 -1.9387
  691MOL0     H93229   5.311   4.009   5.634 -1.1074 -0.2964 -0.4838
  691MOL0     H93230   5.425   3.803   5.463  1.0624  0.1732 -0.0552
  691MOL0     H93231   5.491   3.962   5.434 -0.9925  1.5589  0.1457
  691MOL0     H93232   5.458   3.837   5.720 -0.5963 -1.3488 -0.5379
  691MOL0     H93233   5.550   3.979   5.651 -1.1707 -0.4402  0.0555
  691MOL0     H93234   5.625   3.710   5.561 -0.2392  0.4708  0.7944
  691MOL0     H93235   5.713   3.860   5.569 -1.4957 -1.4726 -3.8516
  691MOL0     H93236   5.693   3.930   5.887  2.6792  0.8958 -3.0215
  691MOL0     H93237   5.688   3.806   6.162  0.8193  1.4218 -1.5903
  691MOL0     H93238   5.750   3.645   6.153  1.7974 -0.2260  0.1284
  691MOL0     H93239   5.981   3.710   6.113  0.9997  1.1837  1.0642
  691MOL0     H93240   5.931   3.884   6.087 -2.3575  1.7538 -0.1024
  691MOL0     H93241   5.900   3.708   6.320  2.0650 -0.7090 -1.2849
  691MOL0     H93242   5.844   3.884   6.320 -0.2730 -0.5283  0.8581
  691MOL0     H93243   6.127   3.777   6.313  0.0903 -0.8549  1.5361
  691MOL0     H93244   6.056   3.855   6.444 -1.0179  4.1561  0.0409
  691MOL0     H93245   6.245   3.964   6.508 -1.5204  1.2913 -0.2399
  691MOL0     H93246   6.461   4.038   6.530  0.9625  3.7807  0.3346
  691MOL0     H93247   6.907   4.164   6.312  1.5355  1.8730  2.0801
  691MOL0     H93248   7.119   4.237   6.224 -0.1371 -1.2676 -0.9145
  691MOL0     H93249   7.291   4.395   6.176 -0.3835  1.3318 -0.7218
  691MOL0     H93250   7.303   4.269   6.058  0.3402  0.0253 -1.5872
  691MOL0     H93251   7.414   4.447   5.891  1.2634 -0.3162  0.4632
  691MOL0     H93252   7.371   4.563   6.025  1.4324  0.6453 -2.2925
  691MOL0     H93253   7.531   4.459   6.176  1.3671  1.5054 -1.1439
  691MOL0     H93254   7.551   4.320   6.079 -2.0423 -0.7940 -0.9925
  691MOL0     H93255   7.615   4.601   6.002 -0.0505 -0.4402  0.9374
  691MOL0     H93256   7.644   4.461   5.893  0.5965  1.9241 -1.2947
  691MOL0     H93257   7.800   4.367   6.043  3.8817 -0.6876  2.4989
  691MOL0     H93258   7.759   4.478   6.168 -0.8371 -0.7915 -0.4061
  691MOL0     H93259   7.880   4.543   5.887 -0.6350  3.2983  0.0155
  691MOL0     H93260   7.864   4.662   6.019 -1.3073 -0.3017 -0.8678
  691MOL0     H93261   8.032   4.405   6.012  0.7435  1.1337 -2.3360
  691MOL0     H93262   7.993   4.496   6.162 -1.5342 -0.6594 -0.9688
  691MOL0     H93263   8.211   4.527   6.094 -2.2553 -4.6711  0.5498
  691MOL0     H93264   8.164   4.603   5.931 -0.5736  1.5526  0.6766
  691MOL0     H93265   6.910   4.509   5.946 -1.0775 -0.6400  0.6231
  691MOL0     H93266   6.714   4.441   6.028  1.6206  0.1282 -3.9076
  691MOL0     H93267   6.463   4.165   6.107  0.9245 -1.2234 -0.5940
  691MOL0     H93268   6.243   4.069   6.078 -0.2733 -0.2906  0.4206
  691MOL0     H93269   4.592   3.741   5.407  1.4030  1.3589 -2.6217
  691MOL0     H93270   4.447   3.575   5.289  0.1902 -0.5339 -0.1918
  691MOL0     H93271   4.321   3.177   5.250 -1.5340  4.3190 -1.9279
  691MOL0     H93272   4.188   2.986   5.189  2.1872 -3.9498  0.6669
  691MOL0     H93273   4.020   2.925   5.043  2.0308  2.4712 -4.3359
  691MOL0     H93274   4.082   2.786   5.122 -2.5104  2.0773  1.0275
  691MOL0     H93275   3.905   2.741   4.973  0.0302  1.6873  1.2019
  691MOL0     H93276   4.049   2.660   4.896  2.4213  1.7337 -2.1976
  691MOL0     H93277   4.026   2.775   4.710 -1.4856  2.0865 -1.2117
  691MOL0     H93278   4.001   2.936   4.799 -1.3066 -0.0098  3.4079
  691MOL0     H93279   3.786   2.734   4.740 -3.1992  1.2552 -0.7250
  691MOL0     H93280   3.759   2.874   4.823  0.8652  0.3213  0.2361
  691MOL0     H93281   3.768   3.082   4.472  1.5926  0.8608 -1.1753
  691MOL0     H93282   4.387   2.964   4.800 -2.7562  2.1081 -1.7125
  691MOL0     H93283   4.662   3.105   4.874 -0.0780 -1.2347 -0.6103
  691MOL0     H93284   4.537   3.116   4.744 -0.2282  0.4089  0.0223
  691MOL0     H93285   4.579   3.255   4.836  0.8128 -0.0502 -0.1237
  692MOL0     O93286   6.530   8.658   9.245 -0.7002  0.6812  0.2238
  692MOL0     C93287   6.521   8.647   9.127  0.0981 -0.5980  0.4985
  692MOL0     O93288   6.568   8.542   9.056 -0.6920 -0.1761  0.6229
  692MOL0     C93289   6.646   8.449   9.127  0.1393  0.6685 -0.0305
  692MOL0     C93290   6.771   8.409   9.071  0.0060  1.0686  0.3527
  692MOL0     C93291   6.848   8.310   9.130 -0.4366  0.0679 -0.8862
  692MOL0     C93292   6.804   8.247   9.250  0.2690  0.1818  0.7921
  692MOL0     O93293   6.890   8.176   9.323 -0.5376 -0.5496 -0.3573
  692MOL0     C93294   6.857   8.056   9.385 -0.0003  0.0877 -0.2051
  692MOL0     C93295   6.944   7.954   9.318 -0.6575 -0.3036  0.0421
  692MOL0     C93296   7.098   7.985   9.325  0.5256 -0.0095  0.3806
  692MOL0     C93297   7.167   7.861   9.259 -0.7074  0.0159  0.5280
  692MOL0     C93298   7.204   7.773   9.379 -0.3905  0.6661  0.3460
  692MOL0     C93299   7.348   7.794   9.437 -0.6319 -0.1789  0.1161
  692MOL0     C93300   7.390   7.929   9.491 -0.1499  0.3474 -0.2059
  692MOL0     C93301   7.524   7.912   9.559 -1.3791 -0.4711 -0.2634
  692MOL0     N93302   7.632   7.882   9.461  0.9302  0.9716  0.1228
  692MOL0     C93303   7.708   7.976   9.401  0.2878 -0.0284  0.8289
  692MOL0     C93304   7.802   7.901   9.336 -0.1854  0.1387 -1.1218
  692MOL0     C93305   7.918   7.935   9.248  0.4711 -0.6295 -0.4938
  692MOL0     C93306   8.051   7.882   9.303  0.3837  0.0683  0.3935
  692MOL0     C93307   8.084   7.955   9.439 -0.9111  0.1856 -0.4311
  692MOL0     C93308   8.179   7.867   9.524 -0.3995  0.4363 -0.6172
  692MOL0     O93309   8.274   7.816   9.432  0.2539  0.1969  0.8759
  692MOL0     C93310   8.381   7.765   9.488 -1.1461  0.4393  0.0719
  692MOL0     C93311   8.495   7.748   9.399 -0.4198 -1.1572 -1.0206
  692MOL0     C93312   8.614   7.695   9.446 -0.2796  0.6124  0.5564
  692MOL0     C93313   8.635   7.663   9.575 -0.5798  0.5229 -0.5050
  692MOL0     C93314   8.776   7.609   9.622  0.4578  1.0129  0.0158
  692MOL0     O93315   8.771   7.560   9.743 -0.1000  0.1622 -0.5475
  692MOL0     C93316   8.892   7.518   9.793  0.4157  0.3923 -0.1522
  692MOL0     C93317   8.889   7.387   9.844  0.3129 -0.9202 -0.0382
  692MOL0     C93318   9.008   7.352   9.919 -0.1363  0.5155  0.4865
  692MOL0     C93319   9.124   7.428   9.931  0.1118 -0.2403  0.1059
  692MOL0     O93320   9.224   7.361   9.992  0.2632 -0.0693  0.8208
  692MOL0     C93321   9.353   7.440  10.005  0.7343  0.0895  0.2081
  692MOL0     C93322   9.439   7.351  10.106 -1.1017 -0.1680  0.1650
  692MOL0     C93323   9.582   7.417  10.115  0.2367 -0.4291 -0.2318
  692MOL0     C93324   9.690   7.302  10.113 -0.3631 -0.9054  0.3793
  692MOL0     C93325   9.841   7.346  10.106  0.8912 -0.7516  0.2572
  692MOL0     C93326   9.931   7.226  10.149 -0.3547  0.3331 -0.0948
  692MOL0     C93327  10.078   7.246  10.132  0.3819  0.6551  0.9861
  692MOL0     C93328  10.116   7.261   9.985  0.4311 -1.2010 -0.4755
  692MOL0    Cl93329  10.125   7.429   9.943 -0.5493  0.2349  0.7488
  692MOL0     C93330   9.127   7.551   9.864  0.1576  0.7784  0.8990
  692MOL0     C93331   9.009   7.594   9.810 -0.3075 -0.1952  0.5176
  692MOL0     O93332   8.868   7.591   9.543 -0.0714 -0.5170  0.3004
  692MOL0     C93333   8.523   7.676   9.666  0.7367  0.3339 -0.1552
  692MOL0     C93334   8.400   7.719   9.624  0.2931 -0.4955 -0.4169
  692MOL0     N93335   7.775   7.766   9.363 -0.5553  0.1763 -0.0960
  692MOL0     N93336   7.681   7.754   9.447 -0.4621  0.2660  0.3984
  692MOL0     C93337   6.680   8.285   9.310 -0.6110  0.0494  0.6202
  692MOL0     C93338   6.599   8.382   9.243  0.3129  0.0290  0.8202
  692MOL0     C93339   6.421   8.732   9.048 -0.4008  0.4978  0.4270
  692MOL0     C93340   6.342   8.665   8.949  0.7200 -0.2783 -1.1604
  692MOL0     C93341   6.236   8.729   8.880 -0.1040 -0.4653 -0.7875
  692MOL0     C93342   6.214   8.867   8.904  0.2845 -0.5491 -0.0058
  692MOL0     O93343   6.126   8.924   8.820 -0.4167 -0.1836  0.4869
  692MOL0     C93344   6.124   9.065   8.806  1.2916  0.5328 -0.4982
  692MOL0     C93345   6.036   9.107   8.684 -0.2584 -0.1562 -0.6045
  692MOL0     C93346   6.069   9.243   8.612  0.5761 -0.2099  0.4733
  692MOL0     C93347   6.209   9.247   8.551 -0.0375 -0.4728 -0.1566
  692MOL0     C93348   6.299   9.312   8.653  0.9946  0.1944  0.2476
  692MOL0     C93349   6.354   9.360   8.744 -0.7054  0.3102  0.5452
  692MOL0     C93350   6.292   8.935   8.996 -0.1004 -0.2445  0.1845
  692MOL0     C93351   6.384   8.869   9.079 -0.0082  0.3170 -0.4219
  692MOL0     C93352   6.466   8.946   9.193  0.4808  0.6026  1.0680
  692MOL0     H93353   6.812   8.450   8.979  1.5016  0.5088  0.7424
  692MOL0     H93354   6.947   8.294   9.090  0.2406  0.1894  0.6494
  692MOL0     H93355   6.873   8.061   9.493 -4.6238  1.1141  0.6377
  692MOL0     H93356   6.755   8.026   9.360  0.9574 -1.6619 -2.4003
  692MOL0     H93357   6.913   7.954   9.213 -0.4229 -0.2147 -0.0304
  692MOL0     H93358   6.926   7.857   9.364  0.1805 -0.4072  0.1722
  692MOL0     H93359   7.124   7.991   9.431 -3.1050 -2.2218  1.5766
  692MOL0     H93360   7.103   8.082   9.274 -3.1408 -0.1677 -0.5452
  692MOL0     H93361   7.104   7.809   9.186 -0.4721  3.2740 -2.2396
  692MOL0     H93362   7.256   7.893   9.204 -1.8097  2.8385  0.2519
  692MOL0     H93363   7.128   7.772   9.457 -0.0616  1.6069  0.6937
  692MOL0     H93364   7.199   7.666   9.356 -0.0770  0.2606  2.0484
  692MOL0     H93365   7.350   7.716   9.514  0.7098 -0.5859 -0.3030
  692MOL0     H93366   7.411   7.772   9.351 -0.5681  0.3022  0.0336
  692MOL0     H93367   7.319   7.968   9.564 -0.8508  0.7584 -1.0881
  692MOL0     H93368   7.402   7.997   9.406 -0.7427  3.6522  2.1336
  692MOL0     H93369   7.549   8.007   9.608 -3.8228 -0.8174  1.8332
  692MOL0     H93370   7.511   7.837   9.637 -1.2014 -2.1436 -1.7759
  692MOL0     H93371   7.695   8.084   9.403  2.9435  0.3415  2.1525
  692MOL0     H93372   7.917   7.901   9.144 -0.2781 -0.4101 -0.5599
  692MOL0     H93373   7.917   8.044   9.237 -1.7501 -0.6699 -1.0884
  692MOL0     H93374   8.050   7.773   9.299 -3.7647 -0.0431 -1.4518
  692MOL0     H93375   8.126   7.911   9.228 -0.1873  3.2203  0.8826
  692MOL0     H93376   7.994   7.973   9.498  0.1207 -1.9712  2.0241
  692MOL0     H93377   8.126   8.054   9.421 -2.3501  0.9374  0.1457
  692MOL0     H93378   8.112   7.790   9.563 -4.4718  2.9195 -2.0661
  692MOL0     H93379   8.222   7.916   9.612 -0.4696 -3.0350  1.5316
  692MOL0     H93380   8.481   7.782   9.297 -0.4594  0.7052 -0.4331
  692MOL0     H93381   8.707   7.701   9.390  0.0195  2.4475  1.1685
  692MOL0     H93382   8.806   7.317   9.842 -0.1518 -0.4838  1.9678
  692MOL0     H93383   9.021   7.254   9.964  2.3440  0.4068 -0.3203
  692MOL0     H93384   9.406   7.451   9.910 -0.2665 -3.1867 -0.8550
  692MOL0     H93385   9.334   7.530  10.065  0.8872  0.0116  0.3732
  692MOL0     H93386   9.396   7.356  10.206  1.5221  2.3986  1.3412
  692MOL0     H93387   9.439   7.249  10.067  0.4740 -0.5895  1.1693
  692MOL0     H93388   9.599   7.492  10.036 -1.4844  1.1868  0.8374
  692MOL0     H93389   9.582   7.478  10.205  1.0888  1.1672 -1.2497
  692MOL0     H93390   9.674   7.232  10.031  1.4412 -1.4026  0.4184
  692MOL0     H93391   9.680   7.250  10.208 -2.1038  0.8067  1.2131
  692MOL0     H93392   9.859   7.435  10.168 -2.2284  2.4021 -2.9368
  692MOL0     H93393   9.866   7.386  10.008  1.7951 -3.8600 -0.9005
  692MOL0     H93394   9.910   7.203  10.254 -1.3498  2.3061  0.1888
  692MOL0     H93395   9.892   7.136  10.101 -0.2859  0.6362 -0.7285
  692MOL0     H93396  10.121   7.158  10.179 -2.9469  0.0875  3.3543
  692MOL0     H93397  10.107   7.342  10.178 -1.1899  1.6050  0.1008
  692MOL0     H93398  10.217   7.220   9.989  1.0425  0.3018  1.8956
  692MOL0     H93399  10.061   7.206   9.908 -1.2553 -2.0838  1.2821
  692MOL0     H93400   9.212   7.614   9.843 -0.3009  1.1733  0.1995
  692MOL0     H93401   9.003   7.695   9.770  0.8423 -0.2074  0.2936
  692MOL0     H93402   8.536   7.666   9.773  0.3909  2.8925  0.1948
  692MOL0     H93403   8.324   7.720   9.702 -0.9472  1.5741 -1.5558
  692MOL0     H93404   6.653   8.231   9.400  0.5973 -3.4362 -0.8982
  692MOL0     H93405   6.500   8.401   9.283  1.1517 -1.6291  4.0025
  692MOL0     H93406   6.348   8.559   8.929  0.0738 -0.7248  0.8056
  692MOL0     H93407   6.181   8.676   8.802 -0.6972 -1.5918  0.3589
  692MOL0     H93408   6.231   9.084   8.803  2.0381 -2.7404  0.4938
  692MOL0     H93409   6.084   9.114   8.895 -0.0706  3.1937 -2.4541
  692MOL0     H93410   5.929   9.103   8.705 -0.2003  0.0136 -0.2622
  692MOL0     H93411   6.051   9.036   8.602 -1.4691  0.9116 -1.7875
  692MOL0     H93412   6.055   9.321   8.687  1.1015  0.5489 -0.1954
  692MOL0     H93413   6.003   9.262   8.527  0.2504 -1.2171  0.4857
  692MOL0     H93414   6.248   9.146   8.530 -1.1616 -1.4641  2.2158
  692MOL0     H93415   6.200   9.307   8.460 -1.7128 -0.1689  0.1783
  692MOL0     H93416   6.416   9.398   8.823  1.6060  0.5308 -1.2569
  692MOL0     H93417   6.295   9.043   9.004  1.1703 -0.2115 -0.5632
  692MOL0     H93418   6.428   8.928   9.294  1.3168 -1.9730  1.0031
  692MOL0     H93419   6.565   8.901   9.198 -0.1258 -0.9412  0.1395
  692MOL0     H93420   6.479   9.051   9.165  0.9068 -0.2938 -2.6879
  693MOL0     O93421   4.217  10.956   3.822 -0.4564 -0.8271 -0.8836
  693MOL0     C93422   4.256  10.865   3.903 -0.1940  0.2075 -0.1544
  693MOL0     O93423   4.176  10.771   3.970 -0.1922 -1.2125  0.0536
  693MOL0     C93424   4.040  10.773   3.934 -0.2823 -0.1600  0.1129
  693MOL0     C93425   3.965  10.876   3.988  1.0637 -1.3555 -0.3093
  693MOL0     C93426   3.836  10.900   3.955 -0.5324 -0.5582  0.1296
  693MOL0     C93427   3.761  10.810   3.884 -0.0971  0.5778  0.2746
  693MOL0     O93428   3.632  10.833   3.872  0.0585 -0.3513 -0.3180
  693MOL0     C93429   3.562  10.803   3.757 -1.1175 -0.0337  0.2900
  693MOL0     C93430   3.501  10.658   3.757 -0.1164  0.2295 -0.2550
  693MOL0     C93431   3.401  10.621   3.646  0.0444  0.6166 -0.1963
  693MOL0     C93432   3.481  10.578   3.530  0.1961  0.8348 -0.1947
  693MOL0     C93433   3.386  10.548   3.420  0.2521  0.8598 -0.8031
  693MOL0     C93434   3.477  10.505   3.299 -0.3650  0.3692 -0.4469
  693MOL0     C93435   3.387  10.472   3.182  0.4237  0.5874  0.7252
  693MOL0     C93436   3.463  10.461   3.043  0.1768  0.0228 -0.3810
  693MOL0     N93437   3.587  10.383   3.061 -0.7772 -0.5580 -0.5342
  693MOL0     C93438   3.605  10.246   3.063 -0.4381  0.1142 -0.1944
  693MOL0     C93439   3.739  10.224   3.078  0.3773  0.1725 -0.1198
  693MOL0     C93440   3.816  10.097   3.077 -0.4702  0.8151  0.6105
  693MOL0     C93441   3.737   9.982   3.019 -0.0694  0.8654 -0.8149
  693MOL0     C93442   3.698   9.977   2.875  0.0206 -1.0062  0.5796
  693MOL0     C93443   3.820   9.998   2.790 -0.9070  0.4332  1.1460
  693MOL0     O93444   3.839  10.137   2.778  0.3010  0.2636  0.1040
  693MOL0     C93445   3.949  10.185   2.709  0.3175  0.0767 -0.3323
  693MOL0     C93446   4.047  10.100   2.640  0.2523 -0.8966 -0.8973
  693MOL0     C93447   4.149  10.167   2.573  0.3176  0.6033  0.5958
  693MOL0     C93448   4.153  10.303   2.557 -0.1644  0.0929 -0.3028
  693MOL0     C93449   4.254  10.368   2.475  0.1151  0.0933  0.0206
  693MOL0     O93450   4.390  10.324   2.492  0.1372 -0.1144  0.2510
  693MOL0     C93451   4.491  10.408   2.455  0.8803  0.6116  0.0580
  693MOL0     C93452   4.593  10.362   2.372  0.0609  0.5420  0.5876
  693MOL0     C93453   4.700  10.457   2.340  0.9294 -0.7068  0.4410
  693MOL0     C93454   4.698  10.585   2.397  0.7571  0.2993  0.6756
  693MOL0     O93455   4.795  10.679   2.376 -0.3399 -0.2449  0.5028
  693MOL0     C93456   4.843  10.686   2.243 -0.1048  0.2558 -0.2514
  693MOL0     C93457   4.894  10.831   2.223  0.2176 -0.4791  0.0937
  693MOL0     C93458   4.997  10.888   2.327  0.0307 -0.3295  0.0317
  693MOL0     C93459   4.958  11.018   2.362  0.6486 -0.7608  0.6013
  693MOL0     C93460   5.056  11.076   2.464 -0.5078 -0.2797  0.7863
  693MOL0     C93461   5.179  11.139   2.395  0.2842  0.7928  0.1672
  693MOL0     C93462   5.280  11.184   2.502 -0.5667  0.2691  0.5128
  693MOL0     C93463   5.390  11.272   2.437 -0.0450  0.6364  0.7203
  693MOL0    Cl93464   5.496  11.178   2.324 -0.2303 -0.0541 -0.2045
  693MOL0     C93465   4.600  10.628   2.480 -0.3755  1.0404 -0.3460
  693MOL0     C93466   4.496  10.540   2.513 -0.0757  0.3359 -0.1055
  693MOL0     O93467   4.223  10.450   2.390  0.0161  0.0836 -0.0873
  693MOL0     C93468   4.050  10.380   2.613  0.5457 -0.2973  0.0443
  693MOL0     C93469   3.950  10.323   2.699  0.2280  0.8563 -0.5566
  693MOL0     N93470   3.804  10.350   3.092 -0.0839  0.6806  0.2710
  693MOL0     N93471   3.711  10.441   3.092  0.0540  0.1049  0.2785
  693MOL0     C93472   3.825  10.693   3.830 -1.1373  0.4985  0.0474
  693MOL0     C93473   3.962  10.680   3.855 -1.4258  0.7566 -0.9025
  693MOL0     C93474   4.407  10.863   3.931 -0.1425 -0.1780 -0.3845
  693MOL0     C93475   4.484  10.952   3.855 -0.2479  0.0073  0.3964
  693MOL0     C93476   4.619  10.961   3.878  0.0136 -0.2020  0.2928
  693MOL0     C93477   4.675  10.886   3.979 -0.3830  0.3063 -0.4544
  693MOL0     O93478   4.803  10.919   4.010  0.3608 -0.6762  0.9341
  693MOL0     C93479   4.885  10.838   4.093  0.2300  0.6640 -0.6980
  693MOL0     C93480   5.022  10.891   4.097 -0.4068  0.1444  0.7477
  693MOL0     C93481   5.088  10.870   3.953  0.5991 -0.6923 -0.1748
  693MOL0     C93482   5.236  10.907   3.950  0.7519  0.2657  0.3336
  693MOL0     C93483   5.267  11.041   3.982  0.0004 -0.3259 -0.5293
  693MOL0     C93484   5.293  11.158   4.020  0.5618  0.0123 -0.6058
  693MOL0     C93485   4.597  10.802   4.068  0.2771 -0.1658 -0.5562
  693MOL0     C93486   4.462  10.789   4.035  0.5730 -0.6832 -0.2057
  693MOL0     C93487   4.387  10.709   4.128  0.5600  1.3693 -0.1612
  693MOL0     H93488   4.014  10.943   4.058 -4.2680  1.0869  1.7189
  693MOL0     H93489   3.787  10.989   3.994 -1.9089 -0.5976 -1.4102
  693MOL0     H93490   3.480  10.874   3.744 -1.0759 -0.0996 -0.3558
  693MOL0     H93491   3.620  10.815   3.665 -1.5535 -3.1291 -0.5222
  693MOL0     H93492   3.431  10.652   3.841 -1.7992 -0.5790 -1.6638
  693MOL0     H93493   3.569  10.573   3.767  1.2881  1.2500 -0.8031
  693MOL0     H93494   3.331  10.703   3.627 -1.3633 -0.4623  0.2326
  693MOL0     H93495   3.345  10.545   3.701 -0.3092  2.7356  2.5827
  693MOL0     H93496   3.555  10.655   3.508  0.9313  0.1839 -0.0470
  693MOL0     H93497   3.539  10.487   3.548 -1.2259 -0.2970 -1.0504
  693MOL0     H93498   3.320  10.464   3.441 -1.0005  1.7336 -1.1134
  693MOL0     H93499   3.326  10.637   3.397 -0.6126  1.6592  3.6338
  693MOL0     H93500   3.533  10.593   3.267  1.2100  0.1391  1.5133
  693MOL0     H93501   3.545  10.424   3.324 -0.6981 -0.5433 -2.3292
  693MOL0     H93502   3.304  10.542   3.186 -1.2717 -1.3199  0.6428
  693MOL0     H93503   3.350  10.372   3.210 -2.1437  1.6344  1.3222
  693MOL0     H93504   3.400  10.415   2.967  0.6108 -0.2688 -0.5686
  693MOL0     H93505   3.489  10.563   3.015  0.1099  0.3936  0.8583
  693MOL0     H93506   3.532  10.167   3.044 -1.0580 -0.1727  2.9374
  693MOL0     H93507   3.908  10.102   3.018  1.8603  2.9355  4.0690
  693MOL0     H93508   3.839  10.078   3.182  0.0193 -1.0170  0.2087
  693MOL0     H93509   3.784   9.888   3.048 -0.7029  0.6985 -0.2870
  693MOL0     H93510   3.640   9.973   3.070 -0.1666  0.5665 -1.0468
  693MOL0     H93511   3.628  10.059   2.860  2.0610  1.1867  2.1934
  693MOL0     H93512   3.643   9.885   2.853  1.2069 -1.9735  1.4654
  693MOL0     H93513   3.800   9.948   2.695 -0.7297 -0.5752  1.6205
  693MOL0     H93514   3.906   9.946   2.833 -1.8041 -1.9259  0.2553
  693MOL0     H93515   4.035   9.993   2.654 -2.2762 -0.5858 -0.1671
  693MOL0     H93516   4.227  10.122   2.512  0.4565 -0.0277  1.2151
  693MOL0     H93517   4.583  10.260   2.339 -1.8087  1.2264 -1.1924
  693MOL0     H93518   4.776  10.434   2.267 -0.2722 -0.1832 -1.0310
  693MOL0     H93519   4.914  10.605   2.224 -0.5341  0.3403 -2.5099
  693MOL0     H93520   4.761  10.663   2.175 -1.4050  1.1444  0.9475
  693MOL0     H93521   4.945  10.835   2.127 -0.8300  0.8350 -0.4350
  693MOL0     H93522   4.812  10.904   2.226  0.8678  0.3523 -1.3850
  693MOL0     H93523   4.993  10.820   2.412 -2.0493 -0.1463  0.1368
  693MOL0     H93524   5.092  10.889   2.273 -1.4827 -2.1376 -2.9433
  693MOL0     H93525   4.862  11.024   2.413 -0.6911 -0.0828 -1.8619
  693MOL0     H93526   4.954  11.081   2.272  1.2428  0.5519  1.4569
  693MOL0     H93527   5.103  10.996   2.522  2.6407 -0.4338 -1.6718
  693MOL0     H93528   5.005  11.146   2.530  0.9741 -0.3345  2.0633
  693MOL0     H93529   5.227  11.061   2.335 -0.0561  0.7460 -0.0472
  693MOL0     H93530   5.151  11.207   2.314 -2.4461 -0.7213 -0.2736
  693MOL0     H93531   5.326  11.095   2.546 -0.1550  0.4403  0.4283
  693MOL0     H93532   5.238  11.242   2.584  2.0007  1.0032  1.3871
  693MOL0     H93533   5.342  11.349   2.375 -1.6194 -0.5030  0.4558
  693MOL0     H93534   5.444  11.316   2.521  1.0402 -2.3907  1.7351
  693MOL0     H93535   4.599  10.731   2.516 -2.4827  1.1842 -0.7250
  693MOL0     H93536   4.432  10.576   2.592  1.2516  2.0201  0.2651
  693MOL0     H93537   4.047  10.485   2.584 -4.8035  0.2764  1.5653
  693MOL0     H93538   3.884  10.380   2.764 -0.5523  0.0824 -0.6474
  693MOL0     H93539   3.784  10.610   3.773  0.8900 -3.5429  3.8717
  693MOL0     H93540   4.022  10.599   3.815 -1.4637  0.8050 -1.0598
  693MOL0     H93541   4.440  11.011   3.776  0.9852  1.6096  0.8586
  693MOL0     H93542   4.677  11.030   3.818 -2.5551  2.1314  0.2856
  693MOL0     H93543   4.891  10.732   4.064 -1.1930  1.0291 -2.5539
  693MOL0     H93544   4.851  10.844   4.197  2.1299 -0.4965  0.0344
  693MOL0     H93545   5.082  10.834   4.169 -1.1017 -0.0420  1.1870
  693MOL0     H93546   5.013  10.995   4.129 -0.4254  0.4542 -0.2180
  693MOL0     H93547   5.033  10.937   3.887  0.4192  3.8393  4.0202
  693MOL0     H93548   5.096  10.767   3.918  1.5809 -0.3411 -1.0172
  693MOL0     H93549   5.298  10.833   4.000 -1.6287 -0.1778  2.8521
  693MOL0     H93550   5.260  10.898   3.843  1.9054  0.3085  0.5746
  693MOL0     H93551   5.310  11.261   4.045 -2.1341  0.8452 -1.7412
  693MOL0     H93552   4.641  10.746   4.149 -1.1391 -1.7092 -0.7960
  693MOL0     H93553   4.451  10.646   4.190  0.4323  0.0700 -1.2820
  693MOL0     H93554   4.315  10.752   4.197  1.4626  0.3439  1.4866
  693MOL0     H93555   4.331  10.635   4.070  1.1437 -0.7725  1.8452
  694MOL0     O93556   5.538   3.627   5.338  0.6573 -0.7772  0.3826
  694MOL0     C93557   5.495   3.694   5.244  0.0046  0.1024 -0.5639
  694MOL0     O93558   5.558   3.808   5.197  0.1218  0.3067 -0.0335
  694MOL0     C93559   5.685   3.836   5.230 -0.3946  0.0513 -0.3010
  694MOL0     C93560   5.786   3.748   5.232 -0.6163  0.2358 -0.3221
  694MOL0     C93561   5.920   3.784   5.243 -0.3406 -0.5133 -1.4391
  694MOL0     C93562   5.948   3.920   5.263 -0.7948 -0.7258  0.0226
  694MOL0     O93563   6.081   3.947   5.287  0.2368  0.1528  0.1420
  694MOL0     C93564   6.116   4.079   5.344 -0.2733  0.3135  0.2193
  694MOL0     C93565   6.261   4.082   5.381 -0.5854  0.4471  0.0522
  694MOL0     C93566   6.343   4.093   5.252  0.1624 -0.5322  0.0632
  694MOL0     C93567   6.477   4.180   5.269  0.9563  0.6316 -0.0522
  694MOL0     C93568   6.560   4.226   5.152  0.1577  0.4220 -0.3300
  694MOL0     C93569   6.694   4.153   5.150  1.1801 -0.6656 -0.5189
  694MOL0     C93570   6.794   4.211   5.038 -0.1420  0.2982  0.3992
  694MOL0     C93571   6.741   4.177   4.902  0.0948  0.5671  0.0999
  694MOL0     N93572   6.831   4.207   4.796 -0.2724 -0.4726  0.4715
  694MOL0     C93573   6.895   4.329   4.766  0.5922  0.2862  0.1241
  694MOL0     C93574   6.931   4.317   4.635  0.5092 -0.0439 -0.1237
  694MOL0     C93575   7.011   4.417   4.551  0.5859 -0.3580 -0.0455
  694MOL0     C93576   7.130   4.477   4.620 -0.1758  0.0056 -0.8482
  694MOL0     C93577   7.199   4.582   4.524 -0.6906 -0.0237 -0.3971
  694MOL0     C93578   7.306   4.657   4.598  0.1727  0.0738 -0.2063
  694MOL0     O93579   7.393   4.558   4.659 -0.1274  0.0912 -0.1783
  694MOL0     C93580   7.514   4.602   4.714 -0.4337 -0.6361  0.0677
  694MOL0     C93581   7.600   4.513   4.750 -1.1685  0.1360  0.6505
  694MOL0     C93582   7.729   4.541   4.803 -0.5510  0.8794 -0.9916
  694MOL0     C93583   7.767   4.670   4.828 -0.4168  0.1283  0.1868
  694MOL0     C93584   7.903   4.703   4.876 -0.2847  0.1832 -0.3567
  694MOL0     O93585   7.992   4.602   4.871  0.3826  0.1828 -0.4866
  694MOL0     C93586   8.121   4.623   4.882 -0.5297  0.3730 -0.5411
  694MOL0     C93587   8.190   4.515   4.946  1.1240  0.9048 -1.5810
  694MOL0     C93588   8.325   4.522   4.969 -0.0002  0.1609 -0.0814
  694MOL0     C93589   8.401   4.631   4.931  0.5340  1.1936 -0.5209
  694MOL0     O93590   8.528   4.613   4.962  0.3545 -0.3467  0.6150
  694MOL0     C93591   8.628   4.675   4.884  0.1615 -0.2368 -0.5045
  694MOL0     C93592   8.773   4.643   4.933 -0.4026 -0.2553  0.3113
  694MOL0     C93593   8.875   4.694   4.833  0.1687 -0.1760  1.1759
  694MOL0     C93594   9.005   4.598   4.840 -0.3552  0.2991  0.5373
  694MOL0     C93595   9.118   4.638   4.736  1.0869 -1.2259  0.2078
  694MOL0     C93596   9.208   4.754   4.784 -0.4401  0.0103 -0.1191
  694MOL0     C93597   9.300   4.722   4.905 -0.2720  0.0809  0.2202
  694MOL0     C93598   9.243   4.778   5.040 -1.0508 -0.4554  0.8390
  694MOL0    Cl93599   9.313   4.679   5.178  0.2605 -0.2672  0.4415
  694MOL0     C93600   8.333   4.736   4.856  0.1727  0.3816 -0.0509
  694MOL0     C93601   8.194   4.734   4.840  0.2337 -1.1146 -1.2832
  694MOL0     O93602   7.929   4.815   4.922 -0.4593 -0.0600 -0.2365
  694MOL0     C93603   7.672   4.771   4.793  0.9689 -0.2776 -0.8465
  694MOL0     C93604   7.556   4.735   4.728  0.2755 -0.2123 -0.1393
  694MOL0     N93605   6.894   4.192   4.586  0.1397 -0.0289  0.0535
  694MOL0     N93606   6.827   4.133   4.679 -0.9190  0.0337 -0.1000
  694MOL0     C93607   5.847   4.014   5.271 -0.0680 -0.1570  0.3185
  694MOL0     C93608   5.716   3.973   5.256  0.2116  0.5146 -1.0023
  694MOL0     C93609   5.379   3.644   5.172 -0.5010 -0.9101 -0.8874
  694MOL0     C93610   5.387   3.670   5.036  0.4493 -0.6863 -0.1001
  694MOL0     C93611   5.283   3.635   4.954  0.2621  0.7776 -0.3766
  694MOL0     C93612   5.163   3.580   5.013  0.0540 -0.0345  0.2532
  694MOL0     O93613   5.051   3.558   4.935 -0.1086  0.2951  0.0170
  694MOL0     C93614   5.069   3.510   4.799 -0.7702 -0.1682  0.0054
  694MOL0     C93615   4.943   3.433   4.742 -0.1234 -0.1621 -0.9925
  694MOL0     C93616   4.847   3.522   4.662 -0.7765 -0.2669 -0.4791
  694MOL0     C93617   4.721   3.453   4.626  0.0522  0.3949  0.7310
  694MOL0     C93618   4.636   3.541   4.548  0.3134  0.7821 -0.5726
  694MOL0     C93619   4.571   3.613   4.487 -0.3099 -0.5197 -0.4809
  694MOL0     C93620   5.154   3.550   5.152 -1.3189  0.2444  0.0724
  694MOL0     C93621   5.263   3.587   5.230 -0.6688  0.2640 -0.0189
  694MOL0     C93622   5.245   3.560   5.379  0.0672 -0.6627 -0.5509
  694MOL0     H93623   5.756   3.644   5.218 -6.6645  1.7523 -1.4747
  694MOL0     H93624   5.999   3.711   5.234  0.8054  0.4163  0.4918
  694MOL0     H93625   6.083   4.156   5.274 -0.7793 -0.7280 -0.7109
  694MOL0     H93626   6.068   4.072   5.442  2.8974 -1.2790  1.8110
  694MOL0     H93627   6.288   3.998   5.446 -1.6863  0.5487  0.6652
  694MOL0     H93628   6.280   4.167   5.446 -0.2496  0.5870 -0.2245
  694MOL0     H93629   6.277   4.138   5.177  0.0566 -3.8317 -2.0234
  694MOL0     H93630   6.377   3.995   5.219 -1.1077 -1.6899  1.9639
  694MOL0     H93631   6.455   4.263   5.337 -2.1015 -1.0741  1.2652
  694MOL0     H93632   6.547   4.124   5.332  2.3593  0.0878 -2.0193
  694MOL0     H93633   6.506   4.221   5.057  0.9236  1.2388 -0.8255
  694MOL0     H93634   6.584   4.332   5.161 -0.5137  0.6533 -1.1006
  694MOL0     H93635   6.740   4.160   5.249  0.4705 -3.8952  0.1257
  694MOL0     H93636   6.673   4.046   5.143 -2.9107 -0.5055  3.9839
  694MOL0     H93637   6.891   4.162   5.037 -0.0461  0.4269 -1.6533
  694MOL0     H93638   6.819   4.318   5.038  1.0638  0.0600  2.7840
  694MOL0     H93639   6.706   4.074   4.891 -0.5845  1.0404 -2.8795
  694MOL0     H93640   6.644   4.224   4.886 -0.3450 -0.9237 -2.1176
  694MOL0     H93641   6.927   4.407   4.835  2.1924  0.3933 -0.6883
  694MOL0     H93642   7.062   4.361   4.472  0.1553 -0.1207 -0.5006
  694MOL0     H93643   6.930   4.486   4.526 -0.6735 -2.2327 -1.5345
  694MOL0     H93644   7.099   4.528   4.712 -0.2135 -3.5131  1.2963
  694MOL0     H93645   7.210   4.405   4.642  0.6330  1.4641  1.3090
  694MOL0     H93646   7.121   4.652   4.493  1.4632  1.6431 -2.4002
  694MOL0     H93647   7.242   4.532   4.436  2.3594  0.8921  0.4390
  694MOL0     H93648   7.255   4.719   4.672 -0.4138  0.0415 -0.5743
  694MOL0     H93649   7.355   4.727   4.529 -1.4010  0.6205 -0.8154
  694MOL0     H93650   7.565   4.411   4.741 -0.6180  0.0779 -1.6007
  694MOL0     H93651   7.787   4.453   4.829 -0.3706  0.9003 -1.3196
  694MOL0     H93652   8.137   4.424   4.973 -1.7626  2.5140 -1.3735
  694MOL0     H93653   8.374   4.437   5.015 -0.8172  0.3887  1.2631
  694MOL0     H93654   8.607   4.665   4.777  0.6950  1.2371 -0.7800
  694MOL0     H93655   8.617   4.783   4.898  1.5859 -0.2084  0.5939
  694MOL0     H93656   8.780   4.691   5.030 -2.1893  0.6220  0.0395
  694MOL0     H93657   8.788   4.535   4.946  0.7866  0.0636  1.8296
  694MOL0     H93658   8.840   4.689   4.729  0.0929  1.9341  1.0572
  694MOL0     H93659   8.914   4.794   4.854  2.9177 -1.2271  1.4759
  694MOL0     H93660   8.975   4.493   4.829 -1.5460  0.7036 -0.3848
  694MOL0     H93661   9.043   4.592   4.943  0.0782 -3.2803  0.2853
  694MOL0     H93662   9.053   4.661   4.650 -0.6507 -3.7664  0.7406
  694MOL0     H93663   9.179   4.554   4.704  1.9627 -1.3915  2.1766
  694MOL0     H93664   9.279   4.777   4.704  1.5909 -2.6234  0.7841
  694MOL0     H93665   9.144   4.841   4.799 -0.5014  0.0292 -0.4888
  694MOL0     H93666   9.402   4.755   4.884  1.2605 -3.4468  1.3921
  694MOL0     H93667   9.317   4.616   4.924  0.8667 -0.0107 -1.1273
  694MOL0     H93668   9.267   4.885   5.045  1.8369 -0.9016 -0.8547
  694MOL0     H93669   9.135   4.774   5.023 -0.9918  2.2305 -0.6757
  694MOL0     H93670   8.384   4.822   4.813  1.1962 -0.1032  0.1580
  694MOL0     H93671   8.152   4.827   4.803  1.3240 -0.3500 -0.6157
  694MOL0     H93672   7.683   4.878   4.812 -4.8554  0.6289 -0.5445
  694MOL0     H93673   7.508   4.821   4.683  0.4958 -0.0526 -0.0702
  694MOL0     H93674   5.867   4.120   5.277 -2.0325  0.1987  2.3911
  694MOL0     H93675   5.633   4.044   5.264 -0.9277 -0.8118 -0.7130
  694MOL0     H93676   5.474   3.711   4.987 -0.2712 -0.8209 -1.5451
  694MOL0     H93677   5.293   3.641   4.846  1.9132 -2.7394 -0.5617
  694MOL0     H93678   5.153   3.440   4.800 -2.8454 -2.8545 -0.6517
  694MOL0     H93679   5.090   3.599   4.740 -1.3042  1.4090  2.0998
  694MOL0     H93680   4.895   3.398   4.834 -1.4229 -1.2174 -2.0462
  694MOL0     H93681   4.989   3.351   4.686  3.2599 -0.0557  1.3597
  694MOL0     H93682   4.902   3.556   4.574 -0.2403  2.1849  0.6799
  694MOL0     H93683   4.833   3.612   4.724  0.5095 -0.6401  0.4163
  694MOL0     H93684   4.744   3.366   4.563 -1.2053  0.7343 -0.2632
  694MOL0     H93685   4.679   3.399   4.710 -0.7063 -1.6091 -0.8505
  694MOL0     H93686   4.513   3.679   4.427  1.3293 -0.8760 -2.5704
  694MOL0     H93687   5.062   3.519   5.202 -1.0188  0.9509  1.0967
  694MOL0     H93688   5.145   3.596   5.406  0.0735  0.0327 -1.3923
  694MOL0     H93689   5.250   3.453   5.400  0.8332 -0.1962  1.8844
  694MOL0     H93690   5.315   3.610   5.446  0.7089 -0.4340 -1.3813
  695MOL0     O93691   9.725   3.402   8.474 -0.2377  0.3671 -0.1142
  695MOL0     C93692   9.634   3.484   8.502  0.2814 -0.1560 -1.0093
  695MOL0     O93693   9.646   3.617   8.501  0.0447  0.0181  0.2617
  695MOL0     C93694   9.753   3.684   8.552  1.2302 -0.2204 -0.1257
  695MOL0     C93695   9.796   3.667   8.675 -0.1211 -0.1480 -0.1752
  695MOL0     C93696   9.914   3.733   8.719 -0.0435  0.9904  0.2965
  695MOL0     C93697  10.004   3.805   8.637 -0.0956  0.0700  0.4701
  695MOL0     O93698  10.121   3.870   8.673 -0.5226 -0.5069  0.4115
  695MOL0     C93699  10.136   3.895   8.811 -1.0281 -0.6260  0.4548
  695MOL0     C93700  10.281   3.938   8.833  0.2952 -0.0345  0.4377
  695MOL0     C93701  10.327   4.063   8.757 -0.5730  0.4693  0.3177
  695MOL0     C93702  10.473   4.096   8.778 -0.1469  0.0171 -0.2952
  695MOL0     C93703  10.512   4.120   8.914 -0.3385  0.5069 -0.4570
  695MOL0     C93704  10.662   4.140   8.934 -0.2932 -0.0993  0.3396
  695MOL0     C93705  10.704   4.189   9.075  0.2013 -0.0638 -0.0265
  695MOL0     C93706  10.850   4.241   9.067  0.6150  0.2575 -0.0956
  695MOL0     N93707  10.939   4.130   9.093  0.9288  0.1085 -0.0865
  695MOL0     C93708  10.978   4.095   9.215  0.1167  0.0566 -0.6651
  695MOL0     C93709  11.082   4.016   9.206 -0.9566 -0.8713 -0.3797
  695MOL0     C93710  11.140   3.937   9.321 -0.4604  0.4208 -0.2110
  695MOL0     C93711  11.296   3.927   9.314  0.4310  0.3791  1.1075
  695MOL0     C93712  11.347   3.824   9.414 -0.1442  0.2772 -0.0974
  695MOL0     C93713  11.456   3.861   9.511 -0.1875 -0.0670  0.8096
  695MOL0     O93714  11.480   3.749   9.592 -0.4242  0.3866  0.1899
  695MOL0     C93715  11.591   3.749   9.669 -0.8186  0.0962 -0.0637
  695MOL0     C93716  11.641   3.622   9.708  0.7164  0.4363 -0.9643
  695MOL0     C93717  11.755   3.611   9.780 -0.0188 -0.6673 -0.2610
  695MOL0     C93718  11.839   3.726   9.807  0.0204  1.0406 -0.4594
  695MOL0     C93719  11.980   3.702   9.853  0.3773  0.1219 -0.3024
  695MOL0     O93720  12.058   3.803   9.870  0.1143 -0.2781  0.0162
  695MOL0     C93721  12.191   3.778   9.901  0.5752  1.0989  1.0724
  695MOL0     C93722  12.277   3.697   9.825  0.6092 -0.2664 -0.3573
  695MOL0     C93723  12.407   3.670   9.856 -0.0331 -0.7408  0.4361
  695MOL0     C93724  12.464   3.714   9.974  0.7870 -0.5564  0.3220
  695MOL0     O93725  12.593   3.699  10.021  0.2269 -0.1317 -0.0873
  695MOL0     C93726  12.684   3.607   9.956 -0.3727 -0.5341 -0.8957
  695MOL0     C93727  12.791   3.562  10.051 -0.0886  0.6599 -0.2123
  695MOL0     C93728  12.918   3.500   9.986 -0.0993 -0.5509  0.0838
  695MOL0     C93729  13.007   3.426  10.084 -0.2576  0.2566 -0.3497
  695MOL0     C93730  13.129   3.369  10.008 -0.4421 -0.2242 -0.1001
  695MOL0     C93731  13.235   3.328  10.112  0.5920  0.1600 -0.0319
  695MOL0     C93732  13.348   3.251  10.042  0.3344  0.6227 -0.1478
  695MOL0     C93733  13.433   3.173  10.145  0.2692 -0.3271  0.0308
  695MOL0    Cl93734  13.531   3.277  10.253 -0.2237 -0.3067  0.0642
  695MOL0     C93735  12.379   3.803  10.052 -0.8716 -0.4089  0.5097
  695MOL0     C93736  12.242   3.832  10.013 -0.2932  0.0107  0.2645
  695MOL0     O93737  12.015   3.584   9.854 -0.3724 -0.8619 -0.3314
  695MOL0     C93738  11.785   3.846   9.770 -0.3401 -0.5182 -0.3654
  695MOL0     C93739  11.665   3.867   9.709  0.1851 -0.7673 -0.2974
  695MOL0     N93740  11.121   4.023   9.074  0.0910  0.6074 -0.2021
  695MOL0     N93741  11.041   4.098   9.010 -0.4774 -0.7298  0.5911
  695MOL0     C93742   9.954   3.820   8.511  0.5237 -0.4101  0.5167
  695MOL0     C93743   9.824   3.773   8.468  0.6818  0.6947 -0.6342
  695MOL0     C93744   9.491   3.429   8.501  0.0248  0.5795  0.2834
  695MOL0     C93745   9.387   3.510   8.559 -0.0379  0.5750 -0.0376
  695MOL0     C93746   9.257   3.454   8.565  0.7645 -1.2196 -0.2409
  695MOL0     C93747   9.216   3.329   8.520 -0.3965  0.4964  0.1082
  695MOL0     O93748   9.084   3.293   8.536 -0.6849  0.3207 -0.4165
  695MOL0     C93749   9.065   3.154   8.518 -0.1521 -0.1815 -0.4065
  695MOL0     C93750   8.913   3.134   8.508  0.2795  0.7182  0.2092
  695MOL0     C93751   8.854   3.210   8.397 -0.6461 -0.1291 -0.5403
  695MOL0     C93752   8.714   3.154   8.361  0.4770 -0.4337  0.3823
  695MOL0     C93753   8.653   3.237   8.256  0.4487  0.6307  0.9372
  695MOL0     C93754   8.588   3.297   8.178 -0.7260  0.1484  0.5683
  695MOL0     C93755   9.319   3.252   8.465  0.0683  0.3604  0.3592
  695MOL0     C93756   9.455   3.295   8.456 -0.2671 -0.6597  0.1015
  695MOL0     C93757   9.551   3.196   8.393  0.7192 -0.6555 -0.2146
  695MOL0     H93758   9.731   3.605   8.736  1.0338 -2.9364 -1.6136
  695MOL0     H93759   9.932   3.717   8.825  1.3318 -0.7781 -0.1373
  695MOL0     H93760  10.075   3.982   8.838  1.3766  1.5278 -0.5763
  695MOL0     H93761  10.121   3.800   8.863 -0.3661 -0.5305  0.8247
  695MOL0     H93762  10.345   3.854   8.806 -0.4004 -1.1490  2.1483
  695MOL0     H93763  10.292   3.953   8.940  3.7144  0.4827  0.1287
  695MOL0     H93764  10.256   4.143   8.783 -1.4906  0.7603 -2.7432
  695MOL0     H93765  10.321   4.041   8.650  1.6373  1.0690  0.0244
  695MOL0     H93766  10.535   4.016   8.735 -2.0255 -0.7926 -1.6566
  695MOL0     H93767  10.490   4.187   8.721 -1.6416  1.3475  1.2737
  695MOL0     H93768  10.460   4.210   8.948  0.1491  1.1486 -1.3717
  695MOL0     H93769  10.474   4.045   8.984 -3.1701  2.7917  0.6396
  695MOL0     H93770  10.721   4.051   8.912 -0.4653  0.2279 -1.7364
  695MOL0     H93771  10.679   4.219   8.859 -1.3911 -3.4479 -3.8035
  695MOL0     H93772  10.694   4.115   9.155 -0.5941 -0.7031 -0.6992
  695MOL0     H93773  10.636   4.272   9.095  1.6597  1.4505 -1.1117
  695MOL0     H93774  10.867   4.281   8.967 -1.8551  3.3642  0.5762
  695MOL0     H93775  10.878   4.314   9.143  0.0326 -0.8509  1.2363
  695MOL0     H93776  10.925   4.117   9.307 -2.7657 -0.1304 -2.1631
  695MOL0     H93777  11.112   3.980   9.418 -0.5737 -0.4079  0.1357
  695MOL0     H93778  11.103   3.834   9.310 -0.1393  0.0618  1.6274
  695MOL0     H93779  11.319   3.897   9.212  1.5798  1.6501  0.9523
  695MOL0     H93780  11.341   4.026   9.327  0.7557  0.6141 -1.3972
  695MOL0     H93781  11.390   3.749   9.346  1.4112  0.8300  0.2199
  695MOL0     H93782  11.262   3.785   9.471  0.3606 -3.3674 -1.5542
  695MOL0     H93783  11.422   3.944   9.574 -1.8559 -1.2611  1.5289
  695MOL0     H93784  11.537   3.901   9.448 -0.7415  1.5660  1.0724
  695MOL0     H93785  11.581   3.536   9.681 -0.5001  0.9308  0.0577
  695MOL0     H93786  11.775   3.508   9.805 -0.4425 -0.8904 -0.8275
  695MOL0     H93787  12.238   3.659   9.731 -0.0868  0.5172 -0.3965
  695MOL0     H93788  12.453   3.592   9.796 -0.6803 -0.7684 -0.0234
  695MOL0     H93789  12.624   3.524   9.919 -2.0711  0.5080 -0.5930
  695MOL0     H93790  12.728   3.653   9.867 -2.4687 -0.4835 -1.9627
  695MOL0     H93791  12.821   3.651  10.107  1.1551  0.3127 -0.2981
  695MOL0     H93792  12.755   3.483  10.117  0.1641 -1.0648 -2.0473
  695MOL0     H93793  12.886   3.432   9.906 -1.7593 -2.0429  1.9172
  695MOL0     H93794  12.976   3.585   9.949 -0.4932  0.7099  2.1754
  695MOL0     H93795  12.962   3.347  10.145  3.5849 -2.1121 -0.2197
  695MOL0     H93796  13.046   3.490  10.162 -0.1017  0.8937 -0.9408
  695MOL0     H93797  13.178   3.441   9.943  1.2925 -0.9530  0.3568
  695MOL0     H93798  13.098   3.288   9.941 -1.3756 -0.7520  0.9229
  695MOL0     H93799  13.283   3.414  10.161 -0.1444  0.4632  0.1720
  695MOL0     H93800  13.190   3.257  10.182  0.8066 -0.0365 -0.0923
  695MOL0     H93801  13.417   3.308   9.978  0.7684 -0.8522 -1.0256
  695MOL0     H93802  13.294   3.181   9.978  0.5378  0.5196 -0.2063
  695MOL0     H93803  13.360   3.118  10.206 -3.2679  2.3441 -1.4277
  695MOL0     H93804  13.507   3.104  10.103  1.8635 -0.4366  2.7716
  695MOL0     H93805  12.415   3.840  10.148 -2.0874  0.9004  0.4800
  695MOL0     H93806  12.187   3.909  10.065  1.4372  0.1305  2.0215
  695MOL0     H93807  11.847   3.932   9.794  3.0197 -2.8027 -0.1643
  695MOL0     H93808  11.626   3.967   9.696  1.0864  0.6482  5.4248
  695MOL0     H93809  10.018   3.878   8.445 -0.3176 -2.4006 -2.2341
  695MOL0     H93810   9.795   3.791   8.365  4.4606  2.5446 -1.5950
  695MOL0     H93811   9.406   3.599   8.618 -2.3402  1.0217  0.1235
  695MOL0     H93812   9.185   3.520   8.611  1.5400 -0.5769  0.0655
  695MOL0     H93813   9.111   3.094   8.597 -1.3482  0.7329  1.0266
  695MOL0     H93814   9.105   3.117   8.423 -3.5690 -1.3447 -1.5440
  695MOL0     H93815   8.865   3.155   8.604  0.1819 -2.6528  1.0404
  695MOL0     H93816   8.890   3.027   8.510  0.3643  0.6112  4.1819
  695MOL0     H93817   8.923   3.211   8.312  2.6485  1.5176  1.9357
  695MOL0     H93818   8.849   3.317   8.420 -2.0338 -0.1403 -0.7005
  695MOL0     H93819   8.729   3.055   8.315 -1.4778 -0.3911 -0.4410
  695MOL0     H93820   8.647   3.149   8.447  1.1258  1.8715  1.0878
  695MOL0     H93821   8.541   3.353   8.099 -1.0971  0.0361  0.7098
  695MOL0     H93822   9.296   3.160   8.412 -1.1596  0.8584 -0.0191
  695MOL0     H93823   9.595   3.139   8.475 -0.6113 -0.9638  0.2970
  695MOL0     H93824   9.498   3.133   8.321 -1.2135  1.9684 -1.2525
  695MOL0     H93825   9.624   3.254   8.334 -0.9154  0.6149 -1.0656
  696MOL0     O93826   6.165  11.157   4.747 -0.3660 -0.0009 -1.1314
  696MOL0     C93827   6.132  11.071   4.833 -0.5621  0.1185  0.2186
  696MOL0     O93828   6.218  10.995   4.906  0.1881 -0.0531 -0.0575
  696MOL0     C93829   6.341  10.980   4.860  0.3525  0.3755  0.3864
  696MOL0     C93830   6.372  10.880   4.764 -0.6077  0.4825 -0.1556
  696MOL0     C93831   6.512  10.868   4.728 -1.4235  0.7076 -0.2069
  696MOL0     C93832   6.612  10.958   4.770 -0.0802  0.7398  0.5056
  696MOL0     O93833   6.744  10.961   4.727 -0.6496 -0.1258  0.0094
  696MOL0     C93834   6.776  10.847   4.640  0.5498  0.6463  0.7032
  696MOL0     C93835   6.930  10.849   4.608  0.0918 -0.8307  0.0939
  696MOL0     C93836   6.981  10.756   4.503 -0.4858  0.2056 -0.6450
  696MOL0     C93837   6.991  10.613   4.559 -0.0652 -0.3276 -0.0969
  696MOL0     C93838   7.083  10.529   4.466 -0.3263  0.1677 -0.8511
  696MOL0     C93839   7.091  10.382   4.508  0.2730 -0.4918 -0.1245
  696MOL0     C93840   7.146  10.355   4.653 -0.9753  0.0849  0.4998
  696MOL0     C93841   7.177  10.212   4.679 -0.6972 -0.3132 -0.4672
  696MOL0     N93842   7.250  10.198   4.810 -0.4270  0.0185 -0.5417
  696MOL0     C93843   7.175  10.207   4.926  0.0994  0.4723  0.1472
  696MOL0     C93844   7.268  10.208   5.014  0.0398  0.0233 -1.0023
  696MOL0     C93845   7.231  10.191   5.162 -0.0443 -0.1388 -1.3742
  696MOL0     C93846   7.351  10.182   5.258  0.7893 -0.3740  0.0963
  696MOL0     C93847   7.451  10.301   5.250  0.2125  0.3727  0.5324
  696MOL0     C93848   7.595  10.273   5.292  0.5544 -0.6294 -0.2363
  696MOL0     O93849   7.604  10.235   5.431 -0.1487  0.1130  0.3020
  696MOL0     C93850   7.723  10.179   5.483  0.4467  0.0072 -0.5128
  696MOL0     C93851   7.733  10.163   5.623 -0.4110 -0.6225  0.3855
  696MOL0     C93852   7.850  10.119   5.686 -1.0604 -0.3166 -0.9196
  696MOL0     C93853   7.960  10.087   5.599 -1.0230  0.0269 -0.7354
  696MOL0     C93854   8.090  10.025   5.654 -0.3119 -0.0473 -0.0640
  696MOL0     O93855   8.169   9.964   5.553 -0.3690  0.6503 -0.5838
  696MOL0     C93856   8.256   9.872   5.601 -0.0136 -1.1391  0.0679
  696MOL0     C93857   8.386   9.914   5.653  0.6024 -0.0459  0.8802
  696MOL0     C93858   8.488   9.814   5.674  0.4422 -1.0467 -0.1916
  696MOL0     C93859   8.452   9.682   5.662  0.3013  0.6571 -0.0216
  696MOL0     O93860   8.552   9.585   5.690 -0.8421  0.1896  0.8244
  696MOL0     C93861   8.544   9.464   5.607 -0.0149 -0.3486 -0.7071
  696MOL0     C93862   8.642   9.363   5.656  1.2735 -0.3601  0.1556
  696MOL0     C93863   8.786   9.425   5.653 -0.0664  1.0997 -0.0845
  696MOL0     C93864   8.910   9.332   5.676  0.3066 -0.6300  1.2556
  696MOL0     C93865   9.038   9.416   5.663  0.1732  0.4532 -0.7336
  696MOL0     C93866   9.151   9.319   5.657 -0.9677  0.4066 -0.2492
  696MOL0     C93867   9.280   9.386   5.626 -0.1488  1.6130 -0.6297
  696MOL0     C93868   9.405   9.299   5.610  0.5941  0.2263  0.2165
  696MOL0    Cl93869   9.558   9.378   5.570 -0.1241  0.2895  0.0799
  696MOL0     C93870   8.326   9.641   5.611  0.2415 -0.1133  0.0439
  696MOL0     C93871   8.232   9.734   5.576 -0.7557 -0.0573  0.6939
  696MOL0     O93872   8.127  10.046   5.769  0.4783 -0.1360 -0.0861
  696MOL0     C93873   7.952  10.113   5.465 -0.6951  0.6646  0.2045
  696MOL0     C93874   7.837  10.157   5.401 -0.0040  0.6354  0.0125
  696MOL0     N93875   7.396  10.197   4.963 -0.2743  0.8412 -0.3236
  696MOL0     N93876   7.383  10.194   4.839  0.6848 -0.1750 -0.1866
  696MOL0     C93877   6.571  11.060   4.862 -0.0494 -0.0825 -0.1692
  696MOL0     C93878   6.436  11.068   4.909  0.0562 -0.3923  0.2976
  696MOL0     C93879   5.995  11.058   4.877 -0.0712  0.2609 -0.2972
  696MOL0     C93880   5.903  11.133   4.808 -0.7489  0.0848  0.1564
  696MOL0     C93881   5.767  11.123   4.827 -0.3195  0.5778 -0.5033
  696MOL0     C93882   5.710  11.037   4.921 -0.7117 -0.2081  0.2732
  696MOL0     O93883   5.579  11.047   4.963  0.3923 -0.0512  0.5151
  696MOL0     C93884   5.483  11.020   4.860  0.7026 -0.4594  0.2810
  696MOL0     C93885   5.448  10.877   4.859  0.0635  0.6194  0.5124
  696MOL0     C93886   5.336  10.841   4.754 -0.0253 -0.0129  0.3648
  696MOL0     C93887   5.198  10.850   4.797  1.1139 -0.7510  0.1506
  696MOL0     C93888   5.141  10.986   4.786 -0.0064 -0.3133 -0.2475
  696MOL0     C93889   5.101  11.100   4.775  0.4671 -0.8605 -0.2009
  696MOL0     C93890   5.803  10.960   4.995  0.6272  0.5519  0.8270
  696MOL0     C93891   5.941  10.963   4.972 -0.2431  0.0757  0.5292
  696MOL0     C93892   6.025  10.870   5.053  0.1421  0.7595  0.1958
  696MOL0     H93893   6.296  10.818   4.719  0.0441 -0.3655 -0.1094
  696MOL0     H93894   6.539  10.781   4.669  2.9718  2.2720 -0.8977
  696MOL0     H93895   6.764  10.751   4.690  0.6224  0.4997  0.4411
  696MOL0     H93896   6.705  10.843   4.556  0.7131 -3.0800  0.5956
  696MOL0     H93897   6.988  10.837   4.700 -1.4896  0.0704  1.2656
  696MOL0     H93898   6.948  10.953   4.580  0.8948 -0.9635  0.1119
  696MOL0     H93899   7.084  10.786   4.479  0.1528 -1.1338  0.2730
  696MOL0     H93900   6.928  10.749   4.407 -1.3319  0.1457 -0.1766
  696MOL0     H93901   7.028  10.616   4.662 -1.3867  3.8966  0.4286
  696MOL0     H93902   6.890  10.573   4.555 -0.3745  0.1323  1.8822
  696MOL0     H93903   7.051  10.535   4.361  0.0396  2.6072 -0.8602
  696MOL0     H93904   7.183  10.572   4.475 -0.4600  0.0874  1.4707
  696MOL0     H93905   6.988  10.343   4.506 -0.4225  1.3183 -1.0232
  696MOL0     H93906   7.152  10.328   4.436  2.1362  2.1882 -0.6882
  696MOL0     H93907   7.088  10.398   4.734 -0.9996 -3.0613  2.3375
  696MOL0     H93908   7.246  10.399   4.649 -2.3457  3.4156  0.5246
  696MOL0     H93909   7.079  10.165   4.690 -1.1080  0.9282  1.8137
  696MOL0     H93910   7.232  10.169   4.595 -0.9018  1.7862 -1.7311
  696MOL0     H93911   7.068  10.221   4.932 -0.2760 -2.2276  1.5804
  696MOL0     H93912   7.159  10.269   5.188  0.5493  0.1458 -0.5502
  696MOL0     H93913   7.173  10.099   5.177  1.2849 -0.5485  2.2512
  696MOL0     H93914   7.325  10.150   5.359  0.9582  0.5588  0.4452
  696MOL0     H93915   7.401  10.089   5.230  0.8246  0.0825 -1.4786
  696MOL0     H93916   7.393  10.364   5.318  0.4786 -1.8948  3.0602
  696MOL0     H93917   7.457  10.344   5.150 -0.9592  0.3788  0.4462
  696MOL0     H93918   7.652  10.363   5.264 -0.4265 -0.2741 -1.1851
  696MOL0     H93919   7.631  10.190   5.231 -0.0240 -1.5922  0.7146
  696MOL0     H93920   7.661  10.205   5.693 -0.9052 -0.7542 -0.0353
  696MOL0     H93921   7.856  10.100   5.793 -0.6675  1.7246 -0.5281
  696MOL0     H93922   8.416  10.018   5.658  2.3182 -0.2077 -2.6577
  696MOL0     H93923   8.581   9.845   5.720  2.0118 -3.0202 -1.7953
  696MOL0     H93924   8.447   9.417   5.626 -0.0535  0.1559  0.4573
  696MOL0     H93925   8.563   9.484   5.501  0.1321 -0.5100 -0.7106
  696MOL0     H93926   8.620   9.335   5.759  1.4496  2.1629  0.9475
  696MOL0     H93927   8.640   9.277   5.589 -1.3400 -0.7176  0.5740
  696MOL0     H93928   8.793   9.464   5.551 -0.7138 -0.2314 -0.6719
  696MOL0     H93929   8.794   9.513   5.716  1.1058  1.3098 -0.5072
  696MOL0     H93930   8.917   9.260   5.594  1.4516  0.1236  0.6582
  696MOL0     H93931   8.897   9.278   5.770 -1.9968 -3.6224 -0.5794
  696MOL0     H93932   9.055   9.490   5.743  4.0935 -0.7325 -0.2300
  696MOL0     H93933   9.029   9.470   5.569 -0.9738 -2.0016 -2.1110
  696MOL0     H93934   9.160   9.266   5.752 -0.5384 -0.7983 -0.9460
  696MOL0     H93935   9.136   9.255   5.569  0.5099 -0.2792 -0.0254
  696MOL0     H93936   9.292   9.459   5.706 -1.7476 -0.2732  1.4565
  696MOL0     H93937   9.265   9.449   5.538 -1.1264  0.3974 -1.3758
  696MOL0     H93938   9.416   9.237   5.700  0.3019 -0.3719 -0.1577
  696MOL0     H93939   9.375   9.231   5.530  0.0880  1.9685 -1.1216
  696MOL0     H93940   8.298   9.540   5.583 -1.4890  0.7033 -1.3386
  696MOL0     H93941   8.136   9.722   5.527  0.2277 -0.1804 -1.2825
  696MOL0     H93942   8.032  10.082   5.399 -0.7608  0.0236  0.4182
  696MOL0     H93943   7.834  10.171   5.294  0.0762  1.6519  0.1373
  696MOL0     H93944   6.652  11.114   4.908  0.8702 -1.1214 -0.5317
  696MOL0     H93945   6.408  11.151   4.974 -1.6701  1.4593 -2.5591
  696MOL0     H93946   5.937  11.206   4.735  0.5492  0.0859  0.7275
  696MOL0     H93947   5.699  11.198   4.787  0.0277  1.5826  0.7510
  696MOL0     H93948   5.522  11.052   4.763  0.6996  1.8721  0.9813
  696MOL0     H93949   5.391  11.076   4.879 -0.3562 -2.3288  0.8786
  696MOL0     H93950   5.418  10.840   4.957  1.9188 -1.1336  0.4874
  696MOL0     H93951   5.537  10.819   4.833 -0.2615  1.0479 -1.7384
  696MOL0     H93952   5.352  10.740   4.715 -2.3447 -0.1999 -0.2208
  696MOL0     H93953   5.363  10.900   4.665  2.6311 -1.6754 -0.0522
  696MOL0     H93954   5.132  10.782   4.742 -0.5656  2.4761 -2.1759
  696MOL0     H93955   5.202  10.829   4.905  0.8332  0.8951  0.5035
  696MOL0     H93956   5.073  11.203   4.766  2.5427 -0.3839 -1.9520
  696MOL0     H93957   5.766  10.892   5.071 -2.2995  1.8278  0.6698
  696MOL0     H93958   6.100  10.930   5.106  1.4838 -1.8251  1.4114
  696MOL0     H93959   5.963  10.810   5.120 -1.4852  1.5890 -0.5100
  696MOL0     H93960   6.061  10.796   4.980  1.9126  3.1120 -1.5018
  697MOL0     O93961  11.058  10.421   9.323  0.0556  0.3334 -0.0275
  697MOL0     C93962  11.017  10.532   9.301 -0.3336 -0.0274 -0.7920
  697MOL0     O93963  11.088  10.649   9.295 -0.4455 -0.0557  0.1047
  697MOL0     C93964  11.221  10.635   9.268 -0.7902 -0.8196  0.2587
  697MOL0     C93965  11.266  10.655   9.135  0.1017 -0.7392  0.1210
  697MOL0     C93966  11.402  10.661   9.106 -0.1925 -0.2247 -0.1545
  697MOL0     C93967  11.494  10.644   9.213  0.4021 -0.4742  0.2067
  697MOL0     O93968  11.622  10.618   9.210 -0.1670  0.0001  0.4123
  697MOL0     C93969  11.660  10.508   9.134 -0.8662  0.1864 -0.5326
  697MOL0     C93970  11.808  10.520   9.109 -0.0860  0.3253  0.1527
  697MOL0     C93971  11.860  10.389   9.040  0.5647  0.5335  0.2435
  697MOL0     C93972  12.005  10.380   9.077  0.9260  0.1556 -0.0305
  697MOL0     C93973  12.085  10.285   8.992 -0.1363 -0.2849  0.0434
  697MOL0     C93974  12.226  10.290   9.038  0.3512 -0.4922 -0.7385
  697MOL0     C93975  12.324  10.277   8.922 -0.1080  0.1281 -0.0314
  697MOL0     C93976  12.469  10.274   8.948 -0.1610  0.5027  0.9764
  697MOL0     N93977  12.501  10.410   8.997  0.1725  0.5055 -0.8511
  697MOL0     C93978  12.481  10.542   8.954  0.2343 -0.7855 -0.0516
  697MOL0     C93979  12.527  10.621   9.059 -0.0664  0.5607  0.2669
  697MOL0     C93980  12.501  10.772   9.078  0.3307 -0.1847  0.0754
  697MOL0     C93981  12.356  10.812   9.131 -0.9779  0.8747  1.1408
  697MOL0     C93982  12.302  10.702   9.216  0.8047  0.2398 -0.6864
  697MOL0     C93983  12.151  10.734   9.257  0.5959 -0.7296  0.6704
  697MOL0     O93984  12.112  10.867   9.296 -0.5492 -0.5244 -0.6202
  697MOL0     C93985  11.983  10.889   9.342 -0.6051 -0.0314 -0.5211
  697MOL0     C93986  11.894  10.808   9.419  0.6766 -0.4616 -0.3563
  697MOL0     C93987  11.762  10.851   9.446 -0.7038  0.1747 -0.0068
  697MOL0     C93988  11.733  10.988   9.420  0.7740 -0.4397 -0.1911
  697MOL0     C93989  11.597  11.037   9.456  1.0678 -0.0707 -0.1826
  697MOL0     O93990  11.573  11.176   9.438 -0.1709  0.9200  0.0537
  697MOL0     C93991  11.452  11.234   9.456 -0.3387  0.0215  0.4700
  697MOL0     C93992  11.333  11.159   9.439  0.7241 -0.8593  0.5032
  697MOL0     C93993  11.215  11.223   9.456  0.2218  0.1104 -0.2650
  697MOL0     C93994  11.209  11.361   9.501  0.4067  0.4196  0.1219
  697MOL0     O93995  11.078  11.403   9.518  0.0020  0.7075 -0.2478
  697MOL0     C93996  11.052  11.542   9.529 -0.1155  0.0030  0.3889
  697MOL0     C93997  10.913  11.575   9.572  0.0491  0.4427  0.0110
  697MOL0     C93998  10.864  11.708   9.525  0.5450 -1.2315  0.2921
  697MOL0     C93999  10.733  11.707   9.600  1.1159  0.4798  0.0139
  697MOL0     C94000  10.656  11.844   9.573 -0.6042 -0.5393  0.6259
  697MOL0     C94001  10.515  11.816   9.531  0.3245 -0.1351 -0.0438
  697MOL0     C94002  10.436  11.940   9.494  0.0596  0.1321 -0.0829
  697MOL0     C94003  10.292  11.921   9.542 -0.3973  0.4552 -0.3339
  697MOL0    Cl94004  10.217  12.085   9.549 -0.3568 -0.4062 -0.6914
  697MOL0     C94005  11.326  11.437   9.508 -0.6113 -0.7346 -0.2721
  697MOL0     C94006  11.448  11.374   9.493  0.6959  0.1964 -0.1452
  697MOL0     O94007  11.523  10.954   9.505  0.6250  0.6976  0.5395
  697MOL0     C94008  11.815  11.071   9.348 -0.8924  0.3888 -0.7762
  697MOL0     C94009  11.943  11.022   9.312  0.3591 -0.2381  0.1211
  697MOL0     N94010  12.583  10.540   9.151 -0.2892 -0.3690  0.2619
  697MOL0     N94011  12.575  10.419   9.115  0.1156 -0.4804  0.0182
  697MOL0     C94012  11.440  10.646   9.349 -0.2653  0.0522 -0.8195
  697MOL0     C94013  11.311  10.643   9.374  0.8841  0.1694  1.3871
  697MOL0     C94014  10.870  10.556   9.308  0.0242 -0.4108 -1.0418
  697MOL0     C94015  10.823  10.681   9.362 -0.0686 -0.1924  0.1761
  697MOL0     C94016  10.687  10.705   9.399 -0.4124  0.8620  0.2723
  697MOL0     C94017  10.586  10.605   9.370 -0.2841 -0.3113  0.0605
  697MOL0     O94018  10.453  10.613   9.408  0.5663  0.0224  0.4321
  697MOL0     C94019  10.427  10.719   9.503 -0.3695  0.3658 -0.3972
  697MOL0     C94020  10.290  10.693   9.559  0.6262 -0.0731 -0.5890
  697MOL0     C94021  10.217  10.826   9.601  0.1462  0.2692 -0.2383
  697MOL0     C94022  10.080  10.794   9.655  0.3243 -0.5122 -1.1379
  697MOL0     C94023  10.097  10.715   9.781 -0.0979  0.6824  0.4680
  697MOL0     C94024  10.114  10.657   9.884 -0.3435  0.0881 -0.3818
  697MOL0     C94025  10.635  10.493   9.305 -0.5696 -0.2509 -0.9164
  697MOL0     C94026  10.770  10.465   9.278  0.8144 -0.1247  0.2764
  697MOL0     C94027  10.799  10.329   9.213  1.0700  0.0605 -0.3332
  697MOL0     H94028  11.195  10.665   9.053  0.2273  1.8267  0.2302
  697MOL0     H94029  11.427  10.673   9.001 -0.7625  1.3203 -0.1391
  697MOL0     H94030  11.631  10.420   9.191 -1.4932  2.1102  2.3147
  697MOL0     H94031  11.612  10.518   9.036 -3.3149 -1.2001  0.4405
  697MOL0     H94032  11.861  10.535   9.204 -0.6473 -1.0694  0.7216
  697MOL0     H94033  11.831  10.606   9.047  3.1588 -1.0537 -0.7578
  697MOL0     H94034  11.845  10.403   8.933 -1.3246 -0.4380  0.3356
  697MOL0     H94035  11.820  10.292   9.071  2.8039 -0.2205  0.9708
  697MOL0     H94036  12.042  10.482   9.064  0.0603  0.5927  0.8649
  697MOL0     H94037  12.005  10.359   9.184 -0.5854  2.7891  0.5756
  697MOL0     H94038  12.049  10.184   9.011  2.3763 -1.0956  0.8184
  697MOL0     H94039  12.075  10.311   8.886 -1.3021  0.5690  0.3482
  697MOL0     H94040  12.248  10.387   9.084  1.5819 -2.2600  2.7452
  697MOL0     H94041  12.230  10.217   9.120 -3.4265  0.9847  0.9905
  697MOL0     H94042  12.302  10.353   8.846  2.2174 -0.2800 -1.2202
  697MOL0     H94043  12.287  10.191   8.865 -2.3329 -1.0903  2.9560
  697MOL0     H94044  12.496  10.192   9.015  0.6326  0.2196  0.3204
  697MOL0     H94045  12.515  10.267   8.850 -3.1348  1.0822 -0.5805
  697MOL0     H94046  12.428  10.574   8.865 -0.9712 -2.6019 -0.0420
  697MOL0     H94047  12.578  10.808   9.147 -0.7501  0.3256  1.0513
  697MOL0     H94048  12.522  10.834   8.991  1.9221  0.4841  0.8852
  697MOL0     H94049  12.375  10.904   9.187  2.4767  0.6343  0.5949
  697MOL0     H94050  12.295  10.823   9.040  0.9157 -2.5009 -0.7255
  697MOL0     H94051  12.364  10.680   9.303 -0.9402 -1.2051  0.2603
  697MOL0     H94052  12.300  10.613   9.154  1.7231 -1.0453  1.0354
  697MOL0     H94053  12.121  10.660   9.332  1.2202 -1.4949  0.1772
  697MOL0     H94054  12.091  10.705   9.170 -0.4300 -1.6032  1.6306
  697MOL0     H94055  11.910  10.707   9.455 -1.1204 -1.1933 -1.4544
  697MOL0     H94056  11.683  10.797   9.496 -2.2483  0.2205 -2.2310
  697MOL0     H94057  11.338  11.056   9.405  1.1707  0.5643 -4.6561
  697MOL0     H94058  11.122  11.179   9.420 -0.6345  1.1395  0.6201
  697MOL0     H94059  11.108  11.593   9.607 -1.0699  1.2555  0.2971
  697MOL0     H94060  11.089  11.586   9.436  0.8748 -0.4073  0.5793
  697MOL0     H94061  10.845  11.502   9.527  0.2460  0.1898  0.1215
  697MOL0     H94062  10.896  11.563   9.679 -0.2212 -1.9114 -0.2399
  697MOL0     H94063  10.930  11.792   9.550  0.6883 -1.3202  0.2161
  697MOL0     H94064  10.849  11.714   9.417 -1.0577 -0.1184  0.5498
  697MOL0     H94065  10.745  11.695   9.708 -0.8586 -0.5722  0.1581
  697MOL0     H94066  10.666  11.628   9.568  0.1357  0.9330  0.9041
  697MOL0     H94067  10.709  11.913   9.506 -0.9295 -1.3729 -0.5126
  697MOL0     H94068  10.647  11.902   9.666  2.8163  0.4500  0.4519
  697MOL0     H94069  10.523  11.748   9.445 -0.7143 -0.4791  0.1097
  697MOL0     H94070  10.465  11.760   9.611 -2.0853  0.0232 -1.3372
  697MOL0     H94071  10.445  11.957   9.386  4.3243 -1.0276 -0.0786
  697MOL0     H94072  10.485  12.021   9.550 -0.4019 -0.9226  1.9196
  697MOL0     H94073  10.243  11.850   9.476  0.9073  0.7803 -1.7048
  697MOL0     H94074  10.278  11.878   9.642 -3.7094  3.2247  0.6017
  697MOL0     H94075  11.316  11.542   9.533  0.5330 -1.1681  2.3800
  697MOL0     H94076  11.531  11.438   9.518 -0.2093  0.8320  1.3226
  697MOL0     H94077  11.788  11.170   9.313 -2.6825 -0.4088 -1.8156
  697MOL0     H94078  12.003  11.094   9.257 -1.7087  0.9584 -0.6816
  697MOL0     H94079  11.514  10.653   9.428  0.6765  1.5526 -1.7674
  697MOL0     H94080  11.262  10.650   9.470 -0.8784  0.4538  0.4971
  697MOL0     H94081  10.895  10.756   9.395 -1.5701  1.0698  0.7645
  697MOL0     H94082  10.670  10.793   9.459 -1.3082  0.1910  1.0284
  697MOL0     H94083  10.428  10.818   9.458  0.3018  1.5066  1.9657
  697MOL0     H94084  10.496  10.732   9.587 -1.4431  1.4328  0.3471
  697MOL0     H94085  10.308  10.619   9.638 -0.1931 -0.2106 -0.5229
  697MOL0     H94086  10.230  10.643   9.482  0.2865  0.4192 -0.6482
  697MOL0     H94087  10.190  10.894   9.519 -1.3272 -1.5709 -1.3583
  697MOL0     H94088  10.287  10.882   9.663  0.2661 -0.1767  0.0340
  697MOL0     H94089  10.035  10.890   9.681  1.0747 -0.7018  1.0680
  697MOL0     H94090  10.013  10.744   9.585 -0.3859  0.8662 -1.4598
  697MOL0     H94091  10.130  10.598   9.971  3.0230  0.8181 -0.3504
  697MOL0     H94092  10.571  10.411   9.275  1.1021 -2.0986  0.3408
  697MOL0     H94093  10.871  10.334   9.131  1.9552 -2.1058  0.2389
  697MOL0     H94094  10.841  10.263   9.289  0.1798 -1.0639 -0.7762
  697MOL0     H94095  10.714  10.278   9.167  0.4317  1.4966 -0.8064
  698MOL0     O94096   1.904   3.392   2.966 -0.2228  0.2724 -0.2402
  698MOL0     C94097   1.884   3.365   3.084  0.0083 -0.4368 -0.1451
  698MOL0     O94098   1.984   3.333   3.177 -0.2571  0.8856 -0.2740
  698MOL0     C94099   2.118   3.351   3.146 -0.0439  0.9331 -0.2747
  698MOL0     C94100   2.213   3.293   3.235  0.1944  0.1454 -0.2359
  698MOL0     C94101   2.352   3.301   3.223  0.3210 -0.1923 -1.2128
  698MOL0     C94102   2.412   3.380   3.116  0.3475  0.2843 -0.5846
  698MOL0     O94103   2.546   3.382   3.078 -0.2447 -0.1337 -1.0366
  698MOL0     C94104   2.648   3.425   3.179  0.2784  0.6691  0.4731
  698MOL0     C94105   2.773   3.369   3.119 -0.2681 -0.2740  0.7379
  698MOL0     C94106   2.906   3.439   3.170  0.4679 -0.1846 -0.6502
  698MOL0     C94107   3.017   3.397   3.074 -0.8349  0.9893 -0.0717
  698MOL0     C94108   3.155   3.395   3.147 -0.4967  0.3872 -0.1194
  698MOL0     C94109   3.253   3.365   3.027 -0.6439 -0.4630 -0.3527
  698MOL0     C94110   3.404   3.383   3.078  1.1641 -0.0260 -0.0001
  698MOL0     C94111   3.449   3.253   3.145 -0.6533 -0.5006  1.0728
  698MOL0     N94112   3.525   3.170   3.053  0.1761  0.1380  0.6876
  698MOL0     C94113   3.662   3.165   3.043 -0.0924 -0.0530 -0.1939
  698MOL0     C94114   3.684   3.054   2.970  0.0813  0.6494 -0.7200
  698MOL0     C94115   3.804   3.010   2.891 -0.0752  0.3563 -0.4235
  698MOL0     C94116   3.932   3.009   2.982 -0.2681 -0.2284 -0.3444
  698MOL0     C94117   4.059   2.972   2.894  0.5941 -0.0210 -0.0556
  698MOL0     C94118   4.167   2.955   2.991 -0.0321  0.5122  0.6223
  698MOL0     O94119   4.295   2.955   2.908  0.5078 -0.2626  0.0918
  698MOL0     C94120   4.403   2.873   2.935 -0.5663 -0.9248 -0.2063
  698MOL0     C94121   4.518   2.907   2.857 -0.1388 -1.1541 -0.6838
  698MOL0     C94122   4.635   2.836   2.867  0.0338 -0.4312 -0.3467
  698MOL0     C94123   4.642   2.728   2.956 -0.6373 -0.2394 -0.2791
  698MOL0     C94124   4.753   2.642   2.972 -0.8369 -0.5848  0.9626
  698MOL0     O94125   4.870   2.656   2.892  0.1686  0.1429  0.4562
  698MOL0     C94126   4.990   2.625   2.944 -0.1377  0.2507 -0.6265
  698MOL0     C94127   5.033   2.656   3.078  0.0447 -0.2583 -0.1589
  698MOL0     C94128   5.165   2.639   3.121 -0.7873  0.5945 -0.0718
  698MOL0     C94129   5.257   2.581   3.033 -1.0690 -0.6921 -1.9883
  698MOL0     O94130   5.380   2.537   3.063 -0.1093  0.2617  0.4573
  698MOL0     C94131   5.438   2.604   3.187  0.4413  0.2255  0.5705
  698MOL0     C94132   5.586   2.574   3.173 -0.3075 -0.1138  0.0233
  698MOL0     C94133   5.677   2.611   3.285 -0.2500  0.4133 -0.0846
  698MOL0     C94134   5.824   2.588   3.257  0.9550 -0.2862 -0.0010
  698MOL0     C94135   5.902   2.608   3.396 -0.4599 -0.1690  0.0776
  698MOL0     C94136   6.052   2.584   3.383  0.5578  0.3139  0.7061
  698MOL0     C94137   6.140   2.698   3.428 -1.4405  0.3396  0.3198
  698MOL0     C94138   6.284   2.651   3.468 -0.3985 -0.6941  0.3540
  698MOL0    Cl94139   6.282   2.553   3.618  0.5191 -0.1291  0.2563
  698MOL0     C94140   5.218   2.535   2.906  0.7426 -0.3586 -0.0469
  698MOL0     C94141   5.089   2.559   2.861 -0.8849  0.2015  0.0330
  698MOL0     O94142   4.750   2.571   3.068  0.0428 -0.1023 -0.3314
  698MOL0     C94143   4.529   2.695   3.035 -0.7068 -0.4127 -0.2958
  698MOL0     C94144   4.407   2.767   3.025 -0.1160 -0.8627 -0.0896
  698MOL0     N94145   3.562   2.994   2.942 -0.3196 -0.4563  0.3776
  698MOL0     N94146   3.468   3.066   2.986  0.8055 -0.6658 -0.1156
  698MOL0     C94147   2.322   3.433   3.025 -0.2092 -0.7115 -0.1677
  698MOL0     C94148   2.177   3.430   3.044  0.6707  0.0142  0.1201
  698MOL0     C94149   1.744   3.366   3.128  0.8125  0.9572  0.9642
  698MOL0     C94150   1.713   3.314   3.255  0.2272  0.0007 -0.0000
  698MOL0     C94151   1.582   3.319   3.311  0.1873  0.1023 -0.0960
  698MOL0     C94152   1.476   3.360   3.232 -0.0012  0.3265 -0.6796
  698MOL0     O94153   1.346   3.373   3.278 -0.0103 -0.1854 -0.5770
  698MOL0     C94154   1.315   3.367   3.415 -0.2212 -1.6013 -1.3359
  698MOL0     C94155   1.169   3.415   3.446 -0.4629 -0.3556  0.0281
  698MOL0     C94156   1.147   3.565   3.439  0.2328 -0.0148  0.7883
  698MOL0     C94157   0.997   3.596   3.439  0.0916  0.0878 -0.2857
  698MOL0     C94158   0.980   3.745   3.460  0.8302  0.5279  1.3752
  698MOL0     C94159   0.966   3.863   3.462 -0.2520  0.2207  0.1445
  698MOL0     C94160   1.503   3.396   3.098  0.0900  0.4917 -0.9208
  698MOL0     C94161   1.633   3.405   3.047  0.1906 -0.1105  0.3915
  698MOL0     C94162   1.639   3.424   2.894  0.1225 -0.0086 -0.4952
  698MOL0     H94163   2.171   3.217   3.301 -2.2306 -0.8520 -2.6978
  698MOL0     H94164   2.410   3.241   3.292  0.3245  1.1107 -0.0479
  698MOL0     H94165   2.649   3.534   3.184  1.0493  0.6278  1.4263
  698MOL0     H94166   2.626   3.383   3.277 -0.1117 -0.2913 -0.0090
  698MOL0     H94167   2.767   3.384   3.010  2.1180 -1.2891  0.3900
  698MOL0     H94168   2.778   3.261   3.137  1.6237 -0.5111 -0.8180
  698MOL0     H94169   2.934   3.402   3.269  2.4221  3.8447  0.5161
  698MOL0     H94170   2.891   3.547   3.167  2.0184  0.0515 -3.2595
  698MOL0     H94171   3.005   3.303   3.020  0.9893  0.5803  0.1788
  698MOL0     H94172   3.027   3.474   2.996  1.2263  0.1349 -0.7262
  698MOL0     H94173   3.180   3.480   3.210  1.4508 -0.9650  1.0344
  698MOL0     H94174   3.161   3.302   3.203 -1.2992 -1.8121 -3.3697
  698MOL0     H94175   3.244   3.269   2.975  2.6340 -1.3782  0.5376
  698MOL0     H94176   3.235   3.438   2.948 -0.9240  0.9449  0.9617
  698MOL0     H94177   3.425   3.463   3.151  1.6739 -0.2923  0.1518
  698MOL0     H94178   3.466   3.401   2.990  0.4239  0.8256 -0.3705
  698MOL0     H94179   3.508   3.283   3.233  2.3688  0.9686 -1.2596
  698MOL0     H94180   3.354   3.205   3.170 -2.5656 -1.3024 -5.8720
  698MOL0     H94181   3.727   3.247   3.070 -1.7857  1.4173 -0.3645
  698MOL0     H94182   3.786   2.909   2.852 -0.5991  0.1358  0.3616
  698MOL0     H94183   3.828   3.071   2.803  0.0704 -3.5159 -3.3656
  698MOL0     H94184   3.942   3.109   3.025 -2.4322 -0.9645  2.1456
  698MOL0     H94185   3.910   2.936   3.061  1.8034  0.6631  1.1510
  698MOL0     H94186   4.081   3.052   2.823  0.4411  0.8516  0.8562
  698MOL0     H94187   4.045   2.875   2.845  2.0093  0.1660 -0.8953
  698MOL0     H94188   4.160   2.857   3.040  0.5911  0.6750  1.0515
  698MOL0     H94189   4.180   3.036   3.063  1.3295 -0.4040  1.4468
  698MOL0     H94190   4.498   2.987   2.786  2.5990 -1.6303 -2.1247
  698MOL0     H94191   4.715   2.875   2.805  0.5817  1.8450  1.6580
  698MOL0     H94192   4.966   2.724   3.129  0.2412  1.5148 -2.1316
  698MOL0     H94193   5.192   2.667   3.222 -2.3859  0.8420  0.3122
  698MOL0     H94194   5.413   2.710   3.193  2.5222  0.6970  1.9323
  698MOL0     H94195   5.395   2.558   3.276  1.8269 -0.2458  1.0193
  698MOL0     H94196   5.594   2.467   3.155 -1.9520 -0.0111 -1.6825
  698MOL0     H94197   5.631   2.604   3.078  2.1242 -3.4311 -0.0508
  698MOL0     H94198   5.666   2.716   3.314  0.1420  1.0672 -2.1709
  698MOL0     H94199   5.643   2.542   3.363  0.9631  0.8438  0.8629
  698MOL0     H94200   5.875   2.654   3.186  2.9362 -1.8044 -0.0601
  698MOL0     H94201   5.832   2.482   3.232  1.5873 -0.5590  1.3280
  698MOL0     H94202   5.864   2.530   3.463 -0.0191 -0.4673 -0.0175
  698MOL0     H94203   5.868   2.703   3.439  0.5710  1.8839 -3.2655
  698MOL0     H94204   6.076   2.497   3.445 -2.5157 -1.5900 -0.5422
  698MOL0     H94205   6.070   2.555   3.279 -2.6507  0.6655 -0.0507
  698MOL0     H94206   6.103   2.750   3.517  1.6291 -0.2446  2.0815
  698MOL0     H94207   6.143   2.772   3.348  0.6597 -0.4133 -0.3733
  698MOL0     H94208   6.339   2.597   3.391  0.6915 -0.8568  1.2101
  698MOL0     H94209   6.333   2.745   3.496  0.5477 -0.4637 -1.8758
  698MOL0     H94210   5.291   2.471   2.858 -1.2192 -5.6026  3.0847
  698MOL0     H94211   5.043   2.520   2.771  2.6882  2.2489 -2.9095
  698MOL0     H94212   4.529   2.607   3.098 -0.4468  0.9253  1.6505
  698MOL0     H94213   4.329   2.720   3.084 -0.5640 -1.9870 -1.5188
  698MOL0     H94214   2.373   3.504   2.961 -0.3800 -0.1239  0.3360
  698MOL0     H94215   2.120   3.480   2.967 -1.5497  0.5542  1.9896
  698MOL0     H94216   1.793   3.283   3.321 -1.3758 -1.7376  1.2336
  698MOL0     H94217   1.559   3.288   3.412  2.1346 -0.4556  0.2147
  698MOL0     H94218   1.377   3.425   3.484 -3.6430  0.7455  0.0244
  698MOL0     H94219   1.322   3.261   3.442 -1.4877 -1.0428  1.4471
  698MOL0     H94220   1.155   3.392   3.552  0.3737 -3.1215 -0.3800
  698MOL0     H94221   1.098   3.361   3.383  1.0202 -1.4722 -0.7504
  698MOL0     H94222   1.185   3.608   3.346  2.6041  1.3179  2.2805
  698MOL0     H94223   1.207   3.615   3.516  2.0961  1.9425 -1.7289
  698MOL0     H94224   0.939   3.555   3.356 -0.7805  2.7248 -1.0931
  698MOL0     H94225   0.950   3.554   3.529  0.8414 -3.1936 -1.3235
  698MOL0     H94226   0.960   3.969   3.450 -0.6139  0.5300  2.5809
  698MOL0     H94227   1.414   3.422   3.041  0.9441  0.7282 -2.1861
  698MOL0     H94228   1.691   3.343   2.842 -1.6242  0.2582 -2.8150
  698MOL0     H94229   1.539   3.442   2.854  0.2132  0.4659 -0.5148
  698MOL0     H94230   1.692   3.518   2.874  1.4486  0.1302  3.0010
  699MOL0     O94231   6.268   5.092   0.412 -0.2764 -0.0863  0.5503
  699MOL0     C94232   6.296   5.203   0.375 -0.5780  0.7139 -0.0916
  699MOL0     O94233   6.375   5.283   0.450  0.2847  0.1647  0.2867
  699MOL0     C94234   6.399   5.249   0.586  0.1992 -0.4296  0.2954
  699MOL0     C94235   6.293   5.226   0.686  0.0454 -0.4520  0.7238
  699MOL0     C94236   6.323   5.235   0.824 -0.7520  0.1939 -0.4440
  699MOL0     C94237   6.455   5.249   0.874 -0.1119  0.3144  0.7315
  699MOL0     O94238   6.456   5.231   1.009  0.3135 -0.3506  0.3535
  699MOL0     C94239   6.588   5.253   1.075  0.6537  0.0353  0.8816
  699MOL0     C94240   6.661   5.123   1.087  1.1007 -0.0286 -1.1101
  699MOL0     C94241   6.760   5.134   1.204 -0.8480 -0.4494  0.5699
  699MOL0     C94242   6.854   5.022   1.226  0.1464 -0.0767  0.0771
  699MOL0     C94243   6.973   5.008   1.134  0.0246 -0.0549  0.6086
  699MOL0     C94244   7.076   4.905   1.182  0.0625  0.0131 -0.8069
  699MOL0     C94245   7.184   4.867   1.083 -1.0748  1.4352  0.6557
  699MOL0     C94246   7.136   4.798   0.950 -0.1346 -0.0111  0.3507
  699MOL0     N94247   7.241   4.795   0.847  0.8437  0.1882 -0.0828
  699MOL0     C94248   7.370   4.760   0.864 -0.3796  0.2953 -0.0357
  699MOL0     C94249   7.434   4.796   0.752  0.5944  0.0877 -0.5289
  699MOL0     C94250   7.574   4.763   0.730 -0.3473  0.9351 -0.3504
  699MOL0     C94251   7.600   4.616   0.703 -0.4110 -0.1703  0.4987
  699MOL0     C94252   7.735   4.587   0.638 -0.0665  0.4268  0.1514
  699MOL0     C94253   7.833   4.585   0.759 -0.5222  0.5264  0.5544
  699MOL0     O94254   7.966   4.547   0.704  0.3687 -0.3170  0.1395
  699MOL0     C94255   8.060   4.559   0.798 -0.3524  0.7173 -0.4783
  699MOL0     C94256   8.142   4.443   0.813  0.6682  0.5183 -0.6880
  699MOL0     C94257   8.237   4.435   0.914 -0.3274 -0.4126 -0.3703
  699MOL0     C94258   8.253   4.548   1.000 -0.2299  0.3764 -0.0362
  699MOL0     C94259   8.355   4.538   1.113 -0.8664  0.7944  0.7028
  699MOL0     O94260   8.385   4.411   1.160  0.9732  0.3845  0.4428
  699MOL0     C94261   8.484   4.399   1.253 -1.2374  0.0074  0.1921
  699MOL0     C94262   8.454   4.357   1.388  0.0698 -0.1269  0.2233
  699MOL0     C94263   8.559   4.352   1.482 -0.2002 -0.4133 -0.4252
  699MOL0     C94264   8.692   4.374   1.446 -0.5493 -0.2073  0.2801
  699MOL0     O94265   8.806   4.361   1.532 -0.0190 -0.2228  0.1957
  699MOL0     C94266   8.787   4.262   1.631  0.1094 -0.0513  0.5239
  699MOL0     C94267   8.776   4.115   1.584 -0.3300  0.4318 -0.2575
  699MOL0     C94268   8.867   4.073   1.463  0.1739  0.5312 -0.9027
  699MOL0     C94269   9.006   4.009   1.509 -0.9836 -0.1442  0.7314
  699MOL0     C94270   9.116   4.123   1.525 -0.6524  0.5194  0.6096
  699MOL0     C94271   9.196   4.136   1.392  0.3818 -0.3282 -0.2905
  699MOL0     C94272   9.310   4.035   1.391 -0.1379  0.3619 -0.3068
  699MOL0     C94273   9.337   3.978   1.255  1.0743  0.1914 -0.6230
  699MOL0    Cl94274   9.381   4.083   1.124 -0.0311 -0.2415  0.0602
  699MOL0     C94275   8.722   4.415   1.317 -0.0582 -0.6820  0.3868
  699MOL0     C94276   8.617   4.434   1.225  0.5567 -0.0374 -0.2704
  699MOL0     O94277   8.397   4.635   1.167 -1.0262  0.1903 -0.2406
  699MOL0     C94278   8.188   4.663   0.974  0.9520  0.0553  1.1606
  699MOL0     C94279   8.088   4.671   0.872 -0.8036 -0.2629  0.4936
  699MOL0     N94280   7.351   4.867   0.672 -0.0728  0.4571 -0.2926
  699MOL0     N94281   7.233   4.863   0.729 -0.3285 -0.1063 -0.4570
  699MOL0     C94282   6.557   5.281   0.781  0.0142  1.1121  0.0692
  699MOL0     C94283   6.530   5.282   0.646  0.4178  0.0771  0.4731
  699MOL0     C94284   6.240   5.250   0.246  0.0374  0.0335  0.1501
  699MOL0     C94285   6.268   5.388   0.223 -0.5683  0.8820  0.8438
  699MOL0     C94286   6.207   5.457   0.117 -0.0866  0.0721  0.3110
  699MOL0     C94287   6.137   5.385   0.024 -0.0795 -0.8241 -0.6793
  699MOL0     O94288   6.094   5.428  -0.103 -0.2978 -0.5353 -0.0854
  699MOL0     C94289   6.199   5.499  -0.179  0.4397  0.9950 -0.9673
  699MOL0     C94290   6.142   5.565  -0.301 -0.1002  0.1267 -1.0020
  699MOL0     C94291   6.036   5.680  -0.266 -0.3986 -0.1128 -1.1137
  699MOL0     C94292   5.925   5.687  -0.381  0.0987 -0.2524 -0.2787
  699MOL0     C94293   5.980   5.767  -0.496 -0.2553  0.2403 -0.2720
  699MOL0     C94294   6.036   5.836  -0.574 -1.3294 -0.1080  0.8490
  699MOL0     C94295   6.100   5.254   0.054 -0.4394 -0.4121  0.2885
  699MOL0     C94296   6.153   5.185   0.165  0.1073  0.1668  0.9384
  699MOL0     C94297   6.111   5.043   0.190 -0.1037 -1.3594 -0.1488
  699MOL0     H94298   6.188   5.242   0.664 -0.0025  1.6088  2.1786
  699MOL0     H94299   6.245   5.205   0.894  0.2041 -2.0552 -0.2506
  699MOL0     H94300   6.647   5.337   1.035 -0.8795  0.4520 -0.6578
  699MOL0     H94301   6.550   5.283   1.173 -0.9879  0.2022  0.2179
  699MOL0     H94302   6.715   5.087   0.999 -0.9659 -0.0975 -2.4374
  699MOL0     H94303   6.581   5.051   1.107  0.7367  0.4951 -0.6413
  699MOL0     H94304   6.715   5.155   1.301 -1.0635  1.5250  0.0838
  699MOL0     H94305   6.812   5.229   1.187  1.1688 -1.2493  1.8255
  699MOL0     H94306   6.892   5.036   1.328 -1.5051 -3.6774  1.3285
  699MOL0     H94307   6.791   4.934   1.231 -0.3140  0.2163 -0.4708
  699MOL0     H94308   6.939   4.982   1.033  1.2127 -1.2821  0.4930
  699MOL0     H94309   7.020   5.106   1.121  0.8347 -0.3541  1.1692
  699MOL0     H94310   7.127   4.947   1.270  1.3325 -0.5749 -1.2330
  699MOL0     H94311   7.027   4.817   1.224  3.2293 -1.3606  0.3454
  699MOL0     H94312   7.248   4.798   1.139  1.7751  0.8018 -3.0218
  699MOL0     H94313   7.250   4.953   1.069  0.6216  0.1780  0.6674
  699MOL0     H94314   7.105   4.695   0.969  0.5190 -0.4182 -0.7069
  699MOL0     H94315   7.046   4.844   0.908  1.3610  2.8318  0.0063
  699MOL0     H94316   7.409   4.690   0.937 -2.3022  1.3033  2.0815
  699MOL0     H94317   7.611   4.822   0.646  0.7738 -1.5085 -1.6805
  699MOL0     H94318   7.629   4.789   0.822  1.2701 -1.1387 -0.6417
  699MOL0     H94319   7.583   4.557   0.794  0.2764 -0.7011  0.2974
  699MOL0     H94320   7.519   4.584   0.637  2.1016 -0.6566 -2.6435
  699MOL0     H94321   7.762   4.656   0.558  0.5522 -0.9844 -0.8988
  699MOL0     H94322   7.727   4.484   0.600  1.2685  0.6960 -0.9485
  699MOL0     H94323   7.797   4.511   0.830  0.2731  0.7638  1.2214
  699MOL0     H94324   7.829   4.676   0.820 -2.3992 -1.2472  3.2551
  699MOL0     H94325   8.134   4.352   0.754  1.3508  0.4074 -0.6170
  699MOL0     H94326   8.285   4.339   0.928  4.2053  1.5622 -0.4734
  699MOL0     H94327   8.352   4.338   1.419  0.7388 -3.0884  0.9251
  699MOL0     H94328   8.536   4.336   1.587  0.2713  0.9602 -0.0986
  699MOL0     H94329   8.874   4.282   1.695  1.4574 -0.8028 -0.9893
  699MOL0     H94330   8.703   4.272   1.700  0.4251  0.2242  0.8755
  699MOL0     H94331   8.805   4.049   1.665 -2.1511 -0.3623 -0.2115
  699MOL0     H94332   8.674   4.103   1.546 -0.1014 -0.4239 -0.6139
  699MOL0     H94333   8.818   3.998   1.400 -0.0027  1.0632 -1.4090
  699MOL0     H94334   8.886   4.157   1.395  2.9943  0.8229  0.1029
  699MOL0     H94335   9.043   3.931   1.441 -0.3092 -1.5443  2.6363
  699MOL0     H94336   8.997   3.953   1.602 -3.5365  2.1056  1.9864
  699MOL0     H94337   9.187   4.115   1.608  4.5999  0.9452 -3.3506
  699MOL0     H94338   9.066   4.219   1.539  1.7067  1.6818  1.6012
  699MOL0     H94339   9.137   4.131   1.300  1.6554  1.3590 -1.2519
  699MOL0     H94340   9.243   4.235   1.395  0.7169 -0.3596 -2.4830
  699MOL0     H94341   9.274   3.952   1.453  1.5240  1.1624  1.8551
  699MOL0     H94342   9.400   4.069   1.443 -1.2215  2.0446  0.5666
  699MOL0     H94343   9.411   3.899   1.270  0.9558  0.2788  0.4932
  699MOL0     H94344   9.245   3.924   1.228 -0.2429  1.0990  1.7723
  699MOL0     H94345   8.819   4.448   1.281 -0.4772 -0.1520 -0.2530
  699MOL0     H94346   8.637   4.482   1.130 -0.4749  0.0871 -0.4346
  699MOL0     H94347   8.206   4.748   1.039  1.6367 -1.7447  3.4602
  699MOL0     H94348   8.026   4.760   0.872  0.8254  0.9469  2.7543
  699MOL0     H94349   6.655   5.301   0.822  2.4748 -4.0635 -2.4564
  699MOL0     H94350   6.606   5.312   0.574 -1.4770 -3.0591 -3.1978
  699MOL0     H94351   6.337   5.443   0.286  1.1312  1.8433 -1.7098
  699MOL0     H94352   6.221   5.564   0.113  3.7323 -0.0946  3.2307
  699MOL0     H94353   6.275   5.429  -0.212 -0.9925 -0.1339 -2.0247
  699MOL0     H94354   6.246   5.574  -0.115 -0.2898  0.1226  0.6513
  699MOL0     H94355   6.089   5.491  -0.361 -1.3703  1.3150 -1.4170
  699MOL0     H94356   6.223   5.614  -0.357  0.2378  0.8334  0.0673
  699MOL0     H94357   6.079   5.776  -0.237 -2.8844  0.6747  0.2427
  699MOL0     H94358   5.988   5.654  -0.171  1.1780  0.9703  0.0273
  699MOL0     H94359   5.880   5.596  -0.420 -0.3433 -0.4731  0.7148
  699MOL0     H94360   5.832   5.740  -0.358 -0.1217  1.4345 -4.2889
  699MOL0     H94361   6.084   5.907  -0.638 -2.2188 -0.7490 -0.5666
  699MOL0     H94362   6.045   5.198  -0.020 -1.3806  1.7334 -0.7095
  699MOL0     H94363   6.050   5.012   0.104  1.3145  1.5883 -2.3782
  699MOL0     H94364   6.199   4.979   0.188  1.5043  0.7574 -1.5891
  699MOL0     H94365   6.062   5.034   0.288 -0.4971 -2.1547 -0.4057
  700MOL0     O94366   1.238   0.015   2.549  0.5672 -0.5040  1.0182
  700MOL0     C94367   1.312  -0.020   2.634  1.0038  0.9067 -0.4538
  700MOL0     O94368   1.276  -0.065   2.760  0.7091 -0.1147 -0.3774
  700MOL0     C94369   1.151  -0.102   2.779  1.1369 -0.8022 -0.0257
  700MOL0     C94370   1.095  -0.218   2.718 -0.7192 -0.1651 -0.0598
  700MOL0     C94371   0.975  -0.265   2.744 -0.2318  0.3214 -0.1074
  700MOL0     C94372   0.886  -0.182   2.821 -0.2106  0.8187 -0.2269
  700MOL0     O94373   0.752  -0.223   2.832 -1.2779 -0.8720  0.6767
  700MOL0     C94374   0.665  -0.142   2.750  1.2251  0.4461 -0.1560
  700MOL0     C94375   0.555  -0.061   2.821 -0.8737 -0.2034 -1.2373
  700MOL0     C94376   0.463  -0.164   2.892  0.5628 -0.1191 -0.2055
  700MOL0     C94377   0.329  -0.102   2.923  0.0461  0.3638 -0.0554
  700MOL0     C94378   0.244  -0.211   2.999  0.5260  0.3158 -0.3108
  700MOL0     C94379   0.151  -0.153   3.106 -0.3995  0.6432 -0.1142
  700MOL0     C94380   0.037  -0.248   3.132 -0.0988  0.5709  0.0392
  700MOL0     C94381  -0.079  -0.201   3.229 -0.1074 -0.7879  0.3676
  700MOL0     N94382  -0.119  -0.067   3.202  0.0113 -0.4225  0.3964
  700MOL0     C94383  -0.201  -0.039   3.101 -1.0454 -1.0095 -0.1140
  700MOL0     C94384  -0.244   0.085   3.137 -0.1794  0.0110  1.1076
  700MOL0     C94385  -0.347   0.155   3.049  0.7318  0.2382 -0.2145
  700MOL0     C94386  -0.293   0.218   2.921  0.3015  0.3418 -0.6640
  700MOL0     C94387  -0.183   0.322   2.955 -0.3919  0.1573  0.3269
  700MOL0     C94388  -0.053   0.287   2.879 -0.2442  0.7711 -0.8210
  700MOL0     O94389   0.039   0.394   2.897  0.5869 -0.2515 -0.3227
  700MOL0     C94390   0.166   0.388   2.833  0.5117 -0.2739 -0.8717
  700MOL0     C94391   0.268   0.475   2.870  0.1382 -0.6628  0.6137
  700MOL0     C94392   0.405   0.459   2.822  0.2486 -0.2761 -0.3823
  700MOL0     C94393   0.437   0.361   2.729  0.0442 -0.1587 -0.3386
  700MOL0     C94394   0.573   0.334   2.673  0.6757 -0.5115 -0.7483
  700MOL0     O94395   0.664   0.368   2.763 -0.5609  0.6739  0.1290
  700MOL0     C94396   0.794   0.350   2.742  0.0894  0.7757 -0.6176
  700MOL0     C94397   0.871   0.447   2.807  0.1443 -0.5195 -0.2259
  700MOL0     C94398   1.008   0.458   2.793 -0.0925  0.7728  0.1790
  700MOL0     C94399   1.076   0.355   2.728  0.3370 -0.1221 -0.3040
  700MOL0     O94400   1.213   0.356   2.724 -0.0729 -0.2379 -1.2341
  700MOL0     C94401   1.284   0.377   2.854 -0.3342  0.3695  0.7635
  700MOL0     C94402   1.437   0.368   2.813  0.5877  0.1826 -0.1980
  700MOL0     C94403   1.485   0.430   2.677 -0.0054  0.2844 -0.3770
  700MOL0     C94404   1.635   0.413   2.669 -0.9335 -0.4650 -0.0768
  700MOL0     C94405   1.683   0.442   2.527  0.0125  1.2146 -0.5385
  700MOL0     C94406   1.836   0.397   2.523 -0.1518 -0.6608 -1.0696
  700MOL0     C94407   1.897   0.404   2.389 -1.6901  1.2587  0.0343
  700MOL0     C94408   2.053   0.426   2.392 -0.0988 -0.2258 -0.6883
  700MOL0    Cl94409   2.150   0.281   2.460  0.2319 -0.6620  0.0226
  700MOL0     C94410   1.000   0.259   2.661 -0.6318 -0.0799  0.3284
  700MOL0     C94411   0.861   0.253   2.667 -0.2507  0.2834  0.7635
  700MOL0     O94412   0.584   0.296   2.561 -0.6680  0.5188 -0.6782
  700MOL0     C94413   0.331   0.272   2.701  0.3532 -1.1738  0.4834
  700MOL0     C94414   0.203   0.278   2.752 -0.2271  0.0020  0.2179
  700MOL0     N94415  -0.190   0.119   3.259  0.8811 -1.0271  0.5019
  700MOL0     N94416  -0.113   0.029   3.303 -0.6100  0.4862  0.5843
  700MOL0     C94417   0.930  -0.069   2.883  0.3251  0.0210  0.2095
  700MOL0     C94418   1.063  -0.023   2.856 -0.0206 -0.6815 -0.4027
  700MOL0     C94419   1.462  -0.017   2.608  0.0176  0.9864  0.3739
  700MOL0     C94420   1.553  -0.079   2.695  0.0935 -0.3166  0.0796
  700MOL0     C94421   1.690  -0.097   2.665  0.4344  0.1355  0.0850
  700MOL0     C94422   1.742  -0.037   2.549  0.3641 -1.1219 -0.1915
  700MOL0     O94423   1.877  -0.035   2.524 -0.3801  0.0272  0.3299
  700MOL0     C94424   1.941  -0.156   2.571  0.3851  0.5965  0.2225
  700MOL0     C94425   2.081  -0.124   2.515 -0.6794 -0.1253  0.2627
  700MOL0     C94426   2.179  -0.248   2.530  0.5815 -0.1353 -0.4784
  700MOL0     C94427   2.155  -0.331   2.661  0.6368 -0.0241  0.1358
  700MOL0     C94428   2.247  -0.441   2.663  0.6655 -0.1716  0.5035
  700MOL0     C94429   2.336  -0.521   2.653 -0.2438  0.0337 -0.2551
  700MOL0     C94430   1.658   0.043   2.476 -0.0404  0.3684  0.6391
  700MOL0     C94431   1.518   0.055   2.493 -0.2641  1.0161  0.1673
  700MOL0     C94432   1.434   0.135   2.401 -0.4824  1.0297 -0.1885
  700MOL0     H94433   1.149  -0.271   2.641 -0.7491 -0.6655  0.2592
  700MOL0     H94434   0.940  -0.354   2.693 -0.1425 -0.6755  1.5163
  700MOL0     H94435   0.721  -0.069   2.690  0.4103  1.2555  0.0482
  700MOL0     H94436   0.612  -0.201   2.674  1.9987  1.7684 -1.8052
  700MOL0     H94437   0.504   0.006   2.751 -1.0329  0.9560 -0.0383
  700MOL0     H94438   0.617  -0.002   2.888 -2.2681  0.1057 -0.1857
  700MOL0     H94439   0.518  -0.201   2.979  0.2670 -0.0457  0.0139
  700MOL0     H94440   0.438  -0.245   2.823 -1.4578 -0.9799  1.4261
  700MOL0     H94441   0.338  -0.013   2.986 -1.2109  0.3543  0.1633
  700MOL0     H94442   0.283  -0.078   2.827 -0.1425 -1.8257 -0.5642
  700MOL0     H94443   0.198  -0.282   2.930 -0.0170 -0.3751  0.7219
  700MOL0     H94444   0.309  -0.272   3.063  0.6277  2.5169  1.8534
  700MOL0     H94445   0.203  -0.131   3.200  1.1710  1.7970 -1.1944
  700MOL0     H94446   0.107  -0.058   3.074 -0.3138  0.7682  0.1374
  700MOL0     H94447   0.070  -0.347   3.164 -1.8585 -0.9564 -2.5118
  700MOL0     H94448  -0.014  -0.260   3.036  0.9444  2.2584 -0.7763
  700MOL0     H94449  -0.159  -0.274   3.220  0.1733 -0.8055 -5.1124
  700MOL0     H94450  -0.037  -0.209   3.330  2.7905 -2.6463 -0.8454
  700MOL0     H94451  -0.227  -0.106   3.020 -1.3569 -1.4023  0.3094
  700MOL0     H94452  -0.421   0.082   3.014  0.3518  0.7066 -0.3991
  700MOL0     H94453  -0.402   0.229   3.107 -2.0320 -2.2815  0.5885
  700MOL0     H94454  -0.258   0.136   2.857 -0.1377 -0.8095  0.5323
  700MOL0     H94455  -0.373   0.267   2.863  1.1458  1.3428 -1.0120
  700MOL0     H94456  -0.152   0.318   3.060  1.2721 -1.3397 -0.1716
  700MOL0     H94457  -0.221   0.422   2.933  0.5912  0.3343 -0.6517
  700MOL0     H94458  -0.082   0.276   2.774  0.0990  2.0704 -1.0783
  700MOL0     H94459  -0.011   0.199   2.929 -1.2410  0.5629 -0.3209
  700MOL0     H94460   0.241   0.545   2.949 -3.2715 -3.4468  2.1478
  700MOL0     H94461   0.491   0.520   2.850 -0.5503 -0.1375  2.0292
  700MOL0     H94462   0.822   0.530   2.857  0.7548  1.0847 -2.1324
  700MOL0     H94463   1.067   0.543   2.827 -2.0557  1.8488  1.0154
  700MOL0     H94464   1.260   0.475   2.898  0.0400  0.2108  1.3412
  700MOL0     H94465   1.250   0.302   2.926 -1.7423 -0.4056 -0.6424
  700MOL0     H94466   1.496   0.404   2.897  3.7021 -0.1633 -2.0789
  700MOL0     H94467   1.463   0.262   2.812 -0.8951 -0.6652  6.2355
  700MOL0     H94468   1.438   0.379   2.593 -0.7099  1.1522 -0.5251
  700MOL0     H94469   1.453   0.534   2.661 -2.1078 -0.5323 -1.9736
  700MOL0     H94470   1.658   0.308   2.690 -1.4336 -0.9700 -1.9247
  700MOL0     H94471   1.690   0.482   2.734 -0.3976  1.4340 -2.4283
  700MOL0     H94472   1.680   0.549   2.503  1.1556  1.8352  1.8195
  700MOL0     H94473   1.627   0.383   2.454 -0.1509  0.7670 -0.0620
  700MOL0     H94474   1.892   0.460   2.593 -1.4300 -0.9016  0.1999
  700MOL0     H94475   1.848   0.294   2.558  1.4094  0.0347  0.6734
  700MOL0     H94476   1.857   0.488   2.332  0.5441 -0.4094 -4.4961
  700MOL0     H94477   1.879   0.315   2.328 -0.2567  1.5856 -0.9166
  700MOL0     H94478   2.078   0.439   2.287 -0.6807  0.1163 -0.7866
  700MOL0     H94479   2.076   0.517   2.449  0.0375 -0.2931 -0.6354
  700MOL0     H94480   1.055   0.183   2.607  0.2520  1.2245 -0.6481
  700MOL0     H94481   0.813   0.170   2.617 -2.4350  0.1902  2.8523
  700MOL0     H94482   0.350   0.191   2.631 -1.1930 -2.1891  1.1740
  700MOL0     H94483   0.133   0.203   2.718 -0.2220  0.0016  0.2083
  700MOL0     H94484   0.864  -0.000   2.934  1.6058  2.1007 -0.7770
  700MOL0     H94485   1.083   0.066   2.914 -0.7970 -0.7279 -0.0444
  700MOL0     H94486   1.522  -0.127   2.787 -2.0652 -1.9227 -1.3807
  700MOL0     H94487   1.746  -0.157   2.735 -2.4835 -3.0971 -0.0677
  700MOL0     H94488   1.900  -0.246   2.523  0.2121  1.5681 -1.5029
  700MOL0     H94489   1.956  -0.164   2.679  2.6561 -0.2293 -0.0936
  700MOL0     H94490   2.122  -0.047   2.580  0.5504 -0.9267  0.4749
  700MOL0     H94491   2.086  -0.092   2.410 -0.9240  0.9518  0.5689
  700MOL0     H94492   2.283  -0.215   2.520 -0.3555  3.2944 -0.4481
  700MOL0     H94493   2.153  -0.315   2.447 -0.7529  0.2065 -0.3568
  700MOL0     H94494   2.167  -0.268   2.750  0.8732  0.3243 -0.1427
  700MOL0     H94495   2.052  -0.367   2.650  0.0676  2.0783 -2.6175
  700MOL0     H94496   2.419  -0.572   2.608 -0.7378 -0.3985 -0.6973
  700MOL0     H94497   1.717   0.093   2.400 -0.3621  0.5038  0.4758
  700MOL0     H94498   1.376   0.075   2.330 -2.6698  0.0168  2.2913
  700MOL0     H94499   1.364   0.195   2.460 -0.8462 -0.9964  1.5743
  700MOL0     H94500   1.488   0.216   2.351 -1.0348  1.2105 -0.5021
  701MOL0     O94501   2.965   5.618  10.172 -0.0962 -0.1545  0.9707
  701MOL0     C94502   3.028   5.596  10.277 -0.0961 -0.0573 -0.7874
  701MOL0     O94503   3.010   5.495  10.359 -0.3264  0.2761 -0.4962
  701MOL0     C94504   2.898   5.413  10.356  0.3304 -0.2955 -0.1099
  701MOL0     C94505   2.780   5.463  10.305  0.2122  0.5296  0.7066
  701MOL0     C94506   2.671   5.376  10.315  0.2649  0.5445 -0.4055
  701MOL0     C94507   2.681   5.252  10.377  0.6228  0.5686  0.4728
  701MOL0     O94508   2.574   5.170  10.402 -0.2827  0.3723 -0.3738
  701MOL0     C94509   2.462   5.239  10.451 -0.1341  0.4089 -0.0951
  701MOL0     C94510   2.369   5.129  10.508 -1.0145 -0.3387 -0.1542
  701MOL0     C94511   2.276   5.197  10.620  0.3291 -0.0211 -0.2946
  701MOL0     C94512   2.191   5.091  10.696 -0.5101 -0.4879 -0.1590
  701MOL0     C94513   2.052   5.145  10.734 -0.6685  0.8395 -0.2897
  701MOL0     C94514   1.993   5.069  10.851 -0.2261 -0.2137 -0.4807
  701MOL0     C94515   1.957   4.929  10.799  0.4389  1.1891  0.0735
  701MOL0     C94516   1.902   4.838  10.908 -0.2522 -0.2854 -0.5252
  701MOL0     N94517   2.017   4.793  10.990 -0.4457  0.0082 -0.5273
  701MOL0     C94518   2.140   4.728  10.954  0.8838 -0.2449 -0.4642
  701MOL0     C94519   2.212   4.708  11.065  1.0113 -0.6336  1.1834
  701MOL0     C94520   2.347   4.678  11.075  0.1225  0.8039  0.0922
  701MOL0     C94521   2.439   4.734  10.960  0.3981 -0.4420  0.0717
  701MOL0     C94522   2.540   4.631  10.913  0.9025 -0.5317  0.5295
  701MOL0     C94523   2.638   4.682  10.808  0.4931  0.0802  0.6737
  701MOL0     O94524   2.743   4.756  10.869  0.1505 -0.2374  0.9711
  701MOL0     C94525   2.844   4.805  10.784  0.5595  0.4664 -0.2526
  701MOL0     C94526   2.881   4.763  10.652  0.0476  0.9197 -0.4356
  701MOL0     C94527   2.975   4.827  10.570 -0.2669 -0.6138 -0.4209
  701MOL0     C94528   3.054   4.924  10.631 -0.4139  1.1245 -1.2013
  701MOL0     C94529   3.167   4.993  10.553 -0.3602  1.5467 -0.7484
  701MOL0     O94530   3.220   5.107  10.605 -0.0553  0.6180 -0.5000
  701MOL0     C94531   3.319   5.183  10.550  0.1165 -0.1986  0.8508
  701MOL0     C94532   3.304   5.228  10.416 -0.4792  0.0351  0.1447
  701MOL0     C94533   3.407   5.311  10.349  1.0233 -0.5753  0.0333
  701MOL0     C94534   3.508   5.363  10.429 -0.7971 -0.5905  0.3315
  701MOL0     O94535   3.591   5.461  10.379  0.0356  0.1680  0.3830
  701MOL0     C94536   3.644   5.449  10.246 -0.1615 -0.6184 -0.9353
  701MOL0     C94537   3.580   5.535  10.141  0.0801  0.6357  0.5825
  701MOL0     C94538   3.595   5.685  10.174 -0.3733 -0.5812  0.4317
  701MOL0     C94539   3.727   5.762  10.148  0.0197  0.1607 -0.2878
  701MOL0     C94540   3.712   5.911  10.130 -0.0313 -0.3925 -0.1751
  701MOL0     C94541   3.841   5.984  10.161 -0.5179 -1.1510  0.7720
  701MOL0     C94542   3.845   6.132  10.106 -0.2691 -0.8012 -0.3601
  701MOL0     C94543   3.961   6.204  10.164 -0.0649 -0.8455  0.1089
  701MOL0    Cl94544   4.117   6.136  10.117  0.3063 -0.1421 -0.0621
  701MOL0     C94545   3.522   5.324  10.564 -0.4614 -0.1713  0.7640
  701MOL0     C94546   3.426   5.237  10.623  0.4734  0.3901 -0.1842
  701MOL0     O94547   3.208   4.943  10.446  0.5975 -0.1047 -0.3349
  701MOL0     C94548   3.029   4.960  10.769 -0.1308 -0.5816  0.5643
  701MOL0     C94549   2.925   4.908  10.841  0.0980  0.3980  0.3807
  701MOL0     N94550   2.124   4.739  11.168 -0.3764  0.1983 -0.2986
  701MOL0     N94551   2.015   4.786  11.123 -0.5374  0.3667 -0.0507
  701MOL0     C94552   2.799   5.212  10.432  0.0403  0.6963 -0.2826
  701MOL0     C94553   2.904   5.296  10.418  0.3512 -0.1799 -1.1734
  701MOL0     C94554   3.125   5.702  10.327  1.0008  0.0002 -0.0591
  701MOL0     C94555   3.245   5.658  10.381 -0.1971  0.4503 -0.0362
  701MOL0     C94556   3.339   5.747  10.418 -0.3189  0.4530  0.0541
  701MOL0     C94557   3.320   5.888  10.405  0.1210 -0.0724  0.0196
  701MOL0     O94558   3.419   5.984  10.437 -0.4163  0.0161 -0.0108
  701MOL0     C94559   3.523   5.960  10.536  0.3943 -0.2399 -0.9643
  701MOL0     C94560   3.630   6.062  10.520 -0.4504 -0.7180 -0.2078
  701MOL0     C94561   3.571   6.203  10.541 -0.0835  0.2701  0.4746
  701MOL0     C94562   3.475   6.229  10.661 -0.5227  0.4294  0.5814
  701MOL0     C94563   3.560   6.227  10.785  0.6092 -0.0131  0.1739
  701MOL0     C94564   3.624   6.216  10.888  0.5232  0.2122  0.9938
  701MOL0     C94565   3.201   5.933  10.347 -0.2924  0.3022  0.0617
  701MOL0     C94566   3.097   5.842  10.313 -0.9068 -0.1375  0.5457
  701MOL0     C94567   2.965   5.898  10.250 -0.3747 -0.4778 -0.5464
  701MOL0     H94568   2.770   5.562  10.261  1.3416  0.5419  0.4351
  701MOL0     H94569   2.577   5.414  10.277  0.6922  1.9555 -0.1406
  701MOL0     H94570   2.493   5.308  10.530 -0.0958  0.2718  0.0126
  701MOL0     H94571   2.395   5.284  10.379 -0.6242  0.4432  0.3770
  701MOL0     H94572   2.431   5.051  10.554 -0.7311  0.1368  0.2751
  701MOL0     H94573   2.304   5.078  10.437 -0.5729 -2.4043  0.8347
  701MOL0     H94574   2.197   5.265  10.586 -1.0307 -0.8819  0.9832
  701MOL0     H94575   2.340   5.243  10.696  0.9955 -0.6132 -0.4908
  701MOL0     H94576   2.176   5.006  10.629  0.9907  0.0885 -1.2740
  701MOL0     H94577   2.245   5.055  10.784 -0.6313 -0.4907 -0.0846
  701MOL0     H94578   2.055   5.251  10.761  0.5231  1.4440 -2.5686
  701MOL0     H94579   1.982   5.132  10.650 -2.8974 -0.5386  1.6621
  701MOL0     H94580   2.069   5.067  10.929  1.1130 -4.7914 -1.5954
  701MOL0     H94581   1.902   5.121  10.883  0.1193 -0.5861  1.2278
  701MOL0     H94582   2.045   4.876  10.762 -1.8218 -1.9300 -1.3201
  701MOL0     H94583   1.889   4.934  10.714  0.8775  2.8929 -0.2145
  701MOL0     H94584   1.837   4.900  10.970 -0.8138 -0.5849 -0.8081
  701MOL0     H94585   1.847   4.749  10.879  0.8175 -0.8412 -0.9167
  701MOL0     H94586   2.183   4.711  10.856  0.3582  0.6036 -0.8484
  701MOL0     H94587   2.378   4.719  11.171  1.4494  2.7622 -1.0902
  701MOL0     H94588   2.357   4.571  11.094  1.2718  1.2491  2.2086
  701MOL0     H94589   2.379   4.771  10.877 -1.5305  0.3840  1.7534
  701MOL0     H94590   2.487   4.823  11.001 -2.1094  0.3974  1.4074
  701MOL0     H94591   2.493   4.538  10.882  0.4609  0.5687 -2.4187
  701MOL0     H94592   2.598   4.606  11.002 -0.3535  0.1086  1.5622
  701MOL0     H94593   2.591   4.739  10.727  1.1516  0.2901  0.4354
  701MOL0     H94594   2.680   4.589  10.769  1.8269  0.6831  0.6079
  701MOL0     H94595   2.844   4.671  10.607  1.5919  0.8100 -1.5581
  701MOL0     H94596   3.007   4.793  10.472 -1.0553 -0.3305 -0.7841
  701MOL0     H94597   3.222   5.188  10.358 -0.2473 -0.0182 -0.1483
  701MOL0     H94598   3.400   5.350  10.248  1.4834 -0.1559  0.1564
  701MOL0     H94599   3.742   5.494  10.265 -1.3128  1.3692  0.7550
  701MOL0     H94600   3.655   5.345  10.215  2.0051 -0.6106 -0.3508
  701MOL0     H94601   3.632   5.518  10.046 -2.1823  2.9372 -1.2075
  701MOL0     H94602   3.479   5.498  10.122 -0.7767  1.9691  2.3042
  701MOL0     H94603   3.514   5.727  10.113 -0.2956 -3.3216 -1.7451
  701MOL0     H94604   3.568   5.718  10.275 -2.0892  2.7989 -0.9553
  701MOL0     H94605   3.779   5.719  10.062 -1.0064 -0.7061 -0.4935
  701MOL0     H94606   3.794   5.739  10.230 -0.6002 -1.0880 -0.1146
  701MOL0     H94607   3.639   5.947  10.203  1.2081 -0.5271  1.1756
  701MOL0     H94608   3.682   5.924  10.025 -0.9308 -2.3360 -0.2006
  701MOL0     H94609   3.849   5.996  10.270  2.0623 -1.0536  0.6195
  701MOL0     H94610   3.928   5.926  10.131 -2.2351 -2.5260 -1.9404
  701MOL0     H94611   3.759   6.192  10.136  0.0593 -0.0287 -0.9224
  701MOL0     H94612   3.848   6.150   9.998 -1.0140  1.1400 -0.0988
  701MOL0     H94613   3.958   6.303  10.117  0.3313 -1.2228 -0.7398
  701MOL0     H94614   3.958   6.225  10.271  0.8802 -0.6692  0.1164
  701MOL0     H94615   3.608   5.349  10.626 -0.1886  2.1893 -0.4526
  701MOL0     H94616   3.425   5.205  10.727  1.6743 -0.2440 -0.3521
  701MOL0     H94617   3.093   5.023  10.830  2.5570 -1.1523 -1.4348
  701MOL0     H94618   2.916   4.918  10.949  0.7790  0.0031  0.4801
  701MOL0     H94619   2.800   5.112  10.476 -1.4538 -1.4912 -4.5852
  701MOL0     H94620   2.997   5.275  10.470  0.6534  2.7913 -0.3712
  701MOL0     H94621   3.269   5.554  10.400  2.5635  1.3133  1.8477
  701MOL0     H94622   3.427   5.697  10.458 -1.0773 -1.0073 -0.0272
  701MOL0     H94623   3.571   5.864  10.517  0.0358 -0.3315 -1.4200
  701MOL0     H94624   3.475   5.954  10.634  1.2658  0.3677 -0.4839
  701MOL0     H94625   3.678   6.056  10.422 -0.4674 -0.4739 -0.2320
  701MOL0     H94626   3.708   6.045  10.595  0.2257 -0.5756 -0.8692
  701MOL0     H94627   3.519   6.208  10.445 -0.3628 -1.9336  0.4608
  701MOL0     H94628   3.651   6.277  10.547  2.1573 -1.9278 -0.3894
  701MOL0     H94629   3.424   6.325  10.656 -0.6524  0.3147 -3.0747
  701MOL0     H94630   3.395   6.155  10.673 -0.2108  0.0849  0.5446
  701MOL0     H94631   3.697   6.203  10.966  2.2589 -1.0091 -0.7411
  701MOL0     H94632   3.183   6.039  10.336 -2.7030 -0.2265 -2.2148
  701MOL0     H94633   2.973   5.881  10.142 -0.1943  2.1912 -1.0193
  701MOL0     H94634   2.885   5.834  10.288 -1.2885  1.9245  1.8660
  701MOL0     H94635   2.948   6.001  10.280  0.2160 -1.2446  2.7571
  702MOL0     O94636   6.439   5.738   0.224 -0.1121  0.5167 -0.1485
  702MOL0     C94637   6.420   5.851   0.173 -0.2030  0.1336 -0.5313
  702MOL0     O94638   6.517   5.951   0.152  0.8157  0.0229 -0.2469
  702MOL0     C94639   6.621   5.945   0.240 -0.1157 -0.7137  0.5814
  702MOL0     C94640   6.606   5.994   0.371 -0.8424  0.2889  0.2886
  702MOL0     C94641   6.709   5.981   0.463 -0.8112 -0.2668 -0.9037
  702MOL0     C94642   6.824   5.903   0.418  0.6636 -0.5871  0.1781
  702MOL0     O94643   6.931   5.905   0.502  0.3331 -0.1744 -0.0095
  702MOL0     C94644   7.044   5.818   0.467  0.8927 -0.4579 -0.5052
  702MOL0     C94645   7.125   5.803   0.599 -0.3863  0.0661  0.2290
  702MOL0     C94646   7.222   5.685   0.573 -0.4679  0.7471  0.6331
  702MOL0     C94647   7.279   5.631   0.706  0.0790 -0.2287 -0.6769
  702MOL0     C94648   7.364   5.503   0.687  0.5926 -0.0616  0.7042
  702MOL0     C94649   7.261   5.381   0.681 -0.0198 -0.4557 -0.0105
  702MOL0     C94650   7.303   5.274   0.566  0.1620  0.5609  0.0094
  702MOL0     C94651   7.192   5.165   0.530 -0.3717 -0.3312  0.0154
  702MOL0     N94652   7.217   5.109   0.391  0.0406 -0.5584 -0.2688
  702MOL0     C94653   7.310   5.017   0.356  0.8463 -0.2600 -0.1467
  702MOL0     C94654   7.331   5.020   0.220  0.0975 -1.2842 -1.0017
  702MOL0     C94655   7.444   4.943   0.161 -0.1660 -0.8894  0.6184
  702MOL0     C94656   7.543   5.023   0.087 -0.9911 -0.0026 -0.7781
  702MOL0     C94657   7.664   5.035   0.186  0.8399 -0.1933  0.8674
  702MOL0     C94658   7.750   4.914   0.225  0.7021 -0.2386  0.3252
  702MOL0     O94659   7.888   4.955   0.221 -0.3913 -0.6356 -0.1001
  702MOL0     C94660   7.994   4.887   0.269 -1.0125 -0.7199  0.3381
  702MOL0     C94661   7.977   4.751   0.294 -0.2903  0.0593  0.0329
  702MOL0     C94662   8.094   4.686   0.338 -0.9982  0.2753  0.2547
  702MOL0     C94663   8.221   4.743   0.340 -0.8892  0.2618  0.6574
  702MOL0     C94664   8.345   4.669   0.381  0.1063  0.9031  0.1981
  702MOL0     O94665   8.456   4.718   0.337 -0.3767 -0.1452 -0.9034
  702MOL0     C94666   8.577   4.664   0.376  0.4377 -0.4958 -0.4537
  702MOL0     C94667   8.637   4.545   0.334 -0.5634 -0.5649  1.1825
  702MOL0     C94668   8.772   4.518   0.369  0.2312  0.2753  0.1275
  702MOL0     C94669   8.840   4.579   0.476 -0.5378  0.0086  1.2893
  702MOL0     O94670   8.959   4.526   0.519 -0.9836  0.4282  0.0455
  702MOL0     C94671   9.039   4.608   0.602  0.8729  0.6983 -0.2733
  702MOL0     C94672   9.178   4.552   0.621  0.8786 -0.2350  0.0459
  702MOL0     C94673   9.265   4.618   0.506  0.0298  0.6310 -0.0516
  702MOL0     C94674   9.407   4.567   0.494  0.0909 -0.1528  1.0605
  702MOL0     C94675   9.469   4.638   0.374 -0.4654  0.9052 -0.4486
  702MOL0     C94676   9.478   4.788   0.374 -0.9607  0.0746 -0.0529
  702MOL0     C94677   9.579   4.842   0.271 -0.2972 -0.3273  0.2792
  702MOL0     C94678   9.584   5.001   0.282  0.4748 -0.2924 -0.1576
  702MOL0    Cl94679   9.652   5.047   0.434 -0.4414  0.0372 -0.0820
  702MOL0     C94680   8.778   4.691   0.533 -0.1274  0.0410 -0.6051
  702MOL0     C94681   8.651   4.729   0.487 -0.1979 -0.0559 -0.0923
  702MOL0     O94682   8.334   4.555   0.434 -0.3822 -0.3296 -0.3311
  702MOL0     C94683   8.232   4.881   0.315 -0.7433 -0.1834 -0.1584
  702MOL0     C94684   8.118   4.951   0.277  0.4204 -0.0197  0.9720
  702MOL0     N94685   7.251   5.117   0.169  0.0030  0.2119 -0.2845
  702MOL0     N94686   7.177   5.164   0.274  0.0042 -0.7109  0.6264
  702MOL0     C94687   6.830   5.845   0.291 -0.4340 -0.4867 -0.5509
  702MOL0     C94688   6.720   5.854   0.207 -0.4096 -0.1686 -0.0742
  702MOL0     C94689   6.292   5.883   0.115  0.4760 -0.6645 -0.7752
  702MOL0     C94690   6.296   5.943  -0.013 -0.5539  0.2482 -0.1532
  702MOL0     C94691   6.175   6.000  -0.062 -0.4218 -0.3363 -1.6046
  702MOL0     C94692   6.048   5.978  -0.001 -0.2920  0.4190 -0.2407
  702MOL0     O94693   5.940   6.020  -0.081 -0.4814  0.2709 -0.4643
  702MOL0     C94694   5.816   6.010  -0.018  0.7915  0.5273 -0.4804
  702MOL0     C94695   5.709   6.044  -0.119 -0.1869  0.5921 -0.7256
  702MOL0     C94696   5.727   6.187  -0.167  0.0579  0.5847 -0.2603
  702MOL0     C94697   5.610   6.228  -0.258  0.1759  0.8033  0.6367
  702MOL0     C94698   5.480   6.261  -0.189  0.3521  0.5625  0.2303
  702MOL0     C94699   5.380   6.290  -0.128  0.2671 -0.0721  0.0059
  702MOL0     C94700   6.041   5.910   0.119 -0.9154 -0.7310 -0.1658
  702MOL0     C94701   6.167   5.868   0.177  0.1040 -0.2005  0.2881
  702MOL0     C94702   6.153   5.805   0.314  0.7647  0.8360  0.0393
  702MOL0     H94703   6.520   6.053   0.401 -1.3518 -1.6925  3.0948
  702MOL0     H94704   6.724   6.030   0.558  1.5568  0.1843 -1.4474
  702MOL0     H94705   7.012   5.725   0.418  2.1980  0.3930 -3.1507
  702MOL0     H94706   7.110   5.859   0.391  1.0246 -2.7876 -1.7473
  702MOL0     H94707   7.063   5.778   0.686  2.9018  2.0711  3.4273
  702MOL0     H94708   7.189   5.886   0.630 -0.6758  0.0272  0.9536
  702MOL0     H94709   7.313   5.701   0.515 -0.5144  0.7127  0.5500
  702MOL0     H94710   7.164   5.606   0.524  0.5679 -0.7556  1.7312
  702MOL0     H94711   7.356   5.698   0.747 -0.8097  0.5119 -0.1656
  702MOL0     H94712   7.198   5.608   0.775 -0.2139  0.0997 -0.9029
  702MOL0     H94713   7.411   5.505   0.588 -3.1306 -1.2443 -1.3227
  702MOL0     H94714   7.438   5.504   0.767 -0.0876 -0.9907  1.3745
  702MOL0     H94715   7.265   5.338   0.782 -1.1843  1.4276  0.8775
  702MOL0     H94716   7.158   5.412   0.663  0.5410  0.1980 -2.4422
  702MOL0     H94717   7.394   5.222   0.595 -0.3859 -1.2836 -1.3483
  702MOL0     H94718   7.329   5.325   0.473  2.1039  0.6439  0.5614
  702MOL0     H94719   7.187   5.089   0.609 -0.9189 -0.4506 -0.1313
  702MOL0     H94720   7.096   5.218   0.524 -0.1689 -0.0878 -1.1380
  702MOL0     H94721   7.375   4.962   0.424 -1.3801 -1.1169  1.3849
  702MOL0     H94722   7.484   4.871   0.233  0.1731 -0.2363  1.0873
  702MOL0     H94723   7.403   4.876   0.084  1.2885 -2.2725  0.9854
  702MOL0     H94724   7.571   4.989  -0.014 -1.2813 -1.2105 -0.4724
  702MOL0     H94725   7.507   5.124   0.065  0.1179  0.4989 -0.3823
  702MOL0     H94726   7.629   5.079   0.280  1.2119 -1.0351  1.4073
  702MOL0     H94727   7.736   5.103   0.140 -0.1409  2.5213  3.0199
  702MOL0     H94728   7.728   4.835   0.153  0.5065  0.6399 -0.6101
  702MOL0     H94729   7.727   4.871   0.322 -2.2395 -0.0241 -0.1924
  702MOL0     H94730   7.892   4.685   0.281 -0.9211  0.9855 -0.6468
  702MOL0     H94731   8.073   4.583   0.365 -0.3875 -0.3292 -1.4707
  702MOL0     H94732   8.587   4.487   0.257  1.2734  0.4257 -0.8735
  702MOL0     H94733   8.833   4.447   0.313  0.0264 -1.0512  1.5117
  702MOL0     H94734   9.037   4.710   0.562 -0.3424  1.5980  1.8880
  702MOL0     H94735   8.998   4.617   0.703  2.6101  1.7300  0.3817
  702MOL0     H94736   9.206   4.577   0.724 -3.5551 -2.1783  2.0007
  702MOL0     H94737   9.171   4.443   0.615 -2.9653 -0.0888 -1.1945
  702MOL0     H94738   9.204   4.606   0.416  0.3732  1.0385 -0.3413
  702MOL0     H94739   9.277   4.726   0.517  0.3505  0.9012 -2.5700
  702MOL0     H94740   9.400   4.459   0.485 -0.0794 -0.3554  3.1385
  702MOL0     H94741   9.463   4.586   0.587 -1.8108  4.5817  1.5357
  702MOL0     H94742   9.405   4.623   0.286 -1.7191  1.8429  0.2639
  702MOL0     H94743   9.567   4.595   0.351 -0.4763  1.5446 -1.7793
  702MOL0     H94744   9.379   4.831   0.357 -1.5881 -1.1329  0.4075
  702MOL0     H94745   9.499   4.823   0.476  0.6388  1.8661 -0.9326
  702MOL0     H94746   9.539   4.806   0.176  1.2728 -0.4246 -0.3757
  702MOL0     H94747   9.685   4.813   0.278  0.2967  0.9950 -2.0015
  702MOL0     H94748   9.644   5.044   0.201  1.8003 -0.0280  0.9095
  702MOL0     H94749   9.484   5.046   0.287 -0.0011 -1.4552  1.1579
  702MOL0     H94750   8.824   4.763   0.599  0.5826  1.0565 -2.1538
  702MOL0     H94751   8.608   4.816   0.534 -1.1993 -1.3277  1.4594
  702MOL0     H94752   8.328   4.930   0.317  0.8815 -3.0810 -1.1664
  702MOL0     H94753   8.120   5.057   0.251 -1.2652  0.8042  3.7676
  702MOL0     H94754   6.921   5.808   0.245 -0.9529 -0.1619 -1.9078
  702MOL0     H94755   6.741   5.822   0.106 -0.3047 -0.9154  0.1808
  702MOL0     H94756   6.387   5.939  -0.072  0.1262  3.3976  0.4710
  702MOL0     H94757   6.186   6.050  -0.157  0.9118 -0.6042 -1.6022
  702MOL0     H94758   5.817   6.072   0.072  2.2281 -0.4160  0.1947
  702MOL0     H94759   5.802   5.904   0.007  1.6245  0.4643 -0.2493
  702MOL0     H94760   5.608   6.027  -0.081  0.4539  2.6604  2.2151
  702MOL0     H94761   5.723   5.979  -0.206  1.0947 -1.9020  1.2255
  702MOL0     H94762   5.814   6.194  -0.233 -1.1818 -1.3967 -2.2555
  702MOL0     H94763   5.729   6.258  -0.084 -1.3049  0.0282  0.2869
  702MOL0     H94764   5.648   6.318  -0.307  3.0693  0.0991  1.3974
  702MOL0     H94765   5.592   6.150  -0.332 -0.8337  2.0458 -0.4641
  702MOL0     H94766   5.284   6.312  -0.085 -0.2531 -1.8839 -0.1246
  702MOL0     H94767   5.947   5.887   0.168 -0.6140 -0.5182  0.5244
  702MOL0     H94768   6.236   5.739   0.339  1.9830  2.6912  1.1399
  702MOL0     H94769   6.154   5.882   0.392  2.3657  2.3240 -1.3624
  702MOL0     H94770   6.058   5.753   0.330  1.9792 -1.9938 -1.2028
  703MOL0     O94771   0.243   7.595   5.262 -0.1721 -0.2592  0.7484
  703MOL0     C94772   0.198   7.501   5.197 -0.1899  0.5618 -0.5232
  703MOL0     O94773   0.267   7.430   5.102 -0.6672 -0.2130 -0.0055
  703MOL0     C94774   0.400   7.454   5.085 -0.9356  0.8291  0.3339
  703MOL0     C94775   0.476   7.572   5.098 -0.2829 -0.2492  0.0089
  703MOL0     C94776   0.613   7.575   5.065  0.0339  0.3864 -0.2071
  703MOL0     C94777   0.675   7.463   5.012 -0.3810  0.7495  0.3927
  703MOL0     O94778   0.806   7.438   4.966 -0.1001  0.2563  0.5914
  703MOL0     C94779   0.895   7.555   4.931  0.1510  0.1637 -0.7758
  703MOL0     C94780   0.990   7.580   5.046 -0.2672  0.0311  1.1668
  703MOL0     C94781   1.109   7.489   5.039 -1.0942  0.4512 -0.1895
  703MOL0     C94782   1.230   7.549   5.106 -0.3154  0.4802 -0.3660
  703MOL0     C94783   1.357   7.460   5.096 -0.5434  0.0693  0.2174
  703MOL0     C94784   1.487   7.533   5.159  0.7039  0.1231  0.0656
  703MOL0     C94785   1.599   7.420   5.162  0.4177  0.6504  0.4704
  703MOL0     C94786   1.726   7.450   5.247  0.3423  0.6324  0.6183
  703MOL0     N94787   1.810   7.555   5.188  0.9973  0.1442 -0.2640
  703MOL0     C94788   1.929   7.533   5.121  0.0717  0.1704 -0.0013
  703MOL0     C94789   1.991   7.652   5.109  0.2084 -0.4760 -0.7361
  703MOL0     C94790   2.132   7.677   5.078 -0.4758  0.3652  1.0866
  703MOL0     C94791   2.214   7.734   5.199  0.2755  0.2740  0.5169
  703MOL0     C94792   2.356   7.786   5.169 -0.1472  0.0844 -0.9047
  703MOL0     C94793   2.358   7.906   5.081 -0.9467  0.4556  0.0370
  703MOL0     O94794   2.490   7.960   5.086 -0.2287  0.2559 -0.3198
  703MOL0     C94795   2.527   8.041   5.190 -1.1346  0.8029  0.3285
  703MOL0     C94796   2.474   8.173   5.210 -0.2484 -0.2097  0.9566
  703MOL0     C94797   2.520   8.256   5.312 -0.1087 -0.0934  0.2904
  703MOL0     C94798   2.623   8.207   5.398  0.7609  1.5133 -0.6155
  703MOL0     C94799   2.678   8.292   5.503 -0.4440  0.3307  1.1607
  703MOL0     O94800   2.790   8.248   5.579 -0.5372 -0.2601  0.3074
  703MOL0     C94801   2.862   8.342   5.640 -0.4039  0.5495 -0.9691
  703MOL0     C94802   2.997   8.350   5.601 -0.4163 -0.4200 -0.5618
  703MOL0     C94803   3.078   8.441   5.667  0.0920  0.0087  0.2547
  703MOL0     C94804   3.035   8.529   5.772  0.2011  0.1086 -0.2209
  703MOL0     O94805   3.118   8.624   5.825 -0.3093 -0.5503  0.0875
  703MOL0     C94806   3.079   8.692   5.948 -0.2874 -0.7286 -0.8201
  703MOL0     C94807   3.185   8.792   5.982 -0.0082 -0.3254  0.5168
  703MOL0     C94808   3.221   8.882   5.855  0.5240  0.2574  0.1019
  703MOL0     C94809   3.319   8.990   5.889 -0.5214  0.3195 -0.3626
  703MOL0     C94810   3.454   8.935   5.945 -0.1172 -0.1548  0.5038
  703MOL0     C94811   3.532   8.845   5.850 -0.1373 -0.0670 -0.0116
  703MOL0     C94812   3.669   8.822   5.892 -0.2940 -0.1038  0.8686
  703MOL0     C94813   3.753   8.953   5.887 -0.7767 -0.1094  1.1186
  703MOL0    Cl94814   3.918   8.905   5.905  0.2820  0.0417  0.0788
  703MOL0     C94815   2.902   8.515   5.812 -1.1029  0.0823 -0.5732
  703MOL0     C94816   2.817   8.424   5.749  0.0246  0.1682 -0.3769
  703MOL0     O94817   2.618   8.396   5.522  0.2838  0.3986  0.0753
  703MOL0     C94818   2.686   8.077   5.374 -1.0515  0.0016  0.1925
  703MOL0     C94819   2.646   7.999   5.261  0.1399 -0.5123  0.6141
  703MOL0     N94820   1.899   7.751   5.148  1.7608  0.0864 -0.1892
  703MOL0     N94821   1.784   7.691   5.191  0.2235  0.0434  0.2063
  703MOL0     C94822   0.596   7.340   5.007 -0.5242  0.3465 -0.0678
  703MOL0     C94823   0.468   7.340   5.034  1.1701 -0.3424 -1.1097
  703MOL0     C94824   0.059   7.455   5.229  0.7792  0.5007 -1.1372
  703MOL0     C94825  -0.011   7.540   5.319 -0.3748  0.3235 -1.1009
  703MOL0     C94826  -0.139   7.516   5.353 -0.2225 -0.6966  0.3295
  703MOL0     C94827  -0.214   7.415   5.291  0.6360 -0.2098 -0.7494
  703MOL0     O94828  -0.352   7.423   5.319  0.9188  0.2605 -0.0980
  703MOL0     C94829  -0.446   7.337   5.244  0.4856  0.0966  0.4765
  703MOL0     C94830  -0.592   7.379   5.278 -0.0736 -0.2519 -0.3871
  703MOL0     C94831  -0.625   7.515   5.222 -0.0861 -0.7235 -0.7884
  703MOL0     C94832  -0.639   7.511   5.065 -0.0107  0.9294 -0.2147
  703MOL0     C94833  -0.617   7.645   5.000 -0.1463  0.7349 -0.0784
  703MOL0     C94834  -0.627   7.761   4.967  0.3497 -0.3540 -0.2626
  703MOL0     C94835  -0.151   7.327   5.203  0.5367  0.9264  0.4235
  703MOL0     C94836  -0.013   7.338   5.178 -0.7463  0.0892  0.4673
  703MOL0     C94837   0.059   7.233   5.091  0.5637  0.1793 -0.1450
  703MOL0     H94838   0.431   7.665   5.131 -2.1743 -0.4073 -1.8932
  703MOL0     H94839   0.665   7.669   5.080 -1.3704  1.3290 -1.0406
  703MOL0     H94840   0.934   7.525   4.833  3.1130  0.8383  0.1086
  703MOL0     H94841   0.825   7.637   4.908 -1.6971 -1.9303 -3.3166
  703MOL0     H94842   0.924   7.582   5.133 -0.0769  0.6332  1.2969
  703MOL0     H94843   1.029   7.681   5.035  2.5514 -1.1032 -0.1870
  703MOL0     H94844   1.128   7.480   4.932 -2.4087  0.1188 -0.4192
  703MOL0     H94845   1.082   7.392   5.083 -2.7332  1.4198  1.0667
  703MOL0     H94846   1.251   7.645   5.059 -3.1806  0.1819 -2.5377
  703MOL0     H94847   1.208   7.564   5.212  1.9955  2.7553 -0.1239
  703MOL0     H94848   1.343   7.366   5.151 -0.0782  0.2304  0.6098
  703MOL0     H94849   1.376   7.435   4.991 -1.7330 -2.0771  0.4631
  703MOL0     H94850   1.513   7.626   5.109  0.1628  1.7680  2.6517
  703MOL0     H94851   1.449   7.578   5.252 -1.8579  3.0184 -2.1918
  703MOL0     H94852   1.625   7.386   5.061  1.0397 -0.1730  0.9019
  703MOL0     H94853   1.561   7.326   5.202  0.3865 -0.0926 -1.2097
  703MOL0     H94854   1.705   7.487   5.349  1.0628  1.4423  0.4886
  703MOL0     H94855   1.789   7.361   5.241  0.4964  0.8433 -3.9294
  703MOL0     H94856   1.972   7.435   5.104  1.8327  1.1482 -1.4935
  703MOL0     H94857   2.187   7.586   5.050  1.2459  1.5780  0.3461
  703MOL0     H94858   2.143   7.752   4.999  1.6504 -1.7849 -0.8522
  703MOL0     H94859   2.159   7.813   5.253  0.2669 -0.0285  0.9561
  703MOL0     H94860   2.224   7.653   5.272  0.8708 -0.8705 -0.8080
  703MOL0     H94861   2.411   7.709   5.113  0.7313 -1.1186  1.4537
  703MOL0     H94862   2.410   7.804   5.263  0.9746  1.2046 -1.7210
  703MOL0     H94863   2.294   7.987   5.117  0.7346  1.4308  0.9242
  703MOL0     H94864   2.330   7.872   4.980  0.8678 -2.1837  0.3336
  703MOL0     H94865   2.403   8.216   5.140  2.3090  4.5152  0.8504
  703MOL0     H94866   2.478   8.356   5.320  1.5255  0.6051  0.5720
  703MOL0     H94867   3.040   8.284   5.527  2.1623  0.4527  0.0312
  703MOL0     H94868   3.183   8.448   5.644  0.1967  0.1647  0.7565
  703MOL0     H94869   2.990   8.753   5.931  1.7189  2.3410 -1.1420
  703MOL0     H94870   3.059   8.625   6.033 -3.5937 -1.2865 -1.8963
  703MOL0     H94871   3.153   8.855   6.067 -0.0481  1.6390 -0.8855
  703MOL0     H94872   3.275   8.734   6.004 -0.2769 -1.3492 -0.9392
  703MOL0     H94873   3.279   8.828   5.780  1.3878  1.3528 -0.0466
  703MOL0     H94874   3.127   8.927   5.821 -0.3625 -1.2232  0.5104
  703MOL0     H94875   3.282   9.068   5.956  0.7599  0.6294  0.0157
  703MOL0     H94876   3.339   9.041   5.794  0.2807  0.5668 -0.0761
  703MOL0     H94877   3.431   8.883   6.038  2.5427 -0.9669  0.7903
  703MOL0     H94878   3.515   9.023   5.968 -0.2255  0.3236 -0.9343
  703MOL0     H94879   3.483   8.748   5.834  2.3697 -1.2907 -0.8773
  703MOL0     H94880   3.528   8.898   5.754  0.2985 -0.7726 -0.4321
  703MOL0     H94881   3.714   8.754   5.819 -0.8728  2.7209 -2.3582
  703MOL0     H94882   3.669   8.775   5.991 -3.2342  1.2706  1.6399
  703MOL0     H94883   3.741   9.008   5.792  0.0326 -0.6218  0.7155
  703MOL0     H94884   3.732   9.022   5.969 -0.9880  2.5264 -0.9843
  703MOL0     H94885   2.858   8.581   5.885 -2.8317 -1.6054 -0.0169
  703MOL0     H94886   2.716   8.401   5.779  0.9214 -0.7976  2.1226
  703MOL0     H94887   2.765   8.035   5.436  0.2935 -1.4755 -2.3607
  703MOL0     H94888   2.701   7.910   5.235  2.5461  0.5862  1.6265
  703MOL0     H94889   0.641   7.251   4.964 -1.5544 -1.5245  2.4698
  703MOL0     H94890   0.412   7.248   5.024 -4.3602  2.1670  2.3358
  703MOL0     H94891   0.043   7.627   5.355  3.9833 -1.4648 -2.5941
  703MOL0     H94892  -0.189   7.578   5.427  0.9982  1.7660 -0.7915
  703MOL0     H94893  -0.426   7.233   5.272  1.9083  0.2017 -0.0806
  703MOL0     H94894  -0.427   7.339   5.137 -0.7338 -1.5299  0.1871
  703MOL0     H94895  -0.615   7.371   5.385  0.3222 -1.0558 -0.3546
  703MOL0     H94896  -0.658   7.312   5.223 -2.3498  0.6921  1.0597
  703MOL0     H94897  -0.558   7.595   5.255 -0.4520 -0.0158 -1.7334
  703MOL0     H94898  -0.725   7.544   5.254  1.1026 -0.4145  3.2116
  703MOL0     H94899  -0.579   7.428   5.026  0.1117  0.4826  0.8706
  703MOL0     H94900  -0.744   7.487   5.050  0.0965  1.2679 -1.6827
  703MOL0     H94901  -0.641   7.861   4.932 -2.2346 -0.8367 -0.8662
  703MOL0     H94902  -0.200   7.242   5.157  1.9078 -0.5761  1.6104
  703MOL0     H94903  -0.006   7.145   5.088 -0.7714  1.1576 -1.6808
  703MOL0     H94904   0.069   7.277   4.992 -3.0480  2.9714  0.5383
  703MOL0     H94905   0.152   7.209   5.143  1.0998  1.6648 -0.3878
  704MOL0     O94906   4.334  10.182   1.260 -0.2511  0.0578 -0.5222
  704MOL0     C94907   4.367  10.131   1.155  0.1307  0.1522  0.1365
  704MOL0     O94908   4.495  10.147   1.101  0.8368  0.6183  0.3057
  704MOL0     C94909   4.604  10.167   1.193  0.6388  0.0072 -0.2816
  704MOL0     C94910   4.699  10.267   1.171 -0.7080 -0.6224 -0.5779
  704MOL0     C94911   4.814  10.287   1.253 -0.4874  0.2629  0.3308
  704MOL0     C94912   4.844  10.200   1.359  0.3273 -0.8123 -0.0839
  704MOL0     O94913   4.970  10.210   1.425  0.2097 -0.3850 -0.1469
  704MOL0     C94914   5.017  10.346   1.450 -0.8981 -0.1571 -1.1123
  704MOL0     C94915   5.143  10.315   1.535  0.1960  0.8762  0.1164
  704MOL0     C94916   5.181  10.430   1.631 -0.3599 -0.8823 -1.0294
  704MOL0     C94917   5.307  10.404   1.715 -0.3213 -0.8119 -0.6858
  704MOL0     C94918   5.338  10.533   1.790  0.1037 -1.3165  0.2563
  704MOL0     C94919   5.464  10.519   1.874  0.1056 -0.1380 -0.6965
  704MOL0     C94920   5.492  10.643   1.955  0.0659 -0.6555 -0.3507
  704MOL0     C94921   5.634  10.642   2.023  0.0137  1.0075  0.0282
  704MOL0     N94922   5.730  10.673   1.927 -0.5920 -0.0747  0.6152
  704MOL0     C94923   5.818  10.593   1.865 -0.1019  0.1223  0.0177
  704MOL0     C94924   5.899  10.682   1.801  0.3320 -0.2991  1.2352
  704MOL0     C94925   6.006  10.665   1.698  0.2569  0.6356 -0.3385
  704MOL0     C94926   6.133  10.734   1.749 -0.0176 -0.1117  0.1987
  704MOL0     C94927   6.204  10.649   1.859  0.1347 -0.4598  0.0994
  704MOL0     C94928   6.325  10.718   1.918  0.0160 -0.4688  0.3041
  704MOL0     O94929   6.411  10.623   1.982  0.6912  0.4002 -0.2442
  704MOL0     C94930   6.535  10.668   2.023  0.1463 -0.4769 -0.0258
  704MOL0     C94931   6.583  10.807   2.010  0.1148  0.3973  0.7603
  704MOL0     C94932   6.708  10.839   2.055 -1.1769 -0.2933  0.6275
  704MOL0     C94933   6.802  10.744   2.087 -1.0665  0.0908  0.4970
  704MOL0     C94934   6.942  10.777   2.132  0.4355  0.1390 -0.2691
  704MOL0     O94935   6.964  10.910   2.160  0.4599  0.0319 -0.6005
  704MOL0     C94936   7.090  10.949   2.197 -0.2286  0.0435 -0.0273
  704MOL0     C94937   7.128  10.954   2.326 -0.3333 -1.0174 -0.9297
  704MOL0     C94938   7.258  11.011   2.358 -0.2378 -0.6319  0.2350
  704MOL0     C94939   7.349  11.052   2.252 -0.2561 -0.3868 -0.5568
  704MOL0     O94940   7.481  11.091   2.269  0.1372  0.8022  0.2083
  704MOL0     C94941   7.517  11.147   2.396 -0.5824 -0.2973 -0.0935
  704MOL0     C94942   7.654  11.215   2.381  0.4657  0.0144 -0.7302
  704MOL0     C94943   7.763  11.102   2.381  0.6516  0.4252  0.4270
  704MOL0     C94944   7.809  11.083   2.522  0.6811  0.1586  0.9264
  704MOL0     C94945   7.888  10.956   2.529 -0.8915  0.4084 -0.4836
  704MOL0     C94946   8.028  10.973   2.473 -0.5543 -0.3407  0.0912
  704MOL0     C94947   8.107  10.846   2.501  0.4608  0.0749  0.2746
  704MOL0     C94948   8.247  10.848   2.458 -0.0910  0.1828 -0.0203
  704MOL0    Cl94949   8.286  10.871   2.282  0.3151  0.0762 -0.0491
  704MOL0     C94950   7.309  11.037   2.120 -0.1701 -0.8730  0.2913
  704MOL0     C94951   7.183  10.985   2.095 -0.9246 -0.7148  0.1817
  704MOL0     O94952   7.023  10.689   2.156 -0.2694 -0.3017 -0.2035
  704MOL0     C94953   6.760  10.612   2.090 -0.0430 -0.3326 -0.2628
  704MOL0     C94954   6.625  10.573   2.070 -0.1878  0.9013  0.0999
  704MOL0     N94955   5.858  10.808   1.818  0.0369  0.0211  0.2218
  704MOL0     N94956   5.757  10.800   1.899 -0.4645 -0.3555 -0.0733
  704MOL0     C94957   4.748  10.094   1.381 -1.1953  0.8279 -0.3194
  704MOL0     C94958   4.626  10.084   1.303 -0.5427  0.3120  0.1097
  704MOL0     C94959   4.270  10.035   1.085  0.8081 -0.0937 -0.5962
  704MOL0     C94960   4.323   9.944   0.990  0.9694 -0.2254  0.0486
  704MOL0     C94961   4.234   9.865   0.917  0.9266 -0.5036 -0.9606
  704MOL0     C94962   4.102   9.860   0.947 -0.5767  0.1551  0.0153
  704MOL0     O94963   4.033   9.767   0.873 -0.0679  0.1689 -0.5939
  704MOL0     C94964   3.954   9.809   0.759 -0.3926  1.1126  0.2225
  704MOL0     C94965   3.820   9.871   0.802  0.1334 -0.4506  0.6760
  704MOL0     C94966   3.753   9.763   0.875  0.3863  1.0388 -0.5219
  704MOL0     C94967   3.608   9.811   0.901 -0.9574 -0.1765 -0.8451
  704MOL0     C94968   3.528   9.689   0.948 -0.4787 -0.1645  0.0778
  704MOL0     C94969   3.472   9.580   0.977  0.2860  0.7504  0.0020
  704MOL0     C94970   4.048   9.933   1.045  0.1165 -0.1548  0.3327
  704MOL0     C94971   4.128  10.020   1.117  0.3088  0.0316 -0.2811
  704MOL0     C94972   4.059  10.093   1.234  0.4399  0.5688  0.2486
  704MOL0     H94973   4.696  10.332   1.084 -3.4800 -0.6279 -0.5660
  704MOL0     H94974   4.877  10.371   1.223 -1.0379  0.1841 -1.1499
  704MOL0     H94975   5.041  10.397   1.357  0.4724  2.5926  0.6187
  704MOL0     H94976   4.946  10.410   1.504  3.8210  2.4780  2.7691
  704MOL0     H94977   5.227  10.297   1.468 -0.1903  0.0750 -0.1681
  704MOL0     H94978   5.130  10.228   1.599  1.8668 -0.3630 -1.1587
  704MOL0     H94979   5.111  10.458   1.710  0.3765 -1.1084 -0.2809
  704MOL0     H94980   5.217  10.513   1.571  1.9824 -1.0967 -0.0458
  704MOL0     H94981   5.296  10.318   1.782 -0.0004 -0.8320 -0.6578
  704MOL0     H94982   5.391  10.374   1.651 -0.1926 -2.5225  0.2143
  704MOL0     H94983   5.346  10.611   1.714 -2.9684 -0.1728  0.9536
  704MOL0     H94984   5.256  10.551   1.860 -0.0796 -1.5848  0.1074
  704MOL0     H94985   5.450  10.435   1.942 -1.4932  2.2377  2.1595
  704MOL0     H94986   5.546  10.489   1.808 -2.0545 -2.6199 -2.4390
  704MOL0     H94987   5.407  10.645   2.024 -0.1616 -1.8063 -0.5816
  704MOL0     H94988   5.487  10.729   1.886  1.0412 -0.4084 -0.1250
  704MOL0     H94989   5.652  10.725   2.092  0.8050  1.3542 -0.5805
  704MOL0     H94990   5.665  10.553   2.079  0.3022  1.5909  0.8120
  704MOL0     H94991   5.817  10.486   1.882  0.0262  0.4284  2.2883
  704MOL0     H94992   6.023  10.558   1.679 -0.4623  0.4358  0.1126
  704MOL0     H94993   5.976  10.704   1.601  1.5620 -0.5293 -1.2589
  704MOL0     H94994   6.196  10.739   1.660 -0.5324 -1.1126 -0.2372
  704MOL0     H94995   6.104  10.830   1.793 -2.0875  0.6033 -2.4303
  704MOL0     H94996   6.239  10.553   1.820 -0.4511 -1.4715  1.9791
  704MOL0     H94997   6.134  10.619   1.938  1.1751 -0.4040  1.0635
  704MOL0     H94998   6.285  10.788   1.992  0.9315 -2.4344  2.8346
  704MOL0     H94999   6.376  10.776   1.841 -0.9324 -0.4682 -0.3404
  704MOL0     H95000   6.523  10.882   1.959 -0.8647 -0.9352 -0.1294
  704MOL0     H95001   6.747  10.939   2.039  0.1642 -0.7540  0.9123
  704MOL0     H95002   7.069  10.927   2.413  1.3979  0.6390  0.8686
  704MOL0     H95003   7.288  11.019   2.462  0.9103  1.8429 -0.2256
  704MOL0     H95004   7.436  11.217   2.416 -1.6197 -0.3916 -3.4680
  704MOL0     H95005   7.525  11.071   2.475  1.5258  3.6170  3.9614
  704MOL0     H95006   7.652  11.270   2.286  0.0801  2.4666  0.6148
  704MOL0     H95007   7.672  11.284   2.464 -0.8567  0.0899 -0.4907
  704MOL0     H95008   7.734  11.005   2.339  4.8754 -1.2124  0.7417
  704MOL0     H95009   7.847  11.141   2.323  0.9426  1.4867  1.5139
  704MOL0     H95010   7.723  11.068   2.588 -0.1855 -0.6350 -0.3073
  704MOL0     H95011   7.871  11.161   2.567  3.6916 -2.4993  1.7264
  704MOL0     H95012   7.848  10.868   2.479 -2.0244  1.6525 -1.8722
  704MOL0     H95013   7.890  10.930   2.635 -2.8913 -0.0379 -0.5273
  704MOL0     H95014   8.020  10.974   2.364  1.5500 -1.4506 -0.1294
  704MOL0     H95015   8.088  11.054   2.517 -0.3783 -0.3819 -0.0688
  704MOL0     H95016   8.057  10.765   2.446 -2.3104  0.3829  2.1301
  704MOL0     H95017   8.103  10.820   2.607 -0.0299  0.0016  0.2384
  704MOL0     H95018   8.300  10.934   2.501 -0.3101  1.6649 -2.5446
  704MOL0     H95019   8.290  10.758   2.502  0.0800  0.0157 -0.5198
  704MOL0     H95020   7.386  11.052   2.045  0.2967  0.7002  1.0412
  704MOL0     H95021   7.152  10.966   1.993  0.5073 -3.7956  0.2005
  704MOL0     H95022   6.836  10.537   2.112  0.4638 -0.2749 -1.7631
  704MOL0     H95023   6.584  10.472   2.075  0.3820  0.2861 -4.1187
  704MOL0     H95024   4.767  10.023   1.461 -0.4355 -0.9429 -2.0057
  704MOL0     H95025   4.549  10.011   1.328 -1.4526  2.2580  3.5210
  704MOL0     H95026   4.429   9.934   0.970  0.6636 -2.8864 -0.5681
  704MOL0     H95027   4.251   9.798   0.833 -2.3497 -2.1937 -0.4374
  704MOL0     H95028   3.937   9.710   0.717 -2.4316  0.8250  1.5721
  704MOL0     H95029   4.014   9.874   0.694 -1.6952  2.3437  0.1916
  704MOL0     H95030   3.753   9.906   0.723  1.2087 -0.1064 -0.0969
  704MOL0     H95031   3.839   9.961   0.861 -2.3642  0.0864  0.7911
  704MOL0     H95032   3.803   9.739   0.969  0.1389 -0.4663 -0.7531
  704MOL0     H95033   3.743   9.673   0.814  2.3447 -1.1167  2.0760
  704MOL0     H95034   3.606   9.881   0.985 -1.4106 -0.0390 -0.9683
  704MOL0     H95035   3.562   9.857   0.813 -0.9467 -1.3747 -1.4926
  704MOL0     H95036   3.428   9.486   1.006  0.9496 -0.2839 -2.1073
  704MOL0     H95037   3.942   9.923   1.062 -0.3606 -4.2697 -3.4574
  704MOL0     H95038   4.103  10.075   1.332 -0.4443  2.1744  0.9802
  704MOL0     H95039   4.065  10.200   1.212  3.2746  0.0030 -2.4134
  704MOL0     H95040   3.953  10.070   1.251  0.1911  0.4068 -1.3294
  705MOL0     O95041   3.942   4.783   6.695  0.2165 -0.0446 -0.4029
  705MOL0     C95042   3.891   4.778   6.804 -0.2961  0.2460 -0.2621
  705MOL0     O95043   3.954   4.778   6.925  0.1823 -0.8190 -1.7864
  705MOL0     C95044   4.084   4.822   6.905 -0.4907  0.4474 -0.1820
  705MOL0     C95045   4.196   4.730   6.909  0.6537 -0.5162 -1.2498
  705MOL0     C95046   4.323   4.773   6.870  0.1678  0.5501  0.0831
  705MOL0     C95047   4.352   4.910   6.838 -0.0629  0.2419  0.1334
  705MOL0     O95048   4.481   4.943   6.792  0.2215 -0.6904  0.3081
  705MOL0     C95049   4.531   5.076   6.825  0.6833 -0.0837  0.3206
  705MOL0     C95050   4.680   5.062   6.855  0.4001 -0.8223 -0.1963
  705MOL0     C95051   4.739   5.187   6.917  0.4708  0.0793  0.1161
  705MOL0     C95052   4.886   5.177   6.957  0.0180 -0.1749  0.6837
  705MOL0     C95053   4.937   5.319   7.001 -0.0401  0.5303 -0.9725
  705MOL0     C95054   4.975   5.417   6.891 -0.3214 -0.1062 -0.6396
  705MOL0     C95055   5.048   5.358   6.770 -0.4449  0.3503  0.2583
  705MOL0     C95056   5.078   5.473   6.675 -0.0322 -0.2712  0.3814
  705MOL0     N95057   5.198   5.548   6.725  0.4033 -0.1477 -0.0148
  705MOL0     C95058   5.202   5.675   6.791 -0.8436 -0.6357  0.0628
  705MOL0     C95059   5.334   5.695   6.825  0.1881  0.3363  0.6567
  705MOL0     C95060   5.380   5.811   6.903 -0.2026 -0.3388 -0.5356
  705MOL0     C95061   5.527   5.839   6.879  0.1813 -0.9674 -0.3640
  705MOL0     C95062   5.557   5.970   6.948 -0.7731  0.0898  0.4678
  705MOL0     C95063   5.687   6.039   6.904 -0.3039 -0.1044 -0.5454
  705MOL0     O95064   5.723   6.133   7.004 -0.4204  0.4327 -0.0849
  705MOL0     C95065   5.843   6.195   6.992 -0.5484  0.2025  0.3621
  705MOL0     C95066   5.920   6.203   6.876  0.0394  0.1113 -0.5545
  705MOL0     C95067   6.049   6.264   6.876  0.8886  0.3101  0.3676
  705MOL0     C95068   6.099   6.329   7.000  0.6310  1.2266 -0.3782
  705MOL0     C95069   6.227   6.402   7.009  0.2227 -0.1092 -0.0769
  705MOL0     O95070   6.248   6.471   7.121 -0.1043 -0.4049 -0.3840
  705MOL0     C95071   6.366   6.524   7.154  0.0138  0.5780 -0.4135
  705MOL0     C95072   6.483   6.483   7.099 -0.1002 -0.0598 -0.4447
  705MOL0     C95073   6.599   6.544   7.153  1.4243 -0.3957  0.0790
  705MOL0     C95074   6.606   6.641   7.251  0.1007 -0.6082 -0.0794
  705MOL0     O95075   6.736   6.675   7.290 -0.1194 -0.1679  0.0048
  705MOL0     C95076   6.757   6.757   7.404  0.3057  0.0760  0.0413
  705MOL0     C95077   6.740   6.911   7.397 -0.1245  1.2788 -0.4334
  705MOL0     C95078   6.870   6.967   7.334  0.2924 -0.1876 -0.8074
  705MOL0     C95079   6.980   6.989   7.436 -0.2684 -0.4303 -0.0244
  705MOL0     C95080   7.117   7.014   7.386  0.3896  0.2494  0.1342
  705MOL0     C95081   7.123   7.116   7.271  0.5349 -0.8970  0.0881
  705MOL0     C95082   7.260   7.160   7.228  0.5571 -0.2822 -1.0640
  705MOL0     C95083   7.261   7.217   7.086 -0.8324 -0.1532 -0.3968
  705MOL0    Cl95084   7.119   7.333   7.066 -0.3040  0.2599  0.0734
  705MOL0     C95085   6.480   6.684   7.302 -1.0602 -0.7270  0.9707
  705MOL0     C95086   6.362   6.623   7.248  0.8072 -0.1039 -0.1238
  705MOL0     O95087   6.296   6.389   6.910 -0.6338  0.1916  0.2143
  705MOL0     C95088   6.012   6.324   7.108  1.0297  0.0127  0.2087
  705MOL0     C95089   5.881   6.266   7.108 -0.1948  0.9658  0.4741
  705MOL0     N95090   5.401   5.587   6.772 -0.9855  0.3953  0.1320
  705MOL0     N95091   5.325   5.504   6.708 -0.1661 -0.9218  0.0239
  705MOL0     C95092   4.246   4.997   6.854  0.6798 -0.5847  0.1637
  705MOL0     C95093   4.118   4.957   6.887 -0.3960 -0.6653  0.3528
  705MOL0     C95094   3.748   4.756   6.793  0.0567 -0.3508  0.5067
  705MOL0     C95095   3.669   4.814   6.684 -0.0281 -0.0513  0.4304
  705MOL0     C95096   3.532   4.798   6.676 -0.0333  0.2949 -0.4779
  705MOL0     C95097   3.466   4.709   6.763 -0.8692  0.4395  0.6094
  705MOL0     O95098   3.332   4.697   6.752  0.2255  0.7247  0.3879
  705MOL0     C95099   3.263   4.612   6.841  0.3673 -1.5538 -1.0835
  705MOL0     C95100   3.123   4.565   6.793 -0.2079 -0.0246 -0.2915
  705MOL0     C95101   3.040   4.674   6.725  0.3903  0.2889 -0.3189
  705MOL0     C95102   2.896   4.631   6.699  0.5309 -0.3885  0.0299
  705MOL0     C95103   2.892   4.556   6.565  0.8082 -0.2011  0.2069
  705MOL0     C95104   2.899   4.497   6.461 -0.2834  0.4942  0.1702
  705MOL0     C95105   3.544   4.643   6.861  0.4617 -0.9693  0.8587
  705MOL0     C95106   3.682   4.664   6.865  0.2546  0.3011 -0.6061
  705MOL0     C95107   3.746   4.572   6.969  0.1221 -0.9741 -0.2051
  705MOL0     H95108   4.172   4.631   6.946 -0.7666 -0.0422 -0.8170
  705MOL0     H95109   4.404   4.702   6.857  0.8187  1.6376 -2.2689
  705MOL0     H95110   4.516   5.137   6.736 -0.9401  0.1086  0.6944
  705MOL0     H95111   4.485   5.125   6.912  1.3272 -1.7135  1.6365
  705MOL0     H95112   4.724   5.048   6.756  0.4896  2.5810 -0.7617
  705MOL0     H95113   4.690   4.978   6.925 -2.3579 -0.4606  0.7528
  705MOL0     H95114   4.681   5.212   7.006 -1.4882 -0.1161 -1.0486
  705MOL0     H95115   4.726   5.267   6.844  2.8245  0.5959  0.1807
  705MOL0     H95116   4.886   5.102   7.036 -0.0293 -1.0316 -0.1009
  705MOL0     H95117   4.949   5.136   6.877  0.3488  0.7810  0.4402
  705MOL0     H95118   4.858   5.358   7.067  0.5447 -3.9781  2.9209
  705MOL0     H95119   5.018   5.301   7.072 -2.3136  0.3926  1.7978
  705MOL0     H95120   4.883   5.470   6.864  0.2679  1.7729  0.8378
  705MOL0     H95121   5.043   5.482   6.946  0.5838 -1.8883  0.4137
  705MOL0     H95122   4.980   5.297   6.711 -1.1168  1.1618  0.1695
  705MOL0     H95123   5.143   5.314   6.802  0.2001  0.8037 -0.9339
  705MOL0     H95124   5.112   5.430   6.580 -2.7894 -0.8456 -0.4372
  705MOL0     H95125   4.984   5.527   6.658  0.3487  0.1328 -0.5250
  705MOL0     H95126   5.124   5.742   6.826  0.0457 -0.3287  1.5646
  705MOL0     H95127   5.315   5.896   6.880 -1.3898 -0.0426  3.2315
  705MOL0     H95128   5.371   5.805   7.012  0.1852  1.2481 -0.3920
  705MOL0     H95129   5.570   5.758   6.939  0.1914  2.3487  4.7151
  705MOL0     H95130   5.552   5.857   6.774  0.2484 -1.7460 -0.4888
  705MOL0     H95131   5.560   5.959   7.057  0.4231  1.6184  0.6310
  705MOL0     H95132   5.478   6.041   6.921  1.5386  2.6099 -0.1189
  705MOL0     H95133   5.673   6.077   6.802 -1.6486 -0.7879 -0.6458
  705MOL0     H95134   5.769   5.966   6.906 -1.0337 -0.9251  0.2281
  705MOL0     H95135   5.884   6.160   6.783  1.5125 -1.8501 -0.2821
  705MOL0     H95136   6.113   6.254   6.789  1.1091 -0.1657  0.5772
  705MOL0     H95137   6.507   6.406   7.026 -1.7382  1.6914 -2.9821
  705MOL0     H95138   6.697   6.525   7.109  0.8512 -0.2494 -1.2906
  705MOL0     H95139   6.694   6.714   7.482  0.8334 -2.4832 -0.8280
  705MOL0     H95140   6.860   6.739   7.437 -0.2482 -2.1364  0.7660
  705MOL0     H95141   6.648   6.937   7.343 -1.8078 -1.2833  0.9847
  705MOL0     H95142   6.720   6.955   7.495 -1.7452 -1.6276  0.6832
  705MOL0     H95143   6.900   6.908   7.247  2.0268  0.2739 -0.5750
  705MOL0     H95144   6.845   7.063   7.288  1.2562  0.0204 -0.9254
  705MOL0     H95145   6.972   6.918   7.518 -0.8188  0.7901  1.0202
  705MOL0     H95146   6.958   7.085   7.484 -3.8245 -2.1686  2.2865
  705MOL0     H95147   7.165   6.921   7.356  1.2179  1.4117 -2.4652
  705MOL0     H95148   7.185   7.037   7.469  1.0211  1.6819 -0.7455
  705MOL0     H95149   7.068   7.070   7.189 -0.9374  1.1577 -0.1597
  705MOL0     H95150   7.067   7.205   7.300 -1.3257 -1.8074 -0.5530
  705MOL0     H95151   7.329   7.076   7.239  1.4446  0.6629  1.0945
  705MOL0     H95152   7.306   7.226   7.301 -0.7780  0.3716 -0.7854
  705MOL0     H95153   7.355   7.267   7.064  1.7485 -3.3767  2.2396
  705MOL0     H95154   7.248   7.131   7.020  0.4159 -0.7460  0.0916
  705MOL0     H95155   6.464   6.765   7.373 -0.6736  1.6384 -1.4917
  705MOL0     H95156   6.266   6.658   7.283  1.4055  1.3655  0.1223
  705MOL0     H95157   6.042   6.373   7.200  4.9378 -0.4277 -0.6331
  705MOL0     H95158   5.820   6.274   7.198 -0.2348 -1.0990  0.6736
  705MOL0     H95159   4.249   5.102   6.826  1.5867 -0.7528 -0.4382
  705MOL0     H95160   4.036   5.027   6.877  0.7278  0.4045 -2.7187
  705MOL0     H95161   3.708   4.895   6.623 -1.7930  1.7041  1.5031
  705MOL0     H95162   3.469   4.860   6.612 -0.6334 -0.6519 -0.8142
  705MOL0     H95163   3.239   4.681   6.923 -0.3429  2.7312 -4.5263
  705MOL0     H95164   3.318   4.522   6.871  1.1208 -0.9596 -0.6651
  705MOL0     H95165   3.062   4.526   6.875 -1.7674  2.4654 -0.1473
  705MOL0     H95166   3.145   4.483   6.724  1.6016 -0.5916  0.8886
  705MOL0     H95167   3.083   4.701   6.628  2.9510  2.8162  1.3874
  705MOL0     H95168   3.036   4.766   6.783  0.4565  0.9319 -1.3114
  705MOL0     H95169   2.855   4.579   6.785  1.9685  2.1484  2.4289
  705MOL0     H95170   2.835   4.721   6.686 -1.7432 -1.8450  0.1123
  705MOL0     H95171   2.887   4.464   6.360  1.4383  1.5550 -0.4266
  705MOL0     H95172   3.499   4.573   6.930 -0.9999  0.1301  1.0763
  705MOL0     H95173   3.752   4.637   7.056  1.4576 -1.0846 -0.1905
  705MOL0     H95174   3.678   4.487   6.983 -3.0929  1.5406  0.3994
  705MOL0     H95175   3.845   4.533   6.941  0.5035  0.0128 -0.2624
  706MOL0     O95176   3.260  10.258   6.351  0.4638 -0.3018  0.3389
  706MOL0     C95177   3.271  10.381   6.369  0.9187 -0.4862 -0.5443
  706MOL0     O95178   3.197  10.482   6.302 -0.2623 -0.0645 -0.4490
  706MOL0     C95179   3.079  10.451   6.243  0.7074 -0.7142 -0.1615
  706MOL0     C95180   2.966  10.368   6.287  0.3121 -0.4132 -0.8258
  706MOL0     C95181   2.851  10.340   6.208  0.4539 -0.5448 -0.5399
  706MOL0     C95182   2.838  10.416   6.098 -0.1536 -0.1867 -0.1586
  706MOL0     O95183   2.723  10.411   6.025 -0.7824 -0.5255 -0.0690
  706MOL0     C95184   2.745  10.330   5.906 -0.2119 -0.2675 -0.7927
  706MOL0     C95185   2.669  10.393   5.792  0.0646 -1.1548  0.1545
  706MOL0     C95186   2.748  10.509   5.732  0.5760 -0.2874 -0.0234
  706MOL0     C95187   2.675  10.557   5.600 -0.7501  0.3462 -0.4850
  706MOL0     C95188   2.726  10.691   5.545 -0.1923  0.0452 -0.1103
  706MOL0     C95189   2.724  10.700   5.403 -0.6728 -0.2159  0.6311
  706MOL0     C95190   2.728  10.842   5.347 -0.4659 -0.6939  0.5736
  706MOL0     C95191   2.863  10.896   5.360  0.3712 -0.2680  0.5202
  706MOL0     N95192   2.873  11.006   5.266  0.0672 -0.6080 -1.1838
  706MOL0     C95193   2.866  11.009   5.129 -0.0685 -0.1482  0.1401
  706MOL0     C95194   2.903  11.136   5.095  0.2372 -0.0072  0.0673
  706MOL0     C95195   2.918  11.186   4.957 -0.9247  0.4853 -0.1142
  706MOL0     C95196   2.885  11.081   4.845  0.3902  0.4459  0.2902
  706MOL0     C95197   2.894  11.131   4.708  0.9720  0.5572 -0.0467
  706MOL0     C95198   2.766  11.219   4.669  0.2987  1.1544  0.5993
  706MOL0     O95199   2.647  11.132   4.670 -0.5811 -0.9179 -0.1210
  706MOL0     C95200   2.526  11.184   4.632  0.5337 -0.1681 -0.2609
  706MOL0     C95201   2.417  11.103   4.630  0.2960 -0.1045  0.6357
  706MOL0     C95202   2.288  11.138   4.585  0.4701  0.0254 -0.5746
  706MOL0     C95203   2.258  11.258   4.530  1.1939  0.2161  0.1055
  706MOL0     C95204   2.119  11.294   4.490  0.1897  0.1629  0.3364
  706MOL0     O95205   2.025  11.188   4.482  0.5539  0.5240  0.0339
  706MOL0     C95206   1.892  11.219   4.445  0.6281  0.4085  0.2577
  706MOL0     C95207   1.793  11.230   4.548 -0.1421  0.2189  0.0057
  706MOL0     C95208   1.660  11.242   4.512  0.4765  0.6665  0.2729
  706MOL0     C95209   1.619  11.244   4.375 -0.6127  0.1022  0.6627
  706MOL0     O95210   1.482  11.275   4.353 -0.2356  0.0410 -0.5347
  706MOL0     C95211   1.423  11.272   4.221 -0.0372  0.1642  0.3952
  706MOL0     C95212   1.310  11.367   4.189 -0.3884 -0.6065  0.2980
  706MOL0     C95213   1.213  11.360   4.311  0.8871 -0.0089 -1.2050
  706MOL0     C95214   1.081  11.404   4.249 -0.3174  0.0849 -0.6098
  706MOL0     C95215   0.977  11.459   4.352  0.1680 -0.3912  0.6705
  706MOL0     C95216   0.939  11.352   4.454  0.7995  0.8172  0.1679
  706MOL0     C95217   0.798  11.377   4.512  0.9272  0.2024 -0.1834
  706MOL0     C95218   0.802  11.485   4.618 -0.2689 -0.2672  0.3989
  706MOL0    Cl95219   0.640  11.555   4.647 -0.0622 -0.4289 -0.5851
  706MOL0     C95220   1.719  11.219   4.272 -0.4223 -0.7534 -0.9003
  706MOL0     C95221   1.853  11.212   4.309  0.0047 -0.1282  0.7203
  706MOL0     O95222   2.092  11.409   4.467  0.6651 -0.5859  0.7538
  706MOL0     C95223   2.363  11.349   4.529  0.1629  0.1018 -0.7815
  706MOL0     C95224   2.494  11.322   4.585 -0.5054 -0.1081  0.1639
  706MOL0     N95225   2.934  11.205   5.210 -0.1812  0.5659  0.2385
  706MOL0     N95226   2.922  11.123   5.310 -0.2072 -0.6035  0.1488
  706MOL0     C95227   2.934  10.503   6.056 -0.4365  0.0365  0.7261
  706MOL0     C95228   3.055  10.506   6.122 -0.2844  0.4831 -0.0318
  706MOL0     C95229   3.381  10.430   6.460  0.6755  0.5069 -0.1549
  706MOL0     C95230   3.367  10.551   6.525 -0.2304  0.3096  0.7070
  706MOL0     C95231   3.461  10.599   6.612  0.6200 -0.2752 -0.2766
  706MOL0     C95232   3.577  10.538   6.643 -0.2391 -0.4654  0.3980
  706MOL0     O95233   3.674  10.609   6.720  0.0390 -0.1515  0.7767
  706MOL0     C95234   3.798  10.531   6.737  0.9949 -0.9532  0.4118
  706MOL0     C95235   3.861  10.582   6.870 -0.7287  0.6234  0.3612
  706MOL0     C95236   3.883  10.730   6.865  0.3072 -0.9005 -0.0061
  706MOL0     C95237   3.930  10.791   7.001  0.1589  0.1221 -0.4567
  706MOL0     C95238   4.029  10.724   7.089  0.1973 -0.3867  0.1680
  706MOL0     C95239   4.106  10.673   7.165 -0.1530 -0.1212 -0.4937
  706MOL0     C95240   3.598  10.413   6.579  0.3116 -0.7835 -0.0438
  706MOL0     C95241   3.501  10.355   6.490  0.6788 -0.3237 -0.0179
  706MOL0     C95242   3.537  10.219   6.435  0.1825 -0.1694  0.3111
  706MOL0     H95243   2.971  10.329   6.389  1.3074  2.1639  0.2131
  706MOL0     H95244   2.768  10.277   6.238 -0.4292  1.0092  0.4410
  706MOL0     H95245   2.847  10.296   5.888 -0.0555  0.6818 -1.8366
  706MOL0     H95246   2.694  10.235   5.919  1.4243 -1.7630 -4.1147
  706MOL0     H95247   2.577  10.441   5.828  1.8220  1.8770  0.9192
  706MOL0     H95248   2.656  10.320   5.711 -0.7847  2.9521 -3.8596
  706MOL0     H95249   2.851  10.477   5.711  1.4775 -0.2727  3.7306
  706MOL0     H95250   2.767  10.584   5.809 -0.8428  0.2743 -0.1952
  706MOL0     H95251   2.681  10.483   5.520  1.1258 -0.5598  0.4358
  706MOL0     H95252   2.567  10.572   5.613 -0.6257  1.9356 -1.0573
  706MOL0     H95253   2.658  10.767   5.585 -3.1195 -2.4113 -0.0744
  706MOL0     H95254   2.824  10.719   5.586  1.0389 -1.7685 -1.6185
  706MOL0     H95255   2.800  10.635   5.359 -0.6421  0.2366 -0.0008
  706MOL0     H95256   2.629  10.665   5.362 -0.2131  3.2837 -4.3104
  706MOL0     H95257   2.655  10.912   5.389  0.7465  0.2279  1.2266
  706MOL0     H95258   2.700  10.838   5.242 -0.6365  0.0267  0.5859
  706MOL0     H95259   2.880  10.933   5.461  4.1681  0.2201 -0.1717
  706MOL0     H95260   2.938  10.821   5.335 -0.0549 -0.2453 -0.9131
  706MOL0     H95261   2.831  10.930   5.064 -0.2447  0.1402 -0.1142
  706MOL0     H95262   2.851  11.272   4.945 -0.6428  0.8269  0.6589
  706MOL0     H95263   3.018  11.229   4.948 -1.3867  1.3579 -1.2986
  706MOL0     H95264   2.948  10.993   4.861  0.0655  0.4712  1.9193
  706MOL0     H95265   2.786  11.050   4.879  0.0255  0.2822 -0.8819
  706MOL0     H95266   2.901  11.048   4.637  2.5458 -0.8322  1.6166
  706MOL0     H95267   2.986  11.189   4.696  1.1412  0.3052  0.0293
  706MOL0     H95268   2.772  11.249   4.564  0.4933  0.3394  0.3714
  706MOL0     H95269   2.758  11.305   4.735  1.2075  0.5819  1.4895
  706MOL0     H95270   2.436  11.002   4.663  1.7846 -0.7098 -1.8743
  706MOL0     H95271   2.217  11.056   4.582  1.5368 -0.9488 -0.0601
  706MOL0     H95272   1.833  11.234   4.649 -0.0119 -1.2001  0.0314
  706MOL0     H95273   1.581  11.238   4.587  1.1093 -1.4616  0.9036
  706MOL0     H95274   1.496  11.296   4.143 -1.6902 -2.9975 -2.3609
  706MOL0     H95275   1.381  11.172   4.218  2.1956 -0.8176 -0.6701
  706MOL0     H95276   1.350  11.468   4.173  0.6940 -1.2965 -1.6453
  706MOL0     H95277   1.261  11.340   4.095 -0.9270  0.2966  0.3056
  706MOL0     H95278   1.202  11.264   4.362  0.6411 -0.5715 -2.2797
  706MOL0     H95279   1.245  11.430   4.389  1.2614 -1.7286  0.2613
  706MOL0     H95280   1.031  11.323   4.196  0.6966  0.7590 -2.7344
  706MOL0     H95281   1.110  11.491   4.188  2.1779 -0.8945 -0.9606
  706MOL0     H95282   0.889  11.497   4.301  1.4132  1.9034  0.1125
  706MOL0     H95283   1.024  11.546   4.398  2.8186 -3.5613  4.6397
  706MOL0     H95284   0.943  11.255   4.405 -1.1431  0.3782  0.8170
  706MOL0     H95285   1.014  11.342   4.533  3.5697  2.4791 -2.0545
  706MOL0     H95286   0.761  11.283   4.552 -0.3651  0.5384 -0.5613
  706MOL0     H95287   0.738  11.405   4.425  3.7605  0.3097 -2.2722
  706MOL0     H95288   0.834  11.429   4.706 -0.2828 -1.2818 -0.2272
  706MOL0     H95289   0.872  11.565   4.591  1.1381 -1.7870 -0.6630
  706MOL0     H95290   1.699  11.209   4.165 -1.9659 -2.4471 -0.4995
  706MOL0     H95291   1.920  11.188   4.227 -0.4663 -0.4801  0.4368
  706MOL0     H95292   2.335  11.441   4.479 -1.6474  0.0427  0.0706
  706MOL0     H95293   2.573  11.397   4.581 -0.9692  0.3470 -2.0908
  706MOL0     H95294   2.912  10.567   5.970  1.3488  0.7192  0.7330
  706MOL0     H95295   3.128  10.573   6.078  1.3028 -1.2040 -0.0480
  706MOL0     H95296   3.282  10.614   6.500  1.6117  2.4371 -0.5505
  706MOL0     H95297   3.440  10.699   6.649  2.4493  0.4596 -1.1055
  706MOL0     H95298   3.873  10.556   6.662 -0.9192  2.8287 -0.4795
  706MOL0     H95299   3.781  10.423   6.745  0.4142 -0.8480  0.6873
  706MOL0     H95300   3.961  10.542   6.889 -1.7555 -1.5218  1.6131
  706MOL0     H95301   3.796  10.554   6.954  1.5135 -0.5909  1.7678
  706MOL0     H95302   3.791  10.779   6.830  1.6646  1.8367  0.0097
  706MOL0     H95303   3.959  10.754   6.790 -1.6786 -0.8830 -2.1296
  706MOL0     H95304   3.975  10.885   6.968  2.5433 -1.5057 -2.1787
  706MOL0     H95305   3.846  10.824   7.063  0.7287  0.5595  0.0983
  706MOL0     H95306   4.178  10.615   7.219  0.5601  0.6786 -0.5670
  706MOL0     H95307   3.691  10.359   6.585  1.0261 -0.0634 -3.0393
  706MOL0     H95308   3.638  10.192   6.468  0.4969  0.3611 -0.1921
  706MOL0     H95309   3.459  10.149   6.466 -0.4451  0.8238  1.0359
  706MOL0     H95310   3.549  10.232   6.327  2.6198  3.3283  0.8204
  707MOL0     O95311   8.773   1.165   5.021  0.3017  1.3324 -1.8583
  707MOL0     C95312   8.848   1.261   5.027 -0.0662 -0.4916 -0.3196
  707MOL0     O95313   8.798   1.386   5.057 -0.1081  0.1449 -0.2094
  707MOL0     C95314   8.662   1.401   5.030 -0.2440 -1.2294 -0.7270
  707MOL0     C95315   8.620   1.443   4.895 -0.0892 -0.2379 -0.4170
  707MOL0     C95316   8.483   1.442   4.870  0.4537  0.6522  0.5557
  707MOL0     C95317   8.391   1.401   4.967 -0.0493  0.0679  0.3237
  707MOL0     O95318   8.260   1.404   4.921 -0.2909  0.3692  0.1213
  707MOL0     C95319   8.156   1.381   5.009  0.4359  0.4920  0.5625
  707MOL0     C95320   8.024   1.386   4.928  0.4439 -0.1961  0.2354
  707MOL0     C95321   7.915   1.386   5.033  0.1644  0.1299 -0.8386
  707MOL0     C95322   7.786   1.352   4.959 -0.4669  0.2086 -1.3040
  707MOL0     C95323   7.667   1.367   5.050  0.0184 -0.8412 -0.0844
  707MOL0     C95324   7.551   1.292   4.991  0.7414 -0.7023 -1.4643
  707MOL0     C95325   7.422   1.337   5.074 -0.4608  0.4962  0.1679
  707MOL0     C95326   7.295   1.306   5.006  0.7470 -0.0656 -0.0489
  707MOL0     N95327   7.265   1.396   4.895  0.0805  0.5596  0.0890
  707MOL0     C95328   7.337   1.411   4.772  0.6475  0.2882 -0.0679
  707MOL0     C95329   7.301   1.535   4.723 -0.0978 -0.3557 -0.8107
  707MOL0     C95330   7.359   1.611   4.605 -0.4526  0.3733  0.3738
  707MOL0     C95331   7.513   1.644   4.631  0.3634 -0.9503  0.8238
  707MOL0     C95332   7.556   1.770   4.545  1.3618  0.3652 -0.0516
  707MOL0     C95333   7.705   1.815   4.558 -0.6620 -0.1402 -0.4820
  707MOL0     O95334   7.791   1.703   4.530 -0.1407 -0.0691 -0.3343
  707MOL0     C95335   7.927   1.720   4.555 -0.4468 -0.0110  0.3724
  707MOL0     C95336   7.985   1.841   4.582 -0.5895 -0.9458 -0.6663
  707MOL0     C95337   8.122   1.858   4.609 -0.7245 -0.2851  0.4721
  707MOL0     C95338   8.199   1.738   4.587 -1.0183  0.4460 -0.1763
  707MOL0     C95339   8.348   1.750   4.604  0.4678  0.4534  0.0552
  707MOL0     O95340   8.417   1.649   4.547  0.1438  0.1842  0.1952
  707MOL0     C95341   8.556   1.647   4.552  0.2002 -0.0236 -0.2622
  707MOL0     C95342   8.625   1.525   4.549 -0.0981 -0.2204  0.9956
  707MOL0     C95343   8.767   1.521   4.538  0.4344 -0.6396  0.7491
  707MOL0     C95344   8.837   1.634   4.550 -0.4811  0.6589 -0.1170
  707MOL0     O95345   8.971   1.604   4.562 -0.0507  0.4324  0.3204
  707MOL0     C95346   9.055   1.715   4.565 -0.2401  0.4324  0.0137
  707MOL0     C95347   9.198   1.662   4.574  0.2385  0.5174 -0.5881
  707MOL0     C95348   9.308   1.761   4.598  0.2148 -0.9877  0.4173
  707MOL0     C95349   9.449   1.728   4.650 -0.1653 -0.4750  0.5610
  707MOL0     C95350   9.496   1.608   4.570 -0.8134 -0.3954  0.5998
  707MOL0     C95351   9.632   1.560   4.636  0.1414 -0.5014 -0.5643
  707MOL0     C95352   9.626   1.502   4.781 -0.0229  0.1194  0.1020
  707MOL0     C95353   9.764   1.442   4.819  0.4363  0.0513  0.0459
  707MOL0    Cl95354   9.748   1.318   4.959  0.0785  0.1308 -0.3569
  707MOL0     C95355   8.772   1.756   4.525  0.3714  0.6957 -0.2337
  707MOL0     C95356   8.633   1.760   4.521  0.2275  0.0867 -0.0381
  707MOL0     O95357   8.400   1.855   4.644  0.2590  0.3071  0.4553
  707MOL0     C95358   8.145   1.612   4.561 -0.1185 -0.4543 -0.1098
  707MOL0     C95359   8.001   1.603   4.549  0.7716 -0.8419 -0.1624
  707MOL0     N95360   7.207   1.590   4.807  1.0432  0.0932 -0.3422
  707MOL0     N95361   7.189   1.509   4.907 -0.0686 -0.4173 -0.1420
  707MOL0     C95362   8.431   1.369   5.094  0.1694  0.7976 -0.4509
  707MOL0     C95363   8.569   1.362   5.126 -0.1139 -0.3437 -0.1646
  707MOL0     C95364   8.983   1.240   4.980 -0.3019  0.3626 -0.3039
  707MOL0     C95365   9.033   1.108   4.997 -0.1286  0.1015  0.2225
  707MOL0     C95366   9.157   1.070   4.951 -0.2214  0.5990 -0.5029
  707MOL0     C95367   9.240   1.150   4.878  1.6595  1.0373 -0.5608
  707MOL0     O95368   9.370   1.129   4.839  0.6377 -0.0586 -0.1055
  707MOL0     C95369   9.425   0.989   4.840  0.5791 -0.9074 -0.3214
  707MOL0     C95370   9.575   0.991   4.797  0.3622  1.2094  0.2315
  707MOL0     C95371   9.600   1.078   4.679 -0.9128 -0.7602 -0.5107
  707MOL0     C95372   9.751   1.086   4.645  0.3781 -0.0083 -0.3865
  707MOL0     C95373   9.762   1.163   4.524 -0.9420  0.3606 -0.4975
  707MOL0     C95374   9.785   1.224   4.419  0.6172 -0.4400 -0.5724
  707MOL0     C95375   9.195   1.286   4.859  0.5864  0.6334  0.2523
  707MOL0     C95376   9.066   1.332   4.909 -0.0346  0.0944 -0.2355
  707MOL0     C95377   9.016   1.467   4.874 -0.5058 -1.0718  0.3097
  707MOL0     H95378   8.682   1.487   4.817 -3.2581  0.6804 -2.6499
  707MOL0     H95379   8.441   1.472   4.775  1.4040 -0.4753 -0.2508
  707MOL0     H95380   8.163   1.289   5.066  1.1213  2.3694  3.7590
  707MOL0     H95381   8.156   1.458   5.087  1.2414 -0.2031  1.2703
  707MOL0     H95382   8.020   1.305   4.854 -2.2133  0.7397 -0.7860
  707MOL0     H95383   8.024   1.480   4.872  2.4188  1.2681  2.5216
  707MOL0     H95384   7.904   1.483   5.082  0.6896 -0.3265  0.2201
  707MOL0     H95385   7.939   1.323   5.119 -1.6416  1.8984  1.0714
  707MOL0     H95386   7.773   1.399   4.861  1.0285  1.3780 -0.9788
  707MOL0     H95387   7.800   1.246   4.934 -1.6126 -0.6690  1.4357
  707MOL0     H95388   7.683   1.356   5.158 -2.8060  3.1497  0.9816
  707MOL0     H95389   7.648   1.475   5.045  1.7831 -0.3192  2.3280
  707MOL0     H95390   7.533   1.315   4.886  1.4421 -1.8952 -1.8699
  707MOL0     H95391   7.580   1.188   5.008  0.6827 -0.1413  3.5572
  707MOL0     H95392   7.431   1.445   5.083  2.6608  0.3804 -0.4928
  707MOL0     H95393   7.421   1.300   5.177  0.3762 -0.6693 -0.2227
  707MOL0     H95394   7.290   1.200   4.981  2.3541 -0.1674 -0.0648
  707MOL0     H95395   7.229   1.329   5.090 -1.0138  1.3344 -1.7211
  707MOL0     H95396   7.413   1.346   4.729  0.9548 -0.8435  2.0470
  707MOL0     H95397   7.344   1.550   4.515 -2.6020  1.3423 -0.0005
  707MOL0     H95398   7.299   1.703   4.600 -0.1383  0.6074  0.8461
  707MOL0     H95399   7.527   1.674   4.735 -0.1298  1.9924  0.1518
  707MOL0     H95400   7.580   1.564   4.600 -0.5076 -1.9707  1.5021
  707MOL0     H95401   7.495   1.857   4.572  1.8914  1.2516 -1.6223
  707MOL0     H95402   7.527   1.757   4.441  0.4072  3.2639 -0.2441
  707MOL0     H95403   7.722   1.840   4.663  0.0356 -1.3825 -0.2806
  707MOL0     H95404   7.734   1.905   4.502 -2.4504  2.4050  2.3985
  707MOL0     H95405   7.924   1.930   4.593 -1.6865 -1.5391 -1.8724
  707MOL0     H95406   8.161   1.955   4.637  0.1937  0.9670 -4.2072
  707MOL0     H95407   8.573   1.430   4.553  0.5472 -0.5405  2.2245
  707MOL0     H95408   8.826   1.430   4.533  3.4041  1.1761  0.2408
  707MOL0     H95409   9.048   1.776   4.474  1.2279 -1.6516 -1.5889
  707MOL0     H95410   9.032   1.773   4.655  2.4057  2.7189 -0.6237
  707MOL0     H95411   9.203   1.596   4.661  3.2773  1.0059 -0.2820
  707MOL0     H95412   9.222   1.597   4.489  0.5988  0.9781 -0.8408
  707MOL0     H95413   9.331   1.806   4.501 -0.3458 -0.8642  0.3374
  707MOL0     H95414   9.272   1.844   4.660  3.5739  1.6863 -0.8566
  707MOL0     H95415   9.447   1.698   4.755 -3.0552 -3.0902 -0.0921
  707MOL0     H95416   9.512   1.816   4.638  1.2627 -1.5840 -0.4277
  707MOL0     H95417   9.512   1.643   4.467 -1.9149  1.5897  1.0431
  707MOL0     H95418   9.428   1.522   4.576 -1.3791 -0.2061 -2.0032
  707MOL0     H95419   9.669   1.478   4.573  0.2526 -0.7146 -0.2233
  707MOL0     H95420   9.705   1.641   4.635  0.2106 -0.3946  2.5729
  707MOL0     H95421   9.560   1.416   4.788  2.6736 -2.0631  0.4523
  707MOL0     H95422   9.592   1.574   4.856  2.2227 -1.0796  2.4509
  707MOL0     H95423   9.822   1.401   4.735 -1.5917 -1.6707 -0.5864
  707MOL0     H95424   9.824   1.527   4.855 -0.5082  1.7917 -2.2145
  707MOL0     H95425   8.822   1.852   4.517 -1.8738  2.1210  1.4430
  707MOL0     H95426   8.587   1.854   4.490 -1.9600 -0.5398  1.1112
  707MOL0     H95427   8.208   1.523   4.557 -1.1003 -1.2290  0.9225
  707MOL0     H95428   7.947   1.511   4.527  0.2668 -1.2023  2.2479
  707MOL0     H95429   8.355   1.332   5.163 -1.4696  0.9950 -2.0826
  707MOL0     H95430   8.605   1.333   5.224  1.5832  2.9991  0.3297
  707MOL0     H95431   8.965   1.043   5.051 -1.6356  0.9109 -0.6143
  707MOL0     H95432   9.184   0.966   4.967 -0.5467  0.8535  1.9463
  707MOL0     H95433   9.369   0.925   4.771 -0.6617 -0.1900 -0.0134
  707MOL0     H95434   9.413   0.949   4.942  0.3208 -1.7261 -0.6648
  707MOL0     H95435   9.602   0.889   4.768 -1.3886  0.4406  1.1309
  707MOL0     H95436   9.631   1.012   4.889 -1.3803  2.4932  1.0530
  707MOL0     H95437   9.573   1.183   4.693  2.4267  0.4574 -2.1064
  707MOL0     H95438   9.548   1.026   4.599  1.4184 -0.4167 -2.3606
  707MOL0     H95439   9.791   1.151   4.723 -4.9489 -0.0280  2.9155
  707MOL0     H95440   9.801   0.988   4.644  1.9186  0.4978 -5.7897
  707MOL0     H95441   9.800   1.275   4.326  0.8314  1.5359  0.5000
  707MOL0     H95442   9.259   1.354   4.804 -1.1977 -0.1086 -3.0348
  707MOL0     H95443   9.101   1.530   4.846 -1.8420  0.5027 -0.4201
  707MOL0     H95444   8.938   1.466   4.797 -0.7179  1.3840  0.3926
  707MOL0     H95445   8.968   1.510   4.963  0.7027  1.3395 -0.1044
  708MOL0     O95446   0.266   1.447   8.893  0.0310 -0.0143 -0.2389
  708MOL0     C95447   0.197   1.404   8.984 -0.1278  0.0877 -0.4295
  708MOL0     O95448   0.246   1.335   9.093  0.7009  0.6885  0.3723
  708MOL0     C95449   0.368   1.271   9.082  0.1614  0.0746  0.5814
  708MOL0     C95450   0.384   1.132   9.057  0.3955 -0.3887 -0.3476
  708MOL0     C95451   0.507   1.070   9.056  0.3601 -0.1493 -0.3567
  708MOL0     C95452   0.627   1.137   9.072 -1.0715 -0.5954  0.6850
  708MOL0     O95453   0.743   1.048   9.074  1.0447 -0.1578 -0.6740
  708MOL0     C95454   0.860   1.121   9.108 -0.5619 -0.1081  0.2264
  708MOL0     C95455   0.982   1.020   9.113  0.5869 -0.0882 -0.2719
  708MOL0     C95456   0.963   0.892   9.204  0.4357 -0.6376  1.1071
  708MOL0     C95457   1.094   0.803   9.221  0.0758 -0.5915  0.1844
  708MOL0     C95458   1.050   0.682   9.314 -0.6520  0.6130 -0.4406
  708MOL0     C95459   1.162   0.643   9.407  1.1776  0.7141  0.4464
  708MOL0     C95460   1.295   0.605   9.340 -0.4529  0.4205  1.0127
  708MOL0     C95461   1.415   0.603   9.424 -0.3710 -0.2635 -0.4288
  708MOL0     N95462   1.415   0.484   9.514  0.6641 -0.9793 -0.1429
  708MOL0     C95463   1.419   0.350   9.476  0.0319 -0.6788  0.0644
  708MOL0     C95464   1.429   0.279   9.589  0.0245  0.0141  0.8132
  708MOL0     C95465   1.437   0.136   9.610 -0.1453  0.2688 -0.8212
  708MOL0     C95466   1.552   0.076   9.539 -0.1510  0.3768 -0.5734
  708MOL0     C95467   1.584  -0.072   9.571 -0.3497  0.0127 -0.8473
  708MOL0     C95468   1.736  -0.090   9.607  1.1271 -0.0746 -0.8483
  708MOL0     O95469   1.802  -0.079   9.485  0.2931  0.1539  0.5254
  708MOL0     C95470   1.938  -0.058   9.485  0.2855  1.2097  0.5094
  708MOL0     C95471   1.999  -0.103   9.364  0.2687 -0.4395 -0.4232
  708MOL0     C95472   2.141  -0.095   9.359  0.0041 -0.7694 -0.1448
  708MOL0     C95473   2.218  -0.037   9.466  0.8815  0.7691  0.1797
  708MOL0     C95474   2.368  -0.025   9.467 -0.3392 -0.2197 -0.4871
  708MOL0     O95475   2.438  -0.018   9.591 -0.0457 -0.1490  0.0667
  708MOL0     C95476   2.576  -0.007   9.612 -0.2577 -0.0075 -0.5400
  708MOL0     C95477   2.619  -0.009   9.751 -0.3220 -0.7644  0.8345
  708MOL0     C95478   2.754  -0.032   9.778 -0.0957  0.1855  0.4490
  708MOL0     C95479   2.853  -0.032   9.675  0.5442 -0.0960 -0.6084
  708MOL0     O95480   2.981  -0.039   9.716  0.4740  0.6874 -0.2132
  708MOL0     C95481   3.081  -0.045   9.611  0.1477  0.8020 -0.0075
  708MOL0     C95482   3.228  -0.068   9.659 -0.5480  0.0482 -0.0484
  708MOL0     C95483   3.245  -0.208   9.708 -0.0911  0.4585  1.0676
  708MOL0     C95484   3.383  -0.215   9.785  0.3815  0.3002 -0.6760
  708MOL0     C95485   3.426  -0.361   9.804 -0.3199 -1.1318 -0.0707
  708MOL0     C95486   3.543  -0.379   9.902  0.7750 -0.1015 -0.6771
  708MOL0     C95487   3.672  -0.313   9.848 -0.0452 -0.1021  0.1724
  708MOL0     C95488   3.802  -0.373   9.905 -0.4521  0.1790  0.3206
  708MOL0    Cl95489   3.854  -0.535   9.839  0.1292  0.2507  0.2461
  708MOL0     C95490   2.803  -0.009   9.543 -0.4878  0.7359  0.3556
  708MOL0     C95491   2.669  -0.004   9.513 -0.6346 -0.0148 -0.1537
  708MOL0     O95492   2.415  -0.003   9.353  0.4958  0.4085  0.0252
  708MOL0     C95493   2.153  -0.011   9.584 -0.5718 -0.4959 -0.3928
  708MOL0     C95494   2.011  -0.017   9.592 -0.3897  0.3707 -0.3347
  708MOL0     N95495   1.421   0.373   9.696 -1.6252 -0.5020 -0.3224
  708MOL0     N95496   1.409   0.490   9.651 -1.1204 -0.3192 -0.3064
  708MOL0     C95497   0.615   1.281   9.085 -0.1098  0.0093 -0.0887
  708MOL0     C95498   0.488   1.345   9.089  0.8378  0.6020 -0.5998
  708MOL0     C95499   0.059   1.454   8.990  0.6977  0.3928  0.2876
  708MOL0     C95500   0.023   1.486   9.114  0.4835 -0.5236  0.3299
  708MOL0     C95501  -0.113   1.538   9.143 -0.5609 -0.0953 -0.2752
  708MOL0     C95502  -0.205   1.533   9.040 -0.3655 -0.1636  0.8009
  708MOL0     O95503  -0.336   1.583   9.058 -0.1897  0.4561  0.0909
  708MOL0     C95504  -0.391   1.653   9.169 -0.3424  0.3879 -0.6862
  708MOL0     C95505  -0.538   1.644   9.131  0.0092  0.8644 -0.7196
  708MOL0     C95506  -0.638   1.716   9.231  0.4904 -0.1051  0.9551
  708MOL0     C95507  -0.628   1.661   9.372 -0.3178  0.6588 -0.2734
  708MOL0     C95508  -0.711   1.538   9.370  0.3797 -0.0499 -0.4364
  708MOL0     C95509  -0.773   1.443   9.339  0.6289  0.3816  0.2469
  708MOL0     C95510  -0.170   1.490   8.911 -1.1008 -0.2211  0.1017
  708MOL0     C95511  -0.035   1.460   8.879 -0.5872  0.5081 -1.1928
  708MOL0     C95512  -0.006   1.399   8.748 -0.1361 -0.2015 -0.0985
  708MOL0     H95513   0.299   1.065   9.063  1.3579 -1.5551  3.0505
  708MOL0     H95514   0.517   0.962   9.051  1.1041 -0.1583  0.9003
  708MOL0     H95515   0.872   1.205   9.040 -1.4638  0.8649  1.2329
  708MOL0     H95516   0.859   1.155   9.212 -0.0939  0.5980  0.0051
  708MOL0     H95517   1.073   1.075   9.136  1.5918 -1.3512 -1.0801
  708MOL0     H95518   1.008   0.986   9.012 -1.4521  0.4636 -1.0282
  708MOL0     H95519   0.901   0.817   9.154  1.0134 -0.5475  0.2410
  708MOL0     H95520   0.913   0.917   9.298 -0.4776  0.2964  0.4004
  708MOL0     H95521   1.111   0.766   9.120 -4.2509 -1.9754 -0.2775
  708MOL0     H95522   1.167   0.873   9.263 -0.7904  1.5514 -1.6871
  708MOL0     H95523   0.966   0.695   9.383 -0.0073 -0.4946  0.5971
  708MOL0     H95524   1.029   0.598   9.246  2.7972 -1.0950  0.3561
  708MOL0     H95525   1.187   0.731   9.466  0.5339 -2.0127  5.2855
  708MOL0     H95526   1.128   0.572   9.483  1.4434  0.5448  0.4089
  708MOL0     H95527   1.324   0.677   9.263 -1.8773  3.7427  3.3469
  708MOL0     H95528   1.283   0.504   9.300 -0.4007  1.2323 -1.1808
  708MOL0     H95529   1.509   0.607   9.369  1.4177 -2.7679  2.1784
  708MOL0     H95530   1.417   0.698   9.479  1.3874 -0.1296 -0.6610
  708MOL0     H95531   1.419   0.311   9.375 -1.4853 -0.1895 -0.1442
  708MOL0     H95532   1.444   0.105   9.715  1.3994 -2.8916 -1.7388
  708MOL0     H95533   1.338   0.102   9.580  0.2733 -2.6221  0.7694
  708MOL0     H95534   1.529   0.088   9.433  0.2710  3.0503 -0.4309
  708MOL0     H95535   1.637   0.140   9.563 -1.2997  1.8200 -0.1231
  708MOL0     H95536   1.554  -0.137   9.488 -0.3073 -1.8581  0.5371
  708MOL0     H95537   1.522  -0.117   9.649  0.5444 -0.8296 -0.6000
  708MOL0     H95538   1.771  -0.182   9.654  0.6471 -2.8732 -5.3587
  708MOL0     H95539   1.749  -0.013   9.683  1.9429 -0.6687 -0.3743
  708MOL0     H95540   1.936  -0.137   9.283  1.0601 -3.4920  0.0896
  708MOL0     H95541   2.194  -0.111   9.265  0.7554  1.3256 -0.1252
  708MOL0     H95542   2.544  -0.010   9.828 -0.1486 -0.5920  1.0071
  708MOL0     H95543   2.790  -0.054   9.878 -2.1787 -4.8079  0.3462
  708MOL0     H95544   3.059  -0.138   9.557  1.0208 -0.9285  2.4350
  708MOL0     H95545   3.072   0.033   9.534  0.4162  1.3277  0.4852
  708MOL0     H95546   3.298  -0.039   9.580 -0.4940  0.9515  0.3169
  708MOL0     H95547   3.241  -0.006   9.748  3.8648 -2.2269  1.1809
  708MOL0     H95548   3.166  -0.231   9.780 -2.7792 -0.2721 -1.8747
  708MOL0     H95549   3.245  -0.280   9.626  3.1204  2.5978 -1.0440
  708MOL0     H95550   3.373  -0.171   9.885 -0.5984 -2.8243  0.7015
  708MOL0     H95551   3.467  -0.163   9.737  0.5036  0.3252 -0.4352
  708MOL0     H95552   3.443  -0.408   9.707  0.2767 -0.6481 -0.2057
  708MOL0     H95553   3.339  -0.410   9.849 -0.2388  0.5843  2.1516
  708MOL0     H95554   3.519  -0.321   9.992 -0.6457  0.7033 -1.5437
  708MOL0     H95555   3.572  -0.484   9.917 -0.5066 -0.9498 -3.4794
  708MOL0     H95556   3.667  -0.204   9.862  1.8617  0.0117  0.2469
  708MOL0     H95557   3.693  -0.329   9.742  1.4738 -2.7059  0.7914
  708MOL0     H95558   3.885  -0.302   9.904  1.5073 -1.9499 -1.4831
  708MOL0     H95559   3.784  -0.377  10.013  1.5635  0.4234  0.7036
  708MOL0     H95560   2.861  -0.028   9.453  0.3709 -2.9123  1.5013
  708MOL0     H95561   2.641   0.009   9.409  0.5223  0.9865 -0.3657
  708MOL0     H95562   2.201   0.026   9.674  0.8401  0.2848 -1.4266
  708MOL0     H95563   1.955   0.017   9.678  0.1290  0.7903 -0.1566
  708MOL0     H95564   0.698   1.350   9.098 -1.2107  1.0017  2.1314
  708MOL0     H95565   0.465   1.449   9.111 -3.9110  0.2767 -2.7463
  708MOL0     H95566   0.090   1.470   9.197  0.9472  0.6895  0.2108
  708MOL0     H95567  -0.122   1.578   9.243 -1.4442  0.8515 -0.7184
  708MOL0     H95568  -0.341   1.747   9.193  1.8720 -1.1716  1.2368
  708MOL0     H95569  -0.388   1.587   9.256 -2.0698 -0.7979 -1.4817
  708MOL0     H95570  -0.566   1.539   9.119  1.8197  0.5254 -2.3493
  708MOL0     H95571  -0.560   1.688   9.034 -2.8380 -0.8890 -1.0136
  708MOL0     H95572  -0.743   1.718   9.200  0.5824 -2.7614  0.2372
  708MOL0     H95573  -0.614   1.822   9.241  1.8557 -0.6107  3.9510
  708MOL0     H95574  -0.524   1.650   9.402  0.1938  2.9994 -1.0438
  708MOL0     H95575  -0.660   1.738   9.443 -0.0751  0.6877 -0.1949
  708MOL0     H95576  -0.827   1.359   9.300  0.8852 -0.5095  1.7517
  708MOL0     H95577  -0.242   1.460   8.836 -1.4137  0.2643  0.1994
  708MOL0     H95578  -0.005   1.291   8.763 -0.2511 -0.1238  0.5207
  708MOL0     H95579  -0.089   1.408   8.678  0.9668  0.2296 -1.4012
  708MOL0     H95580   0.080   1.442   8.696 -0.4589  0.0481 -0.4315
  709MOL0     O95581   1.201   6.727   3.117 -0.4709  0.2310  0.2723
  709MOL0     C95582   1.111   6.741   3.031 -0.0549  0.1048 -0.0232
  709MOL0     O95583   1.134   6.803   2.910 -0.3073 -0.3519  0.5020
  709MOL0     C95584   1.265   6.822   2.861 -0.7845  0.2000  0.0337
  709MOL0     C95585   1.327   6.946   2.834  0.0515 -0.2177 -0.0942
  709MOL0     C95586   1.460   6.958   2.784  0.4453  0.1872 -0.7900
  709MOL0     C95587   1.524   6.840   2.742 -0.1487  0.7872  0.1396
  709MOL0     O95588   1.659   6.842   2.702 -0.0022  0.2503  0.5028
  709MOL0     C95589   1.733   6.962   2.723  0.1347  0.9182 -0.5767
  709MOL0     C95590   1.870   6.929   2.663  0.3203  0.0987 -0.5815
  709MOL0     C95591   1.979   7.046   2.684 -0.2667  0.1117  0.0272
  709MOL0     C95592   2.120   7.004   2.624  0.5377  0.8478 -0.4260
  709MOL0     C95593   2.228   7.107   2.648  0.1987 -0.1722 -0.1462
  709MOL0     C95594   2.183   7.243   2.605  0.0631  0.2747  0.2828
  709MOL0     C95595   2.285   7.362   2.611  0.3773 -0.1719 -0.1388
  709MOL0     C95596   2.385   7.353   2.501 -0.5680  0.5771  0.6534
  709MOL0     N95597   2.523   7.361   2.559  0.2645  0.4868 -0.1266
  709MOL0     C95598   2.589   7.477   2.595  0.2289 -0.5433  0.4138
  709MOL0     C95599   2.690   7.424   2.686 -0.0404 -0.9399 -0.1848
  709MOL0     C95600   2.780   7.500   2.787  0.6884 -0.7261  0.3075
  709MOL0     C95601   2.907   7.548   2.716  0.7518  0.4657  0.3589
  709MOL0     C95602   2.995   7.641   2.801  0.4062 -0.3487  0.3764
  709MOL0     C95603   3.130   7.662   2.738 -0.0628  0.7067 -0.1301
  709MOL0     O95604   3.209   7.734   2.832 -0.2302  0.8548 -0.3240
  709MOL0     C95605   3.349   7.722   2.840  0.9902  0.4498  0.1207
  709MOL0     C95606   3.410   7.734   2.955  0.4981  0.6193  0.0605
  709MOL0     C95607   3.550   7.726   2.968 -0.1740  0.3350  0.1087
  709MOL0     C95608   3.630   7.707   2.856  0.8316 -0.2090 -1.3120
  709MOL0     C95609   3.779   7.705   2.866 -0.6872  0.2049  0.1656
  709MOL0     O95610   3.851   7.684   2.745  0.9212 -0.1632 -0.0846
  709MOL0     C95611   3.983   7.701   2.741  0.0878  0.4903 -0.5718
  709MOL0     C95612   4.064   7.776   2.826 -1.0118 -0.0976  0.8876
  709MOL0     C95613   4.202   7.801   2.800 -0.0434  0.3266 -0.0842
  709MOL0     C95614   4.269   7.749   2.684  0.6007  0.1406  0.0727
  709MOL0     O95615   4.399   7.770   2.650 -0.0899  0.0947 -0.4741
  709MOL0     C95616   4.492   7.837   2.725  0.4371 -0.2637 -0.8104
  709MOL0     C95617   4.623   7.830   2.641 -0.3160  0.1631  0.0665
  709MOL0     C95618   4.720   7.941   2.661 -0.7509  0.5202  0.2715
  709MOL0     C95619   4.853   7.906   2.605  0.1596  0.0922 -0.6329
  709MOL0     C95620   4.937   8.037   2.593  1.0345 -0.7292 -0.0520
  709MOL0     C95621   5.091   8.019   2.596 -0.2639 -0.4063  0.0170
  709MOL0     C95622   5.146   7.923   2.502  0.1751  0.2264  1.1801
  709MOL0     C95623   5.293   7.904   2.527 -0.8037  0.6727  0.0193
  709MOL0    Cl95624   5.369   8.063   2.494 -0.1664 -0.3456  0.5729
  709MOL0     C95625   4.185   7.680   2.599 -0.2912  0.1490 -0.0985
  709MOL0     C95626   4.050   7.658   2.624 -0.4622  0.1538  0.0330
  709MOL0     O95627   3.825   7.736   2.978 -0.7784  0.9557 -0.2101
  709MOL0     C95628   3.564   7.691   2.726 -0.5159  0.3629 -0.3749
  709MOL0     C95629   3.425   7.691   2.729  0.3182  0.2165  0.3622
  709MOL0     N95630   2.682   7.285   2.677 -0.1191 -0.1409 -0.1607
  709MOL0     N95631   2.585   7.247   2.604 -0.0562  0.8665  0.4435
  709MOL0     C95632   1.455   6.712   2.749 -0.1454  0.2480  0.9327
  709MOL0     C95633   1.332   6.705   2.811  0.2865 -0.0948 -0.2090
  709MOL0     C95634   0.976   6.699   3.065  0.8079  0.1441  0.0065
  709MOL0     C95635   0.951   6.659   3.199 -0.2339 -0.4209 -0.7910
  709MOL0     C95636   0.831   6.612   3.243  0.2560  0.0181 -0.6076
  709MOL0     C95637   0.727   6.596   3.158 -0.1297 -0.3476 -0.1713
  709MOL0     O95638   0.616   6.547   3.213  0.4732  0.3104 -0.2259
  709MOL0     C95639   0.521   6.491   3.115 -0.0614  1.0280 -0.4980
  709MOL0     C95640   0.400   6.423   3.171  0.4320  0.6167 -0.0311
  709MOL0     C95641   0.298   6.531   3.211 -0.9259 -0.5449 -0.1093
  709MOL0     C95642   0.185   6.472   3.295  0.1715 -0.4546  0.2931
  709MOL0     C95643   0.110   6.570   3.376 -0.2724  0.2515 -0.2574
  709MOL0     C95644   0.048   6.657   3.442 -0.1912 -0.5881  0.7038
  709MOL0     C95645   0.744   6.640   3.028  0.0176  0.0239 -0.2509
  709MOL0     C95646   0.870   6.679   2.973  0.4096 -0.3234 -0.8989
  709MOL0     C95647   0.865   6.728   2.826 -0.6598 -0.1673 -0.3460
  709MOL0     H95648   1.254   7.021   2.862 -3.1118 -2.1390 -2.4375
  709MOL0     H95649   1.500   7.058   2.770 -0.6192  0.6245 -0.7551
  709MOL0     H95650   1.680   7.032   2.658 -3.6719 -0.9055  0.2492
  709MOL0     H95651   1.743   6.983   2.829  2.5408 -1.5429 -0.2100
  709MOL0     H95652   1.853   6.906   2.558 -2.8344  0.6340 -0.2755
  709MOL0     H95653   1.913   6.840   2.711 -1.9258  1.5819  5.0163
  709MOL0     H95654   1.996   7.055   2.792 -0.2495  0.5279 -0.0105
  709MOL0     H95655   1.936   7.142   2.656  1.1161  1.0397  0.9781
  709MOL0     H95656   2.130   6.906   2.671 -2.8374  0.5980  0.0136
  709MOL0     H95657   2.110   6.977   2.519 -1.1418  0.4372 -0.1916
  709MOL0     H95658   2.249   7.085   2.753  1.8121  0.8269 -0.2103
  709MOL0     H95659   2.311   7.076   2.583 -0.4358  1.5903 -1.9269
  709MOL0     H95660   2.138   7.244   2.505  1.6365  0.3719 -0.4500
  709MOL0     H95661   2.098   7.267   2.669 -0.8009 -2.0457  0.1250
  709MOL0     H95662   2.327   7.363   2.712  0.0765  0.2712 -0.0155
  709MOL0     H95663   2.232   7.457   2.602  0.4910 -0.1254 -0.3090
  709MOL0     H95664   2.359   7.259   2.451 -2.4319  1.6701 -0.5719
  709MOL0     H95665   2.382   7.430   2.424  2.7874 -0.0678 -0.2996
  709MOL0     H95666   2.560   7.581   2.588  2.1333  0.1324  1.5276
  709MOL0     H95667   2.730   7.589   2.827  0.6315  0.8060 -2.8821
  709MOL0     H95668   2.817   7.434   2.867  2.3994 -1.8044 -1.2903
  709MOL0     H95669   2.961   7.454   2.705 -0.1684  0.0058 -0.3945
  709MOL0     H95670   2.882   7.581   2.615 -0.2287 -0.3444  0.3266
  709MOL0     H95671   3.011   7.603   2.902 -2.4360  0.2617  1.1600
  709MOL0     H95672   2.942   7.735   2.818  0.4159 -0.5803  1.8092
  709MOL0     H95673   3.137   7.707   2.638 -0.3521 -0.0257 -0.4887
  709MOL0     H95674   3.179   7.566   2.719 -1.4713  0.3190 -2.1584
  709MOL0     H95675   3.346   7.749   3.041 -0.5038 -3.8195  0.3409
  709MOL0     H95676   3.605   7.723   3.061  1.9272 -0.8395 -1.0888
  709MOL0     H95677   4.024   7.824   2.915 -0.0076  0.6942  0.9352
  709MOL0     H95678   4.252   7.864   2.873 -2.0033 -1.7260  3.3571
  709MOL0     H95679   4.456   7.937   2.751 -0.4148 -1.3736  2.9711
  709MOL0     H95680   4.511   7.785   2.820 -1.5422 -3.7558 -2.1614
  709MOL0     H95681   4.685   7.743   2.663  1.1788  1.1685  0.0370
  709MOL0     H95682   4.592   7.831   2.536 -1.1252  2.0301  0.2749
  709MOL0     H95683   4.685   8.034   2.616  1.4067  2.3911  2.2365
  709MOL0     H95684   4.743   7.961   2.766  2.5094  1.4060 -0.5084
  709MOL0     H95685   4.841   7.865   2.504  2.6450 -0.8955 -0.5964
  709MOL0     H95686   4.900   7.820   2.654 -1.0533 -0.5502 -0.5612
  709MOL0     H95687   4.918   8.118   2.664  1.6474 -2.0201  1.6613
  709MOL0     H95688   4.906   8.068   2.493 -0.2977  2.0134  1.1202
  709MOL0     H95689   5.131   8.116   2.566  1.7005 -1.5098 -1.1594
  709MOL0     H95690   5.118   7.986   2.697  0.0926  0.3639  0.1778
  709MOL0     H95691   5.122   7.959   2.401  0.8588 -3.3384 -0.4208
  709MOL0     H95692   5.092   7.828   2.500 -1.5898  1.1768 -0.5640
  709MOL0     H95693   5.300   7.859   2.627 -1.0841 -0.2308 -0.3507
  709MOL0     H95694   5.335   7.832   2.456 -0.9997  0.3362  0.2396
  709MOL0     H95695   4.221   7.646   2.502  1.1477  0.9533  0.1229
  709MOL0     H95696   3.993   7.594   2.558 -0.4062  1.0183 -0.8806
  709MOL0     H95697   3.631   7.683   2.641 -0.0745 -1.1740  0.0806
  709MOL0     H95698   3.387   7.672   2.630  0.3218  1.6586  0.0547
  709MOL0     H95699   1.502   6.616   2.726 -0.5813 -0.6203  3.3709
  709MOL0     H95700   1.287   6.611   2.840 -0.2346  0.5496  1.1242
  709MOL0     H95701   1.033   6.666   3.270  0.6031  0.2422 -1.7842
  709MOL0     H95702   0.815   6.581   3.345 -1.2307  0.1439 -0.7835
  709MOL0     H95703   0.576   6.420   3.051 -1.8155 -0.6977 -0.1906
  709MOL0     H95704   0.484   6.581   3.066 -1.2786  0.3056 -0.9648
  709MOL0     H95705   0.424   6.363   3.259  2.3288  1.4019  0.0300
  709MOL0     H95706   0.358   6.359   3.093  3.5163  0.6452 -1.8650
  709MOL0     H95707   0.266   6.586   3.121  0.7634  3.3231  1.4216
  709MOL0     H95708   0.352   6.613   3.260 -0.2191 -0.4915 -0.9455
  709MOL0     H95709   0.110   6.433   3.225 -2.3526  1.6581  1.6622
  709MOL0     H95710   0.215   6.386   3.355  1.4589  1.0944  1.9662
  709MOL0     H95711  -0.007   6.738   3.487 -0.7162 -0.5202 -0.0489
  709MOL0     H95712   0.666   6.629   2.953  0.0173  0.6486 -0.3517
  709MOL0     H95713   0.872   6.837   2.826 -1.0051 -0.1432 -0.6822
  709MOL0     H95714   0.956   6.689   2.779 -0.3961  0.9803 -0.8364
  709MOL0     H95715   0.783   6.686   2.766  2.1007 -0.7765 -4.0722
  710MOL0     O95716   0.656  10.218   4.333 -0.0057 -0.1052 -0.1781
  710MOL0     C95717   0.654  10.284   4.228 -0.1002  0.6603 -0.2173
  710MOL0     O95718   0.751  10.381   4.189  0.0712 -0.0107 -0.0532
  710MOL0     C95719   0.851  10.411   4.281 -0.0476 -0.1933  0.5999
  710MOL0     C95720   0.988  10.426   4.243  0.6645  0.0827  0.1469
  710MOL0     C95721   1.085  10.465   4.339 -0.2350 -0.1509  0.5739
  710MOL0     C95722   1.057  10.486   4.470  0.3680  0.1903  0.1569
  710MOL0     O95723   1.157  10.514   4.564  0.8324 -0.2086 -1.1409
  710MOL0     C95724   1.287  10.456   4.542  0.1634  0.1850  1.1125
  710MOL0     C95725   1.405  10.521   4.617  0.3104  0.1735  0.2843
  710MOL0     C95726   1.433  10.658   4.556  0.4197  0.6739  0.0108
  710MOL0     C95727   1.525  10.741   4.642  0.0291 -0.0829  0.1025
  710MOL0     C95728   1.575  10.876   4.582 -0.8800 -0.4187 -0.2935
  710MOL0     C95729   1.639  10.876   4.449  0.4860 -0.4200 -0.3606
  710MOL0     C95730   1.788  10.875   4.476  0.0993 -0.4571  0.9496
  710MOL0     C95731   1.873  10.855   4.351  0.4636 -0.7439 -0.6319
  710MOL0     N95732   2.011  10.875   4.383 -0.0921 -1.0320  0.6625
  710MOL0     C95733   2.095  10.952   4.299  0.1696  0.8469  0.5849
  710MOL0     C95734   2.213  10.915   4.342  0.1068  0.4600  0.1241
  710MOL0     C95735   2.337  10.947   4.277 -0.4270  0.0472  0.0779
  710MOL0     C95736   2.333  10.926   4.124 -0.0794  0.4780 -0.0070
  710MOL0     C95737   2.308  10.781   4.077  0.6039 -0.1963 -0.2263
  710MOL0     C95738   2.264  10.775   3.931  0.2067 -0.0118 -0.5142
  710MOL0     O95739   2.156  10.869   3.896 -0.4554 -0.0267  0.1091
  710MOL0     C95740   2.028  10.841   3.938 -0.9730  0.3455  0.1504
  710MOL0     C95741   1.935  10.942   3.936 -0.4534 -0.9449  1.0142
  710MOL0     C95742   1.808  10.913   3.985  0.1283 -0.1688 -0.4318
  710MOL0     C95743   1.757  10.784   4.019  0.7150  0.2226  0.1993
  710MOL0     C95744   1.614  10.757   4.035  0.4284 -0.5975  0.0877
  710MOL0     O95745   1.535  10.869   4.039  0.2959 -0.0897  0.2874
  710MOL0     C95746   1.400  10.863   4.076 -0.7776  1.1303 -0.2455
  710MOL0     C95747   1.300  10.919   3.999  0.3197  0.0059  0.2350
  710MOL0     C95748   1.170  10.927   4.050  1.0757  0.2667 -0.2186
  710MOL0     C95749   1.132  10.876   4.176 -0.8370  0.1924 -0.0654
  710MOL0     O95750   1.000  10.893   4.208 -0.0347 -0.1956 -0.3988
  710MOL0     C95751   0.937  10.793   4.299  0.0888 -0.5640 -0.1280
  710MOL0     C95752   0.788  10.787   4.305  0.5464 -0.9718 -0.9413
  710MOL0     C95753   0.725  10.918   4.342  0.0479 -0.5265  0.3204
  710MOL0     C95754   0.590  10.906   4.387  0.0544  0.1518  0.0809
  710MOL0     C95755   0.500  11.031   4.403  0.4235  0.0393 -0.1360
  710MOL0     C95756   0.506  11.088   4.547 -0.1459  0.0673  0.3764
  710MOL0     C95757   0.425  11.218   4.539  1.1453  0.8917  0.2014
  710MOL0     C95758   0.419  11.293   4.672 -0.0399  0.4178  0.2195
  710MOL0    Cl95759   0.316  11.205   4.786  0.4943 -0.4209  0.3949
  710MOL0     C95760   1.232  10.803   4.240 -0.2630 -0.4143  0.2106
  710MOL0     C95761   1.366  10.809   4.205  0.0414  0.1791 -0.2669
  710MOL0     O95762   1.576  10.646   4.047  1.2491 -0.6654  0.8063
  710MOL0     C95763   1.846  10.679   4.014 -0.3193 -0.6549 -0.5208
  710MOL0     C95764   1.980  10.707   3.982 -0.1195  0.1339 -0.4424
  710MOL0     N95765   2.208  10.829   4.450 -0.1469  0.1260  0.1489
  710MOL0     N95766   2.076  10.809   4.468 -1.0753 -0.7170 -0.8738
  710MOL0     C95767   0.919  10.468   4.507  0.0474  0.1314  0.4279
  710MOL0     C95768   0.822  10.441   4.415 -0.1894 -0.2824  0.0705
  710MOL0     C95769   0.517  10.314   4.182  0.2574  0.1387  0.8884
  710MOL0     C95770   0.478  10.446   4.153 -0.2886  0.0394 -0.6764
  710MOL0     C95771   0.364  10.483   4.087  0.4599  0.4656  0.6050
  710MOL0     C95772   0.276  10.375   4.048 -0.0459 -0.2492 -0.8453
  710MOL0     O95773   0.160  10.385   3.975  1.1035 -0.3050  0.3404
  710MOL0     C95774   0.064  10.484   4.020 -0.7130  0.0526  0.0838
  710MOL0     C95775  -0.058  10.395   4.074  0.4758 -0.0131 -0.8076
  710MOL0     C95776  -0.134  10.328   3.962  0.7094  0.4402 -0.2883
  710MOL0     C95777  -0.266  10.256   4.004 -0.4892 -0.2795  0.5820
  710MOL0     C95778  -0.347  10.201   3.889 -0.0097  0.7982 -0.0717
  710MOL0     C95779  -0.416  10.145   3.798 -0.1986  0.0999 -0.7247
  710MOL0     C95780   0.307  10.245   4.090 -0.0636  0.4878 -0.2054
  710MOL0     C95781   0.428  10.216   4.153 -0.8461 -0.1381  0.2011
  710MOL0     C95782   0.446  10.070   4.197 -0.1287 -1.1123 -0.0374
  710MOL0     H95783   1.012  10.409   4.138 -2.6139 -1.7054 -0.4736
  710MOL0     H95784   1.184  10.473   4.297 -0.8428  1.3754 -0.6709
  710MOL0     H95785   1.288  10.350   4.570  0.2462 -0.5001 -1.2937
  710MOL0     H95786   1.311  10.455   4.435 -4.1214  0.7491 -0.0242
  710MOL0     H95787   1.499  10.467   4.605  1.6370  2.1118  1.2816
  710MOL0     H95788   1.370  10.535   4.720 -3.3328 -0.3769 -0.7445
  710MOL0     H95789   1.341  10.718   4.555  2.7553  4.5797 -0.9165
  710MOL0     H95790   1.485  10.642   4.462  2.8740  1.1592  1.2151
  710MOL0     H95791   1.482  10.773   4.737  3.4699  0.2357  1.7007
  710MOL0     H95792   1.619  10.687   4.657  0.0208 -1.0932 -2.8464
  710MOL0     H95793   1.487  10.941   4.578 -0.4653  0.2052  0.4279
  710MOL0     H95794   1.646  10.915   4.656 -0.4784 -1.1806 -0.2663
  710MOL0     H95795   1.620  10.797   4.376  4.1317 -1.1387 -0.7431
  710MOL0     H95796   1.598  10.968   4.408 -2.6333 -2.2999 -1.8247
  710MOL0     H95797   1.808  10.795   4.547  0.4790 -1.8848 -0.6767
  710MOL0     H95798   1.815  10.978   4.502  1.2444 -0.6839  0.6895
  710MOL0     H95799   1.864  10.748   4.331  0.3285 -1.1634  1.4706
  710MOL0     H95800   1.836  10.922   4.272  2.7921  0.1320 -1.0600
  710MOL0     H95801   2.068  11.022   4.220  1.7922 -0.4815 -1.1949
  710MOL0     H95802   2.372  11.046   4.309  2.1954 -0.2096 -1.6596
  710MOL0     H95803   2.411  10.873   4.308 -1.6890 -1.8519 -1.2511
  710MOL0     H95804   2.271  11.006   4.084  0.3824  0.3310 -1.0451
  710MOL0     H95805   2.425  10.946   4.069  1.2111 -3.3328  0.4226
  710MOL0     H95806   2.223  10.751   4.138  0.0579  3.5548  1.1343
  710MOL0     H95807   2.394  10.717   4.097  1.1556  1.3401  2.9103
  710MOL0     H95808   2.249  10.669   3.907 -1.5496  0.6860 -2.8660
  710MOL0     H95809   2.349  10.797   3.865  0.0025  1.2739 -0.3630
  710MOL0     H95810   1.955  11.038   3.888 -3.2631 -1.3581 -1.2343
  710MOL0     H95811   1.740  10.997   3.973  0.2354 -0.3702 -2.8239
  710MOL0     H95812   1.312  10.973   3.906 -2.0487  0.7703  0.3004
  710MOL0     H95813   1.102  10.980   3.984  2.1464 -0.8624 -2.2898
  710MOL0     H95814   0.948  10.692   4.260  1.2041 -0.1598 -0.9311
  710MOL0     H95815   0.974  10.800   4.402 -0.8478  0.6160  0.1505
  710MOL0     H95816   0.753  10.738   4.213  1.2273 -1.4032 -0.9825
  710MOL0     H95817   0.760  10.726   4.391  1.9746  1.2414  1.2318
  710MOL0     H95818   0.779  10.990   4.404 -0.4086  1.5765 -1.5835
  710MOL0     H95819   0.726  10.983   4.254  0.1096  1.3438  1.6473
  710MOL0     H95820   0.590  10.856   4.484  1.0445 -4.2026 -1.9151
  710MOL0     H95821   0.531  10.846   4.317 -1.8622 -0.6954  2.2906
  710MOL0     H95822   0.395  11.009   4.382 -0.2559  1.3704  1.5732
  710MOL0     H95823   0.532  11.092   4.318  2.4664 -2.0213 -0.9400
  710MOL0     H95824   0.470  11.014   4.619  0.5383 -0.0647  0.5892
  710MOL0     H95825   0.611  11.110   4.569  1.3195 -2.3609 -3.2633
  710MOL0     H95826   0.326  11.196   4.499  2.7675  0.6327 -4.2478
  710MOL0     H95827   0.471  11.284   4.464  0.2153  2.5400  1.0489
  710MOL0     H95828   0.515  11.325   4.711 -0.4096 -1.3654  2.8113
  710MOL0     H95829   0.362  11.383   4.645 -3.2512 -1.9534 -1.7505
  710MOL0     H95830   1.211  10.761   4.337  0.2982 -1.0846  0.0517
  710MOL0     H95831   1.438  10.756   4.266 -1.4346 -2.0320 -0.3253
  710MOL0     H95832   1.823  10.575   4.034  1.1031 -0.4784  2.8112
  710MOL0     H95833   2.050  10.624   3.976 -0.3575  0.0238 -2.2526
  710MOL0     H95834   0.897  10.481   4.613 -1.1506  0.5305  0.1466
  710MOL0     H95835   0.719  10.431   4.447  0.4186  2.0903  3.3138
  710MOL0     H95836   0.550  10.524   4.175  1.9156 -1.4070 -2.3078
  710MOL0     H95837   0.335  10.581   4.052  0.0859 -0.3907 -1.6148
  710MOL0     H95838   0.031  10.551   3.941  2.5811 -1.5939 -2.9621
  710MOL0     H95839   0.107  10.553   4.094 -2.1013  0.9064  0.1444
  710MOL0     H95840  -0.137  10.457   4.118 -0.5286 -0.4460 -1.9221
  710MOL0     H95841  -0.029  10.319   4.147 -0.0806  1.9963  1.6438
  710MOL0     H95842  -0.072  10.254   3.910  2.9467  2.9081 -1.3775
  710MOL0     H95843  -0.143  10.408   3.888  0.7550 -1.3298 -2.3180
  710MOL0     H95844  -0.226  10.183   4.076  1.4718 -0.2845 -0.4564
  710MOL0     H95845  -0.328  10.331   4.055  2.0030  1.1185  1.7691
  710MOL0     H95846  -0.474  10.088   3.728  0.2800  0.0021 -1.0516
  710MOL0     H95847   0.221  10.180   4.076 -1.9294  2.7946 -0.2150
  710MOL0     H95848   0.548  10.033   4.183  0.6161  0.5482  0.6919
  710MOL0     H95849   0.424  10.064   4.304  2.1270  1.6019  0.7156
  710MOL0     H95850   0.391   9.997   4.136  3.7249 -4.2290 -0.1555
  711MOL0     O95851   6.420   7.057   5.473 -0.3566  0.7533 -0.0506
  711MOL0     C95852   6.388   7.057   5.594 -0.2024 -0.1255 -0.1813
  711MOL0     O95853   6.471   7.061   5.700 -0.6428 -0.0232 -0.2292
  711MOL0     C95854   6.600   7.019   5.705 -1.3518  0.6538  0.8284
  711MOL0     C95855   6.676   7.059   5.815 -0.3153  1.4214  0.6643
  711MOL0     C95856   6.808   7.017   5.824  0.3619  0.5211  0.1548
  711MOL0     C95857   6.878   6.940   5.732  0.9638  0.6874  0.4235
  711MOL0     O95858   7.007   6.925   5.763 -0.7929  0.9904 -0.0437
  711MOL0     C95859   7.096   6.884   5.645 -0.2887  0.3570 -0.4903
  711MOL0     C95860   7.094   6.735   5.636  0.7918  0.2841 -0.5928
  711MOL0     C95861   7.218   6.678   5.567 -0.9300 -0.1348 -0.2021
  711MOL0     C95862   7.268   6.550   5.633  0.1657 -1.2454 -0.0236
  711MOL0     C95863   7.362   6.470   5.549 -1.0016  1.0395 -0.3032
  711MOL0     C95864   7.393   6.341   5.611 -0.0108  0.6097  0.1930
  711MOL0     C95865   7.482   6.257   5.519 -0.8513 -0.5745 -0.8212
  711MOL0     C95866   7.519   6.119   5.575  0.5104  0.2945 -0.3644
  711MOL0     N95867   7.619   6.042   5.496 -0.4411 -0.5706 -0.3427
  711MOL0     C95868   7.592   5.991   5.373 -0.3955 -0.4614  0.2377
  711MOL0     C95869   7.710   5.941   5.327  0.0418 -0.4062  0.2684
  711MOL0     C95870   7.729   5.843   5.217  0.8864  0.4404 -0.5009
  711MOL0     C95871   7.759   5.896   5.078  0.1547  0.3598  0.2891
  711MOL0     C95872   7.785   5.788   4.974  0.4198 -0.6894 -0.2888
  711MOL0     C95873   7.934   5.734   4.958  0.7091  0.5727 -0.2659
  711MOL0     O95874   7.992   5.791   4.840 -0.0826  0.1823  0.5476
  711MOL0     C95875   8.130   5.804   4.838 -0.7061  0.1736  0.1435
  711MOL0     C95876   8.184   5.920   4.783 -0.7193 -0.3044  0.3431
  711MOL0     C95877   8.320   5.939   4.778 -0.0479 -0.2964 -0.1586
  711MOL0     C95878   8.406   5.850   4.845 -0.2406  0.7689 -0.3737
  711MOL0     C95879   8.555   5.871   4.838 -0.4225 -1.2809  0.0827
  711MOL0     O95880   8.636   5.771   4.896 -0.4046 -1.0798 -0.0038
  711MOL0     C95881   8.775   5.775   4.901 -0.4403  0.3710  0.0489
  711MOL0     C95882   8.864   5.881   4.861 -0.5424 -0.5435 -0.5934
  711MOL0     C95883   8.998   5.864   4.879 -0.1377  0.3076  0.1383
  711MOL0     C95884   9.052   5.742   4.946 -0.3135 -0.3743  0.6437
  711MOL0     O95885   9.183   5.709   4.965  0.1160  0.8588  0.1855
  711MOL0     C95886   9.274   5.809   4.986  0.0119 -0.3281  0.0171
  711MOL0     C95887   9.375   5.776   5.095  0.3762  0.0120 -0.1033
  711MOL0     C95888   9.466   5.888   5.115 -0.0326 -1.0392  0.3491
  711MOL0     C95889   9.570   5.859   5.225  0.2233  0.1356  0.1236
  711MOL0     C95890   9.643   5.990   5.273 -0.3592  0.0827  0.3496
  711MOL0     C95891   9.779   5.943   5.338  0.5911 -0.9318 -0.3660
  711MOL0     C95892   9.840   6.053   5.426  0.2643 -0.0505  0.7783
  711MOL0     C95893   9.776   6.041   5.566  0.7627 -0.2238 -0.9490
  711MOL0    Cl95894   9.811   6.208   5.641 -0.3308  0.2042  0.0586
  711MOL0     C95895   8.958   5.643   4.981 -0.8871 -0.2490 -0.2377
  711MOL0     C95896   8.830   5.658   4.950 -0.3923 -1.2410 -0.0364
  711MOL0     O95897   8.594   5.957   4.757 -0.1124 -0.3894 -0.6699
  711MOL0     C95898   8.352   5.734   4.906 -0.1950  0.9721  0.0349
  711MOL0     C95899   8.215   5.713   4.895  0.8084 -0.2259  0.2037
  711MOL0     N95900   7.797   5.956   5.437  0.7148 -0.8866 -0.2603
  711MOL0     N95901   7.744   6.016   5.534  1.1166 -0.8539 -0.3080
  711MOL0     C95902   6.804   6.892   5.624  0.3697  0.4051  0.5531
  711MOL0     C95903   6.656   6.931   5.614  0.8491 -0.0089  0.8997
  711MOL0     C95904   6.240   7.067   5.607 -0.9710 -0.3617  0.3624
  711MOL0     C95905   6.158   7.091   5.497  0.7679  0.1082 -0.3629
  711MOL0     C95906   6.027   7.139   5.523 -0.4600  0.7178  0.4383
  711MOL0     C95907   5.965   7.137   5.653  0.4126  0.1915 -0.1193
  711MOL0     O95908   5.829   7.172   5.675 -0.1034 -0.6033 -0.2638
  711MOL0     C95909   5.727   7.170   5.565 -1.4320 -0.1999 -0.4653
  711MOL0     C95910   5.713   7.305   5.491  0.0365  0.6640 -0.1488
  711MOL0     C95911   5.647   7.419   5.584  0.4270  0.2493 -1.0048
  711MOL0     C95912   5.504   7.399   5.625  0.7250 -0.3733  0.2543
  711MOL0     C95913   5.418   7.399   5.506  0.2499 -0.6226  1.4433
  711MOL0     C95914   5.341   7.406   5.411 -0.3155  0.1149 -0.4627
  711MOL0     C95915   6.047   7.091   5.758  0.1411 -0.1913  0.5160
  711MOL0     C95916   6.174   7.051   5.730 -0.2937  0.3292  0.1137
  711MOL0     C95917   6.254   6.995   5.848 -0.7210 -0.4581  0.0524
  711MOL0     H95918   6.624   7.117   5.891 -0.1564 -1.0367  2.7740
  711MOL0     H95919   6.875   7.050   5.902  0.5563  0.9300 -0.1787
  711MOL0     H95920   7.063   6.931   5.552 -2.7468  0.4682  0.3676
  711MOL0     H95921   7.193   6.925   5.674 -0.3889 -0.3076  0.8469
  711MOL0     H95922   7.014   6.706   5.568  0.1480  0.4422  0.0915
  711MOL0     H95923   7.081   6.689   5.734  5.1506 -0.7201 -0.2677
  711MOL0     H95924   7.300   6.749   5.557 -0.0322 -0.9724  0.9599
  711MOL0     H95925   7.186   6.666   5.463 -0.7577  0.9377 -0.3886
  711MOL0     H95926   7.313   6.571   5.730 -2.2404  1.0573  0.7162
  711MOL0     H95927   7.184   6.485   5.658 -0.9178 -0.0885 -0.5525
  711MOL0     H95928   7.316   6.454   5.451 -0.0445  1.4133 -0.8249
  711MOL0     H95929   7.451   6.534   5.544 -0.7249  0.7803  1.0291
  711MOL0     H95930   7.437   6.351   5.710 -2.6457 -0.3633  1.5661
  711MOL0     H95931   7.297   6.289   5.620  0.5330 -0.7904 -1.5098
  711MOL0     H95932   7.572   6.320   5.518 -0.2439 -1.4215 -2.2832
  711MOL0     H95933   7.428   6.237   5.427  1.2249  0.5145 -2.3647
  711MOL0     H95934   7.555   6.124   5.679 -0.7147 -1.3842  0.1725
  711MOL0     H95935   7.432   6.055   5.560  2.8624 -2.7499 -1.9877
  711MOL0     H95936   7.495   6.000   5.327 -0.9392  0.2588  1.4848
  711MOL0     H95937   7.813   5.779   5.248 -0.4553 -1.2508 -0.2367
  711MOL0     H95938   7.641   5.779   5.207  1.7332 -0.5879 -1.7233
  711MOL0     H95939   7.661   5.933   5.047 -0.4805 -1.5862 -0.1384
  711MOL0     H95940   7.838   5.971   5.091  1.1608 -0.6563  0.2114
  711MOL0     H95941   7.751   5.815   4.873  3.3230 -0.4568 -1.3271
  711MOL0     H95942   7.740   5.698   5.016  0.5835 -0.4829  0.3392
  711MOL0     H95943   7.928   5.625   4.953  0.2859  0.4980  1.3869
  711MOL0     H95944   7.987   5.765   5.048 -0.5791  1.7059  0.1433
  711MOL0     H95945   8.112   5.990   4.742 -1.2968  0.8749  3.1179
  711MOL0     H95946   8.361   6.033   4.741  2.3252 -0.6372  1.3844
  711MOL0     H95947   8.824   5.975   4.827 -0.3648 -0.0824  0.4261
  711MOL0     H95948   9.056   5.949   4.844 -1.1362  1.1577  0.5028
  711MOL0     H95949   9.329   5.828   4.893  0.6101  2.1889  0.8023
  711MOL0     H95950   9.218   5.900   5.007  1.9881  0.8793  0.3759
  711MOL0     H95951   9.322   5.756   5.189  1.1827  0.0351  0.3700
  711MOL0     H95952   9.433   5.687   5.069  2.1033  0.0885  3.0063
  711MOL0     H95953   9.522   5.898   5.021  1.3238 -0.5813  1.1806
  711MOL0     H95954   9.410   5.978   5.144  1.5710 -0.1271  0.6950
  711MOL0     H95955   9.637   5.788   5.176 -0.5290  0.0820 -0.8449
  711MOL0     H95956   9.515   5.808   5.305 -4.8813  2.0592 -1.7597
  711MOL0     H95957   9.577   6.047   5.338 -1.2533  1.5586 -1.7470
  711MOL0     H95958   9.668   6.054   5.188 -0.3393 -0.1550  0.1737
  711MOL0     H95959   9.763   5.852   5.397  1.0308 -0.6609  0.1779
  711MOL0     H95960   9.846   5.912   5.257 -1.4783  1.2950 -3.1435
  711MOL0     H95961   9.824   6.155   5.390  0.8686  0.4275  1.8073
  711MOL0     H95962   9.948   6.035   5.430  0.2528 -0.1627  0.6143
  711MOL0     H95963   9.666   6.036   5.566  0.5844  1.4105  1.8254
  711MOL0     H95964   9.806   5.956   5.628 -0.2553 -0.2389 -0.4453
  711MOL0     H95965   9.003   5.555   5.025 -0.5527  1.4090  3.1033
  711MOL0     H95966   8.762   5.580   4.983  1.3358 -1.8515  2.3100
  711MOL0     H95967   8.414   5.666   4.964  1.5650  1.7547 -0.8588
  711MOL0     H95968   8.177   5.621   4.940  0.9315 -0.4399 -0.1251
  711MOL0     H95969   6.847   6.828   5.548 -0.0793 -0.3832  0.9460
  711MOL0     H95970   6.593   6.889   5.537  3.1250 -1.6560 -0.1587
  711MOL0     H95971   6.188   7.077   5.394 -0.1607 -0.5120 -0.5542
  711MOL0     H95972   5.967   7.171   5.438  0.9013 -0.3594 -0.9725
  711MOL0     H95973   5.633   7.131   5.606 -0.7651 -0.6190  0.7102
  711MOL0     H95974   5.754   7.099   5.486  1.0824  1.9732 -1.6943
  711MOL0     H95975   5.663   7.288   5.395  1.5366 -2.0476 -0.5605
  711MOL0     H95976   5.815   7.333   5.462  0.3985 -0.5519 -0.1325
  711MOL0     H95977   5.661   7.512   5.528  1.4616  1.5433  1.2383
  711MOL0     H95978   5.695   7.426   5.682  0.4325 -1.8068 -0.8191
  711MOL0     H95979   5.478   7.312   5.685 -2.5206  1.2015  1.3739
  711MOL0     H95980   5.473   7.482   5.690  4.3442  0.9078  0.5998
  711MOL0     H95981   5.269   7.399   5.332 -2.4190 -1.3450  1.4372
  711MOL0     H95982   6.000   7.100   5.855 -0.9344 -0.1427  0.0113
  711MOL0     H95983   6.315   6.912   5.811  2.3859  1.2468  0.9844
  711MOL0     H95984   6.330   7.062   5.887 -1.5220 -0.1750  1.1896
  711MOL0     H95985   6.201   6.969   5.940 -1.9381 -0.7063 -0.6838
  712MOL0     O95986   8.088   1.599   8.678 -0.0550  0.7043 -0.9257
  712MOL0     C95987   8.073   1.680   8.773  0.5992  0.6184 -0.0146
  712MOL0     O95988   8.165   1.686   8.880 -0.2156  0.4893 -0.0150
  712MOL0     C95989   8.266   1.593   8.886 -0.1987  0.4402 -0.0401
  712MOL0     C95990   8.228   1.459   8.922  0.2338  0.9842 -0.9123
  712MOL0     C95991   8.328   1.352   8.904  0.0744 -0.4875 -0.0911
  712MOL0     C95992   8.461   1.384   8.871 -0.2382  0.3772 -0.0779
  712MOL0     O95993   8.550   1.278   8.843 -0.3038  0.0059 -0.1642
  712MOL0     C95994   8.685   1.305   8.813  0.4944  0.2923  0.2582
  712MOL0     C95995   8.737   1.171   8.751 -0.7044 -0.3463 -0.5765
  712MOL0     C95996   8.880   1.202   8.695 -0.3590 -0.6559  0.3581
  712MOL0     C95997   8.893   1.228   8.550 -0.2307 -0.5570 -0.5260
  712MOL0     C95998   9.033   1.243   8.489 -0.1399 -1.4173 -0.2395
  712MOL0     C95999   9.131   1.335   8.568  0.8065 -0.2080 -0.6201
  712MOL0     C96000   9.245   1.357   8.470  0.2459  0.5315  0.6781
  712MOL0     C96001   9.366   1.422   8.547  0.1840 -0.0309  0.3432
  712MOL0     N96002   9.470   1.459   8.445 -0.3863  0.3894  0.1871
  712MOL0     C96003   9.585   1.388   8.405 -1.0723  0.1614 -1.0147
  712MOL0     C96004   9.666   1.476   8.343 -0.4347 -0.2377  0.7544
  712MOL0     C96005   9.787   1.456   8.257 -0.1789  0.2942 -0.0012
  712MOL0     C96006   9.892   1.365   8.327 -0.3740  0.6004  0.2515
  712MOL0     C96007  10.025   1.312   8.260  0.2657 -0.8454 -0.1928
  712MOL0     C96008  10.090   1.407   8.159 -0.7941 -0.8617  0.0260
  712MOL0     O96009  10.176   1.339   8.069  0.4328  0.3247  0.5310
  712MOL0     C96010  10.288   1.297   8.126 -0.8515  0.1523  0.8359
  712MOL0     C96011  10.398   1.380   8.144 -0.3572  0.1204 -0.4474
  712MOL0     C96012  10.508   1.317   8.202 -0.2247 -0.5615  0.6413
  712MOL0     C96013  10.512   1.175   8.231 -0.5145  0.2042  0.6650
  712MOL0     C96014  10.636   1.108   8.270 -0.1727  0.5038  0.7343
  712MOL0     O96015  10.750   1.184   8.247 -0.1234 -0.8986 -0.1325
  712MOL0     C96016  10.855   1.122   8.315  0.4023 -0.6316 -0.4972
  712MOL0     C96017  10.957   1.055   8.253 -0.8576 -0.2273  0.2218
  712MOL0     C96018  11.057   0.994   8.332 -0.6161 -0.1996 -0.5035
  712MOL0     C96019  11.070   1.024   8.474  0.5147  0.1052  0.0136
  712MOL0     O96020  11.176   0.980   8.531 -0.1403 -0.4486 -0.0693
  712MOL0     C96021  11.237   1.056   8.635  0.5645 -0.2366 -0.1908
  712MOL0     C96022  11.372   0.994   8.672  1.1929  0.3084 -0.1922
  712MOL0     C96023  11.474   0.982   8.547  0.1837  0.0533 -0.6080
  712MOL0     C96024  11.531   1.114   8.495  0.0136 -0.4690 -0.0244
  712MOL0     C96025  11.627   1.192   8.587  0.7277  1.3093  0.1966
  712MOL0     C96026  11.676   1.312   8.506 -0.6788  0.1353 -0.0584
  712MOL0     C96027  11.796   1.382   8.566  0.0404  0.5595 -0.2513
  712MOL0     C96028  11.878   1.456   8.464  0.5120 -0.5002  0.1816
  712MOL0    Cl96029  12.026   1.355   8.423  0.4866 -0.2779  0.3952
  712MOL0     C96030  10.967   1.102   8.529 -0.5926 -0.6092 -0.4596
  712MOL0     C96031  10.860   1.150   8.451 -0.6544  0.0248 -0.4800
  712MOL0     O96032  10.629   1.001   8.329  0.4042  0.2118  0.1603
  712MOL0     C96033  10.390   1.104   8.222 -0.1294  0.6306 -0.6208
  712MOL0     C96034  10.289   1.169   8.172  0.6644 -0.8814  0.2465
  712MOL0     N96035   9.601   1.595   8.367 -0.3215  0.7361 -0.3696
  712MOL0     N96036   9.484   1.588   8.421 -0.4010 -0.3111  0.3667
  712MOL0     C96037   8.491   1.514   8.842  0.1507 -0.7815  0.3760
  712MOL0     C96038   8.394   1.621   8.850 -0.0017 -0.3217  0.3986
  712MOL0     C96039   7.954   1.769   8.771  0.4723  0.1456 -0.0110
  712MOL0     C96040   7.921   1.841   8.889  0.5603 -0.2602  0.2839
  712MOL0     C96041   7.816   1.935   8.884  0.5173 -0.0011  0.0390
  712MOL0     C96042   7.738   1.956   8.780  1.3228 -0.8832  0.8239
  712MOL0     O96043   7.629   2.050   8.777  0.7145 -0.2421  0.1285
  712MOL0     C96044   7.537   2.045   8.881  0.1633 -0.8768  0.1981
  712MOL0     C96045   7.560   2.156   8.978  0.2773 -0.7879  0.3212
  712MOL0     C96046   7.470   2.133   9.100  0.1797  0.1074 -0.3488
  712MOL0     C96047   7.324   2.157   9.065  0.2754 -0.5486 -0.4084
  712MOL0     C96048   7.231   2.146   9.178  0.0323  0.9010  1.3556
  712MOL0     C96049   7.152   2.147   9.266  0.2568  0.3942 -0.0484
  712MOL0     C96050   7.783   1.899   8.658  1.1307 -1.0037  0.8053
  712MOL0     C96051   7.885   1.798   8.652  0.9644  0.3413  1.4353
  712MOL0     C96052   7.913   1.745   8.509  0.7933  0.4204  0.1122
  712MOL0     H96053   8.125   1.435   8.946  1.3918 -4.9130 -0.4133
  712MOL0     H96054   8.288   1.252   8.918 -0.0306 -0.2168  1.8034
  712MOL0     H96055   8.684   1.376   8.730 -2.0112 -1.0576 -0.9575
  712MOL0     H96056   8.738   1.333   8.905  2.8732  0.2283 -1.0166
  712MOL0     H96057   8.675   1.126   8.672 -0.1268 -0.5879 -0.8998
  712MOL0     H96058   8.745   1.103   8.836  3.4617 -1.2711 -1.4668
  712MOL0     H96059   8.932   1.107   8.713  0.2718 -0.4312 -0.2463
  712MOL0     H96060   8.923   1.285   8.751  0.7807 -1.1179  0.2033
  712MOL0     H96061   8.850   1.145   8.493 -2.8187  0.3494 -0.0041
  712MOL0     H96062   8.828   1.313   8.530 -2.0605 -1.5587  0.7808
  712MOL0     H96063   9.077   1.143   8.478  0.7635 -0.7783 -3.2852
  712MOL0     H96064   9.019   1.284   8.389  4.3209 -1.6602 -1.1382
  712MOL0     H96065   9.082   1.432   8.583 -1.0361 -1.4842  2.6605
  712MOL0     H96066   9.159   1.289   8.663 -0.2492  0.0341 -0.1716
  712MOL0     H96067   9.217   1.429   8.393  2.4823  0.9237  0.1476
  712MOL0     H96068   9.287   1.268   8.422  0.7679  0.9519  0.3482
  712MOL0     H96069   9.319   1.509   8.593 -0.0633 -0.5877  1.1654
  712MOL0     H96070   9.412   1.369   8.632 -3.0877  1.5392  3.3320
  712MOL0     H96071   9.607   1.282   8.406  4.1669  0.9903 -2.5655
  712MOL0     H96072   9.761   1.413   8.160  1.5174 -1.6165  0.3371
  712MOL0     H96073   9.826   1.557   8.237 -1.2365  0.5515 -0.8857
  712MOL0     H96074   9.924   1.409   8.422  0.6593 -0.7715  0.5746
  712MOL0     H96075   9.836   1.276   8.357 -1.1730  0.5492 -1.3204
  712MOL0     H96076   9.996   1.224   8.202 -0.9075 -1.4853  1.3042
  712MOL0     H96077  10.086   1.274   8.342 -3.3049 -1.9124  2.1825
  712MOL0     H96078  10.145   1.489   8.206  0.0239 -0.8550 -0.9197
  712MOL0     H96079  10.002   1.449   8.109 -1.7256 -0.9955  1.4894
  712MOL0     H96080  10.394   1.486   8.122 -1.8137 -0.5003 -4.0311
  712MOL0     H96081  10.601   1.373   8.209  0.7424 -1.9170 -0.6820
  712MOL0     H96082  10.956   1.041   8.146 -3.2949 -1.2669  0.3226
  712MOL0     H96083  11.137   0.935   8.286 -0.3247 -3.3645  3.5210
  712MOL0     H96084  11.252   1.162   8.612  2.1622 -0.6459 -1.2118
  712MOL0     H96085  11.181   1.051   8.729  3.8154 -2.7832  1.8043
  712MOL0     H96086  11.416   1.047   8.758 -2.0511  1.4895  0.9141
  712MOL0     H96087  11.349   0.895   8.712 -2.3682  1.4367  0.9830
  712MOL0     H96088  11.562   0.921   8.569  0.5673  0.7651 -0.1217
  712MOL0     H96089  11.414   0.933   8.469  0.9421 -0.5713 -0.8172
  712MOL0     H96090  11.440   1.171   8.473 -0.5884  0.3126  3.7690
  712MOL0     H96091  11.587   1.087   8.405  1.4186  0.3647  0.5612
  712MOL0     H96092  11.707   1.117   8.597 -0.7629 -0.3713  0.1090
  712MOL0     H96093  11.583   1.209   8.686 -0.9061  3.6318 -0.8356
  712MOL0     H96094  11.712   1.274   8.410 -1.9623 -1.3520  0.0052
  712MOL0     H96095  11.601   1.391   8.492  0.4893  1.3310  0.2902
  712MOL0     H96096  11.852   1.319   8.635 -0.3671  1.5923  1.0610
  712MOL0     H96097  11.751   1.458   8.631 -1.5801 -2.5910  2.6000
  712MOL0     H96098  11.820   1.478   8.374 -0.4995 -0.1195  0.9049
  712MOL0     H96099  11.911   1.545   8.519  2.1837  1.8519 -4.1770
  712MOL0     H96100  10.983   1.121   8.634  1.1058 -2.8444 -0.2290
  712MOL0     H96101  10.798   1.223   8.504 -0.2197  0.3749 -0.4450
  712MOL0     H96102  10.381   1.004   8.263  0.7743  1.2514  1.1900
  712MOL0     H96103  10.190   1.126   8.161 -0.4888  1.9931 -1.8009
  712MOL0     H96104   8.594   1.540   8.817  0.8158  0.6818  3.9784
  712MOL0     H96105   8.425   1.716   8.808  0.8506 -1.8041 -2.5774
  712MOL0     H96106   7.973   1.835   8.985  1.2339  0.0871 -0.0464
  712MOL0     H96107   7.787   1.995   8.970 -1.3823 -1.0047  0.1477
  712MOL0     H96108   7.540   1.945   8.927  2.6502 -1.0301 -0.1541
  712MOL0     H96109   7.438   2.061   8.840  1.8853  2.7947 -3.2002
  712MOL0     H96110   7.546   2.253   8.929  1.0804 -1.6184 -1.6166
  712MOL0     H96111   7.662   2.157   9.016  0.9318 -0.3256 -1.4011
  712MOL0     H96112   7.499   2.195   9.185  0.2832  2.1974 -1.8081
  712MOL0     H96113   7.484   2.029   9.129 -0.4037 -0.2807 -1.3945
  712MOL0     H96114   7.306   2.254   9.018  3.6164 -0.9061 -2.8089
  712MOL0     H96115   7.299   2.085   8.986  0.4613  0.0934 -1.0751
  712MOL0     H96116   7.087   2.133   9.350  1.6148  1.3204  1.1995
  712MOL0     H96117   7.747   1.934   8.562  3.0083 -0.8284  0.1103
  712MOL0     H96118   7.862   1.649   8.498 -1.1828  1.1232  2.1913
  712MOL0     H96119   7.880   1.815   8.432 -1.2720 -0.2331  0.3429
  712MOL0     H96120   8.022   1.747   8.505  0.7381  1.9264 -1.8517
  713MOL0     O96121   0.074   1.392   3.039  0.3301 -0.1027  0.4944
  713MOL0     C96122   0.108   1.513   3.032 -0.2363  0.0803 -1.0162
  713MOL0     O96123   0.062   1.616   3.117 -1.4234 -0.3003  0.3664
  713MOL0     C96124  -0.063   1.590   3.157  0.6060 -0.2799 -0.1407
  713MOL0     C96125  -0.092   1.533   3.283 -0.5436  0.2181 -0.4355
  713MOL0     C96126  -0.226   1.518   3.320  0.1057  0.0835  0.7077
  713MOL0     C96127  -0.327   1.541   3.230 -0.2700 -0.2135  0.2307
  713MOL0     O96128  -0.451   1.504   3.263 -0.1741 -0.4154 -0.0660
  713MOL0     C96129  -0.562   1.489   3.172 -0.4742 -0.2291 -0.0253
  713MOL0     C96130  -0.657   1.400   3.238 -0.1536  0.7071  0.5819
  713MOL0     C96131  -0.780   1.356   3.144 -0.6495  0.0257  0.1519
  713MOL0     C96132  -0.876   1.285   3.231 -0.6438  0.3603 -0.7425
  713MOL0     C96133  -1.006   1.297   3.171  1.2799 -0.4022 -0.2196
  713MOL0     C96134  -1.117   1.201   3.197  0.3060 -0.6088  0.0568
  713MOL0     C96135  -1.145   1.173   3.341  0.8777  0.4111 -0.1015
  713MOL0     C96136  -1.257   1.060   3.350  0.4850  0.0638 -0.4253
  713MOL0     N96137  -1.385   1.100   3.296 -0.3283 -0.3760 -0.1925
  713MOL0     C96138  -1.451   1.221   3.307 -0.6481  0.3517 -0.2284
  713MOL0     C96139  -1.570   1.204   3.249  0.5462 -0.3027  0.2266
  713MOL0     C96140  -1.671   1.302   3.238  0.4008 -0.5955 -0.1635
  713MOL0     C96141  -1.620   1.442   3.186  0.2283  0.1538 -0.1656
  713MOL0     C96142  -1.555   1.452   3.045  0.2991 -0.4880 -0.2830
  713MOL0     C96143  -1.491   1.586   3.007  0.1958  0.4837 -0.3905
  713MOL0     O96144  -1.370   1.598   3.088 -0.1445  0.4090 -0.2328
  713MOL0     C96145  -1.252   1.604   3.023 -0.1955 -0.2915  1.3608
  713MOL0     C96146  -1.229   1.544   2.893 -0.3632 -0.3575  0.3255
  713MOL0     C96147  -1.103   1.560   2.828 -0.4054 -0.5518 -0.7132
  713MOL0     C96148  -0.992   1.626   2.897  0.2972 -0.0820  0.6067
  713MOL0     C96149  -0.866   1.640   2.830  1.0553 -0.4255 -0.2776
  713MOL0     O96150  -0.759   1.665   2.919 -0.0608 -0.1300  0.0517
  713MOL0     C96151  -0.635   1.651   2.866 -0.6795 -0.9278  0.4668
  713MOL0     C96152  -0.559   1.767   2.839  0.5090  0.2069  0.5159
  713MOL0     C96153  -0.437   1.758   2.770  0.2526 -0.9332  0.5280
  713MOL0     C96154  -0.386   1.633   2.727  0.2570 -0.3394 -0.4954
  713MOL0     O96155  -0.263   1.622   2.671 -0.2285 -0.5168 -0.8197
  713MOL0     C96156  -0.186   1.503   2.689  0.2318  0.2302  0.1390
  713MOL0     C96157  -0.036   1.534   2.657 -0.4268 -0.2635  0.0614
  713MOL0     C96158  -0.017   1.561   2.506 -0.0364 -0.1618  0.2908
  713MOL0     C96159   0.134   1.571   2.473 -0.3523  0.4574 -0.2335
  713MOL0     C96160   0.162   1.570   2.318 -0.6655  1.8667 -0.3707
  713MOL0     C96161   0.313   1.561   2.283 -0.0325  0.7427  0.3061
  713MOL0     C96162   0.349   1.528   2.133  0.2453 -0.8753 -0.3870
  713MOL0     C96163   0.387   1.378   2.122  0.0908 -0.2672  0.4705
  713MOL0    Cl96164   0.476   1.344   1.964 -0.0671 -0.1419 -0.1577
  713MOL0     C96165  -0.457   1.517   2.759  0.5982  0.2147  0.1367
  713MOL0     C96166  -0.578   1.524   2.835  0.1646 -0.0789  0.3756
  713MOL0     O96167  -0.854   1.608   2.710  0.0515  0.1856  0.0531
  713MOL0     C96168  -1.018   1.668   3.033 -0.3129  0.7538  0.4354
  713MOL0     C96169  -1.147   1.659   3.087  0.1905 -0.8288 -0.0426
  713MOL0     N96170  -1.585   1.075   3.207 -0.5272 -0.1527 -0.4408
  713MOL0     N96171  -1.472   1.021   3.226  0.0650  1.2442 -0.4179
  713MOL0     C96172  -0.301   1.608   3.109  0.2246 -0.5667 -0.8128
  713MOL0     C96173  -0.164   1.637   3.074  0.1307  0.2024  0.2334
  713MOL0     C96174   0.205   1.543   2.921 -0.7544 -0.8073  0.0092
  713MOL0     C96175   0.267   1.443   2.859  0.8898  0.3598  0.4401
  713MOL0     C96176   0.371   1.464   2.766  0.5153  0.2415  0.8489
  713MOL0     C96177   0.408   1.591   2.716  0.3199 -0.3557 -0.4793
  713MOL0     O96178   0.481   1.623   2.613 -0.1754  0.9560  0.0047
  713MOL0     C96179   0.602   1.550   2.603  0.0059  0.2293 -0.1019
  713MOL0     C96180   0.698   1.604   2.501 -0.2713  0.3052  0.8279
  713MOL0     C96181   0.668   1.588   2.351 -0.0593  0.6954 -0.4361
  713MOL0     C96182   0.784   1.582   2.248  0.4724  0.4558  0.7277
  713MOL0     C96183   0.735   1.581   2.116 -0.4404 -0.5384  0.9933
  713MOL0     C96184   0.712   1.586   1.996  0.1296  0.2783  0.1784
  713MOL0     C96185   0.329   1.694   2.778 -0.1500  0.1618  0.1709
  713MOL0     C96186   0.233   1.677   2.877  0.2196 -1.3327  0.0519
  713MOL0     C96187   0.138   1.794   2.901 -0.3261 -0.5892  0.3377
  713MOL0     H96188  -0.016   1.504   3.355  0.9549  3.4114 -0.5677
  713MOL0     H96189  -0.264   1.477   3.414 -3.5431 -0.2573 -0.7432
  713MOL0     H96190  -0.596   1.591   3.153 -1.4998 -0.5224  0.2126
  713MOL0     H96191  -0.528   1.452   3.075 -0.3863 -0.4890  0.1042
  713MOL0     H96192  -0.699   1.455   3.323 -0.7073 -0.9189  1.4085
  713MOL0     H96193  -0.610   1.308   3.275 -2.5564 -0.5578  0.7250
  713MOL0     H96194  -0.743   1.305   3.054 -2.9860  0.7399 -1.3098
  713MOL0     H96195  -0.826   1.451   3.115  1.5719  0.8401 -0.9659
  713MOL0     H96196  -0.842   1.181   3.239  1.3052  0.7579 -2.8491
  713MOL0     H96197  -0.883   1.325   3.333  0.8310 -0.4801 -0.2737
  713MOL0     H96198  -1.045   1.394   3.203  1.3106 -0.7931  1.0631
  713MOL0     H96199  -0.995   1.293   3.063  2.6705 -0.8274 -0.0835
  713MOL0     H96200  -1.209   1.244   3.157 -0.0911 -1.7142 -0.2430
  713MOL0     H96201  -1.107   1.102   3.151 -2.0264  0.7771 -3.8262
  713MOL0     H96202  -1.181   1.265   3.389  2.3505  1.7057 -1.3245
  713MOL0     H96203  -1.063   1.129   3.397 -0.6154 -0.8074  1.2083
  713MOL0     H96204  -1.217   0.977   3.290  3.5185 -0.6561  2.2911
  713MOL0     H96205  -1.271   1.025   3.453 -1.5421 -2.6419 -1.4766
  713MOL0     H96206  -1.406   1.309   3.352  2.2801 -1.0087 -0.2549
  713MOL0     H96207  -1.757   1.269   3.180 -2.0827  0.5229  2.6005
  713MOL0     H96208  -1.717   1.328   3.334  2.8135  4.4007 -0.0369
  713MOL0     H96209  -1.708   1.508   3.181  0.1690  0.1904  1.2101
  713MOL0     H96210  -1.553   1.488   3.259  2.0844 -1.0368 -1.0468
  713MOL0     H96211  -1.633   1.432   2.971 -0.7969 -4.5580  1.6302
  713MOL0     H96212  -1.488   1.366   3.031  0.3431 -0.3423 -0.9565
  713MOL0     H96213  -1.557   1.667   3.040  1.0370  0.6309  0.9786
  713MOL0     H96214  -1.478   1.601   2.899  2.4534  3.0301  0.1470
  713MOL0     H96215  -1.302   1.476   2.849  0.9327 -1.1740 -0.6279
  713MOL0     H96216  -1.090   1.529   2.725  2.6616  0.6408 -0.8018
  713MOL0     H96217  -0.596   1.863   2.871 -0.3673 -0.1582  0.6297
  713MOL0     H96218  -0.377   1.844   2.741 -1.9751  0.3583 -0.5326
  713MOL0     H96219  -0.189   1.471   2.793  1.4239  1.4437  0.5713
  713MOL0     H96220  -0.227   1.426   2.623  2.0127  0.0004 -0.7612
  713MOL0     H96221   0.000   1.619   2.717 -1.3738 -1.3722  2.3235
  713MOL0     H96222   0.020   1.447   2.693  3.7843  1.7797 -0.9573
  713MOL0     H96223  -0.055   1.484   2.438  0.1816  0.5988 -0.7158
  713MOL0     H96224  -0.067   1.651   2.468 -0.5254 -1.4161 -2.3206
  713MOL0     H96225   0.184   1.481   2.509  0.5190 -0.6302 -3.7679
  713MOL0     H96226   0.174   1.662   2.517 -2.1754  2.1744 -1.9426
  713MOL0     H96227   0.115   1.658   2.272  1.4864  2.5089 -1.4700
  713MOL0     H96228   0.116   1.486   2.263  2.9153 -0.5915  0.0408
  713MOL0     H96229   0.353   1.653   2.327 -2.0280  1.4885  0.6575
  713MOL0     H96230   0.353   1.482   2.348 -0.5660 -0.3022 -0.6086
  713MOL0     H96231   0.429   1.596   2.105 -0.6265  0.6120  0.6015
  713MOL0     H96232   0.269   1.547   2.060 -0.9234  3.3795  1.7216
  713MOL0     H96233   0.462   1.348   2.196  1.3132 -0.5608 -0.8445
  713MOL0     H96234   0.299   1.313   2.126 -1.3380  1.6202  1.0362
  713MOL0     H96235  -0.435   1.411   2.749 -1.4363 -0.1193 -1.3384
  713MOL0     H96236  -0.639   1.436   2.852 -2.4288  1.5709  0.1505
  713MOL0     H96237  -0.936   1.713   3.087  1.2489  1.1079 -2.0578
  713MOL0     H96238  -1.168   1.689   3.189 -0.3966  0.7460 -0.5932
  713MOL0     H96239  -0.383   1.650   3.053 -0.0877  0.3071  0.2592
  713MOL0     H96240  -0.146   1.686   2.979 -3.4370 -0.1801 -0.8040
  713MOL0     H96241   0.245   1.340   2.884 -0.7713  1.5139  4.4777
  713MOL0     H96242   0.431   1.385   2.722  1.9393  1.4144  0.5997
  713MOL0     H96243   0.582   1.445   2.584 -1.7069  0.2679  1.1994
  713MOL0     H96244   0.652   1.556   2.700 -1.7144  0.1542  0.8475
  713MOL0     H96245   0.793   1.555   2.523 -0.6901 -0.6947  0.4862
  713MOL0     H96246   0.697   1.712   2.519 -0.8409  0.5652 -0.6551
  713MOL0     H96247   0.594   1.666   2.328 -0.2820  1.2906  2.0463
  713MOL0     H96248   0.626   1.487   2.354  2.5055 -0.4286  1.9717
  713MOL0     H96249   0.861   1.659   2.257  0.7300  0.2015  0.6890
  713MOL0     H96250   0.831   1.485   2.266 -0.9260 -0.0103  2.0958
  713MOL0     H96251   0.688   1.583   1.892 -2.1022 -1.2028  0.6523
  713MOL0     H96252   0.350   1.792   2.735 -0.0309  0.7335  1.4984
  713MOL0     H96253   0.033   1.763   2.892  0.2589 -2.9025  0.7428
  713MOL0     H96254   0.149   1.827   3.004  0.2104  2.3459 -0.5699
  713MOL0     H96255   0.150   1.865   2.818 -0.5609 -2.4349 -1.3556
  714MOL0     O96256   9.972   5.828   3.255  0.3175  0.1584 -0.8935
  714MOL0     C96257   9.992   5.749   3.168 -1.3624  1.1573  0.2228
  714MOL0     O96258  10.092   5.659   3.170 -0.0053  0.0864  0.6157
  714MOL0     C96259  10.185   5.642   3.269  0.5140  1.0319 -0.4765
  714MOL0     C96260  10.167   5.669   3.404  0.9589  0.1616  1.0625
  714MOL0     C96261  10.268   5.656   3.489  0.1523  1.5907 -1.0039
  714MOL0     C96262  10.397   5.601   3.467  0.4583  0.1571  0.7844
  714MOL0     O96263  10.504   5.591   3.555 -0.3880  0.6484 -0.0482
  714MOL0     C96264  10.458   5.572   3.689  0.2432 -0.3213 -0.0539
  714MOL0     C96265  10.576   5.505   3.767  0.3037 -0.4581  0.4786
  714MOL0     C96266  10.672   5.423   3.673  0.2206  0.3820 -0.7978
  714MOL0     C96267  10.809   5.403   3.750  0.0181  1.1572 -0.4993
  714MOL0     C96268  10.801   5.295   3.861 -0.0858  0.8278 -0.0490
  714MOL0     C96269  10.928   5.260   3.940 -0.6652  0.0417  0.7504
  714MOL0     C96270  10.909   5.154   4.057 -0.5752 -1.0079 -0.2121
  714MOL0     C96271  11.036   5.116   4.132  0.3463 -0.4712 -0.6780
  714MOL0     N96272  11.013   5.014   4.234 -0.1955 -0.6049  0.3947
  714MOL0     C96273  11.111   4.943   4.287 -0.0340 -0.0416  0.1268
  714MOL0     C96274  11.061   4.874   4.390  0.4110  1.0069  0.2064
  714MOL0     C96275  11.134   4.754   4.446 -0.5565  0.3900  0.8041
  714MOL0     C96276  11.256   4.781   4.540 -0.3075 -0.0833  0.0692
  714MOL0     C96277  11.197   4.797   4.680 -0.8162  0.3685 -0.4753
  714MOL0     C96278  11.294   4.769   4.784 -0.4141  0.8783  0.4890
  714MOL0     O96279  11.421   4.830   4.768 -0.3498 -0.1512  0.5096
  714MOL0     C96280  11.515   4.823   4.867  0.6258  0.1699 -0.4121
  714MOL0     C96281  11.498   4.766   4.993 -0.6350 -0.4017 -0.7308
  714MOL0     C96282  11.603   4.763   5.090 -0.6555  0.0299  0.1608
  714MOL0     C96283  11.733   4.793   5.046  0.3701  0.4124  0.2503
  714MOL0     C96284  11.843   4.780   5.135 -0.3483 -0.3108 -0.0100
  714MOL0     O96285  11.810   4.751   5.269 -0.1303  0.3806  0.2077
  714MOL0     C96286  11.916   4.750   5.363  0.2317  0.1053  0.9010
  714MOL0     C96287  11.935   4.635   5.440 -0.5693 -0.1032 -0.5176
  714MOL0     C96288  12.041   4.635   5.531  0.0593  0.1406 -0.3416
  714MOL0     C96289  12.123   4.749   5.554 -0.6954 -0.5563  0.7898
  714MOL0     O96290  12.223   4.741   5.646 -0.6288  0.2481  1.9339
  714MOL0     C96291  12.338   4.799   5.592  0.1441 -0.0965  0.4863
  714MOL0     C96292  12.455   4.751   5.675 -0.7461  0.6581  0.1993
  714MOL0     C96293  12.462   4.787   5.826  0.4258 -0.2488  0.4609
  714MOL0     C96294  12.509   4.934   5.855  0.6500  0.6065 -0.4139
  714MOL0     C96295  12.510   4.986   5.996  0.1126 -0.0569 -1.0580
  714MOL0     C96296  12.649   4.957   6.055  0.0685  0.8809  0.2478
  714MOL0     C96297  12.658   5.009   6.195  0.3745  0.6267  0.6300
  714MOL0     C96298  12.805   5.025   6.245 -0.4721  0.0043  0.0927
  714MOL0    Cl96299  12.853   4.894   6.359 -0.1799 -0.0028 -0.2400
  714MOL0     C96300  12.102   4.864   5.477  0.0044  0.3935 -0.2795
  714MOL0     C96301  11.993   4.868   5.387 -0.7425  0.1815 -0.7755
  714MOL0     O96302  11.958   4.808   5.093  0.1394  0.4213  0.1018
  714MOL0     C96303  11.757   4.854   4.918 -0.4588 -0.9716  0.2092
  714MOL0     C96304  11.648   4.868   4.835  0.0690 -0.4179  0.3852
  714MOL0     N96305  10.931   4.909   4.409  0.3589  0.0159  0.9858
  714MOL0     N96306  10.905   4.991   4.312  0.4355  0.2913  0.0550
  714MOL0     C96307  10.418   5.581   3.327 -0.2012 -0.1998  0.0235
  714MOL0     C96308  10.315   5.599   3.234 -0.2469  0.0859  0.1903
  714MOL0     C96309   9.897   5.761   3.057 -0.2188  0.3082  0.0920
  714MOL0     C96310   9.819   5.874   3.039  0.2299 -1.3675 -0.3078
  714MOL0     C96311   9.712   5.889   2.960  0.4409  0.2411 -0.1577
  714MOL0     C96312   9.681   5.783   2.884 -0.2459 -0.3768 -0.1465
  714MOL0     O96313   9.576   5.788   2.794  0.3049 -0.1467 -0.2467
  714MOL0     C96314   9.448   5.792   2.864 -0.1167  0.0494  0.2737
  714MOL0     C96315   9.347   5.725   2.781  0.3815  0.3442  0.2388
  714MOL0     C96316   9.364   5.572   2.760 -0.7023 -0.6388 -0.7469
  714MOL0     C96317   9.241   5.512   2.703 -0.3416 -0.5496  0.1115
  714MOL0     C96318   9.266   5.379   2.654  0.4196  0.1372  0.9547
  714MOL0     C96319   9.294   5.271   2.608 -0.4461  0.1585  0.0384
  714MOL0     C96320   9.755   5.668   2.878  1.0978 -0.1461 -0.2143
  714MOL0     C96321   9.863   5.661   2.970  0.4112 -0.9354  0.1592
  714MOL0     C96322   9.945   5.531   2.956  0.1324  0.2012  0.1798
  714MOL0     H96323  10.076   5.716   3.440  0.1803 -0.4556 -0.0145
  714MOL0     H96324  10.240   5.674   3.593  0.3413 -2.2081 -0.1451
  714MOL0     H96325  10.427   5.656   3.752  0.9379  0.4957 -0.7819
  714MOL0     H96326  10.371   5.505   3.692  2.4573 -3.4723 -0.8213
  714MOL0     H96327  10.519   5.450   3.842  0.1936  0.4464  1.0677
  714MOL0     H96328  10.633   5.578   3.824 -0.5665 -2.1799  3.7815
  714MOL0     H96329  10.701   5.460   3.574  1.1754 -1.3399 -1.2087
  714MOL0     H96330  10.620   5.328   3.655 -1.3582  1.0794 -0.0710
  714MOL0     H96331  10.883   5.377   3.674  0.3761 -0.7816  0.4361
  714MOL0     H96332  10.831   5.497   3.801  1.5173  2.5727 -3.5126
  714MOL0     H96333  10.718   5.322   3.927 -1.1691  1.9832 -1.8001
  714MOL0     H96334  10.778   5.200   3.810  0.3784  0.2336  0.8336
  714MOL0     H96335  10.991   5.207   3.869 -1.2850  0.2430  0.0313
  714MOL0     H96336  10.974   5.350   3.982  2.7412 -0.0383 -2.3296
  714MOL0     H96337  10.860   5.067   4.011 -2.2166  0.4837 -1.4017
  714MOL0     H96338  10.837   5.192   4.130  0.1378 -2.0733  1.0934
  714MOL0     H96339  11.112   5.084   4.061  0.5916 -0.0672 -0.6054
  714MOL0     H96340  11.075   5.202   4.188 -0.8281 -0.6996  0.5537
  714MOL0     H96341  11.217   4.945   4.262 -0.1446 -1.4568 -0.5187
  714MOL0     H96342  11.066   4.679   4.487  0.2614 -1.5914 -1.2725
  714MOL0     H96343  11.172   4.706   4.356 -1.0805  0.5679  0.4879
  714MOL0     H96344  11.324   4.695   4.538 -0.9346 -0.5760 -1.2776
  714MOL0     H96345  11.320   4.861   4.502 -0.3317  0.4804  1.1682
  714MOL0     H96346  11.117   4.727   4.709  1.4180 -2.4837 -0.7155
  714MOL0     H96347  11.160   4.897   4.702 -3.4246  0.1968 -3.2557
  714MOL0     H96348  11.300   4.660   4.785 -1.4209  0.7932  2.3055
  714MOL0     H96349  11.251   4.801   4.879 -0.5146  0.5604  0.5508
  714MOL0     H96350  11.401   4.743   5.034 -0.6101  2.8058  1.5011
  714MOL0     H96351  11.584   4.715   5.186 -1.2495 -1.6217 -0.7563
  714MOL0     H96352  11.873   4.547   5.427  1.0581 -1.3158 -0.3504
  714MOL0     H96353  12.071   4.552   5.594  0.1829  2.6804  3.2431
  714MOL0     H96354  12.347   4.766   5.488 -0.7564 -1.4750  0.8298
  714MOL0     H96355  12.343   4.908   5.586 -0.0240 -0.1528 -1.0876
  714MOL0     H96356  12.466   4.642   5.681 -0.4973  0.6920  0.4233
  714MOL0     H96357  12.549   4.784   5.630 -0.3462  1.7810  1.7742
  714MOL0     H96358  12.357   4.779   5.855 -0.5846  0.0889 -2.6470
  714MOL0     H96359  12.539   4.728   5.876  0.0544  1.2782  2.9802
  714MOL0     H96360  12.442   4.998   5.797  0.5891  0.4302 -0.5395
  714MOL0     H96361  12.610   4.936   5.813  0.4888 -2.7193 -1.2151
  714MOL0     H96362  12.431   4.943   6.058  2.3346 -3.2307 -0.1875
  714MOL0     H96363  12.506   5.096   5.999 -1.0677  0.1004 -4.6381
  714MOL0     H96364  12.664   4.849   6.056 -1.2937  0.6667 -0.4122
  714MOL0     H96365  12.731   5.002   5.998 -0.2611  0.7177 -0.3539
  714MOL0     H96366  12.612   4.935   6.261  2.9270 -2.3654 -0.6712
  714MOL0     H96367  12.599   5.101   6.195 -0.1000  0.3366 -0.2703
  714MOL0     H96368  12.864   5.030   6.152  0.7741  0.4442  0.8790
  714MOL0     H96369  12.816   5.126   6.285  0.5077  0.7573 -1.9014
  714MOL0     H96370  12.152   4.959   5.488  0.2068  0.2649 -0.0845
  714MOL0     H96371  11.971   4.959   5.331  1.0632  1.7103  0.8696
  714MOL0     H96372  11.855   4.892   4.894 -0.3815  1.2104  3.4617
  714MOL0     H96373  11.664   4.916   4.739  0.1220 -1.5329 -0.1767
  714MOL0     H96374  10.514   5.539   3.300  0.2430  0.0706  1.1376
  714MOL0     H96375  10.334   5.587   3.128 -0.7851  0.0668  0.0936
  714MOL0     H96376   9.844   5.962   3.098 -0.0260 -0.3530 -1.6538
  714MOL0     H96377   9.652   5.979   2.953  1.6563  1.1493  0.6813
  714MOL0     H96378   9.412   5.895   2.871 -1.1726 -0.3611  1.2728
  714MOL0     H96379   9.461   5.740   2.960  1.9428  2.0246  1.1533
  714MOL0     H96380   9.331   5.788   2.693  1.5305  0.0625 -0.1853
  714MOL0     H96381   9.252   5.732   2.835  0.0205 -3.3178  0.3397
  714MOL0     H96382   9.379   5.522   2.856  0.0394 -1.9165 -1.4968
  714MOL0     H96383   9.458   5.549   2.709  0.6303 -0.2094  1.3710
  714MOL0     H96384   9.167   5.516   2.785 -0.7309  2.9510 -0.2440
  714MOL0     H96385   9.194   5.568   2.622 -3.4100 -2.3801  0.4558
  714MOL0     H96386   9.307   5.179   2.555  0.9309  1.1400 -1.4346
  714MOL0     H96387   9.732   5.604   2.794  0.9528 -2.5368  1.5503
  714MOL0     H96388  10.054   5.540   2.953  0.5628 -2.9015  1.9108
  714MOL0     H96389   9.935   5.474   3.049  2.0771  2.2189  1.7397
  714MOL0     H96390   9.914   5.481   2.863  0.6717  0.9763 -0.4243
  715MOL0     O96391   1.630  10.558   0.675  0.6452  0.5160  0.2139
  715MOL0     C96392   1.535  10.519   0.746 -0.5944 -0.6207 -0.2615
  715MOL0     O96393   1.546  10.446   0.860 -0.2080 -0.0441  0.0434
  715MOL0     C96394   1.676  10.395   0.882 -0.4335  1.2280  0.5360
  715MOL0     C96395   1.752  10.450   0.993 -0.2362 -0.2629  0.9541
  715MOL0     C96396   1.886  10.402   1.018  0.6701 -0.4279  0.6181
  715MOL0     C96397   1.926  10.285   0.953 -0.7861 -0.2947  0.0758
  715MOL0     O96398   2.047  10.230   0.998  1.0705  0.8676 -0.5141
  715MOL0     C96399   2.166  10.316   0.996  0.3450 -0.2859 -0.5826
  715MOL0     C96400   2.275  10.242   1.066  0.8391 -0.5388  0.6358
  715MOL0     C96401   2.397  10.335   1.109  0.6565  0.6474  0.8199
  715MOL0     C96402   2.503  10.242   1.171  0.0245  0.9839 -0.1327
  715MOL0     C96403   2.597  10.323   1.246  0.5361  0.2478  0.7904
  715MOL0     C96404   2.694  10.241   1.331 -0.2562 -0.2561  0.1566
  715MOL0     C96405   2.805  10.185   1.239  0.0619 -0.1191 -0.1800
  715MOL0     C96406   2.915  10.116   1.323  0.1780 -0.5145 -0.2302
  715MOL0     N96407   3.017  10.075   1.231 -1.1548 -0.0506 -0.0876
  715MOL0     C96408   3.028   9.946   1.180  0.6886 -0.1423 -0.7005
  715MOL0     C96409   3.141   9.941   1.117 -0.3317  0.3793  0.2741
  715MOL0     C96410   3.192   9.825   1.042 -0.3862  0.7228 -0.3450
  715MOL0     C96411   3.175   9.845   0.889 -0.7176 -0.1990  0.0698
  715MOL0     C96412   3.047   9.899   0.846  0.4483 -0.5315 -0.5458
  715MOL0     C96413   2.919   9.817   0.885  0.1066 -0.3608 -0.0018
  715MOL0     O96414   2.806   9.907   0.879  0.2261 -0.7243 -0.4036
  715MOL0     C96415   2.690   9.877   0.932  0.8444 -0.2449 -0.0651
  715MOL0     C96416   2.675   9.817   1.055  0.0052  0.0478 -0.1519
  715MOL0     C96417   2.546   9.805   1.116 -0.8359  0.1723  0.7450
  715MOL0     C96418   2.432   9.842   1.046 -0.6980  0.2170 -0.0087
  715MOL0     C96419   2.302   9.823   1.101  0.7001  0.4789  0.0958
  715MOL0     O96420   2.196   9.818   1.016  0.3434 -0.2683 -0.8122
  715MOL0     C96421   2.069   9.802   1.079 -0.3002  0.2022  1.1930
  715MOL0     C96422   2.021   9.673   1.105 -0.7398 -0.4235  0.2865
  715MOL0     C96423   1.898   9.657   1.162  0.2774  0.7322 -0.7384
  715MOL0     C96424   1.818   9.765   1.183 -0.0116  0.6219 -0.4548
  715MOL0     O96425   1.694   9.739   1.247 -0.3307  0.0843  0.0828
  715MOL0     C96426   1.586   9.847   1.244 -1.0834  0.1076 -0.0958
  715MOL0     C96427   1.451   9.780   1.284  0.6478 -0.1210 -0.6957
  715MOL0     C96428   1.329   9.877   1.273 -0.4313 -0.3399  0.3821
  715MOL0     C96429   1.210   9.818   1.348 -0.4660  0.8128  0.6336
  715MOL0     C96430   1.078   9.892   1.328  1.3388  0.2475 -1.1206
  715MOL0     C96431   1.068  10.020   1.418 -0.9677  1.2342  0.1096
  715MOL0     C96432   0.968  10.116   1.350  2.0560  0.0544 -0.2647
  715MOL0     C96433   1.032  10.213   1.255 -0.2903 -0.1277 -0.4249
  715MOL0    Cl96434   0.926  10.335   1.212  0.1473 -0.1666  0.4609
  715MOL0     C96435   1.868   9.889   1.167  0.5546 -0.6708  0.0650
  715MOL0     C96436   1.990   9.910   1.102 -0.4242  0.2783  0.3827
  715MOL0     O96437   2.286   9.801   1.224 -0.2521  0.2341 -0.2585
  715MOL0     C96438   2.450   9.891   0.921  0.3468 -0.2062  0.5478
  715MOL0     C96439   2.575   9.915   0.859 -0.0573 -0.5759 -0.3334
  715MOL0     N96440   3.206  10.065   1.116  0.4577  0.2124 -0.4406
  715MOL0     N96441   3.127  10.142   1.191  0.0282  0.6664 -0.1942
  715MOL0     C96442   1.846  10.224   0.858  0.5418  0.0929  0.2794
  715MOL0     C96443   1.734  10.285   0.811 -0.4056 -0.1894 -0.7434
  715MOL0     C96444   1.399  10.573   0.709 -0.1616  0.4526  0.0609
  715MOL0     C96445   1.304  10.565   0.816 -0.4469  0.4399  0.1253
  715MOL0     C96446   1.181  10.618   0.796 -0.5287 -0.2516 -0.8467
  715MOL0     C96447   1.144  10.680   0.675  1.2404 -0.3922 -0.3417
  715MOL0     O96448   1.012  10.720   0.657  0.4172  0.0980 -0.5238
  715MOL0     C96449   0.963  10.743   0.524  0.7287 -0.1016  0.0970
  715MOL0     C96450   0.820  10.772   0.533  1.0659 -0.2528 -0.7062
  715MOL0     C96451   0.767  10.827   0.400  0.5320 -0.0651  0.6812
  715MOL0     C96452   0.844  10.938   0.322 -0.3656 -0.7930  0.1039
  715MOL0     C96453   0.878  11.061   0.382  0.8983  0.2268 -0.3363
  715MOL0     C96454   0.899  11.166   0.441  0.7899 -0.6133  0.3786
  715MOL0     C96455   1.240  10.693   0.571  0.4024  0.4632  0.0073
  715MOL0     C96456   1.368  10.638   0.588  0.2364  0.4074  0.7192
  715MOL0     C96457   1.457  10.640   0.460  0.5278  0.0039 -0.8223
  715MOL0     H96458   1.710  10.526   1.058  1.7278  1.0436  0.7817
  715MOL0     H96459   1.954  10.440   1.092 -0.0315  0.5288  0.7979
  715MOL0     H96460   2.204  10.336   0.896  0.9639  3.1756  0.1903
  715MOL0     H96461   2.149  10.405   1.059  1.4401 -1.2083  1.0935
  715MOL0     H96462   2.304  10.160   1.000  2.3494 -2.9639  4.0083
  715MOL0     H96463   2.242  10.191   1.157 -0.0447  1.0045  1.2167
  715MOL0     H96464   2.361  10.394   1.193 -3.6031 -1.9514  1.1183
  715MOL0     H96465   2.429  10.399   1.027 -2.8239 -0.4980 -1.6447
  715MOL0     H96466   2.457  10.168   1.237  1.4196  2.0837  2.2054
  715MOL0     H96467   2.555  10.190   1.091 -1.5090 -0.9104  0.0124
  715MOL0     H96468   2.649  10.388   1.175  0.8855 -3.4867 -2.7786
  715MOL0     H96469   2.533  10.381   1.313 -1.7371 -1.1273 -0.0668
  715MOL0     H96470   2.740  10.308   1.404 -1.3459  3.0085 -1.9213
  715MOL0     H96471   2.644  10.157   1.379 -2.6215  0.3042 -1.1463
  715MOL0     H96472   2.841  10.263   1.172 -1.4251  1.6995  1.0439
  715MOL0     H96473   2.763  10.107   1.173  1.7276 -2.0866  0.9670
  715MOL0     H96474   2.958  10.191   1.390  1.4219  0.5557 -2.1199
  715MOL0     H96475   2.865  10.035   1.376 -2.3281 -0.5806 -2.4912
  715MOL0     H96476   2.958   9.865   1.194 -0.5647  0.6344 -2.1278
  715MOL0     H96477   3.301   9.828   1.053 -0.2962  0.0442 -1.0083
  715MOL0     H96478   3.147   9.730   1.073 -0.2484 -0.3659 -3.2304
  715MOL0     H96479   3.261   9.907   0.862 -0.6444  0.3125  1.3966
  715MOL0     H96480   3.187   9.741   0.856  2.2889  0.6120 -1.8272
  715MOL0     H96481   3.046   9.909   0.737  0.0384  0.2645 -0.4781
  715MOL0     H96482   3.033  10.004   0.871 -2.3709 -0.4802 -1.9454
  715MOL0     H96483   2.917   9.770   0.984 -1.1106  0.9045  0.6032
  715MOL0     H96484   2.912   9.742   0.805  2.6586 -2.0918  1.2611
  715MOL0     H96485   2.759   9.770   1.105  0.9808 -0.3100 -2.0129
  715MOL0     H96486   2.535   9.764   1.216  4.3040  0.7768  1.8481
  715MOL0     H96487   2.094   9.596   1.080  1.3299  0.9854  1.5932
  715MOL0     H96488   1.859   9.560   1.192 -1.8486  2.1407  1.5247
  715MOL0     H96489   1.608   9.935   1.304 -1.8768  1.3810 -1.5979
  715MOL0     H96490   1.593   9.876   1.139 -0.9605 -0.1065 -0.1483
  715MOL0     H96491   1.441   9.693   1.218  3.7879 -0.7291 -0.5571
  715MOL0     H96492   1.458   9.737   1.384 -3.7611  0.5530  0.0861
  715MOL0     H96493   1.355   9.975   1.312 -0.8919  0.0236 -0.2127
  715MOL0     H96494   1.316   9.896   1.166  1.7315  1.2773  0.3407
  715MOL0     H96495   1.233   9.802   1.453 -0.4808 -1.2561  0.3722
  715MOL0     H96496   1.210   9.719   1.301  5.2769 -0.3117  2.2637
  715MOL0     H96497   0.989   9.836   1.359 -1.8610  3.8761 -2.9612
  715MOL0     H96498   1.063   9.921   1.223 -2.2469 -0.7179 -1.0293
  715MOL0     H96499   1.018  10.001   1.514  0.1147  1.4944  0.7347
  715MOL0     H96500   1.165  10.067   1.437  0.3891 -1.0832 -0.6407
  715MOL0     H96501   0.931  10.178   1.432  0.2172  0.4387 -1.3367
  715MOL0     H96502   0.883  10.063   1.306 -0.2172  2.0108  1.4850
  715MOL0     H96503   1.121  10.262   1.295  1.1969 -2.3542 -0.7851
  715MOL0     H96504   1.068  10.159   1.166 -1.0883  1.0613 -1.5016
  715MOL0     H96505   1.808   9.979   1.182  1.2675  0.3227 -2.4713
  715MOL0     H96506   2.023  10.012   1.089  4.1604 -1.0339  0.0910
  715MOL0     H96507   2.372   9.934   0.860  0.7924 -1.7109 -1.1847
  715MOL0     H96508   2.593   9.955   0.760  2.1541  0.1586  0.3113
  715MOL0     H96509   1.870  10.128   0.814 -0.0921  0.3527 -0.6575
  715MOL0     H96510   1.678  10.231   0.735  1.3775 -0.4288 -1.9567
  715MOL0     H96511   1.324  10.505   0.904 -0.0593  0.7041  0.2169
  715MOL0     H96512   1.102  10.609   0.871  1.1039  0.4493  1.0593
  715MOL0     H96513   0.985  10.664   0.452  3.1565  0.0756  0.5375
  715MOL0     H96514   1.008  10.835   0.485 -0.5520  0.4691 -0.0600
  715MOL0     H96515   0.800  10.846   0.611 -1.7994 -1.6808  0.0443
  715MOL0     H96516   0.769  10.683   0.571 -2.5939  2.5330  1.6076
  715MOL0     H96517   0.660  10.850   0.406 -0.7636 -5.1276  1.6952
  715MOL0     H96518   0.766  10.740   0.334 -1.8485  0.3396  0.0688
  715MOL0     H96519   0.941  10.896   0.293  0.1458 -0.3215  1.1177
  715MOL0     H96520   0.786  10.962   0.232 -0.7964  0.6372  0.7455
  715MOL0     H96521   0.913  11.245   0.512 -3.0468  0.6262 -0.0205
  715MOL0     H96522   1.226  10.738   0.473  1.3246  1.3081  0.2382
  715MOL0     H96523   1.404  10.665   0.367 -1.7274 -1.2332  0.0410
  715MOL0     H96524   1.546  10.703   0.459  1.2399 -0.6643  3.0527
  715MOL0     H96525   1.492  10.536   0.458  1.4570  0.1971  1.5644
  716MOL0     O96526   4.349   4.503   0.797  0.1249 -0.2155 -0.3671
  716MOL0     C96527   4.396   4.588   0.728 -0.7513  0.8773 -0.5041
  716MOL0     O96528   4.368   4.723   0.737 -0.9160 -0.5075 -0.6002
  716MOL0     C96529   4.250   4.760   0.795  0.1066 -0.3043 -0.0500
  716MOL0     C96530   4.134   4.685   0.786  0.4052 -0.0862  0.1791
  716MOL0     C96531   4.018   4.732   0.849  0.1726 -0.5024  0.3387
  716MOL0     C96532   4.010   4.857   0.917  0.4401  0.9521 -0.3996
  716MOL0     O96533   3.886   4.905   0.956  0.2376  0.2276 -0.4257
  716MOL0     C96534   3.863   4.875   1.095  0.5715 -0.3324 -0.3063
  716MOL0     C96535   3.776   4.972   1.177  0.0724 -0.0046 -0.7647
  716MOL0     C96536   3.648   4.978   1.102 -0.6198  0.0795 -0.5336
  716MOL0     C96537   3.546   5.038   1.209  0.6296  0.7747  0.6625
  716MOL0     C96538   3.408   5.074   1.150  0.4207 -0.1364 -0.6935
  716MOL0     C96539   3.315   5.094   1.278  0.6869 -0.3645  0.2182
  716MOL0     C96540   3.180   5.144   1.219  0.3466  0.9304 -0.9393
  716MOL0     C96541   3.088   5.175   1.335  0.7033  0.4474  0.1681
  716MOL0     N96542   3.071   5.053   1.429 -0.0948 -0.2598  0.2887
  716MOL0     C96543   2.987   4.946   1.409  0.3273  0.8610  0.2586
  716MOL0     C96544   2.967   4.881   1.528 -0.0680 -0.5212  0.0610
  716MOL0     C96545   2.882   4.758   1.558 -0.3884 -0.4242  0.2189
  716MOL0     C96546   2.976   4.650   1.596  0.2674  0.1190 -1.0180
  716MOL0     C96547   3.062   4.606   1.487  0.2546 -0.0061  0.4945
  716MOL0     C96548   3.129   4.474   1.514  0.8426  0.3662 -0.6744
  716MOL0     O96549   3.036   4.377   1.456  0.0901 -0.9370  0.8736
  716MOL0     C96550   3.095   4.274   1.391 -0.3366  0.3941 -0.1489
  716MOL0     C96551   3.174   4.188   1.467  0.1076 -0.2119  0.7173
  716MOL0     C96552   3.240   4.076   1.410 -0.2225 -1.1223  0.0622
  716MOL0     C96553   3.222   4.047   1.275 -1.3049 -0.4499 -0.3536
  716MOL0     C96554   3.294   3.931   1.209  0.7899  0.0055  0.3532
  716MOL0     O96555   3.311   3.956   1.073 -0.4631 -0.1582 -0.3098
  716MOL0     C96556   3.426   3.895   1.020  0.1159  0.2965  0.2783
  716MOL0     C96557   3.547   3.892   1.082 -0.3361  0.9277 -0.2348
  716MOL0     C96558   3.670   3.859   1.014  0.0232  0.3558  0.3727
  716MOL0     C96559   3.665   3.811   0.883 -0.6265 -0.4298 -0.1602
  716MOL0     O96560   3.788   3.779   0.829  0.1414 -0.1685 -0.0592
  716MOL0     C96561   3.789   3.699   0.709  0.1240 -0.6232 -0.5957
  716MOL0     C96562   3.927   3.652   0.685 -0.2705  0.2854  0.5398
  716MOL0     C96563   4.035   3.759   0.661 -0.6025 -0.1968  0.3017
  716MOL0     C96564   4.175   3.692   0.683 -0.1053  0.0026  0.7097
  716MOL0     C96565   4.286   3.790   0.678 -0.7663 -0.0684 -0.1198
  716MOL0     C96566   4.317   3.846   0.543 -0.7710  0.5532 -0.0873
  716MOL0     C96567   4.353   3.743   0.435 -0.7361 -0.6460  0.4718
  716MOL0     C96568   4.401   3.822   0.311  0.0633  0.4705  0.0167
  716MOL0    Cl96569   4.489   3.727   0.200  0.0985  0.5913  0.1798
  716MOL0     C96570   3.542   3.808   0.822 -0.8512  0.3033  0.9866
  716MOL0     C96571   3.431   3.859   0.884 -0.3191 -0.1272  0.1524
  716MOL0     O96572   3.336   3.834   1.269 -0.0989  0.2607 -0.6295
  716MOL0     C96573   3.155   4.143   1.195  1.0795 -0.1431  0.0573
  716MOL0     C96574   3.086   4.251   1.256  0.5786 -0.1366  0.4783
  716MOL0     N96575   3.061   4.933   1.614 -0.0203 -0.7508 -0.1179
  716MOL0     N96576   3.113   5.033   1.558 -0.5146 -0.2421 -0.1819
  716MOL0     C96577   4.123   4.925   0.924  0.5433  0.0883  0.5422
  716MOL0     C96578   4.242   4.887   0.867  0.1560  0.7136 -0.8894
  716MOL0     C96579   4.479   4.525   0.615  0.4082 -0.1722 -0.1315
  716MOL0     C96580   4.575   4.604   0.557 -0.2058  1.1926 -0.1929
  716MOL0     C96581   4.654   4.542   0.457  0.1561 -0.5572  0.2685
  716MOL0     C96582   4.634   4.412   0.413 -0.1344 -0.3204  0.8525
  716MOL0     O96583   4.705   4.373   0.300 -0.3179  0.0646  0.0817
  716MOL0     C96584   4.732   4.236   0.265 -0.0705 -0.6911  0.8416
  716MOL0     C96585   4.720   4.224   0.112  0.4394  0.9665  0.1196
  716MOL0     C96586   4.832   4.308   0.033  0.7419  1.1508  0.2858
  716MOL0     C96587   4.785   4.423  -0.055 -0.5644  0.2358 -0.6460
  716MOL0     C96588   4.679   4.387  -0.154 -0.4695 -0.2256 -0.3350
  716MOL0     C96589   4.589   4.358  -0.229 -0.3710 -0.4542 -0.5388
  716MOL0     C96590   4.533   4.338   0.469  0.5485  0.5421 -0.1674
  716MOL0     C96591   4.463   4.389   0.576  0.3050 -0.5516  0.5839
  716MOL0     C96592   4.346   4.295   0.624 -0.0453  0.4564  0.1039
  716MOL0     H96593   4.133   4.585   0.745  2.6778 -0.1689  0.2380
  716MOL0     H96594   3.929   4.672   0.847  1.2148 -2.1052  0.3810
  716MOL0     H96595   3.817   4.776   1.099  2.1055 -1.0466  1.1601
  716MOL0     H96596   3.954   4.862   1.155  1.3805  2.0340 -0.9376
  716MOL0     H96597   3.833   5.064   1.189 -0.2793  0.5231 -2.7493
  716MOL0     H96598   3.758   4.934   1.278  2.7721  1.2318  0.2651
  716MOL0     H96599   3.627   4.874   1.075  0.8264 -0.2623 -0.4329
  716MOL0     H96600   3.670   5.052   1.024  0.9819  2.8198  2.2712
  716MOL0     H96601   3.525   4.946   1.265  0.0564 -0.9055 -2.1199
  716MOL0     H96602   3.589   5.103   1.285  0.3991 -0.2514  1.7014
  716MOL0     H96603   3.418   5.173   1.106 -0.4897  0.7820  1.0769
  716MOL0     H96604   3.362   5.000   1.084  0.6754 -0.6858 -0.2643
  716MOL0     H96605   3.304   5.005   1.341 -0.1252 -2.2690 -2.4583
  716MOL0     H96606   3.371   5.168   1.336  0.6276  0.0773 -0.2846
  716MOL0     H96607   3.139   5.059   1.163  2.3032 -1.0292  0.4194
  716MOL0     H96608   3.189   5.230   1.151  0.7682  1.9816  0.4014
  716MOL0     H96609   3.124   5.264   1.387 -0.3840  0.4431  0.9548
  716MOL0     H96610   2.986   5.189   1.300  0.8086 -1.8644 -1.2990
  716MOL0     H96611   2.934   4.932   1.315  0.4237 -1.0787  0.4405
  716MOL0     H96612   2.816   4.782   1.642 -1.2432  0.6799 -0.7177
  716MOL0     H96613   2.824   4.743   1.466  0.5141  0.5495 -0.5366
  716MOL0     H96614   3.041   4.690   1.675  2.1592 -2.8611 -0.8746
  716MOL0     H96615   2.921   4.572   1.650  1.4869  0.4060  0.7375
  716MOL0     H96616   3.145   4.676   1.480  0.1110  0.1992  0.8480
  716MOL0     H96617   3.000   4.605   1.396 -1.2379 -0.5237  1.4726
  716MOL0     H96618   3.147   4.446   1.618  1.0703 -1.6694 -1.2127
  716MOL0     H96619   3.227   4.483   1.464  1.4617  2.9556  0.8379
  716MOL0     H96620   3.178   4.218   1.571  1.5272  2.2741  0.0359
  716MOL0     H96621   3.320   4.025   1.462  1.3781 -0.9690 -2.1412
  716MOL0     H96622   3.545   3.925   1.185 -1.0907 -1.6254  0.6323
  716MOL0     H96623   3.762   3.886   1.064  1.5393 -2.0551 -0.9670
  716MOL0     H96624   3.725   3.610   0.717 -3.8684  1.9649 -0.7180
  716MOL0     H96625   3.748   3.747   0.620  1.6998 -3.4142 -3.0078
  716MOL0     H96626   3.950   3.585   0.768  0.2888  0.5167  0.5772
  716MOL0     H96627   3.934   3.583   0.600 -0.1070 -1.6914  2.0768
  716MOL0     H96628   4.042   3.796   0.558 -1.1759 -0.0534  0.3087
  716MOL0     H96629   4.025   3.841   0.732  0.3018  0.4154 -0.2515
  716MOL0     H96630   4.189   3.612   0.609 -1.6670 -0.8280  1.2897
  716MOL0     H96631   4.170   3.640   0.779 -3.4962 -1.4358 -0.0900
  716MOL0     H96632   4.381   3.747   0.709  0.9942  1.0041 -3.5276
  716MOL0     H96633   4.263   3.876   0.742  1.4648 -0.1492  0.8850
  716MOL0     H96634   4.222   3.881   0.503 -0.7792 -0.8299 -1.3715
  716MOL0     H96635   4.402   3.915   0.540  0.1535 -0.5785 -2.2237
  716MOL0     H96636   4.266   3.683   0.405 -1.5082 -0.1932  1.7235
  716MOL0     H96637   4.433   3.679   0.472 -1.5592 -2.1768 -0.2990
  716MOL0     H96638   4.312   3.843   0.251 -1.8135 -1.6884  1.8791
  716MOL0     H96639   4.453   3.916   0.332  0.1382  0.6939 -1.0894
  716MOL0     H96640   3.555   3.766   0.723  0.4457  1.3534  0.6628
  716MOL0     H96641   3.337   3.867   0.830 -0.3422  0.1906  0.2360
  716MOL0     H96642   3.128   4.142   1.090  0.1843  4.0574  0.0633
  716MOL0     H96643   3.032   4.323   1.195  0.9715 -1.1114 -1.0706
  716MOL0     H96644   4.139   5.025   0.964  3.5800 -0.6018  1.2522
  716MOL0     H96645   4.323   4.959   0.866  1.6651 -0.8689  0.7848
  716MOL0     H96646   4.598   4.706   0.585  0.7147  0.8106  0.4655
  716MOL0     H96647   4.726   4.599   0.398 -0.8985 -0.0493 -0.5614
  716MOL0     H96648   4.666   4.160   0.309  4.2907 -3.2404  3.7028
  716MOL0     H96649   4.832   4.205   0.296 -0.4223 -1.7790  0.9653
  716MOL0     H96650   4.620   4.251   0.080  0.6010  0.4452 -0.8502
  716MOL0     H96651   4.721   4.116   0.090 -2.4350  1.0539 -0.7619
  716MOL0     H96652   4.863   4.233  -0.040 -5.2221 -0.1457 -1.4394
  716MOL0     H96653   4.918   4.329   0.098  1.1223 -3.6487  1.7415
  716MOL0     H96654   4.756   4.503   0.013  1.2025  0.6707 -0.3592
  716MOL0     H96655   4.875   4.461  -0.103  1.0834 -2.4873  0.0739
  716MOL0     H96656   4.509   4.326  -0.293  1.0067 -4.5398 -0.5120
  716MOL0     H96657   4.505   4.242   0.428 -1.1579  0.5591  0.8542
  716MOL0     H96658   4.246   4.339   0.633  0.6703  1.7069  3.5784
  716MOL0     H96659   4.333   4.201   0.571 -1.5774 -1.4917  3.5991
  716MOL0     H96660   4.376   4.271   0.726 -1.6377 -1.4933  0.1625
  717MOL0     O96661  11.389   7.833   4.347  0.3194 -0.8157  0.6340
  717MOL0     C96662  11.399   7.751   4.437 -0.5645  0.6906  0.2877
  717MOL0     O96663  11.513   7.690   4.471 -0.1481  0.2109 -0.1806
  717MOL0     C96664  11.634   7.745   4.458 -0.7232  0.1003 -0.5059
  717MOL0     C96665  11.737   7.654   4.466  0.6261  0.4758 -1.0142
  717MOL0     C96666  11.864   7.690   4.447 -0.1728 -0.5269  0.0504
  717MOL0     C96667  11.906   7.820   4.423 -0.4732 -0.1268 -0.5881
  717MOL0     O96668  12.041   7.844   4.392  0.0791  0.3080 -0.8396
  717MOL0     C96669  12.064   7.923   4.280 -0.4510  0.9046  0.1597
  717MOL0     C96670  12.213   7.967   4.271 -0.8455 -0.5303  0.7964
  717MOL0     C96671  12.297   7.852   4.218 -0.9761 -0.0007 -0.0608
  717MOL0     C96672  12.449   7.891   4.212  0.2411 -0.0145  0.0808
  717MOL0     C96673  12.528   7.796   4.127  0.4197 -0.1217 -0.8796
  717MOL0     C96674  12.680   7.821   4.158  0.0838 -0.2280  0.3853
  717MOL0     C96675  12.771   7.775   4.049  0.1169 -0.0500  0.4061
  717MOL0     C96676  12.910   7.790   4.086 -0.0710  0.4230  0.1344
  717MOL0     N96677  12.988   7.772   3.956 -0.7332  0.8188 -0.1297
  717MOL0     C96678  12.999   7.867   3.854  0.1265 -0.3039 -0.0038
  717MOL0     C96679  13.060   7.810   3.754  0.6778 -0.2075  0.6792
  717MOL0     C96680  13.102   7.884   3.618  1.1992  0.5397 -0.0248
  717MOL0     C96681  13.249   7.942   3.652  0.4136  0.3431 -0.2789
  717MOL0     C96682  13.307   7.998   3.531  0.0345 -0.3590  0.9062
  717MOL0     C96683  13.455   8.029   3.543 -0.2278  0.5979 -0.0227
  717MOL0     O96684  13.490   8.088   3.671  0.4100  0.4875 -0.3986
  717MOL0     C96685  13.574   8.026   3.759 -0.3225  0.2527  0.3322
  717MOL0     C96686  13.544   8.011   3.893  0.1261 -0.1716 -0.1397
  717MOL0     C96687  13.634   7.955   3.984  0.0912 -1.1749  0.6641
  717MOL0     C96688  13.756   7.901   3.949  0.1393  0.0074  1.3362
  717MOL0     C96689  13.845   7.841   4.040  0.3967 -0.6680 -0.9876
  717MOL0     O96690  13.975   7.808   4.005 -0.7320  0.1151 -0.9470
  717MOL0     C96691  14.058   7.723   4.078  0.4407  0.2439  0.1725
  717MOL0     C96692  14.017   7.630   4.175  0.4632 -0.1388 -0.5455
  717MOL0     C96693  14.111   7.550   4.237  0.1543 -0.6301  0.1042
  717MOL0     C96694  14.246   7.565   4.218 -0.1782  0.9472 -0.1216
  717MOL0     O96695  14.352   7.501   4.283 -0.1242  0.2360 -0.5405
  717MOL0     C96696  14.336   7.423   4.398  0.0549  0.3026 -0.8426
  717MOL0     C96697  14.477   7.391   4.458 -0.1718 -1.0371 -0.2222
  717MOL0     C96698  14.576   7.353   4.348  0.1045  0.2638  0.1312
  717MOL0     C96699  14.707   7.300   4.408  0.3936  1.1638  0.0376
  717MOL0     C96700  14.782   7.400   4.498 -0.4109  1.0133  0.0364
  717MOL0     C96701  14.917   7.347   4.535 -0.3147  0.5496  0.0843
  717MOL0     C96702  14.979   7.442   4.630  0.1834 -0.3971  0.0243
  717MOL0     C96703  15.128   7.416   4.653  0.1799 -0.2872 -0.2288
  717MOL0    Cl96704  15.187   7.561   4.748 -0.8216 -0.2764 -0.1613
  717MOL0     C96705  14.284   7.646   4.111 -0.1941  0.0914 -0.1865
  717MOL0     C96706  14.196   7.723   4.038  0.0591 -0.1590 -0.8221
  717MOL0     O96707  13.796   7.808   4.150 -0.9237 -0.6189 -0.6941
  717MOL0     C96708  13.793   7.909   3.813 -0.6335 -1.2976 -0.8603
  717MOL0     C96709  13.704   7.978   3.727  0.2618 -0.5600 -0.0586
  717MOL0     N96710  13.074   7.676   3.788  0.4325 -0.6988  0.5619
  717MOL0     N96711  13.032   7.657   3.906 -0.3897  1.0098  0.5770
  717MOL0     C96712  11.805   7.921   4.429  0.1086 -0.5876  0.1526
  717MOL0     C96713  11.671   7.883   4.445 -0.4051 -0.8192 -0.5477
  717MOL0     C96714  11.276   7.678   4.499  0.0195 -0.8079  0.0852
  717MOL0     C96715  11.301   7.557   4.575 -0.1778  0.1241 -0.1164
  717MOL0     C96716  11.194   7.483   4.621  0.2680  0.0680  0.0200
  717MOL0     C96717  11.062   7.523   4.602 -0.5141 -0.3359  0.7896
  717MOL0     O96718  10.982   7.444   4.667 -0.1115  0.1473  0.2727
  717MOL0     C96719  10.842   7.475   4.679  0.1972  0.4570  0.5687
  717MOL0     C96720  10.758   7.421   4.552  0.4553 -0.1331 -0.3186
  717MOL0     C96721  10.621   7.501   4.529  0.1909  0.0846  0.2502
  717MOL0     C96722  10.529   7.449   4.647  0.0709 -0.7247 -0.3864
  717MOL0     C96723  10.399   7.499   4.625 -0.3444  0.4372 -0.9711
  717MOL0     C96724  10.293   7.547   4.596 -0.2114 -0.2418  0.1894
  717MOL0     C96725  11.037   7.641   4.535  0.1863  0.3070  0.6339
  717MOL0     C96726  11.141   7.725   4.491  0.7483 -1.2055  0.6882
  717MOL0     C96727  11.092   7.856   4.429 -1.0262  0.1630  0.7177
  717MOL0     H96728  11.715   7.551   4.490 -0.5884  1.4689  2.7207
  717MOL0     H96729  11.935   7.608   4.451 -1.3043 -1.5971 -0.9344
  717MOL0     H96730  12.034   7.862   4.194 -0.3659  1.9044 -0.5996
  717MOL0     H96731  11.993   8.006   4.284 -1.7624 -0.1456 -0.7698
  717MOL0     H96732  12.227   8.002   4.373 -1.3422  0.1835  0.6297
  717MOL0     H96733  12.204   8.050   4.200 -4.8062 -2.6098 -1.5156
  717MOL0     H96734  12.261   7.823   4.118  3.0475  0.3796 -1.8110
  717MOL0     H96735  12.306   7.775   4.295  2.4625 -1.0437 -1.3004
  717MOL0     H96736  12.459   7.992   4.172 -0.2267  0.6633  1.5803
  717MOL0     H96737  12.496   7.906   4.310  5.7472 -2.1225 -1.8965
  717MOL0     H96738  12.501   7.693   4.151 -0.0294 -0.3092 -2.1099
  717MOL0     H96739  12.506   7.786   4.020  0.0972  0.3606 -0.8637
  717MOL0     H96740  12.696   7.929   4.167  0.2668 -0.4011  2.9074
  717MOL0     H96741  12.716   7.784   4.255 -0.7523  2.0648  1.6313
  717MOL0     H96742  12.748   7.831   3.957  0.8616  0.5231  0.5617
  717MOL0     H96743  12.764   7.669   4.022  1.7791  0.6813 -3.7939
  717MOL0     H96744  12.919   7.890   4.128  0.5737  0.6714 -0.5664
  717MOL0     H96745  12.941   7.723   4.167  1.9256  1.7732  0.5782
  717MOL0     H96746  12.951   7.964   3.855 -1.0276 -0.8597 -0.2830
  717MOL0     H96747  13.107   7.807   3.540  0.1352 -1.4527  1.7621
  717MOL0     H96748  13.024   7.958   3.599  0.0606  0.1005  2.5355
  717MOL0     H96749  13.237   8.019   3.730  0.6695 -0.3420  0.4463
  717MOL0     H96750  13.303   7.854   3.686  0.2748  0.3112 -0.1409
  717MOL0     H96751  13.252   8.090   3.505 -2.7589 -1.1668  3.3741
  717MOL0     H96752  13.302   7.929   3.447  0.0667 -0.2284  0.7955
  717MOL0     H96753  13.482   8.095   3.460 -0.4452  0.0089 -0.5782
  717MOL0     H96754  13.508   7.936   3.521 -2.4483 -0.9127  0.6800
  717MOL0     H96755  13.455   8.061   3.929 -0.7122 -1.1909 -0.7440
  717MOL0     H96756  13.616   7.957   4.091  1.1992  2.0267  0.8881
  717MOL0     H96757  13.914   7.607   4.201  1.1089 -1.1555  1.3547
  717MOL0     H96758  14.075   7.483   4.315  0.1072  1.2405  1.7862
  717MOL0     H96759  14.277   7.480   4.471 -1.8052  1.8366 -3.3675
  717MOL0     H96760  14.286   7.329   4.375 -0.3054  0.5476 -1.0664
  717MOL0     H96761  14.513   7.485   4.500  0.0521 -1.4366  0.5021
  717MOL0     H96762  14.462   7.312   4.532  0.3920  0.3096  1.3964
  717MOL0     H96763  14.538   7.269   4.288  2.1649 -3.1479  3.1390
  717MOL0     H96764  14.602   7.441   4.289  2.0426 -0.8210 -0.7513
  717MOL0     H96765  14.772   7.256   4.332 -1.3185 -2.0318  0.2358
  717MOL0     H96766  14.676   7.214   4.468 -2.4999  1.0370 -1.4788
  717MOL0     H96767  14.722   7.424   4.586 -0.3270  0.7260  0.1710
  717MOL0     H96768  14.808   7.485   4.434  0.3119  2.4372  2.1105
  717MOL0     H96769  14.912   7.246   4.576  0.0851 -0.9090 -3.1480
  717MOL0     H96770  14.981   7.342   4.447  5.0958 -1.5661  3.6719
  717MOL0     H96771  14.919   7.434   4.721 -0.6776 -2.1684 -0.6356
  717MOL0     H96772  14.973   7.543   4.588  0.2563 -1.0664 -1.6909
  717MOL0     H96773  15.137   7.317   4.699 -0.2780  0.2336  1.0048
  717MOL0     H96774  15.178   7.408   4.556 -0.1271 -2.8565 -0.2559
  717MOL0     H96775  14.391   7.658   4.091 -0.9911  1.4292 -5.2365
  717MOL0     H96776  14.229   7.798   3.967 -1.4681  0.4342 -0.9350
  717MOL0     H96777  13.892   7.877   3.782  1.1100  2.4562  0.2825
  717MOL0     H96778  13.748   7.966   3.628 -2.8246  3.5863 -2.2721
  717MOL0     H96779  11.854   8.018   4.426  0.5237 -0.3998  5.0357
  717MOL0     H96780  11.599   7.964   4.451 -1.0896 -1.3738 -1.1104
  717MOL0     H96781  11.398   7.519   4.605 -0.9240  1.0117  4.2443
  717MOL0     H96782  11.218   7.397   4.683 -0.8095  2.1159  3.5804
  717MOL0     H96783  10.834   7.583   4.689  0.5593  0.7175 -1.4957
  717MOL0     H96784  10.805   7.431   4.772 -0.3523 -0.4999 -0.0789
  717MOL0     H96785  10.729   7.316   4.554 -1.0705  0.2467 -1.0362
  717MOL0     H96786  10.815   7.454   4.464 -1.7510 -2.0052 -2.5940
  717MOL0     H96787  10.584   7.482   4.428  0.8669 -0.6316  0.1324
  717MOL0     H96788  10.633   7.609   4.538 -2.5459  0.3224  2.5135
  717MOL0     H96789  10.530   7.340   4.660  1.8932 -0.7030 -0.0974
  717MOL0     H96790  10.571   7.487   4.741 -0.8361  0.2526 -0.3592
  717MOL0     H96791  10.202   7.597   4.569  0.5349 -0.5055 -3.2796
  717MOL0     H96792  10.935   7.666   4.506  0.8829 -0.9681 -3.6509
  717MOL0     H96793  11.143   7.935   4.486 -2.7255  0.6462  1.6507
  717MOL0     H96794  11.111   7.869   4.322  1.4559  0.5381  1.1519
  717MOL0     H96795  10.986   7.870   4.456 -1.5995 -2.3132 -0.0103
  718MOL0     O96796   6.349   8.815   3.094 -0.6399  0.5179 -0.4940
  718MOL0     C96797   6.374   8.728   3.003  0.0902 -0.3117  0.5223
  718MOL0     O96798   6.494   8.717   2.932  0.4347  0.1381 -0.1717
  718MOL0     C96799   6.593   8.813   2.950  0.3423  0.3739 -0.3129
  718MOL0     C96800   6.693   8.796   3.049 -0.2643 -0.2654  0.7003
  718MOL0     C96801   6.784   8.905   3.076 -1.2277 -0.2637  0.0289
  718MOL0     C96802   6.780   9.020   2.996  0.5229 -0.4461 -0.2487
  718MOL0     O96803   6.873   9.125   3.017  0.3201 -0.0369 -0.5557
  718MOL0     C96804   6.887   9.154   3.157 -0.5514 -0.0565 -0.6154
  718MOL0     C96805   6.946   9.302   3.165  0.1360 -0.1699  0.0666
  718MOL0     C96806   6.860   9.425   3.152  0.5181 -0.3670 -0.4859
  718MOL0     C96807   6.756   9.415   3.033  0.2505  0.2089  0.5205
  718MOL0     C96808   6.654   9.531   3.022 -0.4619  0.0407 -0.3468
  718MOL0     C96809   6.568   9.543   2.898  0.5874 -0.1530  0.0152
  718MOL0     C96810   6.410   9.525   2.925 -1.0287  0.0900  0.5797
  718MOL0     C96811   6.383   9.378   2.949 -0.0728 -1.0067  0.1714
  718MOL0     N96812   6.245   9.347   2.920  0.5823  0.3911  0.3706
  718MOL0     C96813   6.198   9.216   2.922  0.3470 -0.4030 -0.7556
  718MOL0     C96814   6.064   9.228   2.901 -0.7180 -0.7999  0.7903
  718MOL0     C96815   5.975   9.102   2.900  0.2009  0.5721  0.1842
  718MOL0     C96816   5.845   9.120   2.829  0.4393  0.5319 -0.2353
  718MOL0     C96817   5.740   9.214   2.902  0.7394  0.2215  0.1353
  718MOL0     C96818   5.616   9.236   2.819  0.5142  0.7059 -0.0838
  718MOL0     O96819   5.548   9.113   2.820 -0.0986  0.9939  0.1796
  718MOL0     C96820   5.422   9.090   2.769 -0.2545  0.2361  0.4900
  718MOL0     C96821   5.358   8.965   2.799 -0.1579 -0.2441 -0.0327
  718MOL0     C96822   5.230   8.937   2.749 -0.8330  0.2000 -0.1783
  718MOL0     C96823   5.161   9.030   2.664  0.2107 -0.1934  0.1271
  718MOL0     C96824   5.016   9.017   2.616 -0.6144 -0.0404 -0.0345
  718MOL0     O96825   4.975   8.886   2.603  0.2702  0.6908 -0.5418
  718MOL0     C96826   4.876   8.860   2.524  0.5005 -0.4549  0.4386
  718MOL0     C96827   4.762   8.809   2.582 -0.0449 -0.1457  1.1210
  718MOL0     C96828   4.653   8.765   2.501  0.9892  0.6469  0.7419
  718MOL0     C96829   4.645   8.788   2.372  0.0031  0.7398  0.6222
  718MOL0     O96830   4.541   8.766   2.293  0.3940 -0.8771  0.5789
  718MOL0     C96831   4.406   8.738   2.345 -0.5366  0.5681  0.1658
  718MOL0     C96832   4.295   8.802   2.252  0.2011 -0.8299 -0.5575
  718MOL0     C96833   4.305   8.772   2.105 -0.0323 -1.0915 -0.2182
  718MOL0     C96834   4.241   8.882   2.010  1.0011 -0.9395  0.3766
  718MOL0     C96835   4.114   8.836   1.936 -0.3846  0.0609 -0.2741
  718MOL0     C96836   3.998   8.809   2.025 -0.0186 -0.8826  1.2345
  718MOL0     C96837   3.870   8.816   1.951  1.1337  0.2830  0.7728
  718MOL0     C96838   3.850   8.717   1.836 -0.4382 -0.5808 -0.0519
  718MOL0    Cl96839   3.845   8.556   1.901  0.1263  0.1792  0.7302
  718MOL0     C96840   4.757   8.840   2.312 -1.0755  0.0855  1.2938
  718MOL0     C96841   4.870   8.877   2.383 -0.6365  0.1978  0.6054
  718MOL0     O96842   4.958   9.122   2.585 -0.6397  0.0441 -0.0022
  718MOL0     C96843   5.228   9.160   2.644 -1.0369  0.0889 -0.6620
  718MOL0     C96844   5.355   9.183   2.693 -0.5538 -0.9920  0.1340
  718MOL0     N96845   6.035   9.365   2.881  0.3490  0.9124  0.1938
  718MOL0     N96846   6.141   9.435   2.886  0.6094  0.2349 -0.9258
  718MOL0     C96847   6.680   9.034   2.898 -0.9555  0.2425 -0.9204
  718MOL0     C96848   6.587   8.935   2.884 -0.7075 -0.8970  1.1266
  718MOL0     C96849   6.278   8.613   2.969 -0.0913  0.5001 -0.7788
  718MOL0     C96850   6.332   8.488   2.917 -0.0308  0.9542 -0.2526
  718MOL0     C96851   6.246   8.374   2.900 -0.4445 -0.8546  0.0751
  718MOL0     C96852   6.111   8.383   2.929 -0.5413  0.1899 -0.5941
  718MOL0     O96853   6.043   8.265   2.935  0.2607  0.4676  0.0892
  718MOL0     C96854   5.904   8.260   2.882 -0.7842  0.1043  0.6646
  718MOL0     C96855   5.908   8.247   2.730 -0.3725  0.6146 -0.7647
  718MOL0     C96856   5.965   8.111   2.691  0.1379  0.0318  0.1591
  718MOL0     C96857   6.014   8.103   2.546  0.4306  0.3238  0.9703
  718MOL0     C96858   6.130   8.179   2.525 -0.2646 -0.9441  0.9544
  718MOL0     C96859   6.232   8.244   2.505 -0.6817  0.4799  0.0485
  718MOL0     C96860   6.063   8.512   2.962  0.4918 -0.6645 -0.3422
  718MOL0     C96861   6.137   8.629   2.987  0.2258  0.2866  1.0726
  718MOL0     C96862   6.077   8.762   3.036  1.2030 -0.0232 -0.0096
  718MOL0     H96863   6.684   8.711   3.116 -4.5103 -1.2221 -0.7575
  718MOL0     H96864   6.855   8.905   3.158 -3.1829 -0.8494  1.8114
  718MOL0     H96865   6.796   9.150   3.217  0.7242 -0.1425  1.4300
  718MOL0     H96866   6.960   9.095   3.214 -0.5114  3.1250  2.9984
  718MOL0     H96867   7.009   9.311   3.076  0.3061 -0.2085  0.1839
  718MOL0     H96868   6.997   9.306   3.261 -0.1752  1.3235  0.1832
  718MOL0     H96869   6.921   9.515   3.136  1.2351  0.0238  3.3374
  718MOL0     H96870   6.795   9.451   3.236  3.7168 -1.3445  2.5608
  718MOL0     H96871   6.819   9.421   2.944  1.2697  1.9640  1.3043
  718MOL0     H96872   6.705   9.318   3.035 -0.6132  0.5468 -2.0113
  718MOL0     H96873   6.584   9.520   3.106  0.9176 -3.3236  0.4989
  718MOL0     H96874   6.709   9.625   3.031 -2.2998  1.1177  0.2443
  718MOL0     H96875   6.588   9.640   2.850  3.4548 -1.0945 -0.8962
  718MOL0     H96876   6.592   9.467   2.824  0.2396  0.2472 -0.5208
  718MOL0     H96877   6.367   9.548   2.828 -0.9360 -3.8310 -0.5643
  718MOL0     H96878   6.378   9.586   3.010  0.5576  0.0965  1.2077
  718MOL0     H96879   6.452   9.324   2.884  3.4228  0.1548  2.5580
  718MOL0     H96880   6.414   9.346   3.049  2.1148 -2.6053 -0.9374
  718MOL0     H96881   6.251   9.124   2.947 -0.0382 -0.7225 -1.1054
  718MOL0     H96882   6.023   9.009   2.867 -1.9484 -1.0117  1.2714
  718MOL0     H96883   5.953   9.085   3.006  1.5542 -1.3006  0.2252
  718MOL0     H96884   5.871   9.162   2.732 -0.4361 -0.6294 -1.0034
  718MOL0     H96885   5.797   9.024   2.809  3.5676 -0.9555 -1.1319
  718MOL0     H96886   5.787   9.310   2.924  2.5702 -0.2549 -1.4184
  718MOL0     H96887   5.708   9.171   2.997 -0.2360 -0.7737 -0.6113
  718MOL0     H96888   5.634   9.265   2.715  1.7836  3.8958  0.8881
  718MOL0     H96889   5.544   9.307   2.861 -2.8432 -0.0527 -3.8649
  718MOL0     H96890   5.402   8.885   2.858 -1.6306 -0.8167  0.3281
  718MOL0     H96891   5.170   8.852   2.781 -2.3490 -0.0637 -3.3746
  718MOL0     H96892   4.752   8.796   2.689  0.3505 -2.3681  0.9297
  718MOL0     H96893   4.579   8.712   2.560  0.8418  0.9455  0.8314
  718MOL0     H96894   4.400   8.629   2.351  3.0218 -0.1442 -4.0142
  718MOL0     H96895   4.403   8.770   2.449 -1.5256 -1.0403  0.6766
  718MOL0     H96896   4.195   8.783   2.291 -0.2511  0.5686 -0.9649
  718MOL0     H96897   4.305   8.911   2.253 -3.9688 -0.2816 -1.7556
  718MOL0     H96898   4.409   8.764   2.070  0.3352 -1.1816  0.8544
  718MOL0     H96899   4.268   8.672   2.082  1.7345 -1.2262 -2.9751
  718MOL0     H96900   4.314   8.917   1.935  0.1551 -0.8103 -0.4067
  718MOL0     H96901   4.211   8.972   2.065  0.2520 -1.6995  1.2278
  718MOL0     H96902   4.144   8.748   1.879 -1.5226  0.5253 -1.6554
  718MOL0     H96903   4.092   8.910   1.859 -0.3722  1.1432  0.7184
  718MOL0     H96904   4.010   8.710   2.069  1.0545 -0.9181  0.9035
  718MOL0     H96905   3.994   8.896   2.091 -2.0172 -0.7306  0.9664
  718MOL0     H96906   3.864   8.918   1.911  0.3468  0.6420  1.7842
  718MOL0     H96907   3.785   8.806   2.019 -0.3050 -3.7038 -1.2499
  718MOL0     H96908   3.751   8.730   1.792 -1.1283  0.3959  1.7119
  718MOL0     H96909   3.918   8.732   1.751 -1.8239 -2.4594 -1.5553
  718MOL0     H96910   4.768   8.829   2.205  1.9427 -2.6470  1.7265
  718MOL0     H96911   4.957   8.918   2.333 -0.3387  0.4108  1.2747
  718MOL0     H96912   5.197   9.243   2.581 -1.7084 -1.5131 -2.5603
  718MOL0     H96913   5.409   9.276   2.680  0.8679 -1.5919  1.4265
  718MOL0     H96914   6.688   9.125   2.839 -0.9287  0.7649 -0.1257
  718MOL0     H96915   6.500   8.971   2.830 -0.6725 -1.4279  0.7034
  718MOL0     H96916   6.435   8.473   2.889 -0.7376 -1.3889 -1.8700
  718MOL0     H96917   6.305   8.288   2.868  1.8889  0.8228 -0.4087
  718MOL0     H96918   5.852   8.356   2.891 -1.6201 -0.3204  0.4335
  718MOL0     H96919   5.848   8.184   2.936 -0.5894 -0.4760  0.0589
  718MOL0     H96920   5.968   8.327   2.686  0.9709 -0.3770 -0.7863
  718MOL0     H96921   5.807   8.268   2.693  0.1850  0.9492 -2.1707
  718MOL0     H96922   5.880   8.044   2.704  0.4512 -1.0366 -2.5810
  718MOL0     H96923   6.036   8.076   2.766  1.4641  0.1199 -0.9997
  718MOL0     H96924   6.037   7.999   2.520  1.9530  0.7700  0.3936
  718MOL0     H96925   5.954   8.142   2.464  1.7624  1.4206  0.4729
  718MOL0     H96926   6.327   8.293   2.495 -0.9094  0.6448 -1.5630
  718MOL0     H96927   5.956   8.524   2.975  1.0736  2.2915  3.0625
  718MOL0     H96928   6.138   8.847   3.006  0.8207 -0.1577 -1.2554
  718MOL0     H96929   5.981   8.787   2.990  0.4844  1.8473  2.3500
  718MOL0     H96930   6.066   8.754   3.144  2.9787  0.9484  0.2824
  719MOL0     O96931   9.796   4.376   0.597 -0.3514 -0.8661 -0.0520
  719MOL0     C96932   9.754   4.378   0.481 -0.6671  0.1418 -0.1502
  719MOL0     O96933   9.803   4.469   0.384  0.0563 -0.1041  1.0084
  719MOL0     C96934   9.873   4.582   0.409  0.5377  1.2707  1.0634
  719MOL0     C96935   9.961   4.617   0.310  0.1739 -0.6238 -0.2399
  719MOL0     C96936  10.045   4.729   0.332 -0.7115  0.2009 -0.5226
  719MOL0     C96937  10.038   4.819   0.441 -0.2368  0.1477 -0.8242
  719MOL0     O96938  10.127   4.919   0.473 -1.2288 -0.4908 -0.8948
  719MOL0     C96939  10.088   5.047   0.425 -0.3380 -0.3581  0.4583
  719MOL0     C96940  10.217   5.124   0.387  0.3111  0.1137  0.2099
  719MOL0     C96941  10.304   5.138   0.521  1.3351 -0.2411  0.3205
  719MOL0     C96942  10.410   5.247   0.504  0.3775  0.0905 -0.2711
  719MOL0     C96943  10.497   5.283   0.632  0.4973  0.7645  1.1800
  719MOL0     C96944  10.593   5.389   0.575 -0.5561  0.0806  0.3531
  719MOL0     C96945  10.703   5.417   0.682 -0.1356  0.1390  0.2378
  719MOL0     C96946  10.829   5.462   0.622  0.4478  0.7544 -0.2051
  719MOL0     N96947  10.910   5.359   0.570 -0.3496 -0.2344  0.1117
  719MOL0     C96948  10.968   5.369   0.442  0.0911  0.8308 -0.4361
  719MOL0     C96949  11.032   5.248   0.429 -0.2845 -0.5808  0.4177
  719MOL0     C96950  11.111   5.211   0.306 -0.3782  0.7183  0.7317
  719MOL0     C96951  11.262   5.209   0.330 -0.1692 -0.0776 -0.5074
  719MOL0     C96952  11.336   5.149   0.210 -0.7581 -0.4877 -0.4716
  719MOL0     C96953  11.390   5.241   0.098  0.3065  0.4435 -0.2998
  719MOL0     O96954  11.439   5.374   0.126  0.0146  0.0117  0.7746
  719MOL0     C96955  11.558   5.384   0.187 -0.4052  0.1937  0.2088
  719MOL0     C96956  11.600   5.517   0.219 -0.6355 -0.0139 -0.5536
  719MOL0     C96957  11.733   5.537   0.266 -0.3101  0.0807  0.4152
  719MOL0     C96958  11.822   5.433   0.299  0.3003 -0.2711 -0.3221
  719MOL0     C96959  11.963   5.469   0.342  0.5472 -0.1458  0.1588
  719MOL0     O96960  12.011   5.585   0.286 -0.0965 -0.2036 -0.1496
  719MOL0     C96961  12.134   5.637   0.294 -0.1839 -1.1893 -0.3243
  719MOL0     C96962  12.150   5.772   0.274  0.3267 -0.0769  0.3269
  719MOL0     C96963  12.277   5.827   0.269 -0.4950 -0.3907 -0.1455
  719MOL0     C96964  12.392   5.751   0.266  0.2008 -0.0881  0.4044
  719MOL0     O96965  12.520   5.786   0.246 -0.3100  0.2321 -0.1171
  719MOL0     C96966  12.549   5.915   0.294 -0.1085  0.1820  0.1541
  719MOL0     C96967  12.708   5.916   0.316  0.2565  0.1984  0.5966
  719MOL0     C96968  12.763   6.038   0.388  0.0764  0.8638  0.4292
  719MOL0     C96969  12.701   6.066   0.526 -0.2240  0.9417  0.0771
  719MOL0     C96970  12.775   6.186   0.585  0.0581 -0.3004 -0.7302
  719MOL0     C96971  12.702   6.244   0.712  0.9298  0.1580  0.3156
  719MOL0     C96972  12.775   6.364   0.773  0.2094 -0.2059  0.0022
  719MOL0     C96973  12.699   6.390   0.904  0.9656 -0.3757 -0.3060
  719MOL0    Cl96974  12.812   6.429   1.045 -0.1236 -0.2950 -0.1474
  719MOL0     C96975  12.380   5.620   0.288  0.2634 -0.2904 -0.4683
  719MOL0     C96976  12.256   5.559   0.304  1.4519 -0.5567  0.1191
  719MOL0     O96977  12.028   5.397   0.419  0.4690 -0.6193  0.3602
  719MOL0     C96978  11.772   5.302   0.273 -0.4295  0.2326 -0.4830
  719MOL0     C96979  11.647   5.280   0.215 -0.4508 -1.5643 -0.2325
  719MOL0     N96980  11.000   5.165   0.527  0.4640  0.6505  0.5655
  719MOL0     N96981  10.928   5.227   0.600  0.6678 -0.1926  0.2326
  719MOL0     C96982   9.933   4.783   0.529  0.4714  0.9618 -0.7187
  719MOL0     C96983   9.845   4.675   0.509 -0.2074 -0.9248  0.3777
  719MOL0     C96984   9.656   4.271   0.433 -0.1015 -0.3122  0.0461
  719MOL0     C96985   9.648   4.246   0.298 -0.4192  0.0338 -0.3710
  719MOL0     C96986   9.566   4.149   0.237 -0.2712  0.1612  0.1299
  719MOL0     C96987   9.483   4.073   0.310  0.2469  1.4292  0.4923
  719MOL0     O96988   9.430   3.957   0.269  0.4551  0.6344 -0.1708
  719MOL0     C96989   9.474   3.881   0.157 -0.4270 -0.9081 -0.0336
  719MOL0     C96990   9.368   3.786   0.115  0.2127  0.2386 -0.1365
  719MOL0     C96991   9.246   3.863   0.072  0.1532 -0.0193 -0.6337
  719MOL0     C96992   9.159   3.777  -0.012 -0.9933  0.1463 -0.5714
  719MOL0     C96993   9.031   3.837  -0.037 -0.2702 -0.2236  0.0063
  719MOL0     C96994   8.937   3.904  -0.073  0.0883  0.2190 -0.1033
  719MOL0     C96995   9.479   4.099   0.447 -1.1036  0.4316  1.0680
  719MOL0     C96996   9.563   4.193   0.514 -0.3285 -0.1979  0.3669
  719MOL0     C96997   9.580   4.185   0.668  0.1506  0.2611  0.0104
  719MOL0     H96998   9.957   4.549   0.226  1.0457 -0.2129 -0.6247
  719MOL0     H96999  10.133   4.740   0.269  2.0141 -3.9986  2.0140
  719MOL0     H97000  10.012   5.045   0.347 -2.1127 -4.3807  2.0103
  719MOL0     H97001  10.033   5.098   0.505 -2.0831  1.6867 -1.8932
  719MOL0     H97002  10.197   5.222   0.342 -2.5200 -1.1456 -1.4756
  719MOL0     H97003  10.272   5.062   0.315 -0.9520 -1.7504  0.7916
  719MOL0     H97004  10.346   5.040   0.544  0.4100 -0.7147  0.0127
  719MOL0     H97005  10.249   5.166   0.611  0.6933 -4.9273  1.6524
  719MOL0     H97006  10.475   5.215   0.421  2.1549  5.1464 -1.2267
  719MOL0     H97007  10.364   5.344   0.483 -0.3956  0.3056  2.1168
  719MOL0     H97008  10.431   5.324   0.709 -1.2425  1.3277 -0.5237
  719MOL0     H97009  10.544   5.187   0.658  0.5862 -0.2316 -2.1969
  719MOL0     H97010  10.644   5.339   0.492 -0.7333 -1.3524  1.0648
  719MOL0     H97011  10.551   5.489   0.567  3.9279  2.1123 -0.8709
  719MOL0     H97012  10.710   5.340   0.759  0.7411 -1.0808 -1.0090
  719MOL0     H97013  10.658   5.500   0.738  0.0443  1.9613 -2.1440
  719MOL0     H97014  10.818   5.534   0.540 -2.4188  1.6046  0.7764
  719MOL0     H97015  10.872   5.518   0.706 -1.7016  0.6766  1.0320
  719MOL0     H97016  10.983   5.452   0.373  2.2575 -0.5108 -1.7165
  719MOL0     H97017  11.082   5.111   0.273  2.5142 -0.2224  0.7712
  719MOL0     H97018  11.091   5.282   0.226  1.1593  2.1169  1.5220
  719MOL0     H97019  11.291   5.314   0.337  0.4205 -0.3024  0.5974
  719MOL0     H97020  11.301   5.154   0.416 -1.5965  2.4542  1.9314
  719MOL0     H97021  11.286   5.069   0.155 -1.8517  1.3893 -2.4081
  719MOL0     H97022  11.428   5.112   0.255 -0.2079  0.1215 -1.0564
  719MOL0     H97023  11.312   5.252   0.022  0.0571 -1.1873 -0.3071
  719MOL0     H97024  11.464   5.185   0.040  1.5205 -2.1822  3.3858
  719MOL0     H97025  11.539   5.603   0.192  2.1596  1.3995 -2.9510
  719MOL0     H97026  11.758   5.641   0.282  1.2201  0.0305 -1.4051
  719MOL0     H97027  12.067   5.841   0.260  0.0766 -0.1280  1.4729
  719MOL0     H97028  12.289   5.935   0.265 -0.8781 -0.2191  2.3093
  719MOL0     H97029  12.523   5.986   0.215 -1.6676 -4.4203 -3.9849
  719MOL0     H97030  12.500   5.931   0.390  2.4879  0.2121  1.5904
  719MOL0     H97031  12.738   5.835   0.382 -1.6966  2.2511  4.3398
  719MOL0     H97032  12.750   5.905   0.215 -0.9409 -0.0738  0.1209
  719MOL0     H97033  12.872   6.034   0.403 -0.0411 -0.2426  1.1091
  719MOL0     H97034  12.741   6.111   0.309 -5.1561 -1.3723 -0.5826
  719MOL0     H97035  12.704   5.976   0.588  1.6646  1.4725  0.8038
  719MOL0     H97036  12.596   6.090   0.507  0.1413  1.1011 -1.9550
  719MOL0     H97037  12.798   6.267   0.516  2.5081  0.2130  0.5624
  719MOL0     H97038  12.876   6.161   0.619  0.3086 -0.0911 -1.3181
  719MOL0     H97039  12.609   6.287   0.673  1.3213 -1.1569 -2.3118
  719MOL0     H97040  12.684   6.161   0.781 -2.2138 -0.7344 -1.3311
  719MOL0     H97041  12.771   6.448   0.702  3.2398  0.1921  0.1564
  719MOL0     H97042  12.881   6.342   0.788  0.9317  2.4726 -0.5433
  719MOL0     H97043  12.626   6.472   0.898  2.3683  0.8105 -2.6644
  719MOL0     H97044  12.649   6.298   0.934  1.9856 -1.5700 -2.1074
  719MOL0     H97045  12.468   5.557   0.297  0.2628 -0.1687  0.5976
  719MOL0     H97046  12.243   5.452   0.318 -2.1374 -0.3582 -0.8361
  719MOL0     H97047  11.846   5.225   0.290 -0.1621  0.1851 -1.7200
  719MOL0     H97048  11.625   5.182   0.175 -0.2486 -1.9071  0.4788
  719MOL0     H97049   9.913   4.855   0.608  1.2604  0.9019 -0.4562
  719MOL0     H97050   9.775   4.639   0.582  2.7348 -2.0588  2.8603
  719MOL0     H97051   9.701   4.315   0.233  0.3018 -1.7829 -1.8357
  719MOL0     H97052   9.567   4.140   0.128  0.0983 -0.2860  0.1646
  719MOL0     H97053   9.562   3.830   0.197  0.5244  1.7488  1.4794
  719MOL0     H97054   9.485   3.943   0.068 -0.6818  0.0526  0.5893
  719MOL0     H97055   9.347   3.729   0.206  2.5810 -0.0817  0.2963
  719MOL0     H97056   9.396   3.706   0.046 -5.0559 -0.9705 -1.2679
  719MOL0     H97057   9.265   3.954   0.015 -0.5471  0.7698  0.3480
  719MOL0     H97058   9.195   3.887   0.166  3.4674  1.7113  0.8908
  719MOL0     H97059   9.228   3.760  -0.096  2.6287 -0.0041  2.1506
  719MOL0     H97060   9.150   3.680   0.036  2.0557 -0.2525 -0.6101
  719MOL0     H97061   8.849   3.966  -0.079  1.2976  1.9150 -1.4607
  719MOL0     H97062   9.415   4.032   0.504  0.0667 -2.5001 -0.8383
  719MOL0     H97063   9.542   4.271   0.724  0.4943  0.8283 -0.6218
  719MOL0     H97064   9.526   4.100   0.711  1.1437 -0.3246  0.1369
  719MOL0     H97065   9.684   4.161   0.693  0.6930  1.2315 -1.2175
  720MOL0     O97066   5.312   0.550   7.781  1.4426  0.2081  0.2389
  720MOL0     C97067   5.273   0.642   7.711 -0.9388  0.4838  0.3536
  720MOL0     O97068   5.359   0.710   7.635  0.2274 -0.0872 -0.4019
  720MOL0     C97069   5.477   0.646   7.593  0.4944  0.6608 -0.5138
  720MOL0     C97070   5.589   0.642   7.670  0.1801 -0.9307  0.1042
  720MOL0     C97071   5.694   0.562   7.629 -0.0107  0.7125 -0.4364
  720MOL0     C97072   5.701   0.499   7.506 -0.2483  0.3503 -0.6999
  720MOL0     O97073   5.809   0.430   7.455 -0.0511  0.3452  0.4231
  720MOL0     C97074   5.937   0.463   7.499 -0.0970  1.2224  0.5472
  720MOL0     C97075   6.044   0.371   7.433 -1.5964  0.7508 -0.4724
  720MOL0     C97076   6.190   0.391   7.479 -0.7348 -0.9473 -0.0944
  720MOL0     C97077   6.292   0.319   7.388 -0.4090 -0.2952  1.3055
  720MOL0     C97078   6.437   0.329   7.438  0.5696 -0.5727 -0.8555
  720MOL0     C97079   6.526   0.248   7.352  0.7420  0.0570 -0.8198
  720MOL0     C97080   6.642   0.181   7.431  0.4132  0.2814 -0.4203
  720MOL0     C97081   6.733   0.280   7.509  0.2596  0.7711  0.3983
  720MOL0     N97082   6.768   0.401   7.432  0.3903 -0.1634  0.6061
  720MOL0     C97083   6.728   0.529   7.468  1.3178 -0.2336 -0.2321
  720MOL0     C97084   6.777   0.619   7.369  0.7948  0.9435  0.7723
  720MOL0     C97085   6.753   0.769   7.370 -0.1707 -1.0747 -0.9999
  720MOL0     C97086   6.870   0.839   7.443 -0.3401  0.2393 -0.5446
  720MOL0     C97087   6.859   0.993   7.455 -0.4092  0.2411 -0.0250
  720MOL0     C97088   6.870   1.062   7.320  0.0096  0.2933  0.3819
  720MOL0     O97089   6.989   1.032   7.257  0.1536  0.0611  0.3827
  720MOL0     C97090   7.058   1.120   7.175 -0.6948  0.1237 -0.5406
  720MOL0     C97091   7.198   1.101   7.159  1.3644  0.9709 -0.4992
  720MOL0     C97092   7.269   1.176   7.061 -0.1477  0.2870  0.7131
  720MOL0     C97093   7.198   1.265   6.974  0.5715 -0.3189  0.5699
  720MOL0     C97094   7.282   1.348   6.884 -0.6563  0.4072  0.5889
  720MOL0     O97095   7.421   1.330   6.897 -0.5545 -0.1940 -0.8801
  720MOL0     C97096   7.498   1.397   6.810 -0.5754  0.1565 -0.5086
  720MOL0     C97097   7.532   1.539   6.825 -0.0293 -0.0472 -0.1029
  720MOL0     C97098   7.629   1.593   6.741 -0.6237 -0.2568  1.2727
  720MOL0     C97099   7.689   1.518   6.634 -0.2021  0.1672 -0.3826
  720MOL0     O97100   7.790   1.577   6.561  0.5435 -0.3505  1.3023
  720MOL0     C97101   7.841   1.505   6.447 -0.1752  0.3997 -0.4200
  720MOL0     C97102   7.928   1.605   6.371  0.2972  0.3137  0.0933
  720MOL0     C97103   7.949   1.561   6.226 -0.6221  0.4814  0.5090
  720MOL0     C97104   7.824   1.558   6.136  0.3460 -0.8949  0.4955
  720MOL0     C97105   7.864   1.579   5.988 -0.2079  0.0562 -0.2254
  720MOL0     C97106   7.899   1.724   5.937  1.5359 -0.0455  0.0223
  720MOL0     C97107   7.914   1.710   5.784 -0.3222  0.4807 -0.8541
  720MOL0     C97108   7.967   1.844   5.722 -0.0479  0.4671  1.5151
  720MOL0    Cl97109   8.135   1.867   5.777  0.6426  0.0406 -0.0047
  720MOL0     C97110   7.643   1.382   6.613 -0.1882 -0.4721 -0.7821
  720MOL0     C97111   7.558   1.324   6.703  0.0421  0.1766  0.5309
  720MOL0     O97112   7.231   1.414   6.796 -0.4928 -0.3403  0.2007
  720MOL0     C97113   7.055   1.273   6.985  0.4788 -0.3387 -0.1196
  720MOL0     C97114   6.989   1.208   7.088 -0.3601 -0.1601 -0.9213
  720MOL0     N97115   6.829   0.541   7.267 -0.2007  0.3915  0.5980
  720MOL0     N97116   6.826   0.416   7.310 -0.1306 -0.1918  0.4279
  720MOL0     C97117   5.582   0.501   7.431  0.2141 -0.7535 -0.5979
  720MOL0     C97118   5.474   0.585   7.471 -0.1517 -0.1544  1.1394
  720MOL0     C97119   5.136   0.678   7.711  0.2443 -0.0057  0.0533
  720MOL0     C97120   5.108   0.813   7.672  0.3108  0.3965  0.8284
  720MOL0     C97121   4.981   0.873   7.651 -0.0799  0.3368  0.3237
  720MOL0     C97122   4.872   0.785   7.685  0.2027 -0.8033 -0.3991
  720MOL0     O97123   4.738   0.820   7.674 -0.5615 -0.1036 -0.0310
  720MOL0     C97124   4.702   0.917   7.574 -0.1524 -0.1860  0.6560
  720MOL0     C97125   4.676   1.052   7.649 -0.3868 -0.5715 -0.2161
  720MOL0     C97126   4.533   1.061   7.710 -0.0145  1.0834 -0.1924
  720MOL0     C97127   4.524   1.187   7.801  0.3469 -0.3538  0.5335
  720MOL0     C97128   4.604   1.194   7.915 -1.1274  1.0185  0.1766
  720MOL0     C97129   4.681   1.192   8.012 -0.2566 -0.2052 -0.2147
  720MOL0     C97130   4.897   0.652   7.730 -0.4704  0.4126 -0.5588
  720MOL0     C97131   5.026   0.591   7.744 -0.1557 -0.0573  0.5734
  720MOL0     C97132   5.028   0.458   7.799  0.1171  0.9095  0.3609
  720MOL0     H97133   5.594   0.684   7.770 -0.2976 -2.7120  0.9108
  720MOL0     H97134   5.776   0.551   7.698  0.1386 -1.3503 -0.8714
  720MOL0     H97135   5.964   0.567   7.478  1.7760  0.7998  0.7189
  720MOL0     H97136   5.941   0.443   7.606 -0.2534  2.8010  0.8639
  720MOL0     H97137   6.042   0.413   7.332  0.9991  1.6583 -0.2291
  720MOL0     H97138   6.024   0.263   7.431 -0.4229  0.5059 -3.3006
  720MOL0     H97139   6.195   0.357   7.583  1.5031 -1.6692 -0.3922
  720MOL0     H97140   6.202   0.499   7.468 -0.4713 -1.2162 -3.5789
  720MOL0     H97141   6.257   0.215   7.378  0.2824 -0.3210 -3.2563
  720MOL0     H97142   6.278   0.368   7.291  0.4437  1.7499  2.1658
  720MOL0     H97143   6.479   0.427   7.462  1.3356 -0.9920 -0.4496
  720MOL0     H97144   6.435   0.274   7.532 -1.5858  1.1867  0.2281
  720MOL0     H97145   6.466   0.165   7.314  0.4842 -1.1936  2.0345
  720MOL0     H97146   6.561   0.306   7.266 -1.0082  2.1504 -0.2197
  720MOL0     H97147   6.709   0.123   7.367  0.1645 -1.5259  0.8784
  720MOL0     H97148   6.603   0.105   7.499 -0.1630  0.6531 -0.3312
  720MOL0     H97149   6.666   0.311   7.589 -1.8759  4.6880 -2.5281
  720MOL0     H97150   6.826   0.235   7.544  1.1924  2.6966  0.5606
  720MOL0     H97151   6.673   0.557   7.557 -0.9673 -0.3840 -1.5307
  720MOL0     H97152   6.745   0.806   7.267  1.6113 -3.1676 -1.9700
  720MOL0     H97153   6.667   0.801   7.429 -0.0354  0.4426 -1.5613
  720MOL0     H97154   6.875   0.795   7.542 -1.1032 -2.0694 -1.4795
  720MOL0     H97155   6.967   0.804   7.405 -1.3916 -4.1533  0.3406
  720MOL0     H97156   6.939   1.025   7.522 -1.6008  0.7500  1.2114
  720MOL0     H97157   6.760   1.013   7.499 -1.3851 -1.1650 -1.4491
  720MOL0     H97158   6.857   1.169   7.335 -2.0374  0.1850 -0.3760
  720MOL0     H97159   6.794   1.031   7.248  2.6103 -4.2173 -0.8791
  720MOL0     H97160   7.264   1.033   7.213 -1.1522 -4.1769 -3.1087
  720MOL0     H97161   7.374   1.150   7.057 -0.7562 -2.3099 -0.8731
  720MOL0     H97162   7.488   1.604   6.900 -1.1234  1.5512 -2.0260
  720MOL0     H97163   7.656   1.698   6.746  0.0446 -0.4773  2.5710
  720MOL0     H97164   7.881   1.408   6.479 -1.5594 -0.9347 -2.4895
  720MOL0     H97165   7.750   1.483   6.391 -1.2303  1.8549  0.6377
  720MOL0     H97166   7.883   1.705   6.369 -1.2127 -0.2663  1.8525
  720MOL0     H97167   8.027   1.625   6.413 -0.4622  0.9183  1.6883
  720MOL0     H97168   8.036   1.617   6.191  1.0666 -1.6680  1.0973
  720MOL0     H97169   7.992   1.461   6.219  0.7505  1.1316 -1.1306
  720MOL0     H97170   7.761   1.639   6.171  1.1635  1.3067 -2.7143
  720MOL0     H97171   7.768   1.464   6.143  0.9186 -1.4025 -1.2530
  720MOL0     H97172   7.782   1.544   5.924  2.7618 -2.2040 -3.1592
  720MOL0     H97173   7.944   1.507   5.968  0.0034 -0.7611  3.0270
  720MOL0     H97174   7.817   1.787   5.970 -1.7002 -3.2778 -1.1666
  720MOL0     H97175   7.989   1.755   5.991  1.3733  0.3355  0.0711
  720MOL0     H97176   7.820   1.689   5.732  0.3700 -0.5521 -1.7404
  720MOL0     H97177   7.990   1.635   5.761 -0.1545  0.0745  0.8722
  720MOL0     H97178   7.966   1.840   5.613  0.2615 -1.1238  1.5376
  720MOL0     H97179   7.911   1.932   5.754 -0.4056  0.7618  0.1541
  720MOL0     H97180   7.687   1.314   6.541  1.9252  0.2984 -0.2974
  720MOL0     H97181   7.544   1.216   6.696  0.5836  0.1936 -1.5505
  720MOL0     H97182   7.010   1.353   6.927 -0.7756 -0.1799  1.0314
  720MOL0     H97183   6.885   1.229   7.113  0.7008  1.1192  3.3640
  720MOL0     H97184   5.582   0.440   7.341  0.8094 -0.6999 -0.6377
  720MOL0     H97185   5.386   0.584   7.408 -0.8134 -0.0103  2.0437
  720MOL0     H97186   5.187   0.883   7.646  0.0416  0.2498 -0.4058
  720MOL0     H97187   4.980   0.978   7.624 -1.8772  0.4495  0.7339
  720MOL0     H97188   4.615   0.888   7.516 -0.2694 -1.2783  1.3561
  720MOL0     H97189   4.787   0.926   7.505  0.3075 -1.0159  1.0981
  720MOL0     H97190   4.689   1.127   7.570 -4.8315  0.7508  0.0662
  720MOL0     H97191   4.749   1.070   7.728  2.4734 -1.8528 -2.3668
  720MOL0     H97192   4.513   0.966   7.760  2.9620 -0.3912 -1.5173
  720MOL0     H97193   4.460   1.071   7.630 -0.2276 -0.7331 -0.2603
  720MOL0     H97194   4.563   1.269   7.740  1.5169 -0.1600  1.4941
  720MOL0     H97195   4.419   1.207   7.825 -0.0037 -1.8865  0.3363
  720MOL0     H97196   4.746   1.191   8.097  0.2976 -0.0908 -0.6345
  720MOL0     H97197   4.816   0.581   7.745  0.3655 -0.6205 -0.7229
  720MOL0     H97198   5.102   0.404   7.739 -1.7698 -1.5081  0.0590
  720MOL0     H97199   5.056   0.464   7.905  1.1728 -2.1704  0.3467
  720MOL0     H97200   4.933   0.406   7.790  1.5539 -1.5391 -2.1905
  721MOL0     O97201  10.779  10.676   0.492 -0.2972  0.0850  0.7741
  721MOL0     C97202  10.739  10.781   0.543 -0.9007 -0.1136 -0.0098
  721MOL0     O97203  10.820  10.884   0.590  0.4003  0.1134 -0.1561
  721MOL0     C97204  10.959  10.889   0.584 -0.3360  0.1184  0.3961
  721MOL0     C97205  11.033  10.931   0.695 -1.0886  0.2952  0.2983
  721MOL0     C97206  11.171  10.951   0.681  0.8779 -0.1834 -0.0621
  721MOL0     C97207  11.237  10.919   0.557  0.1033 -0.2455  1.6342
  721MOL0     O97208  11.374  10.922   0.552 -0.0975  0.1505 -0.1602
  721MOL0     C97209  11.442  10.884   0.678 -0.0707  0.4868 -0.4349
  721MOL0     C97210  11.587  10.846   0.659  0.2671  0.6392  0.8559
  721MOL0     C97211  11.602  10.726   0.562 -0.0100  0.0479  0.4977
  721MOL0     C97212  11.749  10.689   0.528 -0.4299  0.5338 -0.3975
  721MOL0     C97213  11.770  10.569   0.436 -0.1808  0.1030 -0.6962
  721MOL0     C97214  11.909  10.515   0.408  0.4624 -0.0016  0.1369
  721MOL0     C97215  11.903  10.400   0.303 -0.2998  0.4161  0.3955
  721MOL0     C97216  12.041  10.367   0.241 -0.0448 -0.4839 -0.2292
  721MOL0     N97217  12.136  10.320   0.347  0.2786  0.0184  0.4638
  721MOL0     C97218  12.270  10.359   0.352 -0.0785  0.0495 -0.6323
  721MOL0     C97219  12.312  10.321   0.476  0.2026 -0.1169 -0.3037
  721MOL0     C97220  12.446  10.342   0.545  0.3133 -0.5661 -0.1610
  721MOL0     C97221  12.552  10.249   0.499 -0.7361 -0.5050 -0.1499
  721MOL0     C97222  12.666  10.227   0.603 -0.2585  0.4693  0.2435
  721MOL0     C97223  12.644  10.100   0.688  1.0688 -0.3810  0.0633
  721MOL0     O97224  12.773  10.080   0.749 -0.1996 -0.0768 -0.0903
  721MOL0     C97225  12.797  10.128   0.871  0.5234 -0.2375  0.3647
  721MOL0     C97226  12.713  10.224   0.936 -0.2725  1.0959  0.4281
  721MOL0     C97227  12.739  10.260   1.068 -0.2159  0.1689 -0.4487
  721MOL0     C97228  12.866  10.234   1.122  0.4442  0.6520 -1.1264
  721MOL0     C97229  12.897  10.284   1.253 -0.3140 -0.6091 -0.0985
  721MOL0     O97230  12.811  10.359   1.317  0.8672  0.2428  0.2011
  721MOL0     C97231  12.821  10.400   1.454  0.3753 -0.9071  0.1637
  721MOL0     C97232  12.887  10.321   1.556 -0.0596 -0.6347  0.1622
  721MOL0     C97233  12.888  10.364   1.690 -0.8575  0.0991  0.1949
  721MOL0     C97234  12.827  10.486   1.730 -0.3912  0.0418  0.5815
  721MOL0     O97235  12.823  10.532   1.854 -1.1588 -0.1017  0.5474
  721MOL0     C97236  12.862  10.451   1.963 -0.1197  0.1188  0.6334
  721MOL0     C97237  12.865  10.519   2.091  0.0160  0.4251 -0.8526
  721MOL0     C97238  12.916  10.414   2.194 -0.0787  0.3131  1.0472
  721MOL0     C97239  12.959  10.477   2.323  0.0118  0.0121 -0.8478
  721MOL0     C97240  12.849  10.555   2.398 -0.5609  0.3388 -0.4153
  721MOL0     C97241  12.725  10.472   2.415  0.6769 -0.1120 -0.2202
  721MOL0     C97242  12.746  10.337   2.494 -0.0645  0.5372  0.3924
  721MOL0     C97243  12.628  10.241   2.478  0.7076 -0.2720  0.5101
  721MOL0    Cl97244  12.663  10.100   2.575  0.1883 -0.0222 -0.5913
  721MOL0     C97245  12.783  10.566   1.625 -0.1421 -0.2957 -0.5768
  721MOL0     C97246  12.781  10.527   1.492  0.5231  0.3778 -0.0774
  721MOL0     O97247  13.011  10.251   1.294  0.3382  0.1798  0.1022
  721MOL0     C97248  12.950  10.146   1.049 -0.0668 -1.0962  0.6006
  721MOL0     C97249  12.912  10.080   0.933  0.3072  0.4103  0.6019
  721MOL0     N97250  12.215  10.244   0.540 -0.1014  1.0032 -0.2811
  721MOL0     N97251  12.116  10.250   0.463 -0.0884 -0.6276  0.5593
  721MOL0     C97252  11.161  10.867   0.458 -0.4825  0.0885  0.3662
  721MOL0     C97253  11.025  10.855   0.471  0.3716 -0.3907  1.5342
  721MOL0     C97254  10.594  10.806   0.558  0.7256  1.0475  0.8950
  721MOL0     C97255  10.504  10.692   0.561 -1.1685  0.6976 -0.1608
  721MOL0     C97256  10.363  10.703   0.567  0.2446 -0.0135  0.6748
  721MOL0     C97257  10.307  10.825   0.577 -0.2000 -0.5732  0.1567
  721MOL0     O97258  10.169  10.834   0.576 -0.1051  0.2949 -0.1569
  721MOL0     C97259  10.106  10.939   0.646 -0.4573 -0.0047 -0.1413
  721MOL0     C97260   9.960  10.914   0.660  0.4325 -0.5375 -0.2303
  721MOL0     C97261   9.886  10.948   0.532 -0.2238 -0.3548 -0.6185
  721MOL0     C97262   9.728  10.931   0.569  0.2196  0.0072  0.4307
  721MOL0     C97263   9.654  11.054   0.529  0.0547 -0.1982  0.6074
  721MOL0     C97264   9.594  11.152   0.504 -0.3412 -0.2709  0.0145
  721MOL0     C97265  10.395  10.931   0.575  0.3518  0.0595 -0.7265
  721MOL0     C97266  10.532  10.931   0.571  0.9593  0.8815  0.2059
  721MOL0     C97267  10.590  11.064   0.564 -0.1995 -0.0574 -0.0216
  721MOL0     H97268  10.986  10.949   0.792 -2.4275 -0.7237 -0.1212
  721MOL0     H97269  11.221  10.986   0.771 -2.3458  1.7099  1.1536
  721MOL0     H97270  11.437  10.959   0.758 -0.7192  0.2889 -0.2858
  721MOL0     H97271  11.394  10.794   0.717  0.2334  0.1261 -0.8778
  721MOL0     H97272  11.631  10.822   0.756  0.6477 -3.3917 -0.1413
  721MOL0     H97273  11.644  10.931   0.619 -0.3065  0.5307 -0.2347
  721MOL0     H97274  11.550  10.745   0.468  2.2231 -0.3955 -0.9069
  721MOL0     H97275  11.557  10.648   0.624  0.9791  0.2384  1.4937
  721MOL0     H97276  11.795  10.768   0.468 -0.6376  1.6208  0.8338
  721MOL0     H97277  11.813  10.682   0.617 -2.3380 -0.1055  0.9840
  721MOL0     H97278  11.711  10.487   0.478  1.4878 -1.0328 -0.4496
  721MOL0     H97279  11.722  10.598   0.342  0.4930 -1.6100 -1.6276
  721MOL0     H97280  11.966  10.598   0.366  1.7214  0.1358  2.0274
  721MOL0     H97281  11.958  10.472   0.496 -2.5742  0.9974  2.4890
  721MOL0     H97282  11.844  10.412   0.211 -0.3136 -1.0145  0.1973
  721MOL0     H97283  11.855  10.316   0.354 -0.5985  0.9113  0.9468
  721MOL0     H97284  12.015  10.289   0.170 -3.6530  1.9843 -1.9441
  721MOL0     H97285  12.091  10.451   0.191  1.1000  0.3953  2.2161
  721MOL0     H97286  12.318  10.422   0.278  2.1158  0.6815  1.2006
  721MOL0     H97287  12.465  10.449   0.528 -0.3708 -0.5273 -0.7101
  721MOL0     H97288  12.418  10.322   0.649  2.3092 -0.9197  0.3545
  721MOL0     H97289  12.507  10.151   0.478  1.4005 -1.7690  0.8237
  721MOL0     H97290  12.594  10.284   0.404 -3.1367  1.8350 -0.4437
  721MOL0     H97291  12.667  10.320   0.660 -0.4323  1.6086 -1.5648
  721MOL0     H97292  12.754  10.215   0.540  0.6068  3.0530  0.8264
  721MOL0     H97293  12.602  10.011   0.639 -2.4906  0.3360  1.5148
  721MOL0     H97294  12.568  10.122   0.764  2.4539 -0.7846  1.6242
  721MOL0     H97295  12.628  10.276   0.894 -1.0443  1.9854  2.9408
  721MOL0     H97296  12.667  10.326   1.116  0.4975  1.7253 -1.4200
  721MOL0     H97297  12.934  10.224   1.539  2.0480  0.5095 -0.9872
  721MOL0     H97298  12.948  10.302   1.757 -0.5316  0.6578  0.4264
  721MOL0     H97299  12.793  10.366   1.959  0.8270 -0.6401  0.1639
  721MOL0     H97300  12.964  10.415   1.946  0.2872  1.9377 -1.0456
  721MOL0     H97301  12.940  10.596   2.074  2.8485 -2.3216 -1.8433
  721MOL0     H97302  12.777  10.565   2.136  0.6185 -0.2690  1.1039
  721MOL0     H97303  12.839  10.338   2.207 -2.7788  2.4764 -1.2117
  721MOL0     H97304  13.005  10.376   2.144 -0.9849 -0.6352  0.1071
  721MOL0     H97305  13.041  10.547   2.306  1.5438 -0.4961  3.3033
  721MOL0     H97306  12.985  10.400   2.396 -4.3547 -1.7834 -0.8337
  721MOL0     H97307  12.818  10.639   2.334 -0.1826  1.4249  0.7930
  721MOL0     H97308  12.886  10.599   2.491  1.1324 -0.9124 -0.4539
  721MOL0     H97309  12.650  10.522   2.477 -0.1769 -1.3174 -0.2487
  721MOL0     H97310  12.683  10.465   2.314 -1.0398  1.7048  0.2877
  721MOL0     H97311  12.754  10.351   2.602 -1.2948 -2.4940  1.0049
  721MOL0     H97312  12.829  10.278   2.454 -1.9925 -0.4369 -2.5284
  721MOL0     H97313  12.531  10.282   2.509  0.5367 -0.8074  0.6965
  721MOL0     H97314  12.625  10.216   2.372 -2.5586  1.6517  0.0084
  721MOL0     H97315  12.730  10.657   1.653 -0.5405 -1.2604  2.0339
  721MOL0     H97316  12.736  10.587   1.413 -0.6464 -1.6791 -1.0604
  721MOL0     H97317  13.047  10.119   1.087  0.0264 -0.8004  0.5764
  721MOL0     H97318  12.969  10.006   0.879 -1.5576 -0.1994 -0.6433
  721MOL0     H97319  11.207  10.837   0.364 -2.7111  2.4506 -1.6383
  721MOL0     H97320  10.962  10.815   0.393  0.1343 -0.6160  1.8372
  721MOL0     H97321  10.528  10.586   0.551 -0.6483  0.8985 -1.1497
  721MOL0     H97322  10.290  10.623   0.570  1.5027 -1.7002 -4.1928
  721MOL0     H97323  10.115  11.029   0.585 -3.1076  1.2262  1.1288
  721MOL0     H97324  10.162  10.948   0.740  2.3813  1.0760 -1.8058
  721MOL0     H97325   9.925  10.978   0.742  1.3394 -0.8587  0.4212
  721MOL0     H97326   9.943  10.810   0.691 -0.9790  0.1875  1.6608
  721MOL0     H97327   9.902  10.881   0.447 -1.3621  0.5245 -1.5555
  721MOL0     H97328   9.917  11.048   0.499  1.5946 -0.9119 -0.7228
  721MOL0     H97329   9.688  10.844   0.516 -1.9801 -1.8467  4.6371
  721MOL0     H97330   9.708  10.912   0.675 -0.1529  0.7301  0.4935
  721MOL0     H97331   9.540  11.243   0.490  0.4287  0.4164  1.3593
  721MOL0     H97332  10.359  11.031   0.598  4.4709  1.5739  0.1204
  721MOL0     H97333  10.515  11.142   0.583 -1.0649 -0.3838 -1.9150
  721MOL0     H97334  10.671  11.071   0.638  3.3209 -3.3997 -3.1479
  721MOL0     H97335  10.630  11.090   0.466 -2.6134  2.0382 -0.5508
  722MOL0     O97336   1.395   2.642   2.892  0.6141  0.3596  0.2746
  722MOL0     C97337   1.308   2.608   2.803 -0.3436  0.1265 -0.1042
  722MOL0     O97338   1.334   2.534   2.685  0.0798 -0.0176 -0.0889
  722MOL0     C97339   1.465   2.504   2.666 -0.8116  0.6809  0.3908
  722MOL0     C97340   1.486   2.369   2.654  0.4438 -0.7188 -0.1360
  722MOL0     C97341   1.619   2.326   2.614  0.2686 -0.2304 -0.7773
  722MOL0     C97342   1.710   2.420   2.588 -0.1744 -0.9291  0.1333
  722MOL0     O97343   1.835   2.386   2.537 -0.0916  0.4239 -0.2289
  722MOL0     C97344   1.875   2.427   2.403  0.5891  0.6787  0.6665
  722MOL0     C97345   2.017   2.401   2.366 -0.0893  0.2654  0.1956
  722MOL0     C97346   2.059   2.253   2.372  0.0343 -0.3331  0.3033
  722MOL0     C97347   2.196   2.238   2.305 -0.6703 -0.1826  0.4321
  722MOL0     C97348   2.235   2.102   2.270  0.0142  0.5723 -0.2535
  722MOL0     C97349   2.379   2.097   2.213  0.5034 -0.3882 -1.0410
  722MOL0     C97350   2.477   2.106   2.341  0.9085 -0.3074  0.8287
  722MOL0     C97351   2.619   2.150   2.306  1.6369 -0.6010 -0.4805
  722MOL0     N97352   2.696   2.170   2.432 -0.0642 -0.3662  0.0653
  722MOL0     C97353   2.785   2.074   2.473 -0.6109  0.4161  0.5231
  722MOL0     C97354   2.861   2.139   2.561  0.6484  0.5626  1.3556
  722MOL0     C97355   2.978   2.071   2.626  0.4238  0.4327 -0.1169
  722MOL0     C97356   2.946   1.949   2.709  0.4881 -0.9307 -0.3486
  722MOL0     C97357   3.067   1.889   2.787 -0.4939 -0.0279  0.1628
  722MOL0     C97358   3.114   1.764   2.700  0.0056  1.1953 -0.5283
  722MOL0     O97359   3.205   1.685   2.781  0.3809 -0.2654  0.0946
  722MOL0     C97360   3.335   1.730   2.785  0.1231 -0.5019  0.0234
  722MOL0     C97361   3.434   1.645   2.852  0.2519  0.1541  0.3037
  722MOL0     C97362   3.568   1.662   2.840  0.2484 -0.1361  0.0126
  722MOL0     C97363   3.612   1.782   2.777 -0.3203 -0.1295 -0.4761
  722MOL0     C97364   3.756   1.815   2.772 -0.8208  0.1748 -0.0344
  722MOL0     O97365   3.842   1.715   2.799  0.1513  0.4654  1.0610
  722MOL0     C97366   3.982   1.727   2.779  1.3203 -0.3118 -0.7020
  722MOL0     C97367   4.063   1.844   2.781  0.5318  0.1521  0.8032
  722MOL0     C97368   4.196   1.836   2.760 -0.0402  1.5727  0.1921
  722MOL0     C97369   4.262   1.716   2.757 -1.1763  0.0740 -0.1430
  722MOL0     O97370   4.395   1.718   2.748 -0.6096 -0.6569  0.9633
  722MOL0     C97371   4.468   1.594   2.778  0.1718 -0.3933 -0.1178
  722MOL0     C97372   4.620   1.616   2.785 -0.2817  0.1155  0.0008
  722MOL0     C97373   4.672   1.667   2.650 -0.9590  0.3930  2.0172
  722MOL0     C97374   4.814   1.721   2.666  0.2918 -0.2085  0.1736
  722MOL0     C97375   4.923   1.609   2.631  0.4610  0.1976  1.0961
  722MOL0     C97376   5.060   1.641   2.671 -0.3397 -0.8131  0.0515
  722MOL0     C97377   5.159   1.522   2.663  0.0712 -0.1678  0.0633
  722MOL0     C97378   5.297   1.544   2.735  0.3374 -0.8785  0.0048
  722MOL0    Cl97379   5.368   1.685   2.655 -0.5946 -0.4004  0.1121
  722MOL0     C97380   4.179   1.601   2.758  0.0924 -0.2690  0.1145
  722MOL0     C97381   4.043   1.603   2.767  0.4759  0.4281 -0.7676
  722MOL0     O97382   3.784   1.931   2.737  0.2258  0.7685  1.0713
  722MOL0     C97383   3.517   1.878   2.733  0.4168 -0.2645  0.1893
  722MOL0     C97384   3.381   1.849   2.734 -0.8203 -0.0932 -0.4373
  722MOL0     N97385   2.815   2.272   2.578 -0.6842  0.2617 -0.1755
  722MOL0     N97386   2.721   2.295   2.499  0.0337  0.3500  0.0256
  722MOL0     C97387   1.687   2.560   2.594 -0.5443  0.0174  0.5570
  722MOL0     C97388   1.567   2.597   2.639 -0.6944 -0.1733 -0.5940
  722MOL0     C97389   1.170   2.625   2.836  0.4623 -0.1652  0.8079
  722MOL0     C97390   1.132   2.722   2.922  0.4067  0.1084 -0.4395
  722MOL0     C97391   0.992   2.752   2.952  0.2416 -0.1113 -0.1222
  722MOL0     C97392   0.893   2.674   2.898  0.7838  0.4986  0.2780
  722MOL0     O97393   0.766   2.705   2.910  1.0657  0.3129  0.1303
  722MOL0     C97394   0.722   2.806   3.000  0.2046 -0.1465 -1.3096
  722MOL0     C97395   0.731   2.754   3.148 -0.0759 -0.1224 -0.1001
  722MOL0     C97396   0.641   2.840   3.230 -0.5033  0.7325  0.6642
  722MOL0     C97397   0.716   2.952   3.299 -0.0637 -0.7722  0.9724
  722MOL0     C97398   0.616   3.023   3.370 -0.4534  0.1753  0.1036
  722MOL0     C97399   0.523   3.070   3.427 -0.1793 -0.4926  0.8186
  722MOL0     C97400   0.928   2.563   2.822 -0.6155  0.7021  0.0607
  722MOL0     C97401   1.065   2.542   2.786  0.0918 -0.6210 -0.5418
  722MOL0     C97402   1.087   2.422   2.692 -0.1480  1.0875  0.8157
  722MOL0     H97403   1.407   2.296   2.667  0.0573 -0.0078  1.8411
  722MOL0     H97404   1.654   2.223   2.613  1.0179  0.0098 -2.2190
  722MOL0     H97405   1.805   2.366   2.344 -2.8170  1.8389  3.2177
  722MOL0     H97406   1.855   2.533   2.385 -2.3797 -0.3769 -4.1246
  722MOL0     H97407   2.086   2.462   2.425  1.0596 -1.0123  0.2279
  722MOL0     H97408   2.016   2.434   2.262 -2.0101  2.3003  0.7966
  722MOL0     H97409   1.987   2.200   2.310  1.1906 -0.3235 -1.0983
  722MOL0     H97410   2.048   2.215   2.474 -3.6605  0.1682  0.2373
  722MOL0     H97411   2.201   2.304   2.217 -3.2724  1.0365  1.0882
  722MOL0     H97412   2.265   2.283   2.377 -0.2814  0.4120 -0.2949
  722MOL0     H97413   2.228   2.031   2.354  1.2961  0.8106  0.0782
  722MOL0     H97414   2.164   2.069   2.194  0.6359 -0.5572 -0.3789
  722MOL0     H97415   2.387   2.001   2.162 -1.6605 -2.1461  1.6288
  722MOL0     H97416   2.398   2.185   2.150 -1.7194  2.4732  1.9006
  722MOL0     H97417   2.478   2.005   2.383  2.8669 -1.6431 -2.0479
  722MOL0     H97418   2.447   2.172   2.423  2.3689 -2.7550  3.5367
  722MOL0     H97419   2.668   2.067   2.254 -0.1346 -3.2701  1.7875
  722MOL0     H97420   2.604   2.247   2.257  0.2657 -0.6345 -0.1705
  722MOL0     H97421   2.783   1.972   2.435 -0.7637  0.9702 -1.0351
  722MOL0     H97422   3.042   2.033   2.547  0.7115 -2.7364  1.4974
  722MOL0     H97423   3.031   2.137   2.695 -3.1868  2.2500  1.1669
  722MOL0     H97424   2.881   1.993   2.785  0.1897  1.2370 -1.7620
  722MOL0     H97425   2.896   1.872   2.651  1.6028 -2.0248  0.0928
  722MOL0     H97426   3.042   1.848   2.885 -0.2907  0.1840  0.3054
  722MOL0     H97427   3.147   1.963   2.795 -1.3488  0.8540  0.6273
  722MOL0     H97428   3.166   1.785   2.606  0.9498 -2.5180 -0.9789
  722MOL0     H97429   3.025   1.704   2.683  0.0616  0.3977  1.6647
  722MOL0     H97430   3.400   1.557   2.905  1.8665 -0.6881 -0.0142
  722MOL0     H97431   3.635   1.585   2.878  0.4365 -0.2311 -0.5106
  722MOL0     H97432   4.018   1.941   2.799  1.4851  0.9525 -0.8808
  722MOL0     H97433   4.265   1.921   2.758  2.1186 -0.0948 -0.7044
  722MOL0     H97434   4.438   1.553   2.875  0.7956 -0.4638  0.0494
  722MOL0     H97435   4.449   1.513   2.707  0.5903 -0.1836 -0.4712
  722MOL0     H97436   4.660   1.671   2.870  0.3620  2.4063 -1.6944
  722MOL0     H97437   4.668   1.518   2.794  1.3422  1.0267  2.0103
  722MOL0     H97438   4.660   1.584   2.579 -1.3815  1.3116  0.9958
  722MOL0     H97439   4.609   1.747   2.612  0.1687  0.5040  0.2826
  722MOL0     H97440   4.834   1.773   2.760 -0.6972  0.9522 -0.2446
  722MOL0     H97441   4.819   1.808   2.600  4.9593  2.4423  3.3843
  722MOL0     H97442   4.905   1.609   2.523 -3.6883 -3.4750  1.4592
  722MOL0     H97443   4.891   1.507   2.656  0.3815 -0.9168 -2.9255
  722MOL0     H97444   5.080   1.725   2.604 -0.3196 -1.3554 -0.6335
  722MOL0     H97445   5.057   1.674   2.776  0.4446 -1.7660  0.3872
  722MOL0     H97446   5.175   1.504   2.556  0.6520  0.1487  0.0944
  722MOL0     H97447   5.113   1.439   2.717 -0.4630 -0.6939 -1.1496
  722MOL0     H97448   5.281   1.566   2.841  1.4199 -3.4886  0.7673
  722MOL0     H97449   5.358   1.455   2.724  2.1896  0.1079  1.6638
  722MOL0     H97450   4.214   1.499   2.768 -0.1380 -0.5759 -1.8264
  722MOL0     H97451   3.990   1.508   2.768  1.3053 -0.1437 -3.6170
  722MOL0     H97452   3.558   1.962   2.678 -0.8209  0.4552  0.3292
  722MOL0     H97453   3.322   1.928   2.687 -1.5413 -0.6423 -0.4707
  722MOL0     H97454   1.766   2.630   2.567 -0.4752 -1.2525 -3.0651
  722MOL0     H97455   1.543   2.698   2.671 -0.8761 -0.3061 -0.3096
  722MOL0     H97456   1.202   2.792   2.968  0.0979 -0.8647  1.6452
  722MOL0     H97457   0.972   2.842   3.010  0.5425  0.3040 -0.6597
  722MOL0     H97458   0.618   2.835   2.985  1.3280  5.7028 -0.2710
  722MOL0     H97459   0.783   2.897   2.994 -1.2352  1.2831  2.5035
  722MOL0     H97460   0.834   2.768   3.184  0.0352 -1.9135  0.3560
  722MOL0     H97461   0.712   2.647   3.157  0.3914 -0.0847  1.4882
  722MOL0     H97462   0.606   2.778   3.313  1.0111 -0.0529  0.7515
  722MOL0     H97463   0.560   2.885   3.172 -0.5434  0.6858  0.6840
  722MOL0     H97464   0.782   2.903   3.371  4.3780  1.6698 -1.0628
  722MOL0     H97465   0.775   3.016   3.233 -0.8927  1.9274  2.7007
  722MOL0     H97466   0.446   3.113   3.488  1.9816  0.6158  2.9304
  722MOL0     H97467   0.852   2.489   2.797  0.4627  0.5270 -3.1328
  722MOL0     H97468   0.992   2.388   2.651  0.4749  2.2012 -1.7546
  722MOL0     H97469   1.135   2.452   2.598 -0.4030 -1.4242 -0.1900
  722MOL0     H97470   1.136   2.333   2.733  0.0747  1.0390  0.4551
  723MOL0     O97471   7.110   9.353   6.182  0.6435 -0.2859  0.2901
  723MOL0     C97472   7.044   9.359   6.286 -0.6676  0.1299 -0.2999
  723MOL0     O97473   7.104   9.353   6.410 -0.7808 -0.7270  0.5523
  723MOL0     C97474   7.237   9.353   6.421  0.4251  0.3243  0.1284
  723MOL0     C97475   7.290   9.425   6.533  0.7253 -0.6792  0.3733
  723MOL0     C97476   7.416   9.417   6.570 -1.1160  0.4977 -0.4438
  723MOL0     C97477   7.505   9.351   6.475  0.2098  0.7261 -0.7874
  723MOL0     O97478   7.639   9.347   6.481 -0.1463  0.0444  0.6766
  723MOL0     C97479   7.710   9.384   6.594  0.0107 -0.4459 -0.6775
  723MOL0     C97480   7.862   9.363   6.572 -0.5285  0.6336 -0.4053
  723MOL0     C97481   7.880   9.219   6.516 -1.2229 -1.0209  0.3334
  723MOL0     C97482   8.030   9.188   6.514  0.8360 -0.9471  0.6151
  723MOL0     C97483   8.041   9.041   6.498 -0.2837  0.2289  0.6354
  723MOL0     C97484   8.176   9.003   6.434 -0.1270  0.3174 -0.1662
  723MOL0     C97485   8.208   9.042   6.289  0.1211  0.2523 -0.8994
  723MOL0     C97486   8.354   8.999   6.268  0.0804  0.5928  0.1998
  723MOL0     N97487   8.389   8.990   6.123 -0.3081  0.8115  0.2143
  723MOL0     C97488   8.433   8.877   6.063 -0.2139  0.1941  0.2468
  723MOL0     C97489   8.450   8.910   5.930  0.9868  0.1793 -0.3909
  723MOL0     C97490   8.489   8.813   5.833 -0.0937 -0.1673  0.3587
  723MOL0     C97491   8.622   8.857   5.776 -0.5459 -0.2501 -0.1542
  723MOL0     C97492   8.732   8.791   5.868 -0.6998  0.4344  0.1794
  723MOL0     C97493   8.870   8.849   5.826 -0.3947 -0.2520 -0.3806
  723MOL0     O97494   8.965   8.805   5.917 -0.1596 -0.0822 -0.0858
  723MOL0     C97495   9.097   8.852   5.910 -0.6118 -0.3271 -0.2402
  723MOL0     C97496   9.145   8.952   5.827  0.1667 -0.4396 -0.5011
  723MOL0     C97497   9.283   8.982   5.822 -0.3010  1.1977  0.6926
  723MOL0     C97498   9.374   8.913   5.907 -0.1342  0.9340  0.2907
  723MOL0     C97499   9.518   8.915   5.885 -0.2650  0.3726 -0.0568
  723MOL0     O97500   9.598   8.831   5.969  0.9128  0.6337  0.0275
  723MOL0     C97501   9.735   8.843   5.977  0.0718  0.3440 -0.4666
  723MOL0     C97502   9.801   8.728   6.027 -0.4031 -0.3545 -1.2360
  723MOL0     C97503   9.941   8.726   6.039  0.4049 -0.3563  0.6154
  723MOL0     C97504  10.019   8.842   6.015 -0.1043 -0.3236 -1.2095
  723MOL0     O97505  10.163   8.842   6.027  0.4438 -0.5016  0.5190
  723MOL0     C97506  10.234   8.968   6.008  0.2763  0.2951 -0.1432
  723MOL0     C97507  10.385   8.947   6.031  0.0292 -0.2473 -0.3104
  723MOL0     C97508  10.464   8.914   5.911 -0.0677  0.2336  0.3511
  723MOL0     C97509  10.593   8.843   5.941 -0.4768  0.6570 -0.0496
  723MOL0     C97510  10.710   8.840   5.834  0.8983  0.2341 -0.5497
  723MOL0     C97511  10.662   8.795   5.685  0.2176 -0.2311 -0.1324
  723MOL0     C97512  10.776   8.764   5.587  0.1277  0.1729 -0.0491
  723MOL0     C97513  10.873   8.668   5.635 -0.5351 -0.4477  0.2267
  723MOL0    Cl97514  10.954   8.608   5.497  0.4240  0.3484  0.0802
  723MOL0     C97515   9.958   8.958   5.964 -0.1701  0.0196  0.5073
  723MOL0     C97516   9.823   8.950   5.935  0.4244 -0.2276 -0.6545
  723MOL0     O97517   9.558   9.011   5.815 -0.0374  0.4492 -0.4821
  723MOL0     C97518   9.320   8.826   6.005 -0.2296 -0.3263 -0.1446
  723MOL0     C97519   9.183   8.793   6.006  0.5393  0.0982  0.7476
  723MOL0     N97520   8.410   9.044   5.917  0.0550 -0.6263 -0.0500
  723MOL0     N97521   8.383   9.093   6.037  0.2381  0.6725 -0.1007
  723MOL0     C97522   7.457   9.275   6.362 -0.2710  0.1424 -1.0394
  723MOL0     C97523   7.316   9.272   6.343 -0.7838 -0.1856 -0.5735
  723MOL0     C97524   6.905   9.405   6.280 -0.0632  1.3527 -0.3107
  723MOL0     C97525   6.855   9.480   6.383 -0.6097  0.1922 -0.7839
  723MOL0     C97526   6.717   9.526   6.397 -0.2704  0.1148 -0.8558
  723MOL0     C97527   6.620   9.485   6.301 -0.7916  0.0286 -0.0232
  723MOL0     O97528   6.484   9.524   6.302  0.4144  0.1164  0.1427
  723MOL0     C97529   6.430   9.639   6.364  0.2691 -0.1688 -0.7401
  723MOL0     C97530   6.410   9.621   6.512 -0.6547 -0.4201  0.3320
  723MOL0     C97531   6.467   9.742   6.592 -0.6498 -0.2923  1.0971
  723MOL0     C97532   6.387   9.882   6.573  0.1794 -0.8470  0.2439
  723MOL0     C97533   6.240   9.871   6.610  0.0018  0.3581 -0.3102
  723MOL0     C97534   6.122   9.873   6.635 -0.3908 -0.7462 -0.1529
  723MOL0     C97535   6.671   9.399   6.202 -0.6962  0.3587 -0.3218
  723MOL0     C97536   6.808   9.369   6.180  0.5434  0.2365  0.2831
  723MOL0     C97537   6.840   9.280   6.055  0.7284  0.0557 -0.9892
  723MOL0     H97538   7.217   9.477   6.594  0.2899 -1.2250  0.3249
  723MOL0     H97539   7.458   9.478   6.649 -0.6091  0.4124 -0.6398
  723MOL0     H97540   7.696   9.492   6.609  2.2554 -0.3694  1.5659
  723MOL0     H97541   7.678   9.328   6.682  0.2799  0.0511 -0.2536
  723MOL0     H97542   7.915   9.387   6.665 -1.7546  2.1295 -0.0629
  723MOL0     H97543   7.892   9.431   6.493  0.9687  4.8322  3.3559
  723MOL0     H97544   7.844   9.204   6.414 -0.0542 -2.8838  0.1472
  723MOL0     H97545   7.831   9.154   6.589  1.8385 -1.8062  1.8362
  723MOL0     H97546   8.069   9.246   6.429 -1.0773  2.7585  2.0346
  723MOL0     H97547   8.088   9.227   6.598  1.2070 -0.3724  0.1032
  723MOL0     H97548   8.049   8.986   6.592  3.0204 -0.8670 -0.1508
  723MOL0     H97549   7.972   8.993   6.427 -0.2685  0.7501  0.2593
  723MOL0     H97550   8.257   9.030   6.503  0.1712 -1.0896  0.0700
  723MOL0     H97551   8.178   8.893   6.426  0.0810  0.2380  0.8667
  723MOL0     H97552   8.196   9.150   6.280 -0.7989  0.3848  1.3074
  723MOL0     H97553   8.141   8.987   6.222 -0.2407 -1.7117  0.9494
  723MOL0     H97554   8.417   9.080   6.304  2.6744 -2.0035  2.0016
  723MOL0     H97555   8.367   8.899   6.312 -2.6379  0.1910  0.2361
  723MOL0     H97556   8.449   8.781   6.110  0.7246  0.5184  0.6228
  723MOL0     H97557   8.484   8.712   5.875  3.4367 -1.6378 -2.1960
  723MOL0     H97558   8.420   8.812   5.748 -1.0145  0.2008  1.0877
  723MOL0     H97559   8.630   8.829   5.671 -1.7854  0.9261 -0.5965
  723MOL0     H97560   8.627   8.967   5.775  0.4954 -0.2671 -2.3306
  723MOL0     H97561   8.726   8.685   5.839 -0.1655 -0.4083  2.8847
  723MOL0     H97562   8.721   8.800   5.977  1.5918 -3.3239  0.8937
  723MOL0     H97563   8.872   8.957   5.807  1.9496 -0.3660 -1.0521
  723MOL0     H97564   8.893   8.811   5.726 -1.0482 -1.7025 -0.0024
  723MOL0     H97565   9.085   9.013   5.761 -0.7738  0.9027  1.4798
  723MOL0     H97566   9.324   9.057   5.756 -1.0421 -0.1665 -1.4026
  723MOL0     H97567   9.746   8.639   6.057 -0.9780  0.2631 -0.4132
  723MOL0     H97568   9.983   8.638   6.088 -3.1561 -0.9187  2.9986
  723MOL0     H97569  10.211   9.006   5.908 -1.4363  0.3135  0.2123
  723MOL0     H97570  10.205   9.044   6.081  1.1253  1.3883 -0.9221
  723MOL0     H97571  10.433   9.041   6.062 -0.3406  0.4175 -1.6375
  723MOL0     H97572  10.405   8.871   6.106 -2.5011 -3.1337 -2.3296
  723MOL0     H97573  10.395   8.846   5.860 -0.9875  0.5178  1.1833
  723MOL0     H97574  10.478   9.006   5.853 -1.0139 -0.4125 -0.9552
  723MOL0     H97575  10.548   8.744   5.952  0.0721  0.2420 -1.3762
  723MOL0     H97576  10.624   8.882   6.038  0.6040  0.6446 -0.3784
  723MOL0     H97577  10.780   8.765   5.871  0.2187  0.6809  1.7876
  723MOL0     H97578  10.762   8.936   5.827  0.2535  0.5916 -0.5283
  723MOL0     H97579  10.601   8.705   5.681 -0.1368  0.0394 -2.8195
  723MOL0     H97580  10.602   8.878   5.645  1.3186  0.9950  0.6768
  723MOL0     H97581  10.824   8.856   5.553 -5.2707  3.6375  0.5347
  723MOL0     H97582  10.724   8.717   5.503 -0.8505 -0.6883  1.0063
  723MOL0     H97583  10.941   8.708   5.711 -1.6246 -0.2665  1.1253
  723MOL0     H97584  10.818   8.583   5.675 -0.6298 -0.0230  1.0167
  723MOL0     H97585  10.011   9.051   5.947  0.1738 -0.4285 -1.0531
  723MOL0     H97586   9.777   9.037   5.889 -3.3411 -2.5917 -1.7861
  723MOL0     H97587   9.385   8.772   6.073 -1.7318 -0.8499  0.9252
  723MOL0     H97588   9.146   8.704   6.056  0.4344  0.3969  1.1999
  723MOL0     H97589   7.528   9.235   6.291  0.6086  0.7343 -0.5188
  723MOL0     H97590   7.281   9.218   6.255 -0.8420  2.2705 -2.1601
  723MOL0     H97591   6.924   9.517   6.459 -1.4818 -1.8674  1.1123
  723MOL0     H97592   6.693   9.596   6.476  1.5051  2.5579 -2.3223
  723MOL0     H97593   6.331   9.659   6.323  0.0550  1.0041  0.2849
  723MOL0     H97594   6.503   9.719   6.354  1.1361 -0.4524  2.2090
  723MOL0     H97595   6.457   9.527   6.541  0.9776 -0.1011 -1.0712
  723MOL0     H97596   6.309   9.600   6.548 -0.4142 -1.9036  0.2012
  723MOL0     H97597   6.568   9.762   6.556 -0.9897  0.9354  0.7819
  723MOL0     H97598   6.472   9.722   6.699  1.0069  3.3923  1.8639
  723MOL0     H97599   6.443   9.956   6.631  1.5668  0.0525 -2.0995
  723MOL0     H97600   6.403   9.918   6.471  2.1433 -1.1253  0.4100
  723MOL0     H97601   6.022   9.884   6.672  0.1550 -0.7363  1.3811
  723MOL0     H97602   6.607   9.373   6.118 -1.3257 -1.4719  0.6812
  723MOL0     H97603   6.786   9.312   5.965 -0.2404  0.3635 -0.3116
  723MOL0     H97604   6.946   9.270   6.030  0.5315  2.1281 -2.9251
  723MOL0     H97605   6.808   9.178   6.078 -0.2263  0.8422  1.5734
  724MOL0     O97606  11.283  11.008   6.378 -0.1857  0.8886 -0.1434
  724MOL0     C97607  11.194  10.944   6.435  0.1315  0.2147  0.6579
  724MOL0     O97608  11.202  10.807   6.462 -0.3039  0.3786 -0.1813
  724MOL0     C97609  11.298  10.731   6.408 -0.2533 -0.6511  0.4990
  724MOL0     C97610  11.298  10.731   6.265 -0.0796  0.0450 -0.0922
  724MOL0     C97611  11.405  10.657   6.207  0.0509  0.0427 -0.1390
  724MOL0     C97612  11.505  10.594   6.281  0.5644  0.1417  0.3856
  724MOL0     O97613  11.617  10.535   6.222 -0.7128 -0.2652  0.4300
  724MOL0     C97614  11.737  10.509   6.295 -0.4555  0.8058  0.9274
  724MOL0     C97615  11.855  10.451   6.206  0.4265  0.7497 -1.0157
  724MOL0     C97616  11.833  10.329   6.123 -0.0352 -0.0029  0.2580
  724MOL0     C97617  11.746  10.217   6.175 -0.0254  0.7352  0.5579
  724MOL0     C97618  11.824  10.125   6.272  0.2457 -0.2004  0.3207
  724MOL0     C97619  11.730  10.024   6.341  0.3006  0.0932  0.2129
  724MOL0     C97620  11.656   9.928   6.241  0.4059  0.6612  0.0622
  724MOL0     C97621  11.555   9.834   6.314  0.3301  0.3558 -0.1335
  724MOL0     N97622  11.485   9.746   6.223 -0.1777 -0.3334 -0.1948
  724MOL0     C97623  11.369   9.787   6.154  0.6498  0.2896 -1.0598
  724MOL0     C97624  11.353   9.688   6.071 -0.1971 -0.0435  0.8085
  724MOL0     C97625  11.237   9.663   5.977  0.0744  0.7271 -0.2137
  724MOL0     C97626  11.107   9.662   6.039 -0.1323  0.3784 -0.0825
  724MOL0     C97627  11.069   9.554   6.148  0.0199 -0.5789  0.2261
  724MOL0     C97628  10.918   9.543   6.181  0.4493 -0.2439 -1.0162
  724MOL0     O97629  10.850   9.666   6.149  0.4012  0.2246 -1.0166
  724MOL0     C97630  10.713   9.661   6.192  0.2571  0.0485  0.0927
  724MOL0     C97631  10.664   9.595   6.307  0.3732 -1.1867 -0.1899
  724MOL0     C97632  10.528   9.603   6.343 -0.5192 -0.5059 -0.1432
  724MOL0     C97633  10.445   9.687   6.277 -0.1522  0.4769  0.0650
  724MOL0     C97634  10.299   9.697   6.314  0.3795 -1.3720 -0.2650
  724MOL0     O97635  10.251   9.590   6.388 -0.1278 -0.6263 -0.3821
  724MOL0     C97636  10.116   9.592   6.418 -0.5980 -0.9290 -0.5038
  724MOL0     C97637  10.025   9.575   6.314 -0.4218  0.5299 -0.5877
  724MOL0     C97638   9.892   9.577   6.355 -0.0123 -0.2461  0.2830
  724MOL0     C97639   9.847   9.577   6.491 -1.3064  0.3435  0.2627
  724MOL0     O97640   9.714   9.558   6.528 -0.1786  0.3425 -0.2077
  724MOL0     C97641   9.609   9.558   6.426  0.1819  0.3262  0.1002
  724MOL0     C97642   9.472   9.580   6.486  0.4937  0.9786 -0.1279
  724MOL0     C97643   9.413   9.452   6.555 -0.2474 -0.4375 -0.1376
  724MOL0     C97644   9.281   9.482   6.620  0.1031 -0.4917 -0.4926
  724MOL0     C97645   9.174   9.534   6.516 -0.1700 -0.0379 -0.8998
  724MOL0     C97646   9.028   9.536   6.573 -0.4034  0.0091  0.3175
  724MOL0     C97647   8.927   9.622   6.495  0.7421 -0.4085 -0.3853
  724MOL0     C97648   8.953   9.771   6.516 -0.6503  0.2891  0.9241
  724MOL0    Cl97649   8.955   9.823   6.691  0.4012  0.1086  0.0404
  724MOL0     C97650   9.947   9.574   6.592 -0.0763  0.4146 -0.1186
  724MOL0     C97651  10.074   9.595   6.549 -0.1453 -0.4050 -0.4991
  724MOL0     O97652  10.237   9.800   6.287  0.2925  0.0475  0.0823
  724MOL0     C97653  10.485   9.739   6.160 -0.5398  0.2479  1.0932
  724MOL0     C97654  10.622   9.735   6.118  0.9288 -0.0471  0.5587
  724MOL0     N97655  11.449   9.591   6.080 -0.3614  0.5679  0.7408
  724MOL0     N97656  11.532   9.626   6.170  0.4524 -0.4868 -0.9356
  724MOL0     C97657  11.492  10.592   6.426  0.5112  0.1439  1.2264
  724MOL0     C97658  11.390  10.661   6.485  0.3929 -0.8542 -0.0929
  724MOL0     C97659  11.083  11.023   6.489 -0.1330 -1.0599 -0.6050
  724MOL0     C97660  11.073  11.158   6.437 -0.1113  0.2369  0.8145
  724MOL0     C97661  10.986  11.250   6.483 -0.2625  0.8273 -0.0825
  724MOL0     C97662  10.892  11.222   6.584 -0.7031 -0.3267 -0.3564
  724MOL0     O97663  10.800  11.319   6.624  0.1958 -0.9313  0.6530
  724MOL0     C97664  10.710  11.315   6.738 -0.0872  1.1171 -0.4240
  724MOL0     C97665  10.684  11.464   6.759  0.2899  0.6741  0.2835
  724MOL0     C97666  10.574  11.499   6.859  0.1148 -0.9356  0.3863
  724MOL0     C97667  10.536  11.650   6.862 -0.2710 -1.0130 -0.1336
  724MOL0     C97668  10.449  11.680   6.974 -0.4235  0.8164 -0.5652
  724MOL0     C97669  10.361  11.704   7.052  0.0437 -0.4095 -0.8392
  724MOL0     C97670  10.895  11.093   6.636  0.4065 -0.2109  0.0659
  724MOL0     C97671  10.989  10.994   6.585  0.7520 -0.5541  0.5984
  724MOL0     C97672  10.973  10.864   6.656 -0.4958  0.5882 -0.4353
  724MOL0     H97673  11.213  10.770   6.210 -1.1397 -2.8695 -0.7005
  724MOL0     H97674  11.410  10.639   6.100  1.0395 -0.0110 -0.0889
  724MOL0     H97675  11.793  10.595   6.332  2.9895  0.5120 -2.9041
  724MOL0     H97676  11.720  10.436   6.374  0.9057  1.7691  2.1617
  724MOL0     H97677  11.945  10.429   6.263 -0.0593 -1.2907 -0.9656
  724MOL0     H97678  11.887  10.522   6.129  2.9013  0.6586 -0.1694
  724MOL0     H97679  11.934  10.299   6.093 -0.1094  0.7605 -0.8095
  724MOL0     H97680  11.792  10.363   6.027 -1.2976 -1.8944  0.0766
  724MOL0     H97681  11.652  10.246   6.223 -1.3446 -1.3568 -0.5962
  724MOL0     H97682  11.712  10.167   6.083  2.1792  0.0696  0.0374
  724MOL0     H97683  11.902  10.073   6.217  1.9016  1.8654  0.5771
  724MOL0     H97684  11.869  10.193   6.345  0.2678 -2.2693  2.3641
  724MOL0     H97685  11.802   9.967   6.399  0.8592 -0.8940 -1.3875
  724MOL0     H97686  11.652  10.074   6.400  0.5090  1.3009 -0.4972
  724MOL0     H97687  11.734   9.865   6.197  1.5356  1.4458  0.8756
  724MOL0     H97688  11.603   9.980   6.161 -0.2676 -1.2948 -0.8298
  724MOL0     H97689  11.606   9.775   6.391 -0.3356 -2.3470 -1.6149
  724MOL0     H97690  11.484   9.892   6.373 -0.2285 -1.3167  0.9177
  724MOL0     H97691  11.311   9.874   6.181 -0.6645 -0.2854 -1.9006
  724MOL0     H97692  11.242   9.726   5.888  2.6624 -2.1362 -2.3052
  724MOL0     H97693  11.251   9.567   5.927 -1.0377  0.3271  0.2099
  724MOL0     H97694  11.085   9.766   6.068  1.7063  1.4458 -2.2013
  724MOL0     H97695  11.044   9.641   5.952  0.1285 -3.3905  0.5033
  724MOL0     H97696  11.133   9.581   6.233  1.7302  1.7071 -1.6650
  724MOL0     H97697  11.093   9.457   6.103  1.5367 -1.5291  2.8554
  724MOL0     H97698  10.910   9.511   6.286 -2.0587 -4.1098 -2.1709
  724MOL0     H97699  10.883   9.460   6.119  1.8706  0.2740 -2.6090
  724MOL0     H97700  10.726   9.523   6.358 -0.5097 -0.3357  2.2087
  724MOL0     H97701  10.492   9.544   6.427 -0.0701 -3.2073 -1.7353
  724MOL0     H97702  10.077   9.575   6.219  2.2980 -3.5194  0.6313
  724MOL0     H97703   9.823   9.552   6.275  0.6700 -0.0931 -0.3557
  724MOL0     H97704   9.625   9.643   6.359 -1.2695  0.7497  0.2648
  724MOL0     H97705   9.604   9.464   6.370 -2.0149  1.2307 -1.3256
  724MOL0     H97706   9.469   9.664   6.556  0.8457  0.7699  0.1386
  724MOL0     H97707   9.394   9.602   6.412  0.8903  0.6214 -0.6525
  724MOL0     H97708   9.401   9.369   6.484  0.1697 -0.7729  0.1823
  724MOL0     H97709   9.488   9.420   6.628  1.7446  3.5394 -0.1964
  724MOL0     H97710   9.286   9.559   6.698  0.1118 -0.3303 -0.6508
  724MOL0     H97711   9.243   9.391   6.666 -2.8471  1.0598  0.4483
  724MOL0     H97712   9.174   9.467   6.430 -0.6456 -1.9642  0.5491
  724MOL0     H97713   9.199   9.638   6.493  3.0844 -0.0165  1.9740
  724MOL0     H97714   8.995   9.431   6.574  4.0252 -1.6111 -0.4872
  724MOL0     H97715   9.043   9.573   6.674  0.1820  0.6411  0.0073
  724MOL0     H97716   8.826   9.610   6.534 -0.1651  1.3831 -2.0503
  724MOL0     H97717   8.926   9.599   6.388  0.5432  1.6337 -0.8666
  724MOL0     H97718   9.054   9.794   6.480 -1.3040  1.7006 -0.1125
  724MOL0     H97719   8.886   9.828   6.451  2.6893  1.9785 -1.2861
  724MOL0     H97720   9.919   9.577   6.697 -1.3826 -1.9014 -0.3315
  724MOL0     H97721  10.153   9.617   6.619 -1.2514  0.2935  0.5633
  724MOL0     H97722  10.414   9.786   6.092 -1.1194 -3.3396 -1.0506
  724MOL0     H97723  10.653   9.782   6.025  2.4468  1.0480  1.5701
  724MOL0     H97724  11.560  10.544   6.495 -1.7900 -0.6773  3.0724
  724MOL0     H97725  11.388  10.659   6.593 -1.9853 -0.1876 -0.0792
  724MOL0     H97726  11.128  11.197   6.352 -3.0229  3.0097 -0.0093
  724MOL0     H97727  10.987  11.351   6.443  1.2333  0.7383 -0.2949
  724MOL0     H97728  10.759  11.275   6.827 -0.2819 -1.5458 -1.4246
  724MOL0     H97729  10.623  11.253   6.714  1.4617  0.1446 -4.3713
  724MOL0     H97730  10.642  11.499   6.664 -1.2961  1.1678  1.1336
  724MOL0     H97731  10.780  11.504   6.793 -0.1284 -0.2828  2.7943
  724MOL0     H97732  10.605  11.475   6.961  0.6734  1.1192  0.7377
  724MOL0     H97733  10.482  11.441   6.844  0.0877 -0.4683 -1.4734
  724MOL0     H97734  10.621  11.717   6.873 -0.9237 -0.0558 -0.8094
  724MOL0     H97735  10.484  11.676   6.770 -1.0305 -1.4635  0.1584
  724MOL0     H97736  10.285  11.726   7.125  0.4877  2.2248 -1.0752
  724MOL0     H97737  10.822  11.071   6.713 -1.3191  1.1089 -1.1318
  724MOL0     H97738  10.936  10.783   6.593 -0.7092  0.8237 -0.6186
  724MOL0     H97739  11.062  10.833   6.710 -1.0250  1.0739  0.7577
  724MOL0     H97740  10.897  10.871   6.735 -0.6022  1.0613 -0.5722
  725MOL0     O97741   5.510   2.136   6.520  0.4421 -0.1234 -0.6288
  725MOL0     C97742   5.434   2.221   6.565 -0.2981  0.1045 -0.5816
  725MOL0     O97743   5.452   2.297   6.673 -0.4817  0.0923  0.7562
  725MOL0     C97744   5.581   2.299   6.736  0.6066  0.9132  0.1165
  725MOL0     C97745   5.698   2.268   6.673  0.0309 -0.5641 -0.2805
  725MOL0     C97746   5.821   2.276   6.745  0.2756 -0.1409  0.2114
  725MOL0     C97747   5.827   2.312   6.882 -0.2583 -0.6174  0.5465
  725MOL0     O97748   5.945   2.320   6.936 -0.1920 -0.0474 -0.5389
  725MOL0     C97749   5.963   2.387   7.072 -0.2870 -0.4588  0.7107
  725MOL0     C97750   6.115   2.392   7.089  0.0177  0.2301 -0.2686
  725MOL0     C97751   6.158   2.456   7.213 -0.3894 -0.0697  0.0043
  725MOL0     C97752   6.313   2.473   7.226 -0.6638  0.3183  0.8636
  725MOL0     C97753   6.355   2.481   7.374  0.6483 -0.2060  0.0974
  725MOL0     C97754   6.318   2.612   7.441 -0.0193 -0.1794 -0.8539
  725MOL0     C97755   6.355   2.606   7.592 -0.2969 -0.0186 -0.4647
  725MOL0     C97756   6.280   2.705   7.682 -1.8373  0.5146 -0.7562
  725MOL0     N97757   6.308   2.673   7.828  0.3353  0.2641 -0.4201
  725MOL0     C97758   6.411   2.728   7.893  0.1303  0.3773 -0.0735
  725MOL0     C97759   6.391   2.692   8.023 -0.0090  0.0792 -0.0284
  725MOL0     C97760   6.492   2.693   8.136  0.3567  0.3154 -0.0888
  725MOL0     C97761   6.564   2.554   8.153 -0.1771  0.3886  1.2759
  725MOL0     C97762   6.682   2.540   8.057 -0.7436 -0.5264 -0.5294
  725MOL0     C97763   6.809   2.600   8.135 -0.4271 -0.1020  0.2119
  725MOL0     O97764   6.900   2.661   8.041  0.9697  0.5874 -0.1155
  725MOL0     C97765   7.032   2.687   8.074  0.3053 -0.2385  0.6387
  725MOL0     C97766   7.121   2.728   7.973 -0.0779 -0.0711  0.0959
  725MOL0     C97767   7.257   2.752   7.999 -0.0628 -0.1984 -0.3217
  725MOL0     C97768   7.303   2.745   8.128 -0.8011 -0.0649  0.0084
  725MOL0     C97769   7.452   2.766   8.157  0.9120  0.1321  0.4575
  725MOL0     O97770   7.517   2.837   8.063  0.3751 -0.4834 -0.2728
  725MOL0     C97771   7.646   2.872   8.091  0.0247 -1.1855 -0.0677
  725MOL0     C97772   7.686   3.003   8.060  0.1183 -0.3600 -0.8335
  725MOL0     C97773   7.814   3.057   8.085 -0.1560  0.4300 -0.1218
  725MOL0     C97774   7.916   2.972   8.132 -0.2507  0.2335  0.6087
  725MOL0     O97775   8.040   3.024   8.142  0.5748 -0.8109  0.3589
  725MOL0     C97776   8.125   3.002   8.027  0.3213 -0.5899 -0.7455
  725MOL0     C97777   8.250   3.092   8.066  0.5683  0.0313  1.2095
  725MOL0     C97778   8.375   3.067   7.981 -0.5106  0.2176 -0.6458
  725MOL0     C97779   8.376   3.135   7.852 -0.0131  0.1488 -0.5383
  725MOL0     C97780   8.509   3.105   7.774 -0.0368 -0.3055 -0.0849
  725MOL0     C97781   8.644   3.147   7.845 -0.0807 -0.2662 -0.0147
  725MOL0     C97782   8.717   3.036   7.918  0.0482 -0.4747 -0.4320
  725MOL0     C97783   8.819   2.957   7.829  0.6033  0.6113 -0.5543
  725MOL0    Cl97784   8.964   2.915   7.921  0.1435  0.1666  0.2131
  725MOL0     C97785   7.890   2.836   8.168 -0.0900  0.9485  0.0489
  725MOL0     C97786   7.753   2.790   8.138  0.2589  0.0257  0.6327
  725MOL0     O97787   7.495   2.742   8.265 -0.3647  0.1927  0.3807
  725MOL0     C97788   7.219   2.708   8.231  0.3756 -0.2699  0.5597
  725MOL0     C97789   7.088   2.688   8.207 -0.8141  1.0616  0.3982
  725MOL0     N97790   6.280   2.618   8.026  0.0168 -0.8433 -0.7109
  725MOL0     N97791   6.225   2.608   7.909 -0.4820  0.2963  0.0045
  725MOL0     C97792   5.704   2.351   6.939  0.0825  0.1267  0.3182
  725MOL0     C97793   5.580   2.346   6.868 -0.2447  0.8209  0.0069
  725MOL0     C97794   5.298   2.252   6.494 -0.2323 -0.3873  0.1864
  725MOL0     C97795   5.218   2.364   6.537 -0.3510 -0.6088  0.4921
  725MOL0     C97796   5.100   2.404   6.479 -0.6539 -0.7174  1.1364
  725MOL0     C97797   5.043   2.321   6.385 -0.1967  0.2406  1.6324
  725MOL0     O97798   4.914   2.357   6.344 -0.1731 -0.6865  0.5365
  725MOL0     C97799   4.853   2.299   6.231  0.2136  0.1605 -0.2361
  725MOL0     C97800   4.728   2.362   6.192 -0.2670  0.7596  0.8208
  725MOL0     C97801   4.753   2.495   6.121 -0.5638 -0.5807  0.8140
  725MOL0     C97802   4.617   2.566   6.075 -0.0569  0.5771  0.4310
  725MOL0     C97803   4.650   2.686   5.998  0.3217 -0.3323 -0.2141
  725MOL0     C97804   4.674   2.783   5.927 -0.3690  0.8861  1.1160
  725MOL0     C97805   5.110   2.198   6.349 -0.2621 -1.4007 -0.5462
  725MOL0     C97806   5.243   2.167   6.398  0.1874 -1.0652 -0.2652
  725MOL0     C97807   5.298   2.050   6.323 -0.7789  0.1927  0.8879
  725MOL0     H97808   5.706   2.237   6.569 -1.7281  1.9599 -1.2808
  725MOL0     H97809   5.913   2.257   6.690 -0.6721 -0.7785 -1.2081
  725MOL0     H97810   5.926   2.490   7.071 -0.5410 -0.5502  0.1310
  725MOL0     H97811   5.898   2.336   7.143 -1.4118 -0.7422 -0.4632
  725MOL0     H97812   6.166   2.438   7.004  0.0968 -0.9031 -0.8596
  725MOL0     H97813   6.151   2.289   7.078 -0.6409  0.0396 -0.7098
  725MOL0     H97814   6.109   2.408   7.299 -1.7337  1.7851  0.3296
  725MOL0     H97815   6.122   2.559   7.214  1.5665  0.6622 -0.9898
  725MOL0     H97816   6.367   2.388   7.183  0.1545  1.2553  0.0023
  725MOL0     H97817   6.345   2.560   7.168  3.2839  0.1516  2.4644
  725MOL0     H97818   6.302   2.410   7.439 -0.3063 -0.9355 -1.4060
  725MOL0     H97819   6.462   2.462   7.384  0.7021  1.3249  3.8219
  725MOL0     H97820   6.374   2.699   7.403 -2.7620  3.4565  2.5599
  725MOL0     H97821   6.214   2.634   7.414 -0.0618 -2.2941 -2.6577
  725MOL0     H97822   6.463   2.607   7.610 -0.5504 -1.3024  1.4431
  725MOL0     H97823   6.334   2.505   7.628  3.6594 -1.1676 -0.9542
  725MOL0     H97824   6.312   2.809   7.674  0.2113  0.0187  0.0520
  725MOL0     H97825   6.174   2.682   7.668 -1.5037 -3.9544  2.0196
  725MOL0     H97826   6.488   2.788   7.845 -1.1878  2.1620 -0.1004
  725MOL0     H97827   6.556   2.779   8.118 -0.9063  1.8219  2.1139
  725MOL0     H97828   6.432   2.710   8.227  0.8326 -1.7013  0.6696
  725MOL0     H97829   6.595   2.538   8.256  1.4611  0.4678  0.8255
  725MOL0     H97830   6.486   2.482   8.125 -1.9796  1.3167  3.5745
  725MOL0     H97831   6.653   2.582   7.961 -0.2426  0.0048 -0.4508
  725MOL0     H97832   6.694   2.435   8.026 -3.3542 -0.7869 -0.8260
  725MOL0     H97833   6.865   2.522   8.187  3.4373  2.2979  0.0010
  725MOL0     H97834   6.774   2.674   8.207 -0.4187  0.0727  0.0375
  725MOL0     H97835   7.088   2.740   7.870  0.4930  2.5959  0.1478
  725MOL0     H97836   7.321   2.784   7.918 -0.9631  1.5788 -0.4017
  725MOL0     H97837   7.608   3.069   8.025  0.0636  0.1270  0.1530
  725MOL0     H97838   7.839   3.157   8.051 -1.5716  0.6717 -0.5330
  725MOL0     H97839   8.140   2.894   8.023 -1.8660 -1.1675  2.7100
  725MOL0     H97840   8.079   3.027   7.931  1.3347 -1.5509 -1.5053
  725MOL0     H97841   8.230   3.198   8.084  3.3232  0.4728  2.2508
  725MOL0     H97842   8.292   3.061   8.163 -0.4780 -0.4419  1.5217
  725MOL0     H97843   8.461   3.110   8.034 -0.1458 -2.9676  1.6537
  725MOL0     H97844   8.410   2.964   7.971  1.9507  1.0685 -1.4538
  725MOL0     H97845   8.372   3.244   7.862  0.6352  0.1355 -0.0709
  725MOL0     H97846   8.292   3.099   7.792  0.3059  0.2012 -1.0212
  725MOL0     H97847   8.520   3.155   7.678 -1.0356 -1.4046 -0.8075
  725MOL0     H97848   8.512   2.999   7.749  1.9172 -0.7268  1.5980
  725MOL0     H97849   8.704   3.191   7.765 -3.0829 -0.2147 -2.4265
  725MOL0     H97850   8.627   3.235   7.908 -2.3080  0.3874 -1.3937
  725MOL0     H97851   8.654   2.970   7.978  0.8946 -1.0220 -0.1307
  725MOL0     H97852   8.775   3.087   7.995 -1.6984  0.8686  0.0705
  725MOL0     H97853   8.766   2.865   7.805  0.9630  0.3139 -0.2243
  725MOL0     H97854   8.846   3.011   7.737  0.6138  0.1286 -0.8370
  725MOL0     H97855   7.975   2.778   8.201 -0.7364  1.0281  2.0375
  725MOL0     H97856   7.747   2.682   8.148  0.9815 -0.8219 -4.8739
  725MOL0     H97857   7.250   2.693   8.334  1.8419  2.5552  0.6228
  725MOL0     H97858   7.021   2.669   8.291  1.4168 -2.2518  1.6291
  725MOL0     H97859   5.702   2.388   7.041  4.2107  0.7897  0.3605
  725MOL0     H97860   5.488   2.381   6.911  0.6544  3.9516 -0.3918
  725MOL0     H97861   5.261   2.432   6.610  0.1276 -2.6046  2.1921
  725MOL0     H97862   5.048   2.493   6.515  2.9590  1.3095  1.7847
  725MOL0     H97863   4.840   2.193   6.257  0.6651 -0.0821 -0.9932
  725MOL0     H97864   4.920   2.307   6.145  1.3415  0.0810  0.6161
  725MOL0     H97865   4.662   2.374   6.278 -1.0655  1.1695  0.1708
  725MOL0     H97866   4.683   2.303   6.112  0.3085  1.7350 -0.2577
  725MOL0     H97867   4.810   2.481   6.029  1.5230 -0.2164  1.9879
  725MOL0     H97868   4.812   2.562   6.184 -1.7867  2.0124 -0.6472
  725MOL0     H97869   4.562   2.497   6.010 -1.6306  1.1329  1.1015
  725MOL0     H97870   4.552   2.596   6.158  0.3956 -1.6868  1.6823
  725MOL0     H97871   4.707   2.872   5.878  2.4235 -0.2891  0.6150
  725MOL0     H97872   5.072   2.134   6.270  0.4241  0.0090 -2.0775
  725MOL0     H97873   5.230   1.965   6.329  1.1779 -1.6846 -1.5522
  725MOL0     H97874   5.301   2.068   6.215  1.1134  1.9956  1.1784
  725MOL0     H97875   5.395   2.007   6.349  0.2043  1.6215 -0.2019
  726MOL0     O97876   4.023   4.494   0.527 -0.8286  0.4702  0.1208
  726MOL0     C97877   3.977   4.601   0.488  0.0497  0.3028  0.5773
  726MOL0     O97878   3.842   4.636   0.508 -0.3565 -0.1209 -0.0036
  726MOL0     C97879   3.742   4.546   0.521  0.6373  0.7373 -0.2059
  726MOL0     C97880   3.656   4.561   0.633  0.3481  0.6671 -0.1150
  726MOL0     C97881   3.552   4.465   0.649 -0.2908  0.3282  0.0064
  726MOL0     C97882   3.528   4.364   0.549  0.1347 -0.3802 -1.0933
  726MOL0     O97883   3.429   4.270   0.568  0.1605  0.5628 -0.2179
  726MOL0     C97884   3.424   4.146   0.501  1.1350  0.0924  0.2790
  726MOL0     C97885   3.322   4.050   0.579  1.2119  0.2336  0.0355
  726MOL0     C97886   3.303   3.920   0.498 -0.2222  0.1352  0.1027
  726MOL0     C97887   3.426   3.845   0.454 -0.0221 -0.9308 -0.4975
  726MOL0     C97888   3.386   3.712   0.407  0.0228 -0.0764  0.3775
  726MOL0     C97889   3.320   3.621   0.515  0.3340 -0.5417 -0.2050
  726MOL0     C97890   3.280   3.479   0.482 -0.7300 -0.3339  0.1975
  726MOL0     C97891   3.218   3.393   0.588  0.4301  0.3728 -0.3494
  726MOL0     N97892   3.296   3.384   0.714  0.5240  0.2796  0.2735
  726MOL0     C97893   3.244   3.436   0.838 -0.5718 -0.5414  0.1548
  726MOL0     C97894   3.353   3.421   0.923  0.4583 -0.3836 -0.1344
  726MOL0     C97895   3.357   3.484   1.061 -0.1742  0.2446  0.1472
  726MOL0     C97896   3.351   3.378   1.167 -0.2157 -0.2628 -0.2129
  726MOL0     C97897   3.339   3.442   1.314 -0.0728  0.0645  0.3546
  726MOL0     C97898   3.345   3.325   1.418  0.7910 -0.0434  0.0244
  726MOL0     O97899   3.382   3.375   1.551  0.0110  0.1027  0.2803
  726MOL0     C97900   3.512   3.413   1.594  0.6047 -0.1093  0.3943
  726MOL0     C97901   3.524   3.466   1.722 -0.5755  0.3282 -0.5045
  726MOL0     C97902   3.641   3.534   1.768  0.5757  0.6285  0.2645
  726MOL0     C97903   3.738   3.558   1.678 -0.6870  0.8950 -0.1959
  726MOL0     C97904   3.857   3.628   1.724  0.1324 -0.7258 -0.0870
  726MOL0     O97905   3.932   3.676   1.620  0.2377 -0.1050  0.2457
  726MOL0     C97906   4.066   3.685   1.634 -0.2786 -0.8553  0.0989
  726MOL0     C97907   4.121   3.792   1.563 -0.4432  0.1374  0.2696
  726MOL0     C97908   4.256   3.826   1.572  0.5643 -0.0815  0.7908
  726MOL0     C97909   4.344   3.751   1.645 -0.5799 -0.1743  0.0397
  726MOL0     O97910   4.474   3.794   1.634  0.2963 -0.5392  0.1432
  726MOL0     C97911   4.577   3.731   1.717 -0.7961  0.2408  0.0130
  726MOL0     C97912   4.725   3.767   1.669  0.2273 -0.6465  0.1713
  726MOL0     C97913   4.768   3.914   1.698  0.3562 -0.3920 -1.5114
  726MOL0     C97914   4.916   3.931   1.673 -0.1703 -0.2500  0.1409
  726MOL0     C97915   4.944   4.082   1.693  0.3523 -0.3622  0.1179
  726MOL0     C97916   5.088   4.119   1.636  0.2359  0.6905 -0.0654
  726MOL0     C97917   5.094   4.099   1.484  0.7234  0.3121 -0.4033
  726MOL0     C97918   5.196   4.184   1.419  0.6010  1.2430 -0.4634
  726MOL0    Cl97919   5.140   4.353   1.430  0.5512  0.1450  0.1760
  726MOL0     C97920   4.297   3.637   1.708  0.6584 -0.1296  0.0230
  726MOL0     C97921   4.154   3.606   1.702  0.3446  0.3812  0.0028
  726MOL0     O97922   3.889   3.642   1.843 -0.0739 -0.1386  0.0022
  726MOL0     C97923   3.744   3.493   1.560 -0.4840 -0.5470 -0.1371
  726MOL0     C97924   3.634   3.423   1.520  0.5177 -0.1719  0.4845
  726MOL0     N97925   3.456   3.359   0.851  0.0883  0.7187  0.6892
  726MOL0     N97926   3.420   3.332   0.732 -0.6612  0.9933 -1.0584
  726MOL0     C97927   3.606   4.360   0.430 -0.1706 -0.0676 -0.9744
  726MOL0     C97928   3.718   4.448   0.428  0.3318  1.3470 -0.0068
  726MOL0     C97929   4.071   4.700   0.433  0.1250  0.0891  0.6740
  726MOL0     C97930   4.061   4.835   0.484 -0.3008  0.1494  0.0915
  726MOL0     C97931   4.163   4.918   0.447 -0.9611 -0.6654 -0.2310
  726MOL0     C97932   4.277   4.877   0.378  0.1939 -0.2826  0.3073
  726MOL0     O97933   4.384   4.949   0.341  0.0413 -1.0263  0.2619
  726MOL0     C97934   4.426   5.057   0.420 -0.9207  0.5533  0.8261
  726MOL0     C97935   4.573   5.088   0.400  0.0757  0.2483  0.1859
  726MOL0     C97936   4.664   4.968   0.386  0.0409  0.9843 -0.6438
  726MOL0     C97937   4.815   5.000   0.372 -0.3448 -1.0417 -0.5754
  726MOL0     C97938   4.899   4.880   0.379  0.1731 -0.2622  0.1599
  726MOL0     C97939   4.974   4.785   0.380  0.6047  0.2441 -1.0555
  726MOL0     C97940   4.280   4.757   0.311  0.1739 -0.6267  0.3497
  726MOL0     C97941   4.186   4.659   0.352 -0.3482  0.1305 -0.5043
  726MOL0     C97942   4.201   4.522   0.288 -0.8231 -0.6659  0.2864
  726MOL0     H97943   3.672   4.637   0.708 -1.2610 -0.9654  2.0307
  726MOL0     H97944   3.495   4.466   0.742 -2.2482  3.1972 -1.0801
  726MOL0     H97945   3.398   4.159   0.396  0.8765 -2.2012  0.0184
  726MOL0     H97946   3.520   4.095   0.492 -1.1163 -4.2608 -3.9419
  726MOL0     H97947   3.226   4.100   0.593  0.2415 -2.0311  2.1264
  726MOL0     H97948   3.357   4.042   0.682 -0.7218  0.7432  0.7708
  726MOL0     H97949   3.249   3.954   0.409  0.9690  0.8828 -0.3551
  726MOL0     H97950   3.229   3.860   0.552 -0.1082  0.7561  0.9640
  726MOL0     H97951   3.471   3.892   0.366 -0.0748 -0.3451 -0.2162
  726MOL0     H97952   3.503   3.840   0.531 -1.1578  0.0865  0.7550
  726MOL0     H97953   3.311   3.729   0.329 -0.8329 -2.5330  0.5849
  726MOL0     H97954   3.480   3.668   0.373 -0.7098 -0.2538 -1.5562
  726MOL0     H97955   3.382   3.619   0.605  2.7352 -0.4700 -1.7681
  726MOL0     H97956   3.222   3.666   0.534  0.3113 -0.3003 -0.8777
  726MOL0     H97957   3.366   3.417   0.453  0.2766  1.9070 -2.0125
  726MOL0     H97958   3.226   3.492   0.387 -0.7629 -2.0383 -0.0450
  726MOL0     H97959   3.123   3.434   0.621  0.8456 -0.6138  2.2394
  726MOL0     H97960   3.194   3.292   0.555 -0.3888 -0.0426  1.4095
  726MOL0     H97961   3.155   3.492   0.864 -0.6435 -1.3933  1.9030
  726MOL0     H97962   3.448   3.541   1.081  0.5512 -1.2375  1.3095
  726MOL0     H97963   3.270   3.544   1.090 -0.1150 -0.9934  3.3085
  726MOL0     H97964   3.269   3.306   1.152  0.8341 -1.0904 -2.5156
  726MOL0     H97965   3.444   3.323   1.153 -0.7749 -0.9777 -1.2450
  726MOL0     H97966   3.241   3.488   1.314 -0.0557  0.3120 -3.0749
  726MOL0     H97967   3.419   3.516   1.319 -0.5249  0.9691 -3.2344
  726MOL0     H97968   3.419   3.257   1.374 -0.8516 -0.5674 -2.0865
  726MOL0     H97969   3.246   3.281   1.423 -0.2000  1.9955 -0.3484
  726MOL0     H97970   3.441   3.471   1.792 -2.7117 -1.3830 -2.7411
  726MOL0     H97971   3.639   3.572   1.870  0.1030  1.3148  0.0034
  726MOL0     H97972   4.058   3.849   1.495  0.0836  1.3053  0.7334
  726MOL0     H97973   4.295   3.901   1.505 -1.7288  0.1383 -0.4134
  726MOL0     H97974   4.568   3.756   1.823  0.5262 -1.3054  0.5262
  726MOL0     H97975   4.572   3.621   1.713  2.7430 -0.2491  3.4189
  726MOL0     H97976   4.782   3.689   1.719 -1.3610 -2.1853 -0.3235
  726MOL0     H97977   4.728   3.758   1.560 -0.9126  0.5521  0.0054
  726MOL0     H97978   4.719   3.975   1.621 -0.2634  1.8587  0.5283
  726MOL0     H97979   4.742   3.943   1.801  1.9515 -1.8394 -0.6547
  726MOL0     H97980   4.944   3.893   1.575  3.6467 -2.4336  1.8545
  726MOL0     H97981   4.975   3.877   1.748  0.3119 -0.2830 -0.2630
  726MOL0     H97982   4.947   4.106   1.799  1.7499 -1.2880  0.3153
  726MOL0     H97983   4.862   4.141   1.651 -0.8402 -2.8703 -1.3140
  726MOL0     H97984   5.102   4.223   1.668 -1.7010  0.6834  1.0180
  726MOL0     H97985   5.159   4.056   1.690 -2.7149 -1.7137  1.2808
  726MOL0     H97986   4.996   4.130   1.446  1.0992  4.1554  1.3382
  726MOL0     H97987   5.107   3.991   1.470 -0.1551 -0.0682  1.4264
  726MOL0     H97988   5.298   4.165   1.452  0.8045  0.5023 -1.4779
  726MOL0     H97989   5.194   4.168   1.311 -1.6594  0.1153 -0.3114
  726MOL0     H97990   4.374   3.576   1.755  1.4890 -0.1397 -1.2643
  726MOL0     H97991   4.128   3.511   1.750 -2.5663  0.1071 -1.8578
  726MOL0     H97992   3.828   3.500   1.491 -0.9670  2.5483 -0.5594
  726MOL0     H97993   3.634   3.387   1.417  0.9713  1.1484  0.0013
  726MOL0     H97994   3.603   4.279   0.358 -0.3041  1.9149 -3.3720
  726MOL0     H97995   3.788   4.422   0.349  0.8732 -2.2075  1.4483
  726MOL0     H97996   3.976   4.875   0.538 -1.2400  2.7703 -3.0650
  726MOL0     H97997   4.171   5.021   0.481  1.4802 -0.7494 -0.3561
  726MOL0     H97998   4.410   5.035   0.526 -3.8486 -2.2158 -0.0272
  726MOL0     H97999   4.355   5.138   0.401 -3.2923 -0.6587  3.6869
  726MOL0     H98000   4.612   5.138   0.489  1.3528 -0.3460 -0.0105
  726MOL0     H98001   4.595   5.144   0.309  0.1308  1.8770  1.1750
  726MOL0     H98002   4.637   4.914   0.295 -1.4834  2.7912 -1.3151
  726MOL0     H98003   4.651   4.912   0.479  0.4942 -1.6198 -2.0626
  726MOL0     H98004   4.828   5.056   0.279 -0.8186 -1.4106 -0.8675
  726MOL0     H98005   4.844   5.073   0.449  1.7481 -2.0620 -0.3098
  726MOL0     H98006   5.055   4.715   0.371  1.6402  1.5162 -2.1156
  726MOL0     H98007   4.350   4.744   0.230 -0.4077  0.1081 -0.2989
  726MOL0     H98008   4.230   4.444   0.360  5.0071 -0.3891 -1.2603
  726MOL0     H98009   4.113   4.505   0.225  0.6009 -0.2853 -1.9015
  726MOL0     H98010   4.286   4.517   0.220  1.8357  2.6757  3.0022
  727MOL0     O98011  10.824   6.398   3.881  0.4661 -0.3324  0.0070
  727MOL0     C98012  10.898   6.380   3.978 -0.3091 -0.3314 -0.0201
  727MOL0     O98013  10.882   6.448   4.098  0.4914  0.2917 -0.0113
  727MOL0     C98014  10.768   6.525   4.105  0.6680  0.2080 -0.1764
  727MOL0     C98015  10.640   6.466   4.146  0.3249 -0.2100 -0.5221
  727MOL0     C98016  10.514   6.535   4.125 -0.3342 -0.4972 -0.5789
  727MOL0     C98017  10.518   6.672   4.083  0.4036 -0.1058  0.9704
  727MOL0     O98018  10.408   6.754   4.065 -0.6784 -0.0363  0.5067
  727MOL0     C98019  10.286   6.683   4.075  0.7366 -0.5396  0.3216
  727MOL0     C98020  10.165   6.763   4.030 -0.1193 -0.9370  0.0719
  727MOL0     C98021  10.115   6.862   4.140  0.1817 -0.1281  0.5758
  727MOL0     C98022  10.067   6.785   4.259 -0.0895 -0.8311 -1.3022
  727MOL0     C98023  10.030   6.884   4.379 -1.4536 -0.0322  0.0065
  727MOL0     C98024   9.952   6.823   4.496 -0.0001  1.0946  1.1173
  727MOL0     C98025  10.052   6.768   4.607 -0.9894  0.2922  0.2722
  727MOL0     C98026   9.963   6.735   4.728  0.0054 -0.4954  0.1063
  727MOL0     N98027  10.048   6.703   4.843 -0.3080 -0.0351 -0.4516
  727MOL0     C98028  10.138   6.599   4.852  0.2472 -0.5792  0.5550
  727MOL0     C98029  10.196   6.615   4.967  0.2403 -0.1174 -0.1980
  727MOL0     C98030  10.307   6.537   5.028 -0.2699  0.3220 -0.6244
  727MOL0     C98031  10.446   6.595   5.007 -0.4168  0.1912 -0.2493
  727MOL0     C98032  10.470   6.625   4.854  0.0577 -0.1199  0.5343
  727MOL0     C98033  10.456   6.515   4.746 -0.7167 -0.6646  0.7707
  727MOL0     O98034  10.558   6.419   4.753 -0.0369  0.5535 -0.9339
  727MOL0     C98035  10.678   6.456   4.700 -0.7705  0.3617 -0.6790
  727MOL0     C98036  10.786   6.486   4.789  0.6009  0.0422 -0.2423
  727MOL0     C98037  10.914   6.520   4.739  0.2456 -0.3266 -0.3330
  727MOL0     C98038  10.938   6.532   4.599  0.8335 -0.2571 -0.7454
  727MOL0     C98039  11.068   6.574   4.556 -0.5603  0.3624  0.2618
  727MOL0     O98040  11.174   6.584   4.650 -0.5395  0.3071  1.0571
  727MOL0     C98041  11.295   6.613   4.601  0.2330 -0.5516 -0.9347
  727MOL0     C98042  11.354   6.575   4.486  0.1208  0.8568 -0.8275
  727MOL0     C98043  11.484   6.603   4.448 -0.2902  0.1651 -0.2295
  727MOL0     C98044  11.570   6.668   4.535  0.7453  1.0993 -0.0236
  727MOL0     O98045  11.691   6.721   4.484  0.6112  0.4541 -0.1864
  727MOL0     C98046  11.791   6.782   4.561 -0.4017 -0.5444 -0.4114
  727MOL0     C98047  11.932   6.782   4.500 -0.0597 -0.7437 -0.0053
  727MOL0     C98048  12.041   6.822   4.601 -0.5853  0.1256  0.3897
  727MOL0     C98049  12.178   6.812   4.552  0.5254 -0.1644 -0.1889
  727MOL0     C98050  12.282   6.868   4.652 -0.4247 -0.3540  0.7073
  727MOL0     C98051  12.436   6.869   4.607 -0.2420  0.2500 -0.1961
  727MOL0     C98052  12.512   6.966   4.708  0.8351  0.2610 -0.1779
  727MOL0     C98053  12.542   7.101   4.643 -0.0017  0.7755  0.4102
  727MOL0    Cl98054  12.626   7.182   4.775 -0.0495 -0.3255  0.2284
  727MOL0     C98055  11.519   6.697   4.663  0.0368 -0.3726 -0.5731
  727MOL0     C98056  11.381   6.669   4.693  0.2488  0.3442  0.2095
  727MOL0     O98057  11.070   6.611   4.441 -0.2036  0.0503  0.2828
  727MOL0     C98058  10.829   6.498   4.514  0.2815 -0.0132  0.3655
  727MOL0     C98059  10.703   6.451   4.565 -0.3544 -0.3210  0.1695
  727MOL0     N98060  10.155   6.725   5.027  0.0610  0.2977 -0.4439
  727MOL0     N98061  10.074   6.791   4.947  0.3810 -0.6088 -0.0774
  727MOL0     C98062  10.637   6.735   4.059 -0.3863  0.6586 -0.0925
  727MOL0     C98063  10.758   6.663   4.063 -1.0083  0.0697  0.3052
  727MOL0     C98064  11.022   6.291   3.961  0.7759 -0.6445  0.6156
  727MOL0     C98065  11.019   6.193   3.858 -0.2906 -0.3617 -0.4490
  727MOL0     C98066  11.127   6.108   3.846  0.6649 -0.2570  0.5196
  727MOL0     C98067  11.235   6.112   3.931 -0.5566 -0.9998  0.0245
  727MOL0     O98068  11.340   6.022   3.919  0.7541  0.1493 -0.4899
  727MOL0     C98069  11.319   5.889   3.977  0.1358 -0.9625  0.9054
  727MOL0     C98070  11.334   5.783   3.867  0.6150 -0.8636  0.8522
  727MOL0     C98071  11.333   5.641   3.921 -0.1496 -0.3347 -0.8801
  727MOL0     C98072  11.204   5.602   4.001  0.7153  0.2472  0.5876
  727MOL0     C98073  11.220   5.463   4.031  0.6625  0.1976 -0.1493
  727MOL0     C98074  11.258   5.346   4.041  0.0724 -0.2694 -0.6302
  727MOL0     C98075  11.240   6.206   4.033 -0.3254  0.2362 -0.3223
  727MOL0     C98076  11.140   6.304   4.034  0.0054 -0.6449  0.1214
  727MOL0     C98077  11.162   6.417   4.130  0.1161 -0.9236 -0.0164
  727MOL0     H98078  10.621   6.366   4.184  0.1506 -0.3937 -1.0764
  727MOL0     H98079  10.424   6.489   4.164 -0.9304  0.8399 -0.3192
  727MOL0     H98080  10.296   6.595   4.011  4.9988  0.5886 -0.8792
  727MOL0     H98081  10.280   6.643   4.176  1.2524  0.2517  0.6758
  727MOL0     H98082  10.083   6.699   3.998 -2.7622  1.4094  1.7178
  727MOL0     H98083  10.189   6.814   3.937 -2.7231  0.8383  0.2591
  727MOL0     H98084  10.038   6.927   4.098 -0.3599 -0.8716  0.4100
  727MOL0     H98085  10.179   6.948   4.164  0.6278 -0.0593 -0.7577
  727MOL0     H98086   9.988   6.722   4.220 -0.5231  0.1972 -2.1228
  727MOL0     H98087  10.147   6.724   4.302  0.4495  0.8488  0.2623
  727MOL0     H98088  10.126   6.917   4.420 -0.6368 -1.9822 -0.2114
  727MOL0     H98089   9.983   6.978   4.350  1.5681  1.9549  1.0183
  727MOL0     H98090   9.882   6.898   4.535  0.6551  3.4392 -1.8267
  727MOL0     H98091   9.892   6.736   4.468 -1.0125  1.3328  2.4389
  727MOL0     H98092  10.131   6.837   4.637  0.1826 -0.9338  0.1557
  727MOL0     H98093  10.102   6.681   4.563 -0.8634  0.9595 -0.9316
  727MOL0     H98094   9.881   6.806   4.740 -1.1252 -1.8419  0.6771
  727MOL0     H98095   9.912   6.639   4.708  1.9240 -1.4721 -0.2836
  727MOL0     H98096  10.168   6.522   4.781  0.9716  0.2390 -0.0506
  727MOL0     H98097  10.278   6.522   5.133 -1.7475  1.5094 -0.8238
  727MOL0     H98098  10.292   6.436   4.989 -1.4356  0.2747 -0.0918
  727MOL0     H98099  10.453   6.689   5.062 -1.7784  0.6426 -0.7945
  727MOL0     H98100  10.525   6.534   5.051 -0.9052 -0.0532  0.2935
  727MOL0     H98101  10.566   6.674   4.840  0.6494 -1.2361  0.5985
  727MOL0     H98102  10.394   6.699   4.825 -1.0441 -1.4237 -0.0417
  727MOL0     H98103  10.459   6.555   4.644  3.6620 -1.1484  0.5059
  727MOL0     H98104  10.361   6.472   4.778 -0.9410  0.5945  1.8732
  727MOL0     H98105  10.750   6.472   4.891 -0.9658  1.5244 -0.5366
  727MOL0     H98106  10.995   6.538   4.810  1.1030  0.0863 -1.3887
  727MOL0     H98107  11.297   6.508   4.421  0.5881  0.8480 -1.2350
  727MOL0     H98108  11.522   6.563   4.354 -1.0368 -2.9361  0.6697
  727MOL0     H98109  11.764   6.886   4.578  1.5056  0.2185 -1.7663
  727MOL0     H98110  11.793   6.725   4.655  2.0859  0.0652 -0.0150
  727MOL0     H98111  11.952   6.679   4.470 -1.1114 -0.9053 -0.1915
  727MOL0     H98112  11.943   6.846   4.411 -1.3994 -1.4429 -0.7053
  727MOL0     H98113  12.031   6.925   4.635  1.1103  0.9003 -1.2825
  727MOL0     H98114  12.035   6.765   4.695  0.5573 -2.4502 -0.9856
  727MOL0     H98115  12.192   6.856   4.453  2.5592  0.7384  0.4412
  727MOL0     H98116  12.206   6.707   4.538 -1.2395 -0.9263  1.5295
  727MOL0     H98117  12.288   6.810   4.745 -1.8161  0.1519  1.1377
  727MOL0     H98118  12.246   6.969   4.678  1.5834  0.1083  1.9532
  727MOL0     H98119  12.471   6.767   4.622  0.0682  0.2026 -1.1537
  727MOL0     H98120  12.450   6.891   4.501  0.0952  1.7502  0.1353
  727MOL0     H98121  12.597   6.908   4.746 -0.3168 -1.7974 -0.5488
  727MOL0     H98122  12.447   6.978   4.795 -2.6617 -1.8088 -2.2455
  727MOL0     H98123  12.602   7.091   4.552  1.4666 -1.3113  1.5212
  727MOL0     H98124  12.442   7.146   4.641 -0.5648 -0.2358  2.6457
  727MOL0     H98125  11.584   6.750   4.732 -1.0200  1.9212 -1.2447
  727MOL0     H98126  11.335   6.694   4.788 -3.3356 -0.7448 -1.0758
  727MOL0     H98127  10.834   6.499   4.406 -0.9447 -0.3548  0.2842
  727MOL0     H98128  10.619   6.446   4.497  1.7113  0.7690 -2.6451
  727MOL0     H98129  10.630   6.839   4.029 -1.1003 -0.0300 -2.4919
  727MOL0     H98130  10.851   6.700   4.022 -0.9502 -0.1804  0.2139
  727MOL0     H98131  10.932   6.173   3.797 -0.4067 -2.5728  0.3339
  727MOL0     H98132  11.127   6.035   3.766  0.2546 -0.1321  0.4032
  727MOL0     H98133  11.236   5.872   4.046 -0.4016 -1.2548  0.1986
  727MOL0     H98134  11.415   5.877   4.028  0.7411 -2.4310 -0.5266
  727MOL0     H98135  11.421   5.790   3.802  0.7701 -0.4163  1.1052
  727MOL0     H98136  11.250   5.802   3.799  1.7978  3.7939  0.3754
  727MOL0     H98137  11.412   5.641   3.997  1.9463  0.9549 -2.9559
  727MOL0     H98138  11.357   5.570   3.842  1.7855  0.1094 -0.7231
  727MOL0     H98139  11.194   5.656   4.095  2.1775  2.3829 -0.3905
  727MOL0     H98140  11.116   5.608   3.936  1.7585  0.6955 -0.8348
  727MOL0     H98141  11.316   5.257   4.044  1.1180  0.4192  1.8830
  727MOL0     H98142  11.318   6.207   4.108 -0.9797 -2.4784  0.5108
  727MOL0     H98143  11.142   6.508   4.072 -0.1891 -0.1931  1.1878
  727MOL0     H98144  11.090   6.412   4.212  0.3772 -2.6299  0.1464
  727MOL0     H98145  11.266   6.426   4.161  0.5737 -1.4996 -1.3034
  728MOL0     O98146   4.310   5.959   4.933  0.3966 -0.5077 -0.0560
  728MOL0     C98147   4.347   6.074   4.916 -0.8735  0.8088 -0.0100
  728MOL0     O98148   4.270   6.180   4.890 -1.0011  0.1490 -0.6801
  728MOL0     C98149   4.138   6.156   4.885  0.3893 -0.3762  1.0555
  728MOL0     C98150   4.052   6.175   4.996  0.1967 -0.1770  0.1207
  728MOL0     C98151   3.911   6.162   4.972 -0.5839 -0.2535 -0.5366
  728MOL0     C98152   3.860   6.121   4.844 -0.1742 -0.0204  0.2464
  728MOL0     O98153   3.731   6.096   4.815  0.2352 -0.2536 -0.1974
  728MOL0     C98154   3.626   6.120   4.913  0.3883 -0.0583 -0.4200
  728MOL0     C98155   3.494   6.103   4.850  0.2476  0.1965  0.0713
  728MOL0     C98156   3.388   6.122   4.973  0.1918  0.6227 -0.8922
  728MOL0     C98157   3.401   6.001   5.072  0.4154 -0.2298 -0.2459
  728MOL0     C98158   3.289   5.995   5.180 -0.6054  0.1727  0.5688
  728MOL0     C98159   3.155   5.947   5.117  0.1319 -0.0212  0.1968
  728MOL0     C98160   3.037   5.895   5.209  0.2386 -0.6433  1.2720
  728MOL0     C98161   3.071   5.767   5.273 -0.1717  0.5632  0.0680
  728MOL0     N98162   2.964   5.716   5.349  0.2168 -0.0147 -0.1460
  728MOL0     C98163   2.908   5.755   5.469 -0.1173 -0.5790 -0.3806
  728MOL0     C98164   2.805   5.673   5.493 -0.1951  0.3234 -0.0647
  728MOL0     C98165   2.700   5.691   5.599 -0.3612 -0.0990 -1.2770
  728MOL0     C98166   2.570   5.752   5.561  0.9852 -0.5086 -0.1726
  728MOL0     C98167   2.473   5.686   5.467  0.4881 -0.7447  0.4737
  728MOL0     C98168   2.389   5.785   5.388 -0.2905 -0.0595  1.1729
  728MOL0     O98169   2.326   5.887   5.471 -0.3501 -0.5164  0.3284
  728MOL0     C98170   2.234   5.850   5.564 -0.0826  0.1213 -0.3577
  728MOL0     C98171   2.202   5.939   5.667  0.4580  0.8460 -0.2778
  728MOL0     C98172   2.124   5.898   5.772  0.2586  0.7839  0.6922
  728MOL0     C98173   2.060   5.771   5.774  0.1475 -0.2554 -0.1807
  728MOL0     C98174   1.975   5.726   5.885 -0.3728 -0.4983  0.9333
  728MOL0     O98175   1.958   5.812   5.993  0.0870  1.0217 -0.1826
  728MOL0     C98176   1.859   5.774   6.085 -0.2676  0.4909 -0.5985
  728MOL0     C98177   1.893   5.754   6.220 -0.3024 -0.4471  0.2180
  728MOL0     C98178   1.806   5.714   6.320  0.6648  0.9381  0.0757
  728MOL0     C98179   1.669   5.696   6.291  0.1076 -0.3532 -0.0425
  728MOL0     O98180   1.569   5.660   6.376 -0.1057 -0.5467  0.5061
  728MOL0     C98181   1.572   5.725   6.504 -0.8153 -0.3005 -0.1662
  728MOL0     C98182   1.436   5.714   6.577 -0.1797 -0.4532  0.0698
  728MOL0     C98183   1.426   5.828   6.688  0.4115  0.1920 -0.0189
  728MOL0     C98184   1.371   5.967   6.638 -0.0278  0.2402  0.1568
  728MOL0     C98185   1.398   6.078   6.743 -0.6833  0.2342  1.1954
  728MOL0     C98186   1.315   6.045   6.859 -0.9202  0.0592 -0.4526
  728MOL0     C98187   1.320   6.163   6.954  0.6850  0.6256 -0.4259
  728MOL0     C98188   1.286   6.126   7.093  0.1863 -0.3738 -0.4607
  728MOL0    Cl98189   1.410   6.021   7.165  0.3955 -0.1154 -0.7436
  728MOL0     C98190   1.627   5.720   6.156  0.5811 -0.4913  0.7281
  728MOL0     C98191   1.720   5.765   6.055  0.1165  0.0309  0.0291
  728MOL0     O98192   1.929   5.611   5.871 -0.3855 -0.0804  0.1886
  728MOL0     C98193   2.090   5.684   5.664  0.0758 -0.7961 -0.5731
  728MOL0     C98194   2.178   5.726   5.568  0.0784 -0.3146  0.0653
  728MOL0     N98195   2.800   5.576   5.399  0.4182 -0.0087 -0.3471
  728MOL0     N98196   2.886   5.609   5.303 -0.6849 -0.2406  0.5940
  728MOL0     C98197   3.946   6.095   4.743 -0.3004  0.8630 -0.8962
  728MOL0     C98198   4.084   6.114   4.763  0.5950  0.8207  0.6814
  728MOL0     C98199   4.494   6.105   4.952  0.4544 -0.3500  0.7915
  728MOL0     C98200   4.522   6.245   4.960  0.6876  0.3731 -0.2701
  728MOL0     C98201   4.654   6.287   4.976 -0.0855 -0.3336  0.4156
  728MOL0     C98202   4.752   6.199   4.991 -0.5758  0.2009  0.9587
  728MOL0     O98203   4.876   6.253   4.994  0.3496 -0.6569 -0.0274
  728MOL0     C98204   4.993   6.176   5.046 -0.3905 -0.3691 -0.6226
  728MOL0     C98205   5.064   6.075   4.954 -0.9993  0.2412  0.3600
  728MOL0     C98206   5.171   6.004   5.037 -0.4862 -0.9273 -0.6756
  728MOL0     C98207   5.263   5.917   4.957 -0.8834  0.0298  0.1048
  728MOL0     C98208   5.352   5.999   4.870  0.4185  0.2854  0.7214
  728MOL0     C98209   5.402   6.082   4.796 -0.2546  0.5507 -0.1034
  728MOL0     C98210   4.722   6.059   4.989  0.1069 -1.2954  0.7080
  728MOL0     C98211   4.600   6.013   4.961  0.0051 -1.4218  0.7412
  728MOL0     C98212   4.593   5.865   4.930  0.4000  0.4299 -0.0891
  728MOL0     H98213   4.093   6.201   5.093  1.7639 -1.5294 -0.1293
  728MOL0     H98214   3.834   6.195   5.042 -2.2314 -0.9695 -1.9425
  728MOL0     H98215   3.648   6.045   4.989 -0.0624  1.2792  1.0722
  728MOL0     H98216   3.634   6.219   4.957  0.8101 -0.0330 -0.5537
  728MOL0     H98217   3.489   6.007   4.800  0.1851  1.5878 -2.7876
  728MOL0     H98218   3.472   6.179   4.774 -2.6575  0.5974  1.1881
  728MOL0     H98219   3.285   6.143   4.942 -1.0869  1.0920  3.1401
  728MOL0     H98220   3.426   6.206   5.032 -0.3561  1.3876 -1.5891
  728MOL0     H98221   3.399   5.907   5.016  1.9858 -1.3887  1.5004
  728MOL0     H98222   3.501   6.005   5.117  0.8337  1.3633 -1.2305
  728MOL0     H98223   3.330   5.927   5.256  1.3021  0.6077 -0.0297
  728MOL0     H98224   3.288   6.087   5.239 -1.4988 -0.9045  2.3255
  728MOL0     H98225   3.121   6.042   5.074  0.7457 -0.0353 -0.3454
  728MOL0     H98226   3.186   5.874   5.041  1.4675  1.8292 -1.1584
  728MOL0     H98227   2.946   5.881   5.149 -0.0388 -1.5547  1.8811
  728MOL0     H98228   3.002   5.965   5.285 -3.9298 -3.2248  2.0566
  728MOL0     H98229   3.092   5.698   5.191 -1.4645 -0.3927  0.5024
  728MOL0     H98230   3.161   5.779   5.334 -0.2574 -1.3443  0.6489
  728MOL0     H98231   2.937   5.842   5.527 -0.9570 -0.5061 -0.0609
  728MOL0     H98232   2.661   5.598   5.642  1.2525 -0.7487 -1.1441
  728MOL0     H98233   2.750   5.740   5.683 -0.5983  1.2569 -1.8988
  728MOL0     H98234   2.511   5.773   5.651  0.8249  0.8208 -0.5710
  728MOL0     H98235   2.590   5.850   5.518  2.8462 -1.5325 -1.8089
  728MOL0     H98236   2.401   5.625   5.523 -1.2669  1.9700  1.3901
  728MOL0     H98237   2.523   5.623   5.393  0.9862  1.5839 -1.3142
  728MOL0     H98238   2.309   5.734   5.333 -0.6715  1.8369 -0.1229
  728MOL0     H98239   2.456   5.821   5.311 -0.6090 -0.6837  0.5907
  728MOL0     H98240   2.252   6.035   5.663 -0.5178  1.3144 -2.2465
  728MOL0     H98241   2.111   5.964   5.858  0.4128 -2.0173  3.0373
  728MOL0     H98242   2.000   5.751   6.238 -0.2379  0.1992 -0.0324
  728MOL0     H98243   1.844   5.694   6.419 -0.1639  0.2124  0.2594
  728MOL0     H98244   1.643   5.663   6.559  0.2576  0.0723 -1.0825
  728MOL0     H98245   1.604   5.830   6.497  1.8450 -1.0579 -0.8092
  728MOL0     H98246   1.355   5.732   6.507  2.0829  3.6523 -1.8795
  728MOL0     H98247   1.439   5.611   6.615  2.7424 -0.9694 -1.2592
  728MOL0     H98248   1.360   5.793   6.768  0.9836 -2.6704 -0.7162
  728MOL0     H98249   1.521   5.827   6.741  2.4667 -0.8054 -3.4590
  728MOL0     H98250   1.263   5.955   6.630  0.0598 -0.5462  0.0605
  728MOL0     H98251   1.411   6.008   6.545 -1.6535  0.2473 -0.5657
  728MOL0     H98252   1.369   6.174   6.700  0.6981  0.7596  1.3858
  728MOL0     H98253   1.504   6.089   6.768 -0.7566  2.0182  0.8810
  728MOL0     H98254   1.210   6.021   6.837 -0.5449 -0.2481 -2.0007
  728MOL0     H98255   1.360   5.959   6.911 -1.6760 -1.0242 -1.5275
  728MOL0     H98256   1.247   6.236   6.917  0.5108 -1.4734 -4.8651
  728MOL0     H98257   1.417   6.212   6.963 -0.3840  2.8393 -0.1122
  728MOL0     H98258   1.279   6.217   7.154  3.5115 -1.7042  2.2049
  728MOL0     H98259   1.189   6.075   7.099  0.7041 -1.1674  1.8588
  728MOL0     H98260   1.528   5.701   6.115  1.2403 -0.1140 -1.1355
  728MOL0     H98261   1.680   5.786   5.957 -2.3290 -0.8011  0.7848
  728MOL0     H98262   2.048   5.584   5.659  0.3173 -1.1251  2.2000
  728MOL0     H98263   2.200   5.646   5.498 -0.7543 -1.2288  0.8078
  728MOL0     H98264   3.904   6.061   4.649 -2.3595  2.1391 -0.5038
  728MOL0     H98265   4.143   6.101   4.672  0.2902 -3.0465  0.8881
  728MOL0     H98266   4.441   6.315   4.945 -0.4741 -1.1642 -1.5894
  728MOL0     H98267   4.669   6.394   4.968  4.2817 -0.8515 -1.4734
  728MOL0     H98268   4.974   6.119   5.138  1.0003  2.7656  1.7944
  728MOL0     H98269   5.062   6.259   5.066 -3.4284  1.6358  2.6210
  728MOL0     H98270   5.108   6.139   4.876 -0.0658  1.3778  1.7621
  728MOL0     H98271   4.999   6.009   4.896 -0.6415 -0.6887  0.9939
  728MOL0     H98272   5.119   5.949   5.116 -2.7518  1.5868 -0.2738
  728MOL0     H98273   5.237   6.076   5.087  3.3843 -1.2182 -4.6918
  728MOL0     H98274   5.333   5.864   5.022  0.1467  0.9056 -0.2738
  728MOL0     H98275   5.199   5.846   4.902 -1.6118  0.0099  0.9454
  728MOL0     H98276   5.430   6.157   4.725 -1.0583 -2.5806 -4.0857
  728MOL0     H98277   4.801   5.985   4.992  0.6481 -0.6997  2.5558
  728MOL0     H98278   4.679   5.820   4.879  1.6023 -1.1040  3.0142
  728MOL0     H98279   4.565   5.804   5.016 -3.9173  0.2502 -1.3784
  728MOL0     H98280   4.506   5.851   4.865  0.1273  0.4403  0.2691
  729MOL0     O98281   9.549   8.571   4.457 -0.3174  0.5615  0.2316
  729MOL0     C98282   9.432   8.568   4.503 -0.6970 -0.4439 -0.3681
  729MOL0     O98283   9.383   8.482   4.589  0.1743 -0.1450  0.0781
  729MOL0     C98284   9.465   8.380   4.651 -0.6554 -0.7474 -0.4957
  729MOL0     C98285   9.596   8.400   4.681 -0.1057 -0.4086  0.3074
  729MOL0     C98286   9.671   8.295   4.724 -0.4997 -0.4131  0.6043
  729MOL0     C98287   9.620   8.167   4.755  0.4420  1.6649 -0.0361
  729MOL0     O98288   9.701   8.066   4.805 -0.2481  0.1768 -0.3812
  729MOL0     C98289   9.735   7.954   4.724 -0.2927  0.5970  0.4354
  729MOL0     C98290   9.828   7.855   4.792  0.6598 -0.1631 -0.0631
  729MOL0     C98291   9.962   7.907   4.833 -0.9440 -0.5560 -0.7769
  729MOL0     C98292  10.045   7.808   4.919  0.5274  0.1006 -0.3610
  729MOL0     C98293  10.192   7.853   4.927  0.2164 -0.1317  0.3281
  729MOL0     C98294  10.277   7.831   4.806  1.1011  0.5203  0.1419
  729MOL0     C98295  10.410   7.898   4.800  0.6467  0.2908 -0.0696
  729MOL0     C98296  10.467   7.915   4.660  0.8383  0.2240  0.3478
  729MOL0     N98297  10.610   7.948   4.653  0.3335 -0.6777 -0.4605
  729MOL0     C98298  10.665   8.050   4.731  1.1998 -0.4142  0.1363
  729MOL0     C98299  10.800   8.041   4.707 -0.0511  0.2522  0.3255
  729MOL0     C98300  10.918   8.106   4.779  0.5416 -0.2144  0.6918
  729MOL0     C98301  11.050   8.089   4.702  0.6550  0.2166 -0.2458
  729MOL0     C98302  11.158   8.187   4.746 -0.9213  0.0786 -1.4253
  729MOL0     C98303  11.271   8.193   4.643 -0.4633 -0.6486  0.8224
  729MOL0     O98304  11.371   8.272   4.704  0.0594  0.2853 -0.5298
  729MOL0     C98305  11.487   8.300   4.634 -0.5657 -0.2963 -0.3734
  729MOL0     C98306  11.538   8.234   4.518 -0.0859  0.5616 -0.0146
  729MOL0     C98307  11.659   8.261   4.467 -0.0945  0.1953 -0.0238
  729MOL0     C98308  11.739   8.360   4.526  1.4248 -0.2084 -0.2065
  729MOL0     C98309  11.861   8.373   4.457 -0.0116 -1.7177  0.0418
  729MOL0     O98310  11.938   8.265   4.403  0.0802 -0.2476  0.6046
  729MOL0     C98311  12.063   8.284   4.363 -0.4097  0.1087 -0.1168
  729MOL0     C98312  12.163   8.247   4.450 -0.1679 -0.2546 -0.0730
  729MOL0     C98313  12.301   8.265   4.422 -0.0707 -0.8149  0.3166
  729MOL0     C98314  12.342   8.326   4.302  0.3656 -1.1807  0.4060
  729MOL0     O98315  12.471   8.347   4.274 -0.5365 -0.2982  0.3344
  729MOL0     C98316  12.514   8.420   4.158 -0.0154 -0.1632  0.9056
  729MOL0     C98317  12.660   8.459   4.175  1.3058 -0.6688 -1.0262
  729MOL0     C98318  12.768   8.352   4.152  0.2468  0.1666  0.3559
  729MOL0     C98319  12.784   8.321   4.009 -1.1286 -0.4920 -0.4669
  729MOL0     C98320  12.876   8.201   3.968  0.2744 -0.1830 -0.2388
  729MOL0     C98321  13.023   8.218   4.019 -0.4133  0.7588 -0.9049
  729MOL0     C98322  13.114   8.320   3.952  0.8468  0.9063  0.0991
  729MOL0     C98323  13.250   8.308   4.006  0.5897  0.0389  0.1304
  729MOL0    Cl98324  13.243   8.370   4.183 -0.1570 -0.0172 -0.1025
  729MOL0     C98325  12.235   8.359   4.220 -0.2627  0.3236  0.2073
  729MOL0     C98326  12.097   8.345   4.247  0.7449 -0.3103 -0.2636
  729MOL0     O98327  11.901   8.489   4.460  0.1673 -0.2403  0.8048
  729MOL0     C98328  11.693   8.433   4.638  0.2700 -0.8323 -0.2555
  729MOL0     C98329  11.565   8.393   4.692  0.4537  0.2281  0.9033
  729MOL0     N98330  10.816   7.938   4.609  0.7768 -0.3623 -0.5404
  729MOL0     N98331  10.705   7.881   4.586 -0.0472  0.3818 -0.9413
  729MOL0     C98332   9.484   8.145   4.721  0.5238 -0.6455 -0.3362
  729MOL0     C98333   9.404   8.255   4.685 -0.0672  0.3983 -0.1940
  729MOL0     C98334   9.331   8.669   4.466  0.9641  0.4731 -0.0553
  729MOL0     C98335   9.199   8.652   4.525  0.1572  0.5942  0.1003
  729MOL0     C98336   9.087   8.731   4.491  0.5350  0.8803  0.6218
  729MOL0     C98337   9.107   8.825   4.391  0.1660  1.0718  0.8220
  729MOL0     O98338   9.016   8.909   4.342 -0.0878 -0.2638  0.3241
  729MOL0     C98339   8.901   8.938   4.423  0.0310  0.2167  0.1780
  729MOL0     C98340   8.837   9.058   4.351  0.8348  0.1140  0.2134
  729MOL0     C98341   8.791   9.034   4.206 -0.3999 -0.2002 -0.5784
  729MOL0     C98342   8.702   9.139   4.147 -0.6967 -0.3011  0.3731
  729MOL0     C98343   8.767   9.274   4.133 -0.4240  0.5545 -0.0464
  729MOL0     C98344   8.831   9.375   4.118  0.4918 -1.0957  0.7906
  729MOL0     C98345   9.230   8.840   4.333  0.8466 -0.1323 -0.2457
  729MOL0     C98346   9.343   8.765   4.367  0.7953 -0.7440  0.0542
  729MOL0     C98347   9.467   8.797   4.290  0.3924 -0.0691  0.2065
  729MOL0     H98348   9.654   8.490   4.660  3.1370 -1.9037  2.0949
  729MOL0     H98349   9.779   8.311   4.728 -0.2254 -1.5505 -1.1959
  729MOL0     H98350   9.645   7.905   4.684 -0.7668  2.3892 -0.8742
  729MOL0     H98351   9.795   7.988   4.639  0.1422  0.7171  0.7912
  729MOL0     H98352   9.847   7.771   4.725 -0.3142 -1.7989  1.5823
  729MOL0     H98353   9.781   7.825   4.886 -0.1313  2.3212  0.4180
  729MOL0     H98354   9.938   7.994   4.894 -0.0751 -0.7924 -0.0690
  729MOL0     H98355  10.005   7.932   4.736  0.2047 -0.2347 -0.2039
  729MOL0     H98356  10.004   7.810   5.021  0.5992  0.0698 -0.3319
  729MOL0     H98357  10.051   7.706   4.881  0.3027  0.6449 -1.9348
  729MOL0     H98358  10.193   7.959   4.954 -0.3142 -0.3600  1.2805
  729MOL0     H98359  10.241   7.798   5.008 -1.4432 -0.5529  1.0900
  729MOL0     H98360  10.287   7.724   4.785 -2.5339  0.3238 -1.2924
  729MOL0     H98361  10.213   7.861   4.722 -0.0298 -0.5809  0.5797
  729MOL0     H98362  10.479   7.842   4.864  2.8878  1.2695 -1.5061
  729MOL0     H98363  10.403   8.006   4.815  2.5841  1.0909 -3.7573
  729MOL0     H98364  10.451   7.818   4.612 -0.5680  1.8022 -2.6678
  729MOL0     H98365  10.409   7.988   4.602  0.5409 -2.5142 -3.1803
  729MOL0     H98366  10.618   8.114   4.804 -1.7075 -2.9689  0.7507
  729MOL0     H98367  10.911   8.215   4.781  0.0553 -0.2100 -0.3696
  729MOL0     H98368  10.915   8.068   4.882  0.6881 -0.4972  0.5952
  729MOL0     H98369  11.085   7.986   4.716 -0.7230 -0.1490  0.6710
  729MOL0     H98370  11.034   8.092   4.594  1.3951  2.5376 -0.3308
  729MOL0     H98371  11.182   8.153   4.848 -1.5884 -1.2177 -1.6729
  729MOL0     H98372  11.110   8.285   4.748  0.2069  0.8440 -5.0674
  729MOL0     H98373  11.240   8.248   4.553  3.2563  0.0253 -0.2497
  729MOL0     H98374  11.319   8.099   4.614  0.7730 -1.2892  4.4977
  729MOL0     H98375  11.485   8.153   4.468  1.7664 -0.8262  0.1649
  729MOL0     H98376  11.699   8.209   4.380  1.1293  0.2811  0.4665
  729MOL0     H98377  12.122   8.204   4.540 -3.4623 -0.8013 -1.7010
  729MOL0     H98378  12.374   8.245   4.499 -1.2314 -1.2576  1.3416
  729MOL0     H98379  12.506   8.355   4.070  2.7044  1.1444 -0.4360
  729MOL0     H98380  12.460   8.515   4.149 -0.8274 -0.4584  2.3973
  729MOL0     H98381  12.675   8.534   4.097 -0.3940 -0.2404 -0.9919
  729MOL0     H98382  12.680   8.501   4.274 -0.8970 -1.7032 -0.0616
  729MOL0     H98383  12.860   8.396   4.191  0.1217 -0.1007  0.9648
  729MOL0     H98384  12.745   8.266   4.215 -0.3703  1.9859  2.7837
  729MOL0     H98385  12.836   8.410   3.973 -2.0555 -0.1660 -1.0392
  729MOL0     H98386  12.683   8.323   3.967 -2.0453  1.7236  1.6082
  729MOL0     H98387  12.896   8.203   3.861  1.6439 -0.1939  0.0054
  729MOL0     H98388  12.827   8.106   3.992 -1.8662  0.4829 -1.6115
  729MOL0     H98389  13.015   8.230   4.128 -0.5010  0.9124 -0.9287
  729MOL0     H98390  13.077   8.126   3.995 -2.3511  0.2800 -3.9267
  729MOL0     H98391  13.078   8.423   3.948  0.3019  0.7268  0.2305
  729MOL0     H98392  13.115   8.298   3.845  0.6715  2.2593 -0.1965
  729MOL0     H98393  13.297   8.210   3.993 -0.6430 -0.3674 -1.7802
  729MOL0     H98394  13.307   8.366   3.933 -1.8715  2.2523 -0.1761
  729MOL0     H98395  12.265   8.403   4.126 -1.1461  2.1492  0.7340
  729MOL0     H98396  12.026   8.376   4.170 -0.5169 -2.2540  0.0721
  729MOL0     H98397  11.767   8.487   4.697 -1.6079 -0.6734  2.0949
  729MOL0     H98398  11.543   8.443   4.786  0.2475 -0.0220  0.9897
  729MOL0     H98399   9.443   8.045   4.734 -3.3350  0.8711  0.8123
  729MOL0     H98400   9.298   8.240   4.666  0.7075 -2.6808 -2.9359
  729MOL0     H98401   9.184   8.580   4.605 -0.0141 -0.2118 -0.6457
  729MOL0     H98402   8.992   8.720   4.542 -0.8027 -1.5078 -2.0901
  729MOL0     H98403   8.938   8.959   4.524 -0.0860 -1.8963  0.7004
  729MOL0     H98404   8.839   8.848   4.412  2.3735 -1.2858 -1.4792
  729MOL0     H98405   8.901   9.147   4.357 -0.9607  1.4067  4.0629
  729MOL0     H98406   8.751   9.088   4.413 -0.7085  0.8924 -2.1860
  729MOL0     H98407   8.728   8.945   4.203 -0.7367 -0.0078  0.2919
  729MOL0     H98408   8.873   9.007   4.140 -0.3481  1.9467 -1.4528
  729MOL0     H98409   8.675   9.095   4.050  0.3532 -0.4527  0.1390
  729MOL0     H98410   8.605   9.143   4.198 -0.6456  1.2312  0.4185
  729MOL0     H98411   8.891   9.463   4.107  1.8173 -1.5839  3.2723
  729MOL0     H98412   9.249   8.910   4.251 -0.7814  2.7423  1.6510
  729MOL0     H98413   9.533   8.855   4.355 -1.4293 -1.5275  3.5840
  729MOL0     H98414   9.514   8.705   4.254 -1.5518 -1.6636  1.4942
  729MOL0     H98415   9.447   8.852   4.197  0.0038 -2.1527 -1.0095
  730MOL0     O98416   2.195   6.520   6.343  0.0391 -0.0468 -0.6607
  730MOL0     C98417   2.203   6.599   6.436  1.1539  1.0113 -0.7422
  730MOL0     O98418   2.289   6.594   6.541 -0.0212  0.2405 -0.2682
  730MOL0     C98419   2.414   6.540   6.539  0.7406 -0.7043 -0.6504
  730MOL0     C98420   2.509   6.564   6.435  1.0706 -0.0030 -0.8905
  730MOL0     C98421   2.629   6.507   6.432  0.0364  0.2193 -0.1990
  730MOL0     C98422   2.672   6.440   6.544 -1.1654 -0.5734 -0.0013
  730MOL0     O98423   2.793   6.383   6.530 -0.6694 -0.1615 -0.2296
  730MOL0     C98424   2.811   6.256   6.581 -0.0362 -0.0888  0.1720
  730MOL0     C98425   2.921   6.259   6.685 -0.4130 -0.6485  0.5621
  730MOL0     C98426   2.973   6.111   6.704 -0.8439 -0.2099 -0.4399
  730MOL0     C98427   3.071   6.070   6.587  0.0669 -0.5118  0.0016
  730MOL0     C98428   3.098   5.918   6.585  0.1399  0.1829  0.5450
  730MOL0     C98429   3.221   5.887   6.498 -0.4306  0.2009  0.2065
  730MOL0     C98430   3.354   5.934   6.567  0.3767  0.1157  0.4651
  730MOL0     C98431   3.477   5.883   6.485 -0.9991 -0.3104  0.0491
  730MOL0     N98432   3.600   5.951   6.527 -0.6272 -0.1363  0.5032
  730MOL0     C98433   3.696   5.902   6.605  0.2809 -0.2812 -0.8634
  730MOL0     C98434   3.792   6.000   6.613 -0.9469 -0.1057 -0.5178
  730MOL0     C98435   3.925   5.988   6.674  0.4138 -0.0935  0.4412
  730MOL0     C98436   3.973   6.115   6.762 -0.6354 -0.2874  0.1616
  730MOL0     C98437   4.003   6.243   6.679  0.7539 -0.8706 -0.5927
  730MOL0     C98438   4.138   6.244   6.607  0.1162  0.3623  0.0313
  730MOL0     O98439   4.153   6.380   6.554 -0.0913  0.4022 -0.4823
  730MOL0     C98440   4.279   6.429   6.595  0.4180  0.5816  0.6112
  730MOL0     C98441   4.389   6.426   6.514 -0.1627 -0.1056 -0.6174
  730MOL0     C98442   4.505   6.488   6.546  0.4494 -0.3994 -0.4807
  730MOL0     C98443   4.523   6.548   6.677 -0.6532 -0.0866  0.2312
  730MOL0     C98444   4.646   6.606   6.721 -0.3864 -0.7202 -0.6038
  730MOL0     O98445   4.761   6.579   6.648 -0.5599 -0.0860 -0.5565
  730MOL0     C98446   4.893   6.619   6.673 -0.7910  0.3556  0.6217
  730MOL0     C98447   4.979   6.604   6.557 -1.4142 -0.0122  0.4429
  730MOL0     C98448   5.115   6.639   6.566  0.2279 -0.3900 -0.6565
  730MOL0     C98449   5.175   6.682   6.686  0.2153  0.3008  0.1778
  730MOL0     O98450   5.302   6.731   6.692  0.0643  0.0855 -0.2637
  730MOL0     C98451   5.401   6.693   6.593 -0.5255  0.7119 -0.2644
  730MOL0     C98452   5.533   6.756   6.608  0.1559 -0.2090  0.1278
  730MOL0     C98453   5.512   6.909   6.615  1.0222  0.3497 -0.2861
  730MOL0     C98454   5.654   6.976   6.584  0.6465 -0.6773  0.6874
  730MOL0     C98455   5.640   7.125   6.574  0.0198  0.1517 -0.9989
  730MOL0     C98456   5.760   7.191   6.517 -0.9343  0.4518  0.9084
  730MOL0     C98457   5.734   7.350   6.510 -0.5587 -0.4348  1.0272
  730MOL0     C98458   5.858   7.428   6.459 -0.1849  0.0623 -0.0529
  730MOL0    Cl98459   6.009   7.358   6.523  0.2725  0.4345  0.2792
  730MOL0     C98460   5.091   6.692   6.801  0.0827  0.1193 -1.0372
  730MOL0     C98461   4.955   6.656   6.787  0.7412  0.4935 -0.0594
  730MOL0     O98462   4.642   6.661   6.830  0.2515 -0.4221 -0.3624
  730MOL0     C98463   4.413   6.531   6.769 -0.1427 -0.0448 -0.3283
  730MOL0     C98464   4.285   6.486   6.719 -0.4650 -0.4150  0.2016
  730MOL0     N98465   3.752   6.107   6.529  0.4939 -0.3688 -0.0994
  730MOL0     N98466   3.637   6.074   6.475 -0.4496 -0.0195 -0.0743
  730MOL0     C98467   2.588   6.424   6.651  0.6889 -0.6771 -0.8298
  730MOL0     C98468   2.457   6.474   6.654  0.0314  0.0659  0.0090
  730MOL0     C98469   2.101   6.698   6.436  0.2310  0.7136 -0.2746
  730MOL0     C98470   1.972   6.655   6.382  0.2365 -0.6361  0.2384
  730MOL0     C98471   1.858   6.737   6.372 -0.5450 -1.0492 -0.1771
  730MOL0     C98472   1.869   6.865   6.413 -1.0946  0.1833 -0.1224
  730MOL0     O98473   1.768   6.963   6.403  0.1361 -0.1888 -0.7354
  730MOL0     C98474   1.634   6.929   6.376 -0.2161 -0.7550 -0.4998
  730MOL0     C98475   1.566   7.062   6.396  0.2454  0.4699 -1.3802
  730MOL0     C98476   1.416   7.053   6.354 -0.2082  0.2948  0.1017
  730MOL0     C98477   1.359   7.188   6.334  0.8962 -0.5652 -0.5701
  730MOL0     C98478   1.219   7.186   6.291  0.1638 -0.0558  0.1039
  730MOL0     C98479   1.103   7.161   6.280  0.3288 -0.5425  1.6472
  730MOL0     C98480   1.995   6.914   6.459 -0.2069  0.3512  0.3673
  730MOL0     C98481   2.104   6.832   6.480 -0.1413 -0.3510  1.1093
  730MOL0     C98482   2.236   6.897   6.538  0.8174 -0.5204  0.3357
  730MOL0     H98483   2.489   6.621   6.344  0.1266  0.3090 -0.4993
  730MOL0     H98484   2.690   6.524   6.344 -0.1935  2.2882  0.0051
  730MOL0     H98485   2.724   6.218   6.635  0.6374  0.1377  1.4444
  730MOL0     H98486   2.824   6.185   6.499 -5.6298  0.7694 -1.8994
  730MOL0     H98487   2.881   6.291   6.782 -0.0956 -1.8678  1.1100
  730MOL0     H98488   3.012   6.318   6.667  0.9948 -2.0189  2.7116
  730MOL0     H98489   2.895   6.035   6.713 -1.7690  0.8542  0.7339
  730MOL0     H98490   3.029   6.110   6.797 -1.8868 -1.1860  0.1963
  730MOL0     H98491   3.033   6.094   6.487  0.2283 -2.5395 -0.5949
  730MOL0     H98492   3.160   6.131   6.607 -0.6219  0.5269  0.0140
  730MOL0     H98493   3.118   5.892   6.689 -1.6948  2.4691  1.5680
  730MOL0     H98494   3.010   5.872   6.538 -0.8126  2.5271 -0.1357
  730MOL0     H98495   3.221   5.778   6.486  1.3952 -0.2020  2.9455
  730MOL0     H98496   3.217   5.931   6.398 -2.6343 -1.4400 -0.5132
  730MOL0     H98497   3.373   5.901   6.670  1.5500  2.8139  1.2239
  730MOL0     H98498   3.356   6.043   6.579  3.9289 -0.0390  3.2337
  730MOL0     H98499   3.497   5.777   6.500  2.5839  0.3791  1.0173
  730MOL0     H98500   3.461   5.895   6.378  2.3562 -1.3055 -0.6722
  730MOL0     H98501   3.691   5.811   6.663 -0.7627 -0.4697 -1.2361
  730MOL0     H98502   3.924   5.891   6.726 -1.7388 -0.1822  0.3213
  730MOL0     H98503   3.999   5.970   6.595  1.5304  0.9507  1.2196
  730MOL0     H98504   3.895   6.131   6.838  1.2688 -2.5617  2.8192
  730MOL0     H98505   4.062   6.083   6.816 -0.7283  0.2824  0.6557
  730MOL0     H98506   3.993   6.328   6.747  1.5077 -0.5625 -0.8508
  730MOL0     H98507   3.926   6.244   6.602  1.0965 -3.0025 -1.0403
  730MOL0     H98508   4.139   6.160   6.537 -2.9976 -0.5605  0.9156
  730MOL0     H98509   4.217   6.227   6.681 -1.4875 -0.1409  1.7076
  730MOL0     H98510   4.384   6.377   6.418 -4.0600 -1.8938  0.3000
  730MOL0     H98511   4.590   6.494   6.478 -0.7698  5.2528 -2.0225
  730MOL0     H98512   4.923   6.572   6.470 -2.4891 -0.5208  1.2993
  730MOL0     H98513   5.176   6.622   6.477 -0.7122 -0.3388 -1.3334
  730MOL0     H98514   5.414   6.587   6.613  2.0781  1.5666  3.8588
  730MOL0     H98515   5.373   6.701   6.488 -1.3293  2.5752  0.0455
  730MOL0     H98516   5.585   6.720   6.697  0.1856  3.0145  1.5347
  730MOL0     H98517   5.595   6.718   6.525  1.4237 -1.4920  1.5952
  730MOL0     H98518   5.434   6.939   6.545  0.4441 -2.3647 -0.9175
  730MOL0     H98519   5.482   6.940   6.715  2.2048  2.1861 -0.4604
  730MOL0     H98520   5.689   6.934   6.490 -2.7125 -0.6474 -0.7100
  730MOL0     H98521   5.728   6.959   6.663  3.0220  0.2908 -1.2073
  730MOL0     H98522   5.627   7.162   6.676  1.1547 -2.0350  0.0327
  730MOL0     H98523   5.551   7.155   6.520 -0.0242 -1.5585 -1.9477
  730MOL0     H98524   5.845   7.164   6.581  1.1245 -0.3693 -1.9855
  730MOL0     H98525   5.770   7.148   6.417  2.8351  1.4058  0.7350
  730MOL0     H98526   5.724   7.392   6.611  0.3411  0.1865  0.8741
  730MOL0     H98527   5.647   7.374   6.449  0.5399 -2.3264 -1.4284
  730MOL0     H98528   5.861   7.436   6.350  0.4486 -0.7488 -0.0999
  730MOL0     H98529   5.858   7.528   6.502  2.3782 -1.1284  3.0789
  730MOL0     H98530   5.134   6.725   6.894  2.5580 -0.0628 -2.0372
  730MOL0     H98531   4.902   6.668   6.881  1.2701  1.9046  0.0850
  730MOL0     H98532   4.416   6.580   6.866 -0.9283  0.4072 -0.5251
  730MOL0     H98533   4.201   6.477   6.787 -1.6705 -0.7670 -1.2875
  730MOL0     H98534   2.625   6.357   6.728 -0.3471 -0.4734 -0.1442
  730MOL0     H98535   2.394   6.455   6.740 -2.3935  0.6781 -1.5467
  730MOL0     H98536   1.961   6.548   6.367  2.8227 -1.2571  1.9956
  730MOL0     H98537   1.757   6.704   6.349 -1.2266 -0.6038  1.9936
  730MOL0     H98538   1.600   6.856   6.450  0.5327 -1.2762 -0.6628
  730MOL0     H98539   1.614   6.894   6.274 -1.3698  1.3917 -1.0781
  730MOL0     H98540   1.612   7.131   6.324  0.0905  1.3842 -0.6280
  730MOL0     H98541   1.578   7.102   6.498 -1.9102 -1.8990 -0.0917
  730MOL0     H98542   1.364   6.990   6.427  0.6413  0.2700  0.6932
  730MOL0     H98543   1.413   7.001   6.258  3.3012 -2.8218  1.4355
  730MOL0     H98544   1.359   7.240   6.430  3.7590 -0.6336 -0.4334
  730MOL0     H98545   1.420   7.245   6.262  1.4697  0.2449  0.5281
  730MOL0     H98546   1.007   7.119   6.257 -0.9632  2.4140  1.2164
  730MOL0     H98547   1.993   7.012   6.507  1.1020  0.2270  0.7120
  730MOL0     H98548   2.211   6.989   6.591  0.1222 -2.0685  2.8853
  730MOL0     H98549   2.297   6.829   6.599  1.7430  0.5269  0.6247
  730MOL0     H98550   2.299   6.936   6.457  0.2572 -0.6076 -0.1435
  731MOL0     O98551   9.310   0.009   6.895 -0.2325 -0.9191 -0.1772
  731MOL0     C98552   9.420   0.002   6.947  0.6607  0.1321  0.3937
  731MOL0     O98553   9.477  -0.119   6.986  0.0754 -0.5322  0.3421
  731MOL0     C98554   9.388  -0.221   6.995  0.1504 -0.3324 -0.2994
  731MOL0     C98555   9.424  -0.352   6.961  0.1137  0.2726 -0.5868
  731MOL0     C98556   9.339  -0.466   6.974  0.4886 -0.1054  0.5880
  731MOL0     C98557   9.208  -0.452   7.025 -0.6515 -0.8406  0.0779
  731MOL0     O98558   9.118  -0.541   7.050  0.0275  0.1974 -0.4245
  731MOL0     C98559   9.135  -0.663   6.984  0.2127  0.3676  0.2993
  731MOL0     C98560   9.000  -0.727   6.987  0.1208  0.4754 -0.4759
  731MOL0     C98561   9.011  -0.881   6.968  0.3618 -0.1790 -0.7000
  731MOL0     C98562   9.064  -0.919   6.821  1.0667  0.5151 -0.0217
  731MOL0     C98563   9.057  -1.072   6.810 -0.7352  0.1859  0.0672
  731MOL0     C98564   9.133  -1.113   6.686  0.2944 -0.4524 -0.1488
  731MOL0     C98565   9.147  -1.264   6.637  0.1554  0.2992 -0.8113
  731MOL0     C98566   9.215  -1.356   6.741 -0.3952  0.0023 -0.5551
  731MOL0     N98567   9.360  -1.359   6.739  0.3016  0.4799 -0.1901
  731MOL0     C98568   9.434  -1.395   6.630 -0.0055 -0.1242  0.3104
  731MOL0     C98569   9.560  -1.417   6.673  0.8694 -0.6141 -1.0751
  731MOL0     C98570   9.671  -1.460   6.582  0.5889 -0.8457  0.1443
  731MOL0     C98571   9.799  -1.373   6.589  0.0794  0.6778 -0.0085
  731MOL0     C98572   9.892  -1.432   6.474  0.1169  0.0838  0.1898
  731MOL0     C98573  10.037  -1.390   6.486  0.2013  0.4525  0.4949
  731MOL0     O98574  10.090  -1.460   6.600  0.4760  0.7734 -0.2107
  731MOL0     C98575  10.228  -1.474   6.618  0.4646  0.1838  0.5659
  731MOL0     C98576  10.263  -1.550   6.734 -1.0721  0.4050  0.1008
  731MOL0     C98577  10.402  -1.574   6.756 -0.6442 -0.1671 -0.2952
  731MOL0     C98578  10.504  -1.523   6.663 -0.1870  0.2394  0.5228
  731MOL0     C98579  10.648  -1.548   6.688 -0.0409 -0.2617 -0.1056
  731MOL0     O98580  10.733  -1.503   6.586 -0.6836 -0.0302 -0.5994
  731MOL0     C98581  10.869  -1.520   6.600 -0.0558 -0.7293  0.0727
  731MOL0     C98582  10.935  -1.414   6.658  0.1531 -0.0773 -0.0676
  731MOL0     C98583  11.073  -1.422   6.657 -0.4936 -0.6082 -0.1834
  731MOL0     C98584  11.146  -1.524   6.603 -0.2632 -0.7059 -0.6273
  731MOL0     O98585  11.283  -1.505   6.586  0.8661 -0.2528  1.4882
  731MOL0     C98586  11.375  -1.612   6.603  0.6047  0.0467 -0.5255
  731MOL0     C98587  11.364  -1.679   6.738  0.2934 -0.2893 -0.2972
  731MOL0     C98588  11.363  -1.580   6.863 -1.1941  0.1432 -0.4916
  731MOL0     C98589  11.513  -1.553   6.896  0.3868 -0.7510  0.0457
  731MOL0     C98590  11.544  -1.471   7.022 -0.6181 -1.1674  1.0569
  731MOL0     C98591  11.697  -1.435   7.036  0.8792 -0.0618 -0.8741
  731MOL0     C98592  11.713  -1.328   7.144  1.2756 -0.2326  0.9196
  731MOL0     C98593  11.698  -1.381   7.281 -0.8800 -0.7811  0.2296
  731MOL0    Cl98594  11.688  -1.255   7.407 -0.0260 -0.4538 -0.5255
  731MOL0     C98595  11.078  -1.632   6.560  0.4723 -0.2159  0.9883
  731MOL0     C98596  10.941  -1.630   6.566  1.2924  0.2800 -0.4841
  731MOL0     O98597  10.687  -1.586   6.800  0.4281 -0.2104 -0.7677
  731MOL0     C98598  10.460  -1.455   6.547  0.5869  0.6910 -0.2127
  731MOL0     C98599  10.321  -1.431   6.527  0.1672 -0.0508 -0.3198
  731MOL0     N98600   9.568  -1.394   6.813 -0.2738  0.0560  0.3382
  731MOL0     N98601   9.441  -1.368   6.844  1.0989  0.0240 -0.4375
  731MOL0     C98602   9.184  -0.329   7.090  0.2533  0.5382  0.0868
  731MOL0     C98603   9.265  -0.216   7.073 -0.2516  0.4069 -0.1365
  731MOL0     C98604   9.498   0.115   6.976 -0.3017  0.0318 -0.1737
  731MOL0     C98605   9.598   0.104   7.078 -0.5464  0.1054 -0.1269
  731MOL0     C98606   9.689   0.211   7.080 -0.1334  1.6480  0.0293
  731MOL0     C98607   9.690   0.324   6.985 -0.5966 -1.2440  0.1623
  731MOL0     O98608   9.778   0.437   6.983  0.2773  0.0410 -0.3484
  731MOL0     C98609   9.862   0.442   7.096  0.0740  0.4699 -0.7166
  731MOL0     C98610   9.983   0.538   7.088 -0.8369 -1.1461 -0.0153
  731MOL0     C98611   9.943   0.686   7.089 -0.2388  0.2295  0.5957
  731MOL0     C98612  10.061   0.779   7.115  0.7258 -0.8228 -0.0499
  731MOL0     C98613  10.095   0.787   7.255 -0.6502 -0.5425  0.3726
  731MOL0     C98614  10.117   0.770   7.375 -0.2748 -0.2407 -0.2344
  731MOL0     C98615   9.585   0.325   6.896  0.1845  0.5570 -0.5765
  731MOL0     C98616   9.483   0.230   6.891  0.4077 -0.4806 -0.5378
  731MOL0     C98617   9.363   0.254   6.797  0.6577  0.7835 -0.1656
  731MOL0     H98618   9.526  -0.369   6.928 -0.5675 -1.6215 -1.8829
  731MOL0     H98619   9.369  -0.566   6.943 -1.0914  0.1997 -2.3940
  731MOL0     H98620   9.155  -0.642   6.879 -1.7844  1.2910  0.0553
  731MOL0     H98621   9.218  -0.716   7.032  1.8264  2.8691  0.4320
  731MOL0     H98622   8.929  -0.689   6.913 -1.8026  0.1784  1.1555
  731MOL0     H98623   8.959  -0.713   7.087 -1.6258 -1.2838 -0.8912
  731MOL0     H98624   8.911  -0.922   6.980 -0.2929  1.7378  0.8344
  731MOL0     H98625   9.074  -0.925   7.046  0.2185 -2.7148 -1.9308
  731MOL0     H98626   9.004  -0.860   6.750  1.7127 -0.7083 -1.6558
  731MOL0     H98627   9.165  -0.877   6.813  1.7511 -1.2797 -1.3159
  731MOL0     H98628   9.095  -1.112   6.904  2.4495  1.9118 -0.3651
  731MOL0     H98629   8.951  -1.097   6.796 -1.0423  1.9533 -1.0199
  731MOL0     H98630   9.087  -1.060   6.602  0.5470 -1.5585 -1.0092
  731MOL0     H98631   9.236  -1.080   6.704  1.3120 -1.2369 -3.8247
  731MOL0     H98632   9.203  -1.269   6.543  0.1142  3.1561 -1.0741
  731MOL0     H98633   9.045  -1.301   6.617 -0.2628 -1.6206  3.7047
  731MOL0     H98634   9.187  -1.323   6.841 -0.9845  3.0450 -1.6116
  731MOL0     H98635   9.181  -1.460   6.732  1.5866 -0.6566 -0.7947
  731MOL0     H98636   9.398  -1.402   6.528 -2.3958 -0.4630  1.1096
  731MOL0     H98637   9.686  -1.567   6.601  3.4627 -0.8192 -1.4340
  731MOL0     H98638   9.638  -1.456   6.478 -1.0434  2.4503  0.6493
  731MOL0     H98639   9.766  -1.270   6.575 -2.2087  0.0822  0.5380
  731MOL0     H98640   9.848  -1.379   6.686 -1.0514 -0.6011  0.5196
  731MOL0     H98641   9.850  -1.406   6.377 -3.2262 -1.1676  1.1586
  731MOL0     H98642   9.887  -1.540   6.486 -1.1341 -0.2635 -2.7786
  731MOL0     H98643  10.054  -1.284   6.509  0.8954  0.1879  1.2603
  731MOL0     H98644  10.097  -1.408   6.397 -0.2087 -0.4780  0.3910
  731MOL0     H98645  10.192  -1.595   6.802 -0.4632 -0.6889  0.0237
  731MOL0     H98646  10.423  -1.652   6.828 -0.3574 -0.3923 -0.6205
  731MOL0     H98647  10.868  -1.337   6.694  0.3131  0.3162 -0.5881
  731MOL0     H98648  11.125  -1.343   6.711 -2.4244  1.6964 -1.4948
  731MOL0     H98649  11.376  -1.682   6.519  0.8851 -0.3840 -0.1692
  731MOL0     H98650  11.472  -1.563   6.611  0.1289  0.7403  1.7847
  731MOL0     H98651  11.275  -1.741   6.747  2.1014 -2.9703  0.3621
  731MOL0     H98652  11.434  -1.760   6.760 -0.1411 -0.1012  2.0580
  731MOL0     H98653  11.308  -1.487   6.844  0.2959  0.5114 -3.8033
  731MOL0     H98654  11.323  -1.614   6.959  0.2622  2.0904  0.8668
  731MOL0     H98655  11.563  -1.507   6.811 -1.4604 -1.3088 -1.4098
  731MOL0     H98656  11.568  -1.647   6.909  2.3751  0.4051  0.4171
  731MOL0     H98657  11.513  -1.536   7.105  0.9042 -0.5144  2.2018
  731MOL0     H98658  11.491  -1.377   7.010  1.6610  0.0535 -0.2631
  731MOL0     H98659  11.746  -1.529   7.061  1.1949  0.7704  1.9623
  731MOL0     H98660  11.743  -1.406   6.941  1.5586 -2.0638 -1.1944
  731MOL0     H98661  11.651  -1.240   7.129 -1.4667 -2.2519 -0.3492
  731MOL0     H98662  11.816  -1.292   7.131  1.6889 -1.0767  1.6860
  731MOL0     H98663  11.607  -1.442   7.290 -1.7638  0.1916 -1.5924
  731MOL0     H98664  11.777  -1.454   7.303 -2.4400 -2.2983  1.0386
  731MOL0     H98665  11.131  -1.718   6.520 -0.0534  0.9038 -2.5206
  731MOL0     H98666  10.890  -1.716   6.523 -3.0779  0.8267  2.7875
  731MOL0     H98667  10.525  -1.433   6.462  0.2485  1.5660 -0.2634
  731MOL0     H98668  10.284  -1.376   6.441 -0.1613  1.5673  0.8136
  731MOL0     H98669   9.095  -0.323   7.151 -1.5217 -0.5391 -2.2229
  731MOL0     H98670   9.248  -0.116   7.112 -1.1436  0.4138 -0.5088
  731MOL0     H98671   9.585   0.028   7.154 -3.1889 -0.8443 -1.4110
  731MOL0     H98672   9.744   0.211   7.174 -0.5297 -0.2052  0.3053
  731MOL0     H98673   9.901   0.342   7.119 -0.9820  0.1254 -0.3834
  731MOL0     H98674   9.799   0.469   7.181  1.8024 -1.5116  1.3230
  731MOL0     H98675  10.034   0.505   6.997 -0.7642 -0.0772 -0.3836
  731MOL0     H98676  10.066   0.530   7.159  0.1006 -1.1221 -1.0724
  731MOL0     H98677   9.867   0.702   7.165 -1.4474 -2.1425 -0.0395
  731MOL0     H98678   9.898   0.713   6.993 -0.4676 -2.7028 -0.2125
  731MOL0     H98679  10.155   0.741   7.073  1.3328  0.7875 -0.2000
  731MOL0     H98680  10.041   0.880   7.079  1.0025 -1.6476 -2.7390
  731MOL0     H98681  10.146   0.744   7.474  0.5551  0.0526 -0.3919
  731MOL0     H98682   9.586   0.409   6.827 -2.1821  1.4678  0.4129
  731MOL0     H98683   9.369   0.184   6.713  2.0517 -0.4975  0.9467
  731MOL0     H98684   9.270   0.246   6.854  1.0187  1.8950  0.6083
  731MOL0     H98685   9.358   0.358   6.765  2.6902  0.7210 -0.8468
  732MOL0     O98686   7.357   1.721   5.415  0.0128 -0.7639  0.4208
  732MOL0     C98687   7.329   1.614   5.376 -0.9812  0.5286  0.0103
  732MOL0     O98688   7.423   1.518   5.369  0.1944  0.8658  0.1339
  732MOL0     C98689   7.555   1.546   5.391 -0.6281  0.8043 -0.5853
  732MOL0     C98690   7.630   1.467   5.479 -0.9576  0.3219  0.0490
  732MOL0     C98691   7.765   1.496   5.511  0.5242  0.9179 -0.5535
  732MOL0     C98692   7.828   1.608   5.457  0.1237  0.3690 -1.4905
  732MOL0     O98693   7.957   1.625   5.494  0.1337 -0.7999  0.4663
  732MOL0     C98694   8.062   1.651   5.400 -0.0298  0.1002  0.4731
  732MOL0     C98695   8.190   1.727   5.445 -0.0725 -0.0518  0.6462
  732MOL0     C98696   8.262   1.668   5.563 -0.5370  0.0803  0.2750
  732MOL0     C98697   8.354   1.558   5.506  0.7787 -0.4109 -0.9919
  732MOL0     C98698   8.509   1.595   5.482  0.1246  0.0602  0.0141
  732MOL0     C98699   8.589   1.466   5.495  0.0969  0.3977 -0.4439
  732MOL0     C98700   8.735   1.508   5.460  0.8212 -0.1967 -0.2597
  732MOL0     C98701   8.829   1.390   5.443 -1.4849  0.1553 -0.0040
  732MOL0     N98702   8.964   1.422   5.397 -0.2274  0.3108 -0.1435
  732MOL0     C98703   9.042   1.323   5.344  0.4185 -0.3033  0.1896
  732MOL0     C98704   9.155   1.400   5.307 -0.0102 -0.3195 -0.0396
  732MOL0     C98705   9.271   1.351   5.228  0.3130 -0.5182 -0.7296
  732MOL0     C98706   9.388   1.333   5.321 -1.3513 -0.2477  0.8272
  732MOL0     C98707   9.503   1.264   5.250 -0.0005  0.0296  0.5695
  732MOL0     C98708   9.634   1.245   5.331  0.1791  1.1285 -0.6227
  732MOL0     O98709   9.715   1.371   5.338 -0.1243 -0.6367 -0.1415
  732MOL0     C98710   9.843   1.343   5.351  0.2752 -0.8880 -0.5146
  732MOL0     C98711   9.903   1.264   5.454 -0.2473  0.4068  0.4595
  732MOL0     C98712  10.041   1.247   5.477 -0.5378 -0.3057 -0.2397
  732MOL0     C98713  10.128   1.318   5.389  0.5252 -0.8397 -0.1408
  732MOL0     C98714  10.279   1.321   5.405  0.7895 -0.3213 -0.1923
  732MOL0     O98715  10.328   1.253   5.512 -1.1416 -0.2483  0.0927
  732MOL0     C98716  10.467   1.268   5.543  0.1500 -0.2411  1.1034
  732MOL0     C98717  10.545   1.383   5.522 -0.3815 -0.4454  0.6424
  732MOL0     C98718  10.682   1.384   5.537 -0.9619  0.4781 -0.5267
  732MOL0     C98719  10.755   1.272   5.578  0.0146  0.9850  0.6525
  732MOL0     O98720  10.892   1.256   5.600 -0.4073  0.1883  0.6963
  732MOL0     C98721  10.984   1.355   5.585  0.0895  0.0642  0.2774
  732MOL0     C98722  11.116   1.323   5.651  0.6112 -0.5386  0.1031
  732MOL0     C98723  11.232   1.409   5.604  0.0944 -0.0222  0.0845
  732MOL0     C98724  11.364   1.365   5.654  0.2595 -0.2462  0.4408
  732MOL0     C98725  11.474   1.456   5.608 -0.7686  0.0772  0.0661
  732MOL0     C98726  11.609   1.403   5.659 -0.3211  0.9897 -1.0902
  732MOL0     C98727  11.724   1.491   5.618 -0.3512  0.1304 -0.2446
  732MOL0     C98728  11.854   1.411   5.613 -0.2810  0.0666  0.4234
  732MOL0    Cl98729  12.002   1.513   5.589  0.1290  0.0384  0.1348
  732MOL0     C98730  10.673   1.160   5.605  0.1626  0.6678  0.3423
  732MOL0     C98731  10.536   1.152   5.597  0.4599 -0.4106  0.1471
  732MOL0     O98732  10.344   1.372   5.319 -0.8220  0.6731 -0.1676
  732MOL0     C98733  10.072   1.398   5.287  0.1027  0.5156  0.8411
  732MOL0     C98734   9.937   1.416   5.271  0.3482  0.1695  0.4979
  732MOL0     N98735   9.150   1.525   5.362  0.1515  0.2482 -0.2042
  732MOL0     N98736   9.034   1.534   5.408  0.0657  0.1817  0.7404
  732MOL0     C98737   7.753   1.684   5.362 -0.0315 -0.6954 -0.5762
  732MOL0     C98738   7.625   1.647   5.323 -0.7432 -0.1597  0.0410
  732MOL0     C98739   7.186   1.580   5.343 -0.1889 -0.6335  0.2537
  732MOL0     C98740   7.122   1.675   5.258 -0.2802  0.2331 -0.7653
  732MOL0     C98741   6.981   1.657   5.222  0.0762 -0.7582 -0.0077
  732MOL0     C98742   6.912   1.551   5.274 -0.1110 -0.0738  0.9956
  732MOL0     O98743   6.781   1.518   5.244 -0.4685 -0.7309  0.4849
  732MOL0     C98744   6.736   1.526   5.102 -0.1390 -0.6649 -0.2519
  732MOL0     C98745   6.782   1.413   5.011 -0.1492  0.4313 -0.1102
  732MOL0     C98746   6.720   1.436   4.864  0.1915  1.3044 -0.5848
  732MOL0     C98747   6.838   1.438   4.780  1.1347 -1.0468  0.6765
  732MOL0     C98748   6.790   1.464   4.646 -0.0994 -0.5488  0.4459
  732MOL0     C98749   6.774   1.481   4.529  0.0585 -0.3515  0.0963
  732MOL0     C98750   6.977   1.458   5.350  0.2949 -0.9561  0.3131
  732MOL0     C98751   7.115   1.470   5.384 -0.6714  0.6076  1.1331
  732MOL0     C98752   7.176   1.365   5.484  0.1853 -0.3586  0.3397
  732MOL0     H98753   7.578   1.379   5.516 -3.3796  0.6474 -2.2402
  732MOL0     H98754   7.829   1.447   5.583  1.4353 -0.1125 -1.9872
  732MOL0     H98755   8.085   1.552   5.360  0.7890 -0.0965  1.4211
  732MOL0     H98756   8.028   1.705   5.310  0.4134 -0.5053 -0.0710
  732MOL0     H98757   8.157   1.827   5.475 -3.1278 -1.0103  0.8424
  732MOL0     H98758   8.258   1.755   5.364 -0.1302  1.2141  1.0159
  732MOL0     H98759   8.198   1.609   5.630  1.3923 -2.6023 -0.0607
  732MOL0     H98760   8.322   1.746   5.609 -0.6096  1.8755 -2.4446
  732MOL0     H98761   8.339   1.482   5.583  0.7013  1.6327  1.1324
  732MOL0     H98762   8.314   1.526   5.409 -1.1088 -0.8011 -0.1313
  732MOL0     H98763   8.512   1.642   5.383 -1.7943  2.4038  0.9541
  732MOL0     H98764   8.537   1.664   5.562  1.7310  0.3321 -0.7390
  732MOL0     H98765   8.601   1.418   5.592  3.5791 -0.4658 -1.1479
  732MOL0     H98766   8.542   1.399   5.422 -3.5094  2.2543 -0.0175
  732MOL0     H98767   8.782   1.569   5.538 -1.7019  1.1106  0.3434
  732MOL0     H98768   8.731   1.571   5.372 -0.6705 -0.5064 -0.4324
  732MOL0     H98769   8.830   1.324   5.530 -2.2899 -1.0444 -0.8731
  732MOL0     H98770   8.794   1.343   5.350 -0.9425  0.7340 -0.5147
  732MOL0     H98771   9.021   1.218   5.324  0.2246 -0.8592  2.8206
  732MOL0     H98772   9.249   1.263   5.167 -0.3907 -0.4977 -0.5159
  732MOL0     H98773   9.308   1.433   5.166 -0.8103  2.3951  2.1636
  732MOL0     H98774   9.421   1.433   5.351 -3.5654  1.2849 -1.4582
  732MOL0     H98775   9.360   1.274   5.409 -0.9234 -0.1113  1.0582
  732MOL0     H98776   9.527   1.317   5.158 -0.2190  1.8759  1.5131
  732MOL0     H98777   9.472   1.167   5.210  4.0476  0.7062 -5.4535
  732MOL0     H98778   9.686   1.160   5.285  0.1966  2.3936 -3.1229
  732MOL0     H98779   9.607   1.216   5.433  3.1584  0.1367 -0.0257
  732MOL0     H98780   9.846   1.199   5.520  1.1376 -1.1032  0.2294
  732MOL0     H98781  10.076   1.188   5.561  1.7530  2.0184  0.5649
  732MOL0     H98782  10.497   1.477   5.497 -1.6151 -0.3894  3.0307
  732MOL0     H98783  10.739   1.472   5.507 -0.4909  1.0891  1.9663
  732MOL0     H98784  11.008   1.360   5.479 -0.3518 -0.2244  0.1607
  732MOL0     H98785  10.949   1.450   5.626  1.7128  0.8145  0.0037
  732MOL0     H98786  11.111   1.332   5.760  0.1356  1.3188 -0.0443
  732MOL0     H98787  11.121   1.215   5.635  1.5723 -0.4950  0.0358
  732MOL0     H98788  11.239   1.419   5.496  3.6360  0.7242  0.2499
  732MOL0     H98789  11.213   1.509   5.643  1.7724  0.4231 -0.1472
  732MOL0     H98790  11.379   1.263   5.618 -0.5121  0.4057 -1.9030
  732MOL0     H98791  11.355   1.352   5.762  1.7340  1.0843  0.7649
  732MOL0     H98792  11.457   1.555   5.651 -1.0722  0.0377  0.0343
  732MOL0     H98793  11.466   1.485   5.502 -0.6197  1.6472  0.4522
  732MOL0     H98794  11.610   1.389   5.768  2.1412 -1.4331 -1.3125
  732MOL0     H98795  11.620   1.304   5.614  1.2513  1.9654 -2.9748
  732MOL0     H98796  11.735   1.571   5.691 -0.0142  1.3216 -1.5477
  732MOL0     H98797  11.706   1.538   5.520  0.2370 -2.0919 -1.5010
  732MOL0     H98798  11.871   1.345   5.699 -1.1134 -0.5262  0.1383
  732MOL0     H98799  11.834   1.349   5.526 -0.2529 -2.4746  2.1018
  732MOL0     H98800  10.724   1.071   5.640 -0.2860 -0.4803 -1.7567
  732MOL0     H98801  10.476   1.063   5.612 -0.4708 -0.2073 -1.9742
  732MOL0     H98802  10.138   1.435   5.209  0.5199  0.0117  0.9514
  732MOL0     H98803   9.898   1.487   5.199 -0.2525 -1.3415 -0.7086
  732MOL0     H98804   7.806   1.770   5.321 -0.0857 -0.2746  0.2278
  732MOL0     H98805   7.581   1.686   5.232 -0.0899 -0.2757 -0.3293
  732MOL0     H98806   7.184   1.761   5.235  2.1133 -0.9980  0.7177
  732MOL0     H98807   6.928   1.736   5.169  1.9608 -0.4722 -1.5779
  732MOL0     H98808   6.770   1.620   5.056  0.9670 -0.1718  1.4613
  732MOL0     H98809   6.628   1.530   5.117 -0.0962  2.3598  0.0604
  732MOL0     H98810   6.761   1.308   5.037  2.2801  0.5191  2.8027
  732MOL0     H98811   6.891   1.410   5.014 -0.0519  2.3901 -0.7575
  732MOL0     H98812   6.656   1.525   4.855  0.0402  1.5074  1.7660
  732MOL0     H98813   6.653   1.351   4.846 -2.2631  3.1669 -0.8474
  732MOL0     H98814   6.910   1.519   4.794  1.3771 -0.9731 -0.8272
  732MOL0     H98815   6.881   1.338   4.783  2.3067 -0.5528  0.6657
  732MOL0     H98816   6.741   1.500   4.428 -0.0475  1.2039  0.3875
  732MOL0     H98817   6.927   1.380   5.406  4.2879 -2.0260  2.7797
  732MOL0     H98818   7.222   1.281   5.431  0.2720 -0.0753 -0.0393
  732MOL0     H98819   7.243   1.404   5.561 -0.0125  1.4849 -0.3544
  732MOL0     H98820   7.097   1.309   5.535  1.0156 -0.5510  1.4404
  733MOL0     O98821   8.763   8.870   3.260  0.4799 -0.2384 -0.1186
  733MOL0     C98822   8.723   8.755   3.246  0.1619  0.4541 -0.6630
  733MOL0     O98823   8.803   8.644   3.261  0.3780  0.7808  0.2473
  733MOL0     C98824   8.930   8.649   3.312 -0.6415  0.0370  0.1190
  733MOL0     C98825   9.018   8.763   3.337 -0.0743 -0.4425 -0.1079
  733MOL0     C98826   9.153   8.748   3.377  0.3896  0.4014  0.2119
  733MOL0     C98827   9.203   8.622   3.389  0.9747  0.5959 -0.2623
  733MOL0     O98828   9.324   8.615   3.446  0.5002  0.4370 -0.3367
  733MOL0     C98829   9.417   8.503   3.427  0.4854  0.0841 -0.1389
  733MOL0     C98830   9.552   8.520   3.497  0.3224  0.0509 -0.5454
  733MOL0     C98831   9.529   8.569   3.643 -0.4034  0.9867  0.0218
  733MOL0     C98832   9.659   8.609   3.717  0.3780 -1.2203  0.3328
  733MOL0     C98833   9.629   8.683   3.847 -0.5315  0.0064  0.4116
  733MOL0     C98834   9.539   8.609   3.952 -0.3151 -0.3420  1.2211
  733MOL0     C98835   9.609   8.507   4.038  0.3641 -0.3677 -0.0559
  733MOL0     C98836   9.683   8.388   3.973 -0.9094 -0.5151 -0.8620
  733MOL0     N98837   9.721   8.296   4.080  0.1978  0.8220 -0.9683
  733MOL0     C98838   9.720   8.323   4.215 -0.5686  0.3176  0.0257
  733MOL0     C98839   9.759   8.209   4.277  0.2852  0.1594  0.7285
  733MOL0     C98840   9.768   8.207   4.427 -0.3218  1.1555 -0.5386
  733MOL0     C98841   9.905   8.168   4.478 -0.1480 -0.0667  0.5746
  733MOL0     C98842  10.013   8.257   4.423 -0.6110  0.9475 -0.0886
  733MOL0     C98843  10.159   8.214   4.472 -0.5216  2.1667  1.0497
  733MOL0     O98844  10.250   8.289   4.389  0.0251 -0.1649 -0.8131
  733MOL0     C98845  10.365   8.326   4.446 -0.5982 -1.8266  0.1214
  733MOL0     C98846  10.482   8.260   4.420  0.3421  1.6648  0.3091
  733MOL0     C98847  10.612   8.309   4.462  0.0598  0.3796  0.1610
  733MOL0     C98848  10.629   8.414   4.548  0.9000 -0.7832 -0.8937
  733MOL0     C98849  10.756   8.463   4.597  0.2199 -0.0205  0.8000
  733MOL0     O98850  10.753   8.557   4.695  0.0993  1.0296  0.8515
  733MOL0     C98851  10.855   8.551   4.790  0.7822 -0.5943  0.0892
  733MOL0     C98852  10.818   8.499   4.914  0.3930  0.4680 -0.1129
  733MOL0     C98853  10.917   8.501   5.017 -0.2020 -0.2826 -0.8756
  733MOL0     C98854  11.052   8.546   4.990 -0.8703 -0.1166 -0.5862
  733MOL0     O98855  11.132   8.535   5.103 -0.8545  0.1830  0.2845
  733MOL0     C98856  11.245   8.623   5.116  1.0711 -1.0038  0.3676
  733MOL0     C98857  11.370   8.558   5.075  0.3205 -0.1364  0.6751
  733MOL0     C98858  11.405   8.434   5.159  0.9279 -0.9044  0.3031
  733MOL0     C98859  11.356   8.314   5.078 -0.2565 -0.1252  0.2910
  733MOL0     C98860  11.403   8.182   5.129 -0.0900  0.1494  0.1677
  733MOL0     C98861  11.342   8.135   5.263 -0.3348  0.2018  0.7520
  733MOL0     C98862  11.434   8.038   5.331  0.4128  0.3031 -0.2281
  733MOL0     C98863  11.382   7.993   5.459  0.0741  0.5132  0.5192
  733MOL0    Cl98864  11.361   8.114   5.589 -0.2644 -0.0575  0.1996
  733MOL0     C98865  11.085   8.593   4.860 -0.3079 -0.0095 -0.6639
  733MOL0     C98866  10.990   8.586   4.764  0.0289 -0.8202 -0.1955
  733MOL0     O98867  10.854   8.419   4.538 -0.1511  0.1717  0.2646
  733MOL0     C98868  10.509   8.484   4.589  0.6683  0.5735  0.0008
  733MOL0     C98869  10.381   8.440   4.534  0.0872 -0.2462 -0.6280
  733MOL0     N98870   9.792   8.113   4.185  0.2175 -0.6914  0.0583
  733MOL0     N98871   9.766   8.172   4.060  0.0012  0.4548 -0.2383
  733MOL0     C98872   9.129   8.512   3.341  0.3160  0.7820  0.9513
  733MOL0     C98873   8.993   8.524   3.314  0.5508  0.0655 -0.5144
  733MOL0     C98874   8.583   8.730   3.188  0.5505 -0.2628 -0.0827
  733MOL0     C98875   8.553   8.593   3.166 -0.2714 -0.8200  0.3443
  733MOL0     C98876   8.442   8.548   3.091  0.2652 -0.2703 -0.1180
  733MOL0     C98877   8.352   8.644   3.053  0.2769  0.0891 -0.4986
  733MOL0     O98878   8.246   8.616   2.981  0.1885 -0.5185 -0.3822
  733MOL0     C98879   8.191   8.485   2.958 -0.6799  0.1303  0.7519
  733MOL0     C98880   8.118   8.446   3.087  0.3228 -0.5591 -0.1407
  733MOL0     C98881   7.990   8.526   3.131  0.1708 -0.6106  0.0419
  733MOL0     C98882   7.879   8.511   3.027 -0.6722 -0.3171  0.1730
  733MOL0     C98883   7.763   8.602   3.066 -1.2688 -0.2323  0.1989
  733MOL0     C98884   7.669   8.661   3.108  0.5551  0.3900  0.0604
  733MOL0     C98885   8.377   8.778   3.086  0.1817  0.3500  0.9469
  733MOL0     C98886   8.479   8.826   3.167 -1.1768 -0.5051  0.2595
  733MOL0     C98887   8.478   8.967   3.209  0.4267  0.0549 -1.1502
  733MOL0     H98888   8.984   8.866   3.339  1.3346  0.0396  0.8612
  733MOL0     H98889   9.211   8.826   3.425 -2.1979  1.1044  2.4817
  733MOL0     H98890   9.364   8.420   3.475  0.3439  0.5054  0.4451
  733MOL0     H98891   9.437   8.498   3.320  0.0244  0.8510 -0.2699
  733MOL0     H98892   9.616   8.593   3.447 -0.0063 -0.8153 -2.3086
  733MOL0     H98893   9.600   8.422   3.501 -0.2354 -0.1794  0.6699
  733MOL0     H98894   9.478   8.490   3.700  0.7050  0.8686  0.8981
  733MOL0     H98895   9.460   8.654   3.645 -0.1750  1.2438 -1.7877
  733MOL0     H98896   9.727   8.523   3.722 -1.6619 -3.0093 -0.8317
  733MOL0     H98897   9.719   8.685   3.666  1.5647  0.0600  3.4273
  733MOL0     H98898   9.720   8.710   3.900  2.0393 -2.1980 -2.5159
  733MOL0     H98899   9.575   8.770   3.809  0.1940  1.6540  2.9509
  733MOL0     H98900   9.512   8.692   4.018 -0.9311  0.9321 -0.5393
  733MOL0     H98901   9.450   8.567   3.903 -1.8139  4.7596 -1.0972
  733MOL0     H98902   9.521   8.457   4.079 -0.0414  1.0300  0.8341
  733MOL0     H98903   9.663   8.547   4.124 -1.6302  0.6775  0.7717
  733MOL0     H98904   9.608   8.346   3.906 -2.1690 -0.7442  0.6312
  733MOL0     H98905   9.764   8.419   3.906  0.0233 -1.9203 -0.4294
  733MOL0     H98906   9.696   8.418   4.262 -1.5228  2.2137 -3.9289
  733MOL0     H98907   9.742   8.306   4.464  1.0471  1.3711 -0.0852
  733MOL0     H98908   9.690   8.143   4.468  1.1633 -0.9185 -0.7551
  733MOL0     H98909   9.906   8.188   4.586  0.0638 -0.0301  0.5663
  733MOL0     H98910   9.920   8.065   4.446  2.4146  0.9988 -2.0860
  733MOL0     H98911   9.992   8.360   4.452 -1.0327  0.2171  2.5329
  733MOL0     H98912  10.010   8.255   4.314  1.9852  0.2639 -0.2203
  733MOL0     H98913  10.185   8.108   4.464 -2.9919  1.6165 -1.1569
  733MOL0     H98914  10.174   8.244   4.576 -0.7615  0.2333  1.6869
  733MOL0     H98915  10.480   8.173   4.355  0.4502 -0.4226  2.9231
  733MOL0     H98916  10.699   8.252   4.431 -0.1232  0.3272 -0.2758
  733MOL0     H98917  10.721   8.458   4.939  0.4061 -2.4139 -4.0404
  733MOL0     H98918  10.898   8.462   5.116  1.3445  1.3628  0.1205
  733MOL0     H98919  11.220   8.712   5.057 -1.1803 -2.6531 -1.3934
  733MOL0     H98920  11.251   8.643   5.223 -3.4418  1.5631  0.3981
  733MOL0     H98921  11.363   8.533   4.969 -1.7806 -2.6510  1.3114
  733MOL0     H98922  11.450   8.633   5.074  1.3705 -1.2192  0.5008
  733MOL0     H98923  11.514   8.429   5.172  1.0894  1.8402  0.5976
  733MOL0     H98924  11.360   8.434   5.258 -0.8418  1.5001 -0.4136
  733MOL0     H98925  11.400   8.334   4.980 -0.2302  0.4576  0.4214
  733MOL0     H98926  11.247   8.313   5.073 -0.4919 -2.0849  3.2401
  733MOL0     H98927  11.511   8.192   5.138 -0.1078 -0.8541  1.9132
  733MOL0     H98928  11.391   8.109   5.049  4.3850  1.4263 -2.0058
  733MOL0     H98929  11.323   8.224   5.324  3.5564  0.2694  2.1201
  733MOL0     H98930  11.249   8.082   5.241  0.6041 -0.3527 -2.4765
  733MOL0     H98931  11.524   8.089   5.367 -1.2228  2.1224  1.5929
  733MOL0     H98932  11.451   7.955   5.262  1.6383  1.4121 -1.3064
  733MOL0     H98933  11.283   7.948   5.445  1.4850 -2.5254 -0.4764
  733MOL0     H98934  11.450   7.914   5.491 -0.0919  1.3378  3.1549
  733MOL0     H98935  11.188   8.623   4.844 -0.3372  0.5744  0.1360
  733MOL0     H98936  11.003   8.626   4.664 -1.2901  3.0892  1.0353
  733MOL0     H98937  10.511   8.580   4.640 -0.8874  0.9056 -0.5094
  733MOL0     H98938  10.296   8.505   4.546  0.7134  0.3901  0.5829
  733MOL0     H98939   9.176   8.415   3.341 -2.5683 -0.7837 -1.3096
  733MOL0     H98940   8.933   8.435   3.298 -0.0368  0.3095  0.3097
  733MOL0     H98941   8.613   8.512   3.208 -0.2137 -0.1025  1.7168
  733MOL0     H98942   8.433   8.446   3.053  0.3310  0.5122 -2.4165
  733MOL0     H98943   8.265   8.408   2.935 -1.1324  0.1825 -1.0384
  733MOL0     H98944   8.130   8.493   2.868 -0.6816 -1.1080  0.6343
  733MOL0     H98945   8.188   8.449   3.171  2.9416  0.6220 -2.2414
  733MOL0     H98946   8.089   8.340   3.078 -1.6731  0.0037 -0.9730
  733MOL0     H98947   8.012   8.633   3.128  1.0651 -0.7981 -1.2017
  733MOL0     H98948   7.961   8.509   3.235  1.2229 -1.8723  0.1582
  733MOL0     H98949   7.906   8.536   2.924  1.1944  1.9677  1.1213
  733MOL0     H98950   7.851   8.406   3.017 -3.2448  0.5288 -5.1863
  733MOL0     H98951   7.586   8.722   3.139 -1.2735 -1.2266 -1.4023
  733MOL0     H98952   8.303   8.852   3.057  0.5694  0.7323  0.9350
  733MOL0     H98953   8.508   9.000   3.309 -2.8305 -0.2464  0.0221
  733MOL0     H98954   8.543   9.019   3.137  3.0273 -2.6362 -0.9532
  733MOL0     H98955   8.374   9.001   3.204  0.6984  1.0384 -0.4422
  734MOL0     O98956  10.334   6.039   4.088 -0.3076 -0.0254  0.2063
  734MOL0     C98957  10.363   6.118   4.184  0.2592 -0.9121  0.5955
  734MOL0     O98958  10.292   6.238   4.210  0.5279 -0.1108 -0.1760
  734MOL0     C98959  10.223   6.302   4.107  0.3006  0.1992  0.4967
  734MOL0     C98960  10.090   6.345   4.132  0.4163  0.3779  1.2648
  734MOL0     C98961  10.002   6.385   4.030  0.8293 -0.1450  0.0516
  734MOL0     C98962  10.052   6.397   3.898  0.1692  0.1810 -0.3131
  734MOL0     O98963   9.959   6.449   3.810  0.3079  0.0583 -0.7390
  734MOL0     C98964   9.993   6.441   3.669  0.8675 -0.5040 -0.5658
  734MOL0     C98965   9.879   6.511   3.588  0.5479  0.1295 -0.0337
  734MOL0     C98966   9.876   6.652   3.638 -0.7603 -0.5943 -0.2429
  734MOL0     C98967   9.788   6.744   3.560  1.5988  0.2357 -0.2915
  734MOL0     C98968   9.637   6.718   3.581 -1.2849  0.4961  0.2685
  734MOL0     C98969   9.589   6.718   3.723 -0.2999  0.4138 -0.2523
  734MOL0     C98970   9.441   6.673   3.718  0.1252  0.1879  0.3137
  734MOL0     C98971   9.398   6.551   3.813 -0.4806  0.7796 -0.1167
  734MOL0     N98972   9.484   6.431   3.783  0.2201  0.2686  0.1365
  734MOL0     C98973   9.603   6.394   3.817 -0.2674  0.1403 -0.0428
  734MOL0     C98974   9.620   6.272   3.765  0.2419  0.0897 -0.3414
  734MOL0     C98975   9.753   6.194   3.771  0.9984 -0.0353  0.2282
  734MOL0     C98976   9.725   6.042   3.799 -0.6654 -0.9444  0.3453
  734MOL0     C98977   9.686   5.964   3.667 -0.4167 -0.5663  0.3214
  734MOL0     C98978   9.790   5.971   3.550 -0.1495 -0.2718  0.1623
  734MOL0     O98979   9.935   5.977   3.589  0.4301  0.0789  0.7787
  734MOL0     C98980   9.984   5.885   3.679 -0.0455  0.5057 -0.5355
  734MOL0     C98981  10.102   5.923   3.742  0.2909 -0.3290  0.4564
  734MOL0     C98982  10.152   5.844   3.836 -0.1596 -0.1160  0.1783
  734MOL0     C98983  10.109   5.714   3.842  0.0561 -0.2373  0.7007
  734MOL0     C98984  10.174   5.616   3.933  0.4189  0.0245  0.8420
  734MOL0     O98985  10.296   5.659   3.988  0.3528 -0.2956  0.3023
  734MOL0     C98986  10.346   5.600   4.106  0.5100 -0.8844 -0.3031
  734MOL0     C98987  10.484   5.572   4.110  0.0612 -0.8018  0.9908
  734MOL0     C98988  10.537   5.523   4.227 -0.4347 -0.3242  0.2950
  734MOL0     C98989  10.460   5.503   4.340 -0.2263  0.7622 -0.3007
  734MOL0     O98990  10.507   5.442   4.451 -0.3204 -0.2149 -0.2115
  734MOL0     C98991  10.639   5.371   4.451  0.2193  0.2188 -0.2347
  734MOL0     C98992  10.675   5.341   4.595  0.5545  0.4444 -0.2072
  734MOL0     C98993  10.746   5.210   4.621  1.3399 -0.5632  0.0892
  734MOL0     C98994  10.772   5.177   4.774  0.8015 -0.7345  1.0380
  734MOL0     C98995  10.873   5.059   4.759  0.6904 -0.3164 -0.5154
  734MOL0     C98996  10.907   5.001   4.900 -0.2743  0.0166 -0.4593
  734MOL0     C98997  11.023   5.093   4.962  1.0208 -0.3694  0.4705
  734MOL0     C98998  11.040   5.079   5.111  0.1078  0.2555 -0.6307
  734MOL0    Cl98999  11.120   4.916   5.114 -0.0334  0.1070 -0.0673
  734MOL0     C99000  10.323   5.544   4.333 -0.1773  0.9941  0.8019
  734MOL0     C99001  10.268   5.592   4.218  0.0526  0.0964 -0.0822
  734MOL0     O99002  10.119   5.509   3.955 -0.3047 -0.2088 -0.7489
  734MOL0     C99003   9.993   5.672   3.775  0.3383  0.1409  0.2059
  734MOL0     C99004   9.933   5.762   3.690 -0.5195  1.0152 -0.4911
  734MOL0     N99005   9.506   6.232   3.693 -0.5377 -0.6442 -0.3846
  734MOL0     N99006   9.416   6.319   3.728 -0.8889 -0.1730  0.1968
  734MOL0     C99007  10.184   6.353   3.870 -0.2211 -0.0817  0.0494
  734MOL0     C99008  10.266   6.302   3.971  0.7932  0.5277  0.4186
  734MOL0     C99009  10.463   6.067   4.284  0.2382  0.2151 -0.8807
  734MOL0     C99010  10.540   5.949   4.250 -0.4357 -0.7688 -0.1008
  734MOL0     C99011  10.624   5.885   4.337  0.9605 -0.5806 -0.2472
  734MOL0     C99012  10.632   5.935   4.470  0.4686 -0.0833  0.2788
  734MOL0     O99013  10.686   5.875   4.580 -0.6412 -1.1775  0.8991
  734MOL0     C99014  10.765   5.759   4.568  0.8257  0.4069  0.2705
  734MOL0     C99015  10.812   5.702   4.698 -0.1041  0.2191 -0.2451
  734MOL0     C99016  10.922   5.792   4.762  0.1212 -0.3506 -0.3860
  734MOL0     C99017  10.960   5.766   4.910 -1.1074  0.5854 -0.2325
  734MOL0     C99018  11.005   5.628   4.938  0.4055  0.3086 -0.4566
  734MOL0     C99019  11.041   5.517   4.970  0.1318  0.1059 -0.9304
  734MOL0     C99020  10.575   6.064   4.501 -0.1336 -0.7112 -1.2877
  734MOL0     C99021  10.485   6.124   4.415 -0.8693  0.3850 -0.2044
  734MOL0     C99022  10.413   6.240   4.472  0.0338 -0.0713  0.9656
  734MOL0     H99023  10.062   6.345   4.236  1.5111 -0.7465  1.5919
  734MOL0     H99024   9.900   6.419   4.045  0.7911  0.5831 -1.6002
  734MOL0     H99025  10.086   6.498   3.655  0.7205 -0.7597 -3.0613
  734MOL0     H99026  10.008   6.336   3.639 -0.3641 -0.6017 -0.9041
  734MOL0     H99027   9.781   6.465   3.604  0.6541 -0.6961 -1.6628
  734MOL0     H99028   9.896   6.502   3.481 -0.2648 -5.2871  0.0503
  734MOL0     H99029   9.977   6.694   3.639 -1.4622  1.4208 -2.4819
  734MOL0     H99030   9.842   6.654   3.742  1.9719  0.6187  0.7088
  734MOL0     H99031   9.810   6.841   3.604  3.8144 -0.5547  0.4601
  734MOL0     H99032   9.813   6.747   3.454  0.7278  1.1014 -0.4867
  734MOL0     H99033   9.577   6.788   3.522 -1.0656  1.0602  0.7148
  734MOL0     H99034   9.622   6.618   3.539 -0.5856 -0.4620  2.1994
  734MOL0     H99035   9.639   6.656   3.798 -3.9162 -0.4725  1.6105
  734MOL0     H99036   9.591   6.818   3.767  3.2148  0.3870 -0.0434
  734MOL0     H99037   9.407   6.644   3.618 -0.5307  0.2472  0.5161
  734MOL0     H99038   9.379   6.763   3.723  0.0075  0.2203 -1.3156
  734MOL0     H99039   9.422   6.584   3.915  1.3597 -0.5452 -0.0759
  734MOL0     H99040   9.294   6.525   3.796 -0.7445  0.3876  1.9040
  734MOL0     H99041   9.683   6.434   3.878 -0.0381 -0.4381  0.0398
  734MOL0     H99042   9.814   6.223   3.685  0.7544  2.3589  0.7945
  734MOL0     H99043   9.801   6.226   3.864  1.7072  2.3615 -0.8838
  734MOL0     H99044   9.811   5.990   3.841  1.0637  0.4189 -1.3400
  734MOL0     H99045   9.642   6.042   3.870  0.1691 -0.1823  1.3576
  734MOL0     H99046   9.589   6.001   3.633  0.4412  2.0252  0.5191
  734MOL0     H99047   9.673   5.862   3.705 -0.7826 -0.9475 -0.7800
  734MOL0     H99048   9.757   6.056   3.490 -2.0226 -2.4809 -2.1615
  734MOL0     H99049   9.782   5.885   3.483 -0.7538  1.1694 -1.6955
  734MOL0     H99050  10.140   6.024   3.750  0.6213 -0.5642  6.5778
  734MOL0     H99051  10.230   5.881   3.902  0.7325 -0.9253 -0.3999
  734MOL0     H99052  10.553   5.603   4.032 -0.4018  0.1961  0.9651
  734MOL0     H99053  10.644   5.514   4.239 -0.2263 -0.8120 -1.5495
  734MOL0     H99054  10.634   5.277   4.395 -0.9227 -0.1307  0.4290
  734MOL0     H99055  10.715   5.442   4.418 -0.1494  0.7375  0.0146
  734MOL0     H99056  10.737   5.419   4.639 -3.2932  2.9284  1.3798
  734MOL0     H99057  10.598   5.355   4.672  4.3683  3.0067  3.5570
  734MOL0     H99058  10.689   5.128   4.577 -0.0978 -0.6740  1.9981
  734MOL0     H99059  10.839   5.215   4.563  1.0085 -1.3252 -0.5205
  734MOL0     H99060  10.679   5.138   4.816 -0.2294 -3.3176 -2.9909
  734MOL0     H99061  10.804   5.266   4.828 -0.6787 -0.0730  0.8690
  734MOL0     H99062  10.965   5.085   4.705  0.5796  2.2765  0.3982
  734MOL0     H99063  10.834   4.979   4.697 -1.2930 -0.7667  1.1960
  734MOL0     H99064  10.813   5.003   4.955  0.8703  0.2173  1.6199
  734MOL0     H99065  10.931   4.894   4.897 -0.1287 -0.0727  2.0204
  734MOL0     H99066  10.991   5.192   4.929 -0.3573 -0.7983  0.4596
  734MOL0     H99067  11.119   5.072   4.913  1.6320  2.0292  0.5061
  734MOL0     H99068  11.111   5.152   5.152  1.7734 -0.1443 -2.6305
  734MOL0     H99069  10.940   5.068   5.153  0.2533 -1.9483 -0.7276
  734MOL0     H99070  10.267   5.538   4.426  2.0372 -0.3707  2.1500
  734MOL0     H99071  10.165   5.628   4.222  0.1830  0.5773 -0.8764
  734MOL0     H99072   9.958   5.571   3.793  0.0696  0.0803 -0.6018
  734MOL0     H99073   9.834   5.750   3.649 -1.2058  1.0204  1.0775
  734MOL0     H99074  10.202   6.354   3.763 -2.0426 -2.8790 -0.3918
  734MOL0     H99075  10.362   6.258   3.946  0.3411 -0.2077 -0.0896
  734MOL0     H99076  10.542   5.900   4.153 -1.3326 -1.7948  0.3845
  734MOL0     H99077  10.657   5.784   4.312 -0.4089 -1.1694  0.2480
  734MOL0     H99078  10.849   5.777   4.501  2.4897  0.7583  2.3191
  734MOL0     H99079  10.696   5.685   4.526 -0.7765  2.2215 -0.4325
  734MOL0     H99080  10.860   5.606   4.679 -1.8368 -0.5321 -1.0895
  734MOL0     H99081  10.727   5.680   4.764  0.1874 -2.2227 -0.5996
  734MOL0     H99082  10.896   5.897   4.748 -0.9022 -0.6146 -0.5572
  734MOL0     H99083  11.009   5.766   4.701 -1.9164 -3.4926 -2.2512
  734MOL0     H99084  11.040   5.834   4.942  1.9716 -2.4264 -0.9020
  734MOL0     H99085  10.869   5.792   4.964 -0.9004  1.2917 -0.2054
  734MOL0     H99086  11.056   5.416   5.002 -1.2231 -0.4816 -2.0244
  734MOL0     H99087  10.594   6.114   4.596  2.0199 -0.8387 -1.6105
  734MOL0     H99088  10.306   6.217   4.476 -0.8259  3.1610  0.0684
  734MOL0     H99089  10.432   6.270   4.576  0.4673 -1.0146  1.1606
  734MOL0     H99090  10.436   6.322   4.403 -1.3907 -0.1954  0.3096
  735MOL0     O99091   7.229   0.050   7.275  0.3368  0.3702  0.2780
  735MOL0     C99092   7.296   0.014   7.376 -0.4495  0.4624 -0.2736
  735MOL0     O99093   7.432   0.035   7.391 -0.8259 -0.4799  0.0870
  735MOL0     C99094   7.523   0.066   7.292  0.3550 -0.9843  0.3758
  735MOL0     C99095   7.504   0.088   7.153 -0.0074  0.9397  0.5802
  735MOL0     C99096   7.615   0.124   7.072 -1.1503  0.0623 -1.1036
  735MOL0     C99097   7.742   0.149   7.119  0.2295  0.3208  0.5073
  735MOL0     O99098   7.843   0.213   7.044 -0.7046 -0.0043  0.4102
  735MOL0     C99099   7.829   0.264   6.907 -0.0563 -0.0819  0.2373
  735MOL0     C99100   7.894   0.172   6.820 -0.5522  0.6559  0.8401
  735MOL0     C99101   8.049   0.159   6.834  0.6909 -0.1063 -0.2551
  735MOL0     C99102   8.113   0.051   6.749 -0.4790  0.5578 -0.2131
  735MOL0     C99103   8.265   0.044   6.744  0.3165  0.5447  0.9182
  735MOL0     C99104   8.346   0.029   6.871 -0.5886  0.3038  0.1172
  735MOL0     C99105   8.494   0.026   6.837 -0.2947 -0.2212  0.4020
  735MOL0     C99106   8.539  -0.097   6.758 -0.0484  0.1291  0.9873
  735MOL0     N99107   8.681  -0.106   6.722 -1.0014 -0.6136  0.1395
  735MOL0     C99108   8.771  -0.170   6.792 -0.1101 -0.3700 -0.0089
  735MOL0     C99109   8.888  -0.136   6.740 -0.1287 -0.3160  0.0916
  735MOL0     C99110   9.026  -0.184   6.795  0.9302 -0.1721  0.2922
  735MOL0     C99111   9.106  -0.271   6.703  0.4235  0.7850  0.2487
  735MOL0     C99112   9.203  -0.199   6.621 -0.6088 -0.6467 -1.1288
  735MOL0     C99113   9.256  -0.298   6.519 -0.3882 -0.4463 -0.3496
  735MOL0     O99114   9.322  -0.416   6.573 -0.8322 -0.3372  0.5509
  735MOL0     C99115   9.465  -0.421   6.562  0.2038 -0.4823 -0.2529
  735MOL0     C99116   9.552  -0.343   6.475 -0.1787 -0.1529 -0.3175
  735MOL0     C99117   9.687  -0.349   6.483 -0.0007 -0.5171  0.7536
  735MOL0     C99118   9.756  -0.423   6.586 -0.5599  0.4705 -0.3047
  735MOL0     C99119   9.903  -0.423   6.600 -0.5359  1.0612 -1.0453
  735MOL0     O99120   9.954  -0.513   6.695  0.2170 -1.0188 -0.2936
  735MOL0     C99121  10.065  -0.476   6.767 -0.0070 -0.2569  0.2580
  735MOL0     C99122  10.080  -0.347   6.815 -0.1243  0.6736  0.9399
  735MOL0     C99123  10.186  -0.319   6.888 -0.5535  0.8139  0.6386
  735MOL0     C99124  10.293  -0.412   6.917  0.7111 -0.2273 -0.4022
  735MOL0     O99125  10.394  -0.380   7.009  0.1142  0.2102  0.2363
  735MOL0     C99126  10.509  -0.474   7.012 -0.0535  0.4910  0.0218
  735MOL0     C99127  10.615  -0.433   7.110 -0.6327 -0.4952 -0.1704
  735MOL0     C99128  10.695  -0.296   7.090  0.9958  0.4055 -0.1962
  735MOL0     C99129  10.759  -0.257   7.224 -0.4311  0.4230 -0.2662
  735MOL0     C99130  10.877  -0.166   7.226 -0.4601  0.0167  1.2131
  735MOL0     C99131  10.843  -0.034   7.148  0.5633 -0.4451 -0.5532
  735MOL0     C99132  10.871   0.103   7.221 -0.7255  0.5157 -0.1583
  735MOL0     C99133  10.787   0.211   7.151 -0.2218 -0.5874  0.1982
  735MOL0    Cl99134  10.873   0.258   6.997  0.1293 -0.1728 -0.3883
  735MOL0     C99135  10.274  -0.541   6.864  0.6861  0.3086  0.0646
  735MOL0     C99136  10.162  -0.567   6.781 -0.1953 -0.1118  0.0895
  735MOL0     O99137   9.970  -0.340   6.539 -0.4288 -0.2476 -0.1500
  735MOL0     C99138   9.676  -0.514   6.657  0.1374 -0.3511  0.5295
  735MOL0     C99139   9.536  -0.508   6.648  0.2381 -0.6202  0.5585
  735MOL0     N99140   8.869  -0.040   6.644 -0.7279 -0.9784  0.8461
  735MOL0     N99141   8.747  -0.033   6.626  0.6204  0.2526  0.4379
  735MOL0     C99142   7.758   0.129   7.256 -0.4937 -0.7427  0.2119
  735MOL0     C99143   7.653   0.088   7.343 -0.6210 -0.4049  0.1990
  735MOL0     C99144   7.223  -0.061   7.487 -0.3250  0.6569  0.2128
  735MOL0     C99145   7.280  -0.067   7.622 -0.4096  0.5002  0.7423
  735MOL0     C99146   7.226  -0.142   7.726 -0.6341  0.1193 -0.1554
  735MOL0     C99147   7.097  -0.194   7.706 -0.6468 -0.5687  0.4313
  735MOL0     O99148   7.050  -0.275   7.803 -0.0951  0.5376 -0.2678
  735MOL0     C99149   6.911  -0.263   7.835  0.1530  0.2567  0.1942
  735MOL0     C99150   6.890  -0.385   7.919  0.2952  0.2989  0.1461
  735MOL0     C99151   6.861  -0.506   7.831  0.5127  1.4181 -0.5303
  735MOL0     C99152   6.831  -0.632   7.926 -0.0275  0.1198 -0.2147
  735MOL0     C99153   6.957  -0.671   7.998  0.7981  0.4934  0.4243
  735MOL0     C99154   7.057  -0.677   8.071 -0.2430  0.0967  0.1453
  735MOL0     C99155   7.025  -0.171   7.586 -0.6387  0.2549 -0.2594
  735MOL0     C99156   7.087  -0.103   7.477  0.4818 -0.5241  0.4445
  735MOL0     C99157   7.002  -0.094   7.358 -0.4541 -0.3762  1.1871
  735MOL0     H99158   7.407   0.065   7.108  0.5162 -3.6962  1.2989
  735MOL0     H99159   7.584   0.123   6.968 -2.4010  1.1627 -0.7629
  735MOL0     H99160   7.724   0.261   6.875 -0.3011  2.5308  0.6175
  735MOL0     H99161   7.871   0.363   6.891  0.9200 -0.3579  0.9801
  735MOL0     H99162   7.855   0.187   6.719 -1.0599  0.1757  0.9589
  735MOL0     H99163   7.856   0.073   6.847  1.5651 -0.4286  0.0116
  735MOL0     H99164   8.071   0.141   6.940 -1.2424  0.6640  0.3464
  735MOL0     H99165   8.082   0.260   6.807 -1.0604  0.3035 -1.0131
  735MOL0     H99166   8.086  -0.049   6.785 -1.7490  1.6254  2.0406
  735MOL0     H99167   8.075   0.068   6.649 -0.9375 -0.9360 -0.3125
  735MOL0     H99168   8.283  -0.049   6.689 -0.9672  0.2469  0.9776
  735MOL0     H99169   8.303   0.116   6.671 -0.0435 -1.7161 -1.6846
  735MOL0     H99170   8.330   0.115   6.938  0.1378  1.6750 -1.4069
  735MOL0     H99171   8.318  -0.067   6.916  1.1393  1.0562  3.1541
  735MOL0     H99172   8.546   0.033   6.933 -0.1767  0.1096  0.3152
  735MOL0     H99173   8.516   0.109   6.769 -2.3495  0.9571  1.1005
  735MOL0     H99174   8.516  -0.186   6.818 -1.4813  1.6746  2.8560
  735MOL0     H99175   8.491  -0.103   6.660  0.1749  0.5038  0.8552
  735MOL0     H99176   8.746  -0.238   6.873 -0.6841 -0.9890 -0.6903
  735MOL0     H99177   9.080  -0.092   6.822  0.3806 -0.0423  0.9977
  735MOL0     H99178   9.003  -0.237   6.888  1.2165  1.7455  1.5276
  735MOL0     H99179   9.159  -0.337   6.773  0.1517  0.9987  0.6620
  735MOL0     H99180   9.036  -0.336   6.649 -0.5671  3.1398 -1.4883
  735MOL0     H99181   9.283  -0.165   6.688 -1.0029 -1.6786 -0.0896
  735MOL0     H99182   9.161  -0.108   6.578  2.3146 -0.3050 -3.6148
  735MOL0     H99183   9.322  -0.238   6.456  2.1718 -0.4426  2.1645
  735MOL0     H99184   9.172  -0.330   6.456  0.4867 -0.6147 -1.4480
  735MOL0     H99185   9.502  -0.284   6.399  1.2689 -1.2446 -2.2112
  735MOL0     H99186   9.738  -0.293   6.405 -0.6422 -0.2362  0.5257
  735MOL0     H99187  10.002  -0.272   6.803 -0.6317  0.1448  0.8894
  735MOL0     H99188  10.191  -0.215   6.921 -0.7387  0.2234  2.6964
  735MOL0     H99189  10.477  -0.572   7.050  0.9140  0.2067  0.1425
  735MOL0     H99190  10.551  -0.488   6.912 -1.5416 -0.9561 -0.4382
  735MOL0     H99191  10.562  -0.435   7.206  0.6215 -2.0111  0.5473
  735MOL0     H99192  10.682  -0.520   7.110  0.3589  0.2605 -0.7739
  735MOL0     H99193  10.770  -0.300   7.010  1.8798  2.9109  0.4072
  735MOL0     H99194  10.613  -0.226   7.069  0.7114 -0.4357 -2.0594
  735MOL0     H99195  10.784  -0.348   7.280 -0.7439  0.2668 -0.3778
  735MOL0     H99196  10.677  -0.203   7.272 -1.1662 -0.7280 -0.1907
  735MOL0     H99197  10.960  -0.216   7.173 -0.4623  0.4762  0.7697
  735MOL0     H99198  10.915  -0.133   7.323  3.7968  0.9957 -0.5371
  735MOL0     H99199  10.894  -0.028   7.051 -0.0476 -1.5573 -0.9608
  735MOL0     H99200  10.737  -0.035   7.121  0.2397 -0.6307  0.6593
  735MOL0     H99201  10.974   0.130   7.195 -1.3507  0.9226 -2.3653
  735MOL0     H99202  10.863   0.112   7.330  0.8455 -1.6488  0.2076
  735MOL0     H99203  10.684   0.181   7.131 -0.6745  1.3934 -0.7639
  735MOL0     H99204  10.773   0.301   7.213 -0.3165 -0.6690  0.2975
  735MOL0     H99205  10.342  -0.623   6.885  0.8931  1.0583  2.7095
  735MOL0     H99206  10.163  -0.664   6.734  1.2514  0.7120 -1.6901
  735MOL0     H99207   9.729  -0.569   6.734 -2.4596 -0.6744  2.2150
  735MOL0     H99208   9.479  -0.565   6.721  1.0504  0.7046  2.3038
  735MOL0     H99209   7.858   0.148   7.295  0.1317 -0.3051 -1.5144
  735MOL0     H99210   7.682   0.070   7.446  1.6241 -2.1084 -0.6426
  735MOL0     H99211   7.376  -0.019   7.632  0.2428 -1.1520  3.1714
  735MOL0     H99212   7.285  -0.155   7.816  0.1173 -1.5192 -0.8461
  735MOL0     H99213   6.850  -0.269   7.745  1.8946 -3.0342 -0.9676
  735MOL0     H99214   6.891  -0.166   7.880  0.5460  0.0798  0.7751
  735MOL0     H99215   6.811  -0.365   7.992 -1.3978 -0.1076 -1.4856
  735MOL0     H99216   6.981  -0.393   7.979  1.2569  0.1605 -1.2670
  735MOL0     H99217   6.938  -0.514   7.754  0.6060  2.3963 -0.5407
  735MOL0     H99218   6.776  -0.471   7.772  1.1871  1.4270 -1.5245
  735MOL0     H99219   6.742  -0.607   7.985 -2.5218  0.0491 -3.6892
  735MOL0     H99220   6.801  -0.717   7.865  0.7195 -0.9819  0.8818
  735MOL0     H99221   7.149  -0.669   8.125  0.7110  3.5558 -1.6735
  735MOL0     H99222   6.944  -0.238   7.560  1.4109 -2.2555 -0.6720
  735MOL0     H99223   6.897  -0.116   7.380 -0.0719 -2.5786  1.0280
  735MOL0     H99224   7.006   0.004   7.310  1.8587 -0.9710  0.0077
  735MOL0     H99225   7.033  -0.158   7.274 -1.0577  1.7388 -0.7581
  736MOL0     O99226  10.494   1.575   1.884  0.0319  0.1524 -0.0457
  736MOL0     C99227  10.552   1.603   1.991 -0.2099 -0.9345  0.6246
  736MOL0     O99228  10.483   1.621   2.105  0.1804 -0.5131  0.6485
  736MOL0     C99229  10.348   1.621   2.106 -0.3898 -0.7514  1.0102
  736MOL0     C99230  10.271   1.727   2.055 -0.8540  0.1691 -0.0651
  736MOL0     C99231  10.134   1.730   2.082  0.9157  0.2653 -1.1339
  736MOL0     C99232  10.072   1.616   2.138 -0.2122  0.2454  0.0713
  736MOL0     O99233   9.941   1.618   2.157 -0.0903  0.4086 -0.2384
  736MOL0     C99234   9.875   1.532   2.064 -0.3799 -0.2084  0.1318
  736MOL0     C99235   9.752   1.463   2.112  0.0057  0.0430 -0.6035
  736MOL0     C99236   9.660   1.557   2.176  0.3249 -0.0187 -0.9465
  736MOL0     C99237   9.555   1.471   2.232 -0.6598  0.5114  0.1273
  736MOL0     C99238   9.455   1.556   2.312 -0.1030  0.4922 -0.3079
  736MOL0     C99239   9.353   1.474   2.393  1.4358  1.2961  0.2747
  736MOL0     C99240   9.241   1.552   2.450  0.5329  0.0101  0.4615
  736MOL0     C99241   9.135   1.474   2.524 -0.3967  0.2945 -0.5482
  736MOL0     N99242   9.041   1.576   2.588 -0.9918  0.7105  0.1424
  736MOL0     C99243   9.026   1.586   2.724  0.5281 -0.0694 -0.0517
  736MOL0     C99244   8.894   1.638   2.735  0.1800 -0.2283  0.7805
  736MOL0     C99245   8.825   1.647   2.874 -0.4860 -0.3550 -0.0526
  736MOL0     C99246   8.818   1.799   2.916  0.9765  0.5799  0.2293
  736MOL0     C99247   8.949   1.846   2.973 -0.2624  0.3166 -0.1650
  736MOL0     C99248   8.951   1.979   3.039  0.0080  0.1641  0.4196
  736MOL0     O99249   9.079   2.005   3.096  0.3101  0.3974 -0.2957
  736MOL0     C99250   9.198   2.036   3.026  0.4861 -0.2420 -0.6898
  736MOL0     C99251   9.310   2.060   3.105 -0.3232  0.7701  0.3074
  736MOL0     C99252   9.435   2.059   3.047 -0.1876 -0.5714 -0.0223
  736MOL0     C99253   9.463   2.048   2.911  0.0306  0.6532 -0.4410
  736MOL0     C99254   9.600   2.046   2.856  0.1423 -0.1437  0.2446
  736MOL0     O99255   9.701   2.043   2.954  0.6654 -1.1053 -0.6445
  736MOL0     C99256   9.833   2.038   2.923 -0.7289  1.0131  0.8062
  736MOL0     C99257   9.918   1.979   3.014  0.0762  0.1950 -0.4612
  736MOL0     C99258  10.054   1.966   2.997  0.2734  0.1048 -0.7112
  736MOL0     C99259  10.112   2.012   2.885  0.7589 -0.2116 -0.6876
  736MOL0     O99260  10.244   1.994   2.860 -0.4262 -0.4716  1.5688
  736MOL0     C99261  10.346   2.016   2.965  0.5262 -0.7698  0.7753
  736MOL0     C99262  10.446   2.122   2.923  0.5706 -0.2442  0.6851
  736MOL0     C99263  10.525   2.082   2.794 -0.2875 -0.3489 -0.0131
  736MOL0     C99264  10.646   2.174   2.790  0.5002  0.2760  0.2436
  736MOL0     C99265  10.718   2.178   2.660 -0.3183 -0.3199 -0.6705
  736MOL0     C99266  10.781   2.049   2.613 -0.3145 -0.3035  0.8936
  736MOL0     C99267  10.874   2.052   2.486  0.6564  0.4073 -0.1146
  736MOL0     C99268  10.954   2.185   2.474 -0.9801  0.7688 -0.5430
  736MOL0    Cl99269  10.843   2.316   2.415  0.0223 -0.0273 -0.2207
  736MOL0     C99270  10.031   2.062   2.780 -0.0727  0.4781  0.3256
  736MOL0     C99271   9.898   2.076   2.802  0.0234 -0.2571  0.0820
  736MOL0     O99272   9.615   2.047   2.732  0.7068 -0.1673 -0.0282
  736MOL0     C99273   9.351   2.047   2.833  0.4387 -0.3594 -0.0039
  736MOL0     C99274   9.226   2.036   2.893  0.2599 -0.6013  0.3253
  736MOL0     N99275   8.849   1.665   2.608  0.3479 -0.3368  0.1990
  736MOL0     N99276   8.940   1.639   2.518  0.5192  0.0783  0.2624
  736MOL0     C99277  10.144   1.508   2.197  0.6939 -0.1821 -0.0584
  736MOL0     C99278  10.289   1.516   2.182 -0.0965  0.1795  0.8781
  736MOL0     C99279  10.703   1.607   1.996 -0.4125  0.1492  0.0666
  736MOL0     C99280  10.773   1.579   1.879 -1.1741  0.0066  0.4482
  736MOL0     C99281  10.910   1.577   1.856  0.1764 -0.3441 -0.5881
  736MOL0     C99282  10.988   1.604   1.974  0.7914  0.3519  0.2818
  736MOL0     O99283  11.129   1.594   1.970 -0.6430  0.6484  0.3994
  736MOL0     C99284  11.180   1.481   1.887 -0.2887 -0.3899  0.1468
  736MOL0     C99285  11.322   1.445   1.930  0.8847  0.4623 -0.5140
  736MOL0     C99286  11.428   1.538   1.857  0.5822  0.9100  0.6644
  736MOL0     C99287  11.426   1.688   1.888 -0.3203  0.1264  1.0075
  736MOL0     C99288  11.560   1.746   1.858 -0.1902  1.3276  0.8760
  736MOL0     C99289  11.665   1.806   1.852  0.0764 -0.3871  0.4682
  736MOL0     C99290  10.925   1.635   2.093  1.2574 -0.7717 -0.5252
  736MOL0     C99291  10.790   1.647   2.109 -0.8125  0.1003 -0.2785
  736MOL0     C99292  10.740   1.711   2.229  0.0818 -0.8864  1.1715
  736MOL0     H99293  10.329   1.807   2.009  1.3750  0.4517  2.8788
  736MOL0     H99294  10.072   1.816   2.058  0.8312 -0.1344 -2.4278
  736MOL0     H99295   9.843   1.604   1.988 -3.9673 -1.7227  0.0163
  736MOL0     H99296   9.936   1.457   2.013  0.4525  1.8503 -2.0757
  736MOL0     H99297   9.787   1.385   2.181  4.2036  3.1564  1.2272
  736MOL0     H99298   9.706   1.413   2.027 -1.8708 -1.8773  1.3992
  736MOL0     H99299   9.622   1.634   2.108  3.9655 -0.4114 -3.7335
  736MOL0     H99300   9.719   1.615   2.247  1.2932 -0.4387 -1.3880
  736MOL0     H99301   9.500   1.404   2.164  0.6764 -0.9026  0.3894
  736MOL0     H99302   9.600   1.409   2.310  1.1597 -0.5936 -1.7255
  736MOL0     H99303   9.520   1.609   2.381  0.7126 -0.0841 -0.6131
  736MOL0     H99304   9.413   1.617   2.231  1.2340 -1.7260 -2.8187
  736MOL0     H99305   9.311   1.391   2.335  0.9134 -0.5399  3.0608
  736MOL0     H99306   9.405   1.427   2.477  1.2465  2.4645  1.0749
  736MOL0     H99307   9.193   1.626   2.385  0.4415  0.7468  1.3368
  736MOL0     H99308   9.283   1.614   2.530 -2.8848  1.5152  1.2834
  736MOL0     H99309   9.102   1.390   2.462  3.4570 -1.0805 -1.0473
  736MOL0     H99310   9.190   1.429   2.608 -0.7054  0.6179 -0.1658
  736MOL0     H99311   9.065   1.538   2.813 -0.7731  2.5124  2.0554
  736MOL0     H99312   8.725   1.604   2.867  0.2385 -2.3220  0.7870
  736MOL0     H99313   8.868   1.589   2.957 -3.7964 -1.6889  0.8712
  736MOL0     H99314   8.783   1.862   2.834 -1.3712 -2.3403 -1.2032
  736MOL0     H99315   8.738   1.798   2.990  1.2382  4.7022  0.8069
  736MOL0     H99316   9.028   1.843   2.898 -0.7793 -0.9129 -0.7026
  736MOL0     H99317   8.959   1.764   3.045  1.5563 -1.3363 -2.1745
  736MOL0     H99318   8.880   1.970   3.122 -0.4278 -0.9704 -0.0537
  736MOL0     H99319   8.935   2.060   2.967  0.9794 -0.1803 -0.2026
  736MOL0     H99320   9.300   2.073   3.212  1.7324  1.2185  0.4948
  736MOL0     H99321   9.518   2.075   3.116  0.1566 -2.0600 -0.0626
  736MOL0     H99322   9.884   1.934   3.106  0.6221 -1.2849 -0.9595
  736MOL0     H99323  10.110   1.921   3.079 -3.0875 -1.9823  0.6838
  736MOL0     H99324  10.303   2.053   3.059  0.7964 -1.4619  1.1736
  736MOL0     H99325  10.395   1.922   2.990  2.5505 -0.4386 -1.5114
  736MOL0     H99326  10.392   2.217   2.916 -0.6548 -0.8872  1.0641
  736MOL0     H99327  10.518   2.129   3.005  1.1707 -1.6552  0.3145
  736MOL0     H99328  10.547   1.976   2.813 -1.4250 -0.6202 -0.1030
  736MOL0     H99329  10.462   2.089   2.705  2.2394  2.4449 -1.7249
  736MOL0     H99330  10.721   2.147   2.864  2.7122  2.8270 -0.8929
  736MOL0     H99331  10.609   2.276   2.805 -1.1122 -0.1328 -0.6380
  736MOL0     H99332  10.805   2.244   2.670 -1.9594  2.0876 -1.2399
  736MOL0     H99333  10.648   2.225   2.590 -1.2759  2.8597  2.1376
  736MOL0     H99334  10.859   2.014   2.681  2.7868 -0.3832 -2.3392
  736MOL0     H99335  10.705   1.971   2.610 -1.8751  1.1566  1.2813
  736MOL0     H99336  10.804   2.043   2.403 -0.6160 -2.3389  1.1430
  736MOL0     H99337  10.928   1.957   2.482 -2.8436 -1.6937 -2.4901
  736MOL0     H99338  11.003   2.206   2.569 -1.3312 -0.4203 -0.0828
  736MOL0     H99339  11.032   2.166   2.400 -0.1051 -1.7016  0.9158
  736MOL0     H99340  10.070   2.097   2.685  0.1221 -0.4788  0.0396
  736MOL0     H99341   9.840   2.125   2.725 -0.6229 -1.6756 -0.3713
  736MOL0     H99342   9.362   2.048   2.725 -0.6314  0.4503 -0.1265
  736MOL0     H99343   9.144   2.034   2.821  0.9153  0.5083 -0.4856
  736MOL0     H99344  10.105   1.424   2.254  1.7021  0.2179  1.2826
  736MOL0     H99345  10.352   1.437   2.223  2.0162  1.1630 -0.3198
  736MOL0     H99346  10.714   1.547   1.793 -1.9536 -0.0525  0.9902
  736MOL0     H99347  10.949   1.550   1.758 -2.0955 -1.7021 -1.1896
  736MOL0     H99348  11.184   1.519   1.785 -0.3389  4.9278  1.8425
  736MOL0     H99349  11.116   1.394   1.904 -1.6762  0.4324 -0.6882
  736MOL0     H99350  11.339   1.339   1.906 -1.7687  0.3147 -2.0831
  736MOL0     H99351  11.320   1.456   2.039  2.2976  0.3309 -0.4469
  736MOL0     H99352  11.424   1.523   1.749 -2.7504  1.8189  0.5524
  736MOL0     H99353  11.526   1.498   1.885 -0.1010 -2.6388 -1.4079
  736MOL0     H99354  11.354   1.749   1.832  0.3906 -0.1875 -0.2809
  736MOL0     H99355  11.416   1.701   1.996 -1.6285  1.4607  0.7546
  736MOL0     H99356  11.764   1.846   1.837  0.1074  0.8081  3.2270
  736MOL0     H99357  10.993   1.659   2.174  1.4960  1.9325 -1.4052
  736MOL0     H99358  10.822   1.765   2.278 -0.3885 -0.5117  1.5563
  736MOL0     H99359  10.665   1.784   2.198  1.8210  0.0129 -1.1908
  736MOL0     H99360  10.689   1.645   2.300 -1.0854  0.8464  2.0229
  737MOL0     O99361   0.281   4.851   6.329 -0.8188 -0.6842 -0.0463
  737MOL0     C99362   0.173   4.848   6.379  0.1061 -0.8901  0.4275
  737MOL0     O99363   0.150   4.875   6.513  0.5042  0.2451  0.1339
  737MOL0     C99364   0.258   4.854   6.604 -0.2616 -0.2850  0.0855
  737MOL0     C99365   0.284   4.730   6.666 -0.4041  0.7752  0.4296
  737MOL0     C99366   0.396   4.722   6.749  0.3636  0.5661 -1.2441
  737MOL0     C99367   0.486   4.827   6.771 -0.3672 -1.0274  0.3941
  737MOL0     O99368   0.591   4.810   6.861  0.5789  0.3123 -0.0898
  737MOL0     C99369   0.693   4.728   6.799 -0.3158  0.5863  1.0140
  737MOL0     C99370   0.810   4.720   6.893 -0.2427 -0.1721 -0.4855
  737MOL0     C99371   0.785   4.622   7.009 -0.0378 -1.3319  0.5243
  737MOL0     C99372   0.909   4.619   7.105  0.3996  0.2833  0.1552
  737MOL0     C99373   0.852   4.559   7.227  0.7557 -1.0685 -0.6516
  737MOL0     C99374   0.959   4.546   7.329  0.2079  0.2570  0.3858
  737MOL0     C99375   0.901   4.479   7.462  0.0549  0.5406 -0.3056
  737MOL0     C99376   1.014   4.453   7.572 -0.2994 -0.5787 -0.1853
  737MOL0     N99377   0.959   4.397   7.694 -0.4643 -0.0083 -0.6866
  737MOL0     C99378   0.900   4.276   7.707 -0.8563  0.4232 -0.3404
  737MOL0     C99379   0.881   4.268   7.839  0.0050  0.4747  0.1393
  737MOL0     C99380   0.813   4.152   7.896  0.2626  0.7948  0.2313
  737MOL0     C99381   0.897   4.071   7.993  0.3601 -0.4660  0.3914
  737MOL0     C99382   0.931   4.149   8.120 -0.1566  0.2955 -0.1838
  737MOL0     C99383   1.052   4.076   8.187 -1.2665  0.1173  0.4040
  737MOL0     O99384   1.083   4.120   8.320 -0.6829 -0.3546  0.0406
  737MOL0     C99385   1.206   4.103   8.363  0.4083 -0.2451  0.3187
  737MOL0     C99386   1.317   4.051   8.301  0.7385  0.1157  0.3231
  737MOL0     C99387   1.450   4.041   8.353  0.1946  0.0681  0.5509
  737MOL0     C99388   1.471   4.080   8.483  0.9664 -0.1852  0.1070
  737MOL0     C99389   1.597   4.056   8.552 -0.0739 -0.5253  0.4270
  737MOL0     O99390   1.600   4.121   8.668  0.1646  0.0992 -0.1080
  737MOL0     C99391   1.715   4.106   8.737  0.3627  0.0694 -0.4525
  737MOL0     C99392   1.720   4.032   8.859 -0.0207 -0.0929 -0.5106
  737MOL0     C99393   1.844   4.005   8.918 -0.7839  0.5758 -0.1503
  737MOL0     C99394   1.966   4.043   8.861 -0.5478 -0.0488 -0.0606
  737MOL0     O99395   2.077   4.009   8.921 -0.6932  0.8132  0.6569
  737MOL0     C99396   2.139   4.095   9.011 -0.2974  0.6234  0.4178
  737MOL0     C99397   2.216   4.021   9.112  0.2654 -0.4973  0.1086
  737MOL0     C99398   2.256   4.112   9.233  0.1489  0.3561  0.2352
  737MOL0     C99399   2.153   4.124   9.344 -0.8093 -0.0403  0.3016
  737MOL0     C99400   2.205   4.221   9.454 -0.0175  0.6512 -0.8572
  737MOL0     C99401   2.315   4.184   9.547 -0.3067  0.6322 -0.3291
  737MOL0     C99402   2.307   4.035   9.597 -0.6359  0.9110  0.2680
  737MOL0     C99403   2.423   3.989   9.690  0.6670 -0.5904  0.5007
  737MOL0    Cl99404   2.382   4.078   9.835 -0.6829 -0.0744 -0.0307
  737MOL0     C99405   1.959   4.117   8.740  0.5311  0.4662  0.1362
  737MOL0     C99406   1.837   4.152   8.682 -0.6340 -0.3113  0.1644
  737MOL0     O99407   1.681   3.982   8.503 -0.4739  0.3929 -0.1741
  737MOL0     C99408   1.359   4.152   8.546  1.0079  0.0913 -0.4789
  737MOL0     C99409   1.231   4.155   8.494  0.2134  1.1063 -0.6108
  737MOL0     N99410   0.919   4.383   7.903  1.2716  0.1309  0.3835
  737MOL0     N99411   0.958   4.465   7.807  0.2510  0.4355 -0.7614
  737MOL0     C99412   0.465   4.947   6.710 -0.1046 -0.3836  0.9509
  737MOL0     C99413   0.348   4.962   6.624 -0.2773  0.7868  0.0745
  737MOL0     C99414   0.046   4.849   6.293 -0.2112 -0.3873 -0.3396
  737MOL0     C99415  -0.063   4.922   6.345 -0.1195  0.2715 -0.3132
  737MOL0     C99416  -0.177   4.938   6.266 -0.0871 -0.7952 -0.3101
  737MOL0     C99417  -0.190   4.904   6.133 -0.3565  0.3710 -0.4451
  737MOL0     O99418  -0.294   4.942   6.060 -0.2229  0.2347 -0.6195
  737MOL0     C99419  -0.364   4.834   5.991  0.3850 -0.1073  0.9140
  737MOL0     C99420  -0.441   4.890   5.866  0.2446  0.5897 -0.1462
  737MOL0     C99421  -0.351   4.956   5.771 -0.8574 -0.1537  0.0814
  737MOL0     C99422  -0.438   4.984   5.653 -0.2128  0.1677  1.0099
  737MOL0     C99423  -0.352   5.019   5.538 -0.4873 -0.0427  0.1617
  737MOL0     C99424  -0.260   5.054   5.460  0.3524  0.1139  0.4758
  737MOL0     C99425  -0.078   4.846   6.078 -0.0266 -0.0847  0.7311
  737MOL0     C99426   0.045   4.822   6.152 -0.5694  0.2180 -0.2801
  737MOL0     C99427   0.162   4.757   6.080 -0.0153 -0.5004  0.6647
  737MOL0     H99428   0.217   4.646   6.651 -0.2718  0.5551  1.0552
  737MOL0     H99429   0.408   4.626   6.798 -0.0269  0.0430 -2.1565
  737MOL0     H99430   0.650   4.632   6.772  0.3962  0.5834 -0.1833
  737MOL0     H99431   0.723   4.777   6.706 -1.6927  1.0613  0.8010
  737MOL0     H99432   0.825   4.824   6.923  0.6907 -0.3656 -0.2619
  737MOL0     H99433   0.902   4.680   6.850  0.4569 -0.7703  1.4642
  737MOL0     H99434   0.762   4.523   6.967 -1.2750 -0.9683  0.3065
  737MOL0     H99435   0.692   4.646   7.061  0.7440 -2.4598  2.5367
  737MOL0     H99436   0.986   4.555   7.061  3.4405  1.9553  2.6117
  737MOL0     H99437   0.970   4.709   7.123  2.4334 -1.3415  1.8972
  737MOL0     H99438   0.777   4.631   7.261  2.5096  0.4093  0.2865
  737MOL0     H99439   0.811   4.458   7.212  1.6527 -1.2117 -2.3490
  737MOL0     H99440   1.039   4.485   7.285 -0.6015  1.0382 -2.3861
  737MOL0     H99441   1.000   4.646   7.346 -2.9506  1.5456  1.1749
  737MOL0     H99442   0.862   4.380   7.437  4.1389 -1.4252  0.3128
  737MOL0     H99443   0.815   4.540   7.493 -2.1684 -2.0011 -1.1445
  737MOL0     H99444   1.109   4.405   7.544  0.6385  1.6890 -1.1488
  737MOL0     H99445   1.054   4.550   7.602 -0.5882 -1.0458  1.8603
  737MOL0     H99446   0.891   4.201   7.629  1.2741 -1.7276  1.3204
  737MOL0     H99447   0.734   4.200   7.954  2.2361  2.2067  1.8967
  737MOL0     H99448   0.764   4.090   7.821 -1.9894  1.1917  1.3010
  737MOL0     H99449   0.851   3.978   8.026 -0.7909 -0.0876 -0.0803
  737MOL0     H99450   0.989   4.056   7.936  0.4836  3.6930 -0.8314
  737MOL0     H99451   0.844   4.153   8.186  1.6193 -0.0152  2.3420
  737MOL0     H99452   0.954   4.254   8.098  0.8710  0.7169  2.4911
  737MOL0     H99453   1.131   4.102   8.115 -1.2298  3.1174  1.3777
  737MOL0     H99454   1.041   3.967   8.189 -0.6512 -0.0985 -2.9285
  737MOL0     H99455   1.300   4.002   8.206 -0.4204 -1.4516  1.2820
  737MOL0     H99456   1.527   3.993   8.294  0.1544 -0.6985  1.1095
  737MOL0     H99457   1.631   3.990   8.906  0.1327 -4.5159 -3.4987
  737MOL0     H99458   1.840   3.959   9.017  0.7358  0.9781  0.1242
  737MOL0     H99459   2.211   4.159   8.959  0.5817  1.1638  2.2090
  737MOL0     H99460   2.063   4.157   9.059 -0.3681  1.1335 -0.3431
  737MOL0     H99461   2.145   3.945   9.144  0.0962  0.5289  2.3241
  737MOL0     H99462   2.308   3.977   9.072  0.5209  1.1225 -1.2373
  737MOL0     H99463   2.346   4.066   9.276 -0.2833  0.0507  0.8218
  737MOL0     H99464   2.284   4.210   9.193 -0.7348  1.1063  1.3995
  737MOL0     H99465   2.150   4.021   9.380 -1.8035 -0.9690 -2.2360
  737MOL0     H99466   2.057   4.155   9.304 -0.0618  0.3626 -1.2450
  737MOL0     H99467   2.118   4.227   9.520  2.3754  1.3258  2.4611
  737MOL0     H99468   2.228   4.317   9.406  0.8220  1.1071  0.4087
  737MOL0     H99469   2.409   4.205   9.496 -0.1485 -1.0557 -0.7917
  737MOL0     H99470   2.314   4.249   9.635  0.2979 -1.7116  1.5153
  737MOL0     H99471   2.307   3.967   9.512  2.5823  1.2813 -0.1467
  737MOL0     H99472   2.211   4.023   9.648 -0.1280 -1.9405  0.6682
  737MOL0     H99473   2.433   3.881   9.701  1.2179 -0.4396  1.6284
  737MOL0     H99474   2.514   4.031   9.646  1.1079 -1.0070  1.0106
  737MOL0     H99475   2.050   4.128   8.682 -0.1231 -3.9299 -2.2197
  737MOL0     H99476   1.819   4.230   8.608 -0.0539 -0.9917 -0.7097
  737MOL0     H99477   1.380   4.208   8.636  0.9949  0.2117 -0.5514
  737MOL0     H99478   1.149   4.204   8.546  0.4940  0.4718  0.4588
  737MOL0     H99479   0.532   5.028   6.739  1.3094 -1.5799  1.1440
  737MOL0     H99480   0.327   5.050   6.563 -0.1123 -0.4216 -1.8034
  737MOL0     H99481  -0.078   4.953   6.448  1.8307  2.8102 -0.7094
  737MOL0     H99482  -0.264   4.992   6.301 -1.2199 -1.9928 -1.2217
  737MOL0     H99483  -0.446   4.785   6.043 -2.2078 -1.3451 -3.7975
  737MOL0     H99484  -0.303   4.753   5.948 -2.3148 -1.4084 -0.7332
  737MOL0     H99485  -0.524   4.952   5.900  1.2839  3.4675 -2.4377
  737MOL0     H99486  -0.484   4.800   5.820 -0.5791  1.0732 -0.3440
  737MOL0     H99487  -0.263   4.899   5.741 -1.2360 -0.4210 -0.5420
  737MOL0     H99488  -0.319   5.055   5.802  1.4513 -0.2069 -1.9041
  737MOL0     H99489  -0.507   4.907   5.617 -1.1853  0.9666  1.1042
  737MOL0     H99490  -0.506   5.067   5.672  0.9141  1.3673 -0.0370
  737MOL0     H99491  -0.182   5.079   5.391  2.3635 -1.2398  2.1298
  737MOL0     H99492  -0.089   4.837   5.971 -1.5236  0.1076  0.8543
  737MOL0     H99493   0.125   4.719   5.984  1.9451  2.4214 -1.4112
  737MOL0     H99494   0.242   4.831   6.066  0.0647 -0.6986  0.0583
  737MOL0     H99495   0.194   4.674   6.144  0.3841  1.7907  3.6944
  738MOL0     O99496   0.221   4.410   7.899 -0.7955  0.2408 -0.1066
  738MOL0     C99497   0.159   4.394   7.796 -0.0827  0.7461  0.0480
  738MOL0     O99498   0.216   4.413   7.676  0.9072 -0.0328 -0.0341
  738MOL0     C99499   0.328   4.490   7.674 -0.3352  0.0499  0.7383
  738MOL0     C99500   0.461   4.447   7.716  0.4748  0.6977 -0.5733
  738MOL0     C99501   0.569   4.525   7.713  0.4981  0.5556 -0.1619
  738MOL0     C99502   0.550   4.659   7.679  0.5467 -0.2106  0.2484
  738MOL0     O99503   0.661   4.739   7.652 -0.5627  0.0412 -0.1016
  738MOL0     C99504   0.769   4.724   7.748 -0.0908  0.1866 -0.0037
  738MOL0     C99505   0.824   4.865   7.794 -0.3940 -0.5810  0.0311
  738MOL0     C99506   0.948   4.833   7.891 -0.1662 -0.7255 -1.0241
  738MOL0     C99507   1.036   4.959   7.908 -0.2867 -0.0304  0.2641
  738MOL0     C99508   1.164   4.912   7.981  0.0782 -0.4983  0.1576
  738MOL0     C99509   1.268   5.025   7.960 -0.5543  0.4637  0.1745
  738MOL0     C99510   1.369   5.014   8.072 -0.4931 -0.7471  0.3581
  738MOL0     C99511   1.507   5.090   8.043  0.1735 -0.8236 -0.4989
  738MOL0     N99512   1.596   5.094   8.165  0.3156 -0.4332  0.0920
  738MOL0     C99513   1.567   5.158   8.281  0.0385  0.1423 -0.5606
  738MOL0     C99514   1.686   5.179   8.342 -0.0618  0.2902  0.7621
  738MOL0     C99515   1.710   5.280   8.451 -1.0189 -0.8284 -0.0182
  738MOL0     C99516   1.753   5.421   8.399 -0.6645  0.3595  0.1887
  738MOL0     C99517   1.892   5.430   8.330  0.4314 -0.8906 -0.3496
  738MOL0     C99518   2.014   5.401   8.420 -0.9401 -0.5147  0.0443
  738MOL0     O99519   2.129   5.399   8.332  0.3351  0.4507  0.2630
  738MOL0     C99520   2.156   5.278   8.260  0.9633 -0.3938 -0.6667
  738MOL0     C99521   2.215   5.286   8.133  0.4910  0.7034 -0.5720
  738MOL0     C99522   2.212   5.189   8.035  0.2579  0.1066 -0.0521
  738MOL0     C99523   2.166   5.058   8.077  0.8195  0.3356  0.1268
  738MOL0     C99524   2.139   4.938   7.984 -0.3802  0.2594  0.1027
  738MOL0     O99525   2.076   4.824   8.035  0.4750 -0.1381 -0.5759
  738MOL0     C99526   2.034   4.718   7.952  0.2313 -0.3656 -0.0660
  738MOL0     C99527   2.114   4.658   7.855  0.5360 -0.1122  0.3001
  738MOL0     C99528   2.073   4.548   7.780  1.1154 -0.6290 -0.3566
  738MOL0     C99529   1.938   4.503   7.791 -0.3855 -0.0258  0.5742
  738MOL0     O99530   1.891   4.401   7.710 -0.3847  0.4851  0.3112
  738MOL0     C99531   1.749   4.373   7.719 -0.3896  0.1840 -0.4201
  738MOL0     C99532   1.710   4.263   7.633  0.6055  0.3475  0.9947
  738MOL0     C99533   1.715   4.280   7.478 -0.7751 -0.2624 -0.1708
  738MOL0     C99534   1.577   4.345   7.439  0.3060  0.7476  0.7682
  738MOL0     C99535   1.573   4.369   7.289  0.3756 -0.0938  0.5653
  738MOL0     C99536   1.632   4.505   7.247  1.0785 -0.5952  0.3126
  738MOL0     C99537   1.623   4.538   7.096 -0.3623 -0.2677  0.4691
  738MOL0     C99538   1.714   4.660   7.077  0.6572 -0.7187  0.2150
  738MOL0    Cl99539   1.734   4.690   6.906  0.3935 -0.5466  0.1858
  738MOL0     C99540   1.866   4.549   7.899 -0.2725  0.0827  0.3568
  738MOL0     C99541   1.910   4.660   7.977  0.3715  0.8794 -0.3441
  738MOL0     O99542   2.198   4.949   7.872  0.4062 -0.2885 -0.6381
  738MOL0     C99543   2.122   5.041   8.209 -0.6579 -0.1051 -0.3293
  738MOL0     C99544   2.118   5.146   8.300 -0.0453  0.1043  0.4866
  738MOL0     N99545   1.786   5.116   8.265 -0.4787 -0.0465 -0.2054
  738MOL0     N99546   1.725   5.062   8.157  0.8419  0.0072 -0.0492
  738MOL0     C99547   0.425   4.704   7.642 -0.2210  0.0429  0.4449
  738MOL0     C99548   0.313   4.628   7.642  0.2675  0.4596  0.7513
  738MOL0     C99549   0.015   4.350   7.799 -0.0897 -0.1331  0.5083
  738MOL0     C99550  -0.076   4.401   7.705  0.2441  0.5379  0.6997
  738MOL0     C99551  -0.211   4.353   7.701  0.2835  0.2357 -0.9300
  738MOL0     C99552  -0.261   4.289   7.810 -0.0927 -0.2856 -0.4209
  738MOL0     O99553  -0.389   4.281   7.823  0.1723  0.0334  0.6441
  738MOL0     C99554  -0.437   4.330   7.947  0.8342 -0.2509  0.6233
  738MOL0     C99555  -0.590   4.300   7.972 -0.0473 -0.7240  0.4038
  738MOL0     C99556  -0.685   4.395   7.884 -0.5522  0.2352 -0.9828
  738MOL0     C99557  -0.830   4.345   7.913  0.7012 -0.1875  0.3758
  738MOL0     C99558  -0.930   4.421   7.831  0.3513  0.2490 -0.1505
  738MOL0     C99559  -0.999   4.501   7.775  0.1290 -0.8784 -0.1796
  738MOL0     C99560  -0.173   4.228   7.898 -0.2933  0.5025 -0.5812
  738MOL0     C99561  -0.035   4.257   7.896 -0.3744  0.4426  0.2207
  738MOL0     C99562   0.055   4.194   7.998 -0.2225 -0.6751 -0.3544
  738MOL0     H99563   0.469   4.339   7.728 -3.1154  0.3234 -0.3277
  738MOL0     H99564   0.667   4.481   7.730 -0.3133 -1.0947  0.4261
  738MOL0     H99565   0.748   4.658   7.832 -1.5193 -0.3062 -0.7237
  738MOL0     H99566   0.851   4.671   7.700  0.3341  0.7420  0.0991
  738MOL0     H99567   0.750   4.919   7.853 -0.1862 -0.0964 -0.1512
  738MOL0     H99568   0.866   4.926   7.714 -0.5004 -2.8033 -1.8280
  738MOL0     H99569   1.006   4.762   7.832  1.1794 -2.1856  1.8540
  738MOL0     H99570   0.923   4.778   7.983  1.0643 -0.9100 -0.7839
  738MOL0     H99571   1.057   5.006   7.811  0.0541 -0.2157  0.2432
  738MOL0     H99572   0.985   5.039   7.962  1.2347  1.0627  0.1395
  738MOL0     H99573   1.156   4.894   8.088  0.4199 -0.0323  0.2648
  738MOL0     H99574   1.211   4.819   7.947  1.6308 -0.4311  1.9553
  738MOL0     H99575   1.308   5.010   7.860  0.0661 -0.4045  0.5374
  738MOL0     H99576   1.209   5.117   7.961  0.2785  1.0948 -2.3838
  738MOL0     H99577   1.395   4.908   8.080  1.3541 -0.4292 -0.8661
  738MOL0     H99578   1.332   5.042   8.171 -1.6907 -3.0662  0.6490
  738MOL0     H99579   1.564   5.055   7.956  1.1428 -0.5223  0.0009
  738MOL0     H99580   1.478   5.193   8.018 -0.7164  0.3026  4.1300
  738MOL0     H99581   1.469   5.198   8.306 -0.3519 -0.4726 -1.0894
  738MOL0     H99582   1.620   5.283   8.513 -1.2294 -0.2070 -0.3364
  738MOL0     H99583   1.790   5.240   8.514  0.1423  0.7641 -0.4124
  738MOL0     H99584   1.679   5.457   8.327  0.6307  1.6913 -0.5343
  738MOL0     H99585   1.736   5.492   8.480 -1.8893 -0.2376  0.4775
  738MOL0     H99586   1.901   5.536   8.304  0.5888 -0.8830 -0.2717
  738MOL0     H99587   1.898   5.377   8.235  2.1406 -1.6320  0.1307
  738MOL0     H99588   1.989   5.301   8.454  2.0643 -1.4697 -0.2776
  738MOL0     H99589   2.031   5.465   8.507  0.7040 -2.3155  1.1227
  738MOL0     H99590   2.245   5.384   8.097  1.5918  0.1241 -1.2505
  738MOL0     H99591   2.251   5.196   7.934  0.0061 -2.2168 -0.3475
  738MOL0     H99592   2.211   4.702   7.834  0.3793  0.1490  0.1116
  738MOL0     H99593   2.139   4.515   7.701  2.2161  0.6075  0.0163
  738MOL0     H99594   1.728   4.340   7.822 -0.4845 -0.9045 -0.7812
  738MOL0     H99595   1.688   4.461   7.697  0.2777  0.9289  0.5836
  738MOL0     H99596   1.771   4.177   7.661 -0.0564 -0.2478  0.6528
  738MOL0     H99597   1.611   4.227   7.664  1.6284 -2.7124  1.0658
  738MOL0     H99598   1.798   4.345   7.445 -0.5742  0.7719  2.1746
  738MOL0     H99599   1.724   4.184   7.427 -1.2526  0.3546 -1.4823
  738MOL0     H99600   1.559   4.433   7.501 -0.0804 -0.2447  2.1054
  738MOL0     H99601   1.493   4.281   7.468 -1.3889  2.1548 -0.7817
  738MOL0     H99602   1.466   4.370   7.264  0.6825  1.8144 -0.9643
  738MOL0     H99603   1.622   4.293   7.228  0.4005 -0.0490  0.5290
  738MOL0     H99604   1.597   4.585   7.313  0.8975  1.6721 -2.3431
  738MOL0     H99605   1.738   4.496   7.274  0.5304  0.6268  3.3389
  738MOL0     H99606   1.519   4.559   7.070 -0.5572 -1.2023  0.4699
  738MOL0     H99607   1.658   4.461   7.026 -3.0941  0.7329 -2.2095
  738MOL0     H99608   1.665   4.743   7.130 -0.8697 -0.8895 -0.8663
  738MOL0     H99609   1.811   4.637   7.122  1.8265 -3.2003 -3.2090
  738MOL0     H99610   1.773   4.503   7.931 -0.5734 -3.0606 -4.0127
  738MOL0     H99611   1.839   4.706   8.045  1.5550  1.2552  0.6705
  738MOL0     H99612   2.094   4.941   8.239 -1.4220  0.5100  1.1106
  738MOL0     H99613   2.078   5.130   8.400  0.5063  0.1923  0.7279
  738MOL0     H99614   0.414   4.801   7.596 -0.1111  1.4340  3.1652
  738MOL0     H99615   0.212   4.664   7.627  0.3149  0.4788  0.4725
  738MOL0     H99616  -0.049   4.467   7.624 -1.0131  0.3663  0.1085
  738MOL0     H99617  -0.285   4.399   7.636 -0.3104  1.6873  0.6878
  738MOL0     H99618  -0.424   4.437   7.967  0.2356 -0.3330  1.5009
  738MOL0     H99619  -0.392   4.276   8.031 -0.8568  0.2986  1.9227
  738MOL0     H99620  -0.605   4.323   8.078 -1.1040  0.4080  0.0340
  738MOL0     H99621  -0.619   4.195   7.959 -0.0741 -0.5148 -1.5560
  738MOL0     H99622  -0.670   4.385   7.776  0.1702  0.4045 -0.9002
  738MOL0     H99623  -0.670   4.497   7.918 -0.3253 -0.3185  0.6531
  738MOL0     H99624  -0.847   4.238   7.901  1.1073 -0.1075 -1.1683
  738MOL0     H99625  -0.837   4.375   8.018  2.6270  2.6216 -0.1971
  738MOL0     H99626  -1.049   4.577   7.719  0.8091 -0.4922 -0.2742
  738MOL0     H99627  -0.214   4.168   7.979  1.8753 -1.2949 -0.7423
  738MOL0     H99628   0.077   4.263   8.079 -1.6726  1.4553 -1.6473
  738MOL0     H99629   0.002   4.114   8.050  2.2637 -1.8588  0.5034
  738MOL0     H99630   0.142   4.143   7.956  1.4321 -2.1659  4.3202
  739MOL0     O99631   4.529   1.447   8.330  0.2865 -0.5420 -0.4587
  739MOL0     C99632   4.529   1.541   8.405  0.7292  1.4852  0.4293
  739MOL0     O99633   4.418   1.610   8.439 -0.1281 -0.3030 -0.4504
  739MOL0     C99634   4.433   1.729   8.511 -0.1118  0.0654 -0.8519
  739MOL0     C99635   4.478   1.841   8.445 -0.5769  0.3350  0.4658
  739MOL0     C99636   4.490   1.964   8.497  0.5506  0.8705 -0.6864
  739MOL0     C99637   4.433   1.978   8.623  0.2998 -0.2919  0.5073
  739MOL0     O99638   4.426   2.117   8.656 -0.1971  0.0976  0.4441
  739MOL0     C99639   4.418   2.142   8.799  0.0004  0.0943  0.5417
  739MOL0     C99640   4.418   2.296   8.828  0.0301  0.0323  0.0605
  739MOL0     C99641   4.547   2.372   8.778  0.0805  0.5400 -0.0416
  739MOL0     C99642   4.682   2.346   8.830  0.1417 -0.0868 -0.0703
  739MOL0     C99643   4.774   2.448   8.778 -0.9224  0.0461 -0.1676
  739MOL0     C99644   4.909   2.453   8.858  0.0065  0.1269  0.5149
  739MOL0     C99645   5.011   2.549   8.790 -0.5832 -0.4027 -0.6084
  739MOL0     C99646   5.147   2.533   8.865  0.0399 -0.1270 -1.2441
  739MOL0     N99647   5.268   2.610   8.805 -0.3640 -0.2292 -0.7846
  739MOL0     C99648   5.312   2.615   8.680 -0.2053 -0.6318  0.8121
  739MOL0     C99649   5.421   2.701   8.684  0.0551 -0.3518 -0.3723
  739MOL0     C99650   5.500   2.743   8.560  0.3466 -0.3643  0.4999
  739MOL0     C99651   5.562   2.631   8.465 -0.8817  0.2723 -0.0010
  739MOL0     C99652   5.666   2.546   8.539 -0.0950  0.0469  0.3182
  739MOL0     C99653   5.729   2.433   8.454 -0.5841 -0.6488  0.0069
  739MOL0     O99654   5.831   2.489   8.372 -1.1251  0.5597  0.0542
  739MOL0     C99655   5.958   2.525   8.423  0.7844 -0.1958 -0.2713
  739MOL0     C99656   5.995   2.518   8.560  0.2753  0.0210  1.0749
  739MOL0     C99657   6.118   2.555   8.607 -1.2516  0.6763 -0.3947
  739MOL0     C99658   6.212   2.608   8.511  0.4614  0.0351  0.5851
  739MOL0     C99659   6.340   2.654   8.562 -0.8100  0.4736 -0.2712
  739MOL0     O99660   6.334   2.695   8.694 -0.2065  0.4503 -0.0353
  739MOL0     C99661   6.453   2.733   8.754  0.7173  0.4887  0.3640
  739MOL0     C99662   6.499   2.656   8.866  0.0809 -0.6167 -0.4706
  739MOL0     C99663   6.611   2.706   8.934  0.0477 -0.0477 -0.4687
  739MOL0     C99664   6.684   2.809   8.883 -0.0526 -0.7062 -0.5343
  739MOL0     O99665   6.800   2.832   8.941 -0.8534  1.2111 -0.2572
  739MOL0     C99666   6.869   2.955   8.920 -0.3656 -0.4470 -0.0651
  739MOL0     C99667   6.866   3.015   9.061 -0.4450 -0.1748  0.6691
  739MOL0     C99668   6.978   3.123   9.090 -0.8439 -0.1935  0.2560
  739MOL0     C99669   6.978   3.245   8.994  0.2170 -0.0491 -0.4048
  739MOL0     C99670   7.093   3.340   9.015  1.1782 -0.3579  0.3554
  739MOL0     C99671   7.084   3.462   8.935 -0.6531 -0.4724  0.1977
  739MOL0     C99672   7.081   3.429   8.785 -1.2342 -0.8928 -0.2007
  739MOL0     C99673   7.121   3.546   8.693  0.2217  0.2805  0.8960
  739MOL0    Cl99674   7.300   3.558   8.664  0.1587 -0.7644  0.2332
  739MOL0     C99675   6.648   2.872   8.765 -0.5742 -0.1045 -0.2518
  739MOL0     C99676   6.530   2.833   8.696  0.2257  0.2463 -0.6961
  739MOL0     O99677   6.432   2.663   8.477 -0.7454 -0.4811  0.1176
  739MOL0     C99678   6.177   2.604   8.376 -0.0222 -0.6979 -0.2924
  739MOL0     C99679   6.054   2.554   8.329  1.0753 -0.0966  0.3052
  739MOL0     N99680   5.442   2.758   8.813  0.2386  0.0956  0.2216
  739MOL0     N99681   5.346   2.692   8.883  0.5372  0.1051  0.4159
  739MOL0     C99682   4.382   1.876   8.703  0.4972  0.0337 -0.1771
  739MOL0     C99683   4.389   1.746   8.642 -1.0673  0.6800  0.8098
  739MOL0     C99684   4.662   1.583   8.461  0.3018  0.0171 -0.7340
  739MOL0     C99685   4.678   1.569   8.605  0.3265  0.9731  0.1081
  739MOL0     C99686   4.791   1.596   8.671 -0.2179 -0.3361 -0.0995
  739MOL0     C99687   4.903   1.629   8.602  0.0584 -0.6077  0.1137
  739MOL0     O99688   5.019   1.660   8.664  1.2157  0.3749 -0.0774
  739MOL0     C99689   5.097   1.562   8.730 -0.0875  0.1982 -0.0962
  739MOL0     C99690   5.199   1.509   8.633 -0.3763 -0.5147 -1.0702
  739MOL0     C99691   5.317   1.600   8.600 -0.5945  0.8136  0.4801
  739MOL0     C99692   5.308   1.752   8.582 -0.2457  0.5517 -0.0653
  739MOL0     C99693   5.433   1.818   8.540 -0.6050  0.6468  0.5399
  739MOL0     C99694   5.544   1.867   8.514  0.9215  0.2362 -0.4237
  739MOL0     C99695   4.898   1.628   8.460 -0.7646  0.1648  0.1096
  739MOL0     C99696   4.774   1.609   8.389  0.1428 -1.1643 -0.4113
  739MOL0     C99697   4.768   1.624   8.242  0.6536 -0.2190 -0.0668
  739MOL0     H99698   4.501   1.832   8.339 -0.9902  0.3531  0.3737
  739MOL0     H99699   4.505   2.056   8.440 -3.2046  0.4675 -2.6231
  739MOL0     H99700   4.324   2.101   8.836  0.5252 -1.8524 -0.1565
  739MOL0     H99701   4.502   2.099   8.854  0.1326 -1.5666 -0.8928
  739MOL0     H99702   4.397   2.319   8.933 -2.2925 -0.2213 -0.2902
  739MOL0     H99703   4.336   2.339   8.769 -0.0901 -0.8719 -0.4358
  739MOL0     H99704   4.513   2.475   8.790 -0.6467  0.4312 -1.0053
  739MOL0     H99705   4.558   2.362   8.670  1.2323  1.0020  0.0233
  739MOL0     H99706   4.666   2.357   8.938 -4.7982 -0.8479 -0.5056
  739MOL0     H99707   4.715   2.243   8.813  1.4038  0.3992 -0.6766
  739MOL0     H99708   4.801   2.448   8.673  1.6552 -1.0616  0.4327
  739MOL0     H99709   4.732   2.547   8.801 -1.1947 -0.5420  2.0696
  739MOL0     H99710   4.890   2.500   8.955 -0.1657  1.5519 -0.1936
  739MOL0     H99711   4.951   2.352   8.868 -0.9894 -0.6036 -1.9951
  739MOL0     H99712   4.977   2.652   8.802 -0.9173 -0.6797  1.1396
  739MOL0     H99713   5.029   2.517   8.687  1.3701 -1.7225  0.0849
  739MOL0     H99714   5.135   2.561   8.970  0.4183 -0.2478 -1.1632
  739MOL0     H99715   5.168   2.425   8.861 -1.3619 -0.3699 -3.0729
  739MOL0     H99716   5.279   2.562   8.591  0.4991 -2.2581  1.4647
  739MOL0     H99717   5.453   2.820   8.499  1.5294 -0.4698 -0.6018
  739MOL0     H99718   5.591   2.790   8.599  1.9294 -2.6438 -0.1898
  739MOL0     H99719   5.481   2.577   8.416  0.0811  0.8219 -2.3325
  739MOL0     H99720   5.618   2.679   8.385 -0.9803  0.5801  0.1129
  739MOL0     H99721   5.612   2.509   8.626  1.4790  1.8687  2.1731
  739MOL0     H99722   5.748   2.607   8.577 -1.5605  1.4498  1.3674
  739MOL0     H99723   5.651   2.383   8.397 -1.2806  2.3145 -1.8554
  739MOL0     H99724   5.775   2.365   8.526 -0.3404 -1.6124 -1.0214
  739MOL0     H99725   5.929   2.463   8.627  1.5764 -2.8749  0.1202
  739MOL0     H99726   6.144   2.542   8.711 -0.1421  1.7600 -0.5186
  739MOL0     H99727   6.435   2.576   8.903 -1.6795 -0.0011 -2.0496
  739MOL0     H99728   6.641   2.664   9.030 -3.6818 -2.3678 -0.1004
  739MOL0     H99729   6.975   2.935   8.899 -0.8688 -1.8347 -1.5262
  739MOL0     H99730   6.836   3.031   8.848 -0.5900  1.2453  1.7303
  739MOL0     H99731   6.771   3.067   9.069  0.5384  1.5886  1.4395
  739MOL0     H99732   6.874   2.938   9.138 -0.0740 -2.0418 -1.1320
  739MOL0     H99733   6.969   3.158   9.193 -1.4992 -1.2000  0.5632
  739MOL0     H99734   7.079   3.083   9.083 -0.7766  0.0031  0.0856
  739MOL0     H99735   6.877   3.287   8.987 -0.9550 -2.3078  1.4150
  739MOL0     H99736   7.001   3.213   8.892 -0.2909  1.1935 -0.9225
  739MOL0     H99737   7.189   3.289   9.005  2.2040  1.3534  0.8515
  739MOL0     H99738   7.092   3.378   9.118  0.5903  0.1008  0.1837
  739MOL0     H99739   7.004   3.519   8.982 -2.9350 -1.7100 -1.9446
  739MOL0     H99740   7.174   3.525   8.938  0.4748 -1.3002 -5.1466
  739MOL0     H99741   6.980   3.397   8.760 -1.6211  1.1435 -1.5128
  739MOL0     H99742   7.152   3.349   8.765 -0.6801 -0.2268 -0.9955
  739MOL0     H99743   7.072   3.532   8.596 -0.0811 -0.0696  1.0951
  739MOL0     H99744   7.072   3.635   8.734 -2.1230 -0.1849 -0.6660
  739MOL0     H99745   6.709   2.950   8.720 -2.2593  1.3436 -0.1555
  739MOL0     H99746   6.488   2.894   8.616 -4.8745  1.2035  2.2669
  739MOL0     H99747   6.254   2.642   8.309  1.4758  1.2964  2.3473
  739MOL0     H99748   6.039   2.536   8.223  2.4743 -0.7379  0.1912
  739MOL0     H99749   4.354   1.887   8.807 -0.8263 -3.3343 -0.0365
  739MOL0     H99750   4.344   1.666   8.701  1.2376 -2.5543 -1.4346
  739MOL0     H99751   4.602   1.528   8.671  1.4228  0.3941  1.0669
  739MOL0     H99752   4.789   1.594   8.780 -1.6559  0.3673 -0.0961
  739MOL0     H99753   5.028   1.479   8.748 -0.7293  0.7041 -0.2053
  739MOL0     H99754   5.145   1.595   8.822  3.0391 -1.6531 -0.9047
  739MOL0     H99755   5.153   1.489   8.536  1.8988 -2.0009 -1.9384
  739MOL0     H99756   5.241   1.415   8.670  0.1032 -0.0798 -0.4868
  739MOL0     H99757   5.360   1.555   8.510  0.0734  2.3252  0.0021
  739MOL0     H99758   5.398   1.581   8.671  0.6398  0.3685 -0.9725
  739MOL0     H99759   5.234   1.774   8.504  1.1297 -0.6351 -1.7960
  739MOL0     H99760   5.275   1.816   8.664  3.7502  3.0963 -0.1357
  739MOL0     H99761   5.646   1.899   8.502  0.7323  1.6134  1.2124
  739MOL0     H99762   4.994   1.633   8.410 -0.4216 -1.5681  0.5222
  739MOL0     H99763   4.871   1.620   8.205  0.8087  0.3535  0.2863
  739MOL0     H99764   4.712   1.548   8.188 -0.6823 -0.2316  1.2568
  739MOL0     H99765   4.735   1.725   8.217  1.1974  0.0614  0.3011
  740MOL0     O99766   7.047   4.146   5.452 -0.5190 -0.4676  0.2395
  740MOL0     C99767   7.148   4.114   5.394 -0.5971 -0.3584  0.2567
  740MOL0     O99768   7.147   4.054   5.275 -0.0300  0.2582  0.4553
  740MOL0     C99769   7.058   3.961   5.228  0.1947 -0.2113  0.5932
  740MOL0     C99770   7.071   3.907   5.095 -0.3532 -0.2049 -0.4475
  740MOL0     C99771   6.987   3.802   5.044 -0.0651 -0.1331  0.0886
  740MOL0     C99772   6.892   3.743   5.129  0.5940  0.0733 -0.7613
  740MOL0     O99773   6.809   3.652   5.075 -0.2472  1.4302  0.5295
  740MOL0     C99774   6.755   3.546   5.160  0.0354  0.2859 -0.7131
  740MOL0     C99775   6.865   3.436   5.183  1.0105  0.2942  0.4374
  740MOL0     C99776   6.831   3.336   5.287  0.1520  0.5096  0.2626
  740MOL0     C99777   6.896   3.193   5.266  0.8769 -0.2056 -0.3387
  740MOL0     C99778   6.864   3.092   5.377 -0.0978 -0.8552 -0.0917
  740MOL0     C99779   6.922   2.957   5.345 -0.3810 -0.3056 -0.3305
  740MOL0     C99780   6.923   2.877   5.479 -0.0865 -0.0187 -0.0414
  740MOL0     C99781   7.028   2.918   5.584  0.1567  0.1494  0.5605
  740MOL0     N99782   6.994   2.912   5.726  0.0747  0.7775  0.1010
  740MOL0     C99783   6.942   2.801   5.787  0.2127 -0.2416  1.1218
  740MOL0     C99784   6.968   2.820   5.919  0.1913 -0.8169  0.5312
  740MOL0     C99785   6.932   2.720   6.034 -0.8735 -0.2887  0.7891
  740MOL0     C99786   7.040   2.614   6.050 -0.4400 -0.1259 -0.1553
  740MOL0     C99787   7.128   2.635   6.176  0.7296  0.3337  0.8591
  740MOL0     C99788   7.204   2.771   6.192 -0.1879 -0.9933  0.0930
  740MOL0     O99789   7.320   2.736   6.271  0.1241  0.2438  0.5732
  740MOL0     C99790   7.417   2.833   6.300  0.4173  0.8919  0.4756
  740MOL0     C99791   7.470   2.819   6.423 -0.5927 -0.8271  0.2291
  740MOL0     C99792   7.580   2.901   6.461 -0.5915 -0.3202  0.0854
  740MOL0     C99793   7.621   3.014   6.374 -0.0511  1.0473 -1.0594
  740MOL0     C99794   7.722   3.108   6.420  0.0691  0.5510 -0.0504
  740MOL0     O99795   7.755   3.104   6.549 -0.8787  0.6436 -0.6284
  740MOL0     C99796   7.835   3.198   6.608 -0.1138 -0.2431  0.8383
  740MOL0     C99797   7.957   3.244   6.563 -0.3071  0.6306  0.5883
  740MOL0     C99798   8.038   3.337   6.623  0.0939 -0.2422 -0.0183
  740MOL0     C99799   7.990   3.400   6.747 -0.5820  0.2401 -0.0481
  740MOL0     O99800   8.068   3.502   6.805  0.1000  0.3249 -0.2977
  740MOL0     C99801   8.023   3.586   6.914 -0.0122 -0.4263 -0.4883
  740MOL0     C99802   7.956   3.700   6.838  0.0423  0.3957  0.4042
  740MOL0     C99803   7.920   3.811   6.938  0.0454 -0.3341  0.2845
  740MOL0     C99804   7.814   3.903   6.866  0.1454  0.3442  0.2282
  740MOL0     C99805   7.878   3.991   6.763  0.3841 -0.2252  0.3527
  740MOL0     C99806   7.974   4.086   6.827  0.3785 -0.2134 -0.4971
  740MOL0     C99807   8.027   4.181   6.712  0.4546  0.7114 -0.2927
  740MOL0     C99808   8.109   4.293   6.768  0.0194  0.1971  0.1473
  740MOL0    Cl99809   8.264   4.214   6.803 -0.1808 -0.2933  0.0825
  740MOL0     C99810   7.863   3.354   6.798  0.2777 -0.7518  0.5864
  740MOL0     C99811   7.794   3.251   6.734  0.1846  0.5087 -0.4563
  740MOL0     O99812   7.760   3.184   6.335 -0.6950  0.1367  0.3833
  740MOL0     C99813   7.557   3.026   6.251  0.1572 -0.0701 -0.3186
  740MOL0     C99814   7.455   2.937   6.215  0.5370  0.2761  0.7268
  740MOL0     N99815   7.031   2.949   5.933  0.0527  0.4810  0.0464
  740MOL0     N99816   7.054   2.991   5.817 -0.0949  0.2309 -0.0444
  740MOL0     C99817   6.877   3.801   5.254  0.5688  0.3855 -0.2027
  740MOL0     C99818   6.960   3.904   5.306  0.1467  0.2401  0.4063
  740MOL0     C99819   7.282   4.155   5.457 -0.1302 -0.1737  0.3412
  740MOL0     C99820   7.280   4.196   5.591 -0.3593  0.1523  0.8816
  740MOL0     C99821   7.394   4.216   5.667 -0.2162  0.1514  0.6760
  740MOL0     C99822   7.516   4.189   5.614  0.6317 -0.2316 -0.8899
  740MOL0     O99823   7.619   4.211   5.701 -0.4860 -0.3715 -0.4652
  740MOL0     C99824   7.745   4.161   5.675 -0.1079 -0.2822 -0.0740
  740MOL0     C99825   7.845   4.228   5.772  0.0961  0.1813  0.4822
  740MOL0     C99826   7.987   4.173   5.760 -0.3123  0.1206  0.3031
  740MOL0     C99827   8.022   4.028   5.800 -0.1163  0.1775  0.0461
  740MOL0     C99828   8.033   4.007   5.948 -0.7856 -0.4183 -0.7551
  740MOL0     C99829   8.038   3.982   6.061 -0.8984 -0.4702 -0.9409
  740MOL0     C99830   7.523   4.139   5.487  1.4723  0.1284  0.1050
  740MOL0     C99831   7.408   4.110   5.414 -0.1105  0.1587 -0.3541
  740MOL0     C99832   7.431   4.053   5.276  0.6646  0.9172 -0.4656
  740MOL0     H99833   7.158   3.930   5.035 -1.0103 -0.1018 -1.3718
  740MOL0     H99834   6.987   3.741   4.954  0.2048  0.6637 -0.4605
  740MOL0     H99835   6.724   3.585   5.257 -2.9232  0.1588 -1.5139
  740MOL0     H99836   6.668   3.492   5.124 -0.7908 -1.1598  2.9618
  740MOL0     H99837   6.954   3.483   5.225  0.2034  0.3798  2.1313
  740MOL0     H99838   6.883   3.387   5.086  0.2824  0.2841  0.2976
  740MOL0     H99839   6.722   3.324   5.289  0.4543 -3.1419  0.9832
  740MOL0     H99840   6.855   3.385   5.381 -1.7903 -0.3357  1.2636
  740MOL0     H99841   6.860   3.144   5.175 -2.1513 -0.1604  0.7108
  740MOL0     H99842   7.004   3.213   5.263  0.7538  0.3434 -1.7632
  740MOL0     H99843   6.903   3.130   5.472 -1.3890 -1.8654  0.8736
  740MOL0     H99844   6.756   3.082   5.393 -0.9052  2.9372 -1.8970
  740MOL0     H99845   6.862   2.898   5.276 -1.7605 -0.8617  1.2697
  740MOL0     H99846   7.016   2.950   5.289 -0.3266 -4.4679 -0.0271
  740MOL0     H99847   6.935   2.772   5.452  0.7991  0.3391 -1.1092
  740MOL0     H99848   6.830   2.902   5.530  0.0334 -1.6777  1.0631
  740MOL0     H99849   7.126   2.876   5.560  1.0371  0.9214  2.5990
  740MOL0     H99850   7.042   3.025   5.567 -1.1292  0.8016  3.0971
  740MOL0     H99851   6.891   2.721   5.733  2.0905  1.0421 -2.9522
  740MOL0     H99852   6.921   2.774   6.129 -0.7308 -0.3607  0.8470
  740MOL0     H99853   6.836   2.670   6.019 -1.3678  0.0930  2.4145
  740MOL0     H99854   6.997   2.513   6.050  1.5142 -0.9981 -0.6646
  740MOL0     H99855   7.105   2.632   5.964 -1.4009  0.0022 -0.8805
  740MOL0     H99856   7.200   2.559   6.145  0.6622  0.6629 -0.1573
  740MOL0     H99857   7.087   2.599   6.271 -0.6754 -0.4676 -0.0133
  740MOL0     H99858   7.137   2.836   6.249 -1.0491 -0.8749 -1.0010
  740MOL0     H99859   7.230   2.812   6.094 -2.7895 -2.2879 -1.2540
  740MOL0     H99860   7.446   2.725   6.473  2.2103 -0.5630  2.3333
  740MOL0     H99861   7.624   2.875   6.557 -0.7684 -0.3193  0.1658
  740MOL0     H99862   7.982   3.210   6.463  0.9585 -0.6885  1.2964
  740MOL0     H99863   8.126   3.359   6.564 -0.2826 -2.4250 -1.4661
  740MOL0     H99864   7.944   3.542   6.976  0.2848 -0.1371  0.1004
  740MOL0     H99865   8.112   3.619   6.968 -0.6664  1.4660 -0.5010
  740MOL0     H99866   8.026   3.734   6.761 -1.1357 -2.2179 -1.9705
  740MOL0     H99867   7.867   3.670   6.784  2.3822 -0.3661 -3.3884
  740MOL0     H99868   7.882   3.772   7.033  0.3627 -1.9235 -0.1959
  740MOL0     H99869   8.009   3.868   6.965 -0.6878 -0.6848  3.8402
  740MOL0     H99870   7.764   3.956   6.948  0.7983  0.3028  0.6607
  740MOL0     H99871   7.737   3.848   6.812  2.2531  0.6995 -3.4406
  740MOL0     H99872   7.803   4.046   6.707 -1.1738 -0.7586  1.8147
  740MOL0     H99873   7.938   3.934   6.691  1.2370  0.8240  0.2101
  740MOL0     H99874   7.926   4.132   6.915 -2.0521 -2.1312 -0.7172
  740MOL0     H99875   8.068   4.036   6.852  1.0423  1.1627 -0.1331
  740MOL0     H99876   7.959   4.237   6.648  2.9314  3.5493 -0.6391
  740MOL0     H99877   8.090   4.115   6.652  1.5770 -0.6087  2.1511
  740MOL0     H99878   8.125   4.373   6.695 -0.2526 -0.0005 -0.1296
  740MOL0     H99879   8.064   4.331   6.861  2.5435  3.2560  0.2779
  740MOL0     H99880   7.823   3.402   6.887 -0.2589  0.6914 -0.4005
  740MOL0     H99881   7.707   3.216   6.787  0.7372 -2.1419 -1.1395
  740MOL0     H99882   7.571   3.116   6.192 -2.2494 -0.4287 -1.5810
  740MOL0     H99883   7.414   2.933   6.115  1.6320 -1.7955  0.2985
  740MOL0     H99884   6.800   3.767   5.322  1.1529 -2.5772 -0.8674
  740MOL0     H99885   6.940   3.934   5.409  2.7927 -2.2136  1.7729
  740MOL0     H99886   7.182   4.217   5.632  0.3547  1.0695  2.1989
  740MOL0     H99887   7.392   4.253   5.769  2.2668  2.2841  0.0593
  740MOL0     H99888   7.783   4.184   5.575  2.1039 -3.9802 -0.2609
  740MOL0     H99889   7.739   4.053   5.683  0.0223 -0.5584 -2.7919
  740MOL0     H99890   7.815   4.219   5.877  0.6338  1.9565  0.8166
  740MOL0     H99891   7.860   4.334   5.748 -0.0993  0.4256  1.4154
  740MOL0     H99892   8.054   4.239   5.816  0.8714 -0.1952 -0.6943
  740MOL0     H99893   8.006   4.170   5.652 -0.7919 -1.2022  0.2397
  740MOL0     H99894   7.933   3.973   5.769 -1.2688  1.4722  0.9088
  740MOL0     H99895   8.103   3.984   5.742 -1.5568 -0.0790 -1.8587
  740MOL0     H99896   8.032   3.956   6.164  2.2875 -0.5701 -0.6641
  740MOL0     H99897   7.617   4.100   5.449  1.5822 -2.3241  2.6095
  740MOL0     H99898   7.536   4.049   5.244  0.5546  1.0482 -0.8537
  740MOL0     H99899   7.392   3.951   5.271 -4.1142  2.4640  0.4131
  740MOL0     H99900   7.378   4.111   5.199  0.8431 -1.6686 -2.6967
  741MOL0     O99901   1.095   0.503   8.917 -0.1592 -0.1960  0.3907
  741MOL0     C99902   0.995   0.483   8.855  0.6133 -0.6657 -0.0108
  741MOL0     O99903   0.978   0.440   8.720  0.1815  0.4656 -0.6656
  741MOL0     C99904   1.092   0.432   8.641 -0.4659 -1.0129 -0.4128
  741MOL0     C99905   1.201   0.344   8.666 -0.2821  0.0714 -0.1396
  741MOL0     C99906   1.316   0.356   8.586 -0.2058 -0.0484  1.0326
  741MOL0     C99907   1.331   0.473   8.494 -0.0804 -0.0873 -0.7681
  741MOL0     O99908   1.449   0.512   8.441  0.1204 -0.2615  0.0944
  741MOL0     C99909   1.565   0.505   8.527  0.2294 -0.1292 -0.5745
  741MOL0     C99910   1.690   0.549   8.452 -0.6814 -0.0707  0.2249
  741MOL0     C99911   1.820   0.555   8.532 -0.4044 -0.6815 -0.0692
  741MOL0     C99912   1.946   0.640   8.487 -0.0054 -0.1731  0.3941
  741MOL0     C99913   2.022   0.686   8.615  1.1112 -0.1220  0.4909
  741MOL0     C99914   1.946   0.813   8.676 -0.3463  0.0290  0.5179
  741MOL0     C99915   2.019   0.872   8.794 -1.0331 -0.3647  0.2042
  741MOL0     C99916   2.003   1.022   8.810 -0.2624 -1.1187 -0.2564
  741MOL0     N99917   2.077   1.110   8.714  0.1370  1.1459  1.2018
  741MOL0     C99918   2.215   1.129   8.709 -0.2125  0.9493  0.6801
  741MOL0     C99919   2.224   1.223   8.611  0.0850 -0.2577  0.1264
  741MOL0     C99920   2.362   1.272   8.552 -0.0920 -0.3831  0.3265
  741MOL0     C99921   2.480   1.188   8.581  0.4378 -0.2545 -0.2122
  741MOL0     C99922   2.613   1.238   8.514 -0.7486  0.4111 -0.4359
  741MOL0     C99923   2.737   1.182   8.586  0.0564 -0.0239 -0.3664
  741MOL0     O99924   2.860   1.253   8.550  1.0394 -0.7582 -0.3367
  741MOL0     C99925   2.981   1.206   8.571 -0.2203 -0.8010 -0.2921
  741MOL0     C99926   3.084   1.280   8.511 -1.4272 -0.2162  0.3164
  741MOL0     C99927   3.212   1.231   8.492  0.1730  0.5518 -0.8218
  741MOL0     C99928   3.247   1.097   8.554 -0.0251 -0.6663  0.5195
  741MOL0     C99929   3.384   1.048   8.559 -0.1621 -0.3887 -0.4618
  741MOL0     O99930   3.399   0.918   8.600  0.5934 -0.4910 -0.4648
  741MOL0     C99931   3.531   0.867   8.605  0.7274 -0.1563  0.1002
  741MOL0     C99932   3.629   0.899   8.497 -0.4002  0.4776 -0.8119
  741MOL0     C99933   3.756   0.840   8.511  0.0293 -0.9833 -0.2521
  741MOL0     C99934   3.795   0.766   8.623 -0.6774  0.0347 -0.4586
  741MOL0     O99935   3.928   0.713   8.637  0.3222  0.1014 -0.6527
  741MOL0     C99936   3.976   0.701   8.772 -0.3092 -0.4003 -0.2147
  741MOL0     C99937   4.120   0.751   8.772 -0.4352 -0.1372  0.3642
  741MOL0     C99938   4.214   0.663   8.694  0.4853  0.9409  0.5064
  741MOL0     C99939   4.353   0.729   8.700 -0.4012  0.0772 -0.1735
  741MOL0     C99940   4.478   0.647   8.656 -0.0327  0.4733 -0.4327
  741MOL0     C99941   4.596   0.744   8.662  0.0340  1.1625 -0.4661
  741MOL0     C99942   4.731   0.677   8.645  0.4214 -0.3450  0.0711
  741MOL0     C99943   4.848   0.774   8.639  0.5166 -0.1515 -0.4862
  741MOL0    Cl99944   4.861   0.889   8.499 -0.2561 -0.2522  0.1199
  741MOL0     C99945   3.698   0.738   8.711  1.0375 -0.7703 -1.2016
  741MOL0     C99946   3.559   0.781   8.709  0.2972 -0.8791  0.0553
  741MOL0     O99947   3.472   1.133   8.543 -0.3948  0.7924  0.3652
  741MOL0     C99948   3.145   1.036   8.631  0.1768  0.9713 -0.4148
  741MOL0     C99949   3.014   1.085   8.640  0.7461 -0.1809  0.4578
  741MOL0     N99950   2.103   1.266   8.575  0.5129 -0.9894 -0.1273
  741MOL0     N99951   2.021   1.205   8.643  0.3868 -0.0623  0.1406
  741MOL0     C99952   1.223   0.553   8.480 -0.0145 -0.7829 -0.2843
  741MOL0     C99953   1.109   0.540   8.554  0.0170  0.8469  0.5906
  741MOL0     C99954   0.876   0.502   8.942 -0.0189  0.3289  0.4882
  741MOL0     C99955   0.840   0.634   8.966 -0.1041 -0.8939  0.1795
  741MOL0     C99956   0.712   0.671   9.006 -0.3543  0.3051  0.0912
  741MOL0     C99957   0.617   0.572   9.033  0.5799  1.2257 -0.8227
  741MOL0     O99958   0.494   0.616   9.068  0.1854  0.4946 -0.3312
  741MOL0     C99959   0.373   0.534   9.045  0.0007 -0.4452 -0.1117
  741MOL0     C99960   0.251   0.621   9.067  0.1166  0.6438 -0.1812
  741MOL0     C99961   0.236   0.730   8.964  0.4552 -0.3888 -0.4316
  741MOL0     C99962   0.113   0.809   8.991  1.1913 -0.3270  0.0661
  741MOL0     C99963  -0.010   0.726   9.002  0.0795 -0.5562 -0.4231
  741MOL0     C99964  -0.104   0.650   8.996 -0.1840  0.4621  0.4571
  741MOL0     C99965   0.664   0.436   9.042 -0.0153  0.6027  0.2588
  741MOL0     C99966   0.785   0.396   8.987 -0.9330 -0.2583 -0.1660
  741MOL0     C99967   0.820   0.247   8.977  0.0604  0.5325  0.4877
  741MOL0     H99968   1.200   0.263   8.738 -1.5547  0.1250 -0.0766
  741MOL0     H99969   1.400   0.288   8.588 -0.3136 -0.4052 -1.8284
  741MOL0     H99970   1.548   0.571   8.611  3.0518 -1.0779  0.8708
  741MOL0     H99971   1.575   0.404   8.567 -1.0639 -0.1960 -0.3806
  741MOL0     H99972   1.684   0.654   8.423  0.6295  0.1847  0.7959
  741MOL0     H99973   1.710   0.484   8.366 -0.5451  1.3590 -0.8520
  741MOL0     H99974   1.858   0.453   8.538 -2.3643 -1.4259  0.5195
  741MOL0     H99975   1.782   0.594   8.627 -2.7946  2.1469 -1.9793
  741MOL0     H99976   2.018   0.580   8.431  1.6110  0.0479  2.1022
  741MOL0     H99977   1.924   0.726   8.422  0.4141 -0.0425  0.4187
  741MOL0     H99978   2.018   0.606   8.689  2.4714 -0.4654  0.2149
  741MOL0     H99979   2.127   0.706   8.591  1.0263  2.7597  2.0228
  741MOL0     H99980   1.933   0.882   8.592 -0.2247 -1.4822 -0.7783
  741MOL0     H99981   1.849   0.779   8.712  0.6121 -0.2928  2.9873
  741MOL0     H99982   2.127   0.854   8.786 -0.7804  0.6854  1.1165
  741MOL0     H99983   1.978   0.830   8.886  0.6905 -0.8781  0.7808
  741MOL0     H99984   1.896   1.042   8.800 -0.6097 -3.4148 -2.0421
  741MOL0     H99985   2.028   1.048   8.913  0.1549  4.0800 -1.3773
  741MOL0     H99986   2.289   1.066   8.756  1.7935  1.2391 -1.8440
  741MOL0     H99987   2.354   1.276   8.444 -0.4998 -1.8858  0.2890
  741MOL0     H99988   2.379   1.374   8.590 -0.8569 -0.9194  2.2137
  741MOL0     H99989   2.497   1.199   8.688  0.8729  1.8342 -0.4651
  741MOL0     H99990   2.460   1.088   8.539  0.4467  1.5488 -5.2373
  741MOL0     H99991   2.616   1.347   8.524  0.9663  0.2024  2.8127
  741MOL0     H99992   2.610   1.220   8.406 -1.1758 -2.1455 -0.0527
  741MOL0     H99993   2.746   1.078   8.555 -1.1357  0.5880 -3.0984
  741MOL0     H99994   2.732   1.187   8.695 -0.7172  0.1028 -0.4071
  741MOL0     H99995   3.060   1.375   8.464  0.1629 -0.1130 -0.3716
  741MOL0     H99996   3.284   1.297   8.445 -0.2520  0.6658 -1.3106
  741MOL0     H99997   3.605   0.965   8.415 -2.2905 -1.4825 -1.9314
  741MOL0     H99998   3.828   0.877   8.438  2.4206 -4.4966  0.0595
  741MOL0     H99999   3.912   0.756   8.841 -0.9042 -1.5981  0.2231
  741MOL0     H    0   3.968   0.598   8.808 -2.0932 -0.5682 -0.9869
  741MOL0     H    1   4.126   0.846   8.718  0.1636  0.1291  0.8779
  741MOL0     H    2   4.156   0.764   8.875  0.6100  1.3919 -0.1478
  741MOL0     H    3   4.222   0.567   8.747  0.3127 -0.6209 -2.0801
  741MOL0     H    4   4.174   0.641   8.594 -0.2628  0.8699  0.8170
  741MOL0     H    5   4.373   0.760   8.803 -1.7024 -1.8034  0.6989
  741MOL0     H    6   4.346   0.818   8.636 -0.9496 -0.0157 -0.2486
  741MOL0     H    7   4.458   0.608   8.556 -1.1182  0.2069 -0.1249
  741MOL0     H    8   4.500   0.561   8.720  2.6515  0.0348 -1.8412
  741MOL0     H    9   4.594   0.821   8.585  4.1921  1.1578 -0.8005
  741MOL0     H   10   4.587   0.801   8.755 -5.6553  0.8738 -0.4699
  741MOL0     H   11   4.740   0.616   8.554 -0.0031  2.2438 -1.8135
  741MOL0     H   12   4.751   0.619   8.736 -0.7177  1.4434  1.5133
  741MOL0     H   13   4.826   0.838   8.725 -1.5992  0.6988 -1.5654
  741MOL0     H   14   4.937   0.713   8.657 -1.9738 -3.6567  1.1933
  741MOL0     H   15   3.709   0.670   8.795  1.3113  0.7545  0.0475
  741MOL0     H   16   3.487   0.762   8.787  1.2975  0.5078  1.3851
  741MOL0     H   17   3.172   0.948   8.688  2.0278  1.1729 -0.9014
  741MOL0     H   18   2.941   1.015   8.679 -0.0120 -1.5572 -3.0562
  741MOL0     H   19   1.227   0.633   8.407 -0.4757 -3.2487 -3.2441
  741MOL0     H   20   1.026   0.608   8.541 -1.2120 -0.5497  0.8733
  741MOL0     H   21   0.906   0.718   8.944 -1.5863 -0.7236 -5.1537
  741MOL0     H   22   0.687   0.776   9.014 -1.7519  0.4168 -3.8146
  741MOL0     H   23   0.381   0.465   9.130  1.7098  2.6862  2.5067
  741MOL0     H   24   0.386   0.478   8.952  1.2040 -1.7315  0.7807
  741MOL0     H   25   0.256   0.662   9.168  0.1148  1.7754 -0.6277
  741MOL0     H   26   0.162   0.557   9.065 -2.4319  3.6414  3.4744
  741MOL0     H   27   0.230   0.693   8.861 -1.3758  2.3067 -1.4134
  741MOL0     H   28   0.319   0.800   8.981  0.4217 -0.4944  0.1910
  741MOL0     H   29   0.119   0.869   9.082 -0.1462  0.0533 -0.0830
  741MOL0     H   30   0.098   0.877   8.907 -0.5313  2.0952  2.1771
  741MOL0     H   31  -0.181   0.575   8.992  0.3595 -0.6035  4.7859
  741MOL0     H   32   0.580   0.371   9.066 -0.3967  1.3218  0.9584
  741MOL0     H   33   0.761   0.210   8.893  0.8266  3.4560 -1.5156
  741MOL0     H   34   0.928   0.235   8.967 -0.3182 -2.2966 -1.4840
  741MOL0     H   35   0.803   0.190   9.069 -0.2267  0.7659  0.5840
  742MOL0     O   36   2.694   5.592   8.297  0.7308 -0.0470  1.1242
  742MOL0     C   37   2.694   5.647   8.186  0.2133  0.7641  0.0131
  742MOL0     O   38   2.712   5.779   8.168 -0.1721  0.1997  0.1315
  742MOL0     C   39   2.715   5.856   8.288  0.0633 -0.2586  0.3986
  742MOL0     C   40   2.623   5.956   8.298  1.0815 -0.2206  0.1163
  742MOL0     C   41   2.622   6.037   8.411 -0.0773 -0.1863 -0.1478
  742MOL0     C   42   2.719   6.015   8.513 -0.4033 -0.1550 -1.2137
  742MOL0     O   43   2.720   6.088   8.629 -0.1783 -0.5453 -0.4114
  742MOL0     C   44   2.728   6.011   8.756  0.4442  0.6415  0.2443
  742MOL0     C   45   2.612   6.058   8.853  0.4342 -0.5045  0.4617
  742MOL0     C   46   2.598   5.978   8.997  0.4078  0.5283  0.5847
  742MOL0     C   47   2.709   6.024   9.097 -0.0435  0.7506  0.1141
  742MOL0     C   48   2.713   5.941   9.227 -0.5575 -0.4807 -0.5368
  742MOL0     C   49   2.791   6.028   9.330 -0.0047 -0.0718 -0.0768
  742MOL0     C   50   2.819   5.950   9.460  0.3897  0.3827 -0.4843
  742MOL0     C   51   2.903   5.819   9.442 -0.2511 -0.6062 -0.1305
  742MOL0     N   52   3.021   5.838   9.353 -0.2411  0.3273  0.1552
  742MOL0     C   53   3.044   5.792   9.222  0.1668 -0.3782  0.2870
  742MOL0     C   54   3.164   5.833   9.184 -0.4897  0.5678  0.3112
  742MOL0     C   55   3.243   5.786   9.060  0.4442 -0.7240  0.3816
  742MOL0     C   56   3.209   5.862   8.927 -0.3287 -0.3349 -0.4224
  742MOL0     C   57   3.274   5.790   8.822  0.2076 -0.3637 -0.3365
  742MOL0     C   58   3.216   5.848   8.696 -0.0347  0.2026 -0.0369
  742MOL0     O   59   3.242   5.990   8.672 -0.4180  0.7681 -0.4211
  742MOL0     C   60   3.373   6.034   8.651  0.7394 -0.2618  0.3829
  742MOL0     C   61   3.487   5.949   8.650 -0.5453  0.0897  0.2550
  742MOL0     C   62   3.617   5.998   8.632 -0.0889 -0.4559  0.1792
  742MOL0     C   63   3.636   6.131   8.610  0.9735 -1.0651 -0.6580
  742MOL0     C   64   3.777   6.185   8.593 -0.8476  0.3404  0.5136
  742MOL0     O   65   3.799   6.317   8.569  0.4101 -0.2363  0.4460
  742MOL0     C   66   3.931   6.360   8.569  0.3091 -1.6622  0.4342
  742MOL0     C   67   4.033   6.323   8.663  0.0193  0.3344  0.5788
  742MOL0     C   68   4.164   6.364   8.660  0.1687 -0.3438  0.3006
  742MOL0     C   69   4.208   6.455   8.560 -0.2524  0.7551 -0.5527
  742MOL0     O   70   4.342   6.477   8.544  0.1417 -0.1801 -0.0630
  742MOL0     C   71   4.402   6.578   8.456  0.0975  0.7307 -1.0532
  742MOL0     C   72   4.551   6.580   8.475 -0.1686 -0.2316  1.0031
  742MOL0     C   73   4.602   6.580   8.621 -0.6093  0.7306 -0.1923
  742MOL0     C   74   4.631   6.443   8.679 -0.2207 -0.9031  0.6722
  742MOL0     C   75   4.627   6.453   8.827 -0.1689 -0.4422  0.0635
  742MOL0     C   76   4.635   6.315   8.901 -0.8807  0.0867 -0.3979
  742MOL0     C   77   4.666   6.333   9.054  0.1653 -0.0945 -0.3803
  742MOL0     C   78   4.697   6.193   9.115 -0.0134  0.0210  0.2324
  742MOL0    Cl   79   4.536   6.107   9.131 -0.3081  0.2557 -0.0318
  742MOL0     C   80   4.114   6.497   8.468  1.2689 -0.5347  0.4738
  742MOL0     C   81   3.980   6.454   8.471 -0.1203 -0.6180  0.2840
  742MOL0     O   82   3.863   6.100   8.605 -0.8340  0.4966 -0.5905
  742MOL0     C   83   3.523   6.218   8.602 -0.7792  1.0447  0.4502
  742MOL0     C   84   3.398   6.170   8.625 -0.0988 -0.4454  0.1356
  742MOL0     N   85   3.225   5.908   9.285  0.0008 -0.3564  0.2882
  742MOL0     N   86   3.140   5.904   9.381  0.2876 -0.3971 -0.6815
  742MOL0     C   87   2.806   5.909   8.500 -0.8360 -0.2169  0.9448
  742MOL0     C   88   2.799   5.829   8.394 -0.3607  0.0007 -0.0970
  742MOL0     C   89   2.657   5.549   8.066  0.8652  0.4174 -0.2883
  742MOL0     C   90   2.672   5.408   8.079 -0.4874  0.5987  0.2245
  742MOL0     C   91   2.610   5.324   7.986 -0.2204  0.0453 -0.8161
  742MOL0     C   92   2.546   5.375   7.879 -0.9288 -0.2716  0.0048
  742MOL0     O   93   2.511   5.271   7.800  0.3351  0.2055  0.7822
  742MOL0     C   94   2.446   5.308   7.678 -0.5206  0.4967 -0.7729
  742MOL0     C   95   2.449   5.194   7.580  0.7193 -0.1498  0.8340
  742MOL0     C   96   2.589   5.149   7.544 -0.2612 -0.2748  1.0180
  742MOL0     C   97   2.584   5.032   7.444 -0.4622 -0.3313 -0.2537
  742MOL0     C   98   2.711   4.958   7.427  0.5808 -1.0218  0.3883
  742MOL0     C   99   2.808   4.889   7.443 -0.3879  0.3464 -0.4255
  742MOL0     C  100   2.527   5.510   7.851 -0.3136 -0.6130 -0.5300
  742MOL0     C  101   2.586   5.599   7.948  0.3422  0.3011  0.5396
  742MOL0     C  102   2.559   5.744   7.922 -0.4691  0.1193 -0.6568
  742MOL0     H  103   2.551   5.963   8.217  2.3832 -3.1814 -1.4727
  742MOL0     H  104   2.548   6.112   8.434 -2.7378 -2.6939  0.0505
  742MOL0     H  105   2.719   5.903   8.740 -0.1264  0.3666  2.1626
  742MOL0     H  106   2.822   6.023   8.811  0.3036 -0.4004  0.7314
  742MOL0     H  107   2.515   6.044   8.802  1.2034  0.0232 -1.2251
  742MOL0     H  108   2.623   6.165   8.871 -0.9743  0.0070 -1.3488
  742MOL0     H  109   2.593   5.872   8.970 -1.7469  1.1955 -2.1332
  742MOL0     H  110   2.499   6.001   9.036 -0.6179  3.2273 -3.0425
  742MOL0     H  111   2.805   6.005   9.048 -0.0563  0.3044  0.2516
  742MOL0     H  112   2.692   6.129   9.119 -1.0956  0.5764  0.1882
  742MOL0     H  113   2.611   5.910   9.251 -0.2252 -3.2809 -2.3444
  742MOL0     H  114   2.756   5.842   9.214 -0.0010 -0.2152 -0.7709
  742MOL0     H  115   2.881   6.069   9.284 -1.4735  2.6133 -0.7603
  742MOL0     H  116   2.727   6.115   9.349 -0.3835 -0.3085 -0.2535
  742MOL0     H  117   2.727   5.908   9.502 -0.0666  0.6798 -1.1639
  742MOL0     H  118   2.868   6.022   9.527  2.3115  1.5261 -2.9239
  742MOL0     H  119   2.945   5.798   9.541  1.2086  2.5738  0.0618
  742MOL0     H  120   2.840   5.736   9.408 -0.3120 -0.2285 -0.9655
  742MOL0     H  121   2.970   5.731   9.171 -1.0065  0.1656  1.2882
  742MOL0     H  122   3.348   5.808   9.080  1.0023 -1.1701 -1.7363
  742MOL0     H  123   3.222   5.679   9.053 -1.7820 -0.4843  2.0966
  742MOL0     H  124   3.103   5.885   8.908  0.0940  1.0802 -1.2044
  742MOL0     H  125   3.249   5.961   8.952 -0.5410 -0.9472  2.7709
  742MOL0     H  126   3.240   5.688   8.844 -1.1099  0.0958 -0.1641
  742MOL0     H  127   3.383   5.790   8.826  0.1756 -0.7891  1.5574
  742MOL0     H  128   3.110   5.824   8.689  0.0323  0.2527 -1.5846
  742MOL0     H  129   3.258   5.789   8.614  0.3077  0.1192  0.1923
  742MOL0     H  130   3.474   5.842   8.660  1.6300 -0.0824  2.1972
  742MOL0     H  131   3.698   5.926   8.639  1.9837  1.8047  0.8065
  742MOL0     H  132   4.006   6.260   8.748  0.9622  3.3580  3.2909
  742MOL0     H  133   4.234   6.329   8.735 -0.7322 -1.1878  0.7717
  742MOL0     H  134   4.368   6.543   8.358 -1.3422 -0.9264 -0.0201
  742MOL0     H  135   4.361   6.678   8.471 -0.9960  0.0259  1.2145
  742MOL0     H  136   4.592   6.490   8.427 -0.1732  0.6254 -0.6798
  742MOL0     H  137   4.595   6.666   8.424  0.1217 -0.6014  0.6181
  742MOL0     H  138   4.693   6.640   8.632  0.7109 -1.3037  0.3895
  742MOL0     H  139   4.524   6.624   8.684  0.0801  0.3308  0.9828
  742MOL0     H  140   4.730   6.411   8.646  0.1856  0.3027  0.6820
  742MOL0     H  141   4.551   6.379   8.640  0.5489 -1.6585  0.3098
  742MOL0     H  142   4.540   6.506   8.867  0.6527  0.2052  1.0364
  742MOL0     H  143   4.710   6.518   8.857 -0.5335  0.3272 -0.5371
  742MOL0     H  144   4.535   6.273   8.889 -0.0707 -2.2292  0.3134
  742MOL0     H  145   4.709   6.255   8.847  0.6800  0.6873  1.0144
  742MOL0     H  146   4.582   6.381   9.105  0.1046 -0.2312 -0.3499
  742MOL0     H  147   4.755   6.396   9.054  0.2985 -0.2739 -0.8803
  742MOL0     H  148   4.770   6.138   9.055 -0.5415  1.2641 -1.6402
  742MOL0     H  149   4.749   6.204   9.211 -1.5299 -0.4732  1.1404
  742MOL0     H  150   4.145   6.559   8.385 -1.3747  1.0497  0.5565
  742MOL0     H  151   3.912   6.493   8.396 -0.0257  1.7954  1.3707
  742MOL0     H  152   3.545   6.321   8.576 -1.8679  0.9702 -0.8886
  742MOL0     H  153   3.317   6.241   8.614 -0.3475 -0.8527 -0.7557
  742MOL0     H  154   2.884   5.893   8.572  1.5001 -2.2154 -1.8092
  742MOL0     H  155   2.863   5.742   8.381 -0.8014 -0.4382  0.6051
  742MOL0     H  156   2.730   5.362   8.158 -0.4325 -2.9793 -1.7145
  742MOL0     H  157   2.620   5.217   7.999 -3.4205 -0.2075  0.3576
  742MOL0     H  158   2.496   5.391   7.629  0.0162  0.6258 -0.0255
  742MOL0     H  159   2.341   5.336   7.691 -1.1238 -1.8315 -0.0562
  742MOL0     H  160   2.388   5.205   7.490  0.3246 -1.1557  0.9665
  742MOL0     H  161   2.401   5.110   7.630 -0.6302  0.9818  1.5080
  742MOL0     H  162   2.635   5.117   7.638  1.0199 -0.1517  0.4593
  742MOL0     H  163   2.657   5.225   7.504 -2.3308  0.2652 -1.8757
  742MOL0     H  164   2.511   4.960   7.482  0.2046 -1.3319 -0.8356
  742MOL0     H  165   2.544   5.062   7.346  0.9001  0.4912 -0.5754
  742MOL0     H  166   2.897   4.831   7.450 -1.0377 -0.9316 -2.0911
  742MOL0     H  167   2.468   5.535   7.763  0.1376 -1.0934 -0.9821
  742MOL0     H  168   2.496   5.753   7.834 -0.4511 -1.8371 -0.9039
  742MOL0     H  169   2.507   5.800   8.000 -0.8930  0.5063 -1.2112
  742MOL0     H  170   2.657   5.789   7.905 -0.1215 -1.2287 -2.5492
  743MOL0     O  171   0.332   3.449   0.505 -0.0265  0.2679  0.3353
  743MOL0     C  172   0.273   3.503   0.597 -0.3388 -0.2698  0.5904
  743MOL0     O  173   0.331   3.542   0.718  0.7594  0.1965  0.2192
  743MOL0     C  174   0.469   3.519   0.718  0.3638  0.1996  0.1247
  743MOL0     C  175   0.557   3.618   0.670  0.0316 -0.1187 -0.1552
  743MOL0     C  176   0.694   3.596   0.682 -0.4608 -0.4569 -0.7685
  743MOL0     C  177   0.743   3.480   0.752 -0.6808 -0.6578  0.3222
  743MOL0     O  178   0.876   3.447   0.746  0.0148 -0.0581  0.2564
  743MOL0     C  179   0.970   3.535   0.803 -0.0040 -0.4728  0.2642
  743MOL0     C  180   1.104   3.469   0.798  0.1243 -0.1397  0.1212
  743MOL0     C  181   1.200   3.561   0.880  0.9405 -1.0636  0.9055
  743MOL0     C  182   1.336   3.513   0.888  0.4913 -1.3143  0.4021
  743MOL0     C  183   1.446   3.617   0.912 -1.3231  0.5957  0.0242
  743MOL0     C  184   1.577   3.552   0.968 -0.2040 -0.6634  0.8841
  743MOL0     C  185   1.678   3.659   0.995 -0.1256  0.1507  0.3368
  743MOL0     C  186   1.755   3.699   0.861  0.3951 -0.4162 -1.2306
  743MOL0     N  187   1.868   3.608   0.842 -0.7401 -0.1808  0.7889
  743MOL0     C  188   1.870   3.490   0.774 -0.2375  0.1413 -0.2557
  743MOL0     C  189   2.002   3.463   0.757  0.9946 -0.1148  0.6108
  743MOL0     C  190   2.061   3.351   0.674 -0.6604  0.0584 -0.2964
  743MOL0     C  191   2.077   3.233   0.768  0.7393  0.5125 -0.8060
  743MOL0     C  192   2.160   3.114   0.730 -0.1234 -0.6287  0.2157
  743MOL0     C  193   2.306   3.129   0.756 -0.0064 -0.8167 -0.2632
  743MOL0     O  194   2.377   3.002   0.750  0.2964  0.3680 -0.3950
  743MOL0     C  195   2.438   2.957   0.868 -0.9630  0.3371  0.3839
  743MOL0     C  196   2.366   2.940   0.982  0.3013  0.1435 -0.3583
  743MOL0     C  197   2.420   2.896   1.103  0.3394  0.8774  0.1549
  743MOL0     C  198   2.557   2.876   1.113 -0.9952 -1.1790  0.2332
  743MOL0     C  199   2.611   2.832   1.238 -0.7096 -0.4615  0.0886
  743MOL0     O  200   2.534   2.758   1.327 -0.1073 -0.2493  0.7571
  743MOL0     C  201   2.584   2.700   1.448 -0.4696  1.3245  1.3661
  743MOL0     C  202   2.511   2.712   1.562  0.8181 -0.6184  0.7452
  743MOL0     C  203   2.544   2.654   1.683 -0.7368 -0.5681  0.3412
  743MOL0     C  204   2.668   2.583   1.690  0.3387  0.1012  0.4012
  743MOL0     O  205   2.706   2.511   1.800  0.7503  0.5335  0.4485
  743MOL0     C  206   2.651   2.559   1.923  0.6905  0.8991 -0.9765
  743MOL0     C  207   2.691   2.468   2.040 -0.3019  0.2158 -0.1988
  743MOL0     C  208   2.847   2.442   2.032 -0.2221  0.1341  0.0546
  743MOL0     C  209   2.906   2.386   2.165 -0.0170 -0.7070 -0.3009
  743MOL0     C  210   3.056   2.368   2.174 -0.5725  0.7195 -0.3136
  743MOL0     C  211   3.104   2.333   2.318  0.0792 -0.3076  0.3725
  743MOL0     C  212   3.255   2.345   2.333 -0.0348  0.7740  0.5418
  743MOL0     C  213   3.304   2.323   2.480  0.3435 -0.1143  0.2192
  743MOL0    Cl  214   3.319   2.154   2.512  0.1130 -0.0758  0.0594
  743MOL0     C  215   2.745   2.568   1.575  0.5772  0.2521 -0.7288
  743MOL0     C  216   2.709   2.627   1.454  1.3236 -0.4468  0.7346
  743MOL0     O  217   2.732   2.845   1.248 -0.2783 -0.1885  0.1138
  743MOL0     C  218   2.637   2.894   1.004  0.2585  0.5435 -0.2441
  743MOL0     C  219   2.579   2.940   0.882  0.4144 -0.1189 -1.1575
  743MOL0     N  220   2.074   3.543   0.842  0.1014 -0.0395  0.6196
  743MOL0     N  221   1.995   3.630   0.889  0.2444  0.2535  0.2735
  743MOL0     C  222   0.652   3.392   0.819  0.2222 -0.7824 -0.9636
  743MOL0     C  223   0.516   3.412   0.800 -0.5346  0.5432 -0.5493
  743MOL0     C  224   0.125   3.524   0.559 -0.0053 -0.8311  0.0153
  743MOL0     C  225   0.079   3.497   0.426  0.1166  0.4696 -0.5033
  743MOL0     C  226  -0.055   3.523   0.386  0.2939 -0.5325 -0.4733
  743MOL0     C  227  -0.153   3.561   0.482  0.6604  0.3599  0.7777
  743MOL0     O  228  -0.280   3.590   0.443  0.1813 -0.2271 -0.0423
  743MOL0     C  229  -0.347   3.535   0.325  0.6074 -0.3485  0.1319
  743MOL0     C  230  -0.376   3.389   0.344 -0.5158 -0.6012 -0.0462
  743MOL0     C  231  -0.449   3.323   0.234  0.5476  0.6922 -0.2353
  743MOL0     C  232  -0.497   3.187   0.281 -0.1831  0.7049 -0.1603
  743MOL0     C  233  -0.521   3.099   0.171  0.2565  0.3734  0.7593
  743MOL0     C  234  -0.553   3.023   0.078  0.1634 -0.1202  0.7796
  743MOL0     C  235  -0.110   3.578   0.606 -0.0687  0.5454 -0.0905
  743MOL0     C  236   0.025   3.570   0.646  0.7842  0.3429  0.6642
  743MOL0     C  237   0.057   3.587   0.797  0.2840  0.1602 -0.4792
  743MOL0     H  238   0.511   3.704   0.622 -0.4270 -0.5816 -0.5578
  743MOL0     H  239   0.758   3.648   0.611 -1.0926  2.0003  0.3771
  743MOL0     H  240   0.969   3.627   0.744  2.1780 -0.9828 -0.6606
  743MOL0     H  241   0.942   3.555   0.907 -0.8352 -0.7376  0.1016
  743MOL0     H  242   1.147   3.474   0.697 -1.4868  0.0278 -0.5812
  743MOL0     H  243   1.100   3.369   0.842  0.5776 -0.6233 -0.8978
  743MOL0     H  244   1.168   3.571   0.984  2.1363  0.5003  1.1669
  743MOL0     H  245   1.187   3.658   0.832 -0.9224 -1.6540  0.0838
  743MOL0     H  246   1.342   3.447   0.975  1.0091 -0.6582  0.8785
  743MOL0     H  247   1.361   3.449   0.803 -0.1027  0.0704 -0.8722
  743MOL0     H  248   1.470   3.671   0.820  0.1958  1.8754  1.1151
  743MOL0     H  249   1.405   3.696   0.976 -0.5790  0.2475  0.9528
  743MOL0     H  250   1.562   3.490   1.057 -1.1243  0.8064  1.7958
  743MOL0     H  251   1.614   3.475   0.898  1.1308 -1.4424  2.3764
  743MOL0     H  252   1.749   3.623   1.070 -1.8375  2.6204  3.3414
  743MOL0     H  253   1.623   3.740   1.043  1.0284  0.9284  0.3832
  743MOL0     H  254   1.687   3.681   0.777  0.7216  0.2004 -1.6331
  743MOL0     H  255   1.782   3.805   0.861 -1.2151  0.0310  0.3661
  743MOL0     H  256   1.782   3.429   0.754 -0.0509 -1.2418  2.5325
  743MOL0     H  257   2.008   3.320   0.583  0.7882 -2.7919 -0.3112
  743MOL0     H  258   2.162   3.378   0.642  1.2264 -4.3955  1.0439
  743MOL0     H  259   2.133   3.277   0.851  1.9520  0.1746 -1.4122
  743MOL0     H  260   1.975   3.207   0.799  0.6729  0.9305 -0.6588
  743MOL0     H  261   2.153   3.098   0.622  2.5242 -0.6480 -0.0074
  743MOL0     H  262   2.121   3.029   0.788 -0.6623 -0.6402 -0.1610
  743MOL0     H  263   2.321   3.178   0.852  2.3749  0.1958 -1.0727
  743MOL0     H  264   2.352   3.198   0.685 -0.2939 -1.2672 -0.8954
  743MOL0     H  265   2.259   2.956   0.985  0.1601 -0.7627 -0.0544
  743MOL0     H  266   2.354   2.886   1.189  0.8128 -0.5317  0.3938
  743MOL0     H  267   2.429   2.783   1.569  1.4827  0.1009  1.3453
  743MOL0     H  268   2.477   2.677   1.765 -0.0816  2.4057  0.1884
  743MOL0     H  269   2.678   2.663   1.941  0.0275  1.0644 -0.9068
  743MOL0     H  270   2.541   2.554   1.921  0.5984  1.9495  0.2142
  743MOL0     H  271   2.661   2.520   2.131 -0.3942 -0.6020  0.2411
  743MOL0     H  272   2.637   2.375   2.024  1.6966 -0.6369 -2.7246
  743MOL0     H  273   2.876   2.376   1.950  0.8894 -0.9043  1.2401
  743MOL0     H  274   2.898   2.534   2.004 -0.1205 -0.0153 -0.2491
  743MOL0     H  275   2.864   2.295   2.208 -1.9569 -0.2303 -1.0663
  743MOL0     H  276   2.888   2.468   2.236  0.9911 -1.8273  1.3266
  743MOL0     H  277   3.101   2.456   2.127  0.3905  0.6811  0.5053
  743MOL0     H  278   3.081   2.278   2.116  1.8644  1.4369 -0.4874
  743MOL0     H  279   3.071   2.403   2.394  0.3132  1.6516 -1.2519
  743MOL0     H  280   3.059   2.240   2.354 -1.1557 -0.4581 -1.3889
  743MOL0     H  281   3.289   2.444   2.303 -0.0692  0.4378 -0.6553
  743MOL0     H  282   3.297   2.270   2.266  0.1984  2.0126 -0.7320
  743MOL0     H  283   3.402   2.373   2.481  1.4505 -2.1598  1.4882
  743MOL0     H  284   3.233   2.376   2.545 -1.1136 -0.9505 -0.6471
  743MOL0     H  285   2.829   2.499   1.579 -0.2730 -0.8116 -0.8186
  743MOL0     H  286   2.775   2.623   1.368 -0.7219 -1.1340 -0.8974
  743MOL0     H  287   2.743   2.877   1.020 -0.4134 -1.4282  3.2926
  743MOL0     H  288   2.636   2.982   0.800  1.2745  2.6763  0.7193
  743MOL0     H  289   0.688   3.312   0.883  2.7899  1.2352  0.2974
  743MOL0     H  290   0.441   3.341   0.837  2.1561 -1.5341  1.3139
  743MOL0     H  291   0.151   3.467   0.350  0.7264  0.0343  0.2357
  743MOL0     H  292  -0.075   3.520   0.280 -0.9156  0.0218 -0.2781
  743MOL0     H  293  -0.285   3.550   0.236  1.8278  1.4498  1.2079
  743MOL0     H  294  -0.438   3.595   0.320 -0.2462 -1.6058  0.1095
  743MOL0     H  295  -0.425   3.382   0.442 -1.5769  0.6576 -0.4657
  743MOL0     H  296  -0.283   3.335   0.362 -0.0715  0.3323  0.5816
  743MOL0     H  297  -0.388   3.314   0.143  0.8730  1.7249 -0.1227
  743MOL0     H  298  -0.535   3.381   0.200  0.9067  0.6200 -1.3383
  743MOL0     H  299  -0.425   3.143   0.350  0.1390 -1.0629 -1.5474
  743MOL0     H  300  -0.587   3.193   0.343 -1.3566 -1.2050 -1.5607
  743MOL0     H  301  -0.593   2.962  -0.000  0.7752 -2.2217  2.0330
  743MOL0     H  302  -0.178   3.607   0.686 -0.9521 -1.9386  0.1408
  743MOL0     H  303   0.131   3.663   0.823 -2.8193  3.7543 -1.2425
  743MOL0     H  304  -0.035   3.615   0.849  0.2457 -0.9351  0.0695
  743MOL0     H  305   0.090   3.487   0.827  1.3021  0.2817 -1.1560
  744MOL0     O  306  10.022   0.151   7.104 -1.0189  0.4188  0.0359
  744MOL0     C  307  10.012   0.039   7.050  0.2569  0.1994  0.7498
  744MOL0     O  308  10.082  -0.077   7.082  0.1582  0.3099 -0.4661
  744MOL0     C  309  10.181  -0.065   7.174 -0.2856  0.5891  0.1261
  744MOL0     C  310  10.160  -0.117   7.304 -0.5217  0.8859 -0.2260
  744MOL0     C  311  10.264  -0.107   7.401 -0.5458  0.5545 -0.0945
  744MOL0     C  312  10.388  -0.062   7.353  0.1104 -0.6325 -0.0191
  744MOL0     O  313  10.501  -0.069   7.434 -0.1577  0.2010  0.3238
  744MOL0     C  314  10.490  -0.105   7.572 -0.1761 -0.2559  0.2028
  744MOL0     C  315  10.630  -0.092   7.615 -0.2609 -0.8909  0.1267
  744MOL0     C  316  10.693   0.057   7.603 -0.2743  1.1468 -0.8474
  744MOL0     C  317  10.839   0.060   7.659 -0.4714 -0.6600 -0.3193
  744MOL0     C  318  10.849  -0.001   7.798 -0.0527  0.2281 -0.5588
  744MOL0     C  319  10.973   0.052   7.886 -0.3637  0.2749 -0.2286
  744MOL0     C  320  11.106   0.010   7.827  1.3992 -0.1572  0.3963
  744MOL0     C  321  11.210   0.046   7.930 -0.3632 -0.8486 -0.8448
  744MOL0     N  322  11.343   0.071   7.874  0.0630 -0.0036  0.0901
  744MOL0     C  323  11.444   0.106   7.959  1.0178  0.1475  0.4216
  744MOL0     C  324  11.552   0.116   7.881 -0.9350 -0.5256 -0.5663
  744MOL0     C  325  11.696   0.141   7.923  0.5910 -0.1155  0.3253
  744MOL0     C  326  11.774   0.016   7.932 -0.0084  0.3013  0.4446
  744MOL0     C  327  11.893   0.022   8.033 -0.2532  0.0171  0.0695
  744MOL0     C  328  12.007   0.118   7.994 -0.4634  0.7792 -0.4161
  744MOL0     O  329  12.142   0.103   8.053  0.3722 -0.0874 -0.0251
  744MOL0     C  330  12.229   0.003   8.012  0.1404 -1.6154  0.0579
  744MOL0     C  331  12.182  -0.098   7.926 -0.6780  0.2107 -0.5498
  744MOL0     C  332  12.284  -0.181   7.871  0.7831  1.3156 -0.2817
  744MOL0     C  333  12.417  -0.172   7.915  0.5051  0.2182 -0.3050
  744MOL0     C  334  12.515  -0.258   7.870 -0.0313  0.3236 -0.0593
  744MOL0     O  335  12.477  -0.380   7.833  0.6129 -0.2627  0.2522
  744MOL0     C  336  12.554  -0.474   7.770 -0.4962  0.5631 -0.3888
  744MOL0     C  337  12.671  -0.452   7.694 -0.1923 -0.7067 -0.1164
  744MOL0     C  338  12.745  -0.557   7.641  0.1711  0.3193 -0.3950
  744MOL0     C  339  12.711  -0.689   7.676 -0.6622 -0.5631 -0.2569
  744MOL0     O  340  12.794  -0.794   7.640  1.1011  0.1352  0.5568
  744MOL0     C  341  12.725  -0.921   7.600 -0.0194  0.2170 -0.0868
  744MOL0     C  342  12.821  -1.041   7.595 -0.3419  0.6700  0.0832
  744MOL0     C  343  12.846  -1.092   7.732  0.7633  0.2460 -0.9501
  744MOL0     C  344  12.968  -1.174   7.715 -0.2374  0.5177 -0.1591
  744MOL0     C  345  13.019  -1.237   7.841 -1.0137 -0.0595 -0.2903
  744MOL0     C  346  13.140  -1.313   7.793 -0.0871  0.5568  0.9869
  744MOL0     C  347  13.199  -1.392   7.912 -0.5354  0.3505  0.2700
  744MOL0     C  348  13.226  -1.536   7.876 -0.5489  0.0480 -0.0356
  744MOL0    Cl  349  13.202  -1.658   8.011  0.0232 -0.2156 -0.8758
  744MOL0     C  350  12.589  -0.709   7.731  0.1601  0.3628 -0.1979
  744MOL0     C  351  12.510  -0.607   7.779  0.2954 -0.1066 -0.0994
  744MOL0     O  352  12.633  -0.210   7.860  0.7775  0.0224  0.4794
  744MOL0     C  353  12.457  -0.083   8.014  0.0494  0.1967 -0.0819
  744MOL0     C  354  12.361   0.010   8.054  0.0725 -0.3613 -0.3408
  744MOL0     N  355  11.517   0.070   7.757  1.2967 -0.8544 -0.0332
  744MOL0     N  356  11.392   0.048   7.751 -0.9574  0.6892 -0.1039
  744MOL0     C  357  10.417  -0.017   7.225  0.0271  0.0439 -0.8842
  744MOL0     C  358  10.305  -0.021   7.141  0.0316 -0.1992  0.2819
  744MOL0     C  359   9.930   0.028   6.929 -0.9452 -0.5553  0.5589
  744MOL0     C  360   9.839  -0.076   6.921 -0.2310 -0.3240  0.7114
  744MOL0     C  361   9.762  -0.085   6.803  1.1412 -0.7201 -0.2506
  744MOL0     C  362   9.792  -0.012   6.693  0.3303  0.7189  0.3212
  744MOL0     O  363   9.698  -0.032   6.591  0.4339  0.1232  0.1783
  744MOL0     C  364   9.707   0.045   6.472 -0.4440  0.0391  0.1614
  744MOL0     C  365   9.644   0.179   6.499 -0.0522 -0.5001 -0.3935
  744MOL0     C  366   9.502   0.193   6.436  0.3019 -0.3431  0.3505
  744MOL0     C  367   9.410   0.076   6.475  0.0538  0.3315  0.2151
  744MOL0     C  368   9.271   0.103   6.429 -0.2570 -0.2581  0.1798
  744MOL0     C  369   9.152   0.111   6.393 -1.1065 -0.0081  0.0827
  744MOL0     C  370   9.893   0.078   6.695 -0.0602  0.7506  0.1327
  744MOL0     C  371   9.959   0.103   6.815  0.7571  0.3323 -0.0881
  744MOL0     C  372  10.077   0.201   6.809  0.6939  0.4718 -0.2903
  744MOL0     H  373  10.068  -0.164   7.336 -0.9419 -0.2074 -2.8308
  744MOL0     H  374  10.255  -0.137   7.505 -0.6126  0.7043 -0.0568
  744MOL0     H  375  10.432  -0.026   7.620 -1.0777 -0.0567 -1.1640
  744MOL0     H  376  10.460  -0.207   7.598  2.9301 -0.9270  1.6922
  744MOL0     H  377  10.681  -0.158   7.544  0.9413 -1.4409  1.4738
  744MOL0     H  378  10.627  -0.119   7.721 -2.4213  1.5838  0.7910
  744MOL0     H  379  10.632   0.128   7.660 -0.7776  0.3671 -0.3954
  744MOL0     H  380  10.700   0.097   7.502  0.7790 -0.6481 -1.5413
  744MOL0     H  381  10.916   0.009   7.600 -0.2749 -1.2179  0.4086
  744MOL0     H  382  10.870   0.165   7.661 -0.3070 -0.6128 -2.3653
  744MOL0     H  383  10.757   0.015   7.855 -0.9682 -1.6307 -1.4343
  744MOL0     H  384  10.861  -0.110   7.790  1.6388  0.2602  0.8023
  744MOL0     H  385  10.963   0.161   7.896  0.7253  0.1619  3.7097
  744MOL0     H  386  10.963   0.003   7.983  2.2364  0.7073  0.3533
  744MOL0     H  387  11.126   0.062   7.732 -0.8288  1.9961  1.0146
  744MOL0     H  388  11.104  -0.097   7.806 -0.8787  0.2949 -2.3915
  744MOL0     H  389  11.186   0.137   7.987 -1.3419  1.0223 -3.9848
  744MOL0     H  390  11.223  -0.040   7.997 -1.3024 -1.1255 -1.0104
  744MOL0     H  391  11.432   0.135   8.063  2.5627 -1.7241  1.1881
  744MOL0     H  392  11.748   0.210   7.856 -1.8010  1.0481 -0.4178
  744MOL0     H  393  11.677   0.185   8.022 -1.2427  2.1341 -0.9221
  744MOL0     H  394  11.710  -0.063   7.972  1.4207 -0.3398  1.5085
  744MOL0     H  395  11.803  -0.021   7.833  1.7443 -3.9458  2.3334
  744MOL0     H  396  11.922  -0.083   8.047 -3.6920 -1.2372 -1.1017
  744MOL0     H  397  11.860   0.042   8.136  2.1274 -0.1793  0.9329
  744MOL0     H  398  11.962   0.216   8.008  0.4165  0.9840  1.2726
  744MOL0     H  399  12.021   0.105   7.887 -1.2484 -0.6805 -0.3642
  744MOL0     H  400  12.080  -0.120   7.899 -0.8786  0.5377 -0.0576
  744MOL0     H  401  12.252  -0.266   7.812  0.5261  0.2654  1.2980
  744MOL0     H  402  12.710  -0.352   7.684 -2.7168  0.0666 -4.4583
  744MOL0     H  403  12.840  -0.542   7.590  1.7020 -3.9860  0.7065
  744MOL0     H  404  12.644  -0.952   7.666  0.6588  0.9232  1.1050
  744MOL0     H  405  12.681  -0.915   7.500  0.3635 -0.0648 -0.2778
  744MOL0     H  406  12.766  -1.114   7.535  0.1701  0.7020 -0.4262
  744MOL0     H  407  12.908  -1.024   7.532  0.1012  3.3120  1.2637
  744MOL0     H  408  12.870  -1.004   7.792 -1.2858  0.0177  0.2868
  744MOL0     H  409  12.766  -1.157   7.769  0.3616  1.9818  1.4619
  744MOL0     H  410  13.050  -1.112   7.678  2.7596 -2.6244  0.6287
  744MOL0     H  411  12.941  -1.255   7.648 -4.1260  0.0696  1.6464
  744MOL0     H  412  12.956  -1.309   7.894 -0.8264 -0.7369 -0.9667
  744MOL0     H  413  13.041  -1.162   7.917 -1.7953 -1.4826  1.4213
  744MOL0     H  414  13.105  -1.378   7.712  0.2307  1.6259 -0.0504
  744MOL0     H  415  13.209  -1.248   7.739 -0.7371  1.2234  0.9275
  744MOL0     H  416  13.128  -1.390   7.995 -3.3650 -0.9079 -1.9684
  744MOL0     H  417  13.292  -1.350   7.952 -0.3485 -0.8418  1.1589
  744MOL0     H  418  13.149  -1.570   7.807  0.7093 -4.0582  0.3339
  744MOL0     H  419  13.323  -1.545   7.828 -1.3368  0.8111 -1.8446
  744MOL0     H  420  12.549  -0.806   7.757 -0.4295  1.0885  1.7371
  744MOL0     H  421  12.419  -0.637   7.830  0.3334 -0.1742 -0.0714
  744MOL0     H  422  12.563  -0.080   8.040  0.0861 -0.9296 -0.0904
  744MOL0     H  423  12.385   0.094   8.118 -2.5703 -0.8417  1.4725
  744MOL0     H  424  10.513   0.015   7.188  0.5898 -1.6925 -1.0170
  744MOL0     H  425  10.310   0.017   7.040 -1.4289  2.0901  0.9799
  744MOL0     H  426   9.815  -0.143   7.003  0.8782  1.0075  2.1665
  744MOL0     H  427   9.683  -0.157   6.786  1.9508 -0.8882 -4.2651
  744MOL0     H  428   9.660  -0.013   6.392 -0.3971 -2.7263  2.0099
  744MOL0     H  429   9.809   0.064   6.437 -1.0013 -0.8906 -2.1771
  744MOL0     H  430   9.708   0.255   6.454  1.9836 -0.9529  1.5888
  744MOL0     H  431   9.646   0.202   6.605  3.1986 -0.1697 -0.4332
  744MOL0     H  432   9.515   0.213   6.329  1.9837 -3.7772 -0.2289
  744MOL0     H  433   9.456   0.286   6.472 -0.6558  1.5458 -4.8893
  744MOL0     H  434   9.442  -0.015   6.424 -0.9824  0.3955 -0.5635
  744MOL0     H  435   9.407   0.049   6.581 -0.5196 -1.6490 -0.2618
  744MOL0     H  436   9.049   0.109   6.365 -0.7645  1.8167 -1.5166
  744MOL0     H  437   9.933   0.132   6.608 -2.7393 -1.7811 -2.9203
  744MOL0     H  438  10.116   0.210   6.707 -1.5203  0.0112 -1.2400
  744MOL0     H  439  10.053   0.302   6.843  0.6197  0.6962 -0.9867
  744MOL0     H  440  10.159   0.171   6.874 -0.1502  0.2562  0.6915
  745MOL0     O  441   0.063   0.271   1.583 -0.1493  0.7480  0.1984
  745MOL0     C  442   0.009   0.186   1.649  1.2431  1.0651 -0.8349
  745MOL0     O  443   0.083   0.081   1.703  0.3380 -0.1950  0.2112
  745MOL0     C  444   0.217   0.076   1.693 -0.8338 -0.3572  0.0669
  745MOL0     C  445   0.304   0.186   1.709 -0.6331  0.3177 -0.4707
  745MOL0     C  446   0.444   0.164   1.734  1.1869  0.2203  0.2911
  745MOL0     C  447   0.495   0.035   1.730  0.3427 -0.1788  0.5200
  745MOL0     O  448   0.624   0.002   1.753 -0.0437  0.1181 -0.3773
  745MOL0     C  449   0.715   0.082   1.831  0.0619  0.6206 -0.0240
  745MOL0     C  450   0.839   0.084   1.748 -0.4208  0.5958  0.1641
  745MOL0     C  451   0.972   0.132   1.817 -0.8768 -0.2022 -0.3176
  745MOL0     C  452   1.008   0.018   1.913  0.1884 -0.1880 -0.1030
  745MOL0     C  453   1.151   0.012   1.972  0.0923 -0.5372 -0.2245
  745MOL0     C  454   1.266   0.003   1.867  0.1472  0.0257  0.1495
  745MOL0     C  455   1.399  -0.023   1.949  0.0520 -0.4253 -0.3964
  745MOL0     C  456   1.515  -0.052   1.863  0.2236 -0.7022  0.4402
  745MOL0     N  457   1.636  -0.045   1.946 -0.4202  0.2568  0.5987
  745MOL0     C  458   1.702   0.069   1.986 -0.6881 -0.7312 -0.1198
  745MOL0     C  459   1.802   0.031   2.068  0.6050 -1.0019 -0.2970
  745MOL0     C  460   1.886   0.124   2.147  0.2214 -0.4337  0.5935
  745MOL0     C  461   2.030   0.125   2.102  0.1413  0.0936  0.2990
  745MOL0     C  462   2.060   0.243   2.009 -0.3240 -0.2458  1.2113
  745MOL0     C  463   2.210   0.238   1.964 -1.2500 -0.2886  0.4185
  745MOL0     O  464   2.276   0.305   2.061 -0.0825 -0.0532 -0.4824
  745MOL0     C  465   2.411   0.293   2.067 -0.2209  0.4261  0.7425
  745MOL0     C  466   2.493   0.273   1.950 -0.6528  0.1892 -0.1889
  745MOL0     C  467   2.633   0.282   1.964 -0.3051  0.3445 -0.2678
  745MOL0     C  468   2.697   0.281   2.091  0.0999 -0.0799  0.5794
  745MOL0     C  469   2.845   0.278   2.091  0.1563  0.3353  0.1186
  745MOL0     O  470   2.904   0.242   2.213 -0.0181 -0.4853  0.6071
  745MOL0     C  471   3.043   0.213   2.211 -0.1779 -0.6001 -0.2684
  745MOL0     C  472   3.082   0.092   2.268  0.0643 -0.0836 -0.2259
  745MOL0     C  473   3.215   0.054   2.270  0.2522 -0.8421  0.4620
  745MOL0     C  474   3.321   0.140   2.226 -0.1470 -0.0763  0.9567
  745MOL0     O  475   3.449   0.094   2.203 -0.0543 -0.1210  0.3728
  745MOL0     C  476   3.484  -0.027   2.255  0.6657 -0.8620 -0.4329
  745MOL0     C  477   3.631  -0.056   2.240  0.5252 -0.4513  0.6850
  745MOL0     C  478   3.706  -0.099   2.367  0.6409  0.5532 -0.0457
  745MOL0     C  479   3.860  -0.086   2.332  0.4385  0.1866 -0.4658
  745MOL0     C  480   3.953  -0.104   2.457  0.0042 -0.4353  0.2881
  745MOL0     C  481   3.989   0.024   2.534 -0.2015 -0.3608  0.3586
  745MOL0     C  482   4.078  -0.002   2.661 -0.1350  0.5481 -0.0277
  745MOL0     C  483   4.221  -0.034   2.637  0.2431  0.2036  0.5086
  745MOL0    Cl  484   4.322   0.073   2.544 -0.4317 -0.3251 -0.2836
  745MOL0     C  485   3.280   0.266   2.170  0.3460  0.2803 -0.4836
  745MOL0     C  486   3.144   0.299   2.167  0.1434  0.4763 -0.4088
  745MOL0     O  487   2.905   0.300   1.985  0.5965 -0.1404  0.1589
  745MOL0     C  488   2.612   0.283   2.202 -0.2579  0.1892  0.4243
  745MOL0     C  489   2.471   0.300   2.185 -0.2320 -0.1481 -0.4088
  745MOL0     N  490   1.801  -0.109   2.065 -0.4100  0.0097  0.0623
  745MOL0     N  491   1.700  -0.152   1.999  0.8089  0.3255  0.3268
  745MOL0     C  492   0.406  -0.076   1.712 -0.5669 -0.3119 -0.2168
  745MOL0     C  493   0.268  -0.056   1.705  0.3298 -0.2979  0.1936
  745MOL0     C  494  -0.132   0.174   1.630 -0.1811 -0.6819  0.1153
  745MOL0     C  495  -0.208   0.290   1.585 -0.3204  0.3470 -0.5468
  745MOL0     C  496  -0.341   0.289   1.566 -0.1341 -0.2477 -0.0863
  745MOL0     C  497  -0.410   0.168   1.586  0.3348 -0.7826  0.0730
  745MOL0     O  498  -0.550   0.153   1.567  0.4446  0.6341 -0.3287
  745MOL0     C  499  -0.616   0.267   1.517 -0.5842  0.0991  0.5027
  745MOL0     C  500  -0.751   0.236   1.475 -0.6090  0.9561  0.6294
  745MOL0     C  501  -0.756   0.134   1.353 -0.3869 -0.6400 -0.1679
  745MOL0     C  502  -0.902   0.124   1.308  0.3883  0.0332  0.1556
  745MOL0     C  503  -0.921   0.066   1.173 -0.1060 -1.0245  0.3098
  745MOL0     C  504  -0.937   0.012   1.064 -0.9176  0.0269  0.0491
  745MOL0     C  505  -0.340   0.055   1.635  0.1595 -0.6036  0.2520
  745MOL0     C  506  -0.203   0.055   1.664 -0.7292  0.5320  0.1725
  745MOL0     C  507  -0.153  -0.078   1.721 -0.7329 -0.1898  0.0930
  745MOL0     H  508   0.260   0.283   1.726 -2.6894 -0.6387  0.0007
  745MOL0     H  509   0.500   0.255   1.751 -0.8086  1.1482  2.4802
  745MOL0     H  510   0.690   0.187   1.847  0.0433  0.6504 -0.2510
  745MOL0     H  511   0.729   0.033   1.928  1.0267 -2.2060 -1.4923
  745MOL0     H  512   0.824   0.155   1.665 -0.6555 -0.7907 -1.0219
  745MOL0     H  513   0.868  -0.008   1.697  2.9822  1.4867  0.2821
  745MOL0     H  514   0.951   0.224   1.873 -1.7628 -2.9265  4.4623
  745MOL0     H  515   1.050   0.153   1.744 -0.0664  2.4389  1.1719
  745MOL0     H  516   0.933   0.031   1.991 -2.3190 -0.5574 -2.3200
  745MOL0     H  517   0.984  -0.074   1.860  0.3020 -0.0930 -0.3195
  745MOL0     H  518   1.159   0.095   2.043 -1.2078 -1.7180  1.3715
  745MOL0     H  519   1.161  -0.077   2.034 -1.5061 -1.8869 -1.7927
  745MOL0     H  520   1.256  -0.078   1.794  3.7375  0.1878 -0.7013
  745MOL0     H  521   1.274   0.092   1.804  0.0625  1.4116  2.0203
  745MOL0     H  522   1.376  -0.104   2.019 -1.5321 -0.3084 -0.7360
  745MOL0     H  523   1.424   0.061   2.014 -2.1805 -0.9588  1.2877
  745MOL0     H  524   1.497  -0.140   1.802 -0.5999 -0.0486 -0.2808
  745MOL0     H  525   1.520   0.036   1.798  0.3005 -0.2236  1.0725
  745MOL0     H  526   1.683   0.172   1.958  0.1495 -0.2461  0.9752
  745MOL0     H  527   1.844   0.224   2.151 -1.2505 -0.9925 -0.2299
  745MOL0     H  528   1.875   0.082   2.248 -2.1956 -1.4360 -0.0240
  745MOL0     H  529   2.096   0.142   2.188 -1.1994  1.4442  1.1072
  745MOL0     H  530   2.063   0.030   2.060 -1.8519 -0.7911  0.6342
  745MOL0     H  531   2.030   0.339   2.052  0.1121  1.2714 -1.6145
  745MOL0     H  532   1.999   0.235   1.919 -0.7294  3.3737  0.9973
  745MOL0     H  533   2.219   0.275   1.861  1.2301  1.1431  1.0841
  745MOL0     H  534   2.235   0.131   1.968 -0.2024 -0.0210  1.4578
  745MOL0     H  535   2.441   0.271   1.855 -0.6810  0.4641 -0.1809
  745MOL0     H  536   2.679   0.269   1.866 -1.1242 -3.7715 -0.2929
  745MOL0     H  537   3.007   0.022   2.303  0.1206  0.6981  1.5537
  745MOL0     H  538   3.247  -0.041   2.310  1.3933 -1.7254 -2.3265
  745MOL0     H  539   3.452  -0.036   2.360 -2.0520 -0.7582 -1.1673
  745MOL0     H  540   3.430  -0.100   2.195 -1.8459  0.2702  0.2942
  745MOL0     H  541   3.647  -0.125   2.156 -4.2154 -0.7075 -0.3219
  745MOL0     H  542   3.666   0.041   2.204 -1.6163  0.0652 -0.1559
  745MOL0     H  543   3.673  -0.033   2.447 -1.0409 -1.0344  0.6491
  745MOL0     H  544   3.675  -0.197   2.404  0.6636 -0.3136 -2.1498
  745MOL0     H  545   3.875   0.013   2.290  0.0607  0.5128  0.1540
  745MOL0     H  546   3.894  -0.158   2.257 -1.6512  0.3905 -1.6679
  745MOL0     H  547   4.047  -0.151   2.427 -0.3875 -0.6821 -0.5788
  745MOL0     H  548   3.916  -0.173   2.533 -0.1159 -0.6132  0.0695
  745MOL0     H  549   4.043   0.077   2.456  1.1205  2.0236  2.7253
  745MOL0     H  550   3.896   0.080   2.552 -0.3596 -0.8328  1.0884
  745MOL0     H  551   4.027  -0.086   2.709  0.1173  0.9606  0.9801
  745MOL0     H  552   4.062   0.091   2.715 -2.1498 -0.0811  0.5349
  745MOL0     H  553   4.275  -0.049   2.732  1.5024  0.7692 -0.0912
  745MOL0     H  554   4.220  -0.136   2.596  0.3703  0.0918  0.7730
  745MOL0     H  555   3.345   0.333   2.115 -0.3375  1.0717 -0.3321
  745MOL0     H  556   3.113   0.394   2.125 -0.5415  0.1788 -0.5746
  745MOL0     H  557   2.658   0.266   2.299 -3.3819 -1.0408  1.8285
  745MOL0     H  558   2.412   0.298   2.276  0.6541 -1.8468  0.1766
  745MOL0     H  559   0.449  -0.175   1.707  0.3195  0.1131 -1.3412
  745MOL0     H  560   0.195  -0.137   1.708 -0.9086  0.6366 -2.2800
  745MOL0     H  561  -0.154   0.383   1.571 -0.2767  0.1782 -1.5715
  745MOL0     H  562  -0.388   0.377   1.523  0.2057  0.3990  0.8217
  745MOL0     H  563  -0.563   0.303   1.429  2.1796 -0.0774  1.9804
  745MOL0     H  564  -0.623   0.347   1.591 -2.3290  2.1510 -1.7242
  745MOL0     H  565  -0.790   0.335   1.452  1.3247  1.3367 -1.3710
  745MOL0     H  566  -0.799   0.199   1.566  0.9477 -1.6042  0.5265
  745MOL0     H  567  -0.714   0.036   1.379 -0.0717 -0.2871  0.6787
  745MOL0     H  568  -0.699   0.180   1.272  0.9714  1.2398  1.7350
  745MOL0     H  569  -0.962   0.059   1.373  1.1904  1.0855  2.0027
  745MOL0     H  570  -0.954   0.220   1.305 -4.0220 -2.1344 -0.8532
  745MOL0     H  571  -0.958  -0.047   0.977  0.1866 -0.1545 -0.1064
  745MOL0     H  572  -0.400  -0.032   1.657 -2.0747  0.5883 -0.7806
  745MOL0     H  573  -0.230  -0.138   1.770 -0.7680 -0.9902 -0.9127
  745MOL0     H  574  -0.125  -0.141   1.636 -1.0865  1.1474 -1.0673
  745MOL0     H  575  -0.066  -0.071   1.787  0.4351 -3.4838 -0.9171
  746MOL0     O  576  11.298   2.120  10.580 -0.0564  0.2329  0.1325
  746MOL0     C  577  11.279   2.190  10.477  0.6435 -0.3052 -0.3043
  746MOL0     O  578  11.353   2.189  10.366 -0.1194  0.6734  1.0308
  746MOL0     C  579  11.426   2.068  10.343  0.3597 -0.2126  0.1918
  746MOL0     C  580  11.516   2.001  10.427 -0.7196  0.4458  0.5713
  746MOL0     C  581  11.595   1.894  10.382  0.0596 -0.4564  0.6716
  746MOL0     C  582  11.579   1.856  10.242  0.0890 -0.5199  0.1746
  746MOL0     O  583  11.638   1.743  10.184  0.8334 -0.1689 -0.2627
  746MOL0     C  584  11.755   1.698  10.240 -0.0380  0.2471  0.2544
  746MOL0     C  585  11.813   1.606  10.134 -0.3132 -0.0202  0.8881
  746MOL0     C  586  11.962   1.562  10.153 -0.1258 -0.1989 -0.6982
  746MOL0     C  587  12.048   1.564  10.020  0.3859  0.0180 -0.2816
  746MOL0     C  588  12.198   1.552  10.030 -0.2091 -0.0869  0.4311
  746MOL0     C  589  12.237   1.404  10.061 -0.7359 -0.7496  0.0950
  746MOL0     C  590  12.391   1.403  10.083 -0.2058  0.7393  0.3372
  746MOL0     C  591  12.443   1.252  10.088  1.2050  0.3342  0.6306
  746MOL0     N  592  12.593   1.249  10.084  0.1229 -0.2519  0.2984
  746MOL0     C  593  12.670   1.262  10.196 -0.1946  0.1693  0.5444
  746MOL0     C  594  12.793   1.246  10.147  0.1199 -0.7777 -1.2419
  746MOL0     C  595  12.924   1.242  10.221 -0.2958 -0.0608 -0.4289
  746MOL0     C  596  12.995   1.112  10.235 -0.1818  0.0103 -0.2805
  746MOL0     C  597  13.126   1.154  10.301  0.5553  0.1119  0.0729
  746MOL0     C  598  13.208   1.037  10.373  0.7198 -0.0452  0.9689
  746MOL0     O  599  13.332   1.098  10.422  0.1556 -0.6256 -0.1221
  746MOL0     C  600  13.421   1.022  10.485  0.1894 -0.2982  0.0969
  746MOL0     C  601  13.383   0.902  10.554 -0.3190 -0.1360  0.2073
  746MOL0     C  602  13.486   0.834  10.621  0.4143 -0.2094 -0.7228
  746MOL0     C  603  13.624   0.880  10.624  0.2556  0.8598  0.0070
  746MOL0     C  604  13.728   0.805  10.693 -0.0929  0.4819  0.5905
  746MOL0     O  605  13.838   0.881  10.724  0.5174  0.1526  1.0440
  746MOL0     C  606  13.953   0.815  10.746 -0.1188 -0.0397  0.2851
  746MOL0     C  607  14.021   0.847  10.862  0.1325  0.2925  1.1395
  746MOL0     C  608  14.141   0.783  10.881  0.9764 -1.9163  0.2618
  746MOL0     C  609  14.205   0.704  10.789 -0.6116  0.0207 -0.1998
  746MOL0     O  610  14.327   0.660  10.822 -1.3529  0.5032 -0.1200
  746MOL0     C  611  14.430   0.627  10.727 -0.1737 -0.3782  0.1658
  746MOL0     C  612  14.550   0.576  10.796 -1.2698  0.2699 -0.5708
  746MOL0     C  613  14.623   0.690  10.870  0.4970 -0.0406  0.1855
  746MOL0     C  614  14.753   0.632  10.920 -0.4691 -0.1830 -0.8839
  746MOL0     C  615  14.812   0.727  11.023 -0.4055  0.7188  0.4153
  746MOL0     C  616  14.944   0.692  11.083 -0.1689 -0.1491 -0.4038
  746MOL0     C  617  15.000   0.823  11.147  0.0063  0.0617  0.3527
  746MOL0     C  618  15.094   0.781  11.266  0.4245  0.0438  0.6446
  746MOL0    Cl  619  15.242   0.721  11.192 -0.2223 -0.0620 -0.2898
  746MOL0     C  620  14.146   0.704  10.658  0.1794  1.2324  0.3366
  746MOL0     C  621  14.017   0.755  10.637  0.0596  0.3872 -1.2714
  746MOL0     O  622  13.712   0.683  10.719 -0.4630  0.0169 -0.3736
  746MOL0     C  623  13.661   0.990  10.547  0.4300 -0.1106  0.4304
  746MOL0     C  624  13.557   1.059  10.483  0.2410 -0.2726  0.5756
  746MOL0     N  625  12.792   1.259  10.011 -0.2059 -0.1671 -0.4362
  746MOL0     N  626  12.672   1.249   9.974  0.8849 -0.6829  0.0276
  746MOL0     C  627  11.483   1.916  10.158  0.2074 -0.4982 -0.2365
  746MOL0     C  628  11.413   2.020  10.213  0.5258 -0.7998  0.8827
  746MOL0     C  629  11.164   2.286  10.469  0.6940 -0.3588  0.4932
  746MOL0     C  630  11.087   2.306  10.349  0.5042 -0.0083 -0.4426
  746MOL0     C  631  10.969   2.376  10.350 -0.0015 -0.3232  0.8357
  746MOL0     C  632  10.936   2.469  10.463  0.4173 -0.7981 -0.3282
  746MOL0     O  633  10.834   2.563  10.457 -0.2889  0.1841 -0.0249
  746MOL0     C  634  10.782   2.623  10.574 -0.6084 -0.4652  0.3298
  746MOL0     C  635  10.637   2.672  10.543 -0.4760 -0.0582  0.5821
  746MOL0     C  636  10.559   2.558  10.472 -0.8180  0.2446 -0.8161
  746MOL0     C  637  10.407   2.586  10.453  0.5262 -0.3655  0.4069
  746MOL0     C  638  10.342   2.474  10.389 -0.1808 -0.7056  0.0293
  746MOL0     C  639  10.283   2.386  10.345 -0.1450  0.7825  0.2309
  746MOL0     C  640  11.026   2.459  10.569  0.6655  0.0085 -0.3542
  746MOL0     C  641  11.129   2.366  10.583 -1.2456 -0.3193 -0.2866
  746MOL0     C  642  11.210   2.367  10.714 -0.4734 -0.7481  0.2076
  746MOL0     H  643  11.530   2.031  10.531 -0.2982  1.2527  0.2963
  746MOL0     H  644  11.658   1.837  10.450  3.4386  2.8789  0.6633
  746MOL0     H  645  11.812   1.791  10.251  1.7320 -0.7799  0.1174
  746MOL0     H  646  11.750   1.651  10.338 -0.5238 -2.1031 -0.8249
  746MOL0     H  647  11.817   1.661  10.040  2.6400 -0.5656  0.6187
  746MOL0     H  648  11.760   1.512  10.118  2.7972 -1.6521 -0.6879
  746MOL0     H  649  11.963   1.462  10.197 -0.9968 -0.3093 -0.8987
  746MOL0     H  650  12.016   1.629  10.222 -2.1768  2.1583 -1.2108
  746MOL0     H  651  12.013   1.477   9.964 -2.2063 -0.6330  2.1083
  746MOL0     H  652  12.029   1.657   9.965  0.5538 -0.6134 -1.4418
  746MOL0     H  653  12.227   1.586   9.930 -0.7226  1.0195  0.6485
  746MOL0     H  654  12.233   1.623  10.105 -3.2494  1.9598  0.0708
  746MOL0     H  655  12.191   1.364  10.151 -1.5319 -1.3483 -0.5645
  746MOL0     H  656  12.214   1.339   9.976 -0.9862 -0.3930 -0.1143
  746MOL0     H  657  12.402   1.455  10.179 -2.1594 -0.3596  1.2165
  746MOL0     H  658  12.435   1.454   9.996 -1.0674  0.9088 -0.0076
  746MOL0     H  659  12.403   1.203  10.177  0.2059 -0.4785 -0.2358
  746MOL0     H  660  12.409   1.199   9.999 -5.1748  2.7406  1.1230
  746MOL0     H  661  12.633   1.249  10.297 -1.8840  1.3924  0.1346
  746MOL0     H  662  12.990   1.303  10.158  1.0581  0.2927  1.2633
  746MOL0     H  663  12.906   1.270  10.325  2.4679  0.2913  0.0287
  746MOL0     H  664  12.934   1.046  10.298 -2.8567 -0.0447 -2.7016
  746MOL0     H  665  13.032   1.071  10.141  0.7969 -0.4797  0.3029
  746MOL0     H  666  13.112   1.227  10.381  4.6086  0.4357  0.6763
  746MOL0     H  667  13.185   1.204  10.224 -1.6304 -0.1286 -1.8821
  746MOL0     H  668  13.241   0.956  10.307  0.0388  1.0515 -0.8021
  746MOL0     H  669  13.144   0.990  10.448 -2.2258  3.7059  1.1420
  746MOL0     H  670  13.280   0.867  10.551  0.0898 -1.3215 -0.7036
  746MOL0     H  671  13.474   0.736  10.666  2.5370 -0.6515 -0.9964
  746MOL0     H  672  13.979   0.918  10.932  0.6405  2.4270 -0.6124
  746MOL0     H  673  14.186   0.798  10.978 -0.9506  4.2790  0.6091
  746MOL0     H  674  14.402   0.543  10.663 -1.4465  0.0594  0.1032
  746MOL0     H  675  14.443   0.720  10.670  0.1373 -1.4182 -1.5240
  746MOL0     H  676  14.516   0.509  10.875  0.6126  2.8231  2.6491
  746MOL0     H  677  14.622   0.530  10.728 -0.7699  2.4463 -1.6147
  746MOL0     H  678  14.654   0.772  10.804  0.2919 -0.0533  0.0706
  746MOL0     H  679  14.569   0.733  10.955 -0.7898 -0.2236 -0.5199
  746MOL0     H  680  14.820   0.620  10.834 -1.7427 -0.2164 -1.8933
  746MOL0     H  681  14.747   0.533  10.967 -1.4976  0.7698  1.1233
  746MOL0     H  682  14.738   0.745  11.102 -1.6056  0.6341 -0.6546
  746MOL0     H  683  14.818   0.818  10.964 -1.0780 -0.5579 -1.7620
  746MOL0     H  684  14.934   0.608  11.152 -0.9695  1.1817  1.1661
  746MOL0     H  685  15.016   0.657  11.008  1.2610  0.6796  0.5459
  746MOL0     H  686  14.911   0.878  11.181  0.1726  0.3585  0.3138
  746MOL0     H  687  15.044   0.884  11.068 -1.6977  0.6358 -0.2048
  746MOL0     H  688  15.120   0.870  11.324 -1.2448  0.7721  0.3471
  746MOL0     H  689  15.051   0.714  11.341  0.6507 -1.2813 -0.3744
  746MOL0     H  690  14.192   0.667  10.567 -0.1683  1.5357  0.0336
  746MOL0     H  691  13.976   0.741  10.537  1.1707  2.1448 -2.0290
  746MOL0     H  692  13.766   1.017  10.540 -0.1051  1.6339 -1.8499
  746MOL0     H  693  13.592   1.138  10.417  4.3761 -2.3105 -0.0132
  746MOL0     H  694  11.460   1.890  10.055  0.9548  5.0122 -2.1172
  746MOL0     H  695  11.346   2.081  10.153  1.2026  0.6699  1.5824
  746MOL0     H  696  11.117   2.240  10.268  0.8000  0.3341 -0.6152
  746MOL0     H  697  10.916   2.382  10.255  0.3884  0.9890  0.6818
  746MOL0     H  698  10.831   2.717  10.600  1.5043 -0.9547 -1.6329
  746MOL0     H  699  10.779   2.552  10.657 -3.4932 -1.9263 -0.8687
  746MOL0     H  700  10.636   2.758  10.476  2.0746 -0.8301 -0.6026
  746MOL0     H  701  10.588   2.715  10.630 -1.8950  2.2775 -1.2548
  746MOL0     H  702  10.574   2.457  10.512  1.4892 -0.4337 -3.1266
  746MOL0     H  703  10.599   2.546  10.371  3.4204 -1.1744  0.8164
  746MOL0     H  704  10.363   2.609  10.550 -0.3399  0.3356 -0.1299
  746MOL0     H  705  10.403   2.679  10.394  1.4466 -1.0423 -0.7714
  746MOL0     H  706  10.225   2.304  10.309  1.2294 -0.8201  1.4768
  746MOL0     H  707  11.015   2.534  10.646 -0.2871  1.4675 -1.8266
  746MOL0     H  708  11.200   2.278  10.777  0.2341 -1.1122 -0.1792
  746MOL0     H  709  11.315   2.368  10.683 -0.5628 -2.1213 -0.1866
  746MOL0     H  710  11.175   2.454  10.771  2.2400  2.1291 -2.1298
  747MOL0     O  711   0.134   5.863   5.058  0.2472 -0.1493  0.1973
  747MOL0     C  712   0.020   5.860   5.101  0.2418 -0.2071  0.2254
  747MOL0     O  713  -0.090   5.807   5.030 -0.8598 -0.4174 -0.1801
  747MOL0     C  714  -0.071   5.785   4.889  0.0454  0.2362 -0.7385
  747MOL0     C  715  -0.135   5.857   4.784  0.3103 -0.4618  1.0382
  747MOL0     C  716  -0.112   5.818   4.650  0.9350 -0.4073  0.4943
  747MOL0     C  717  -0.029   5.709   4.616 -0.1814  0.0761  0.6921
  747MOL0     O  718   0.007   5.702   4.482 -0.0625 -0.0754 -0.4859
  747MOL0     C  719   0.117   5.622   4.443 -0.0221  0.3515 -0.3558
  747MOL0     C  720   0.149   5.628   4.293  0.2861 -0.1875  0.3093
  747MOL0     C  721   0.284   5.557   4.293 -0.0309  0.2656 -0.4830
  747MOL0     C  722   0.324   5.508   4.149  0.3443  0.1907  0.3397
  747MOL0     C  723   0.450   5.411   4.161 -0.4226  0.6708 -0.3581
  747MOL0     C  724   0.585   5.459   4.214 -0.3783 -0.4854 -0.5296
  747MOL0     C  725   0.680   5.344   4.166  0.0568 -0.1993 -0.3551
  747MOL0     C  726   0.723   5.354   4.023 -1.0474  0.1123  1.0280
  747MOL0     N  727   0.844   5.434   3.995  0.1337  0.7493  1.1056
  747MOL0     C  728   0.900   5.532   4.073  0.6372 -0.6750 -0.5777
  747MOL0     C  729   1.016   5.578   4.017 -0.3457  0.3961  0.0360
  747MOL0     C  730   1.095   5.700   4.060  0.6309 -0.7101 -0.4221
  747MOL0     C  731   1.216   5.750   3.981 -0.6523 -0.0075 -0.2151
  747MOL0     C  732   1.286   5.871   4.040 -0.2510  0.4779  0.3139
  747MOL0     C  733   1.410   5.913   3.958  0.2612  0.7594 -0.3738
  747MOL0     O  734   1.466   6.047   3.982 -0.2177  0.2409  0.1971
  747MOL0     C  735   1.589   6.067   3.918  0.2667 -1.4308  0.2408
  747MOL0     C  736   1.662   6.178   3.963  0.5982 -1.0614  0.0664
  747MOL0     C  737   1.783   6.203   3.904 -0.2089 -0.0558  0.2534
  747MOL0     C  738   1.830   6.121   3.800 -0.3973 -0.9080 -0.2211
  747MOL0     C  739   1.967   6.142   3.752  0.4157  0.1973  0.4974
  747MOL0     O  740   2.033   6.235   3.807  0.7206  0.4230 -0.4883
  747MOL0     C  741   2.171   6.247   3.783  0.7870 -0.0648  0.7411
  747MOL0     C  742   2.262   6.157   3.824  0.6826 -0.3459 -0.2067
  747MOL0     C  743   2.394   6.184   3.801 -0.1278  0.3812 -0.0796
  747MOL0     C  744   2.441   6.302   3.744 -0.2234  0.2356 -0.2100
  747MOL0     O  745   2.576   6.320   3.733  0.6952  0.0423  0.4709
  747MOL0     C  746   2.627   6.414   3.640 -0.6290  1.1100 -0.2203
  747MOL0     C  747   2.781   6.415   3.636  0.8887  0.1417  0.1185
  747MOL0     C  748   2.828   6.504   3.750  0.6798  0.5270  0.4745
  747MOL0     C  749   2.979   6.511   3.730 -0.1459 -0.3949 -0.3882
  747MOL0     C  750   3.042   6.608   3.838 -0.1168 -0.0846 -0.1814
  747MOL0     C  751   3.190   6.640   3.813 -0.6567  0.4263 -0.5881
  747MOL0     C  752   3.267   6.510   3.807  0.5691 -0.4013  0.9914
  747MOL0     C  753   3.402   6.528   3.874  0.2814 -1.1479  0.9386
  747MOL0    Cl  754   3.519   6.396   3.834  0.4162  0.0065 -0.6734
  747MOL0     C  755   2.349   6.403   3.707  0.7001 -0.6718  0.4613
  747MOL0     C  756   2.212   6.366   3.721 -0.2501 -0.2385 -0.2275
  747MOL0     O  757   2.018   6.068   3.672  0.8115  0.1402  0.3281
  747MOL0     C  758   1.750   6.020   3.743  0.1614  0.2329  0.5839
  747MOL0     C  759   1.633   5.994   3.802 -0.1460 -0.4469 -0.0760
  747MOL0     N  760   1.030   5.507   3.902  0.2646  0.4920  0.5252
  747MOL0     N  761   0.927   5.430   3.882  0.5801  0.1355 -0.5068
  747MOL0     C  762   0.029   5.645   4.719  0.2291 -0.1637 -0.7372
  747MOL0     C  763   0.014   5.683   4.854  0.3259 -0.1068 -0.4979
  747MOL0     C  764  -0.014   5.918   5.229  0.5206  0.6349 -0.0435
  747MOL0     C  765  -0.125   5.861   5.294 -0.0435  0.8086 -0.3133
  747MOL0     C  766  -0.165   5.900   5.425 -0.3299  0.1699 -0.0626
  747MOL0     C  767  -0.084   5.989   5.495  0.7536 -1.2664 -0.4196
  747MOL0     O  768  -0.128   6.008   5.632 -0.0237 -0.0946  0.2460
  747MOL0     C  769  -0.054   6.114   5.707  0.1476  0.1284 -0.4155
  747MOL0     C  770  -0.111   6.124   5.845 -0.1068  0.4608  0.6020
  747MOL0     C  771  -0.077   6.012   5.930  0.8945 -0.4622  0.2626
  747MOL0     C  772  -0.184   5.983   6.023 -0.1455  0.7291 -0.4767
  747MOL0     C  773  -0.220   6.086   6.124 -0.7030  0.5760 -0.0265
  747MOL0     C  774  -0.252   6.166   6.205 -0.1856  0.6924  0.0461
  747MOL0     C  775   0.034   6.041   5.430  0.2179  0.7246 -0.9562
  747MOL0     C  776   0.068   6.014   5.294  0.4039  0.7471 -0.6377
  747MOL0     C  777   0.192   6.086   5.239  0.1990  0.6298  0.2418
  747MOL0     H  778  -0.209   5.928   4.819  0.6889  0.5112 -0.0694
  747MOL0     H  779  -0.157   5.876   4.570  3.2645 -0.6341 -1.0887
  747MOL0     H  780   0.203   5.665   4.496  0.8576  0.0781 -1.5267
  747MOL0     H  781   0.092   5.518   4.468  0.2572  0.6213  1.1767
  747MOL0     H  782   0.161   5.730   4.255 -1.2936 -0.1352 -0.1118
  747MOL0     H  783   0.082   5.577   4.224  1.1316 -1.1680  0.1874
  747MOL0     H  784   0.289   5.470   4.359 -0.2428 -0.1037 -0.9501
  747MOL0     H  785   0.355   5.633   4.328 -2.0702  3.0913 -2.0890
  747MOL0     H  786   0.236   5.455   4.110 -0.9228  2.4446 -0.0317
  747MOL0     H  787   0.336   5.583   4.071 -0.1599 -0.0885 -0.0123
  747MOL0     H  788   0.419   5.334   4.232 -1.3270  2.9398  1.8252
  747MOL0     H  789   0.473   5.358   4.068 -1.5995 -1.0880  0.2967
  747MOL0     H  790   0.614   5.556   4.175  1.0223 -0.7278 -0.1487
  747MOL0     H  791   0.574   5.463   4.323  0.4712 -1.1782 -0.4057
  747MOL0     H  792   0.629   5.249   4.187 -0.7822 -0.2952 -2.5383
  747MOL0     H  793   0.776   5.345   4.218  0.2681  0.3798 -0.7526
  747MOL0     H  794   0.758   5.256   3.990  0.5652  0.4790  1.5605
  747MOL0     H  795   0.637   5.377   3.960 -1.3258 -3.6751 -0.2565
  747MOL0     H  796   0.850   5.583   4.154 -0.0208  1.0786 -2.0216
  747MOL0     H  797   1.015   5.774   4.051 -0.6586 -1.9795  0.2442
  747MOL0     H  798   1.121   5.701   4.166 -1.2312 -2.1877  0.0951
  747MOL0     H  799   1.296   5.675   3.978 -1.1198 -0.4905 -2.3588
  747MOL0     H  800   1.176   5.760   3.880 -3.3026 -0.2523  0.7500
  747MOL0     H  801   1.333   5.847   4.136  2.2600  0.6942 -0.7713
  747MOL0     H  802   1.221   5.959   4.031 -1.8309 -0.8554 -3.2755
  747MOL0     H  803   1.382   5.889   3.855 -0.2768 -2.5611  0.4329
  747MOL0     H  804   1.485   5.841   3.990  0.6652  1.2718 -0.1667
  747MOL0     H  805   1.617   6.232   4.046 -1.0460 -1.1181 -0.7350
  747MOL0     H  806   1.845   6.284   3.943 -1.1232  1.5188 -1.4175
  747MOL0     H  807   2.217   6.064   3.858 -0.9654 -0.0428 -1.4708
  747MOL0     H  808   2.463   6.100   3.813  0.1215  0.2448 -2.1593
  747MOL0     H  809   2.579   6.396   3.543  1.0246  2.5233 -1.3645
  747MOL0     H  810   2.584   6.512   3.661 -1.4212  0.8266 -0.4788
  747MOL0     H  811   2.823   6.315   3.639 -0.5250 -0.5669 -1.9005
  747MOL0     H  812   2.808   6.456   3.538  0.5782 -1.6259 -0.7410
  747MOL0     H  813   2.786   6.605   3.752  1.2766  0.7643  1.1190
  747MOL0     H  814   2.804   6.450   3.842  0.1115 -2.3098 -1.2268
  747MOL0     H  815   2.991   6.547   3.627  0.9709 -0.4983 -0.3072
  747MOL0     H  816   3.004   6.405   3.741 -2.8486 -1.1624 -0.7965
  747MOL0     H  817   3.030   6.549   3.929  0.9259 -0.1625 -0.0783
  747MOL0     H  818   2.994   6.706   3.848  0.6186  0.3725 -1.0291
  747MOL0     H  819   3.199   6.694   3.718 -0.7417  1.7802  0.1419
  747MOL0     H  820   3.225   6.701   3.897 -3.0313 -0.4884  1.2012
  747MOL0     H  821   3.289   6.477   3.705 -0.6382  0.0515  0.5669
  747MOL0     H  822   3.216   6.431   3.864  0.5846 -0.4277  0.9686
  747MOL0     H  823   3.448   6.621   3.838  1.3990 -0.9916  2.6580
  747MOL0     H  824   3.392   6.532   3.983 -0.3679 -0.0530  0.8566
  747MOL0     H  825   2.356   6.507   3.676 -3.1984  0.7403  3.3540
  747MOL0     H  826   2.144   6.446   3.693 -1.0216 -0.1326  1.8089
  747MOL0     H  827   1.782   5.957   3.661  0.3373  1.7229 -0.5407
  747MOL0     H  828   1.564   5.919   3.765 -1.2370  0.6181 -0.2685
  747MOL0     H  829   0.105   5.573   4.689  2.6472  1.3072  1.3625
  747MOL0     H  830   0.091   5.649   4.923 -0.1659  1.9896  1.1999
  747MOL0     H  831  -0.185   5.783   5.250  1.6382 -0.0014 -1.2577
  747MOL0     H  832  -0.255   5.856   5.467 -1.1263  1.0742 -0.7816
  747MOL0     H  833  -0.060   6.208   5.651  1.5120  0.6416  0.2551
  747MOL0     H  834   0.049   6.078   5.708  0.1469  0.0737 -1.2106
  747MOL0     H  835  -0.220   6.136   5.836 -0.0510  1.2546  0.8591
  747MOL0     H  836  -0.088   6.220   5.893 -1.8193  1.9845 -1.3711
  747MOL0     H  837   0.017   6.024   5.985  0.7345  0.1564  0.4138
  747MOL0     H  838  -0.068   5.920   5.871  0.9887 -0.4398  0.2429
  747MOL0     H  839  -0.270   5.958   5.959  0.2993  0.7284 -1.0831
  747MOL0     H  840  -0.145   5.899   6.081  2.0396  1.0380 -1.3939
  747MOL0     H  841  -0.284   6.236   6.279  0.0292  1.9885 -1.0360
  747MOL0     H  842   0.105   6.091   5.495 -0.8317 -1.5546  2.2272
  747MOL0     H  843   0.205   6.190   5.269 -1.5444  0.9441  0.0269
  747MOL0     H  844   0.281   6.023   5.253  0.0494 -0.0745 -1.6610
  747MOL0     H  845   0.184   6.091   5.130  1.4165  0.0563  0.1089
  748MOL0     O  846   9.963   1.914   6.916 -0.0571 -0.0420  0.0191
  748MOL0     C  847   9.887   1.839   6.974 -0.2536 -0.9023  0.0406
  748MOL0     O  848   9.848   1.715   6.937  0.2585  1.0384  0.3990
  748MOL0     C  849   9.893   1.676   6.814 -0.1565 -0.0159 -0.9919
  748MOL0     C  850  10.013   1.609   6.814 -0.1475  0.6198 -0.0947
  748MOL0     C  851  10.078   1.567   6.696  0.5179  0.7217  0.5688
  748MOL0     C  852  10.012   1.591   6.578 -0.2633 -0.7670  1.0068
  748MOL0     O  853  10.065   1.565   6.453  0.3991 -0.5048 -0.4912
  748MOL0     C  854  10.200   1.609   6.428  0.1064  0.3474  0.0634
  748MOL0     C  855  10.242   1.561   6.290 -0.6739  0.0295  0.6060
  748MOL0     C  856  10.384   1.614   6.257  0.9621 -0.5046  0.2887
  748MOL0     C  857  10.442   1.742   6.332 -0.0725 -0.1644 -0.3609
  748MOL0     C  858  10.581   1.770   6.278  0.3155 -0.2986 -0.1043
  748MOL0     C  859  10.668   1.872   6.352  0.0906 -0.3700 -0.3457
  748MOL0     C  860  10.805   1.882   6.283 -0.0074 -0.3072 -0.5059
  748MOL0     C  861  10.894   1.984   6.351  0.5066 -0.1536  0.5482
  748MOL0     N  862  11.002   2.021   6.263  0.0280  0.5425  0.6340
  748MOL0     C  863  11.142   2.016   6.282  0.2175 -0.4165  0.0529
  748MOL0     C  864  11.202   2.070   6.172  0.3598  0.1650  0.4019
  748MOL0     C  865  11.350   2.094   6.148  0.4214 -0.3308  0.7137
  748MOL0     C  866  11.434   1.960   6.158 -1.2039 -0.1836 -0.3366
  748MOL0     C  867  11.581   1.976   6.115 -0.0401  0.9294 -0.2822
  748MOL0     C  868  11.661   2.080   6.204  0.3557  0.3631 -0.5735
  748MOL0     O  869  11.778   2.124   6.120  0.4409 -0.3117 -0.4566
  748MOL0     C  870  11.892   2.159   6.194  0.3503 -0.0551  0.2171
  748MOL0     C  871  11.878   2.229   6.314 -0.2275  0.3873  0.0557
  748MOL0     C  872  11.990   2.274   6.385  0.2397 -0.0840 -0.4847
  748MOL0     C  873  12.123   2.240   6.336 -0.4449  0.1517 -0.0581
  748MOL0     C  874  12.247   2.285   6.399 -0.0276  0.2565  0.2320
  748MOL0     O  875  12.241   2.282   6.539  0.6620 -1.0816 -0.0319
  748MOL0     C  876  12.350   2.330   6.612  0.2220  0.4449  0.1535
  748MOL0     C  877  12.413   2.455   6.581  0.1230  0.1876 -0.3800
  748MOL0     C  878  12.519   2.497   6.662  0.2099 -0.4806  0.4786
  748MOL0     C  879  12.568   2.418   6.766 -0.1955  0.6535 -0.4041
  748MOL0     O  880  12.681   2.455   6.838 -0.2613 -0.0770 -0.0513
  748MOL0     C  881  12.767   2.346   6.873 -1.1799 -0.0878 -0.3886
  748MOL0     C  882  12.912   2.397   6.872  0.5243 -0.2203  0.8555
  748MOL0     C  883  12.979   2.289   6.959  0.4455  0.3628 -0.0852
  748MOL0     C  884  13.121   2.270   6.931  0.0593  0.2359  0.6661
  748MOL0     C  885  13.198   2.182   7.035  0.2396  0.0885  0.0512
  748MOL0     C  886  13.337   2.142   6.969  0.0213  0.7542  0.2013
  748MOL0     C  887  13.449   2.230   7.031  0.4355 -0.6265 -0.4116
  748MOL0     C  888  13.585   2.205   6.966  0.1501 -0.2280 -0.3019
  748MOL0    Cl  889  13.638   2.050   7.028 -0.1324  0.3404  0.3117
  748MOL0     C  890  12.500   2.302   6.804  0.7105  0.5294  0.3815
  748MOL0     C  891  12.389   2.258   6.721  0.7222 -0.6136 -0.8861
  748MOL0     O  892  12.345   2.316   6.339 -0.4538  0.2873  0.0446
  748MOL0     C  893  12.126   2.156   6.221 -0.4561 -0.7769  1.2563
  748MOL0     C  894  12.018   2.107   6.158  0.5810  0.0663  0.8121
  748MOL0     N  895  11.104   2.113   6.089 -0.0380 -0.1866 -0.1106
  748MOL0     N  896  10.982   2.071   6.138 -0.1785  0.0086  0.1327
  748MOL0     C  897   9.880   1.636   6.581 -0.2981  1.3658 -0.4677
  748MOL0     C  898   9.819   1.687   6.698  0.4149  0.3733 -0.4898
  748MOL0     C  899   9.826   1.906   7.097  0.5263  0.0514 -0.3189
  748MOL0     C  900   9.905   2.005   7.167  0.0746  0.0868  0.0595
  748MOL0     C  901   9.868   2.056   7.288 -0.1451  0.4363  0.2850
  748MOL0     C  902   9.737   2.026   7.334  0.4612 -0.5297  0.1108
  748MOL0     O  903   9.680   2.078   7.457  0.4138 -0.0118  0.1615
  748MOL0     C  904   9.752   2.173   7.525  0.4974 -0.8256  0.0233
  748MOL0     C  905   9.674   2.220   7.648  0.6398 -0.0850  0.2495
  748MOL0     C  906   9.765   2.298   7.743  0.5924 -1.2837 -0.3126
  748MOL0     C  907   9.682   2.342   7.876  0.3851  0.2847 -0.6092
  748MOL0     C  908   9.583   2.457   7.852 -0.1655  0.8708  0.1578
  748MOL0     C  909   9.489   2.531   7.834 -0.2819 -0.9408 -0.0186
  748MOL0     C  910   9.652   1.946   7.258 -0.9477 -0.0629 -0.8333
  748MOL0     C  911   9.693   1.874   7.141 -0.5044 -0.5199 -0.3845
  748MOL0     C  912   9.602   1.776   7.086  0.0492  0.7744  0.3201
  748MOL0     H  913  10.054   1.587   6.912  0.4731  1.8377 -0.0576
  748MOL0     H  914  10.176   1.521   6.680 -0.5593 -0.7723 -2.5517
  748MOL0     H  915  10.203   1.718   6.434 -0.8255  0.5119 -1.6609
  748MOL0     H  916  10.272   1.559   6.493 -1.8557 -0.0535  2.0284
  748MOL0     H  917  10.170   1.596   6.215  0.0505 -2.9759 -1.6815
  748MOL0     H  918  10.239   1.452   6.285  0.1138 -0.0537  1.6085
  748MOL0     H  919  10.386   1.630   6.149  0.4852  0.5985  0.4294
  748MOL0     H  920  10.442   1.522   6.272  1.4370 -1.0515 -3.7460
  748MOL0     H  921  10.375   1.828   6.321  2.2916  1.8530  0.0926
  748MOL0     H  922  10.443   1.717   6.438 -0.9849  1.1885  0.0007
  748MOL0     H  923  10.622   1.668   6.278 -5.0402 -2.8524 -1.9709
  748MOL0     H  924  10.574   1.803   6.174 -0.2653  0.2478  0.1088
  748MOL0     H  925  10.620   1.970   6.359  0.6049 -0.1269 -0.1352
  748MOL0     H  926  10.670   1.832   6.454 -0.4469  2.0980  0.7284
  748MOL0     H  927  10.789   1.893   6.176  1.2143 -3.8430 -1.1920
  748MOL0     H  928  10.852   1.783   6.292 -2.6256 -1.7084 -1.1194
  748MOL0     H  929  10.829   2.071   6.362 -1.1984 -1.4781  1.5568
  748MOL0     H  930  10.921   1.965   6.455 -0.0213  3.6022  1.5205
  748MOL0     H  931  11.194   1.978   6.369 -2.2466  0.4866  2.0123
  748MOL0     H  932  11.369   2.140   6.050 -0.2907  0.3812  0.8968
  748MOL0     H  933  11.364   2.168   6.227  1.0691 -1.9017  2.1187
  748MOL0     H  934  11.433   1.927   6.262 -0.8687 -0.3343 -0.3797
  748MOL0     H  935  11.381   1.882   6.101 -1.4331 -0.7055  0.5811
  748MOL0     H  936  11.578   2.017   6.014 -0.9784 -2.4231 -1.7413
  748MOL0     H  937  11.622   1.875   6.124 -0.5416  0.4690 -2.6298
  748MOL0     H  938  11.702   2.021   6.286 -1.3601 -0.0885 -0.0040
  748MOL0     H  939  11.595   2.156   6.247 -0.9230 -0.4886 -0.9976
  748MOL0     H  940  11.781   2.273   6.337  0.3568  2.0234 -0.4871
  748MOL0     H  941  11.990   2.334   6.475  1.3258 -0.8307  0.0403
  748MOL0     H  942  12.397   2.520   6.495  1.6400 -1.4813 -2.0251
  748MOL0     H  943  12.571   2.588   6.633 -0.9186  0.2531  0.7082
  748MOL0     H  944  12.737   2.318   6.975  1.3792 -0.5155  0.3108
  748MOL0     H  945  12.763   2.264   6.801 -1.6524  0.3812 -0.9071
  748MOL0     H  946  12.953   2.404   6.770 -0.1993 -2.3198  0.3763
  748MOL0     H  947  12.906   2.494   6.922 -5.1411 -1.2317  2.8023
  748MOL0     H  948  12.984   2.327   7.062 -0.3011  1.4942 -0.4468
  748MOL0     H  949  12.922   2.196   6.949 -1.2399  1.3223  0.2259
  748MOL0     H  950  13.173   2.364   6.950  1.7951 -0.9586  2.2316
  748MOL0     H  951  13.124   2.225   6.831 -2.8366  1.3764 -0.0215
  748MOL0     H  952  13.137   2.095   7.062 -0.2951  0.4152 -0.0806
  748MOL0     H  953  13.211   2.247   7.123 -0.3318  0.4346 -0.1123
  748MOL0     H  954  13.359   2.039   6.998 -0.0381 -0.3516 -3.2276
  748MOL0     H  955  13.328   2.148   6.860 -0.5826  2.4420  0.3155
  748MOL0     H  956  13.450   2.202   7.136 -1.1274  1.9567  0.3853
  748MOL0     H  957  13.409   2.330   7.012  2.0488  0.1419  0.0985
  748MOL0     H  958  13.583   2.213   6.857  0.8971 -1.1730 -0.3977
  748MOL0     H  959  13.659   2.281   6.993  0.5300 -0.6180 -0.2174
  748MOL0     H  960  12.530   2.232   6.881  1.6669 -2.1500 -2.2447
  748MOL0     H  961  12.325   2.174   6.747  1.7764 -2.5853 -4.0979
  748MOL0     H  962  12.220   2.123   6.179 -0.3610  0.1516  0.7182
  748MOL0     H  963  12.043   2.045   6.073  0.7284  3.4075 -1.8101
  748MOL0     H  964   9.835   1.655   6.484  2.1711 -2.1144 -2.5291
  748MOL0     H  965   9.721   1.733   6.701  0.3349  0.1949  2.4422
  748MOL0     H  966  10.008   2.025   7.136 -0.8454  0.2833 -3.3482
  748MOL0     H  967   9.927   2.135   7.332  1.0915 -0.7208  0.7744
  748MOL0     H  968   9.773   2.260   7.461 -0.0179  0.6716  1.7948
  748MOL0     H  969   9.855   2.149   7.550  1.3323  1.2285 -1.1617
  748MOL0     H  970   9.642   2.140   7.715  1.1561 -0.0021  0.6000
  748MOL0     H  971   9.586   2.280   7.624  0.4589  0.0675  1.2828
  748MOL0     H  972   9.801   2.386   7.688 -5.0256 -0.0071 -2.5827
  748MOL0     H  973   9.850   2.234   7.766  0.5016 -1.8424 -1.4757
  748MOL0     H  974   9.611   2.263   7.904 -0.3432  1.3044  0.4977
  748MOL0     H  975   9.747   2.362   7.961 -1.9232 -0.2653  1.3938
  748MOL0     H  976   9.391   2.575   7.835 -0.0433 -0.3640 -1.1009
  748MOL0     H  977   9.558   1.922   7.306 -0.4965  0.7072  0.4724
  748MOL0     H  978   9.504   1.793   7.132  0.0554 -1.1301  1.1492
  748MOL0     H  979   9.586   1.785   6.978 -1.8551  2.8712  0.7068
  748MOL0     H  980   9.643   1.676   7.103 -0.1260  1.1982  4.0535
  749MOL0     O  981   0.859   6.690   5.467  0.3389 -0.0306 -0.1507
  749MOL0     C  982   0.809   6.615   5.385 -0.2890  0.4227  0.1958
  749MOL0     O  983   0.877   6.556   5.279  1.1410  0.1032 -0.1238
  749MOL0     C  984   0.973   6.631   5.221 -0.3489  0.4934  0.6534
  749MOL0     C  985   1.106   6.610   5.246 -0.2694  0.8555  0.2396
  749MOL0     C  986   1.211   6.687   5.186  1.0076  0.6001 -0.0978
  749MOL0     C  987   1.177   6.788   5.099  0.3801 -0.4614 -0.7048
  749MOL0     O  988   1.267   6.862   5.036 -0.9171 -0.2277  0.1417
  749MOL0     C  989   1.389   6.901   5.108  0.5282 -0.5941  0.0554
  749MOL0     C  990   1.444   7.019   5.057 -0.7513 -0.3402 -0.7579
  749MOL0     C  991   1.494   7.001   4.914  0.0953 -0.0159 -0.1513
  749MOL0     C  992   1.544   7.125   4.842  0.8096 -0.3269 -0.0294
  749MOL0     C  993   1.675   7.171   4.892  0.5795 -0.6591 -0.2228
  749MOL0     C  994   1.722   7.298   4.806 -0.5704  1.0373 -0.2744
  749MOL0     C  995   1.866   7.326   4.837 -0.3782 -0.3565  0.1109
  749MOL0     C  996   1.972   7.221   4.817 -0.7233  0.5961 -0.9490
  749MOL0     N  997   2.109   7.246   4.867 -0.2460  1.0067 -0.1702
  749MOL0     C  998   2.211   7.153   4.866  0.2485  0.7660 -0.4350
  749MOL0     C  999   2.320   7.219   4.912  0.4719  0.4599  0.1735
  749MOL0     C 1000   2.459   7.155   4.928 -0.0052 -0.2752  0.2885
  749MOL0     C 1001   2.570   7.237   4.868 -0.4728  0.2536 -0.1037
  749MOL0     C 1002   2.530   7.269   4.726 -0.2346 -0.4479  1.0381
  749MOL0     C 1003   2.646   7.326   4.639 -0.0966 -0.2762 -0.5111
  749MOL0     O 1004   2.764   7.238   4.624  0.3313 -0.0964  0.2346
  749MOL0     C 1005   2.746   7.118   4.558  0.2107 -0.3121  0.5693
  749MOL0     C 1006   2.648   7.098   4.466 -0.0390 -0.2011 -0.9320
  749MOL0     C 1007   2.630   6.982   4.405  0.7289  0.4811  0.0474
  749MOL0     C 1008   2.726   6.881   4.413 -0.4927  0.0481 -0.4571
  749MOL0     C 1009   2.714   6.760   4.332 -0.6086  0.0024 -0.5034
  749MOL0     O 1010   2.610   6.756   4.239 -0.6349 -0.4629 -0.0017
  749MOL0     C 1011   2.564   6.626   4.224 -0.5330 -1.1610 -0.2531
  749MOL0     C 1012   2.472   6.575   4.315 -0.7085  1.0968  0.4136
  749MOL0     C 1013   2.429   6.436   4.303 -0.2660  0.4738  0.7147
  749MOL0     C 1014   2.496   6.354   4.209  0.5506 -0.2534  0.2479
  749MOL0     O 1015   2.482   6.227   4.179 -0.7597  0.3110  0.2814
  749MOL0     C 1016   2.359   6.161   4.225 -0.6000  0.4312 -0.0984
  749MOL0     C 1017   2.230   6.231   4.181  0.2236 -0.1337  0.4273
  749MOL0     C 1018   2.117   6.136   4.166  1.3023 -0.0676  1.1542
  749MOL0     C 1019   2.009   6.170   4.273 -0.5581  0.7359  0.0406
  749MOL0     C 1020   1.891   6.065   4.262 -0.4075  0.5954 -0.1374
  749MOL0     C 1021   1.806   6.099   4.382 -0.4893 -0.8390 -1.0365
  749MOL0     C 1022   1.668   6.040   4.373  0.0139  0.1676  0.1583
  749MOL0     C 1023   1.590   6.066   4.508 -0.7126  0.1728 -0.9243
  749MOL0    Cl 1024   1.416   6.038   4.479  0.0608  0.0093  0.3741
  749MOL0     C 1025   2.584   6.415   4.122 -0.3646 -0.5738 -0.1874
  749MOL0     C 1026   2.616   6.549   4.128 -0.4532 -0.1905 -0.1257
  749MOL0     O 1027   2.779   6.665   4.373 -0.4125 -1.2811  0.4106
  749MOL0     C 1028   2.839   6.905   4.496 -1.0361  0.9364 -0.1412
  749MOL0     C 1029   2.846   7.019   4.576  0.3211  0.0614  0.5080
  749MOL0     N 1030   2.285   7.351   4.939 -0.2146  0.0839 -0.4062
  749MOL0     N 1031   2.160   7.365   4.914 -0.9204 -0.1775 -0.6653
  749MOL0     C 1032   1.040   6.824   5.077 -0.3855  0.9203  0.0121
  749MOL0     C 1033   0.942   6.742   5.140  0.0134  1.0274 -0.4267
  749MOL0     C 1034   0.669   6.562   5.405 -0.7073 -0.4841  0.5863
  749MOL0     C 1035   0.626   6.538   5.534 -0.4456  0.2550  0.2261
  749MOL0     C 1036   0.496   6.504   5.571  0.5894  0.3525 -0.0977
  749MOL0     C 1037   0.409   6.456   5.471  0.8867 -0.6328 -0.6954
  749MOL0     O 1038   0.293   6.394   5.513  0.3710 -0.0359 -0.3619
  749MOL0     C 1039   0.173   6.444   5.459  0.3447 -0.5988  0.0229
  749MOL0     C 1040   0.047   6.480   5.536  0.6113 -0.4426  0.1947
  749MOL0     C 1041   0.085   6.472   5.693  0.4486 -0.4138 -0.3887
  749MOL0     C 1042  -0.040   6.512   5.776 -0.3121 -0.1518  0.6524
  749MOL0     C 1043  -0.174   6.472   5.726 -0.2617 -0.3063  0.3849
  749MOL0     C 1044  -0.290   6.454   5.676 -0.2843 -1.1650 -0.1188
  749MOL0     C 1045   0.447   6.462   5.334 -0.5265  0.1692  0.5513
  749MOL0     C 1046   0.577   6.512   5.300  0.6528 -0.6190  0.2218
  749MOL0     C 1047   0.609   6.517   5.152 -0.9524 -0.0464  0.7196
  749MOL0     H 1048   1.136   6.524   5.306 -1.5497  0.8048  0.8305
  749MOL0     H 1049   1.315   6.657   5.190  1.1041  0.0992 -3.6562
  749MOL0     H 1050   1.376   6.913   5.215  1.7149 -0.5578  0.2103
  749MOL0     H 1051   1.465   6.823   5.099 -0.2575 -1.4335  0.5607
  749MOL0     H 1052   1.523   7.053   5.124 -0.5462  4.6175 -3.0660
  749MOL0     H 1053   1.366   7.096   5.052  0.9263  1.4016 -1.2263
  749MOL0     H 1054   1.400   6.980   4.862 -0.4182  1.1140  0.2909
  749MOL0     H 1055   1.562   6.916   4.906  0.6002  0.3955 -0.2286
  749MOL0     H 1056   1.549   7.095   4.737 -1.0875 -1.6385  0.1950
  749MOL0     H 1057   1.473   7.206   4.862 -1.6499 -2.5590  0.8069
  749MOL0     H 1058   1.670   7.201   4.997 -1.6265 -1.7191  0.0357
  749MOL0     H 1059   1.744   7.087   4.886  1.9599  0.4767 -1.0350
  749MOL0     H 1060   1.714   7.279   4.698 -1.3460  1.8325 -0.3695
  749MOL0     H 1061   1.650   7.380   4.820 -2.2663 -0.3414 -0.5568
  749MOL0     H 1062   1.870   7.364   4.939  1.7591  1.2746 -0.5057
  749MOL0     H 1063   1.918   7.405   4.782  0.4027 -0.9251  0.0134
  749MOL0     H 1064   1.945   7.122   4.854  1.0470 -0.5557 -2.5543
  749MOL0     H 1065   1.988   7.210   4.709  0.1167 -0.8123 -0.7040
  749MOL0     H 1066   2.202   7.050   4.832  1.4012 -0.8497  3.5911
  749MOL0     H 1067   2.475   7.156   5.036  4.7139 -3.2409 -0.1168
  749MOL0     H 1068   2.459   7.048   4.906  0.0189 -0.5594  1.5894
  749MOL0     H 1069   2.585   7.331   4.922 -2.3422  1.2626 -1.2373
  749MOL0     H 1070   2.658   7.173   4.880  0.5982  1.5003 -1.0032
  749MOL0     H 1071   2.449   7.343   4.731  0.7410  0.6929  0.5765
  749MOL0     H 1072   2.481   7.182   4.681  2.4878 -1.1887 -0.6915
  749MOL0     H 1073   2.666   7.418   4.694 -1.7457 -0.6242  0.7582
  749MOL0     H 1074   2.610   7.350   4.538  0.4522 -3.2679 -1.5291
  749MOL0     H 1075   2.580   7.180   4.444 -0.3467 -0.3020 -0.3822
  749MOL0     H 1076   2.546   6.968   4.338  1.6990  2.6947 -1.7728
  749MOL0     H 1077   2.434   6.638   4.395  1.0418  2.1787  0.4463
  749MOL0     H 1078   2.344   6.408   4.364 -2.1061  2.1399 -0.9604
  749MOL0     H 1079   2.357   6.062   4.178  1.4960  0.0259  0.5629
  749MOL0     H 1080   2.351   6.157   4.334  1.8221 -1.5486  0.0980
  749MOL0     H 1081   2.216   6.325   4.234 -1.4708  1.2967 -2.3478
  749MOL0     H 1082   2.257   6.276   4.086  0.5135  0.5867  0.8441
  749MOL0     H 1083   2.066   6.150   4.071  4.0717 -3.4024 -1.0632
  749MOL0     H 1084   2.148   6.032   4.179  1.4787 -0.4281 -1.6075
  749MOL0     H 1085   1.968   6.267   4.245 -1.5026 -0.0489 -1.3815
  749MOL0     H 1086   2.066   6.171   4.366  1.2982 -0.2804 -1.0156
  749MOL0     H 1087   1.931   5.965   4.275 -0.5003  0.7854  1.9856
  749MOL0     H 1088   1.835   6.081   4.170  0.3766 -1.5621 -1.0415
  749MOL0     H 1089   1.854   6.072   4.476  1.2832  2.6576 -0.7727
  749MOL0     H 1090   1.802   6.208   4.372  2.0911 -0.6055 -0.0653
  749MOL0     H 1091   1.664   5.935   4.343 -1.4743  0.6773 -1.6093
  749MOL0     H 1092   1.610   6.083   4.290 -1.0618  2.9626  2.2045
  749MOL0     H 1093   1.621   6.002   4.591 -1.9515 -0.5143 -0.9523
  749MOL0     H 1094   1.604   6.170   4.537 -0.2475  0.0401 -0.6719
  749MOL0     H 1095   2.644   6.354   4.056 -1.6136 -0.1969 -1.7073
  749MOL0     H 1096   2.680   6.597   4.055  0.1011  1.4211  1.3671
  749MOL0     H 1097   2.921   6.835   4.509 -0.8599  1.2247  0.3231
  749MOL0     H 1098   2.928   7.033   4.646  0.3991  0.6710  0.3020
  749MOL0     H 1099   1.014   6.897   5.001 -3.7599 -1.5024 -1.4405
  749MOL0     H 1100   0.836   6.759   5.121 -0.1445  2.1220  1.3124
  749MOL0     H 1101   0.687   6.550   5.623  0.0061 -2.0853  0.3115
  749MOL0     H 1102   0.460   6.493   5.673  0.2255 -1.1518 -0.3663
  749MOL0     H 1103   0.141   6.372   5.383 -0.2197  1.4404 -1.7863
  749MOL0     H 1104   0.196   6.542   5.415  3.2335 -0.6078  1.3088
  749MOL0     H 1105  -0.032   6.414   5.499 -0.3475 -0.2689  1.7994
  749MOL0     H 1106   0.002   6.579   5.518 -1.6207 -1.3941  0.2073
  749MOL0     H 1107   0.172   6.532   5.723  2.4479 -1.3634 -3.7795
  749MOL0     H 1108   0.106   6.369   5.723 -0.3408 -0.2833  0.6679
  749MOL0     H 1109  -0.026   6.469   5.875  2.1041  1.2171  0.9915
  749MOL0     H 1110  -0.029   6.621   5.775 -0.7957 -0.0916 -0.9525
  749MOL0     H 1111  -0.387   6.437   5.634 -1.3045 -1.1459  2.0887
  749MOL0     H 1112   0.380   6.426   5.256  1.4754 -1.8789 -0.3400
  749MOL0     H 1113   0.712   6.491   5.128 -2.2347 -3.2991 -2.1326
  749MOL0     H 1114   0.546   6.457   5.086 -1.5181  2.1093 -0.8171
  749MOL0     H 1115   0.590   6.621   5.124 -0.0952 -0.4027 -1.3908
  750MOL0     O 1116   9.442   5.266   3.691  0.1619 -0.3281  0.2240
  750MOL0     C 1117   9.382   5.160   3.663  0.0646  0.6326 -0.1743
  750MOL0     O 1118   9.415   5.034   3.704  0.1910 -0.1101  0.6169
  750MOL0     C 1119   9.537   5.022   3.766  0.5085 -0.1730  0.1674
  750MOL0     C 1120   9.552   5.045   3.901  0.0112  0.0314 -0.1091
  750MOL0     C 1121   9.675   5.023   3.951  0.0299  0.7720  0.0230
  750MOL0     C 1122   9.788   5.000   3.863  0.9170 -0.2110 -1.1514
  750MOL0     O 1123   9.925   4.989   3.887 -0.4729 -0.1347 -0.1731
  750MOL0     C 1124   9.963   4.932   4.015 -0.0056 -0.5555 -0.8592
  750MOL0     C 1125  10.060   4.822   4.004 -0.4276 -0.7780  0.3366
  750MOL0     C 1126  10.100   4.768   4.148 -0.4847  0.5316 -0.5607
  750MOL0     C 1127   9.972   4.716   4.230 -0.0787  0.0557 -0.2573
  750MOL0     C 1128  10.027   4.655   4.356 -0.3037 -0.5965 -0.4124
  750MOL0     C 1129   9.924   4.608   4.462 -0.0446 -0.9322  0.7497
  750MOL0     C 1130   9.998   4.589   4.593  0.2497  0.0049  0.1022
  750MOL0     C 1131  10.080   4.468   4.582 -0.2009  0.6297 -0.4529
  750MOL0     N 1132  10.132   4.426   4.722  0.6283  0.0624 -0.1046
  750MOL0     C 1133  10.256   4.466   4.771  0.9190  0.7998  0.5760
  750MOL0     C 1134  10.270   4.395   4.887 -0.3323 -0.6964  0.9314
  750MOL0     C 1135  10.391   4.393   4.974  0.0202  0.3089 -0.2492
  750MOL0     C 1136  10.432   4.243   4.994  0.4215 -0.2057 -0.8884
  750MOL0     C 1137  10.579   4.233   5.034 -0.8593 -0.1639  0.3105
  750MOL0     C 1138  10.602   4.289   5.178 -0.2310 -0.9121  0.3325
  750MOL0     O 1139  10.736   4.330   5.185  0.0805  0.0212 -0.3757
  750MOL0     C 1140  10.843   4.248   5.199  0.2935  0.5835  0.0405
  750MOL0     C 1141  10.834   4.107   5.191 -0.3430  0.1158  0.9927
  750MOL0     C 1142  10.957   4.030   5.186  0.3096 -0.3436  0.3614
  750MOL0     C 1143  11.083   4.090   5.195  0.8751  1.3267 -0.0662
  750MOL0     C 1144  11.207   4.006   5.174  0.9682  0.1088 -0.0598
  750MOL0     O 1145  11.319   4.076   5.159 -0.2553 -0.1389  0.3057
  750MOL0     C 1146  11.433   4.006   5.153 -0.3455 -0.2868 -0.3674
  750MOL0     C 1147  11.537   4.059   5.227  0.2233 -0.0401  0.0937
  750MOL0     C 1148  11.661   4.000   5.247  0.1367 -0.1947  0.3991
  750MOL0     C 1149  11.697   3.894   5.169 -0.5807  0.6250  0.6645
  750MOL0     O 1150  11.824   3.837   5.168 -0.3305  0.1112  0.2351
  750MOL0     C 1151  11.933   3.882   5.257  0.5441 -0.4778 -0.1106
  750MOL0     C 1152  12.055   3.792   5.233  0.1279 -0.0356 -0.5913
  750MOL0     C 1153  12.165   3.833   5.329  1.4733 -0.5389 -0.5695
  750MOL0     C 1154  12.130   3.836   5.483 -0.3669 -0.2108 -0.6492
  750MOL0     C 1155  12.246   3.869   5.573 -0.6147 -0.3206 -1.0762
  750MOL0     C 1156  12.373   3.788   5.535 -0.4204  0.6655 -0.1839
  750MOL0     C 1157  12.471   3.790   5.659 -0.0792 -0.4054  0.3739
  750MOL0     C 1158  12.581   3.694   5.643  0.4181  0.8750 -0.7011
  750MOL0    Cl 1159  12.702   3.751   5.754  0.4430 -0.1891 -0.3578
  750MOL0     C 1160  11.593   3.851   5.077 -0.5368  0.2477  0.8542
  750MOL0     C 1161  11.462   3.898   5.079  0.0953 -0.1390 -0.0565
  750MOL0     O 1162  11.198   3.883   5.182  0.4418  0.6793  0.0572
  750MOL0     C 1163  11.085   4.236   5.218 -0.4748 -0.1465  0.5652
  750MOL0     C 1164  10.960   4.308   5.224 -0.8317  0.6470 -0.1813
  750MOL0     N 1165  10.153   4.318   4.905  0.2502  0.0561  0.2780
  750MOL0     N 1166  10.066   4.350   4.811 -0.4112  0.4204  0.5433
  750MOL0     C 1167   9.768   5.009   3.733 -0.1263 -0.8003  0.0563
  750MOL0     C 1168   9.640   5.003   3.687 -0.0516 -0.3071  0.0838
  750MOL0     C 1169   9.269   5.171   3.574  0.7669 -0.4640 -0.2679
  750MOL0     C 1170   9.278   5.150   3.434  0.1483  0.8773  0.6300
  750MOL0     C 1171   9.161   5.137   3.358 -0.0610 -0.8602 -0.6781
  750MOL0     C 1172   9.027   5.148   3.417 -0.7417  0.4641  0.1647
  750MOL0     O 1173   8.912   5.146   3.345 -0.0291 -0.2756  0.3051
  750MOL0     C 1174   8.912   5.128   3.203 -0.1734  0.0475  1.4121
  750MOL0     C 1175   8.790   5.072   3.152  0.3573  0.4179  0.0769
  750MOL0     C 1176   8.782   5.029   3.006  0.0680 -0.3513  0.6659
  750MOL0     C 1177   8.811   5.143   2.912 -0.2614  0.6587  0.6870
  750MOL0     C 1178   8.954   5.172   2.879 -0.4594  0.6392  0.3299
  750MOL0     C 1179   9.075   5.177   2.841 -0.4246  1.1644 -0.0394
  750MOL0     C 1180   9.025   5.176   3.555 -0.0944 -0.1754  0.6239
  750MOL0     C 1181   9.142   5.182   3.633 -0.5098 -0.1747 -0.4024
  750MOL0     C 1182   9.109   5.191   3.782 -0.9272  0.8479 -0.8420
  750MOL0     H 1183   9.467   5.055   3.968 -1.0942 -0.6744 -1.3753
  750MOL0     H 1184   9.681   5.042   4.058 -2.1922 -1.3873  0.6216
  750MOL0     H 1185   9.981   5.009   4.091 -4.8893  0.7598 -0.7414
  750MOL0     H 1186   9.871   4.883   4.046 -1.1390  0.8026 -1.9522
  750MOL0     H 1187  10.151   4.850   3.950  0.7633 -3.8748  0.5028
  750MOL0     H 1188  10.014   4.736   3.955 -0.3924  1.1445 -3.4475
  750MOL0     H 1189  10.137   4.857   4.200 -2.9330  0.5756  1.2799
  750MOL0     H 1190  10.179   4.692   4.139 -0.1710  0.8042 -0.1105
  750MOL0     H 1191   9.911   4.802   4.259  0.6344  0.1912  0.8910
  750MOL0     H 1192   9.919   4.640   4.172 -2.1726 -1.9940  3.9513
  750MOL0     H 1193  10.089   4.567   4.336  0.5853 -0.2593  0.7917
  750MOL0     H 1194  10.088   4.733   4.402 -3.9930  2.7260 -0.5904
  750MOL0     H 1195   9.856   4.694   4.462  2.6591  1.3502  0.3596
  750MOL0     H 1196   9.863   4.524   4.429 -1.7693  0.5911 -0.1038
  750MOL0     H 1197   9.916   4.567   4.663  1.6594 -0.8890  1.5431
  750MOL0     H 1198  10.047   4.681   4.626  2.6316 -2.2166  3.4027
  750MOL0     H 1199  10.020   4.381   4.553  0.7453  0.5075 -2.2037
  750MOL0     H 1200  10.166   4.477   4.515 -0.1820 -0.0863 -0.5416
  750MOL0     H 1201  10.326   4.528   4.715  2.2738 -2.4494 -1.6069
  750MOL0     H 1202  10.471   4.443   4.918 -0.5097 -1.3092 -2.6435
  750MOL0     H 1203  10.381   4.449   5.067 -1.0687  1.7255 -1.1878
  750MOL0     H 1204  10.372   4.189   5.068  0.7310  0.3031 -0.2616
  750MOL0     H 1205  10.411   4.191   4.900 -1.7063 -0.1156 -0.5158
  750MOL0     H 1206  10.639   4.288   4.961  1.5789  0.4180  2.5712
  750MOL0     H 1207  10.614   4.130   5.045 -1.0245 -0.4145 -1.2573
  750MOL0     H 1208  10.594   4.206   5.248 -0.0367 -1.4365 -0.2504
  750MOL0     H 1209  10.530   4.369   5.195 -1.1135 -1.0943 -2.1089
  750MOL0     H 1210  10.739   4.057   5.172  0.4814 -0.7101 -1.4216
  750MOL0     H 1211  10.945   3.922   5.183  1.9996 -0.5380 -0.0336
  750MOL0     H 1212  11.522   4.148   5.288 -0.1329 -0.3422  0.4540
  750MOL0     H 1213  11.724   4.054   5.317  3.4207  1.1385 -3.2316
  750MOL0     H 1214  11.970   3.983   5.240  0.2341  0.0719  2.1761
  750MOL0     H 1215  11.906   3.874   5.363  1.1670 -0.4002  0.0566
  750MOL0     H 1216  12.028   3.690   5.261  0.1686  0.7966  3.0059
  750MOL0     H 1217  12.085   3.795   5.128  0.9831  4.2301 -0.4186
  750MOL0     H 1218  12.253   3.770   5.314  0.6208 -1.7689 -0.5726
  750MOL0     H 1219  12.197   3.934   5.303  1.2176  0.3631  2.3178
  750MOL0     H 1220  12.092   3.738   5.514  0.1249 -0.5447 -1.0825
  750MOL0     H 1221  12.060   3.916   5.508  0.8598 -0.1229  3.1218
  750MOL0     H 1222  12.222   3.848   5.677  3.9676 -1.9176 -0.1173
  750MOL0     H 1223  12.256   3.977   5.563 -1.2384 -0.1001  0.4658
  750MOL0     H 1224  12.342   3.684   5.519 -1.2133  0.7440  0.7114
  750MOL0     H 1225  12.421   3.835   5.449  0.7855 -2.0385 -1.0910
  750MOL0     H 1226  12.419   3.770   5.753  0.5220 -0.5174  0.6822
  750MOL0     H 1227  12.508   3.892   5.657 -0.2937 -0.3333 -1.0039
  750MOL0     H 1228  12.550   3.594   5.676  1.1851 -0.0522 -2.6809
  750MOL0     H 1229  12.616   3.686   5.540 -2.9565 -0.2491 -1.8832
  750MOL0     H 1230  11.618   3.767   5.014  0.1454  0.1754  1.2167
  750MOL0     H 1231  11.382   3.871   5.011 -1.6680  1.6305  1.2011
  750MOL0     H 1232  11.176   4.294   5.232 -2.2147  2.4777  1.7874
  750MOL0     H 1233  10.956   4.415   5.237  1.0869  0.4191  3.6098
  750MOL0     H 1234   9.845   5.002   3.657  1.5251 -4.3520  1.8612
  750MOL0     H 1235   9.616   4.996   3.581 -3.0559 -0.8003  0.7124
  750MOL0     H 1236   9.375   5.130   3.389 -1.4483 -1.6962 -2.0575
  750MOL0     H 1237   9.178   5.130   3.251 -2.5485 -0.8833 -1.1224
  750MOL0     H 1238   8.984   5.051   3.172 -0.2012 -0.3493  2.3053
  750MOL0     H 1239   8.936   5.219   3.148 -3.3043 -0.9206 -1.9840
  750MOL0     H 1240   8.714   5.150   3.163  1.6549  2.2277 -2.7283
  750MOL0     H 1241   8.766   4.984   3.213 -3.7641  1.7244  0.6136
  750MOL0     H 1242   8.685   4.988   2.975  0.2629 -0.4614  0.1762
  750MOL0     H 1243   8.855   4.949   2.993  1.0995  0.0770  3.3232
  750MOL0     H 1244   8.771   5.121   2.813  0.9040  1.3799  0.0420
  750MOL0     H 1245   8.751   5.228   2.945  2.7990  3.2060  0.1926
  750MOL0     H 1246   9.179   5.186   2.818 -0.2506  1.4317  0.7974
  750MOL0     H 1247   8.925   5.186   3.596 -1.1448 -1.0287 -1.5519
  750MOL0     H 1248   9.189   5.250   3.829  0.3716 -0.8041 -0.8952
  750MOL0     H 1249   9.011   5.240   3.788 -2.0315 -1.4266  1.7800
  750MOL0     H 1250   9.099   5.093   3.829 -3.2537  0.4330 -2.0768
  751MOL0     O 1251  10.939   9.249   4.564 -0.2487  0.0684  0.1786
  751MOL0     C 1252  10.899   9.339   4.483  0.3831  0.4568 -1.0686
  751MOL0     O 1253  10.970   9.394   4.397 -0.3232 -0.2655  0.1608
  751MOL0     C 1254  11.095   9.337   4.381  0.8147 -0.1094  0.7673
  751MOL0     C 1255  11.199   9.425   4.379 -0.6183  0.8619 -0.2178
  751MOL0     C 1256  11.330   9.377   4.360 -0.8278 -0.1344  0.0688
  751MOL0     C 1257  11.360   9.246   4.346  0.2650  0.4379 -0.1822
  751MOL0     O 1258  11.484   9.203   4.326  0.0923  0.3441 -0.0211
  751MOL0     C 1259  11.574   9.242   4.431 -0.2230  0.0835  0.9982
  751MOL0     C 1260  11.702   9.198   4.356  0.1844 -0.2159  0.0237
  751MOL0     C 1261  11.827   9.215   4.446 -0.6983 -0.4572  0.4163
  751MOL0     C 1262  11.947   9.160   4.372  0.9171  0.3046 -0.6779
  751MOL0     C 1263  12.084   9.195   4.425  0.1450 -0.0058  0.4711
  751MOL0     C 1264  12.188   9.125   4.333 -0.0166  0.1852 -0.6007
  751MOL0     C 1265  12.333   9.163   4.373  0.3460  0.1223  0.7247
  751MOL0     C 1266  12.370   9.306   4.321 -0.3123 -0.4817 -0.1992
  751MOL0     N 1267  12.514   9.323   4.348 -0.7310  0.8522  0.1769
  751MOL0     C 1268  12.572   9.332   4.468  0.0638 -0.3669 -0.9963
  751MOL0     C 1269  12.702   9.319   4.454 -0.0464  0.2418 -0.1479
  751MOL0     C 1270  12.801   9.310   4.564  0.5763  0.9661 -0.1097
  751MOL0     C 1271  12.784   9.412   4.679 -0.6565 -0.0131  0.4209
  751MOL0     C 1272  12.787   9.557   4.632 -0.0816  0.0418 -0.5460
  751MOL0     C 1273  12.919   9.626   4.602 -0.2704 -0.2043 -0.5689
  751MOL0     O 1274  13.004   9.629   4.722  0.0071  0.2032  0.7319
  751MOL0     C 1275  13.110   9.715   4.713 -0.3051  0.1083  0.5665
  751MOL0     C 1276  13.170   9.751   4.592  1.1435  0.2165 -0.1804
  751MOL0     C 1277  13.293   9.816   4.584  0.1102 -0.6098  0.2294
  751MOL0     C 1278  13.355   9.853   4.707  0.1142 -0.3685 -0.1830
  751MOL0     C 1279  13.478   9.932   4.701 -0.2361  0.1698 -0.3881
  751MOL0     O 1280  13.548   9.919   4.585  0.1294  0.0068  0.4469
  751MOL0     C 1281  13.653  10.005   4.571 -0.8410  0.0528  1.0272
  751MOL0     C 1282  13.622  10.143   4.550 -0.0395 -0.1801  0.3075
  751MOL0     C 1283  13.725  10.245   4.523 -0.1936  1.0632  0.7735
  751MOL0     C 1284  13.860  10.204   4.507 -0.2157 -0.8491 -0.3939
  751MOL0     O 1285  13.971  10.283   4.478  0.1813  0.7013 -0.2730
  751MOL0     C 1286  13.955  10.400   4.397 -0.1539 -0.0382  1.0052
  751MOL0     C 1287  13.984  10.527   4.479  0.2546 -1.5679 -0.4776
  751MOL0     C 1288  13.925  10.536   4.623  0.1573  0.1935  0.9348
  751MOL0     C 1289  13.794  10.594   4.614 -0.0032  0.9836 -0.8556
  751MOL0     C 1290  13.708  10.587   4.740 -0.0144  0.1611  0.5833
  751MOL0     C 1291  13.775  10.640   4.870  0.7544  0.4430  0.9828
  751MOL0     C 1292  13.841  10.784   4.846  0.1830 -0.0990 -0.2341
  751MOL0     C 1293  13.929  10.830   4.964  0.6070 -0.3248 -0.6886
  751MOL0    Cl 1294  14.055  10.719   4.998  0.4046  0.4484  0.0365
  751MOL0     C 1295  13.891  10.066   4.537  0.5383 -0.1088  0.5333
  751MOL0     C 1296  13.792   9.970   4.569  1.6250 -0.0263  0.1710
  751MOL0     O 1297  13.492  10.015   4.797  0.2753  0.3178 -0.1768
  751MOL0     C 1298  13.294   9.824   4.835 -0.2537 -0.3282 -0.1665
  751MOL0     C 1299  13.171   9.747   4.832  0.0504  0.6956 -0.2867
  751MOL0     N 1300  12.733   9.288   4.318 -0.0401  0.1708  0.1635
  751MOL0     N 1301  12.618   9.293   4.257 -0.6286  0.5762  0.5196
  751MOL0     C 1302  11.247   9.161   4.334  0.6178 -0.1014 -0.1578
  751MOL0     C 1303  11.117   9.204   4.344  0.2012 -0.3021 -0.1147
  751MOL0     C 1304  10.758   9.372   4.491 -0.1190 -0.4736  0.7699
  751MOL0     C 1305  10.673   9.299   4.574 -0.2697  0.3435  0.4543
  751MOL0     C 1306  10.539   9.324   4.580  0.3112 -0.0797 -0.6992
  751MOL0     C 1307  10.483   9.428   4.498  0.2274 -0.0523  0.3441
  751MOL0     O 1308  10.346   9.447   4.513 -0.8122  0.2893 -0.0282
  751MOL0     C 1309  10.264   9.499   4.411  0.0726 -0.4058  0.4158
  751MOL0     C 1310  10.261   9.419   4.278  1.0181 -0.5600  0.3711
  751MOL0     C 1311  10.226   9.264   4.284  0.5131  0.3901  0.4580
  751MOL0     C 1312  10.206   9.198   4.143 -0.2845  0.4997 -0.0661
  751MOL0     C 1313  10.316   9.102   4.140 -0.3932 -0.7418  0.7766
  751MOL0     C 1314  10.420   9.048   4.143  0.4979  0.0647 -0.9577
  751MOL0     C 1315  10.557   9.490   4.406  0.1339  0.2584  0.5733
  751MOL0     C 1316  10.695   9.468   4.395 -0.1077  0.5886  0.5119
  751MOL0     C 1317  10.763   9.541   4.283  0.4602  0.1555  0.1764
  751MOL0     H 1318  11.186   9.531   4.395  0.0081  0.5916  2.5438
  751MOL0     H 1319  11.414   9.446   4.369 -3.8105  3.5247  3.5109
  751MOL0     H 1320  11.579   9.348   4.458 -0.7163  0.0535  1.2230
  751MOL0     H 1321  11.570   9.186   4.525  2.8720  0.2121  1.2905
  751MOL0     H 1322  11.718   9.260   4.267  0.0233 -0.1073  0.0710
  751MOL0     H 1323  11.692   9.091   4.335 -3.0702  0.3858 -2.3288
  751MOL0     H 1324  11.807   9.155   4.536 -0.8812 -0.7186  0.2044
  751MOL0     H 1325  11.843   9.318   4.478  2.5755 -0.5519 -0.4991
  751MOL0     H 1326  11.941   9.052   4.390  2.0753  0.6596  2.5480
  751MOL0     H 1327  11.938   9.183   4.266  0.1305  0.1982 -0.6399
  751MOL0     H 1328  12.101   9.302   4.440 -1.3888 -0.0386  3.2242
  751MOL0     H 1329  12.097   9.147   4.523 -3.2029 -0.1485  0.9792
  751MOL0     H 1330  12.185   9.015   4.334  0.9240  0.1455 -0.1758
  751MOL0     H 1331  12.166   9.150   4.229  0.7860  0.2848 -0.7522
  751MOL0     H 1332  12.402   9.086   4.337 -0.9983 -0.6362 -0.2961
  751MOL0     H 1333  12.347   9.162   4.482 -0.4579 -3.9257  0.9299
  751MOL0     H 1334  12.348   9.326   4.216  0.3847  1.1157 -0.0720
  751MOL0     H 1335  12.325   9.387   4.379  1.3493  1.5164 -1.5293
  751MOL0     H 1336  12.514   9.348   4.558 -0.7895  0.1163 -1.6096
  751MOL0     H 1337  12.800   9.206   4.597 -3.0528  1.1944  0.8679
  751MOL0     H 1338  12.896   9.322   4.509 -0.4702  0.4710 -2.1229
  751MOL0     H 1339  12.696   9.393   4.741 -1.8449  2.0849 -0.5035
  751MOL0     H 1340  12.872   9.406   4.743  0.0680 -1.5717 -0.6501
  751MOL0     H 1341  12.735   9.621   4.704  2.0361 -0.1516  1.2904
  751MOL0     H 1342  12.729   9.566   4.540 -0.9313 -2.5768 -0.3339
  751MOL0     H 1343  12.900   9.729   4.569  1.5463  0.6695  0.9534
  751MOL0     H 1344  12.963   9.563   4.524 -0.0404 -3.8377  2.2321
  751MOL0     H 1345  13.136   9.708   4.498  0.8101  2.1529 -0.9961
  751MOL0     H 1346  13.350   9.833   4.493  1.6235 -0.9847  1.0677
  751MOL0     H 1347  13.517  10.171   4.559 -0.0597  0.3616 -1.2531
  751MOL0     H 1348  13.714  10.352   4.505  1.3423  1.2521  0.8309
  751MOL0     H 1349  14.033  10.393   4.320  0.2878 -0.4649  1.4870
  751MOL0     H 1350  13.857  10.419   4.353  1.2774  2.8303 -1.3510
  751MOL0     H 1351  14.093  10.539   4.482  0.3149 -2.1651 -0.1727
  751MOL0     H 1352  13.953  10.614   4.420  0.2275 -0.1252  1.5824
  751MOL0     H 1353  13.922  10.440   4.674 -2.1934  0.0306  0.5995
  751MOL0     H 1354  13.984  10.597   4.692  1.7572 -1.2477  0.9007
  751MOL0     H 1355  13.735  10.545   4.536 -1.0412 -1.5931  1.3806
  751MOL0     H 1356  13.803  10.700   4.588 -0.0339  0.9225 -1.1223
  751MOL0     H 1357  13.673  10.485   4.753 -1.9616  0.3940 -2.0875
  751MOL0     H 1358  13.615  10.638   4.714 -0.5915 -2.3818 -3.1718
  751MOL0     H 1359  13.694  10.632   4.943  0.0879 -1.4007  0.0966
  751MOL0     H 1360  13.844  10.562   4.903  0.7834  0.1928  0.3485
  751MOL0     H 1361  13.766  10.863   4.835 -0.2748 -0.7093 -1.5659
  751MOL0     H 1362  13.902  10.792   4.756 -0.7293  0.0588 -0.8492
  751MOL0     H 1363  13.979  10.924   4.941  0.4963  0.4319  1.8720
  751MOL0     H 1364  13.875  10.854   5.056  1.9647  1.9406 -0.4021
  751MOL0     H 1365  13.993  10.031   4.521 -0.1017 -1.0244 -1.9288
  751MOL0     H 1366  13.813   9.865   4.588 -1.0933 -0.2303  2.7125
  751MOL0     H 1367  13.337   9.850   4.931 -0.0443 -1.2567 -0.0011
  751MOL0     H 1368  13.123   9.721   4.925  1.1073 -1.8613 -0.3659
  751MOL0     H 1369  11.258   9.053   4.338 -2.2698 -0.4570  0.0772
  751MOL0     H 1370  11.037   9.132   4.335 -2.6419  2.3116  1.9535
  751MOL0     H 1371  10.719   9.221   4.633 -0.1371  1.1973  1.5063
  751MOL0     H 1372  10.490   9.266   4.657  0.8882  1.3354  0.7754
  751MOL0     H 1373  10.292   9.603   4.394 -0.8073 -0.1199  0.7008
  751MOL0     H 1374  10.166   9.494   4.458 -0.4359 -2.0616 -0.7363
  751MOL0     H 1375  10.363   9.424   4.239  0.1346  1.6913 -1.9796
  751MOL0     H 1376  10.195   9.476   4.211  3.2806 -0.3241 -1.7729
  751MOL0     H 1377  10.135   9.239   4.340 -0.9840  2.3917 -0.9281
  751MOL0     H 1378  10.310   9.213   4.332  0.4244 -1.4082 -1.1434
  751MOL0     H 1379  10.116   9.142   4.120 -0.5656 -0.1542  2.3543
  751MOL0     H 1380  10.215   9.272   4.062 -0.3361  2.1841  1.4043
  751MOL0     H 1381  10.520   9.010   4.147  0.2597 -0.7572 -2.2887
  751MOL0     H 1382  10.515   9.555   4.330 -0.4908 -0.5767  0.1860
  751MOL0     H 1383  10.820   9.624   4.327  0.2678  0.1267  0.4797
  751MOL0     H 1384  10.825   9.481   4.215 -1.7273 -0.8622 -0.9941
  751MOL0     H 1385  10.689   9.591   4.219  2.0274  0.0127 -1.8963
  752MOL0     O 1386  11.088   8.412   6.353 -0.5494 -0.2998 -0.8007
  752MOL0     C 1387  11.158   8.482   6.435  0.3854  0.1656  0.4340
  752MOL0     O 1388  11.294   8.486   6.437  0.5614 -0.2810 -0.1264
  752MOL0     C 1389  11.371   8.380   6.403  0.2739 -0.5929  0.0874
  752MOL0     C 1390  11.335   8.253   6.372 -0.7290 -0.0596  0.5974
  752MOL0     C 1391  11.439   8.160   6.340  0.3515  0.1003 -0.8566
  752MOL0     C 1392  11.575   8.186   6.352  0.1806  0.4499  0.6701
  752MOL0     O 1393  11.671   8.105   6.305 -0.3185  0.4005 -0.3095
  752MOL0     C 1394  11.638   7.981   6.241  0.2142 -0.0116 -0.3476
  752MOL0     C 1395  11.759   7.910   6.177  0.1207 -0.1484  0.2590
  752MOL0     C 1396  11.811   7.981   6.055 -0.3273  0.0461 -0.7202
  752MOL0     C 1397  11.953   7.931   6.037  1.0975 -0.0986 -0.5138
  752MOL0     C 1398  12.010   7.983   5.906 -0.4266  0.6632  0.6408
  752MOL0     C 1399  12.040   7.863   5.809 -0.3585  0.1602 -0.4662
  752MOL0     C 1400  12.110   7.913   5.684  0.5200  0.5990  0.4530
  752MOL0     C 1401  12.141   7.806   5.582  0.2010 -0.1301 -0.7255
  752MOL0     N 1402  12.217   7.844   5.467  0.6515 -0.2940  0.1490
  752MOL0     C 1403  12.326   7.926   5.474 -1.1462 -0.2429  0.3642
  752MOL0     C 1404  12.379   7.917   5.351 -0.6931 -0.4770 -0.8680
  752MOL0     C 1405  12.511   7.985   5.324 -1.2138  0.4898  0.4948
  752MOL0     C 1406  12.623   7.873   5.341 -0.4236  0.1217  0.3473
  752MOL0     C 1407  12.772   7.894   5.294  0.4382 -0.6882  0.0081
  752MOL0     C 1408  12.870   7.954   5.399 -0.7919 -0.4521 -0.2866
  752MOL0     O 1409  12.833   8.079   5.448 -1.1151  0.5151 -0.1285
  752MOL0     C 1410  12.873   8.188   5.379  0.5585 -0.2876  0.9479
  752MOL0     C 1411  13.004   8.228   5.359 -0.2935 -0.1745 -0.3264
  752MOL0     C 1412  13.040   8.337   5.280 -0.4258 -0.4859  0.0331
  752MOL0     C 1413  12.946   8.421   5.232  0.2001 -0.1354 -0.0071
  752MOL0     C 1414  12.982   8.551   5.150  0.6785 -0.7425  0.5123
  752MOL0     O 1415  12.877   8.629   5.107 -0.0720  0.1508 -1.0442
  752MOL0     C 1416  12.904   8.728   5.022 -0.4014 -0.2858 -0.4078
  752MOL0     C 1417  12.879   8.719   4.889  0.7932  0.4292  0.5905
  752MOL0     C 1418  12.901   8.823   4.803 -0.4022  0.1226 -0.0568
  752MOL0     C 1419  12.972   8.928   4.852 -0.1605 -0.2676  0.7232
  752MOL0     O 1420  13.006   9.026   4.765 -0.1900 -0.2506  0.0416
  752MOL0     C 1421  13.116   9.109   4.789  1.2942  1.2851  0.6751
  752MOL0     C 1422  13.190   9.124   4.658  0.3329  0.4424  1.0074
  752MOL0     C 1423  13.270   9.249   4.640 -0.0294 -1.1265  0.1051
  752MOL0     C 1424  13.359   9.281   4.758  0.0304  0.3801 -0.7745
  752MOL0     C 1425  13.442   9.407   4.735 -0.7575 -0.9371 -0.4511
  752MOL0     C 1426  13.531   9.447   4.855 -0.6534  0.0594  0.5402
  752MOL0     C 1427  13.680   9.444   4.820  0.2820 -0.9821 -0.3636
  752MOL0     C 1428  13.708   9.559   4.729 -0.7061  0.6847 -0.7434
  752MOL0    Cl 1429  13.888   9.587   4.726 -0.5169 -0.4063  0.0307
  752MOL0     C 1430  12.982   8.953   4.989 -0.4828 -0.0324 -0.2857
  752MOL0     C 1431  12.933   8.858   5.073  0.4441 -0.4858  0.1618
  752MOL0     O 1432  13.102   8.564   5.120  0.3771  0.8306 -0.0413
  752MOL0     C 1433  12.815   8.391   5.256  0.3593  0.4455 -0.6545
  752MOL0     C 1434  12.776   8.265   5.317 -0.7820 -0.1659 -0.1017
  752MOL0     N 1435  12.312   7.826   5.269  0.2966  0.2005  0.1546
  752MOL0     N 1436  12.207   7.796   5.338 -0.4812  0.0501 -0.5054
  752MOL0     C 1437  11.612   8.320   6.393  0.3687 -0.1304 -0.5616
  752MOL0     C 1438  11.504   8.410   6.418  0.6814  0.4910  0.2549
  752MOL0     C 1439  11.088   8.588   6.510  0.0131 -1.4596 -0.1059
  752MOL0     C 1440  11.160   8.702   6.546  0.4837 -0.3389  0.3189
  752MOL0     C 1441  11.100   8.810   6.609  0.3683  0.2116  0.6397
  752MOL0     C 1442  10.960   8.808   6.639 -0.1169 -0.4749 -0.7952
  752MOL0     O 1443  10.892   8.907   6.713 -0.4323  0.8471  0.6057
  752MOL0     C 1444  10.965   9.016   6.758 -1.0826  0.1200  0.8945
  752MOL0     C 1445  10.886   9.075   6.877 -0.1462  0.6306  0.0999
  752MOL0     C 1446  10.816   8.964   6.968 -0.6444 -0.5509  0.2565
  752MOL0     C 1447  10.761   9.041   7.088 -0.0248 -0.9109  0.4899
  752MOL0     C 1448  10.696   8.949   7.177 -0.0658  0.8387  0.4328
  752MOL0     C 1449  10.647   8.881   7.259  0.6560  0.0795  0.7019
  752MOL0     C 1450  10.888   8.693   6.616  0.1196  0.1047  1.2555
  752MOL0     C 1451  10.947   8.583   6.551 -0.5299  1.1446 -0.1842
  752MOL0     C 1452  10.858   8.463   6.523  0.0290  0.3125  0.2086
  752MOL0     H 1453  11.232   8.225   6.353 -0.2388 -1.9967  0.5496
  752MOL0     H 1454  11.420   8.059   6.303 -2.2379 -0.1859  0.9766
  752MOL0     H 1455  11.601   7.914   6.320  4.7594 -3.2765 -0.5612
  752MOL0     H 1456  11.560   7.992   6.166 -2.0712 -0.8534  1.7888
  752MOL0     H 1457  11.741   7.803   6.166  0.5344 -0.3557  1.4734
  752MOL0     H 1458  11.828   7.915   6.261 -0.4932 -2.8194  0.9881
  752MOL0     H 1459  11.795   8.089   6.061 -1.6220 -0.1045 -1.1488
  752MOL0     H 1460  11.747   7.944   5.974 -1.4199  0.1353  0.0646
  752MOL0     H 1461  11.996   7.983   6.124 -2.8230  5.5604 -1.3652
  752MOL0     H 1462  11.962   7.822   6.042 -2.7173 -0.4999  1.7524
  752MOL0     H 1463  11.952   8.063   5.859 -0.3800  0.4906  0.2891
  752MOL0     H 1464  12.105   8.028   5.935  1.1582 -2.1132  0.1076
  752MOL0     H 1465  12.097   7.781   5.854 -0.1534  0.1486 -0.7483
  752MOL0     H 1466  11.951   7.813   5.771  0.8181 -2.3360 -0.1017
  752MOL0     H 1467  12.197   7.966   5.724  0.6199 -0.6129  1.9508
  752MOL0     H 1468  12.041   7.986   5.640  4.2787  3.0944 -1.7845
  752MOL0     H 1469  12.199   7.728   5.631 -0.2078 -0.0807 -0.1605
  752MOL0     H 1470  12.046   7.760   5.553 -2.9967  1.7799  5.0371
  752MOL0     H 1471  12.362   7.978   5.562  0.6994 -2.4476  1.0288
  752MOL0     H 1472  12.510   8.011   5.218 -1.7062  1.4749  0.7251
  752MOL0     H 1473  12.522   8.072   5.390 -1.7381  1.1140 -0.2314
  752MOL0     H 1474  12.617   7.842   5.446  0.5802  0.9439  0.6650
  752MOL0     H 1475  12.594   7.787   5.279  1.0812 -1.0416  1.1786
  752MOL0     H 1476  12.754   7.952   5.202  0.4175 -1.1542 -0.2843
  752MOL0     H 1477  12.822   7.801   5.266  0.5626 -0.5681 -0.1748
  752MOL0     H 1478  12.967   7.969   5.351 -0.4636 -0.4728  0.3597
  752MOL0     H 1479  12.884   7.875   5.473 -2.9585 -0.1878  0.5004
  752MOL0     H 1480  13.083   8.170   5.406  2.7887  1.3463 -3.2064
  752MOL0     H 1481  13.146   8.356   5.271 -0.5680 -0.6195 -2.6291
  752MOL0     H 1482  12.837   8.626   4.852  0.5696  0.6888  0.1852
  752MOL0     H 1483  12.884   8.810   4.697  0.8920  0.7903 -0.3694
  752MOL0     H 1484  13.062   9.195   4.829 -2.5264  0.3761 -1.9701
  752MOL0     H 1485  13.186   9.076   4.866 -1.4759 -0.2377  2.7420
  752MOL0     H 1486  13.255   9.037   4.647  2.8015  2.1260  1.3783
  752MOL0     H 1487  13.122   9.117   4.573 -4.3831  0.5585  4.3966
  752MOL0     H 1488  13.326   9.235   4.547 -0.6757 -0.8370 -0.3317
  752MOL0     H 1489  13.200   9.331   4.622  0.5875 -1.1111 -2.4974
  752MOL0     H 1490  13.425   9.194   4.760 -1.9667 -1.2093  1.3732
  752MOL0     H 1491  13.324   9.272   4.861 -2.5599 -2.1931 -1.7199
  752MOL0     H 1492  13.375   9.487   4.700  1.4625  1.0569 -0.4544
  752MOL0     H 1493  13.501   9.392   4.644 -0.4267  2.5997 -0.9665
  752MOL0     H 1494  13.500   9.549   4.881  2.7181  2.0516 -2.3603
  752MOL0     H 1495  13.528   9.382   4.942  0.6729  1.0316  1.3542
  752MOL0     H 1496  13.706   9.345   4.783  0.1428 -2.5818  3.2961
  752MOL0     H 1497  13.728   9.452   4.918 -0.7685  0.7877  0.0513
  752MOL0     H 1498  13.668   9.535   4.630 -2.1599 -2.0754  0.4140
  752MOL0     H 1499  13.655   9.645   4.771  2.7553  1.5281  2.5604
  752MOL0     H 1500  13.026   9.044   5.029  0.6965 -0.4125 -0.6787
  752MOL0     H 1501  12.938   8.869   5.181 -2.3573  0.0935  0.3043
  752MOL0     H 1502  12.749   8.460   5.205  1.7479  2.4923  0.1409
  752MOL0     H 1503  12.672   8.236   5.319 -1.3695  1.6210  3.7364
  752MOL0     H 1504  11.718   8.339   6.401  1.0227 -3.6928  2.1701
  752MOL0     H 1505  11.538   8.511   6.440  0.5061 -0.0485  3.5035
  752MOL0     H 1506  11.267   8.713   6.530  0.0743 -0.7529 -3.7963
  752MOL0     H 1507  11.170   8.892   6.625 -0.9086  1.2392  1.1808
  752MOL0     H 1508  10.970   9.073   6.666  1.9613 -1.0185  0.2618
  752MOL0     H 1509  11.070   8.993   6.777 -0.2936  2.0618 -0.7923
  752MOL0     H 1510  10.805   9.130   6.828 -0.7659 -1.3955 -1.3016
  752MOL0     H 1511  10.945   9.144   6.938 -0.1215  0.0659  0.7236
  752MOL0     H 1512  10.890   8.887   6.993 -1.1220 -1.4131 -0.9128
  752MOL0     H 1513  10.736   8.914   6.914 -0.6431  0.5944 -0.8352
  752MOL0     H 1514  10.837   9.094   7.145 -1.9024  1.6518  0.7666
  752MOL0     H 1515  10.697   9.125   7.061  0.3141 -0.5133  0.8956
  752MOL0     H 1516  10.611   8.810   7.330  2.9597  0.8573  2.7989
  752MOL0     H 1517  10.785   8.689   6.649 -0.1131 -2.2269  0.4500
  752MOL0     H 1518  10.773   8.457   6.592 -0.7902  0.2039 -0.7942
  752MOL0     H 1519  10.812   8.479   6.425 -0.0363  0.0996  0.2048
  752MOL0     H 1520  10.904   8.364   6.528 -0.3011  0.1083 -0.6207
  753MOL0     O 1521  10.979   1.537   4.142 -1.1073 -0.1029  0.0497
  753MOL0     C 1522  10.991   1.608   4.239  0.6536  0.0567  0.2080
  753MOL0     O 1523  11.102   1.662   4.290 -0.0109 -0.0782 -0.1160
  753MOL0     C 1524  11.220   1.644   4.223  0.3574 -0.1639  1.3235
  753MOL0     C 1525  11.332   1.643   4.301 -0.2998 -0.6192 -0.4225
  753MOL0     C 1526  11.446   1.620   4.235  0.2422  0.2038 -0.4032
  753MOL0     C 1527  11.473   1.613   4.097 -0.1189 -0.1560 -1.5734
  753MOL0     O 1528  11.595   1.578   4.041  0.3330  0.5880  0.2388
  753MOL0     C 1529  11.701   1.519   4.117 -1.0020  0.5919 -0.0420
  753MOL0     C 1530  11.830   1.525   4.021  0.6120 -0.4293 -0.0906
  753MOL0     C 1531  11.962   1.519   4.092 -0.0232 -0.0237 -1.1017
  753MOL0     C 1532  12.083   1.554   3.999  0.1832 -0.8213  0.4455
  753MOL0     C 1533  12.106   1.464   3.882  0.8407 -0.1410  0.4444
  753MOL0     C 1534  12.099   1.321   3.919 -0.1287  0.3706 -0.6159
  753MOL0     C 1535  12.180   1.229   3.833 -0.6732  0.6834  0.1075
  753MOL0     C 1536  12.133   1.203   3.691  0.2876  0.9347 -0.7931
  753MOL0     N 1537  12.242   1.129   3.624  0.3682 -0.3876  0.5520
  753MOL0     C 1538  12.363   1.179   3.569  0.6613 -0.0458  0.9988
  753MOL0     C 1539  12.423   1.061   3.522  0.4751  0.7746 -0.2632
  753MOL0     C 1540  12.568   1.049   3.474 -0.0622  0.5001 -1.0968
  753MOL0     C 1541  12.603   1.123   3.341  0.0066 -0.3937 -0.3766
  753MOL0     C 1542  12.650   1.265   3.364  0.3088 -0.5765 -0.0750
  753MOL0     C 1543  12.798   1.270   3.389 -0.0504 -0.0067  0.2145
  753MOL0     O 1544  12.888   1.266   3.274  0.0884 -0.3837 -0.3116
  753MOL0     C 1545  13.017   1.211   3.294 -0.2877  1.3508 -0.9042
  753MOL0     C 1546  13.076   1.204   3.426  0.1038  0.3291 -0.4855
  753MOL0     C 1547  13.214   1.170   3.437  0.5714  0.0711 -0.0396
  753MOL0     C 1548  13.294   1.142   3.319 -1.1780  0.3304  1.0198
  753MOL0     C 1549  13.434   1.089   3.333  0.3543 -0.9190  0.1021
  753MOL0     O 1550  13.463   1.044   3.453 -0.4885 -0.4522 -0.8092
  753MOL0     C 1551  13.577   0.967   3.467 -0.2791  0.4880  0.2024
  753MOL0     C 1552  13.558   0.830   3.515 -0.8381 -0.7173  1.4046
  753MOL0     C 1553  13.668   0.749   3.530 -0.4096 -0.0692  0.0483
  753MOL0     C 1554  13.793   0.786   3.470 -0.4821  0.6477 -0.2701
  753MOL0     O 1555  13.894   0.691   3.458 -0.8143 -0.0804 -0.1035
  753MOL0     C 1556  14.015   0.715   3.535  0.0296 -0.1935 -0.3027
  753MOL0     C 1557  14.091   0.583   3.529 -0.0290  0.4284  0.5307
  753MOL0     C 1558  14.193   0.575   3.409 -0.2692  0.3979 -0.6243
  753MOL0     C 1559  14.204   0.428   3.360 -1.1642 -0.2109  0.3120
  753MOL0     C 1560  14.302   0.414   3.249 -1.2237  0.3175 -0.4719
  753MOL0     C 1561  14.246   0.388   3.111 -0.4888  0.2106  0.5165
  753MOL0     C 1562  14.354   0.370   3.009 -0.0655  0.9902  0.3039
  753MOL0     C 1563  14.293   0.310   2.890 -0.5664 -0.2052  0.4577
  753MOL0    Cl 1564  14.160   0.420   2.826  0.4285  0.0440 -0.2122
  753MOL0     C 1565  13.812   0.918   3.433  0.0994 -0.7179  0.8428
  753MOL0     C 1566  13.702   1.007   3.441  0.1666 -0.2845 -0.4680
  753MOL0     O 1567  13.499   1.078   3.236  0.0543 -0.2469  0.9634
  753MOL0     C 1568  13.234   1.162   3.191  0.1809 -0.2171 -0.4673
  753MOL0     C 1569  13.100   1.191   3.183  0.2468 -0.0987  0.0080
  753MOL0     N 1570  12.343   0.951   3.553  0.4037 -0.3265 -0.2916
  753MOL0     N 1571  12.239   0.997   3.603 -0.0749  1.1813  0.5067
  753MOL0     C 1572  11.359   1.640   4.023 -0.3916  1.3043  0.0167
  753MOL0     C 1573  11.235   1.651   4.082 -0.8375 -1.3938 -0.0014
  753MOL0     C 1574  10.866   1.632   4.325  0.2988 -0.0953 -0.1293
  753MOL0     C 1575  10.764   1.535   4.309 -0.1848 -0.0022  0.0818
  753MOL0     C 1576  10.645   1.553   4.376  0.9177 -0.3994  0.0478
  753MOL0     C 1577  10.618   1.673   4.447 -1.1328 -0.0835 -0.3502
  753MOL0     O 1578  10.490   1.722   4.486  0.0942 -0.1937  0.0492
  753MOL0     C 1579  10.386   1.641   4.442 -0.2577  0.5108 -0.1930
  753MOL0     C 1580  10.261   1.725   4.460  0.1937  0.4670 -0.1160
  753MOL0     C 1581  10.131   1.647   4.423  0.4371  0.2471 -0.3500
  753MOL0     C 1582  10.014   1.742   4.461 -0.3979  0.0618 -0.1984
  753MOL0     C 1583   9.898   1.694   4.398 -0.3690  0.5835  0.3047
  753MOL0     C 1584   9.801   1.647   4.337 -0.4334  0.1853 -0.3719
  753MOL0     C 1585  10.724   1.757   4.479  0.2305  0.2894 -1.0573
  753MOL0     C 1586  10.850   1.737   4.422  0.6594 -0.2229  0.7182
  753MOL0     C 1587  10.957   1.841   4.446 -0.2379  0.6233 -0.0682
  753MOL0     H 1588  11.310   1.663   4.406 -2.1467  3.1278 -1.3482
  753MOL0     H 1589  11.537   1.622   4.295 -0.4427  0.7909  0.6472
  753MOL0     H 1590  11.724   1.580   4.205 -1.6649 -0.0466  0.5884
  753MOL0     H 1591  11.682   1.419   4.157 -1.1495  1.1433  1.3285
  753MOL0     H 1592  11.827   1.609   3.950  3.0908 -0.1468  0.0607
  753MOL0     H 1593  11.812   1.447   3.947 -3.0892 -0.4385  0.5973
  753MOL0     H 1594  11.977   1.422   4.142  2.2799  0.5357 -0.5979
  753MOL0     H 1595  11.975   1.594   4.170  0.6726 -0.2161 -1.0245
  753MOL0     H 1596  12.059   1.650   3.953  1.2270 -0.9839 -0.4838
  753MOL0     H 1597  12.178   1.572   4.051  0.2815  1.4943 -0.4046
  753MOL0     H 1598  12.027   1.478   3.808 -1.2659  0.6477  2.7034
  753MOL0     H 1599  12.202   1.480   3.832  0.2895 -0.7127 -0.8522
  753MOL0     H 1600  12.130   1.309   4.023  3.8351  0.2495 -1.6538
  753MOL0     H 1601  11.994   1.290   3.923  0.3514 -1.2361  0.8123
  753MOL0     H 1602  12.176   1.135   3.887  0.2018 -0.8592 -2.3320
  753MOL0     H 1603  12.285   1.260   3.833  0.0335 -1.5309 -0.6812
  753MOL0     H 1604  12.038   1.151   3.707  1.2755 -0.3025  1.6274
  753MOL0     H 1605  12.107   1.299   3.645  0.2803  0.9506 -0.7566
  753MOL0     H 1606  12.396   1.282   3.566 -1.2596  0.6484  2.0946
  753MOL0     H 1607  12.641   1.082   3.549  1.6938 -0.2580 -2.3991
  753MOL0     H 1608  12.592   0.943   3.474  0.3636  0.5159  1.4482
  753MOL0     H 1609  12.677   1.070   3.280 -1.4352 -1.5225 -1.1872
  753MOL0     H 1610  12.518   1.116   3.273 -1.5062  3.8256  0.7446
  753MOL0     H 1611  12.589   1.315   3.440 -2.7456 -2.5836 -1.0420
  753MOL0     H 1612  12.639   1.315   3.268 -0.2627  0.1755  0.3707
  753MOL0     H 1613  12.827   1.200   3.467  1.3898  2.0648  1.6399
  753MOL0     H 1614  12.815   1.368   3.435  0.7706 -0.7946  1.6636
  753MOL0     H 1615  13.029   1.226   3.522  3.4833  5.6164  0.3287
  753MOL0     H 1616  13.237   1.150   3.541 -0.0635  1.2191  0.3427
  753MOL0     H 1617  13.452   0.810   3.524 -1.0283 -1.0455 -0.8174
  753MOL0     H 1618  13.647   0.652   3.574 -0.1873 -1.3101 -2.3988
  753MOL0     H 1619  14.074   0.802   3.505  0.6424 -0.8104 -0.8997
  753MOL0     H 1620  13.987   0.732   3.640  0.4350 -3.9786  0.5583
  753MOL0     H 1621  14.156   0.566   3.616 -0.0745 -1.4643  0.2373
  753MOL0     H 1622  14.023   0.498   3.518  1.2851 -0.7485  1.1456
  753MOL0     H 1623  14.168   0.634   3.321 -1.9521  0.7883  0.0762
  753MOL0     H 1624  14.291   0.596   3.452  0.7194 -2.1283 -1.4289
  753MOL0     H 1625  14.105   0.392   3.330 -1.8116 -0.2052  2.3401
  753MOL0     H 1626  14.243   0.381   3.450 -2.7517  2.6492  2.6861
  753MOL0     H 1627  14.372   0.334   3.277  0.0776  1.5907  0.0377
  753MOL0     H 1628  14.354   0.509   3.234 -5.0254  2.2254 -2.7373
  753MOL0     H 1629  14.185   0.298   3.112  0.2228 -0.2757  0.8097
  753MOL0     H 1630  14.170   0.460   3.078  0.1186 -0.5842 -3.0621
  753MOL0     H 1631  14.436   0.307   3.046  0.8976  2.8036  1.4008
  753MOL0     H 1632  14.401   0.467   2.991  1.0082  0.1664 -1.6725
  753MOL0     H 1633  14.368   0.307   2.811  0.8993 -0.8586  1.8253
  753MOL0     H 1634  14.261   0.208   2.916  0.2311 -0.1601  1.6733
  753MOL0     H 1635  13.907   0.955   3.395  0.0428 -0.9302  0.4894
  753MOL0     H 1636  13.716   1.107   3.403 -1.1860 -0.4960 -1.5932
  753MOL0     H 1637  13.303   1.156   3.108  1.1921  0.0108  0.3298
  753MOL0     H 1638  13.064   1.218   3.085  0.5385 -0.7293 -0.2744
  753MOL0     H 1639  11.365   1.639   3.914  2.1011 -3.8012 -0.1028
  753MOL0     H 1640  11.162   1.663   4.002 -0.5690 -0.7660 -0.1561
  753MOL0     H 1641  10.782   1.445   4.252 -0.2623 -0.4669  0.7761
  753MOL0     H 1642  10.565   1.483   4.353  0.7722 -0.0737 -0.4616
  753MOL0     H 1643  10.384   1.543   4.491  2.1639  0.0295 -0.9185
  753MOL0     H 1644  10.390   1.628   4.334 -1.0398 -0.3829 -0.1296
  753MOL0     H 1645  10.260   1.816   4.398 -1.7233  0.6044  0.0371
  753MOL0     H 1646  10.250   1.753   4.565  0.8219  3.4054 -0.7398
  753MOL0     H 1647  10.117   1.555   4.482 -3.0806  0.9776  0.2091
  753MOL0     H 1648  10.141   1.625   4.317  1.9895  0.1254 -0.1935
  753MOL0     H 1649  10.006   1.738   4.570 -0.7648 -1.1317 -0.2475
  753MOL0     H 1650  10.031   1.847   4.434 -0.9226  0.7713  2.0070
  753MOL0     H 1651   9.713   1.608   4.289  0.0413  2.1759 -3.1239
  753MOL0     H 1652  10.706   1.841   4.545  1.1050  1.3703 -2.1569
  753MOL0     H 1653  10.911   1.926   4.498  1.2423  2.4691 -1.5975
  753MOL0     H 1654  11.031   1.791   4.509 -1.7610 -2.4788 -0.5774
  753MOL0     H 1655  11.009   1.883   4.360  0.0101 -1.8076 -1.1851
  754MOL0     O 1656  10.179   2.214   3.323 -0.4039  0.0193 -0.8571
  754MOL0     C 1657  10.135   2.143   3.416 -1.0388 -0.4383 -0.8455
  754MOL0     O 1658  10.205   2.119   3.541  1.0894 -0.0010  0.3225
  754MOL0     C 1659  10.324   2.184   3.557  0.1361 -0.6172  0.3637
  754MOL0     C 1660  10.336   2.275   3.668  0.7320  0.4365  0.2964
  754MOL0     C 1661  10.463   2.324   3.691 -0.8468 -0.8097 -0.7397
  754MOL0     C 1662  10.576   2.292   3.612 -0.3846  0.7696 -0.0934
  754MOL0     O 1663  10.701   2.341   3.634 -0.0029  0.2276 -0.8382
  754MOL0     C 1664  10.736   2.358   3.770 -0.6152 -0.5266 -0.1934
  754MOL0     C 1665  10.879   2.391   3.779  0.0300 -0.0064 -0.3491
  754MOL0     C 1666  10.921   2.524   3.715 -0.1370 -0.0234 -0.8577
  754MOL0     C 1667  11.063   2.550   3.761 -0.6679  0.3948  1.2298
  754MOL0     C 1668  11.067   2.650   3.882  0.5445 -0.3321 -0.2844
  754MOL0     C 1669  11.207   2.663   3.950 -0.8764 -0.2322 -0.3124
  754MOL0     C 1670  11.312   2.729   3.861  0.7171  0.1342 -0.4693
  754MOL0     C 1671  11.450   2.733   3.927 -0.6190  0.0021 -0.9709
  754MOL0     N 1672  11.548   2.759   3.825  0.3726  0.7226  0.2015
  754MOL0     C 1673  11.682   2.719   3.829  0.0093 -0.8215  0.1844
  754MOL0     C 1674  11.744   2.760   3.713  0.0201 -0.5097 -0.4829
  754MOL0     C 1675  11.878   2.758   3.667  0.3127 -0.1722  0.1923
  754MOL0     C 1676  11.944   2.632   3.707  0.1951  0.4138  0.1372
  754MOL0     C 1677  12.093   2.632   3.666 -0.8129 -0.0477  1.1840
  754MOL0     C 1678  12.160   2.515   3.734 -0.0947 -0.2653  0.9085
  754MOL0     O 1679  12.276   2.474   3.666 -0.3327  0.1723 -0.4641
  754MOL0     C 1680  12.392   2.441   3.735 -0.0602 -0.7068 -0.1570
  754MOL0     C 1681  12.515   2.457   3.669 -0.3339  0.4526  1.0576
  754MOL0     C 1682  12.639   2.439   3.742  0.1375  0.8747  0.6396
  754MOL0     C 1683  12.637   2.392   3.874 -0.5442  0.2686  0.6815
  754MOL0     C 1684  12.765   2.373   3.959  0.7212 -0.1229 -0.2399
  754MOL0     O 1685  12.894   2.390   3.905 -0.2130 -0.5177  0.1969
  754MOL0     C 1686  13.011   2.388   3.985  0.3001 -0.1448 -0.2056
  754MOL0     C 1687  13.023   2.381   4.125  0.5694 -0.1278 -0.0904
  754MOL0     C 1688  13.148   2.360   4.192  0.6421  0.6215 -0.3397
  754MOL0     C 1689  13.260   2.356   4.115 -0.7856 -0.0066 -0.0594
  754MOL0     O 1690  13.369   2.322   4.180 -0.9725 -1.0221 -0.4128
  754MOL0     C 1691  13.493   2.282   4.117 -0.2403  0.1779  1.1149
  754MOL0     C 1692  13.583   2.210   4.225 -0.8081 -0.6874 -0.1866
  754MOL0     C 1693  13.661   2.304   4.309  0.3675  0.2026 -0.2011
  754MOL0     C 1694  13.748   2.240   4.418  0.5394 -0.6880  0.0887
  754MOL0     C 1695  13.822   2.355   4.495  0.6127 -0.4964 -0.0452
  754MOL0     C 1696  13.938   2.392   4.420 -0.0992 -0.2887 -1.5565
  754MOL0     C 1697  14.006   2.526   4.457 -1.0460  0.4846 -0.2221
  754MOL0     C 1698  14.103   2.504   4.571  0.1206 -0.2747  0.5459
  754MOL0    Cl 1699  14.194   2.654   4.587 -0.1587  0.3604  0.0303
  754MOL0     C 1700  13.259   2.365   3.976  0.2903  0.3123  0.4189
  754MOL0     C 1701  13.135   2.380   3.913 -0.3415  0.4318  0.0330
  754MOL0     O 1702  12.746   2.328   4.073  0.6571 -0.0976  0.3624
  754MOL0     C 1703  12.514   2.374   3.934 -0.0608  0.4435 -0.3699
  754MOL0     C 1704  12.398   2.404   3.866 -0.6337  0.4175 -0.2430
  754MOL0     N 1705  11.651   2.835   3.644 -0.7066  0.0113  0.5215
  754MOL0     N 1706  11.539   2.834   3.711  0.2279  0.8412 -0.1059
  754MOL0     C 1707  10.564   2.200   3.507  0.0970 -0.1355  0.3826
  754MOL0     C 1708  10.439   2.143   3.475 -0.1640  0.0771 -0.7703
  754MOL0     C 1709  10.002   2.092   3.419  0.8947 -0.5666 -0.4351
  754MOL0     C 1710   9.967   1.971   3.478  0.0967  0.5815 -0.5751
  754MOL0     C 1711   9.833   1.924   3.487 -0.6555  0.8602  1.0153
  754MOL0     C 1712   9.733   1.986   3.411 -0.0308 -0.3188  0.0388
  754MOL0     O 1713   9.597   1.957   3.414  0.2653 -0.2483  0.3503
  754MOL0     C 1714   9.568   1.824   3.463  0.2801 -0.1459 -0.7422
  754MOL0     C 1715   9.422   1.783   3.441  0.4884  0.4972  0.3229
  754MOL0     C 1716   9.326   1.898   3.485 -0.3000  0.6078 -0.6410
  754MOL0     C 1717   9.325   1.913   3.637 -0.3363  0.4993  0.3809
  754MOL0     C 1718   9.216   2.006   3.668  0.3186  0.1039  0.4277
  754MOL0     C 1719   9.141   2.098   3.706 -1.0848  0.4481  0.6410
  754MOL0     C 1720   9.761   2.101   3.346 -1.1428  0.0980  0.8624
  754MOL0     C 1721   9.894   2.155   3.340 -0.4165  0.8090 -0.0951
  754MOL0     C 1722   9.923   2.281   3.253  1.5804 -0.2232 -0.2793
  754MOL0     H 1723  10.245   2.300   3.723  0.2961  1.8714 -0.9799
  754MOL0     H 1724  10.472   2.397   3.771  2.2428 -1.8130 -0.0350
  754MOL0     H 1725  10.674   2.439   3.809 -1.0872 -1.0223  0.0904
  754MOL0     H 1726  10.725   2.265   3.825  2.4555 -1.0306 -0.2242
  754MOL0     H 1727  10.945   2.313   3.739  0.8512  0.3696  0.2308
  754MOL0     H 1728  10.892   2.389   3.888 -3.8324  2.5456  0.3805
  754MOL0     H 1729  10.855   2.608   3.739 -0.6957 -0.9624  1.0724
  754MOL0     H 1730  10.927   2.504   3.607 -0.6764 -5.2678 -0.1416
  754MOL0     H 1731  11.110   2.456   3.789  2.8380  1.6384  0.0617
  754MOL0     H 1732  11.117   2.587   3.674  0.6406  0.9208  2.2347
  754MOL0     H 1733  11.034   2.748   3.848  2.0827  1.1528  2.2055
  754MOL0     H 1734  10.997   2.618   3.960  0.7113  0.3556  0.1524
  754MOL0     H 1735  11.207   2.729   4.038 -1.7814 -0.7263  0.0701
  754MOL0     H 1736  11.247   2.566   3.982 -0.8633  0.4430  1.9387
  754MOL0     H 1737  11.293   2.834   3.837  2.4555  1.2404  2.4954
  754MOL0     H 1738  11.326   2.672   3.769  0.3894  1.1451 -1.1724
  754MOL0     H 1739  11.450   2.812   4.003 -0.6789  1.3738 -2.3499
  754MOL0     H 1740  11.472   2.638   3.977 -3.7056  0.8868  2.5322
  754MOL0     H 1741  11.726   2.656   3.905  0.7110  1.0891  1.4448
  754MOL0     H 1742  11.861   2.767   3.560 -2.1474 -0.2781  0.5301
  754MOL0     H 1743  11.927   2.848   3.707 -2.5445  2.4649 -1.7696
  754MOL0     H 1744  11.948   2.629   3.817 -0.7718  3.8778  0.4222
  754MOL0     H 1745  11.897   2.546   3.659 -0.1274 -1.1701  3.0462
  754MOL0     H 1746  12.150   2.715   3.710 -0.4145 -0.3475  1.2350
  754MOL0     H 1747  12.103   2.623   3.558 -0.3473 -1.6050  1.3338
  754MOL0     H 1748  12.095   2.429   3.718 -0.9204  0.0414  2.3692
  754MOL0     H 1749  12.176   2.534   3.841  0.0982  4.2288  0.2740
  754MOL0     H 1750  12.518   2.490   3.566 -1.0129  0.3590  1.0038
  754MOL0     H 1751  12.734   2.448   3.689 -1.6713 -1.8091 -3.6246
  754MOL0     H 1752  12.936   2.399   4.188  1.1926  0.4799  0.6198
  754MOL0     H 1753  13.150   2.350   4.300  0.6051 -1.6698 -0.5119
  754MOL0     H 1754  13.478   2.231   4.021 -1.3643  2.9205 -0.3112
  754MOL0     H 1755  13.567   2.359   4.094 -0.8061  0.1917 -0.8710
  754MOL0     H 1756  13.524   2.137   4.282 -2.5194 -1.4793 -2.7617
  754MOL0     H 1757  13.654   2.155   4.162 -0.6886 -1.3313  0.4983
  754MOL0     H 1758  13.728   2.368   4.250  3.0294 -2.5997 -0.5088
  754MOL0     H 1759  13.585   2.368   4.356  0.6459  0.3073  0.1173
  754MOL0     H 1760  13.815   2.171   4.366 -0.6507 -2.4946  0.8558
  754MOL0     H 1761  13.684   2.186   4.489  0.7920 -0.1146  0.7554
  754MOL0     H 1762  13.844   2.317   4.596  2.3429  2.7415  0.9447
  754MOL0     H 1763  13.756   2.442   4.497  0.8978 -0.2648  1.8123
  754MOL0     H 1764  14.013   2.312   4.415  1.0114  0.5158  0.8617
  754MOL0     H 1765  13.910   2.409   4.316  0.7859  0.1025 -1.7412
  754MOL0     H 1766  13.937   2.605   4.487  0.2273  1.7176 -0.4003
  754MOL0     H 1767  14.063   2.562   4.371 -2.6480  2.2068 -0.6097
  754MOL0     H 1768  14.055   2.489   4.668  0.3616  1.1746  0.9043
  754MOL0     H 1769  14.159   2.413   4.549  0.7015  0.0131  0.8210
  754MOL0     H 1770  13.346   2.362   3.911  1.5509  3.1504  1.8188
  754MOL0     H 1771  13.111   2.372   3.808 -3.4924 -1.3189  0.7630
  754MOL0     H 1772  12.509   2.358   4.042  3.2727 -2.6805 -0.4883
  754MOL0     H 1773  12.303   2.387   3.916 -1.8124  1.6031 -1.9560
  754MOL0     H 1774  10.658   2.187   3.455 -0.8724  1.5929 -1.9552
  754MOL0     H 1775  10.426   2.072   3.394  0.8619  0.5930 -1.4143
  754MOL0     H 1776  10.047   1.925   3.535 -0.3005  1.1743  0.4996
  754MOL0     H 1777   9.825   1.832   3.543 -0.9429  0.3191  0.0997
  754MOL0     H 1778   9.587   1.831   3.570 -1.3886  0.0761 -0.4300
  754MOL0     H 1779   9.630   1.748   3.413  0.1558 -0.4975 -0.3689
  754MOL0     H 1780   9.410   1.682   3.482 -0.4564  0.0405 -1.0024
  754MOL0     H 1781   9.424   1.772   3.332  0.0382 -0.7913  0.4343
  754MOL0     H 1782   9.225   1.861   3.465 -0.6205  0.5490  0.9472
  754MOL0     H 1783   9.349   1.997   3.446  0.1927  1.2116  1.0870
  754MOL0     H 1784   9.323   1.818   3.690 -1.2314 -0.3206 -1.0455
  754MOL0     H 1785   9.421   1.958   3.665 -1.6190  1.6287  3.3574
  754MOL0     H 1786   9.101   2.194   3.733  2.6412  2.7718 -1.2893
  754MOL0     H 1787   9.684   2.141   3.281  1.3337  1.9083 -1.1718
  754MOL0     H 1788   9.982   2.266   3.162  2.3092 -1.2882  0.3569
  754MOL0     H 1789   9.826   2.322   3.221  0.0664 -1.1093  2.7622
  754MOL0     H 1790   9.960   2.359   3.320 -0.2782  1.6487 -1.2842
  755MOL0     O 1791   0.091   6.642   5.067 -0.1135  0.5024 -0.6848
  755MOL0     C 1792   0.021   6.704   5.139 -0.1075 -0.0532 -0.6121
  755MOL0     O 1793   0.063   6.820   5.207 -0.8389  0.1019 -0.6918
  755MOL0     C 1794   0.198   6.849   5.199  0.3396  1.4083 -0.0386
  755MOL0     C 1795   0.251   6.923   5.092 -0.1088 -0.1604  0.2500
  755MOL0     C 1796   0.387   6.953   5.093 -0.0666  0.0396 -0.7729
  755MOL0     C 1797   0.474   6.907   5.199  0.3932 -0.6332  0.7627
  755MOL0     O 1798   0.605   6.933   5.190  0.2306  0.3744  0.2348
  755MOL0     C 1799   0.628   7.064   5.240  0.1200 -0.7169 -0.1445
  755MOL0     C 1800   0.778   7.096   5.266  0.6924 -0.3671 -0.2782
  755MOL0     C 1801   0.843   6.994   5.354  0.5728  0.2377 -0.3389
  755MOL0     C 1802   0.996   7.025   5.367 -0.8076 -0.0052  0.3512
  755MOL0     C 1803   1.060   6.941   5.475 -0.1981 -0.0183 -0.5163
  755MOL0     C 1804   1.209   6.977   5.500  0.8443  0.5605 -0.1701
  755MOL0     C 1805   1.271   6.879   5.599  0.3284  0.0537 -0.2523
  755MOL0     C 1806   1.411   6.919   5.632 -0.2355  0.6133  0.6622
  755MOL0     N 1807   1.510   6.902   5.520 -0.0036  0.1416  0.3585
  755MOL0     C 1808   1.603   6.991   5.490 -0.0581 -0.0828 -0.6076
  755MOL0     C 1809   1.654   6.947   5.370  0.4925  0.4369 -0.3350
  755MOL0     C 1810   1.742   7.016   5.270  0.9157  0.7500 -0.4571
  755MOL0     C 1811   1.891   7.009   5.307  0.3357 -0.6624  0.5129
  755MOL0     C 1812   1.963   7.058   5.187 -0.3304  1.1797 -1.0112
  755MOL0     C 1813   2.099   7.005   5.188 -0.3783 -0.1791 -0.4804
  755MOL0     O 1814   2.165   7.035   5.314 -0.6709 -0.6467 -0.3664
  755MOL0     C 1815   2.257   7.141   5.321 -0.5497 -0.1059  0.0605
  755MOL0     C 1816   2.368   7.129   5.414 -0.1729 -0.4412 -0.3517
  755MOL0     C 1817   2.460   7.228   5.425  0.8581  0.4517 -0.0635
  755MOL0     C 1818   2.455   7.344   5.345 -0.0663 -0.6057  0.2676
  755MOL0     C 1819   2.540   7.463   5.380  0.3332 -0.1711 -0.1027
  755MOL0     O 1820   2.669   7.433   5.422  0.4709 -0.0424 -0.5125
  755MOL0     C 1821   2.759   7.529   5.420  0.2026 -0.6604 -0.0873
  755MOL0     C 1822   2.798   7.596   5.539  1.1839 -0.5086  0.7882
  755MOL0     C 1823   2.899   7.687   5.546  0.3374 -0.7385 -0.1187
  755MOL0     C 1824   2.952   7.734   5.426  0.0746  0.2621 -0.2434
  755MOL0     O 1825   3.024   7.849   5.434  0.1451  0.6644 -0.2743
  755MOL0     C 1826   3.046   7.926   5.317  0.5685 -0.3509  0.3743
  755MOL0     C 1827   3.132   8.051   5.337  0.6445  0.4645 -0.7984
  755MOL0     C 1828   3.282   8.034   5.360 -0.6201 -0.2449 -0.2703
  755MOL0     C 1829   3.358   8.160   5.359 -0.3998 -0.4700  0.1370
  755MOL0     C 1830   3.509   8.150   5.375  0.4539 -0.1933  0.2441
  755MOL0     C 1831   3.583   8.282   5.379 -0.1185 -0.3313 -0.5626
  755MOL0     C 1832   3.734   8.263   5.396 -0.6374 -0.6071  0.6792
  755MOL0     C 1833   3.823   8.357   5.319 -0.0972  0.4304 -0.2773
  755MOL0    Cl 1834   4.008   8.320   5.329 -0.1649  0.2195  0.1327
  755MOL0     C 1835   2.926   7.664   5.305  0.8362 -0.9117  0.1269
  755MOL0     C 1836   2.828   7.556   5.312 -0.1496 -0.1730 -0.3105
  755MOL0     O 1837   2.490   7.574   5.348 -0.0768 -0.8664 -0.2735
  755MOL0     C 1838   2.351   7.350   5.255  0.0108 -0.3905 -0.4106
  755MOL0     C 1839   2.256   7.258   5.244  0.5875 -0.0048 -0.2391
  755MOL0     N 1840   1.589   6.826   5.331 -0.0091 -0.4317  0.0199
  755MOL0     N 1841   1.512   6.795   5.426 -0.2450  0.5562  0.7816
  755MOL0     C 1842   0.414   6.835   5.299 -0.0413  0.8377 -0.1296
  755MOL0     C 1843   0.282   6.804   5.301  0.7671 -0.2470 -0.6264
  755MOL0     C 1844  -0.115   6.647   5.188 -0.9128  1.0812 -0.7201
  755MOL0     C 1845  -0.170   6.705   5.307  0.4281 -0.2114  0.2600
  755MOL0     C 1846  -0.299   6.667   5.358 -0.9107 -0.5541  0.1414
  755MOL0     C 1847  -0.361   6.556   5.308 -0.0377 -0.4229  1.1317
  755MOL0     O 1848  -0.479   6.527   5.366  0.1475  0.0285 -0.0651
  755MOL0     C 1849  -0.559   6.428   5.303  0.9246 -0.1311 -0.0050
  755MOL0     C 1850  -0.699   6.424   5.357 -0.4587  0.4628 -0.0391
  755MOL0     C 1851  -0.708   6.422   5.504 -0.0304  0.3249 -1.2381
  755MOL0     C 1852  -0.697   6.276   5.569  0.4661  0.1865  0.2539
  755MOL0     C 1853  -0.566   6.216   5.544  0.9073 -0.2642 -0.6102
  755MOL0     C 1854  -0.454   6.185   5.518 -0.0881  0.1063 -0.1538
  755MOL0     C 1855  -0.297   6.497   5.193 -0.6466  0.6651  0.3423
  755MOL0     C 1856  -0.181   6.534   5.133 -0.0329  0.0382  0.2928
  755MOL0     C 1857  -0.125   6.453   5.016  0.0282  0.1390 -0.9431
  755MOL0     H 1858   0.189   6.949   5.007  1.0454  1.1943 -0.2114
  755MOL0     H 1859   0.433   7.004   5.010  1.0244  1.5197  0.6842
  755MOL0     H 1860   0.583   7.132   5.168 -1.0661 -1.4184 -0.0975
  755MOL0     H 1861   0.575   7.086   5.333 -1.0634  2.2401 -1.4014
  755MOL0     H 1862   0.787   7.191   5.319  2.2214 -2.0533  2.7753
  755MOL0     H 1863   0.833   7.107   5.172  1.1005  5.9961  0.2888
  755MOL0     H 1864   0.815   6.893   5.321 -3.1123  0.7443  0.7780
  755MOL0     H 1865   0.807   7.003   5.456  1.0399  1.5144 -0.2650
  755MOL0     H 1866   1.045   6.998   5.273 -1.1530  1.6445 -0.3319
  755MOL0     H 1867   1.012   7.132   5.378 -0.0222  0.0240 -0.8899
  755MOL0     H 1868   1.003   6.944   5.569  0.5844 -2.3145  0.1240
  755MOL0     H 1869   1.058   6.838   5.437  0.2898 -1.9365  3.9110
  755MOL0     H 1870   1.265   6.980   5.407 -0.1692  0.5059 -0.7961
  755MOL0     H 1871   1.210   7.078   5.541  1.1144  1.1942 -1.7158
  755MOL0     H 1872   1.269   6.778   5.559 -1.5263 -0.5822  1.2759
  755MOL0     H 1873   1.213   6.873   5.692 -1.1237 -0.6108 -1.1575
  755MOL0     H 1874   1.418   7.021   5.671  1.1911  0.9880 -0.4789
  755MOL0     H 1875   1.441   6.851   5.712 -1.2440 -0.2634  0.3195
  755MOL0     H 1876   1.642   7.082   5.533 -0.8047 -0.1881  0.3152
  755MOL0     H 1877   1.715   6.976   5.172 -0.3653  1.5552 -0.4553
  755MOL0     H 1878   1.703   7.118   5.272 -1.4230 -0.0858  0.1993
  755MOL0     H 1879   1.911   7.075   5.393 -1.6386  1.3900 -0.4812
  755MOL0     H 1880   1.915   6.905   5.330  0.1796 -0.3659  2.1967
  755MOL0     H 1881   1.972   7.167   5.195  3.3670  0.8655  1.7761
  755MOL0     H 1882   1.906   7.031   5.098  0.4968 -0.9760 -0.9377
  755MOL0     H 1883   2.153   7.039   5.099 -2.5163  2.2155 -0.9650
  755MOL0     H 1884   2.108   6.897   5.177 -1.7970 -0.5138  1.2379
  755MOL0     H 1885   2.366   7.038   5.472  0.4821  0.5472  1.2889
  755MOL0     H 1886   2.532   7.219   5.505  1.2130 -5.5556 -0.5969
  755MOL0     H 1887   2.742   7.572   5.628  0.8251 -1.3283  0.3517
  755MOL0     H 1888   2.912   7.737   5.641  0.7634 -0.1970 -0.4577
  755MOL0     H 1889   3.106   7.859   5.254 -2.4314  0.6352 -4.0098
  755MOL0     H 1890   2.954   7.952   5.264 -0.3567 -0.3837  1.9191
  755MOL0     H 1891   3.117   8.115   5.250 -2.1374  0.5722 -0.3428
  755MOL0     H 1892   3.090   8.110   5.419  1.8199  0.8683 -0.4732
  755MOL0     H 1893   3.293   7.982   5.455 -0.8697 -2.7498 -1.5394
  755MOL0     H 1894   3.338   7.973   5.289  0.0410  0.8251 -0.6953
  755MOL0     H 1895   3.319   8.213   5.446 -0.2741 -1.1149  0.5905
  755MOL0     H 1896   3.346   8.217   5.266  1.1809  4.3362  2.5521
  755MOL0     H 1897   3.559   8.101   5.291  1.8080  5.4170 -2.7609
  755MOL0     H 1898   3.518   8.093   5.468 -1.2858 -0.3537  0.3539
  755MOL0     H 1899   3.557   8.342   5.292  0.3748  0.4223 -0.1941
  755MOL0     H 1900   3.544   8.344   5.461 -0.2132 -1.8311  0.5896
  755MOL0     H 1901   3.763   8.161   5.365 -1.8690 -0.4643 -1.0929
  755MOL0     H 1902   3.753   8.279   5.503 -0.9948 -1.0780  0.8207
  755MOL0     H 1903   3.789   8.346   5.216  2.2085  2.6125 -1.3797
  755MOL0     H 1904   3.802   8.461   5.346  1.4342  0.8244 -0.4803
  755MOL0     H 1905   2.972   7.700   5.213  0.7731  2.0717  1.1631
  755MOL0     H 1906   2.810   7.508   5.216  0.7171  0.4798 -0.8160
  755MOL0     H 1907   2.348   7.442   5.198 -1.8231 -0.4979 -0.5424
  755MOL0     H 1908   2.166   7.276   5.186 -1.1078 -2.0583  1.5734
  755MOL0     H 1909   0.475   6.787   5.375  1.3776  1.6740 -0.6994
  755MOL0     H 1910   0.218   6.759   5.377 -0.1898  4.0333  1.4316
  755MOL0     H 1911  -0.118   6.787   5.355  0.0805 -0.7433  1.5978
  755MOL0     H 1912  -0.339   6.732   5.435 -0.8721  2.4781 -2.2037
  755MOL0     H 1913  -0.508   6.332   5.310  1.1813  0.0741  1.3775
  755MOL0     H 1914  -0.571   6.459   5.199 -1.3210 -4.1440 -1.1387
  755MOL0     H 1915  -0.742   6.337   5.307  1.2183  0.0045 -0.7834
  755MOL0     H 1916  -0.752   6.514   5.328  1.0728  0.9200 -1.5805
  755MOL0     H 1917  -0.806   6.453   5.543 -0.6978 -1.2404 -1.5547
  755MOL0     H 1918  -0.631   6.488   5.545 -0.5818  1.8936 -2.6146
  755MOL0     H 1919  -0.699   6.282   5.678 -0.5446 -2.8946  0.4792
  755MOL0     H 1920  -0.776   6.206   5.542 -0.7669  1.0130  1.5754
  755MOL0     H 1921  -0.351   6.161   5.502  0.6196  3.4511 -1.2719
  755MOL0     H 1922  -0.350   6.413   5.150 -0.9475  1.1296 -0.2156
  755MOL0     H 1923  -0.071   6.363   5.048  0.2802  0.1557 -1.3244
  755MOL0     H 1924  -0.211   6.418   4.958 -2.1302  1.1215  1.4373
  755MOL0     H 1925  -0.071   6.521   4.950  0.7410  1.1584  0.6116
  756MOL0     O 1926   5.415   6.888   0.513 -0.6484 -0.4009  0.0528
  756MOL0     C 1927   5.417   6.871   0.636 -0.2152  0.0027 -0.5275
  756MOL0     O 1928   5.313   6.890   0.724  0.0333 -0.4041 -0.3087
  756MOL0     C 1929   5.193   6.925   0.672  0.7165 -0.1099 -0.4937
  756MOL0     C 1930   5.112   6.819   0.627  0.1848  1.5506 -0.3312
  756MOL0     C 1931   4.987   6.854   0.584 -0.3518  0.2858  0.8858
  756MOL0     C 1932   4.937   6.985   0.591  0.2390  1.0253  0.4456
  756MOL0     O 1933   4.813   7.010   0.547 -0.0174 -0.0334  0.2532
  756MOL0     C 1934   4.773   6.959   0.423  0.6269  0.0582 -0.4238
  756MOL0     C 1935   4.651   7.038   0.377 -0.2119 -0.2619 -1.4085
  756MOL0     C 1936   4.531   7.048   0.470  0.6180  0.2233  0.8842
  756MOL0     C 1937   4.393   7.057   0.407 -0.5582  0.6406 -0.8237
  756MOL0     C 1938   4.356   7.178   0.326  0.1305 -0.1324 -0.0571
  756MOL0     C 1939   4.208   7.167   0.270  0.0517 -0.3050  0.4736
  756MOL0     C 1940   4.097   7.136   0.377 -0.4472 -0.1549  0.4616
  756MOL0     C 1941   3.959   7.157   0.309  0.0364 -0.2165 -0.1807
  756MOL0     N 1942   3.850   7.119   0.398  0.2208  0.4199 -0.4386
  756MOL0     C 1943   3.760   7.012   0.403 -0.5073  0.1319 -0.7418
  756MOL0     C 1944   3.714   7.003   0.531 -0.6379  0.0363  0.2012
  756MOL0     C 1945   3.604   6.901   0.555 -0.0503 -0.7294 -0.0528
  756MOL0     C 1946   3.480   6.988   0.605  0.6817 -0.2841  0.2246
  756MOL0     C 1947   3.405   7.029   0.488  0.5301  0.1866  0.4034
  756MOL0     C 1948   3.293   7.121   0.530 -0.1426 -0.0089 -0.0449
  756MOL0     O 1949   3.213   7.156   0.411 -0.3720  0.4874 -0.4219
  756MOL0     C 1950   3.090   7.216   0.416 -0.3474 -0.5154 -0.1276
  756MOL0     C 1951   3.025   7.240   0.296 -0.3750 -0.9079 -0.4450
  756MOL0     C 1952   2.891   7.282   0.288 -0.1231 -0.0248  0.1608
  756MOL0     C 1953   2.819   7.291   0.410 -0.2737  0.1885  0.4864
  756MOL0     C 1954   2.678   7.338   0.399 -0.1442  0.2936  0.3129
  756MOL0     O 1955   2.649   7.401   0.285 -0.9438  0.1278 -0.1099
  756MOL0     C 1956   2.520   7.430   0.270 -1.5220 -0.2233  0.0829
  756MOL0     C 1957   2.470   7.554   0.276  0.3375  0.6735 -0.6997
  756MOL0     C 1958   2.336   7.574   0.247  0.5833 -0.0618  0.1035
  756MOL0     C 1959   2.248   7.468   0.197 -0.3623  0.2614 -0.5994
  756MOL0     O 1960   2.112   7.508   0.178  0.2766  0.1859  0.7269
  756MOL0     C 1961   2.021   7.395   0.194 -0.7013  0.0276  0.6211
  756MOL0     C 1962   1.905   7.443   0.278  0.8758 -0.0767 -0.7567
  756MOL0     C 1963   1.823   7.557   0.218 -0.5015  0.2590  0.4685
  756MOL0     C 1964   1.698   7.601   0.304 -0.7416 -0.2549 -0.0587
  756MOL0     C 1965   1.628   7.710   0.227 -0.5014  0.1596  0.3300
  756MOL0     C 1966   1.488   7.753   0.285 -0.4960  0.5035 -0.4099
  756MOL0     C 1967   1.508   7.822   0.416 -0.3694  1.1300  0.5234
  756MOL0     C 1968   1.373   7.854   0.480 -0.0004 -0.0337  0.6610
  756MOL0    Cl 1969   1.273   7.980   0.409 -0.2336 -0.1014  0.4841
  756MOL0     C 1970   2.308   7.341   0.185  0.0916 -0.1780  0.1019
  756MOL0     C 1971   2.439   7.328   0.230 -0.6982 -0.0885 -0.6376
  756MOL0     O 1972   2.605   7.320   0.492  0.7179  0.1156 -0.3376
  756MOL0     C 1973   2.882   7.266   0.536  1.1138 -0.5873 -0.6659
  756MOL0     C 1974   3.024   7.229   0.536 -0.4347  0.6490  0.4198
  756MOL0     N 1975   3.765   7.106   0.604  0.6576 -0.8095 -0.1637
  756MOL0     N 1976   3.833   7.176   0.520 -0.2928  0.5090 -0.2796
  756MOL0     C 1977   5.017   7.088   0.631  0.4400  0.6172  0.0735
  756MOL0     C 1978   5.148   7.060   0.670 -0.0206  0.2618  0.0484
  756MOL0     C 1979   5.542   6.823   0.693 -0.4005  0.2743 -0.0960
  756MOL0     C 1980   5.521   6.692   0.758 -0.0011  0.1292  1.5313
  756MOL0     C 1981   5.625   6.619   0.814 -0.0630  0.3973 -0.3140
  756MOL0     C 1982   5.760   6.676   0.802  1.2075  0.2736 -0.2773
  756MOL0     O 1983   5.876   6.614   0.832 -0.4254 -0.0256 -0.0100
  756MOL0     C 1984   5.873   6.474   0.877  0.6346 -0.2974 -0.8264
  756MOL0     C 1985   6.020   6.425   0.911  0.5113 -0.9252  0.4797
  756MOL0     C 1986   6.098   6.506   1.015  0.5431  0.1518  0.2463
  756MOL0     C 1987   6.025   6.531   1.147 -1.0021 -0.1611  0.2378
  756MOL0     C 1988   5.993   6.408   1.222 -0.7619  0.1253 -1.3078
  756MOL0     C 1989   5.965   6.308   1.297 -0.7282 -0.4871 -0.7399
  756MOL0     C 1990   5.781   6.796   0.737  0.5343 -0.2899 -0.1425
  756MOL0     C 1991   5.676   6.865   0.675  0.2655  0.3162 -0.0699
  756MOL0     C 1992   5.697   6.998   0.600 -0.3180  0.0470 -0.1194
  756MOL0     H 1993   5.145   6.716   0.636  1.0994  1.7676 -0.9675
  756MOL0     H 1994   4.929   6.769   0.549  2.0955  0.1765 -3.6358
  756MOL0     H 1995   4.860   6.978   0.360  0.7994 -1.7378 -0.7729
  756MOL0     H 1996   4.736   6.856   0.420  0.5894  0.0767 -0.6806
  756MOL0     H 1997   4.611   7.008   0.280 -0.6282 -0.5456 -1.1493
  756MOL0     H 1998   4.676   7.142   0.352 -1.8564 -0.2308 -3.1679
  756MOL0     H 1999   4.544   7.141   0.525  1.7412 -0.1915  1.3498
  756MOL0     H 2000   4.533   6.967   0.544 -0.2409  0.8638  1.6318
  756MOL0     H 2001   4.389   6.974   0.336  3.1646 -0.6944  0.2839
  756MOL0     H 2002   4.314   7.036   0.479 -1.4993  0.1676 -1.9715
  756MOL0     H 2003   4.369   7.264   0.392  2.3834 -1.1180  0.8830
  756MOL0     H 2004   4.420   7.194   0.239 -1.2767 -1.2689 -1.3517
  756MOL0     H 2005   4.171   7.249   0.207  0.0589  0.6230  1.6381
  756MOL0     H 2006   4.202   7.086   0.197 -0.4114  1.7854 -1.9843
  756MOL0     H 2007   4.116   7.195   0.468 -0.3687 -0.2642  0.5164
  756MOL0     H 2008   4.091   7.028   0.390  0.9723 -1.0590 -4.4828
  756MOL0     H 2009   3.936   7.262   0.288 -2.3772 -0.6026  0.2474
  756MOL0     H 2010   3.956   7.100   0.216 -0.6912 -0.7825  0.1782
  756MOL0     H 2011   3.742   6.943   0.321 -2.4901 -0.4017  0.0956
  756MOL0     H 2012   3.574   6.840   0.470 -0.2061  1.0646 -1.3288
  756MOL0     H 2013   3.634   6.831   0.634  1.0791 -2.1343 -1.6689
  756MOL0     H 2014   3.415   6.925   0.666  1.6234 -0.6543  0.8539
  756MOL0     H 2015   3.505   7.080   0.658 -0.3882 -0.0242  0.3081
  756MOL0     H 2016   3.372   6.939   0.436 -0.9822  1.0080 -0.1146
  756MOL0     H 2017   3.464   7.086   0.416 -1.2110  3.7975  1.5996
  756MOL0     H 2018   3.341   7.209   0.573 -1.2181 -0.4377  2.1502
  756MOL0     H 2019   3.236   7.075   0.611  0.7532  2.5939  2.1868
  756MOL0     H 2020   3.082   7.212   0.207 -2.6777  2.9684 -3.4595
  756MOL0     H 2021   2.836   7.284   0.195 -1.6771  0.7982  1.0627
  756MOL0     H 2022   2.533   7.639   0.299  0.3688  0.3920  0.2857
  756MOL0     H 2023   2.294   7.673   0.266  1.3109  0.3376 -0.3345
  756MOL0     H 2024   1.982   7.375   0.094 -3.1891  1.3401  1.2582
  756MOL0     H 2025   2.063   7.302   0.234 -0.5937 -0.7671 -1.2460
  756MOL0     H 2026   1.834   7.360   0.287  1.3272 -0.2606  1.8045
  756MOL0     H 2027   1.933   7.473   0.379  0.9045  2.9177 -1.5509
  756MOL0     H 2028   1.890   7.643   0.216  2.0261 -1.5893  0.3656
  756MOL0     H 2029   1.800   7.530   0.115  0.4240  0.7438  0.1302
  756MOL0     H 2030   1.728   7.638   0.403 -1.9654 -1.1456  0.6794
  756MOL0     H 2031   1.621   7.524   0.312 -0.0030 -1.2381 -1.8980
  756MOL0     H 2032   1.621   7.683   0.122  0.8918 -2.0978  0.7539
  756MOL0     H 2033   1.682   7.804   0.230 -1.2845  0.6449 -0.3979
  756MOL0     H 2034   1.454   7.820   0.206  1.1112  0.5006 -1.1574
  756MOL0     H 2035   1.414   7.675   0.301 -2.7921  1.8153 -3.6548
  756MOL0     H 2036   1.579   7.904   0.403  0.1640  0.4675 -0.9642
  756MOL0     H 2037   1.565   7.754   0.479  0.0364  0.9824  0.0040
  756MOL0     H 2038   1.316   7.761   0.493  1.8175 -1.2330  0.5143
  756MOL0     H 2039   1.403   7.888   0.579 -0.0778  0.4313  0.5276
  756MOL0     H 2040   2.248   7.254   0.159 -0.5432  0.2778 -0.0038
  756MOL0     H 2041   2.478   7.227   0.235 -2.3649 -0.7446 -0.0599
  756MOL0     H 2042   2.821   7.271   0.626  3.6669 -1.3814  1.2151
  756MOL0     H 2043   3.081   7.219   0.628  1.9892  1.2007 -0.9329
  756MOL0     H 2044   4.991   7.192   0.650 -0.2418  0.8449 -1.8914
  756MOL0     H 2045   5.212   7.141   0.704 -0.8142  0.9159  0.0110
  756MOL0     H 2046   5.421   6.650   0.766 -1.6203  2.2211 -3.6154
  756MOL0     H 2047   5.616   6.521   0.861 -1.4890  0.6636  0.0135
  756MOL0     H 2048   5.840   6.402   0.801  1.3933 -2.6083  0.8967
  756MOL0     H 2049   5.809   6.444   0.961  1.2912 -2.6163 -1.0871
  756MOL0     H 2050   6.068   6.435   0.813  0.1377 -2.3104  0.1369
  756MOL0     H 2051   6.020   6.317   0.928 -2.3053 -1.7668 -3.4086
  756MOL0     H 2052   6.125   6.605   0.976  1.4410  0.2285  1.0248
  756MOL0     H 2053   6.194   6.459   1.038  0.2329 -0.9509 -0.6600
  756MOL0     H 2054   6.060   6.615   1.209  1.1255  1.8041 -3.3230
  756MOL0     H 2055   5.922   6.559   1.124 -0.3367  1.6428 -0.7675
  756MOL0     H 2056   5.947   6.230   1.368 -0.9093  0.5309  0.3601
  756MOL0     H 2057   5.881   6.826   0.708 -0.1622 -1.3827 -4.3014
  756MOL0     H 2058   5.694   7.086   0.665  0.0645  0.9458 -1.2985
  756MOL0     H 2059   5.789   6.981   0.544 -0.2547  0.4934 -0.1526
  756MOL0     H 2060   5.626   7.020   0.520  0.7146  0.3613 -0.9693
  757MOL0     O 2061   6.707  10.235   2.574 -0.2757  0.3235 -0.5840
  757MOL0     C 2062   6.747  10.267   2.463 -0.0694 -0.2728  0.6869
  757MOL0     O 2063   6.668  10.280   2.351 -0.0319 -0.8235 -0.3779
  757MOL0     C 2064   6.533  10.232   2.364 -0.2425 -1.2413  0.4881
  757MOL0     C 2065   6.495  10.113   2.427  1.0480 -0.1495 -1.4688
  757MOL0     C 2066   6.352  10.077   2.430 -0.6787 -0.6115 -0.6900
  757MOL0     C 2067   6.258  10.167   2.373  0.1845 -0.8384  0.1684
  757MOL0     O 2068   6.120  10.148   2.371 -0.5607  0.0407 -0.3170
  757MOL0     C 2069   6.073  10.019   2.415 -0.0638  0.2292  0.1608
  757MOL0     C 2070   6.096   9.903   2.312  0.0486 -0.6192  0.9617
  757MOL0     C 2071   5.987   9.907   2.194  0.0994  0.0443  0.4784
  757MOL0     C 2072   5.843   9.875   2.230  0.2735  0.1214 -0.0656
  757MOL0     C 2073   5.743   9.865   2.110 -0.6681  0.5059  0.6291
  757MOL0     C 2074   5.616   9.802   2.172  0.4339 -0.4369 -1.1071
  757MOL0     C 2075   5.526   9.738   2.073  0.3339 -0.5793  0.2255
  757MOL0     C 2076   5.441   9.845   1.997 -0.1728 -0.2438  0.3715
  757MOL0     N 2077   5.325   9.893   2.073  0.3385  0.2531 -0.3323
  757MOL0     C 2078   5.198   9.838   2.054  0.5399 -0.4038 -1.1541
  757MOL0     C 2079   5.120   9.907   2.148 -0.3659 -0.9263  0.4716
  757MOL0     C 2080   4.969   9.888   2.171 -0.7040 -0.7356 -0.3740
  757MOL0     C 2081   4.891  10.003   2.105  0.3900 -0.6303 -0.0618
  757MOL0     C 2082   4.757  10.051   2.173  0.4190 -0.8713 -0.3473
  757MOL0     C 2083   4.666   9.929   2.177 -0.4022  0.0668 -0.4232
  757MOL0     O 2084   4.535   9.978   2.205 -0.1235  0.1588  0.2718
  757MOL0     C 2085   4.433   9.896   2.239 -0.8016  0.1856  0.0721
  757MOL0     C 2086   4.325   9.963   2.286 -0.7979 -1.3460  0.0218
  757MOL0     C 2087   4.206   9.902   2.324 -0.4652  0.7127 -0.0009
  757MOL0     C 2088   4.192   9.764   2.299  0.6249  0.6704  0.2656
  757MOL0     C 2089   4.059   9.693   2.306  0.9541  0.4993 -0.1110
  757MOL0     O 2090   3.947   9.771   2.336  0.5380 -0.7810 -0.1042
  757MOL0     C 2091   3.824   9.707   2.338  0.0557  0.4200  0.9361
  757MOL0     C 2092   3.748   9.711   2.227  0.2998 -1.5986  0.9350
  757MOL0     C 2093   3.626   9.644   2.223  0.0234 -0.8816 -0.4362
  757MOL0     C 2094   3.585   9.562   2.320 -0.4244 -0.5913 -0.1812
  757MOL0     O 2095   3.483   9.470   2.312 -0.8116  0.2678 -0.1484
  757MOL0     C 2096   3.352   9.518   2.295  0.3938 -0.7616  0.0143
  757MOL0     C 2097   3.254   9.405   2.332 -0.3991 -0.9713  0.8669
  757MOL0     C 2098   3.238   9.386   2.478  0.5554  0.2576 -0.3122
  757MOL0     C 2099   3.177   9.248   2.509  0.0118  0.2788 -0.2572
  757MOL0     C 2100   3.157   9.231   2.657  0.7491 -0.0641  0.6380
  757MOL0     C 2101   3.133   9.081   2.693 -0.1134 -0.1833 -0.4267
  757MOL0     C 2102   3.124   9.062   2.849 -0.0545 -0.1158  0.8749
  757MOL0     C 2103   3.223   8.951   2.888  1.8325 -0.2715  0.1313
  757MOL0    Cl 2104   3.224   8.954   3.065 -0.1040 -0.3454  0.3888
  757MOL0     C 2105   3.656   9.564   2.445 -0.5601  0.6572 -0.3660
  757MOL0     C 2106   3.772   9.651   2.459  1.1525  1.0972  0.6848
  757MOL0     O 2107   4.053   9.566   2.288  0.3369  0.1817 -1.4975
  757MOL0     C 2108   4.302   9.689   2.258 -0.0541 -0.6378  1.0894
  757MOL0     C 2109   4.428   9.757   2.226 -0.2287 -0.3015 -0.7037
  757MOL0     N 2110   5.205  10.001   2.221 -0.7347 -0.1608 -0.1615
  757MOL0     N 2111   5.323   9.985   2.172  0.3387  0.6734 -0.8523
  757MOL0     C 2112   6.303  10.291   2.331 -0.0184  0.1506  0.3959
  757MOL0     C 2113   6.438  10.314   2.320 -0.0411  0.2928 -0.0102
  757MOL0     C 2114   6.890  10.285   2.440 -0.6702 -0.6848  0.1544
  757MOL0     C 2115   6.931  10.355   2.324  0.9340  0.2875 -0.3902
  757MOL0     C 2116   7.058  10.397   2.308 -0.2705 -0.2605  0.0901
  757MOL0     C 2117   7.158  10.369   2.400 -0.7239  0.4275 -1.3446
  757MOL0     O 2118   7.287  10.405   2.398  0.2274  0.3200  0.0899
  757MOL0     C 2119   7.328  10.499   2.292  0.1238  0.3754  0.5138
  757MOL0     C 2120   7.467  10.568   2.319  0.5843 -0.0188  0.0359
  757MOL0     C 2121   7.447  10.667   2.450  0.9014 -0.0659 -0.2860
  757MOL0     C 2122   7.572  10.741   2.495 -0.9645  0.4774 -0.2665
  757MOL0     C 2123   7.664  10.639   2.552  0.5028 -0.0525  0.3682
  757MOL0     C 2124   7.713  10.556   2.622  0.0741 -0.1505  0.1448
  757MOL0     C 2125   7.120  10.306   2.518 -0.1643  0.0789  0.2583
  757MOL0     C 2126   6.988  10.268   2.545 -0.0452 -0.9969 -0.1244
  757MOL0     C 2127   6.969  10.217   2.689  0.2605 -0.5863 -0.2502
  757MOL0     H 2128   6.570  10.048   2.472  1.4641  2.1612  1.4328
  757MOL0     H 2129   6.334   9.983   2.483  1.1260  0.3681  1.8290
  757MOL0     H 2130   6.123   9.997   2.510  1.6275 -0.9833 -0.9511
  757MOL0     H 2131   5.967  10.029   2.440 -0.6758  1.3734 -2.5500
  757MOL0     H 2132   6.086   9.808   2.366  1.0312 -0.7793  0.8849
  757MOL0     H 2133   6.192   9.907   2.260 -0.8738 -1.2249 -0.8774
  757MOL0     H 2134   6.018   9.853   2.104  2.0557 -1.6830  2.0818
  757MOL0     H 2135   5.993  10.008   2.151 -1.5545  0.1566  0.4607
  757MOL0     H 2136   5.848   9.779   2.282 -1.8176 -0.8578 -1.5825
  757MOL0     H 2137   5.797   9.956   2.288  1.7126  2.4495 -1.9699
  757MOL0     H 2138   5.726   9.963   2.064 -1.6199  0.0793  0.0379
  757MOL0     H 2139   5.783   9.805   2.029 -0.3595  0.9179  0.4740
  757MOL0     H 2140   5.641   9.733   2.252 -0.6830  0.9518  0.5167
  757MOL0     H 2141   5.567   9.887   2.221 -3.7789 -2.3955 -1.4974
  757MOL0     H 2142   5.476   9.665   2.137  1.6026 -3.5526 -1.9457
  757MOL0     H 2143   5.580   9.681   1.997  1.3858  0.5392  0.1023
  757MOL0     H 2144   5.505   9.929   1.969 -1.1247  0.5393  0.5144
  757MOL0     H 2145   5.396   9.810   1.903  0.2908 -0.9465  0.4020
  757MOL0     H 2146   5.167   9.762   1.984 -0.8986 -1.2664  0.3457
  757MOL0     H 2147   4.948   9.795   2.117 -1.9735 -1.7207  1.6872
  757MOL0     H 2148   4.935   9.862   2.271 -1.5230 -0.7774 -0.6556
  757MOL0     H 2149   4.953  10.092   2.097  0.3366 -0.6908 -1.4350
  757MOL0     H 2150   4.872   9.972   2.002 -0.6338  3.2078 -1.2061
  757MOL0     H 2151   4.714  10.128   2.108  1.6401  0.6302  0.5472
  757MOL0     H 2152   4.779  10.093   2.272  1.2820 -1.2368 -0.3676
  757MOL0     H 2153   4.709   9.858   2.248 -0.2070  2.1735  1.6616
  757MOL0     H 2154   4.663   9.879   2.079  1.5570  0.1248 -0.5589
  757MOL0     H 2155   4.331  10.071   2.276  0.6837 -1.5819 -2.5776
  757MOL0     H 2156   4.125   9.967   2.357  0.3806  3.2764 -2.6087
  757MOL0     H 2157   3.784   9.762   2.139 -0.7533  0.5358  1.6582
  757MOL0     H 2158   3.572   9.645   2.129  0.1019 -0.3184 -0.4812
  757MOL0     H 2159   3.337   9.597   2.369  1.9106 -0.8272  0.4207
  757MOL0     H 2160   3.342   9.553   2.192 -2.1466 -0.9583  0.1347
  757MOL0     H 2161   3.164   9.438   2.281  1.4968  0.6488 -1.6789
  757MOL0     H 2162   3.279   9.312   2.279 -3.5803 -0.7291 -1.3366
  757MOL0     H 2163   3.334   9.388   2.530  0.1867 -0.7942  0.4332
  757MOL0     H 2164   3.174   9.466   2.517 -0.4187 -0.5977 -0.1079
  757MOL0     H 2165   3.253   9.180   2.468  1.6866  1.5704  0.5866
  757MOL0     H 2166   3.077   9.231   2.468  0.5150 -2.2962 -0.5606
  757MOL0     H 2167   3.076   9.289   2.700 -0.6019 -0.3096 -1.4273
  757MOL0     H 2168   3.243   9.263   2.717  1.0729  2.3560 -0.9678
  757MOL0     H 2169   3.043   9.040   2.648 -0.3179 -1.8590  1.3565
  757MOL0     H 2170   3.222   9.022   2.667 -0.0304 -0.6188  0.7599
  757MOL0     H 2171   3.025   9.030   2.883 -0.0149 -2.1432 -0.7052
  757MOL0     H 2172   3.154   9.155   2.898 -0.8040  0.5284  0.1524
  757MOL0     H 2173   3.194   8.855   2.845  0.5798  1.0058 -2.0471
  757MOL0     H 2174   3.327   8.974   2.865  2.1186 -2.9091 -1.6258
  757MOL0     H 2175   3.619   9.499   2.523  0.2854 -0.8630 -1.1946
  757MOL0     H 2176   3.825   9.654   2.553  2.0647 -1.7174  0.3555
  757MOL0     H 2177   4.310   9.583   2.233 -0.9755 -0.4751  0.0141
  757MOL0     H 2178   4.519   9.714   2.184 -1.2947 -0.8402 -2.5872
  757MOL0     H 2179   6.234  10.369   2.299  1.1931  0.7393 -0.9041
  757MOL0     H 2180   6.469  10.405   2.270 -0.1015 -0.6968 -1.9570
  757MOL0     H 2181   6.861  10.376   2.244 -0.1936  2.8444  1.1558
  757MOL0     H 2182   7.086  10.440   2.213 -2.2189 -0.5506 -0.6663
  757MOL0     H 2183   7.249  10.574   2.282  0.1628  0.2877 -0.5328
  757MOL0     H 2184   7.329  10.442   2.198 -1.0055  1.4377 -0.1729
  757MOL0     H 2185   7.496  10.634   2.237  1.3140  1.3389  1.3239
  757MOL0     H 2186   7.539  10.490   2.343 -0.7438 -1.1609  0.5065
  757MOL0     H 2187   7.404  10.611   2.533  1.0735  1.1220  0.6452
  757MOL0     H 2188   7.365  10.733   2.419 -0.3366 -0.5254  1.7978
  757MOL0     H 2189   7.616  10.803   2.417  1.0558  3.2010  2.8034
  757MOL0     H 2190   7.546  10.810   2.575 -1.9623 -1.8342  1.5387
  757MOL0     H 2191   7.758  10.479   2.681  0.6020  0.0384 -0.0033
  757MOL0     H 2192   7.195  10.308   2.597  1.1716  2.3438 -0.9925
  757MOL0     H 2193   7.045  10.265   2.752  0.3039  1.1237 -1.5449
  757MOL0     H 2194   6.877  10.247   2.740  0.3308  3.9805 -2.3379
  757MOL0     H 2195   6.972  10.108   2.681 -0.1615 -0.6748  0.6304
  758MOL0     O 2196   0.869   8.495   6.668  0.5310 -0.3072 -0.2737
  758MOL0     C 2197   0.819   8.421   6.751  0.0328  0.1612  0.0140
  758MOL0     O 2198   0.882   8.319   6.811  0.7541  0.0573  0.4375
  758MOL0     C 2199   1.003   8.288   6.756 -0.5222 -0.1990  0.0879
  758MOL0     C 2200   1.124   8.339   6.812  0.5589  0.0203 -0.0570
  758MOL0     C 2201   1.251   8.304   6.757  1.0332 -0.3933  0.0622
  758MOL0     C 2202   1.246   8.220   6.645 -0.7427  0.5798 -0.1314
  758MOL0     O 2203   1.371   8.196   6.601 -0.2271  0.1907  0.1132
  758MOL0     C 2204   1.385   8.077   6.519  0.0418  0.4752 -0.2852
  758MOL0     C 2205   1.412   8.129   6.379  0.5102  0.0418  0.2489
  758MOL0     C 2206   1.457   8.006   6.298  0.2417 -0.6032 -0.4037
  758MOL0     C 2207   1.602   7.998   6.300 -0.8732 -0.1301  0.2296
  758MOL0     C 2208   1.662   7.875   6.225 -0.5877  0.0899 -0.7088
  758MOL0     C 2209   1.822   7.899   6.204 -0.1888  0.3649  0.1069
  758MOL0     C 2210   1.887   7.766   6.136  0.3353  0.6001  0.0841
  758MOL0     C 2211   1.836   7.732   5.990 -0.3311 -0.1177 -0.0561
  758MOL0     N 2212   1.827   7.837   5.889  0.1425  0.0112  0.2073
  758MOL0     C 2213   1.923   7.903   5.822 -0.7795 -0.0831 -0.1634
  758MOL0     C 2214   1.850   7.978   5.732  0.0732 -1.1769 -0.4903
  758MOL0     C 2215   1.921   8.075   5.645  0.5990  0.5862  0.3103
  758MOL0     C 2216   1.997   8.000   5.535 -1.0985  1.0503 -0.2885
  758MOL0     C 2217   2.033   8.089   5.411  0.6068  0.6139 -0.3696
  758MOL0     C 2218   2.124   8.206   5.454  0.2898 -0.0807  0.9546
  758MOL0     O 2219   2.047   8.315   5.498 -0.1508  0.4207  0.7237
  758MOL0     C 2220   2.127   8.432   5.492 -0.9967  0.4185  0.3550
  758MOL0     C 2221   2.202   8.479   5.379 -0.4748  1.0648 -0.6610
  758MOL0     C 2222   2.294   8.582   5.387 -0.4543  0.1100 -0.5136
  758MOL0     C 2223   2.317   8.647   5.507 -1.0234  0.3537 -0.7838
  758MOL0     C 2224   2.422   8.750   5.514 -0.1332 -0.3609 -0.6905
  758MOL0     O 2225   2.436   8.830   5.631  0.2372  0.2547  0.2274
  758MOL0     C 2226   2.556   8.890   5.656 -1.5000 -0.0169 -1.3885
  758MOL0     C 2227   2.559   9.034   5.668  0.3785  0.2888 -0.9095
  758MOL0     C 2228   2.675   9.098   5.710 -1.1370 -0.2818  0.6483
  758MOL0     C 2229   2.791   9.021   5.743 -0.2584 -0.4791 -0.0402
  758MOL0     O 2230   2.904   9.082   5.791 -0.1180  0.5959  1.1603
  758MOL0     C 2231   2.925   9.223   5.821 -0.8602  0.3954 -0.5956
  758MOL0     C 2232   2.989   9.299   5.710 -0.0555  0.0349  0.3170
  758MOL0     C 2233   3.075   9.407   5.773  0.3873  0.0569 -0.0907
  758MOL0     C 2234   3.097   9.514   5.668  0.4559  0.3566  0.4319
  758MOL0     C 2235   3.187   9.617   5.731  0.1728 -0.8564  0.5567
  758MOL0     C 2236   3.139   9.685   5.863  1.2237 -0.4196 -0.0343
  758MOL0     C 2237   3.005   9.770   5.848 -0.5933  0.3402  0.1319
  758MOL0     C 2238   3.013   9.908   5.927 -0.2055  0.8369  0.1229
  758MOL0    Cl 2239   3.055   9.874   6.107 -0.2758  0.1581 -0.2429
  758MOL0     C 2240   2.787   8.880   5.737 -0.2405  0.1157  0.4141
  758MOL0     C 2241   2.667   8.816   5.694  0.1430  0.0786 -1.0754
  758MOL0     O 2242   2.509   8.736   5.425 -0.0093 -0.4635  0.0506
  758MOL0     C 2243   2.254   8.603   5.623  0.5679  0.0167 -0.2164
  758MOL0     C 2244   2.154   8.504   5.611  1.0280  0.1447  0.1420
  758MOL0     N 2245   1.726   7.935   5.718  0.3572 -0.1489  0.4982
  758MOL0     N 2246   1.709   7.863   5.821 -0.3290 -0.2965 -0.4950
  758MOL0     C 2247   1.126   8.175   6.580  0.9585 -0.3413 -0.6844
  758MOL0     C 2248   1.004   8.211   6.641  0.2748  0.2835 -0.2144
  758MOL0     C 2249   0.673   8.448   6.773 -0.0609  0.2244 -0.1965
  758MOL0     C 2250   0.594   8.465   6.659 -0.1752 -0.6388 -0.2296
  758MOL0     C 2251   0.454   8.482   6.669  0.1443  0.2986 -0.0790
  758MOL0     C 2252   0.395   8.490   6.794 -0.1611  0.0992 -0.0347
  758MOL0     O 2253   0.262   8.514   6.829  0.4002  0.2657 -0.3781
  758MOL0     C 2254   0.165   8.537   6.726 -0.0104 -0.3770  0.2106
  758MOL0     C 2255   0.047   8.618   6.778  0.2279 -0.8029  0.2588
  758MOL0     C 2256  -0.051   8.539   6.865  0.6645 -0.0198  0.8062
  758MOL0     C 2257  -0.195   8.504   6.818 -0.5809  0.2397 -0.2642
  758MOL0     C 2258  -0.249   8.401   6.906 -0.4455  0.4971  0.3893
  758MOL0     C 2259  -0.300   8.313   6.971 -0.5817 -0.4589 -0.2867
  758MOL0     C 2260   0.475   8.472   6.913  0.7108  0.2401  0.2897
  758MOL0     C 2261   0.611   8.447   6.900 -0.2574  0.4688  0.1145
  758MOL0     C 2262   0.678   8.422   7.033 -0.0396  0.2354 -0.1488
  758MOL0     H 2263   1.136   8.389   6.908  1.0322  0.5138 -0.3677
  758MOL0     H 2264   1.344   8.324   6.809  0.6723  0.7001  0.3153
  758MOL0     H 2265   1.475   8.022   6.551 -0.0703  1.1889  1.3594
  758MOL0     H 2266   1.299   8.009   6.526 -1.2013  2.0958  1.2519
  758MOL0     H 2267   1.471   8.220   6.375 -0.8113  0.8946 -1.5183
  758MOL0     H 2268   1.311   8.153   6.343  1.1356  1.3408 -0.7260
  758MOL0     H 2269   1.412   8.026   6.200 -0.6942  0.8993  0.2910
  758MOL0     H 2270   1.407   7.920   6.342 -0.1352  0.7787  2.0385
  758MOL0     H 2271   1.652   8.089   6.266  0.1711 -0.3453  1.1222
  758MOL0     H 2272   1.640   7.982   6.401  2.4600  0.6698 -0.7726
  758MOL0     H 2273   1.633   7.783   6.276 -2.7519  0.8499 -0.4724
  758MOL0     H 2274   1.618   7.878   6.125 -2.0138  3.0177 -0.0984
  758MOL0     H 2275   1.842   7.987   6.142 -0.7720  1.0130  0.8089
  758MOL0     H 2276   1.876   7.916   6.298 -0.1260 -3.4303  0.9134
  758MOL0     H 2277   1.858   7.682   6.200 -0.9167  0.7623 -0.2453
  758MOL0     H 2278   1.995   7.777   6.124  0.9364 -3.2445  0.6113
  758MOL0     H 2279   1.907   7.656   5.956 -0.4567 -1.4273  2.3869
  758MOL0     H 2280   1.743   7.675   5.987  0.4408 -1.9157  4.0330
  758MOL0     H 2281   2.031   7.900   5.832 -0.4608  3.6681 -1.0136
  758MOL0     H 2282   1.844   8.136   5.597  0.6829 -0.6230 -1.4556
  758MOL0     H 2283   1.986   8.140   5.706  1.4170 -0.4053  0.5283
  758MOL0     H 2284   2.085   7.950   5.579 -0.8527  0.1867 -1.6926
  758MOL0     H 2285   1.926   7.923   5.505 -2.5595  2.4416 -0.5017
  758MOL0     H 2286   1.948   8.128   5.355 -1.8805 -1.6550  1.5159
  758MOL0     H 2287   2.075   8.020   5.337 -0.4352  0.0291 -0.4423
  758MOL0     H 2288   2.185   8.230   5.366  0.9194  0.0656  1.4212
  758MOL0     H 2289   2.197   8.174   5.529 -0.4713 -0.7305  1.4327
  758MOL0     H 2290   2.193   8.415   5.292  2.0935 -1.2774  0.6594
  758MOL0     H 2291   2.338   8.608   5.291 -0.3234  1.2099 -0.1709
  758MOL0     H 2292   2.488   9.095   5.613  2.1424  1.2033 -2.2486
  758MOL0     H 2293   2.682   9.206   5.717  2.1596 -0.3765  0.4317
  758MOL0     H 2294   2.830   9.265   5.853 -1.4486 -0.6490 -0.9471
  758MOL0     H 2295   2.993   9.232   5.907 -0.0952  0.4036 -1.1846
  758MOL0     H 2296   3.051   9.234   5.648 -1.5948  0.8434 -2.2412
  758MOL0     H 2297   2.903   9.341   5.656 -0.2938  4.6621  3.6522
  758MOL0     H 2298   3.026   9.445   5.863 -2.7997 -1.7997 -0.9079
  758MOL0     H 2299   3.173   9.362   5.796  1.9000  3.0947 -0.0673
  758MOL0     H 2300   3.004   9.568   5.647  0.0618 -0.6285 -0.4354
  758MOL0     H 2301   3.128   9.462   5.577 -0.4699  0.3132  0.1280
  758MOL0     H 2302   3.206   9.696   5.658  0.5829  1.0967  2.6637
  758MOL0     H 2303   3.280   9.561   5.749 -1.8373 -3.6061  3.5655
  758MOL0     H 2304   3.135   9.608   5.941  1.1988  3.3132  3.9988
  758MOL0     H 2305   3.216   9.757   5.891 -0.8515  1.0323  2.3669
  758MOL0     H 2306   2.922   9.705   5.878  0.4006 -0.7184  0.6904
  758MOL0     H 2307   2.998   9.799   5.743 -0.3168  1.6898  0.4665
  758MOL0     H 2308   3.098   9.963   5.886  1.3403 -0.9132  0.8015
  758MOL0     H 2309   2.917   9.956   5.911 -1.8656 -3.0041 -3.6255
  758MOL0     H 2310   2.878   8.825   5.758  1.5572  3.1830  1.2673
  758MOL0     H 2311   2.667   8.708   5.686  2.1509  0.1398 -2.7930
  758MOL0     H 2312   2.277   8.639   5.722 -1.1675  0.6419 -0.0052
  758MOL0     H 2313   2.094   8.478   5.698 -3.0784 -0.1014 -2.5069
  758MOL0     H 2314   1.129   8.100   6.501  1.7028 -2.6017  1.3824
  758MOL0     H 2315   0.913   8.166   6.601  0.4560  0.1357 -0.4640
  758MOL0     H 2316   0.645   8.476   6.564 -0.6387 -0.2676 -0.4362
  758MOL0     H 2317   0.392   8.496   6.581 -3.9824  2.7907  2.8393
  758MOL0     H 2318   0.136   8.442   6.680  1.7145 -0.6642 -0.3632
  758MOL0     H 2319   0.213   8.590   6.643  1.0506 -4.9641 -2.4630
  758MOL0     H 2320  -0.013   8.641   6.689  2.1153  0.5025 -0.7381
  758MOL0     H 2321   0.073   8.712   6.827 -0.1625 -1.4970  1.8451
  758MOL0     H 2322  -0.058   8.580   6.966  0.0368  0.8690  0.4233
  758MOL0     H 2323  -0.009   8.439   6.877  1.4617  0.4534  2.2901
  758MOL0     H 2324  -0.266   8.587   6.828 -0.4268  0.1330  2.5158
  758MOL0     H 2325  -0.190   8.464   6.716  0.3630  1.4778 -0.7306
  758MOL0     H 2326  -0.347   8.236   7.029 -0.7135 -0.8037 -0.8395
  758MOL0     H 2327   0.428   8.477   7.011 -3.7988  1.5000 -1.6702
  758MOL0     H 2328   0.668   8.318   7.067 -1.1870  1.0876  2.3741
  758MOL0     H 2329   0.786   8.443   7.032  0.0268  0.1627  1.8974
  758MOL0     H 2330   0.641   8.482   7.116 -0.6542 -2.0538  1.3245
  759MOL0     O 2331   6.298   6.891   0.186 -0.2378 -1.1894  0.2400
  759MOL0     C 2332   6.275   6.811   0.276  1.0266 -0.9288 -1.4531
  759MOL0     O 2333   6.367   6.753   0.357 -0.2486  0.0698  0.0248
  759MOL0     C 2334   6.496   6.797   0.340  0.0213 -1.2500  0.2007
  759MOL0     C 2335   6.564   6.814   0.227 -0.0859  0.2198  0.5257
  759MOL0     C 2336   6.696   6.865   0.231 -0.3271 -0.3344  0.6476
  759MOL0     C 2337   6.763   6.892   0.347  0.4747 -0.4338  0.3768
  759MOL0     O 2338   6.888   6.941   0.348  0.0871 -0.2154  0.2606
  759MOL0     C 2339   6.981   6.889   0.449  0.8208 -0.4182  0.6922
  759MOL0     C 2340   7.122   6.899   0.385  0.0606  0.2098  0.4112
  759MOL0     C 2341   7.175   7.036   0.362 -0.6017 -0.1071  0.4333
  759MOL0     C 2342   7.322   7.018   0.318 -0.5976 -0.2310  0.8359
  759MOL0     C 2343   7.382   7.150   0.260  0.5178 -0.1946  0.7389
  759MOL0     C 2344   7.524   7.121   0.215  1.0440 -0.2420  0.8198
  759MOL0     C 2345   7.577   7.233   0.120  0.0970  0.2445  0.8971
  759MOL0     C 2346   7.572   7.370   0.192  0.4880  0.3315  0.2294
  759MOL0     N 2347   7.665   7.472   0.134 -0.2443 -0.6621  0.0925
  759MOL0     C 2348   7.664   7.510   0.003  1.1172 -0.5362 -0.5216
  759MOL0     C 2349   7.759   7.595  -0.014 -0.0977 -0.2164  0.1411
  759MOL0     C 2350   7.808   7.659  -0.140 -0.3185 -0.7258 -0.0025
  759MOL0     C 2351   7.759   7.801  -0.143 -0.9818  0.4974 -0.0173
  759MOL0     C 2352   7.621   7.802  -0.197  0.2800 -0.5655  0.6375
  759MOL0     C 2353   7.563   7.951  -0.196 -0.8074 -0.6512 -0.0013
  759MOL0     O 2354   7.559   8.000  -0.328  0.7798  0.1693  0.4287
  759MOL0     C 2355   7.444   7.983  -0.404 -0.2619 -0.7028 -0.1748
  759MOL0     C 2356   7.338   7.894  -0.377 -0.1698  1.2189  0.6644
  759MOL0     C 2357   7.233   7.874  -0.471  1.1759 -0.4047 -0.6257
  759MOL0     C 2358   7.220   7.965  -0.581 -0.5850  0.0162 -0.9604
  759MOL0     C 2359   7.111   7.952  -0.683  1.3984 -0.8466 -0.2857
  759MOL0     O 2360   7.049   7.825  -0.700 -0.7173  0.5543 -0.2742
  759MOL0     C 2361   6.954   7.805  -0.791 -1.1019  0.4087  0.2898
  759MOL0     C 2362   6.828   7.789  -0.772  0.3941 -0.4631  0.7056
  759MOL0     C 2363   6.736   7.762  -0.872  0.3975 -0.9379  0.3066
  759MOL0     C 2364   6.784   7.741  -1.004  0.7572 -0.6144 -0.2596
  759MOL0     O 2365   6.708   7.742  -1.117  0.5061  0.2613  0.3781
  759MOL0     C 2366   6.569   7.708  -1.096 -0.0592 -0.5797  0.6063
  759MOL0     C 2367   6.516   7.721  -1.241  0.6942  0.0872  0.0051
  759MOL0     C 2368   6.507   7.867  -1.291 -1.0199 -0.3721 -0.9381
  759MOL0     C 2369   6.369   7.929  -1.299  0.4691  0.1865  0.5448
  759MOL0     C 2370   6.369   8.051  -1.389  0.7051  0.7287 -0.3161
  759MOL0     C 2371   6.230   8.115  -1.412 -0.0058 -0.6565 -0.3940
  759MOL0     C 2372   6.163   8.166  -1.288 -0.7903  0.5935  0.1671
  759MOL0     C 2373   6.043   8.241  -1.308 -0.3828 -0.3571 -0.4596
  759MOL0    Cl 2374   5.913   8.126  -1.328  0.3296 -0.2401 -0.4673
  759MOL0     C 2375   6.928   7.745  -1.017  0.9097 -0.2661 -0.1650
  759MOL0     C 2376   7.011   7.783  -0.913  0.0319  0.3040 -0.2895
  759MOL0     O 2377   7.079   8.057  -0.739 -0.6022 -0.1981 -0.1310
  759MOL0     C 2378   7.325   8.053  -0.605  0.0724  0.3504  0.1988
  759MOL0     C 2379   7.434   8.055  -0.529  0.0006  0.3279 -0.6296
  759MOL0     N 2380   7.830   7.600   0.108 -0.0085 -0.0550  0.1041
  759MOL0     N 2381   7.776   7.530   0.200  0.9654 -0.3825  0.5219
  759MOL0     C 2382   6.688   6.867   0.463 -0.2913  0.3429 -0.0512
  759MOL0     C 2383   6.553   6.835   0.459  0.7349 -0.5060  0.0640
  759MOL0     C 2384   6.131   6.780   0.312  0.4511 -0.4264  0.8328
  759MOL0     C 2385   6.025   6.793   0.214  0.2432 -0.0975 -0.3489
  759MOL0     C 2386   5.902   6.747   0.235 -0.7472 -0.0294  0.2952
  759MOL0     C 2387   5.857   6.691   0.351 -0.5346  1.1213 -0.1983
  759MOL0     O 2388   5.723   6.669   0.369 -0.9540 -0.2392 -0.1216
  759MOL0     C 2389   5.679   6.547   0.432  0.0896 -0.0894 -0.0491
  759MOL0     C 2390   5.534   6.510   0.387  0.2972  0.0014 -0.7328
  759MOL0     C 2391   5.525   6.495   0.237  0.0492  0.5613 -0.3193
  759MOL0     C 2392   5.586   6.370   0.165  0.8183  0.1341 -0.3208
  759MOL0     C 2393   5.732   6.360   0.174 -1.0621 -0.9685  0.4496
  759MOL0     C 2394   5.856   6.351   0.162  0.1109 -1.2038 -0.8388
  759MOL0     C 2395   5.952   6.684   0.456  0.3046 -0.0039 -0.1503
  759MOL0     C 2396   6.081   6.734   0.438 -0.2460 -0.4990 -0.5443
  759MOL0     C 2397   6.159   6.711   0.564 -0.9648  0.4485  0.6393
  759MOL0     H 2398   6.528   6.787   0.128 -1.7978  1.9994  0.5964
  759MOL0     H 2399   6.747   6.885   0.137  2.3960 -0.9479  1.8971
  759MOL0     H 2400   6.958   6.949   0.538 -3.9738 -2.1066  0.8853
  759MOL0     H 2401   6.968   6.784   0.475  1.3972 -0.6256  0.1489
  759MOL0     H 2402   7.116   6.844   0.291  2.4135  0.7423 -0.0923
  759MOL0     H 2403   7.192   6.845   0.450 -0.2811  1.3979  1.8286
  759MOL0     H 2404   7.186   7.097   0.453  2.0846  0.7971 -0.3820
  759MOL0     H 2405   7.111   7.086   0.290 -0.3127  1.8195  1.4365
  759MOL0     H 2406   7.391   6.989   0.397  1.5483  1.0292 -0.4901
  759MOL0     H 2407   7.332   6.948   0.235  2.2587  3.0126 -1.8217
  759MOL0     H 2408   7.324   7.186   0.174  0.0007 -0.3330  1.0270
  759MOL0     H 2409   7.380   7.225   0.339 -1.8381  2.4853 -1.6158
  759MOL0     H 2410   7.594   7.103   0.298  3.0129  0.7736 -0.5609
  759MOL0     H 2411   7.520   7.036   0.146  2.5276 -3.0134  3.8545
  759MOL0     H 2412   7.524   7.225   0.025  1.3426 -3.1614  0.3577
  759MOL0     H 2413   7.681   7.204   0.105 -0.2185 -1.0775  1.1616
  759MOL0     H 2414   7.469   7.407   0.181  1.1333  2.2377  0.1816
  759MOL0     H 2415   7.599   7.361   0.298  0.3278 -1.0482  0.1661
  759MOL0     H 2416   7.600   7.470  -0.076  2.5459 -0.0061 -2.0034
  759MOL0     H 2417   7.916   7.670  -0.156 -0.6832  0.3418 -1.9306
  759MOL0     H 2418   7.782   7.604  -0.231 -0.1204  2.6887 -2.2738
  759MOL0     H 2419   7.759   7.842  -0.042  2.7239 -0.9396  0.7273
  759MOL0     H 2420   7.829   7.850  -0.212  0.6504 -1.9551 -0.2406
  759MOL0     H 2421   7.568   7.739  -0.124 -0.1862  1.3950  2.0712
  759MOL0     H 2422   7.618   7.758  -0.297 -0.6731 -0.8107  0.7544
  759MOL0     H 2423   7.630   8.018  -0.142 -0.1503 -0.5438 -0.9175
  759MOL0     H 2424   7.471   7.952  -0.137  0.3370  1.4984  1.8646
  759MOL0     H 2425   7.337   7.825  -0.293  0.6117  0.0904 -0.2347
  759MOL0     H 2426   7.156   7.801  -0.450 -0.5450  2.2056  3.0973
  759MOL0     H 2427   6.766   7.816  -0.687 -4.5386 -0.3943 -2.4946
  759MOL0     H 2428   6.629   7.772  -0.855  0.3231 -2.8150  1.1904
  759MOL0     H 2429   6.568   7.612  -1.044  2.1267 -0.6521  0.6339
  759MOL0     H 2430   6.524   7.785  -1.034  1.7003 -0.5415  1.9211
  759MOL0     H 2431   6.571   7.663  -1.316  2.6250  1.8467 -0.0265
  759MOL0     H 2432   6.414   7.680  -1.232  0.9448 -0.1470  2.5682
  759MOL0     H 2433   6.576   7.924  -1.229 -0.7584 -1.3694 -0.2918
  759MOL0     H 2434   6.543   7.874  -1.394  1.3115  2.7373 -0.0558
  759MOL0     H 2435   6.332   7.949  -1.198  0.3090 -1.3727  0.8083
  759MOL0     H 2436   6.296   7.862  -1.344 -0.2071 -0.5651  2.6627
  759MOL0     H 2437   6.421   8.027  -1.483 -0.6535 -0.2849 -0.8455
  759MOL0     H 2438   6.435   8.121  -1.337 -1.2350  0.4282  2.7639
  759MOL0     H 2439   6.245   8.200  -1.480 -0.8795 -0.4624 -0.3518
  759MOL0     H 2440   6.162   8.046  -1.462  0.3219 -1.6569  0.4943
  759MOL0     H 2441   6.233   8.238  -1.247 -2.3366  1.8567  0.6802
  759MOL0     H 2442   6.151   8.088  -1.212  1.5846  1.4023  1.4538
  759MOL0     H 2443   6.027   8.300  -1.217 -1.6628  0.1663 -0.9956
  759MOL0     H 2444   6.041   8.306  -1.396  0.4759  0.0584 -0.1848
  759MOL0     H 2445   6.978   7.723  -1.111  0.8422 -3.0261  0.3644
  759MOL0     H 2446   7.116   7.797  -0.935  0.0902 -1.9772 -1.8500
  759MOL0     H 2447   7.316   8.126  -0.684 -3.5618 -0.3422 -0.1853
  759MOL0     H 2448   7.510   8.125  -0.563 -0.3181  2.2341  2.2241
  759MOL0     H 2449   6.730   6.888   0.561 -0.1374 -0.3924  0.0521
  759MOL0     H 2450   6.496   6.818   0.550 -1.2479 -0.5360 -1.1220
  759MOL0     H 2451   6.050   6.819   0.112  0.5835 -0.2034 -0.2951
  759MOL0     H 2452   5.841   6.759   0.147  1.5313 -0.8567 -1.5078
  759MOL0     H 2453   5.672   6.560   0.541  0.7332 -2.1929  0.3031
  759MOL0     H 2454   5.756   6.471   0.415  1.8825  1.9810 -1.7885
  759MOL0     H 2455   5.454   6.577   0.420  0.1765 -0.4930  0.0026
  759MOL0     H 2456   5.504   6.413   0.428  2.1875  0.4157  1.7938
  759MOL0     H 2457   5.562   6.585   0.186 -1.5758  1.5274  0.1341
  759MOL0     H 2458   5.425   6.500   0.192  0.9075 -0.6791 -2.5257
  759MOL0     H 2459   5.543   6.286   0.219 -3.7313  2.6731  0.5415
  759MOL0     H 2460   5.557   6.371   0.060  0.5160  2.4413 -0.2659
  759MOL0     H 2461   5.963   6.353   0.163  0.2046 -3.3661 -1.3581
  759MOL0     H 2462   5.914   6.632   0.544 -1.2687 -3.6138 -2.6972
  759MOL0     H 2463   6.178   6.605   0.583  0.1708  0.7986  1.5791
  759MOL0     H 2464   6.258   6.756   0.560 -0.4200 -0.8263 -0.8546
  759MOL0     H 2465   6.104   6.752   0.650 -3.5803 -0.5898 -0.4348
  760MOL0     O 2466   8.646   2.284   4.874  0.0061 -0.4961 -0.4225
  760MOL0     C 2467   8.548   2.247   4.815  1.1322  0.1541 -0.0445
  760MOL0     O 2468   8.555   2.194   4.691  0.1498  0.8475 -0.1342
  760MOL0     C 2469   8.677   2.165   4.626 -0.2608 -0.2431 -0.9940
  760MOL0     C 2470   8.788   2.095   4.696  0.0950 -0.9116  0.5683
  760MOL0     C 2471   8.917   2.079   4.630 -0.5231  0.1009  0.4308
  760MOL0     C 2472   8.931   2.110   4.497  0.3029  0.1646 -0.0095
  760MOL0     O 2473   9.045   2.096   4.429 -0.5379 -0.1320 -0.2583
  760MOL0     C 2474   9.170   2.118   4.490  0.4259 -0.9200 -0.6123
  760MOL0     C 2475   9.271   2.169   4.395  0.5103 -0.3369 -0.3347
  760MOL0     C 2476   9.263   2.108   4.257  0.6840  0.5722  0.1325
  760MOL0     C 2477   9.299   1.961   4.241 -0.9330  1.2062  0.8565
  760MOL0     C 2478   9.273   1.902   4.103 -0.1195 -0.3097  0.0584
  760MOL0     C 2479   9.310   1.756   4.106  0.1140 -0.0076  0.0348
  760MOL0     C 2480   9.279   1.697   3.973  0.0176 -1.0261 -0.4776
  760MOL0     C 2481   9.277   1.544   3.987  0.5036 -0.7722 -0.5489
  760MOL0     N 2482   9.416   1.499   4.019 -1.1435  0.1359 -0.2726
  760MOL0     C 2483   9.527   1.478   3.934 -0.6809 -0.2349 -0.3841
  760MOL0     C 2484   9.633   1.464   4.022  0.2120  1.0308 -0.5100
  760MOL0     C 2485   9.782   1.444   3.998  0.2126  0.2983  0.0927
  760MOL0     C 2486   9.832   1.462   3.853 -0.4301  0.6366  0.3811
  760MOL0     C 2487   9.822   1.602   3.795 -0.1758 -0.3781 -0.5678
  760MOL0     C 2488   9.942   1.687   3.765 -0.0662  0.6460  0.3738
  760MOL0     O 2489  10.001   1.638   3.646 -0.3754  0.2032 -0.4877
  760MOL0     C 2490  10.125   1.688   3.614 -0.3597 -0.0802 -1.0362
  760MOL0     C 2491  10.202   1.786   3.691 -1.2412 -0.4320 -0.3426
  760MOL0     C 2492  10.335   1.818   3.655  1.0176 -0.2906 -0.8424
  760MOL0     C 2493  10.404   1.756   3.552 -0.6195  0.1959 -0.4246
  760MOL0     C 2494  10.548   1.766   3.523 -0.3258  0.2573  0.0414
  760MOL0     O 2495  10.634   1.839   3.608  0.1267 -0.1881 -0.0618
  760MOL0     C 2496  10.768   1.842   3.578  0.6622  0.1779 -0.2693
  760MOL0     C 2497  10.849   1.732   3.555 -0.4517  0.1346  0.2373
  760MOL0     C 2498  10.983   1.751   3.545  0.3611  0.4256 -0.3919
  760MOL0     C 2499  11.036   1.878   3.573  0.0738  0.2388 -0.3905
  760MOL0     O 2500  11.172   1.912   3.584  0.1196  0.2115  0.0400
  760MOL0     C 2501  11.267   1.809   3.559  0.1167 -0.3080 -0.6266
  760MOL0     C 2502  11.399   1.873   3.508 -0.4729 -1.0414 -0.9442
  760MOL0     C 2503  11.478   1.755   3.451 -0.3400  0.1930 -0.2955
  760MOL0     C 2504  11.628   1.741   3.490  1.2910 -0.6090 -0.1500
  760MOL0     C 2505  11.726   1.854   3.442 -0.9781 -0.3014 -0.5676
  760MOL0     C 2506  11.770   1.857   3.294 -1.0362  0.2338  0.3207
  760MOL0     C 2507  11.805   1.709   3.239  0.6391 -0.5174 -0.6847
  760MOL0     C 2508  11.902   1.722   3.129 -0.4315  0.5584 -0.2660
  760MOL0    Cl 2509  12.072   1.695   3.176 -0.0669  0.5640  0.1341
  760MOL0     C 2510  10.952   1.984   3.599 -0.6155  0.1598  0.1791
  760MOL0     C 2511  10.815   1.972   3.603 -0.3293  0.7780 -1.1879
  760MOL0     O 2512  10.587   1.686   3.442 -0.7025 -0.4658  1.0284
  760MOL0     C 2513  10.319   1.673   3.471  0.1203  0.3127 -0.2605
  760MOL0     C 2514  10.188   1.636   3.506  0.1476  0.4253 -0.0428
  760MOL0     N 2515   9.577   1.441   4.144 -0.5179 -0.0906 -0.4975
  760MOL0     N 2516   9.452   1.478   4.146 -0.3733  0.3406 -0.3515
  760MOL0     C 2517   8.824   2.173   4.434 -0.7650 -0.3156  0.3960
  760MOL0     C 2518   8.699   2.199   4.490  0.9357  0.6681  0.9085
  760MOL0     C 2519   8.413   2.282   4.863 -0.4152 -0.0407 -0.4155
  760MOL0     C 2520   8.306   2.202   4.820  0.4014  0.4380  0.0319
  760MOL0     C 2521   8.171   2.229   4.855  0.6655  0.3185  0.0678
  760MOL0     C 2522   8.149   2.331   4.954 -0.2599  0.9208 -0.6118
  760MOL0     O 2523   8.032   2.366   5.002  0.5606 -0.2611 -0.2658
  760MOL0     C 2524   7.905   2.295   4.978  0.6491 -0.2534  0.4077
  760MOL0     C 2525   7.793   2.382   5.046 -0.5960 -0.3590  0.3146
  760MOL0     C 2526   7.792   2.362   5.204 -0.3673  0.8933 -0.5902
  760MOL0     C 2527   7.691   2.463   5.272  1.0556  0.0318 -0.1690
  760MOL0     C 2528   7.554   2.418   5.250  1.0231  0.7115  1.0519
  760MOL0     C 2529   7.441   2.368   5.226 -0.2436 -0.1919  0.3703
  760MOL0     C 2530   8.259   2.406   4.998 -0.4959 -0.5916  0.4604
  760MOL0     C 2531   8.387   2.388   4.956 -0.2027  0.2965  0.7569
  760MOL0     C 2532   8.488   2.489   5.002 -0.0649  0.6279 -0.9852
  760MOL0     H 2533   8.787   2.064   4.800 -1.8482 -3.1140 -0.0353
  760MOL0     H 2534   8.994   2.025   4.683 -0.9140 -0.5006  0.3978
  760MOL0     H 2535   9.166   2.195   4.567  1.5376 -1.9119  0.4941
  760MOL0     H 2536   9.207   2.023   4.532 -1.3673 -1.0388  0.7836
  760MOL0     H 2537   9.370   2.159   4.442 -0.2540  2.5825  2.1720
  760MOL0     H 2538   9.256   2.276   4.378  3.6369  0.2399 -0.0274
  760MOL0     H 2539   9.331   2.163   4.191  0.1087  2.7390  1.2352
  760MOL0     H 2540   9.166   2.122   4.209 -0.8131 -3.0155  1.7666
  760MOL0     H 2541   9.406   1.953   4.259 -1.0569 -2.6964  0.7295
  760MOL0     H 2542   9.241   1.906   4.316 -0.6888  1.1834  1.0300
  760MOL0     H 2543   9.165   1.911   4.089 -0.3543 -2.0486  0.5326
  760MOL0     H 2544   9.323   1.950   4.018  1.0125 -1.2940  0.1456
  760MOL0     H 2545   9.418   1.750   4.121 -0.1766 -2.8959  1.6535
  760MOL0     H 2546   9.261   1.705   4.190  1.7005  0.4168  1.2643
  760MOL0     H 2547   9.357   1.724   3.902  1.3492 -0.7427  1.0503
  760MOL0     H 2548   9.187   1.736   3.928 -0.6405  0.2196  1.8030
  760MOL0     H 2549   9.204   1.517   4.064 -0.9442  0.4973 -1.4200
  760MOL0     H 2550   9.253   1.508   3.887  1.6660  1.5768 -1.7603
  760MOL0     H 2551   9.520   1.488   3.826  0.9626 -1.6230 -0.6608
  760MOL0     H 2552   9.846   1.511   4.056  0.2546  1.1940 -0.9615
  760MOL0     H 2553   9.818   1.342   4.015  1.2729  0.6528  0.0028
  760MOL0     H 2554   9.939   1.444   3.864 -0.3058  2.1360  2.1573
  760MOL0     H 2555   9.790   1.389   3.783  1.9139  1.0380 -1.6043
  760MOL0     H 2556   9.769   1.660   3.871 -0.4211  1.2725 -1.9520
  760MOL0     H 2557   9.761   1.595   3.705 -1.0990 -0.8230  0.0796
  760MOL0     H 2558  10.015   1.694   3.846 -1.0275 -0.4442  1.3543
  760MOL0     H 2559   9.901   1.788   3.763 -0.7146  0.3869  0.3079
  760MOL0     H 2560  10.156   1.838   3.774 -1.7006 -0.7892 -0.3731
  760MOL0     H 2561  10.382   1.893   3.717 -0.4763 -1.1057  1.3978
  760MOL0     H 2562  10.815   1.631   3.532  1.8584 -0.0574 -3.0820
  760MOL0     H 2563  11.045   1.663   3.530 -1.3296 -0.6976 -1.1258
  760MOL0     H 2564  11.284   1.750   3.649 -0.4524 -1.6343 -1.3452
  760MOL0     H 2565  11.234   1.736   3.484 -0.3268 -1.0310  0.2454
  760MOL0     H 2566  11.383   1.951   3.433  0.1613 -0.5998 -0.6360
  760MOL0     H 2567  11.447   1.913   3.598 -1.6978  0.7059 -1.0227
  760MOL0     H 2568  11.439   1.658   3.481  1.4017 -0.9547 -1.5655
  760MOL0     H 2569  11.460   1.751   3.343 -1.0537  1.6266 -0.2641
  760MOL0     H 2570  11.662   1.646   3.446  1.3637 -0.1805 -1.0491
  760MOL0     H 2571  11.650   1.734   3.597  0.7848  1.2569  0.1091
  760MOL0     H 2572  11.817   1.855   3.502  0.3658  3.5263 -2.3352
  760MOL0     H 2573  11.682   1.952   3.463  0.9309  0.8640 -1.7475
  760MOL0     H 2574  11.694   1.892   3.223  0.0014  0.5766 -0.6736
  760MOL0     H 2575  11.861   1.916   3.276 -1.5189  0.4301 -1.8292
  760MOL0     H 2576  11.712   1.662   3.205 -0.8189  1.0843  0.8649
  760MOL0     H 2577  11.845   1.655   3.325  1.3833 -0.0198 -0.7103
  760MOL0     H 2578  11.878   1.643   3.057 -0.5499  1.4564 -1.2359
  760MOL0     H 2579  11.889   1.824   3.090 -1.5483  1.7503  2.8693
  760MOL0     H 2580  10.995   2.083   3.607  0.3751  0.3605 -4.4685
  760MOL0     H 2581  10.754   2.056   3.631 -0.4414 -0.0623  1.2929
  760MOL0     H 2582  10.355   1.632   3.377 -1.8268 -3.4012  0.4273
  760MOL0     H 2583  10.134   1.568   3.442  2.6085 -2.3489  0.6066
  760MOL0     H 2584   8.835   2.201   4.330  1.2312 -1.6306  0.1902
  760MOL0     H 2585   8.626   2.261   4.439  2.4331 -0.5364 -3.0417
  760MOL0     H 2586   8.324   2.117   4.755  3.6094 -0.8362  2.3261
  760MOL0     H 2587   8.086   2.185   4.805  0.8510  0.0204  0.0113
  760MOL0     H 2588   7.920   2.204   5.036 -0.2133  0.5096  1.8950
  760MOL0     H 2589   7.870   2.287   4.874 -1.8097  2.2120  0.9041
  760MOL0     H 2590   7.688   2.364   5.021 -1.3377  1.8001  1.5810
  760MOL0     H 2591   7.811   2.488   5.023 -0.6339 -0.5980 -0.9079
  760MOL0     H 2592   7.892   2.385   5.241  0.5224 -1.7304 -1.1814
  760MOL0     H 2593   7.764   2.260   5.231 -1.4502  0.3554 -3.3867
  760MOL0     H 2594   7.706   2.461   5.380  1.1460  2.7423 -0.0713
  760MOL0     H 2595   7.716   2.559   5.225  3.4643 -0.8184 -0.7779
  760MOL0     H 2596   7.351   2.327   5.185  0.0380 -0.3856 -0.0617
  760MOL0     H 2597   8.222   2.486   5.061  0.6264 -0.9003  1.5340
  760MOL0     H 2598   8.442   2.582   5.037  0.7922  0.3571  1.0058
  760MOL0     H 2599   8.534   2.434   5.085  1.1223  2.7658 -0.1686
  760MOL0     H 2600   8.565   2.518   4.930  1.9813 -1.6704  0.1267
  761MOL0     O 2601   1.177   8.576   9.309 -0.1984 -0.7278  0.0950
  761MOL0     C 2602   1.142   8.661   9.387  0.2678  0.6280 -0.5149
  761MOL0     O 2603   1.216   8.766   9.422  0.7450 -0.2655  0.7443
  761MOL0     C 2604   1.336   8.799   9.367 -0.2049  0.6111 -0.4647
  761MOL0     C 2605   1.407   8.724   9.268 -0.6458  0.5082  0.5898
  761MOL0     C 2606   1.541   8.771   9.228  0.8591  0.1426 -0.4667
  761MOL0     C 2607   1.597   8.882   9.286 -0.6685  0.4646  0.5047
  761MOL0     O 2608   1.720   8.941   9.247 -0.3241  0.3465  0.4462
  761MOL0     C 2609   1.795   8.872   9.146 -0.7764  0.6372  0.7158
  761MOL0     C 2610   1.747   8.895   8.999  0.0817 -0.1636 -0.3379
  761MOL0     C 2611   1.852   8.869   8.890  0.0504  0.2524 -0.8910
  761MOL0     C 2612   1.865   8.724   8.841  1.4302 -0.3570  0.0240
  761MOL0     C 2613   1.913   8.723   8.700  0.1865  0.6974  0.0345
  761MOL0     C 2614   1.900   8.577   8.649  0.0398 -0.4883 -0.1774
  761MOL0     C 2615   1.753   8.559   8.604 -0.0815 -0.2656 -0.3077
  761MOL0     C 2616   1.717   8.411   8.571 -0.6376  0.0096 -0.5144
  761MOL0     N 2617   1.813   8.341   8.487 -0.4257 -0.5914  0.7011
  761MOL0     C 2618   1.840   8.360   8.356 -0.3053  0.0695  0.2318
  761MOL0     C 2619   1.908   8.254   8.311  0.5885  0.1012  0.1172
  761MOL0     C 2620   1.939   8.227   8.170 -0.7072  0.9816  0.2034
  761MOL0     C 2621   2.094   8.207   8.156  0.1056 -0.7814  0.6130
  761MOL0     C 2622   2.136   8.173   8.018 -0.4743 -0.6245 -0.2415
  761MOL0     C 2623   2.287   8.142   8.028 -1.0751 -0.7612 -0.5414
  761MOL0     O 2624   2.345   8.140   7.893 -0.6334 -0.0475  0.3975
  761MOL0     C 2625   2.476   8.099   7.878  1.2216  0.6266 -0.0955
  761MOL0     C 2626   2.563   8.054   7.987  0.2114 -0.7650  0.9912
  761MOL0     C 2627   2.693   8.016   7.963  0.3077  0.4793  0.7004
  761MOL0     C 2628   2.742   8.018   7.835  0.2593  0.1281  0.1853
  761MOL0     C 2629   2.884   7.991   7.814 -0.1823 -0.5314 -0.1233
  761MOL0     O 2630   2.925   7.998   7.684 -0.5279  0.4673  0.0485
  761MOL0     C 2631   3.051   7.944   7.655  0.3513  0.8987  0.4643
  761MOL0     C 2632   3.153   8.036   7.626 -0.1159  0.7159  0.4497
  761MOL0     C 2633   3.284   7.983   7.596  0.0644 -0.3976  0.2179
  761MOL0     C 2634   3.311   7.841   7.590  0.0880  0.2066 -0.4475
  761MOL0     O 2635   3.425   7.771   7.562  0.0130  0.6495 -0.3314
  761MOL0     C 2636   3.537   7.862   7.566 -0.0488  0.6755 -0.4611
  761MOL0     C 2637   3.657   7.780   7.522 -0.0627 -0.5871  0.1289
  761MOL0     C 2638   3.716   7.670   7.617  0.5602  0.4938  0.4647
  761MOL0     C 2639   3.800   7.736   7.728 -0.0032  0.4341 -1.0105
  761MOL0     C 2640   3.846   7.637   7.833  0.3464 -0.6862  0.8860
  761MOL0     C 2641   3.741   7.557   7.904  0.4315 -0.4695  0.6158
  761MOL0     C 2642   3.790   7.478   8.025 -0.3362 -0.1233  0.2414
  761MOL0     C 2643   3.706   7.348   8.039  0.0967 -0.7444 -0.4809
  761MOL0    Cl 2644   3.747   7.236   7.904 -0.4313 -0.2599  0.3371
  761MOL0     C 2645   3.194   7.761   7.615 -0.4433 -0.6650 -0.0635
  761MOL0     C 2646   3.070   7.806   7.650 -0.5605 -0.0712  0.3072
  761MOL0     O 2647   2.953   7.962   7.906 -0.4663  0.2273  0.5803
  761MOL0     C 2648   2.661   8.046   7.728  0.5757 -0.7722 -0.5423
  761MOL0     C 2649   2.527   8.093   7.750 -1.0401  0.6450  0.3777
  761MOL0     N 2650   1.923   8.165   8.413 -0.3103  0.4317  0.2024
  761MOL0     N 2651   1.865   8.218   8.517 -0.0786  0.5076 -0.8108
  761MOL0     C 2652   1.525   8.947   9.386  0.1433 -0.1533  0.5579
  761MOL0     C 2653   1.396   8.912   9.421  0.2766  0.8199 -0.0408
  761MOL0     C 2654   1.021   8.646   9.466 -0.2624 -0.3534 -0.0705
  761MOL0     C 2655   0.998   8.735   9.571 -1.1887  0.1324  0.0211
  761MOL0     C 2656   0.876   8.714   9.646 -0.3367  0.4699 -0.0904
  761MOL0     C 2657   0.792   8.609   9.628  0.2236  0.0182 -0.4608
  761MOL0     O 2658   0.675   8.596   9.699 -0.1500 -0.0022 -0.7733
  761MOL0     C 2659   0.551   8.566   9.649  0.2170 -0.2241  0.6114
  761MOL0     C 2660   0.435   8.580   9.748 -0.2150 -0.3562  0.4143
  761MOL0     C 2661   0.383   8.725   9.781  0.3533  0.6795 -0.9388
  761MOL0     C 2662   0.270   8.725   9.885 -0.1809 -0.0917  0.5073
  761MOL0     C 2663   0.135   8.677   9.845 -1.4255  0.3517  0.9089
  761MOL0     C 2664   0.026   8.631   9.821 -0.0102  0.3746  0.6477
  761MOL0     C 2665   0.816   8.521   9.527 -0.7107 -0.4325  0.0214
  761MOL0     C 2666   0.932   8.534   9.447 -0.8270 -0.0911 -0.9686
  761MOL0     C 2667   0.957   8.422   9.352  0.9679 -0.1859 -0.4697
  761MOL0     H 2668   1.369   8.631   9.226 -0.8598  1.2868 -1.0398
  761MOL0     H 2669   1.578   8.707   9.149 -1.5460 -1.2711 -0.5480
  761MOL0     H 2670   1.893   8.920   9.152 -2.7826  5.5056  0.0263
  761MOL0     H 2671   1.806   8.771   9.184 -1.3550  0.4158  0.3065
  761MOL0     H 2672   1.711   8.998   9.000  0.3856 -0.0583  0.2357
  761MOL0     H 2673   1.666   8.824   8.981 -1.4345  1.5662 -0.6622
  761MOL0     H 2674   1.939   8.906   8.945 -2.4020 -0.0151  3.5954
  761MOL0     H 2675   1.831   8.942   8.811 -3.4363 -0.8318 -1.1199
  761MOL0     H 2676   1.939   8.680   8.909  3.0694  0.9922 -0.8259
  761MOL0     H 2677   1.771   8.672   8.862  1.7247 -0.4364  1.2707
  761MOL0     H 2678   1.852   8.790   8.639 -0.7934 -0.6315 -0.5234
  761MOL0     H 2679   2.019   8.746   8.695  0.5978 -1.1705 -0.8916
  761MOL0     H 2680   1.956   8.575   8.554  0.0129  1.0657 -0.2510
  761MOL0     H 2681   1.944   8.501   8.714  1.8619  0.6641  0.0273
  761MOL0     H 2682   1.747   8.622   8.515 -1.0885 -2.2729 -1.7491
  761MOL0     H 2683   1.679   8.595   8.675 -0.8163 -0.9186 -0.7273
  761MOL0     H 2684   1.711   8.358   8.667  1.3501  1.5106  0.5388
  761MOL0     H 2685   1.617   8.410   8.527  0.2744 -0.5675 -2.7142
  761MOL0     H 2686   1.799   8.446   8.304  0.8695  2.1354  2.4709
  761MOL0     H 2687   1.888   8.136   8.137 -0.3416 -0.2716  2.8436
  761MOL0     H 2688   1.901   8.312   8.113 -1.3620  1.0796  0.7622
  761MOL0     H 2689   2.133   8.304   8.186 -3.9915  1.7015 -1.1771
  761MOL0     H 2690   2.126   8.124   8.219  0.9712 -1.4495 -0.6734
  761MOL0     H 2691   2.123   8.254   7.946 -0.8784  1.1078  1.6894
  761MOL0     H 2692   2.078   8.087   7.986 -0.0717 -0.4438 -1.4996
  761MOL0     H 2693   2.301   8.041   8.068  2.2051 -0.4756 -0.7424
  761MOL0     H 2694   2.343   8.210   8.092 -5.0148  1.6640  0.6808
  761MOL0     H 2695   2.533   8.051   8.091  0.2196  2.8624  1.2142
  761MOL0     H 2696   2.766   8.004   8.043  2.9995  2.0855 -1.3258
  761MOL0     H 2697   3.128   8.142   7.634  0.5008  0.9564 -0.5877
  761MOL0     H 2698   3.363   8.052   7.566 -4.1661  4.3096 -1.4417
  761MOL0     H 2699   3.511   7.936   7.490 -1.6071 -0.7766 -1.4145
  761MOL0     H 2700   3.555   7.899   7.668 -3.1817  0.9955  0.0681
  761MOL0     H 2701   3.631   7.735   7.426 -0.1799 -2.4557  0.9852
  761MOL0     H 2702   3.736   7.852   7.501 -1.0180  1.4704  2.9442
  761MOL0     H 2703   3.629   7.615   7.653  0.6242 -0.2780 -0.5168
  761MOL0     H 2704   3.782   7.613   7.551 -2.0795 -3.2742  0.7828
  761MOL0     H 2705   3.734   7.804   7.783 -3.8647 -1.3781 -2.9478
  761MOL0     H 2706   3.880   7.794   7.682  0.8969 -0.6599 -0.8806
  761MOL0     H 2707   3.909   7.691   7.904  0.1036 -0.9787  1.3266
  761MOL0     H 2708   3.908   7.558   7.789 -1.8751 -2.3166  0.5369
  761MOL0     H 2709   3.663   7.630   7.929 -1.2211 -1.5627 -1.1226
  761MOL0     H 2710   3.693   7.487   7.835  0.1481  0.2648  0.0449
  761MOL0     H 2711   3.777   7.541   8.114  0.1565  0.4744 -0.1003
  761MOL0     H 2712   3.898   7.461   8.025 -0.6000 -2.2384 -1.1296
  761MOL0     H 2713   3.728   7.293   8.130 -2.2615 -1.6830 -0.4084
  761MOL0     H 2714   3.605   7.391   8.033  0.8359  1.0877 -0.2246
  761MOL0     H 2715   3.217   7.655   7.614  2.8051 -0.1847  3.1181
  761MOL0     H 2716   2.994   7.742   7.692  0.4393 -1.8836 -0.5311
  761MOL0     H 2717   2.693   8.040   7.624 -0.7965  0.0626 -1.0373
  761MOL0     H 2718   2.471   8.125   7.663 -0.5918 -0.6608 -0.4274
  761MOL0     H 2719   1.572   9.039   9.418  0.9719  1.6954 -4.8943
  761MOL0     H 2720   1.342   8.970   9.495  0.2356  0.1409  0.4722
  761MOL0     H 2721   1.071   8.812   9.593 -1.9639  0.2764  2.3237
  761MOL0     H 2722   0.853   8.784   9.725  4.6997  1.7028  0.6515
  761MOL0     H 2723   0.561   8.464   9.612  1.0112 -0.3372  1.1321
  761MOL0     H 2724   0.537   8.629   9.560 -1.4385 -2.2363 -0.6443
  761MOL0     H 2725   0.460   8.532   9.843  1.7715  0.8792  0.5676
  761MOL0     H 2726   0.349   8.528   9.705  1.2913 -1.3032 -1.6063
  761MOL0     H 2727   0.352   8.774   9.688  0.5626 -1.9751 -2.5234
  761MOL0     H 2728   0.467   8.780   9.824  0.1406 -0.4665  1.0851
  761MOL0     H 2729   0.290   8.670   9.978 -1.5324 -1.4213  0.0368
  761MOL0     H 2730   0.261   8.832   9.908  0.4756  0.3969 -1.3391
  761MOL0     H 2731  -0.074   8.596   9.805  1.5504 -4.7148  0.2846
  761MOL0     H 2732   0.754   8.434   9.507 -0.7300  0.5594 -5.9574
  761MOL0     H 2733   1.034   8.357   9.395 -1.9731 -1.6481  3.0992
  761MOL0     H 2734   0.876   8.348   9.356 -1.0019  1.9079 -0.0664
  761MOL0     H 2735   0.965   8.456   9.248 -0.5992  1.1985 -0.1785
  762MOL0     O 2736   6.753   0.548   2.017  0.2468  0.3626 -0.0362
  762MOL0     C 2737   6.719   0.458   2.094  0.1549  0.0411  0.5075
  762MOL0     O 2738   6.800   0.391   2.180 -0.0290 -0.5766 -0.0909
  762MOL0     C 2739   6.918   0.435   2.226  0.3314  0.5668  0.1916
  762MOL0     C 2740   6.990   0.561   2.193 -0.3990  1.1437 -0.2024
  762MOL0     C 2741   7.116   0.581   2.239 -0.8060 -0.4944 -0.0046
  762MOL0     C 2742   7.186   0.480   2.315  0.2545 -0.0800  0.2008
  762MOL0     O 2743   7.320   0.477   2.345 -0.0714 -0.7624  0.0396
  762MOL0     C 2744   7.401   0.583   2.288  0.7737  0.5257  0.7185
  762MOL0     C 2745   7.384   0.727   2.352  0.4989 -0.3131 -0.6512
  762MOL0     C 2746   7.442   0.840   2.268  0.1714  0.1064 -0.5370
  762MOL0     C 2747   7.601   0.823   2.267  0.6832  0.4739 -0.0352
  762MOL0     C 2748   7.668   0.949   2.206  0.5241 -0.9913  0.2162
  762MOL0     C 2749   7.812   0.924   2.193  0.2695  0.1045 -0.0968
  762MOL0     C 2750   7.874   1.035   2.099  0.1531  0.4918  0.2037
  762MOL0     C 2751   8.019   1.001   2.052 -0.2493  0.9212 -0.5520
  762MOL0     N 2752   8.110   0.986   2.169  0.3175 -0.5315  0.2914
  762MOL0     C 2753   8.149   1.080   2.267 -0.4955 -0.0678 -0.2700
  762MOL0     C 2754   8.261   1.021   2.327 -0.3712 -0.2545  1.1367
  762MOL0     C 2755   8.343   1.076   2.434  0.1576 -0.1265  0.7254
  762MOL0     C 2756   8.435   1.185   2.384  0.1191 -0.5519 -0.0334
  762MOL0     C 2757   8.552   1.217   2.483 -0.3927  0.0683  0.2791
  762MOL0     C 2758   8.657   1.303   2.411 -0.1909  0.3135 -0.0497
  762MOL0     O 2759   8.727   1.218   2.315  0.7415  0.5274 -0.3082
  762MOL0     C 2760   8.835   1.262   2.243  0.2929  0.3382  0.5305
  762MOL0     C 2761   8.898   1.173   2.158  0.8250 -0.0787 -0.6514
  762MOL0     C 2762   9.004   1.214   2.077 -0.2700 -0.2433  0.3472
  762MOL0     C 2763   9.058   1.348   2.095  1.1093  0.0752 -0.7165
  762MOL0     C 2764   9.174   1.385   2.016  1.0669  0.9281  0.8716
  762MOL0     O 2765   9.201   1.512   2.009  0.0903 -0.1767 -0.3669
  762MOL0     C 2766   9.306   1.567   1.941  0.7482  0.4015  0.8434
  762MOL0     C 2767   9.380   1.502   1.846  1.3750  0.2919  0.0770
  762MOL0     C 2768   9.486   1.569   1.779 -0.7378  0.0501 -0.5629
  762MOL0     C 2769   9.511   1.700   1.803 -0.4880 -0.6221 -0.4702
  762MOL0     O 2770   9.612   1.752   1.739 -0.6392  0.0514  0.1950
  762MOL0     C 2771   9.693   1.847   1.823  0.7248 -0.2705 -0.3099
  762MOL0     C 2772   9.804   1.891   1.731  1.0924  0.4792  0.9145
  762MOL0     C 2773   9.892   1.996   1.804 -0.4887 -0.1730  0.6457
  762MOL0     C 2774  10.012   2.029   1.715 -0.1743 -0.3864 -0.6422
  762MOL0     C 2775  10.137   1.965   1.778 -0.3351  0.8145 -0.0896
  762MOL0     C 2776  10.248   1.992   1.683 -0.0356  0.3738  0.0673
  762MOL0     C 2777  10.371   1.946   1.761 -0.7568 -0.3077 -0.4996
  762MOL0     C 2778  10.495   1.914   1.680 -0.2223  0.2007  0.4062
  762MOL0    Cl 2779  10.648   1.938   1.765  0.1371  0.0135 -0.0440
  762MOL0     C 2780   9.433   1.768   1.898 -0.1833  0.1036  0.3175
  762MOL0     C 2781   9.327   1.704   1.966 -0.0259  0.3094  0.8655
  762MOL0     O 2782   9.237   1.288   1.963 -0.3785 -0.0925 -0.6849
  762MOL0     C 2783   8.986   1.436   2.177 -0.5761  0.6049 -0.1777
  762MOL0     C 2784   8.874   1.397   2.245  0.2102 -0.1695 -0.1402
  762MOL0     N 2785   8.277   0.896   2.272  0.8115  0.6635  0.5646
  762MOL0     N 2786   8.197   0.881   2.170 -0.0847 -0.1900 -0.4585
  762MOL0     C 2787   7.112   0.362   2.354  1.0419 -0.8715 -0.0397
  762MOL0     C 2788   6.989   0.336   2.306  0.4047  0.2617  0.0193
  762MOL0     C 2789   6.579   0.405   2.087  0.2730  0.2959 -0.2552
  762MOL0     C 2790   6.541   0.288   2.153  0.1575  0.5981  0.2103
  762MOL0     C 2791   6.410   0.234   2.148  0.0421 -1.0425  0.0821
  762MOL0     C 2792   6.310   0.296   2.066 -0.6456 -0.9790 -0.2068
  762MOL0     O 2793   6.185   0.261   2.059 -0.2384 -0.3333 -0.0679
  762MOL0     C 2794   6.131   0.160   2.147 -0.8306 -0.3774 -0.0684
  762MOL0     C 2795   6.109   0.040   2.063  0.4814 -0.1818 -0.2893
  762MOL0     C 2796   5.991   0.057   1.959 -0.9173 -0.3524 -0.3449
  762MOL0     C 2797   5.845   0.060   2.013 -0.0615 -0.7526 -0.5444
  762MOL0     C 2798   5.822  -0.067   2.079  0.5840 -0.5831 -0.2942
  762MOL0     C 2799   5.785  -0.179   2.120 -0.0480 -0.3242  0.1981
  762MOL0     C 2800   6.354   0.410   2.003 -0.6225  0.2300  1.1831
  762MOL0     C 2801   6.480   0.467   2.004 -0.0277  0.3922  0.6606
  762MOL0     C 2802   6.487   0.593   1.917  0.9939  1.0644  0.0169
  762MOL0     H 2803   6.940   0.635   2.132 -0.2708  2.8217  1.6507
  762MOL0     H 2804   7.181   0.655   2.194  0.5905 -2.3769 -1.2307
  762MOL0     H 2805   7.503   0.565   2.324  1.2185  1.4707 -0.0322
  762MOL0     H 2806   7.414   0.588   2.179 -0.5694  0.1244  0.5208
  762MOL0     H 2807   7.439   0.718   2.446 -1.4249  0.2543  0.5822
  762MOL0     H 2808   7.280   0.745   2.380  1.2031  0.6624  1.5662
  762MOL0     H 2809   7.416   0.940   2.305 -2.6551 -0.4587 -0.7645
  762MOL0     H 2810   7.401   0.827   2.167 -0.0184 -2.0353 -0.2310
  762MOL0     H 2811   7.632   0.826   2.372 -0.1743  1.3042  0.2173
  762MOL0     H 2812   7.622   0.730   2.214 -2.6874 -1.4941  1.7475
  762MOL0     H 2813   7.607   0.971   2.118 -3.6326 -2.7583  2.3572
  762MOL0     H 2814   7.657   1.030   2.278 -0.1639 -1.0940  0.2334
  762MOL0     H 2815   7.863   0.924   2.289  2.6237  0.3050 -1.2631
  762MOL0     H 2816   7.821   0.828   2.140  0.8703  1.1881 -2.1001
  762MOL0     H 2817   7.870   1.133   2.148  3.5425  0.4868  0.7252
  762MOL0     H 2818   7.812   1.049   2.011  1.0929 -0.2647 -0.6015
  762MOL0     H 2819   8.027   0.906   1.998 -2.0173  0.3622  0.0618
  762MOL0     H 2820   8.061   1.079   1.990 -0.2090 -0.3938 -2.2478
  762MOL0     H 2821   8.113   1.181   2.283 -0.1623  0.1391 -0.7607
  762MOL0     H 2822   8.274   1.110   2.512 -1.0240  1.0256 -0.7701
  762MOL0     H 2823   8.394   1.005   2.500 -2.1766 -2.8780 -0.1855
  762MOL0     H 2824   8.487   1.136   2.301  0.4276 -0.0412 -0.1456
  762MOL0     H 2825   8.383   1.276   2.351  0.0421 -0.2567  0.8939
  762MOL0     H 2826   8.599   1.124   2.515  1.6251  1.4511  1.5476
  762MOL0     H 2827   8.505   1.271   2.566  1.4907  2.1446  0.0860
  762MOL0     H 2828   8.727   1.341   2.486 -1.0196 -0.9824  1.4632
  762MOL0     H 2829   8.612   1.393   2.368  1.7200  2.1878  1.6673
  762MOL0     H 2830   8.866   1.069   2.158  0.1179  0.0839 -2.5058
  762MOL0     H 2831   9.051   1.150   2.002 -1.3129 -1.1176  0.3990
  762MOL0     H 2832   9.362   1.405   1.799 -0.9572  1.3969 -1.5347
  762MOL0     H 2833   9.546   1.521   1.703 -2.0014 -0.1712 -1.4597
  762MOL0     H 2834   9.637   1.938   1.847  1.4937  0.4232 -1.0493
  762MOL0     H 2835   9.729   1.799   1.914 -1.5423 -0.6806  0.4326
  762MOL0     H 2836   9.854   1.795   1.717 -2.3240 -1.3905  0.1899
  762MOL0     H 2837   9.761   1.926   1.637 -0.5426 -0.5524  1.2234
  762MOL0     H 2838   9.836   2.091   1.808 -0.4963  0.0114 -1.9461
  762MOL0     H 2839   9.932   1.971   1.902 -0.3208 -0.7327  0.4366
  762MOL0     H 2840  10.029   2.137   1.719  0.8729 -0.5569  2.1793
  762MOL0     H 2841   9.998   1.986   1.616 -0.6073  3.3085 -2.3608
  762MOL0     H 2842  10.130   1.855   1.779  0.8184  0.6394  3.3824
  762MOL0     H 2843  10.149   2.004   1.880 -3.9968  0.9903  0.4099
  762MOL0     H 2844  10.241   1.930   1.593  0.7920  0.3770 -0.0113
  762MOL0     H 2845  10.248   2.098   1.659 -2.1329  0.2015 -0.8446
  762MOL0     H 2846  10.355   1.851   1.814 -3.2307  0.2135 -0.2032
  762MOL0     H 2847  10.390   2.031   1.827  0.1182 -2.7394  2.6269
  762MOL0     H 2848  10.476   1.817   1.634 -2.1606  1.6625 -2.1046
  762MOL0     H 2849  10.493   1.983   1.595 -1.7074 -0.4423 -0.1128
  762MOL0     H 2850   9.449   1.875   1.895 -2.0435  0.4271  0.6477
  762MOL0     H 2851   9.263   1.762   2.032 -1.3481  1.9304 -1.6567
  762MOL0     H 2852   9.034   1.534   2.174 -1.2714  0.9475 -0.6090
  762MOL0     H 2853   8.836   1.469   2.317 -0.6805 -0.8065  0.0335
  762MOL0     H 2854   7.151   0.279   2.413  0.7987  0.1544  1.6478
  762MOL0     H 2855   6.954   0.237   2.335  0.8382 -0.0154 -0.3648
  762MOL0     H 2856   6.615   0.237   2.213 -0.0393 -1.5664 -1.2931
  762MOL0     H 2857   6.396   0.146   2.210  0.4464 -0.5923  0.8261
  762MOL0     H 2858   6.045   0.191   2.206  1.2821  2.3493  1.8286
  762MOL0     H 2859   6.193   0.120   2.228 -1.3085 -0.8982  0.0497
  762MOL0     H 2860   6.077  -0.047   2.122 -0.1562  0.2450  0.0025
  762MOL0     H 2861   6.201   0.009   2.013  0.7969 -2.2518  1.4048
  762MOL0     H 2862   6.011  -0.021   1.886 -0.1976 -0.1706 -0.3573
  762MOL0     H 2863   6.000   0.152   1.906 -1.2626  0.3000  0.7268
  762MOL0     H 2864   5.830   0.147   2.078 -2.4498 -0.9308 -0.7681
  762MOL0     H 2865   5.767   0.065   1.936 -2.5513  0.3312  1.8572
  762MOL0     H 2866   5.750  -0.274   2.155  2.5096 -0.7030  2.0228
  762MOL0     H 2867   6.288   0.464   1.935  0.6349  0.0932 -0.2087
  762MOL0     H 2868   6.533   0.590   1.818 -1.9175 -0.3028 -1.4021
  762MOL0     H 2869   6.392   0.646   1.905 -0.2404 -0.7469  1.1402
  762MOL0     H 2870   6.549   0.661   1.977  1.4592  0.3471  0.3637
  763MOL0     O 2871   4.269   7.342   8.699 -0.3889  0.6606  0.7363
  763MOL0     C 2872   4.229   7.409   8.605  1.0125 -1.1371  0.3207
  763MOL0     O 2873   4.269   7.536   8.581 -0.3786 -0.5333  0.3404
  763MOL0     C 2874   4.334   7.622   8.661 -0.3460  0.0574  0.3619
  763MOL0     C 2875   4.437   7.698   8.598 -1.2810 -0.6110  0.0377
  763MOL0     C 2876   4.512   7.789   8.676  0.4148  0.6684  0.1349
  763MOL0     C 2877   4.486   7.797   8.813 -0.4515 -0.5041  0.1583
  763MOL0     O 2878   4.573   7.876   8.882  0.6086  0.2697 -0.1794
  763MOL0     C 2879   4.557   7.883   9.025 -0.7179 -0.3949  0.7157
  763MOL0     C 2880   4.695   7.938   9.088 -0.0012  0.1744 -0.0301
  763MOL0     C 2881   4.693   7.942   9.248  0.8125 -0.5225  1.1442
  763MOL0     C 2882   4.832   7.998   9.308  0.8955  0.2070  0.3701
  763MOL0     C 2883   4.933   7.880   9.314 -0.1432  0.1980 -0.0519
  763MOL0     C 2884   5.078   7.940   9.329 -0.1740  0.9317  0.5617
  763MOL0     C 2885   5.161   7.818   9.352 -1.0169  0.2165  0.7153
  763MOL0     C 2886   5.305   7.854   9.393 -0.1064 -0.1104 -0.4817
  763MOL0     N 2887   5.374   7.727   9.430 -0.0441 -0.1873  0.7010
  763MOL0     C 2888   5.491   7.686   9.364 -0.1656 -0.1949  0.5738
  763MOL0     C 2889   5.547   7.596   9.443  0.3392  1.2212  1.0798
  763MOL0     C 2890   5.672   7.519   9.388  0.1286 -0.4088  0.7098
  763MOL0     C 2891   5.796   7.527   9.483 -0.1200  0.4178  0.2951
  763MOL0     C 2892   5.915   7.445   9.420 -1.2417  0.2760 -0.6191
  763MOL0     C 2893   6.039   7.464   9.512  0.3373 -0.5177  0.2681
  763MOL0     O 2894   6.131   7.371   9.450 -0.0653 -0.2119 -0.0948
  763MOL0     C 2895   6.239   7.328   9.525 -0.9521  0.3082 -0.1225
  763MOL0     C 2896   6.352   7.290   9.449 -0.5882 -0.5344  0.2460
  763MOL0     C 2897   6.477   7.261   9.502  0.8464 -0.2468 -0.3944
  763MOL0     C 2898   6.490   7.277   9.639  0.1730 -0.4734 -0.4276
  763MOL0     C 2899   6.623   7.251   9.699 -0.2875  0.3875  0.0422
  763MOL0     O 2900   6.636   7.284   9.829  0.1495 -0.0727 -1.2012
  763MOL0     C 2901   6.764   7.280   9.892 -0.3295  0.7619 -0.0043
  763MOL0     C 2902   6.752   7.317  10.029 -0.0506  0.2630  0.1653
  763MOL0     C 2903   6.862   7.324  10.111  0.6371  0.7414 -0.1877
  763MOL0     C 2904   6.987   7.277  10.064 -0.6228  0.4148  1.0491
  763MOL0     O 2905   7.106   7.279  10.145 -0.1435 -0.3086  0.0067
  763MOL0     C 2906   7.135   7.412  10.172  0.1401  0.0554  0.3567
  763MOL0     C 2907   7.280   7.426  10.218 -0.5419  0.2365  0.3687
  763MOL0     C 2908   7.311   7.553  10.297  0.5108 -0.1661 -0.0305
  763MOL0     C 2909   7.345   7.669  10.201 -0.4639  0.2262  0.3621
  763MOL0     C 2910   7.379   7.786  10.291 -1.1439 -0.2845  0.3086
  763MOL0     C 2911   7.441   7.904  10.208  0.7164  0.1693  0.3586
  763MOL0     C 2912   7.502   8.013  10.296  0.3550  0.2817 -0.7593
  763MOL0     C 2913   7.420   8.150  10.281  0.4594 -0.3661  0.1541
  763MOL0    Cl 2914   7.270   8.128  10.378 -0.0529  0.0840  0.1320
  763MOL0     C 2915   6.995   7.226   9.924 -0.2457  0.3938 -0.2719
  763MOL0     C 2916   6.884   7.233   9.843 -0.0328 -0.2722  0.2527
  763MOL0     O 2917   6.709   7.198   9.630 -0.2166  0.2454 -0.5728
  763MOL0     C 2918   6.381   7.329   9.717  0.0315 -0.0988 -0.4186
  763MOL0     C 2919   6.255   7.350   9.656 -0.4783  0.4059 -0.5281
  763MOL0     N 2920   5.469   7.575   9.558 -0.3122 -0.4338 -0.5986
  763MOL0     N 2921   5.368   7.658   9.548 -0.7090  0.1163  0.3779
  763MOL0     C 2922   4.379   7.726   8.870  0.1699  1.1858 -0.0489
  763MOL0     C 2923   4.302   7.630   8.801 -0.3676 -0.0468  0.1332
  763MOL0     C 2924   4.105   7.350   8.534  0.3689 -0.0845  0.4062
  763MOL0     C 2925   4.067   7.209   8.560 -0.0491  0.0520  0.0786
  763MOL0     C 2926   3.953   7.154   8.513 -0.2839 -0.4811 -0.1337
  763MOL0     C 2927   3.874   7.233   8.429  0.5132 -0.5792  0.4098
  763MOL0     O 2928   3.750   7.188   8.391  0.1618  0.9012 -0.2319
  763MOL0     C 2929   3.640   7.191   8.490 -0.4793  0.2659 -0.1607
  763MOL0     C 2930   3.517   7.168   8.409  0.5050 -0.3137  0.2695
  763MOL0     C 2931   3.464   7.283   8.310 -0.0685  0.9623 -0.5596
  763MOL0     C 2932   3.416   7.219   8.182 -0.5706 -0.6181  0.1136
  763MOL0     C 2933   3.290   7.147   8.186  0.6597 -0.3830 -0.4906
  763MOL0     C 2934   3.187   7.095   8.205 -0.5140  0.1223 -0.7491
  763MOL0     C 2935   3.910   7.362   8.393  0.4173  0.4316  0.5777
  763MOL0     C 2936   4.028   7.424   8.438  0.3621 -0.2442 -0.7559
  763MOL0     C 2937   4.069   7.554   8.382 -0.0491 -0.9812 -0.7522
  763MOL0     H 2938   4.473   7.685   8.496  3.8325 -0.8055  1.5480
  763MOL0     H 2939   4.594   7.848   8.636 -1.2171  1.6048 -2.0548
  763MOL0     H 2940   4.463   7.935   9.047 -0.7945 -0.2297  0.0353
  763MOL0     H 2941   4.548   7.781   9.065  4.6953 -1.6921 -0.6148
  763MOL0     H 2942   4.719   8.037   9.049  3.6825 -0.4358  0.2995
  763MOL0     H 2943   4.772   7.870   9.052 -0.5675 -0.8324  0.6085
  763MOL0     H 2944   4.684   7.838   9.281  2.2698 -0.2936  2.3850
  763MOL0     H 2945   4.607   7.991   9.293  0.8835  1.2270 -0.5199
  763MOL0     H 2946   4.867   8.077   9.240 -1.0873  0.5511 -0.3512
  763MOL0     H 2947   4.809   8.046   9.403 -0.8772  2.2299 -0.9599
  763MOL0     H 2948   4.904   7.816   9.398 -3.2146  2.4794  0.8206
  763MOL0     H 2949   4.929   7.829   9.218 -0.2680 -1.4274  0.7825
  763MOL0     H 2950   5.107   7.985   9.233 -5.9452  2.0327 -1.1060
  763MOL0     H 2951   5.080   8.012   9.412 -0.3579  1.3762  0.1861
  763MOL0     H 2952   5.159   7.760   9.260  0.1032  1.5496 -0.1715
  763MOL0     H 2953   5.117   7.745   9.421 -0.6592 -0.7545 -0.0544
  763MOL0     H 2954   5.366   7.898   9.314 -0.5356 -0.5888 -1.0816
  763MOL0     H 2955   5.302   7.924   9.477  1.5142  0.7966 -1.1355
  763MOL0     H 2956   5.534   7.712   9.268 -4.0374 -2.1564 -1.9417
  763MOL0     H 2957   5.648   7.413   9.369  0.7705 -0.5908  0.8948
  763MOL0     H 2958   5.692   7.546   9.284  1.4709 -3.5725  0.0087
  763MOL0     H 2959   5.820   7.633   9.488 -1.3645  0.6949  0.6475
  763MOL0     H 2960   5.763   7.487   9.579 -1.3970  1.2818  0.2417
  763MOL0     H 2961   5.945   7.473   9.318 -1.3584 -3.3354 -1.7857
  763MOL0     H 2962   5.882   7.341   9.417  0.2812 -0.2193 -2.9506
  763MOL0     H 2963   6.017   7.441   9.616 -1.3080  0.7315  0.2308
  763MOL0     H 2964   6.068   7.570   9.504  0.0584 -0.3919  0.9268
  763MOL0     H 2965   6.346   7.294   9.341 -0.0180  0.4284  0.2406
  763MOL0     H 2966   6.557   7.213   9.446 -0.1831 -2.6345  0.0876
  763MOL0     H 2967   6.654   7.348  10.064  0.5179  2.4757 -0.0582
  763MOL0     H 2968   6.865   7.367  10.210  3.6724 -1.0519  0.6438
  763MOL0     H 2969   7.107   7.474  10.086 -0.4802 -1.8645 -0.9131
  763MOL0     H 2970   7.071   7.430  10.259 -1.3208 -2.3891 -0.1194
  763MOL0     H 2971   7.321   7.339  10.270 -0.2345 -0.9288 -1.7330
  763MOL0     H 2972   7.339   7.415  10.127  0.7380 -2.9444  1.4178
  763MOL0     H 2973   7.224   7.581  10.357  1.5287  0.6788  1.1075
  763MOL0     H 2974   7.398   7.534  10.361  1.4356  1.3608 -0.7855
  763MOL0     H 2975   7.264   7.691  10.131 -0.7905 -0.2376  0.5865
  763MOL0     H 2976   7.435   7.633  10.149 -0.2456 -0.2770  1.0743
  763MOL0     H 2977   7.452   7.756  10.367  0.9525  3.2014 -0.0925
  763MOL0     H 2978   7.287   7.817  10.341 -0.4101  1.0432  0.8826
  763MOL0     H 2979   7.514   7.857  10.141  0.5927  4.7668 -3.5212
  763MOL0     H 2980   7.367   7.950  10.142  2.3568  1.3817 -0.7050
  763MOL0     H 2981   7.601   8.039  10.258  0.1610 -1.2915 -2.5144
  763MOL0     H 2982   7.512   7.983  10.400 -3.0868 -0.2085 -0.4421
  763MOL0     H 2983   7.475   8.236  10.319  0.6225  1.4485 -3.7732
  763MOL0     H 2984   7.398   8.165  10.175 -0.4913 -1.0367  0.2390
  763MOL0     H 2985   7.088   7.183   9.888 -0.8295 -4.2336  2.8970
  763MOL0     H 2986   6.893   7.184   9.747 -0.6535 -0.5779  0.3487
  763MOL0     H 2987   6.392   7.356   9.822  1.2071 -3.4859  0.4661
  763MOL0     H 2988   6.180   7.390   9.723  0.5363  2.3068 -0.4520
  763MOL0     H 2989   4.348   7.733   8.973  1.7267 -0.6030  0.5933
  763MOL0     H 2990   4.228   7.563   8.844 -0.9099  1.2785  1.3422
  763MOL0     H 2991   4.118   7.156   8.641 -0.5620  0.1129  0.4459
  763MOL0     H 2992   3.920   7.055   8.542  0.8828 -1.1970 -1.1209
  763MOL0     H 2993   3.633   7.284   8.547  1.3037 -1.1886  2.6382
  763MOL0     H 2994   3.659   7.115   8.566 -0.5017  1.2802  0.8832
  763MOL0     H 2995   3.442   7.143   8.485  0.8792 -2.0513  0.1196
  763MOL0     H 2996   3.542   7.074   8.359  1.9107 -1.2424  2.5684
  763MOL0     H 2997   3.546   7.349   8.281 -1.8134  2.7959 -1.5433
  763MOL0     H 2998   3.389   7.350   8.351  0.2407 -0.0607  1.8178
  763MOL0     H 2999   3.395   7.300   8.112 -2.0604  0.7028  1.9822
  763MOL0     H 3000   3.490   7.148   8.142  1.1063  1.0572  0.0979
  763MOL0     H 3001   3.094   7.048   8.230  0.9739 -2.1232  0.9101
  763MOL0     H 3002   3.854   7.420   8.320  0.8124 -0.1233 -0.1829
  763MOL0     H 3003   4.176   7.550   8.359  1.0761  4.1608  2.0384
  763MOL0     H 3004   4.012   7.588   8.295 -0.2046  4.0778  1.0134
  763MOL0     H 3005   4.064   7.623   8.466  4.0343  1.0230 -1.9063
  764MOL0     O 3006   9.381   7.563   0.412 -0.0448  0.7529 -0.1978
  764MOL0     C 3007   9.379   7.617   0.304 -0.6102  0.4725 -0.5103
  764MOL0     O 3008   9.479   7.626   0.210  0.8144  0.7343 -0.6005
  764MOL0     C 3009   9.604   7.580   0.247  0.3044 -0.3678  0.5102
  764MOL0     C 3010   9.673   7.613   0.358  0.6714 -0.0054  0.0139
  764MOL0     C 3011   9.794   7.546   0.397  0.5292  0.2215 -0.4234
  764MOL0     C 3012   9.825   7.430   0.326  0.0703  0.1097  0.8197
  764MOL0     O 3013   9.906   7.325   0.364  0.1312  0.1330  0.0058
  764MOL0     C 3014   9.993   7.351   0.475  0.0264  0.5524  0.2103
  764MOL0     C 3015  10.062   7.224   0.536  0.7124  0.2561  0.2129
  764MOL0     C 3016  10.164   7.176   0.438 -0.2171  0.7177 -0.5798
  764MOL0     C 3017  10.256   7.077   0.503 -0.4441  0.1854 -0.2539
  764MOL0     C 3018  10.365   7.034   0.402  0.1724  0.7733  0.2160
  764MOL0     C 3019  10.469   6.964   0.484 -0.0129 -0.6928 -0.2994
  764MOL0     C 3020  10.562   6.872   0.391 -0.5520  0.6860 -0.3356
  764MOL0     C 3021  10.656   6.961   0.307 -0.1056  0.6509 -0.1134
  764MOL0     N 3022  10.729   6.887   0.208  0.4527  0.7628 -0.1552
  764MOL0     C 3023  10.855   6.844   0.225  0.4564 -0.3266 -0.4241
  764MOL0     C 3024  10.884   6.775   0.109  0.5141  0.2038 -0.0552
  764MOL0     C 3025  10.995   6.687   0.079 -0.4209  0.3068  0.0719
  764MOL0     C 3026  11.125   6.752   0.120  0.0558  0.3563  0.4212
  764MOL0     C 3027  11.241   6.658   0.084 -0.0875  0.0595 -0.1754
  764MOL0     C 3028  11.375   6.730   0.116 -0.2686  0.7171  1.0879
  764MOL0     O 3029  11.481   6.633   0.093  1.0573  0.6593  0.1455
  764MOL0     C 3030  11.602   6.649   0.165  0.9746  0.0002  0.7314
  764MOL0     C 3031  11.681   6.540   0.191 -0.1623 -0.1184  0.1411
  764MOL0     C 3032  11.790   6.563   0.273 -0.1661  0.4201 -0.6697
  764MOL0     C 3033  11.834   6.690   0.311 -0.6633 -0.1117  0.1816
  764MOL0     C 3034  11.950   6.715   0.395 -1.0490 -1.3146 -0.3014
  764MOL0     O 3035  12.042   6.610   0.413  0.6511  0.1951 -0.1388
  764MOL0     C 3036  12.145   6.627   0.504  0.0894  0.4608  0.5869
  764MOL0     C 3037  12.115   6.657   0.634  0.1537 -0.4315  0.0746
  764MOL0     C 3038  12.221   6.680   0.717  0.7151 -0.7703 -0.8117
  764MOL0     C 3039  12.355   6.665   0.675  1.3094  0.3616  0.3081
  764MOL0     O 3040  12.462   6.700   0.752  0.0783 -0.6322 -0.6723
  764MOL0     C 3041  12.436   6.717   0.892  0.1551  0.6572  0.1272
  764MOL0     C 3042  12.560   6.765   0.964 -0.6526  0.2682  0.7602
  764MOL0     C 3043  12.569   6.701   1.101  0.1442  0.2438  0.2834
  764MOL0     C 3044  12.643   6.796   1.182 -0.2772  0.0473  0.1523
  764MOL0     C 3045  12.609   6.772   1.319  0.3469  0.0896 -0.0807
  764MOL0     C 3046  12.641   6.630   1.367  0.7703  0.3970 -0.9201
  764MOL0     C 3047  12.639   6.616   1.520 -0.4824 -1.3640 -0.9004
  764MOL0     C 3048  12.647   6.474   1.571  0.3100  0.3736  0.1531
  764MOL0    Cl 3049  12.802   6.401   1.519  0.4299  0.1211 -0.0978
  764MOL0     C 3050  12.376   6.628   0.541 -0.8256 -0.2138  0.0924
  764MOL0     C 3051  12.271   6.612   0.451 -0.5589  0.6997 -0.6688
  764MOL0     O 3052  11.965   6.827   0.448  0.6721 -0.4267  0.0503
  764MOL0     C 3053  11.748   6.795   0.286  0.8259  0.2252  0.1257
  764MOL0     C 3054  11.628   6.783   0.214 -0.4424  0.2232 -0.2008
  764MOL0     N 3055  10.772   6.782   0.027 -0.4895 -0.4860  0.0087
  764MOL0     N 3056  10.680   6.852   0.085 -1.0332 -0.7364  0.7226
  764MOL0     C 3057   9.756   7.403   0.205 -0.4398 -0.6774 -0.2597
  764MOL0     C 3058   9.645   7.483   0.166 -1.2065  0.1556  0.1796
  764MOL0     C 3059   9.244   7.667   0.261  0.8265  0.2868  0.4424
  764MOL0     C 3060   9.222   7.705   0.126 -0.3417  0.0392  0.3266
  764MOL0     C 3061   9.101   7.756   0.073 -1.2471  0.2067 -0.5672
  764MOL0     C 3062   8.989   7.767   0.152  0.7407  1.0840 -0.6864
  764MOL0     O 3063   8.872   7.802   0.094 -0.0900 -0.5532 -0.0025
  764MOL0     C 3064   8.757   7.726   0.122 -0.1078 -0.6686  0.1547
  764MOL0     C 3065   8.655   7.732   0.015  0.4133  0.3465  0.3126
  764MOL0     C 3066   8.699   7.670  -0.116 -0.8683  0.3884 -0.5398
  764MOL0     C 3067   8.811   7.748  -0.202 -0.6498  0.1300  0.6466
  764MOL0     C 3068   8.769   7.756  -0.343 -0.1228  0.3609 -0.5525
  764MOL0     C 3069   8.739   7.777  -0.453 -0.4545 -0.0459  0.0108
  764MOL0     C 3070   9.004   7.724   0.284  0.5610  0.0616 -0.3118
  764MOL0     C 3071   9.125   7.683   0.345 -0.2194 -0.9191  0.3215
  764MOL0     C 3072   9.126   7.671   0.496 -0.3514  0.4909 -0.4154
  764MOL0     H 3073   9.633   7.693   0.421  1.2894 -0.0258  0.4362
  764MOL0     H 3074   9.842   7.571   0.491  0.7745 -0.0490 -0.4764
  764MOL0     H 3075  10.074   7.419   0.448  0.3118 -0.5481 -1.8888
  764MOL0     H 3076   9.939   7.391   0.562  3.7815  0.7598  2.6572
  764MOL0     H 3077   9.993   7.143   0.563  1.7587 -0.9283 -0.5491
  764MOL0     H 3078  10.107   7.258   0.630 -0.3182  1.3149  0.3444
  764MOL0     H 3079  10.227   7.258   0.400 -0.6976  0.8102 -1.1865
  764MOL0     H 3080  10.114   7.128   0.354 -2.4685  1.0106  0.5165
  764MOL0     H 3081  10.301   7.134   0.584 -0.2412 -1.7385  1.0202
  764MOL0     H 3082  10.199   6.994   0.545 -3.3650  2.3449  0.4498
  764MOL0     H 3083  10.303   6.976   0.333 -0.8077  4.8083 -2.6831
  764MOL0     H 3084  10.407   7.124   0.357 -2.0541  2.6477  1.6389
  764MOL0     H 3085  10.527   7.028   0.551 -0.2084 -0.4246 -0.3904
  764MOL0     H 3086  10.415   6.892   0.547  1.4752 -1.2568  0.3979
  764MOL0     H 3087  10.497   6.813   0.326 -2.4580 -0.1249  2.1824
  764MOL0     H 3088  10.618   6.795   0.444 -2.4737 -2.0054 -1.9442
  764MOL0     H 3089  10.595   7.029   0.247  1.3855  2.1183 -0.0277
  764MOL0     H 3090  10.714   7.030   0.369  1.5784 -2.1247  1.6301
  764MOL0     H 3091  10.916   6.872   0.311  1.6554  3.7299 -2.3473
  764MOL0     H 3092  10.982   6.595   0.137  0.7289  0.6871  0.9566
  764MOL0     H 3093  11.005   6.664  -0.028 -1.0552 -0.7521  0.2259
  764MOL0     H 3094  11.138   6.844   0.062  3.7888  1.0895  2.1628
  764MOL0     H 3095  11.127   6.797   0.219  2.5950 -0.1144  0.6555
  764MOL0     H 3096  11.236   6.623  -0.019 -2.1896 -1.3034  0.3030
  764MOL0     H 3097  11.235   6.569   0.148  1.3267  1.1796  1.6066
  764MOL0     H 3098  11.373   6.780   0.213  3.5765  2.6140  0.3594
  764MOL0     H 3099  11.393   6.809   0.042  3.1707 -1.0875 -0.2348
  764MOL0     H 3100  11.659   6.437   0.164  0.5077  0.1906 -1.6815
  764MOL0     H 3101  11.850   6.476   0.295  1.2346  0.8974 -2.3470
  764MOL0     H 3102  12.013   6.639   0.666 -0.6426 -1.3966 -2.7029
  764MOL0     H 3103  12.183   6.704   0.816  2.7078 -2.2857  0.3732
  764MOL0     H 3104  12.368   6.803   0.900  1.3392  1.7384 -0.8106
  764MOL0     H 3105  12.399   6.622   0.930  1.9479  0.5481  1.7563
  764MOL0     H 3106  12.649   6.731   0.909 -0.3818  0.8429  0.8377
  764MOL0     H 3107  12.550   6.874   0.959 -0.5488  0.4001  2.6129
  764MOL0     H 3108  12.469   6.685   1.142  1.2012  0.4220  3.2066
  764MOL0     H 3109  12.625   6.609   1.083  1.1838  1.2335 -1.7969
  764MOL0     H 3110  12.621   6.898   1.151  3.1588  0.0957 -2.6756
  764MOL0     H 3111  12.750   6.794   1.160 -0.2263  0.3402  0.3668
  764MOL0     H 3112  12.504   6.800   1.335  0.0911 -1.1711  0.5323
  764MOL0     H 3113  12.663   6.839   1.388 -0.3828  0.0708  0.5225
  764MOL0     H 3114  12.567   6.559   1.329  0.1919  0.3135  0.3095
  764MOL0     H 3115  12.740   6.600   1.331  0.9766 -1.6770  1.1170
  764MOL0     H 3116  12.546   6.668   1.544  1.6660  1.4782  2.1225
  764MOL0     H 3117  12.728   6.666   1.560 -0.8537 -2.8406  2.0806
  764MOL0     H 3118  12.653   6.479   1.680  0.9398 -0.5603  0.1695
  764MOL0     H 3119  12.569   6.407   1.533  0.9699  1.2865 -3.0724
  764MOL0     H 3120  12.482   6.629   0.516  0.0248 -2.1904  3.0341
  764MOL0     H 3121  12.291   6.589   0.347  0.3901 -1.2330 -0.1060
  764MOL0     H 3122  11.771   6.899   0.306 -1.7173  0.8032  0.3140
  764MOL0     H 3123  11.567   6.872   0.203 -1.1611 -0.2772 -0.3195
  764MOL0     H 3124   9.787   7.318   0.145  1.7972  0.7849 -1.3372
  764MOL0     H 3125   9.593   7.450   0.077  1.6697 -3.2599 -0.4847
  764MOL0     H 3126   9.302   7.689   0.055 -0.2789  2.1222 -0.1304
  764MOL0     H 3127   9.106   7.784  -0.032  0.8846  0.0917 -0.5385
  764MOL0     H 3128   8.703   7.759   0.211 -4.3872 -1.4513 -1.8594
  764MOL0     H 3129   8.791   7.623   0.132  2.0089 -0.4560 -3.1873
  764MOL0     H 3130   8.610   7.830  -0.006  2.7072  1.3965 -0.0567
  764MOL0     H 3131   8.567   7.677   0.049  0.9129  0.5329  1.9530
  764MOL0     H 3132   8.607   7.659  -0.175 -0.6825 -1.4787 -0.5368
  764MOL0     H 3133   8.736   7.570  -0.091 -1.3277  0.5467  0.8193
  764MOL0     H 3134   8.832   7.846  -0.161 -0.1385 -0.6958  2.4381
  764MOL0     H 3135   8.899   7.684  -0.192 -0.4053  0.1361 -1.1901
  764MOL0     H 3136   8.691   7.785  -0.549 -0.3836 -0.5464 -0.0695
  764MOL0     H 3137   8.914   7.718   0.344  0.2128  0.7731 -0.7479
  764MOL0     H 3138   9.036   7.714   0.542 -1.9167 -2.3174 -0.6379
  764MOL0     H 3139   9.138   7.569   0.532 -0.3775  0.1452 -1.3762
  764MOL0     H 3140   9.215   7.731   0.518 -0.3400  0.5578 -0.6433
  765MOL0     O 3141   6.093   4.406   6.270 -0.4341 -0.1771 -0.2781
  765MOL0     C 3142   6.083   4.356   6.382  0.4682  0.3384  1.2621
  765MOL0     O 3143   5.982   4.291   6.417 -0.0475  0.4271 -1.2657
  765MOL0     C 3144   5.875   4.260   6.333 -0.5575 -0.0116  0.5884
  765MOL0     C 3145   5.904   4.209   6.203  0.6911 -0.2371  0.3829
  765MOL0     C 3146   5.797   4.157   6.128 -0.8328 -0.5451 -0.4372
  765MOL0     C 3147   5.670   4.155   6.172 -0.0022  0.0383  0.1529
  765MOL0     O 3148   5.577   4.124   6.075 -0.0205  0.1603 -0.1974
  765MOL0     C 3149   5.440   4.131   6.120 -0.8141 -0.0831  0.0663
  765MOL0     C 3150   5.336   4.136   6.007  0.0969 -1.2648 -0.1017
  765MOL0     C 3151   5.318   4.002   5.942 -0.0344  0.2092 -0.1487
  765MOL0     C 3152   5.268   3.884   6.035 -0.8392  0.4407 -0.1443
  765MOL0     C 3153   5.257   3.746   5.969  0.6371 -0.8508  0.0908
  765MOL0     C 3154   5.392   3.689   5.969  0.2292 -0.2163 -0.7221
  765MOL0     C 3155   5.382   3.541   5.925 -0.3673 -0.1632  0.2317
  765MOL0     C 3156   5.348   3.516   5.779  0.6791 -0.2626  0.1256
  765MOL0     N 3157   5.373   3.376   5.740 -0.0202 -0.6097  0.7486
  765MOL0     C 3158   5.493   3.312   5.775  0.7634 -0.2743 -0.1597
  765MOL0     C 3159   5.471   3.188   5.744  0.3337  0.0580 -0.4875
  765MOL0     C 3160   5.556   3.067   5.772  0.1511 -0.2707 -0.4844
  765MOL0     C 3161   5.676   3.057   5.680 -0.4377  0.5759  0.0009
  765MOL0     C 3162   5.758   2.922   5.664 -0.1380 -0.6283  0.4967
  765MOL0     C 3163   5.900   2.954   5.621 -0.1080 -0.2037 -0.7617
  765MOL0     O 3164   5.963   2.821   5.587  0.0259  0.0177 -0.0769
  765MOL0     C 3165   6.010   2.726   5.680  0.4352  0.5681  0.2319
  765MOL0     C 3166   6.033   2.755   5.812  0.0803 -0.2238  1.3828
  765MOL0     C 3167   6.078   2.659   5.902  0.3492  0.3794  0.5217
  765MOL0     C 3168   6.102   2.522   5.857 -0.3515 -1.1859 -0.1277
  765MOL0     C 3169   6.136   2.423   5.959 -0.2392  0.7871 -0.6451
  765MOL0     O 3170   6.226   2.449   6.057 -0.1343  0.3798 -0.2187
  765MOL0     C 3171   6.232   2.381   6.179  0.6074  0.6119 -0.6454
  765MOL0     C 3172   6.352   2.337   6.223 -0.9022 -0.3081 -0.7974
  765MOL0     C 3173   6.374   2.291   6.359  0.8071 -0.6665 -0.0889
  765MOL0     C 3174   6.265   2.273   6.448  0.0791 -0.4012  0.0691
  765MOL0     O 3175   6.294   2.223   6.566 -0.2167 -0.7616 -0.1629
  765MOL0     C 3176   6.185   2.205   6.652  0.0644  0.1883  0.1815
  765MOL0     C 3177   6.231   2.168   6.795  0.0994  0.5070 -0.7145
  765MOL0     C 3178   6.322   2.051   6.813 -0.3770 -0.1882 -0.1469
  765MOL0     C 3179   6.352   2.022   6.964  0.1771  0.0944 -0.4766
  765MOL0     C 3180   6.490   2.092   7.003  1.0084 -0.4294 -0.1588
  765MOL0     C 3181   6.512   2.093   7.158 -0.1963  0.3690  0.3165
  765MOL0     C 3182   6.623   2.183   7.211  0.1094  0.1218  0.4019
  765MOL0     C 3183   6.757   2.149   7.158  0.3856 -0.1643  0.3874
  765MOL0    Cl 3184   6.887   2.228   7.251  0.3372  0.3526 -0.3843
  765MOL0     C 3185   6.137   2.305   6.396 -0.3140  0.6371 -0.0323
  765MOL0     C 3186   6.120   2.364   6.266  0.8819 -0.3752  0.4659
  765MOL0     O 3187   6.074   2.316   5.954  0.2946 -0.7167 -0.5466
  765MOL0     C 3188   6.080   2.491   5.721 -0.5988 -0.5978  0.9864
  765MOL0     C 3189   6.036   2.593   5.633 -0.4710 -1.3650 -0.4708
  765MOL0     N 3190   5.338   3.176   5.705 -0.6924 -1.0637 -0.3461
  765MOL0     N 3191   5.277   3.284   5.692  0.3336  0.0149 -0.0858
  765MOL0     C 3192   5.645   4.188   6.309  0.0121 -0.2869  0.3781
  765MOL0     C 3193   5.745   4.239   6.385 -0.3316  0.2180  0.0769
  765MOL0     C 3194   6.192   4.365   6.486 -0.4714 -0.2947  0.5397
  765MOL0     C 3195   6.319   4.384   6.432 -2.0521  0.0450 -0.2199
  765MOL0     C 3196   6.433   4.400   6.515 -0.9501  0.3184 -0.0113
  765MOL0     C 3197   6.426   4.383   6.652 -0.7398  0.5501 -0.4032
  765MOL0     O 3198   6.539   4.393   6.730 -0.1860 -0.6140 -0.5125
  765MOL0     C 3199   6.572   4.277   6.808  0.2984 -0.5835  0.1979
  765MOL0     C 3200   6.673   4.326   6.917 -0.6751 -0.1614  0.6729
  765MOL0     C 3201   6.788   4.223   6.942  0.0084 -0.1188 -0.8321
  765MOL0     C 3202   6.868   4.258   7.055  0.8078 -0.1228 -0.3502
  765MOL0     C 3203   6.966   4.150   7.075  0.2504 -0.1145 -0.8780
  765MOL0     C 3204   7.048   4.067   7.105 -0.4544 -0.9423 -0.5534
  765MOL0     C 3205   6.302   4.358   6.702  0.4168  0.0939 -0.1181
  765MOL0     C 3206   6.180   4.352   6.625  0.3387  0.9717  0.6064
  765MOL0     C 3207   6.047   4.333   6.693 -0.3295 -0.2633  0.3321
  765MOL0     H 3208   6.006   4.187   6.172  1.4707  0.1683  2.4873
  765MOL0     H 3209   5.824   4.132   6.026  0.7415 -0.8106  0.0252
  765MOL0     H 3210   5.430   4.046   6.188  3.4703 -1.1668 -0.3903
  765MOL0     H 3211   5.423   4.217   6.186  1.2467 -1.5158  2.6756
  765MOL0     H 3212   5.361   4.215   5.936 -1.7025 -0.5996 -0.0474
  765MOL0     H 3213   5.243   4.168   6.055  0.7476  1.8796 -0.6891
  765MOL0     H 3214   5.412   3.973   5.893  0.3255  0.9819  0.0738
  765MOL0     H 3215   5.248   4.009   5.859 -0.9507  0.1334  0.5990
  765MOL0     H 3216   5.331   3.869   6.123  1.8857  0.0426 -2.0325
  765MOL0     H 3217   5.165   3.905   6.064 -0.9393  1.5495 -1.2372
  765MOL0     H 3218   5.185   3.687   6.027 -2.3368 -0.1105 -2.6135
  765MOL0     H 3219   5.212   3.749   5.870  0.0409 -0.9224  0.3578
  765MOL0     H 3220   5.455   3.752   5.906  0.6877 -1.4735 -1.5609
  765MOL0     H 3221   5.447   3.691   6.064 -0.4295  0.7476 -0.3471
  765MOL0     H 3222   5.306   3.496   5.990 -2.5852  2.2904 -0.4861
  765MOL0     H 3223   5.481   3.503   5.953 -0.5144 -0.4785  0.3219
  765MOL0     H 3224   5.242   3.540   5.766  1.0085  1.3779  0.2737
  765MOL0     H 3225   5.389   3.587   5.706  0.4536 -0.5253 -0.2670
  765MOL0     H 3226   5.582   3.351   5.823  2.1792 -0.8242 -2.1731
  765MOL0     H 3227   5.574   3.056   5.880 -3.2747  2.5593  0.5643
  765MOL0     H 3228   5.489   2.985   5.744 -4.0635  2.3198  1.0197
  765MOL0     H 3229   5.658   3.107   5.584  0.6769  2.2907  0.6349
  765MOL0     H 3230   5.757   3.122   5.715 -1.3481  2.6725 -1.5181
  765MOL0     H 3231   5.696   2.878   5.586  0.4236  2.6361 -2.0582
  765MOL0     H 3232   5.751   2.861   5.754 -3.1946 -1.1935 -0.0127
  765MOL0     H 3233   5.955   2.997   5.705 -0.8212 -2.4346  0.9379
  765MOL0     H 3234   5.909   3.010   5.527  1.7093 -1.9042 -1.6953
  765MOL0     H 3235   6.034   2.859   5.843  1.0736  0.0329  0.5429
  765MOL0     H 3236   6.084   2.685   6.007  2.4612 -0.7552  0.7289
  765MOL0     H 3237   6.442   2.352   6.164 -0.5088  0.9593  0.0867
  765MOL0     H 3238   6.476   2.279   6.394  0.1399 -2.0434  1.5312
  765MOL0     H 3239   6.121   2.290   6.674 -0.5232 -0.6555  1.9524
  765MOL0     H 3240   6.120   2.127   6.610 -0.3250  0.3083  0.5638
  765MOL0     H 3241   6.266   2.260   6.844 -2.0804  1.7234 -1.3230
  765MOL0     H 3242   6.139   2.144   6.850  0.0735  1.6891 -0.2252
  765MOL0     H 3243   6.284   1.963   6.760 -2.0463  1.9631 -2.7769
  765MOL0     H 3244   6.414   2.065   6.756 -1.3435  1.3367 -1.4051
  765MOL0     H 3245   6.369   1.916   6.986 -1.1803  0.4319  2.6692
  765MOL0     H 3246   6.265   2.052   7.023 -1.5610 -2.4826 -1.5333
  765MOL0     H 3247   6.491   2.195   6.967 -0.6360 -0.8436 -1.4907
  765MOL0     H 3248   6.580   2.042   6.965  2.3548 -1.4098  3.7906
  765MOL0     H 3249   6.428   2.149   7.200  0.1328  1.1514 -0.0483
  765MOL0     H 3250   6.521   1.993   7.201 -0.8304  1.4720  3.2560
  765MOL0     H 3251   6.620   2.168   7.319 -0.5467 -0.0226  0.3708
  765MOL0     H 3252   6.601   2.287   7.189  3.2314  1.0418  1.0870
  765MOL0     H 3253   6.771   2.041   7.152  1.0017 -0.0301 -1.1971
  765MOL0     H 3254   6.770   2.192   7.059 -1.3658 -1.3013 -0.3757
  765MOL0     H 3255   6.038   2.300   6.440  0.7735  1.6217  2.7725
  765MOL0     H 3256   6.019   2.397   6.247  1.5177  2.8359  1.8783
  765MOL0     H 3257   6.091   2.387   5.690  2.4378 -0.9124  2.7586
  765MOL0     H 3258   6.020   2.572   5.528  0.7461  0.2477 -1.0218
  765MOL0     H 3259   5.550   4.168   6.357 -0.4284 -1.1992 -0.8119
  765MOL0     H 3260   5.721   4.266   6.487 -1.3547 -1.6844  0.3785
  765MOL0     H 3261   6.335   4.398   6.325 -2.2250 -0.0601 -0.2591
  765MOL0     H 3262   6.530   4.417   6.470 -2.3169 -0.6927 -3.7495
  765MOL0     H 3263   6.615   4.204   6.738  0.7704 -1.1954  1.0952
  765MOL0     H 3264   6.482   4.240   6.858  0.2674 -0.2634  0.3783
  765MOL0     H 3265   6.631   4.356   7.013  2.3788 -1.0113  2.4140
  765MOL0     H 3266   6.720   4.415   6.874  0.4747 -0.1380  1.9195
  765MOL0     H 3267   6.850   4.226   6.852  0.1868 -0.2277 -0.7125
  765MOL0     H 3268   6.757   4.120   6.959  1.9076 -0.5135  0.6026
  765MOL0     H 3269   6.923   4.352   7.040  3.4995 -1.7873 -1.7320
  765MOL0     H 3270   6.806   4.266   7.145  2.0224 -1.4511  0.6501
  765MOL0     H 3271   7.117   3.993   7.139 -0.8902  0.4407  4.0122
  765MOL0     H 3272   6.312   4.361   6.810  0.0789  0.9194 -0.1044
  765MOL0     H 3273   6.051   4.330   6.802 -1.9540  0.3561  0.4391
  765MOL0     H 3274   5.978   4.416   6.672 -0.8337 -0.4281  1.2855
  765MOL0     H 3275   6.002   4.244   6.649 -2.5439  0.7338  0.3941
  766MOL0     O 3276   0.599   4.109   7.580  0.2816 -0.2957 -0.2235
  766MOL0     C 3277   0.615   4.031   7.483  0.0793 -0.0296  0.0992
  766MOL0     O 3278   0.712   3.934   7.469  0.3093  0.0316  0.8002
  766MOL0     C 3279   0.779   3.888   7.575 -0.0305 -0.1147 -0.6851
  766MOL0     C 3280   0.720   3.855   7.699  0.0712 -0.4093 -0.1735
  766MOL0     C 3281   0.788   3.802   7.804 -0.3345  0.7093 -0.6960
  766MOL0     C 3282   0.929   3.806   7.803 -0.0409 -0.6417 -0.0758
  766MOL0     O 3283   0.997   3.771   7.918 -0.6243 -0.0092 -0.0959
  766MOL0     C 3284   1.136   3.762   7.917 -0.4026  0.4152  0.1748
  766MOL0     C 3285   1.188   3.718   8.057 -0.0400 -0.3518  0.0514
  766MOL0     C 3286   1.339   3.690   8.059 -0.2890  0.6265 -0.3160
  766MOL0     C 3287   1.379   3.673   8.204  0.6410 -0.0830 -1.0211
  766MOL0     C 3288   1.527   3.641   8.202  0.3035 -1.4063 -0.9635
  766MOL0     C 3289   1.582   3.633   8.336  0.6017 -0.0410  0.9012
  766MOL0     C 3290   1.728   3.583   8.335 -0.0639 -0.7364 -0.3012
  766MOL0     C 3291   1.821   3.699   8.281 -0.9536  0.5245  0.0031
  766MOL0     N 3292   1.950   3.714   8.357  0.0271  0.6285 -0.2513
  766MOL0     C 3293   1.969   3.799   8.461  0.7314  0.0657 -0.6842
  766MOL0     C 3294   2.097   3.782   8.495  0.4619 -0.0952 -0.0801
  766MOL0     C 3295   2.162   3.874   8.599  0.1885  0.3169  1.0629
  766MOL0     C 3296   2.307   3.831   8.637  0.0143 -0.4618  1.0459
  766MOL0     C 3297   2.411   3.904   8.537 -0.9716 -0.0214 -0.0619
  766MOL0     C 3298   2.549   3.823   8.542  1.0084 -0.2603  0.4840
  766MOL0     O 3299   2.617   3.861   8.662  0.3118 -0.1363 -0.6275
  766MOL0     C 3300   2.747   3.816   8.687 -0.0578 -0.5537  0.6203
  766MOL0     C 3301   2.833   3.902   8.755  0.7838  0.3279 -0.7491
  766MOL0     C 3302   2.950   3.873   8.799  0.3560 -0.1313 -0.9335
  766MOL0     C 3303   3.001   3.748   8.791 -0.4130  0.9968 -0.1972
  766MOL0     C 3304   3.137   3.714   8.846  0.0326 -0.0339  0.5005
  766MOL0     O 3305   3.176   3.792   8.949 -0.3442 -0.4132  0.2672
  766MOL0     C 3306   3.294   3.758   9.011 -0.7099 -1.1546 -0.6825
  766MOL0     C 3307   3.409   3.769   8.937  0.6488  0.4417  0.2939
  766MOL0     C 3308   3.528   3.725   8.984 -0.1105 -0.1126  0.5696
  766MOL0     C 3309   3.526   3.668   9.109 -1.0346  0.7419 -0.5791
  766MOL0     O 3310   3.642   3.612   9.148 -0.6600 -0.2289 -0.0635
  766MOL0     C 3311   3.658   3.484   9.081  0.0620  0.0223 -0.0433
  766MOL0     C 3312   3.594   3.369   9.146  0.6946  0.4638 -0.4478
  766MOL0     C 3313   3.629   3.362   9.293  0.7701  0.8401 -0.4369
  766MOL0     C 3314   3.752   3.269   9.320  0.4588  0.9224 -0.9869
  766MOL0     C 3315   3.817   3.296   9.462 -0.2698 -0.1894 -0.2726
  766MOL0     C 3316   3.929   3.395   9.449  0.1576  0.8653  0.7151
  766MOL0     C 3317   4.018   3.397   9.573  0.8112  0.2419 -0.1278
  766MOL0     C 3318   4.110   3.514   9.584  0.9736  0.4290  0.2604
  766MOL0    Cl 3319   4.236   3.498   9.716  0.3103 -0.1033  0.1240
  766MOL0     C 3320   3.425   3.671   9.195 -0.0914  0.1026 -0.3653
  766MOL0     C 3321   3.304   3.724   9.147  0.4965  0.0867  0.3721
  766MOL0     O 3322   3.203   3.629   8.790  0.0106 -0.8494 -0.7869
  766MOL0     C 3323   2.919   3.654   8.722 -0.6066 -0.8314  0.0097
  766MOL0     C 3324   2.794   3.686   8.659 -0.8525 -0.4911  0.7697
  766MOL0     N 3325   2.158   3.694   8.420  0.0257  0.2438  0.0934
  766MOL0     N 3326   2.068   3.639   8.336 -0.5504 -0.1226  0.6795
  766MOL0     C 3327   0.994   3.855   7.684  0.5865  0.2961  0.6375
  766MOL0     C 3328   0.914   3.888   7.574  0.3121  0.7513  0.2183
  766MOL0     C 3329   0.504   4.043   7.381 -0.8595 -0.0223 -0.3904
  766MOL0     C 3330   0.459   3.932   7.303  0.5778  0.6930  0.0925
  766MOL0     C 3331   0.368   3.945   7.197 -0.5752 -0.4553  0.0076
  766MOL0     C 3332   0.315   4.063   7.159  0.1832 -0.0835 -0.4629
  766MOL0     O 3333   0.222   4.079   7.065  0.6630  0.0357  0.8712
  766MOL0     C 3334   0.239   4.024   6.935 -0.1440  0.4659  0.7550
  766MOL0     C 3335   0.143   4.104   6.847 -0.2938 -0.2396 -0.2708
  766MOL0     C 3336   0.116   4.054   6.703  0.6408  0.0627  0.3600
  766MOL0     C 3337   0.026   3.937   6.673  0.7352 -0.1982 -0.0210
  766MOL0     C 3338   0.037   3.930   6.529 -1.0723  0.2843  0.2314
  766MOL0     C 3339   0.039   3.921   6.409  0.1276  0.0512 -0.4738
  766MOL0     C 3340   0.352   4.171   7.235 -0.0896 -0.5472  0.2394
  766MOL0     C 3341   0.452   4.170   7.338 -0.3856  0.3719 -0.4993
  766MOL0     C 3342   0.502   4.303   7.396  0.1716  0.5453  0.0989
  766MOL0     H 3343   0.612   3.868   7.701 -0.0307 -0.7834 -1.7743
  766MOL0     H 3344   0.745   3.772   7.899  0.3313  1.3638 -0.1792
  766MOL0     H 3345   1.172   3.695   7.839 -1.5132  2.0186 -1.8188
  766MOL0     H 3346   1.172   3.861   7.890  2.1403 -0.5875 -0.3189
  766MOL0     H 3347   1.125   3.634   8.087 -0.2414  0.5253  2.3253
  766MOL0     H 3348   1.167   3.799   8.128  0.2801 -0.0365 -0.2099
  766MOL0     H 3349   1.399   3.775   8.029  0.2830  1.2514  2.3423
  766MOL0     H 3350   1.355   3.599   8.001 -2.3371  1.0056 -1.5792
  766MOL0     H 3351   1.361   3.771   8.249 -2.5833 -0.9274 -0.1995
  766MOL0     H 3352   1.316   3.597   8.252 -1.3690  2.2817  0.2991
  766MOL0     H 3353   1.544   3.541   8.160 -0.0286 -2.2356  0.8113
  766MOL0     H 3354   1.587   3.711   8.143 -2.7116  1.2331 -1.1763
  766MOL0     H 3355   1.582   3.731   8.384  1.9346 -1.1069  3.2896
  766MOL0     H 3356   1.517   3.559   8.384  0.1513  0.3045  0.8338
  766MOL0     H 3357   1.749   3.500   8.268  2.7621  0.2369 -0.7721
  766MOL0     H 3358   1.749   3.562   8.440 -2.0293  2.8188  0.9721
  766MOL0     H 3359   1.839   3.689   8.174 -2.0342  1.2905 -0.2694
  766MOL0     H 3360   1.776   3.798   8.294  0.5275  1.8691 -3.8307
  766MOL0     H 3361   1.897   3.866   8.506  2.4490  2.3674 -1.1875
  766MOL0     H 3362   2.156   3.977   8.563 -2.0474  0.1043  0.6990
  766MOL0     H 3363   2.094   3.868   8.684 -0.8757 -0.4289  0.1838
  766MOL0     H 3364   2.325   3.869   8.738  2.1047  0.2138  0.4592
  766MOL0     H 3365   2.317   3.723   8.629  0.7081 -0.4177  1.2310
  766MOL0     H 3366   2.417   4.009   8.569  0.6707  0.6599 -2.3729
  766MOL0     H 3367   2.379   3.905   8.432 -1.4337 -3.3836 -0.0473
  766MOL0     H 3368   2.616   3.840   8.457  1.6253 -0.1692  0.9811
  766MOL0     H 3369   2.526   3.717   8.531 -1.6747  0.5135 -3.1138
  766MOL0     H 3370   2.791   3.999   8.780  0.0968  0.5186 -2.4937
  766MOL0     H 3371   3.010   3.954   8.841 -1.3232  1.2769 -1.1464
  766MOL0     H 3372   3.409   3.804   8.835  1.6638 -2.6496 -0.8996
  766MOL0     H 3373   3.613   3.721   8.917 -2.5145 -3.1183 -2.6554
  766MOL0     H 3374   3.632   3.495   8.976 -0.5361  0.5082  0.1458
  766MOL0     H 3375   3.766   3.467   9.071 -0.1722 -0.5309 -1.8285
  766MOL0     H 3376   3.486   3.384   9.137  0.8467  0.7909 -2.0381
  766MOL0     H 3377   3.610   3.270   9.102 -2.6051  0.8289 -2.8787
  766MOL0     H 3378   3.659   3.458   9.335  1.3735 -0.0724  1.3314
  766MOL0     H 3379   3.545   3.327   9.355  1.4556  0.3277  0.2129
  766MOL0     H 3380   3.823   3.272   9.238  1.7817  0.4131  0.1015
  766MOL0     H 3381   3.723   3.163   9.315  2.4979  0.1643  1.1919
  766MOL0     H 3382   3.866   3.207   9.501  1.6544 -1.0043 -4.0030
  766MOL0     H 3383   3.748   3.335   9.536 -3.0331 -4.9347 -0.0079
  766MOL0     H 3384   3.994   3.383   9.362  1.7416  1.8095  1.7034
  766MOL0     H 3385   3.883   3.494   9.441  0.6998  1.0407 -0.3445
  766MOL0     H 3386   4.081   3.307   9.578 -1.3281 -1.3785 -0.7406
  766MOL0     H 3387   3.948   3.400   9.657  1.3871  4.2106  0.4015
  766MOL0     H 3388   4.160   3.522   9.487  0.9778  0.5347  0.2715
  766MOL0     H 3389   4.045   3.599   9.606  1.3764  0.8912 -0.3063
  766MOL0     H 3390   3.436   3.633   9.296  1.5416 -0.1111 -0.6081
  766MOL0     H 3391   3.218   3.731   9.214 -0.4466  0.0759 -0.8094
  766MOL0     H 3392   2.945   3.550   8.702  3.5629 -0.0477  0.4419
  766MOL0     H 3393   2.725   3.614   8.619 -0.3121  0.6763 -2.6348
  766MOL0     H 3394   1.102   3.869   7.681  0.6148  0.2818 -3.2056
  766MOL0     H 3395   0.963   3.924   7.484  1.6295  2.8107  1.6853
  766MOL0     H 3396   0.505   3.838   7.333 -1.7838 -0.5249  0.1250
  766MOL0     H 3397   0.355   3.865   7.124 -1.2738 -0.8425  0.5381
  766MOL0     H 3398   0.213   3.919   6.920  2.0451 -0.2748  1.7886
  766MOL0     H 3399   0.343   4.035   6.904 -0.3168 -0.3795 -0.1750
  766MOL0     H 3400   0.163   4.212   6.853 -1.8056  0.0600 -0.3129
  766MOL0     H 3401   0.042   4.098   6.888 -0.1587  0.6409  0.2255
  766MOL0     H 3402   0.213   4.026   6.661 -0.0695 -2.4103  0.1669
  766MOL0     H 3403   0.080   4.143   6.651  0.0474 -0.8313 -0.8051
  766MOL0     H 3404   0.059   3.847   6.726 -1.1491 -1.4565 -0.8842
  766MOL0     H 3405  -0.080   3.947   6.700  0.2832  1.2615 -2.1143
  766MOL0     H 3406   0.061   3.910   6.304  2.4068 -0.2779 -0.0063
  766MOL0     H 3407   0.312   4.268   7.206 -3.3202 -0.0762  5.0282
  766MOL0     H 3408   0.475   4.383   7.326 -0.1186 -1.0173 -1.6592
  766MOL0     H 3409   0.436   4.328   7.479  1.0652 -0.7285  1.2340
  766MOL0     H 3410   0.609   4.307   7.416  0.5922 -1.2911 -1.4278
  767MOL0     O 3411   1.405   3.453   1.338  0.2895  0.0158 -0.6180
  767MOL0     C 3412   1.360   3.568   1.337  0.0714 -0.0210 -0.5719
  767MOL0     O 3413   1.444   3.676   1.358  0.4840  0.8411  0.4627
  767MOL0     C 3414   1.581   3.679   1.366  0.5748  0.1393  0.4769
  767MOL0     C 3415   1.670   3.575   1.329  0.5169 -0.5043 -1.3842
  767MOL0     C 3416   1.805   3.598   1.319  0.6934 -0.4503 -0.5838
  767MOL0     C 3417   1.862   3.721   1.352 -1.0779  0.4063 -0.1887
  767MOL0     O 3418   1.995   3.739   1.377 -1.3470 -0.6299 -0.0457
  767MOL0     C 3419   2.083   3.674   1.278 -0.6640 -0.2511  0.1064
  767MOL0     C 3420   2.157   3.556   1.338  0.8158  1.2248 -0.4538
  767MOL0     C 3421   2.239   3.477   1.226 -0.0520 -0.9672 -0.9011
  767MOL0     C 3422   2.284   3.341   1.279 -0.4739  0.3617 -0.3585
  767MOL0     C 3423   2.380   3.281   1.179 -0.4529  0.1547  0.6103
  767MOL0     C 3424   2.518   3.351   1.168  0.2227  0.8179  0.1984
  767MOL0     C 3425   2.604   3.303   1.045 -0.4894  0.0149 -0.1220
  767MOL0     C 3426   2.742   3.362   1.028  1.6483 -0.2550  0.7104
  767MOL0     N 3427   2.835   3.284   0.947  0.6913 -0.0904  1.0400
  767MOL0     C 3428   2.915   3.188   0.995  0.7041 -0.3834  0.0171
  767MOL0     C 3429   2.987   3.153   0.892 -0.3964  0.3374  0.5547
  767MOL0     C 3430   3.074   3.030   0.890 -0.5825  0.3948 -0.0041
  767MOL0     C 3431   3.221   3.080   0.882  0.5518 -0.1643  0.4588
  767MOL0     C 3432   3.311   2.970   0.909  0.5561 -0.4797  0.3080
  767MOL0     C 3433   3.457   3.007   0.931 -0.6700  0.7113 -0.3082
  767MOL0     O 3434   3.537   2.884   0.951  0.2694 -0.3526 -0.5902
  767MOL0     C 3435   3.664   2.852   0.916  0.9772  0.0181  0.0102
  767MOL0     C 3436   3.724   2.896   0.796 -0.2526  0.3052  0.9000
  767MOL0     C 3437   3.859   2.869   0.764 -0.3343 -0.1996 -0.3558
  767MOL0     C 3438   3.936   2.799   0.864  0.8206 -0.2147 -0.5523
  767MOL0     C 3439   4.079   2.769   0.834  1.3755  0.1566 -0.5824
  767MOL0     O 3440   4.150   2.698   0.929 -0.0813 -0.6351 -0.0687
  767MOL0     C 3441   4.261   2.628   0.878 -0.5019 -1.1407 -0.2903
  767MOL0     C 3442   4.255   2.506   0.819  0.0746 -0.3280  0.7134
  767MOL0     C 3443   4.371   2.459   0.762 -0.5137  0.1137 -0.8878
  767MOL0     C 3444   4.505   2.509   0.783  0.1838 -0.0700  0.8351
  767MOL0     O 3445   4.621   2.459   0.733 -0.2015  0.0347  0.0287
  767MOL0     C 3446   4.619   2.379   0.607 -0.1355  0.2200 -0.2938
  767MOL0     C 3447   4.739   2.419   0.525 -0.5868  0.1353 -0.8267
  767MOL0     C 3448   4.745   2.330   0.402  1.1116  0.9523 -0.0054
  767MOL0     C 3449   4.858   2.384   0.311  0.2508  0.5043 -0.4044
  767MOL0     C 3450   4.863   2.315   0.177 -0.6297  0.2023  0.2246
  767MOL0     C 3451   4.971   2.377   0.082  1.4432 -0.1504 -0.5568
  767MOL0     C 3452   5.102   2.312   0.101 -0.2664  0.6316  0.0809
  767MOL0     C 3453   5.207   2.352  -0.013 -0.1406  0.2293 -0.5393
  767MOL0    Cl 3454   5.141   2.308  -0.183 -0.2231  0.2761  0.2872
  767MOL0     C 3455   4.504   2.616   0.871  0.3882 -0.9736 -0.0503
  767MOL0     C 3456   4.385   2.676   0.919 -1.2177 -0.7272  0.5157
  767MOL0     O 3457   4.117   2.802   0.724 -0.4429 -0.7683 -0.8528
  767MOL0     C 3458   3.878   2.755   0.986 -0.2474 -0.3558  0.4289
  767MOL0     C 3459   3.744   2.789   1.014 -0.3359  0.5204 -0.3686
  767MOL0     N 3460   2.956   3.230   0.780  0.7237  0.6011 -0.0448
  767MOL0     N 3461   2.857   3.298   0.810  0.4670 -0.0050 -0.5373
  767MOL0     C 3462   1.775   3.831   1.383 -0.0034  0.6419  0.9768
  767MOL0     C 3463   1.633   3.807   1.392  1.0857 -0.1618 -0.1683
  767MOL0     C 3464   1.219   3.595   1.300  0.9710 -0.8290 -0.4058
  767MOL0     C 3465   1.176   3.729   1.279  0.4837  0.7474  0.3292
  767MOL0     C 3466   1.051   3.768   1.252 -0.7732 -0.1455  0.5075
  767MOL0     C 3467   0.948   3.677   1.243  0.8060  1.4932 -0.0285
  767MOL0     O 3468   0.821   3.721   1.211  0.3019  0.4693 -0.3873
  767MOL0     C 3469   0.729   3.630   1.152 -0.2124  0.2076  0.7216
  767MOL0     C 3470   0.597   3.697   1.103 -0.7443  0.9033  0.5315
  767MOL0     C 3471   0.467   3.620   1.121  0.0003  0.3364  0.0740
  767MOL0     C 3472   0.357   3.669   1.025 -0.2926 -0.2109  0.5353
  767MOL0     C 3473   0.268   3.766   1.095 -0.4983 -1.1045 -0.0032
  767MOL0     C 3474   0.196   3.849   1.152 -0.4058 -0.1424 -0.7062
  767MOL0     C 3475   0.981   3.539   1.280 -0.1783  0.2237  0.5544
  767MOL0     C 3476   1.115   3.496   1.293 -0.0930 -0.6911 -1.2396
  767MOL0     C 3477   1.143   3.349   1.312 -0.4481  0.8969  0.9664
  767MOL0     H 3478   1.642   3.477   1.294  0.1512  0.0323 -2.6448
  767MOL0     H 3479   1.879   3.519   1.306  2.2898  1.0614 -1.0361
  767MOL0     H 3480   2.030   3.642   1.188  3.4059 -0.4671 -2.4614
  767MOL0     H 3481   2.164   3.745   1.260  0.7419 -1.9203 -0.5206
  767MOL0     H 3482   2.078   3.487   1.370 -0.0925  1.1953 -2.6344
  767MOL0     H 3483   2.224   3.586   1.419  2.7538 -2.9354 -0.2505
  767MOL0     H 3484   2.326   3.542   1.210 -0.0652 -1.0975 -1.5505
  767MOL0     H 3485   2.194   3.474   1.126  0.5630  0.0096 -1.2228
  767MOL0     H 3486   2.325   3.364   1.378 -3.0764 -1.1678  1.1997
  767MOL0     H 3487   2.198   3.275   1.292  0.4582 -1.0015 -0.8533
  767MOL0     H 3488   2.395   3.177   1.209 -1.0338  0.8762  3.8342
  767MOL0     H 3489   2.337   3.277   1.079 -0.6410 -0.3153  0.7111
  767MOL0     H 3490   2.506   3.460   1.180  0.0400  0.5012  4.3062
  767MOL0     H 3491   2.564   3.324   1.263 -2.3408 -2.6447  0.6227
  767MOL0     H 3492   2.550   3.318   0.951  1.4965 -1.2691 -1.5358
  767MOL0     H 3493   2.607   3.194   1.056  2.0990  0.0693  0.2802
  767MOL0     H 3494   2.734   3.463   0.989 -1.9637 -0.6863  0.0017
  767MOL0     H 3495   2.791   3.376   1.125  0.7331 -0.4789  1.2200
  767MOL0     H 3496   2.922   3.142   1.094  1.5033 -2.8591 -1.0974
  767MOL0     H 3497   3.051   2.976   0.982 -2.2074  2.1038  0.6575
  767MOL0     H 3498   3.057   2.962   0.806  0.2602 -0.9873  0.9146
  767MOL0     H 3499   3.233   3.131   0.785 -1.7555 -2.3680 -1.0999
  767MOL0     H 3500   3.236   3.146   0.968 -0.1623  1.5091 -0.6545
  767MOL0     H 3501   3.319   2.911   0.817 -0.4599  4.4997 -3.4577
  767MOL0     H 3502   3.277   2.907   0.991  4.7314 -3.2881  0.2115
  767MOL0     H 3503   3.465   3.066   1.022  3.4958  1.1854 -0.7847
  767MOL0     H 3504   3.495   3.060   0.843  0.3639  0.5153  0.0006
  767MOL0     H 3505   3.667   2.941   0.714 -1.0790 -0.3113  1.1200
  767MOL0     H 3506   3.890   2.903   0.666  1.2738  0.9334  0.4948
  767MOL0     H 3507   4.160   2.459   0.796 -0.1892 -0.8657  2.7343
  767MOL0     H 3508   4.366   2.363   0.711  1.2790 -0.9671  0.8302
  767MOL0     H 3509   4.628   2.272   0.628  0.7048  0.3466  0.0475
  767MOL0     H 3510   4.524   2.399   0.557 -1.1031 -1.0388  0.9712
  767MOL0     H 3511   4.739   2.526   0.503  1.0767  0.1935 -0.6500
  767MOL0     H 3512   4.826   2.403   0.589 -0.3766  2.6406 -0.3937
  767MOL0     H 3513   4.763   2.226   0.428 -3.0375 -0.0233 -0.2688
  767MOL0     H 3514   4.641   2.340   0.367  0.8221  0.9766  0.8365
  767MOL0     H 3515   4.955   2.389   0.359 -0.2610 -1.3100  0.9295
  767MOL0     H 3516   4.828   2.487   0.288  0.4004  1.2044  2.2480
  767MOL0     H 3517   4.763   2.307   0.133 -0.6606 -0.7374  0.4348
  767MOL0     H 3518   4.890   2.209   0.175 -0.2969  0.3001 -0.5070
  767MOL0     H 3519   4.943   2.367  -0.024  3.2565 -1.7396 -0.9592
  767MOL0     H 3520   4.975   2.484   0.104 -2.8941 -0.3925  2.7192
  767MOL0     H 3521   5.084   2.205   0.090 -0.2319  0.6633 -0.2874
  767MOL0     H 3522   5.139   2.342   0.200  2.3588  1.1466 -0.9758
  767MOL0     H 3523   5.225   2.460  -0.013  1.0294  0.0602  0.6635
  767MOL0     H 3524   5.307   2.312   0.007  0.3657  2.3011  1.6112
  767MOL0     H 3525   4.602   2.656   0.893 -0.3454 -0.6392  2.9168
  767MOL0     H 3526   4.395   2.766   0.979 -1.6315 -0.3300 -0.0162
  767MOL0     H 3527   3.945   2.693   1.044  2.6751  0.4450 -1.8081
  767MOL0     H 3528   3.698   2.748   1.104 -2.6412 -4.3260 -3.3446
  767MOL0     H 3529   1.812   3.928   1.412 -1.2331  1.4917 -0.1785
  767MOL0     H 3530   1.568   3.893   1.408  1.2065  0.6917 -3.5178
  767MOL0     H 3531   1.256   3.802   1.270  2.9024 -1.8737 -1.3345
  767MOL0     H 3532   1.026   3.872   1.233 -2.0993 -0.1971  1.7305
  767MOL0     H 3533   0.694   3.573   1.238  1.0947 -0.2290  0.9967
  767MOL0     H 3534   0.772   3.561   1.079  1.0124  2.4916 -0.8590
  767MOL0     H 3535   0.612   3.715   0.996 -0.9112 -3.2123 -0.3573
  767MOL0     H 3536   0.593   3.797   1.147  0.1847  1.8294 -1.3530
  767MOL0     H 3537   0.430   3.625   1.223  0.4941 -3.3235  0.5765
  767MOL0     H 3538   0.490   3.516   1.094 -2.7817 -0.0250 -1.2067
  767MOL0     H 3539   0.412   3.706   0.937 -1.7354 -3.0172 -1.6948
  767MOL0     H 3540   0.293   3.587   0.992 -0.1602  0.4179 -1.4163
  767MOL0     H 3541   0.146   3.936   1.190 -0.5688 -0.3751 -0.3847
  767MOL0     H 3542   0.898   3.469   1.281 -0.4256  0.4803  2.8181
  767MOL0     H 3543   1.050   3.291   1.309 -1.0641  1.7413  2.6309
  767MOL0     H 3544   1.211   3.304   1.239 -0.2214  0.8994  1.1725
  767MOL0     H 3545   1.191   3.323   1.406  3.2118 -0.7964 -1.1595
  768MOL0     O 3546   4.169   7.990   4.049 -0.5801  0.0561 -0.1154
  768MOL0     C 3547   4.162   8.088   3.977 -1.3005  0.3701 -0.7673
  768MOL0     O 3548   4.271   8.143   3.909  0.3207  0.0099 -0.2899
  768MOL0     C 3549   4.398   8.118   3.956  0.6853  0.4436  0.4168
  768MOL0     C 3550   4.501   8.093   3.863  1.1184 -1.6908 -0.1539
  768MOL0     C 3551   4.632   8.072   3.911  0.7807  0.2269  0.0088
  768MOL0     C 3552   4.660   8.073   4.051  0.5234 -0.4621 -0.1190
  768MOL0     O 3553   4.786   8.049   4.106  0.7355  0.6001  0.6260
  768MOL0     C 3554   4.887   8.008   4.015 -0.6974 -0.2143 -0.3654
  768MOL0     C 3555   5.018   7.997   4.094  0.5045 -0.7212 -0.4425
  768MOL0     C 3556   5.141   7.987   4.001  0.0701  0.3748 -0.0563
  768MOL0     C 3557   5.180   8.115   3.941  0.5476  0.3962 -0.1865
  768MOL0     C 3558   5.310   8.101   3.856  0.3224 -0.2963 -0.5797
  768MOL0     C 3559   5.330   8.224   3.773 -0.7204  0.9333  1.0144
  768MOL0     C 3560   5.395   8.336   3.854 -0.5189 -0.3057  0.7860
  768MOL0     C 3561   5.394   8.479   3.790  0.0639  0.8444 -0.5415
  768MOL0     N 3562   5.497   8.496   3.686  0.4190 -0.0098  0.0527
  768MOL0     C 3563   5.619   8.436   3.690  0.3265  0.0512  0.8106
  768MOL0     C 3564   5.660   8.483   3.571 -0.3266 -1.1937  0.2205
  768MOL0     C 3565   5.789   8.457   3.492 -0.2855  0.8252  0.0672
  768MOL0     C 3566   5.772   8.383   3.355  0.5371  0.0135 -0.5646
  768MOL0     C 3567   5.903   8.320   3.307  0.8139  0.1382 -0.3750
  768MOL0     C 3568   6.014   8.419   3.288 -0.2262 -0.2358 -0.7020
  768MOL0     O 3569   6.070   8.445   3.421 -0.3046 -0.1847 -0.3764
  768MOL0     C 3570   6.208   8.477   3.433 -0.6140 -0.1825 -0.0841
  768MOL0     C 3571   6.282   8.526   3.319 -0.5327  0.7963 -0.7694
  768MOL0     C 3572   6.417   8.542   3.329 -1.3160 -0.1631  0.2174
  768MOL0     C 3573   6.487   8.546   3.449  0.6083 -0.5263 -0.1691
  768MOL0     C 3574   6.631   8.557   3.466 -0.4326 -0.1377  0.0531
  768MOL0     O 3575   6.677   8.572   3.589  0.3432 -0.2624 -0.3091
  768MOL0     C 3576   6.807   8.551   3.615 -0.1397 -0.2728  0.2847
  768MOL0     C 3577   6.859   8.633   3.710  0.1856  0.3214 -0.3281
  768MOL0     C 3578   6.981   8.601   3.769 -0.2279  0.8359 -0.9709
  768MOL0     C 3579   7.060   8.492   3.727 -0.6442  0.1656 -0.7590
  768MOL0     O 3580   7.195   8.484   3.751 -0.8161 -0.1059 -0.6768
  768MOL0     C 3581   7.251   8.596   3.827 -0.6634  0.4128 -0.9093
  768MOL0     C 3582   7.404   8.567   3.848 -0.7399  0.4113 -0.2066
  768MOL0     C 3583   7.470   8.690   3.892 -0.5254 -0.5208 -0.5143
  768MOL0     C 3584   7.614   8.674   3.937  0.6703  0.0058 -0.6225
  768MOL0     C 3585   7.698   8.795   3.924 -0.4540 -1.0743 -0.6459
  768MOL0     C 3586   7.732   8.852   4.063  0.5786  0.7804  0.1928
  768MOL0     C 3587   7.799   8.994   4.051 -0.7785 -0.7593  0.6105
  768MOL0     C 3588   7.822   9.048   4.189 -0.1792  0.1631 -0.3755
  768MOL0    Cl 3589   7.878   8.929   4.306 -0.4165 -0.1844  0.2629
  768MOL0     C 3590   7.015   8.422   3.614  0.0843  0.0068 -0.2275
  768MOL0     C 3591   6.886   8.448   3.564  0.7751  0.3980  0.3509
  768MOL0     O 3592   6.699   8.564   3.362  0.6613  0.2089 -0.5569
  768MOL0     C 3593   6.406   8.516   3.564  0.1724  0.5909 -0.0176
  768MOL0     C 3594   6.277   8.478   3.553  0.2483 -0.1650  0.3013
  768MOL0     N 3595   5.577   8.579   3.518  0.4378  0.3638  0.0419
  768MOL0     N 3596   5.477   8.580   3.591 -0.1645  0.8138  0.0309
  768MOL0     C 3597   4.553   8.103   4.143  0.4761 -0.0732 -0.1715
  768MOL0     C 3598   4.418   8.125   4.093 -0.9690  0.0232  0.4711
  768MOL0     C 3599   4.025   8.142   3.958 -0.0962 -0.0831  0.1980
  768MOL0     C 3600   4.020   8.243   3.866 -0.2442 -0.0901  0.0588
  768MOL0     C 3601   3.900   8.295   3.822  0.4388 -0.2895  0.9426
  768MOL0     C 3602   3.777   8.253   3.877 -0.2939 -1.5146 -0.6858
  768MOL0     O 3603   3.656   8.306   3.852 -0.0301  0.3290  0.5218
  768MOL0     C 3604   3.633   8.382   3.732 -1.2660 -0.4917  0.0874
  768MOL0     C 3605   3.495   8.396   3.712 -0.7455  0.0690  0.0213
  768MOL0     C 3606   3.421   8.260   3.692 -1.2633 -1.0317  0.0292
  768MOL0     C 3607   3.265   8.284   3.688 -0.3122  0.4575 -0.7971
  768MOL0     C 3608   3.191   8.163   3.647 -0.3230  0.1087 -0.6345
  768MOL0     C 3609   3.144   8.053   3.609  0.1684 -0.3390  0.2881
  768MOL0     C 3610   3.789   8.164   3.983  1.0261  0.5838  0.3230
  768MOL0     C 3611   3.907   8.102   4.027 -0.5103 -0.1638  0.0973
  768MOL0     C 3612   3.899   7.990   4.134 -0.2129 -0.1288  0.5876
  768MOL0     H 3613   4.476   8.086   3.758  0.1380  0.0432 -0.0809
  768MOL0     H 3614   4.703   8.041   3.836  0.6183 -1.3422  0.4594
  768MOL0     H 3615   4.875   7.909   3.971 -0.0749 -0.6366  0.3802
  768MOL0     H 3616   4.881   8.075   3.929  0.8688  0.7892  0.2619
  768MOL0     H 3617   5.022   7.914   4.165 -0.6674 -0.1515  0.3376
  768MOL0     H 3618   5.028   8.085   4.159 -2.0463 -2.4507  2.5994
  768MOL0     H 3619   5.120   7.909   3.927 -2.2714 -1.1825  2.0915
  768MOL0     H 3620   5.229   7.962   4.060  2.0058  1.7284 -2.1840
  768MOL0     H 3621   5.111   8.149   3.864  0.3486  1.2912  0.3772
  768MOL0     H 3622   5.194   8.186   4.023 -1.6548 -1.8804  2.3810
  768MOL0     H 3623   5.386   8.086   3.933 -2.5196  0.4859  2.6115
  768MOL0     H 3624   5.280   8.010   3.803  0.4926 -1.5845  1.4412
  768MOL0     H 3625   5.382   8.193   3.681  0.5081  0.2152  1.9220
  768MOL0     H 3626   5.237   8.256   3.725  1.1305 -0.5163 -4.2128
  768MOL0     H 3627   5.494   8.305   3.887 -0.0539  0.2807 -0.0367
  768MOL0     H 3628   5.340   8.343   3.948 -0.1850 -0.9107  1.0323
  768MOL0     H 3629   5.296   8.501   3.747 -0.2145  0.1162 -0.3116
  768MOL0     H 3630   5.413   8.562   3.859  0.3077  2.9150 -2.9818
  768MOL0     H 3631   5.676   8.368   3.753  0.5245  1.2015  1.9249
  768MOL0     H 3632   5.854   8.544   3.484  0.2922  0.3056 -1.1221
  768MOL0     H 3633   5.839   8.395   3.567 -0.7517  2.2478  1.5968
  768MOL0     H 3634   5.697   8.305   3.370  1.1699 -0.5743 -0.4232
  768MOL0     H 3635   5.725   8.454   3.287 -0.1567  3.3793  3.0248
  768MOL0     H 3636   5.873   8.270   3.214 -1.1298  1.3731 -0.4710
  768MOL0     H 3637   5.943   8.241   3.371 -0.4692 -2.4598 -2.5678
  768MOL0     H 3638   5.988   8.522   3.259  2.0678  0.2200 -1.2670
  768MOL0     H 3639   6.082   8.371   3.217 -0.9001 -3.7759  0.8312
  768MOL0     H 3640   6.240   8.521   3.219  0.0927 -1.2141 -0.9729
  768MOL0     H 3641   6.479   8.561   3.242 -0.4826  4.7284  1.5507
  768MOL0     H 3642   6.794   8.704   3.761 -0.1109 -1.4244  1.8863
  768MOL0     H 3643   7.027   8.661   3.846 -0.3015  2.3055 -2.0429
  768MOL0     H 3644   7.228   8.692   3.779 -3.6501 -0.6487 -1.8534
  768MOL0     H 3645   7.228   8.604   3.934  1.4799  0.8925 -0.4325
  768MOL0     H 3646   7.419   8.498   3.931  0.1956  2.5211  1.4533
  768MOL0     H 3647   7.452   8.537   3.753 -0.7962  0.5964 -0.2931
  768MOL0     H 3648   7.458   8.765   3.813  0.0620  0.1915  0.0584
  768MOL0     H 3649   7.421   8.738   3.978 -1.5973 -2.9064  0.2931
  768MOL0     H 3650   7.659   8.600   3.869  0.5741 -0.0786 -0.5949
  768MOL0     H 3651   7.617   8.635   4.039 -3.4978 -0.2199 -0.4161
  768MOL0     H 3652   7.645   8.876   3.873  1.1197 -0.6897 -1.7643
  768MOL0     H 3653   7.792   8.784   3.868  0.2791 -0.4709  0.4312
  768MOL0     H 3654   7.635   8.860   4.113 -1.2131  0.2800 -2.9218
  768MOL0     H 3655   7.798   8.788   4.122 -0.7984 -1.4857 -0.5866
  768MOL0     H 3656   7.731   9.060   3.996 -0.1488 -1.2181 -0.7507
  768MOL0     H 3657   7.886   8.989   3.985 -2.8116 -0.4296 -2.2402
  768MOL0     H 3658   7.892   9.131   4.195  0.5939 -0.5705  2.0898
  768MOL0     H 3659   7.723   9.089   4.213 -0.9828 -2.0334  0.4008
  768MOL0     H 3660   7.074   8.346   3.564 -0.7333 -0.8342  0.0527
  768MOL0     H 3661   6.841   8.379   3.493  1.8269  0.4048 -0.3416
  768MOL0     H 3662   6.439   8.527   3.666 -0.8282  0.5015  0.3318
  768MOL0     H 3663   6.228   8.447   3.645 -0.3571  1.2876  0.4907
  768MOL0     H 3664   4.584   8.115   4.246  0.5446  0.3360 -0.2368
  768MOL0     H 3665   4.336   8.161   4.154  0.2271  2.0527  1.0039
  768MOL0     H 3666   4.105   8.272   3.804 -0.2469  3.4854  1.5504
  768MOL0     H 3667   3.893   8.367   3.741 -0.2197 -0.8751  0.4685
  768MOL0     H 3668   3.684   8.323   3.654 -0.0030 -1.5220  1.6278
  768MOL0     H 3669   3.679   8.481   3.737 -1.0407 -0.6691  2.0817
  768MOL0     H 3670   3.486   8.457   3.621  1.0726  0.7661  0.2825
  768MOL0     H 3671   3.459   8.457   3.795  0.9534 -0.1468  0.9580
  768MOL0     H 3672   3.447   8.188   3.770 -0.8411  1.2187  2.0876
  768MOL0     H 3673   3.457   8.227   3.594 -0.5503 -1.0229  0.2838
  768MOL0     H 3674   3.236   8.308   3.791  4.8372  1.2205  0.7963
  768MOL0     H 3675   3.253   8.360   3.611  3.6163  0.4436 -1.6360
  768MOL0     H 3676   3.114   7.952   3.586  3.1043 -1.3023  0.3001
  768MOL0     H 3677   3.693   8.126   4.016  1.6200 -2.4235 -1.0508
  768MOL0     H 3678   3.793   7.969   4.150 -0.8441  0.1903 -2.4818
  768MOL0     H 3679   3.948   7.900   4.096 -0.3515  1.0593 -2.7762
  768MOL0     H 3680   3.950   8.033   4.221 -1.6436  0.0206  1.3829
  769MOL0     O 3681   5.791   3.071   1.298  0.0192 -0.0732  0.1335
  769MOL0     C 3682   5.696   3.087   1.378 -0.0086  0.1949  0.0552
  769MOL0     O 3683   5.705   3.124   1.508 -0.0867 -0.6469  0.0386
  769MOL0     C 3684   5.821   3.183   1.562  0.5085 -1.1693 -0.0046
  769MOL0     C 3685   5.940   3.115   1.553 -0.3243 -0.0131 -0.1828
  769MOL0     C 3686   6.059   3.163   1.609  0.7448 -0.6223  0.2917
  769MOL0     C 3687   6.053   3.288   1.674 -0.0877 -0.2417  0.0713
  769MOL0     O 3688   6.172   3.348   1.718 -0.1580  0.2000  0.8256
  769MOL0     C 3689   6.165   3.415   1.841  0.1564 -0.0228  0.0230
  769MOL0     C 3690   6.300   3.466   1.887  0.8745 -0.3966  0.2848
  769MOL0     C 3691   6.419   3.376   1.857 -0.5565 -0.4722  0.5363
  769MOL0     C 3692   6.551   3.428   1.914 -0.0299  0.4935  1.1851
  769MOL0     C 3693   6.672   3.347   1.872 -0.2844  0.0282 -0.2323
  769MOL0     C 3694   6.805   3.400   1.931 -0.8186  0.6429  0.3792
  769MOL0     C 3695   6.917   3.297   1.891 -0.0176  0.4283  0.4634
  769MOL0     C 3696   6.949   3.301   1.741  0.6000 -0.2904  0.0844
  769MOL0     N 3697   7.041   3.404   1.709  0.2996  0.2618  0.4336
  769MOL0     C 3698   7.183   3.404   1.713  0.9912  0.3425  0.0578
  769MOL0     C 3699   7.207   3.528   1.675 -0.3970 -0.1856  0.0606
  769MOL0     C 3700   7.353   3.583   1.671 -0.2834 -0.3395 -0.0837
  769MOL0     C 3701   7.432   3.543   1.802  0.1668 -0.6686  0.0350
  769MOL0     C 3702   7.564   3.637   1.815  0.5764  0.2851 -0.7239
  769MOL0     C 3703   7.668   3.583   1.904  0.6543  0.5388 -0.6194
  769MOL0     O 3704   7.750   3.696   1.929 -0.1023 -0.1410 -0.3374
  769MOL0     C 3705   7.872   3.682   1.994 -0.2416 -0.3864  0.1989
  769MOL0     C 3706   7.981   3.731   1.930 -0.6284  0.9264  0.0257
  769MOL0     C 3707   8.116   3.711   1.980  0.1624 -0.7468 -0.0860
  769MOL0     C 3708   8.135   3.642   2.099 -0.0679 -0.5550 -0.5783
  769MOL0     C 3709   8.268   3.624   2.155  0.3764  0.3029 -0.5371
  769MOL0     O 3710   8.370   3.653   2.071 -0.1030  0.6265 -0.2824
  769MOL0     C 3711   8.468   3.549   2.049  0.4198  0.7879  0.3831
  769MOL0     C 3712   8.448   3.407   2.077 -0.1476 -1.1510 -0.4268
  769MOL0     C 3713   8.558   3.323   2.062 -0.2335 -0.7954 -0.6673
  769MOL0     C 3714   8.683   3.372   2.029  0.0892 -0.2296  0.5245
  769MOL0     O 3715   8.787   3.284   2.033 -0.7364 -0.2533  0.0216
  769MOL0     C 3716   8.907   3.311   1.949  0.4464  0.5349 -1.1569
  769MOL0     C 3717   8.996   3.186   1.971  0.0729 -0.4339  0.0382
  769MOL0     C 3718   9.131   3.203   1.895  0.5525 -0.4126  0.0266
  769MOL0     C 3719   9.235   3.092   1.937 -0.1887  0.0986  0.5280
  769MOL0     C 3720   9.359   3.091   1.845 -0.3910 -0.7992  0.4672
  769MOL0     C 3721   9.443   3.218   1.886  0.8102 -0.0295  0.4984
  769MOL0     C 3722   9.586   3.198   1.829  0.7775 -0.3494 -0.2945
  769MOL0     C 3723   9.654   3.331   1.829 -0.2241 -0.2208 -0.2327
  769MOL0    Cl 3724   9.822   3.327   1.763  0.2259 -0.1918 -0.1205
  769MOL0     C 3725   8.701   3.510   1.998 -0.4038 -0.4547 -0.3269
  769MOL0     C 3726   8.591   3.593   2.009 -0.2437 -0.1054 -0.3955
  769MOL0     O 3727   8.269   3.558   2.261  0.0183  0.2130 -0.6246
  769MOL0     C 3728   8.017   3.595   2.170  0.4270  0.1551  0.7478
  769MOL0     C 3729   7.889   3.608   2.113  0.0574  0.3150 -0.5734
  769MOL0     N 3730   7.097   3.599   1.636 -0.1593  0.4638  0.2449
  769MOL0     N 3731   7.001   3.525   1.663 -0.2675  0.7451 -0.0526
  769MOL0     C 3732   5.939   3.366   1.662  1.0473  0.7724 -1.2086
  769MOL0     C 3733   5.820   3.311   1.622  0.7229  0.5964 -0.5151
  769MOL0     C 3734   5.560   3.059   1.327 -0.5781  0.0138  0.1941
  769MOL0     C 3735   5.458   3.112   1.405  0.4909 -1.4578 -0.2934
  769MOL0     C 3736   5.328   3.103   1.370  0.1631 -0.4492  0.0132
  769MOL0     C 3737   5.290   3.023   1.263  0.6823 -0.9873  0.0882
  769MOL0     O 3738   5.154   3.023   1.239  0.3847 -0.2354  0.8593
  769MOL0     C 3739   5.092   2.917   1.165 -0.5962  0.0752 -0.0625
  769MOL0     C 3740   4.947   2.959   1.159  0.6451  0.8202 -0.2293
  769MOL0     C 3741   4.869   2.875   1.064 -0.3702 -0.0429 -0.2620
  769MOL0     C 3742   4.720   2.856   1.070  0.1571 -0.3270  0.0923
  769MOL0     C 3743   4.649   2.971   1.120  0.2315 -0.3967  0.5473
  769MOL0     C 3744   4.589   3.070   1.166 -0.2387 -0.5954  0.0786
  769MOL0     C 3745   5.385   2.951   1.193  0.3689 -1.1095 -0.2820
  769MOL0     C 3746   5.525   2.973   1.218  0.6015 -0.4079 -0.3363
  769MOL0     C 3747   5.627   2.881   1.144  0.5970 -0.8006  0.3628
  769MOL0     H 3748   5.952   3.018   1.506 -1.0522 -0.0597 -0.2866
  769MOL0     H 3749   6.146   3.103   1.584  4.2104  4.3789 -1.4279
  769MOL0     H 3750   6.095   3.498   1.852  0.9216  0.5403  0.7047
  769MOL0     H 3751   6.128   3.343   1.915 -0.2824 -1.5754 -1.6065
  769MOL0     H 3752   6.289   3.481   1.995  1.8152 -0.7645  0.4351
  769MOL0     H 3753   6.315   3.560   1.832  0.4738 -0.3556  0.2440
  769MOL0     H 3754   6.436   3.361   1.749  3.2589 -0.6702  1.0203
  769MOL0     H 3755   6.394   3.280   1.903  0.1284 -0.6951  0.4619
  769MOL0     H 3756   6.563   3.535   1.898 -2.2153  0.3863 -2.2699
  769MOL0     H 3757   6.541   3.426   2.022  0.0885  2.1827  1.2422
  769MOL0     H 3758   6.666   3.245   1.911  1.8441  0.2942  0.9388
  769MOL0     H 3759   6.678   3.345   1.762  1.8005  1.7544 -0.2384
  769MOL0     H 3760   6.832   3.502   1.902  3.5591  0.0756  1.7612
  769MOL0     H 3761   6.792   3.408   2.039  0.4444  1.0698  0.5137
  769MOL0     H 3762   6.897   3.195   1.925 -0.2421  0.7383  1.2831
  769MOL0     H 3763   7.010   3.315   1.947 -0.5789  1.5705  1.0661
  769MOL0     H 3764   6.992   3.204   1.713  3.7102  0.9774  0.1184
  769MOL0     H 3765   6.864   3.319   1.675  1.7329 -0.6935 -1.5368
  769MOL0     H 3766   7.255   3.331   1.747  0.9586  1.4272  2.6834
  769MOL0     H 3767   7.407   3.554   1.581  0.7206  2.0423 -0.3067
  769MOL0     H 3768   7.349   3.691   1.656 -2.5512 -0.7946 -4.6438
  769MOL0     H 3769   7.361   3.548   1.885 -1.4349 -1.2006 -1.2530
  769MOL0     H 3770   7.458   3.438   1.788  1.9114 -0.1678 -0.7434
  769MOL0     H 3771   7.531   3.735   1.850 -0.8927 -0.6953  0.8061
  769MOL0     H 3772   7.611   3.644   1.716  0.2912 -2.9041 -1.1933
  769MOL0     H 3773   7.723   3.500   1.858 -1.4622 -0.6212 -1.2190
  769MOL0     H 3774   7.613   3.553   1.993 -2.0057 -0.2460 -2.4129
  769MOL0     H 3775   7.982   3.786   1.837  1.8528  1.7999  0.5093
  769MOL0     H 3776   8.204   3.748   1.927  0.0932  0.4266  0.5943
  769MOL0     H 3777   8.351   3.371   2.109 -0.8863 -1.9507 -3.3453
  769MOL0     H 3778   8.548   3.217   2.083 -0.6020 -1.0259 -1.9127
  769MOL0     H 3779   8.885   3.310   1.842  1.1781 -1.6279 -1.3353
  769MOL0     H 3780   8.958   3.403   1.978  3.4102 -1.3444 -0.0097
  769MOL0     H 3781   9.022   3.179   2.077  2.7052  5.0966  0.1247
  769MOL0     H 3782   8.950   3.092   1.940 -2.2678  0.8878 -0.7717
  769MOL0     H 3783   9.112   3.215   1.788  0.8873 -1.5442 -0.1659
  769MOL0     H 3784   9.171   3.298   1.933  0.1850 -0.0183 -0.5516
  769MOL0     H 3785   9.179   2.998   1.929 -2.7283  1.5289  0.1273
  769MOL0     H 3786   9.262   3.103   2.043 -4.9137  1.0182  1.8936
  769MOL0     H 3787   9.333   3.095   1.739  2.0573  0.8274 -0.1547
  769MOL0     H 3788   9.427   3.011   1.873 -1.0642 -1.7242 -0.4887
  769MOL0     H 3789   9.399   3.304   1.834  0.7660 -0.3680 -0.0216
  769MOL0     H 3790   9.444   3.237   1.994  2.7881  3.0558  0.0779
  769MOL0     H 3791   9.587   3.150   1.730  2.8986  1.4083 -1.2174
  769MOL0     H 3792   9.643   3.134   1.896  1.5046 -3.5523 -3.6484
  769MOL0     H 3793   9.603   3.415   1.782  0.5915  0.0203 -0.7055
  769MOL0     H 3794   9.672   3.370   1.930  1.1830  0.6491 -0.7874
  769MOL0     H 3795   8.794   3.561   1.974 -1.2433  0.9283 -0.7134
  769MOL0     H 3796   8.578   3.700   1.997 -2.9864 -0.3718 -0.5696
  769MOL0     H 3797   8.027   3.533   2.259  0.9249  0.0320  0.6087
  769MOL0     H 3798   7.805   3.560   2.162  0.9541  0.5112  1.2486
  769MOL0     H 3799   5.941   3.468   1.700 -3.3470 -0.7649  4.6190
  769MOL0     H 3800   5.723   3.360   1.625 -0.3007 -1.1714 -1.9523
  769MOL0     H 3801   5.478   3.165   1.499 -3.9499  0.4509 -0.1446
  769MOL0     H 3802   5.245   3.154   1.418 -1.2145 -1.6836 -0.9485
  769MOL0     H 3803   5.117   2.818   1.204  0.4458  0.7299  0.9870
  769MOL0     H 3804   5.135   2.926   1.065 -1.4039  0.5100 -0.3863
  769MOL0     H 3805   4.928   3.058   1.116  0.3023  1.2367  0.8532
  769MOL0     H 3806   4.895   2.945   1.254 -0.8358  0.3827 -1.0732
  769MOL0     H 3807   4.909   2.775   1.083  0.9322  0.9646  3.0340
  769MOL0     H 3808   4.900   2.890   0.960  0.3713 -0.9954 -0.1842
  769MOL0     H 3809   4.685   2.847   0.967 -0.1007  0.0362  0.1479
  769MOL0     H 3810   4.692   2.769   1.131 -0.2647 -0.2428  0.0195
  769MOL0     H 3811   4.530   3.154   1.195  0.4677  0.0837 -0.3990
  769MOL0     H 3812   5.358   2.880   1.115 -0.4904 -0.1270 -0.9039
  769MOL0     H 3813   5.672   2.941   1.065 -2.1062  0.6846 -0.1399
  769MOL0     H 3814   5.707   2.845   1.211 -0.3416  0.0966  2.0154
  769MOL0     H 3815   5.565   2.803   1.099  0.2072  0.2456 -0.9661
  770MOL0     O 3816   2.166   5.414   4.998  0.4973 -0.4346 -0.0460
  770MOL0     C 3817   2.147   5.451   5.112  0.1056  0.4672  0.0539
  770MOL0     O 3818   2.028   5.491   5.160 -0.4715  0.4167  0.6961
  770MOL0     C 3819   1.930   5.534   5.072  0.9044 -0.0373  0.0050
  770MOL0     C 3820   1.884   5.662   5.091  0.8440 -0.1919 -1.1513
  770MOL0     C 3821   1.776   5.720   5.027 -0.0555 -0.3526  0.7562
  770MOL0     C 3822   1.709   5.641   4.930  0.0648  0.2787  0.5830
  770MOL0     O 3823   1.595   5.684   4.866 -0.7514  0.4342  0.5319
  770MOL0     C 3824   1.518   5.792   4.919 -0.8899 -0.0632  0.7649
  770MOL0     C 3825   1.403   5.725   4.999 -0.2741 -0.0773  0.4245
  770MOL0     C 3826   1.318   5.825   5.089 -0.2646  0.1431 -0.1380
  770MOL0     C 3827   1.218   5.747   5.179 -0.1870  0.0336  0.0175
  770MOL0     C 3828   1.292   5.669   5.295  0.7691 -0.6490  0.1380
  770MOL0     C 3829   1.186   5.619   5.391  0.7578  0.3898 -0.1200
  770MOL0     C 3830   1.243   5.498   5.472  0.0558  0.3268 -0.2628
  770MOL0     C 3831   1.143   5.442   5.567  0.6763 -0.6353  0.2273
  770MOL0     N 3832   1.014   5.408   5.498 -0.3777 -0.1670 -0.0421
  770MOL0     C 3833   0.900   5.484   5.495  0.2221 -0.0284  0.4896
  770MOL0     C 3834   0.812   5.411   5.419  0.0481  0.4082  0.3908
  770MOL0     C 3835   0.672   5.439   5.356  0.0589 -0.0946 -0.0411
  770MOL0     C 3836   0.692   5.529   5.241  0.3344 -0.4532  0.2251
  770MOL0     C 3837   0.569   5.605   5.212 -0.2528 -0.9255  0.2110
  770MOL0     C 3838   0.457   5.529   5.159  0.1226  0.6982 -0.3776
  770MOL0     O 3839   0.396   5.449   5.266  0.0798 -0.7867 -0.2893
  770MOL0     C 3840   0.313   5.503   5.364 -0.1691 -0.3494  0.5213
  770MOL0     C 3841   0.252   5.631   5.362  0.0628 -0.7171  0.4769
  770MOL0     C 3842   0.184   5.677   5.473 -0.0605 -0.0468 -0.3059
  770MOL0     C 3843   0.177   5.605   5.591 -0.8865  0.5221 -0.5464
  770MOL0     C 3844   0.122   5.659   5.715  0.4269 -0.7344  0.5679
  770MOL0     O 3845   0.155   5.605   5.838  0.2107  0.8301  0.6352
  770MOL0     C 3846   0.138   5.677   5.954 -1.3469 -0.1306 -0.1231
  770MOL0     C 3847   0.101   5.605   6.074 -0.6189 -0.2707 -0.1984
  770MOL0     C 3848   0.093   5.674   6.198 -0.4248  0.6543  0.2750
  770MOL0     C 3849   0.137   5.806   6.213  0.5486 -0.5581 -0.8302
  770MOL0     O 3850   0.133   5.874   6.330 -0.0352 -0.4665 -0.0732
  770MOL0     C 3851   0.081   5.800   6.441  0.0654 -0.0434 -0.9721
  770MOL0     C 3852   0.085   5.898   6.559  0.0130 -1.0818 -0.9451
  770MOL0     C 3853  -0.037   5.998   6.557 -0.2590 -0.4076 -0.0926
  770MOL0     C 3854  -0.158   5.942   6.622  0.1939  0.3266  0.4404
  770MOL0     C 3855  -0.145   5.954   6.778  0.9259 -0.2560  0.4887
  770MOL0     C 3856  -0.267   6.017   6.839 -0.0305  1.0160  0.3894
  770MOL0     C 3857  -0.273   6.001   6.990  0.4329  0.2598 -0.0831
  770MOL0     C 3858  -0.416   6.009   7.040 -0.4390  0.3757 -0.9757
  770MOL0    Cl 3859  -0.418   6.037   7.214 -0.4836  0.3916  0.2985
  770MOL0     C 3860   0.178   5.870   6.100  0.4164  0.5737 -0.1481
  770MOL0     C 3861   0.173   5.810   5.966 -0.4148  0.0792 -0.7958
  770MOL0     O 3862   0.056   5.758   5.699 -0.1324 -0.2192  0.6127
  770MOL0     C 3863   0.229   5.473   5.595 -0.9867 -0.5640  0.8073
  770MOL0     C 3864   0.299   5.423   5.483 -1.1651  0.2500 -0.3906
  770MOL0     N 3865   0.879   5.303   5.366 -0.0308 -0.8515 -1.2243
  770MOL0     N 3866   1.000   5.297   5.418  0.0043  0.0622  0.2556
  770MOL0     C 3867   1.750   5.515   4.903  0.4048  0.1207 -0.2922
  770MOL0     C 3868   1.863   5.459   4.972  1.5796 -1.0793 -0.4035
  770MOL0     C 3869   2.249   5.418   5.219 -0.5507 -0.1680  0.3627
  770MOL0     C 3870   2.201   5.363   5.334 -0.1059 -0.5012  0.3387
  770MOL0     C 3871   2.282   5.326   5.447  0.2720  0.4218  0.8298
  770MOL0     C 3872   2.417   5.327   5.433  0.0722 -0.1789  0.0360
  770MOL0     O 3873   2.500   5.281   5.529  1.3944 -0.9057  0.2234
  770MOL0     C 3874   2.509   5.341   5.660 -0.4222 -0.4373 -0.9940
  770MOL0     C 3875   2.409   5.296   5.770 -0.5183 -0.0519  0.2065
  770MOL0     C 3876   2.425   5.390   5.890  0.6667  0.1954  0.6948
  770MOL0     C 3877   2.361   5.533   5.871 -0.6939  0.2525  0.4482
  770MOL0     C 3878   2.348   5.611   5.994 -0.4043  0.1781  1.2566
  770MOL0     C 3879   2.320   5.672   6.097 -0.2925  0.4556  1.3588
  770MOL0     C 3880   2.464   5.360   5.310  0.0059 -0.5638  0.5683
  770MOL0     C 3881   2.386   5.405   5.199 -0.7889  0.9012 -0.2088
  770MOL0     C 3882   2.464   5.435   5.068  0.3856  0.4750 -0.3459
  770MOL0     H 3883   1.939   5.709   5.172 -3.1584 -0.6888  2.2091
  770MOL0     H 3884   1.759   5.823   5.055  0.7401  0.3547 -1.2297
  770MOL0     H 3885   1.573   5.861   4.983 -0.8346  1.8234 -1.2194
  770MOL0     H 3886   1.474   5.843   4.833  0.0460 -1.2928 -0.4824
  770MOL0     H 3887   1.457   5.648   5.055 -0.5024 -0.2464  0.4130
  770MOL0     H 3888   1.340   5.670   4.929 -1.5717  1.5237  0.2744
  770MOL0     H 3889   1.273   5.911   5.038 -1.0662  1.5474  2.7672
  770MOL0     H 3890   1.385   5.868   5.164  0.2053  1.2295 -1.1405
  770MOL0     H 3891   1.150   5.818   5.225  1.5714  0.3914  2.2768
  770MOL0     H 3892   1.161   5.669   5.126 -0.7404 -0.0623  0.7453
  770MOL0     H 3893   1.349   5.587   5.250 -1.7360 -1.0625 -2.6405
  770MOL0     H 3894   1.358   5.731   5.355  2.2361  0.0009 -2.0176
  770MOL0     H 3895   1.144   5.694   5.458 -2.2043  2.0071 -3.4465
  770MOL0     H 3896   1.098   5.582   5.337  0.1601  4.1285 -2.0398
  770MOL0     H 3897   1.338   5.524   5.520 -0.8761  1.6201  0.9573
  770MOL0     H 3898   1.266   5.416   5.404  0.8615 -0.1538  0.5652
  770MOL0     H 3899   1.174   5.358   5.630  1.9505 -0.7198 -0.4727
  770MOL0     H 3900   1.119   5.521   5.638 -0.1727 -0.5285 -0.1717
  770MOL0     H 3901   0.879   5.577   5.547  1.3325  2.5256 -3.2337
  770MOL0     H 3902   0.638   5.342   5.319  0.5151  0.2930 -1.5627
  770MOL0     H 3903   0.614   5.483   5.437 -0.0358 -0.4569  0.0868
  770MOL0     H 3904   0.781   5.592   5.256  1.0484 -1.4450  0.2909
  770MOL0     H 3905   0.711   5.476   5.147 -0.9229 -1.4158  0.4981
  770MOL0     H 3906   0.596   5.691   5.150 -1.2820  0.9574  2.2145
  770MOL0     H 3907   0.534   5.662   5.298 -1.6795 -0.7667 -0.4282
  770MOL0     H 3908   0.494   5.456   5.086 -1.0027  0.1941 -0.4691
  770MOL0     H 3909   0.386   5.594   5.106  2.4454  0.8486 -3.5894
  770MOL0     H 3910   0.267   5.698   5.278 -1.6796 -0.5206  0.2754
  770MOL0     H 3911   0.159   5.782   5.481 -1.2665 -0.4465  2.9276
  770MOL0     H 3912   0.063   5.504   6.061 -2.2633  0.3163 -0.1531
  770MOL0     H 3913   0.055   5.603   6.271 -0.1272  0.0366 -0.1571
  770MOL0     H 3914  -0.022   5.767   6.426 -0.4244  0.4446  1.0359
  770MOL0     H 3915   0.155   5.722   6.457  0.0937 -0.5149 -3.0909
  770MOL0     H 3916   0.088   5.856   6.661 -0.0346  2.0413  0.4417
  770MOL0     H 3917   0.169   5.968   6.558 -0.9353  0.4828  3.6945
  770MOL0     H 3918  -0.006   6.089   6.611  0.0131  0.3594 -1.5068
  770MOL0     H 3919  -0.061   6.022   6.454 -0.2838  0.2689  0.0665
  770MOL0     H 3920  -0.172   5.837   6.593  3.6294  0.4730 -2.5433
  770MOL0     H 3921  -0.247   5.990   6.581 -0.0525 -1.9614 -1.9837
  770MOL0     H 3922  -0.066   6.023   6.810 -1.4851  2.1528  1.6223
  770MOL0     H 3923  -0.112   5.856   6.815 -0.8947 -1.4099 -0.7683
  770MOL0     H 3924  -0.268   6.122   6.806  0.3795  0.3363 -1.9673
  770MOL0     H 3925  -0.355   5.967   6.797  1.8483 -2.5073  0.3673
  770MOL0     H 3926  -0.213   6.076   7.041 -0.0203 -0.9217  2.2962
  770MOL0     H 3927  -0.233   5.902   7.013  0.4175  0.1351 -0.5653
  770MOL0     H 3928  -0.458   6.100   6.996  1.1164  1.4744 -0.2887
  770MOL0     H 3929  -0.464   5.914   7.016 -1.3362  0.8070 -0.9364
  770MOL0     H 3930   0.201   5.976   6.104  1.5340  0.3331  0.0053
  770MOL0     H 3931   0.210   5.860   5.878  2.2783 -5.5698 -3.3944
  770MOL0     H 3932   0.226   5.423   5.691 -0.5706  1.6895  2.0642
  770MOL0     H 3933   0.354   5.330   5.494 -0.0786  0.9361  0.0948
  770MOL0     H 3934   1.688   5.451   4.842 -0.9340  0.8501  0.2485
  770MOL0     H 3935   1.882   5.354   4.954  0.0742 -1.3215 -0.7494
  770MOL0     H 3936   2.094   5.358   5.352  0.4375 -0.4081  4.7825
  770MOL0     H 3937   2.242   5.290   5.542  1.5592  3.1567  2.5321
  770MOL0     H 3938   2.510   5.451   5.654  0.7599 -0.4529 -1.3006
  770MOL0     H 3939   2.607   5.308   5.696 -0.6713  1.4222  1.7011
  770MOL0     H 3940   2.433   5.192   5.795 -1.8872 -1.1322 -2.6055
  770MOL0     H 3941   2.311   5.294   5.721  0.4940 -1.7674 -1.9231
  770MOL0     H 3942   2.531   5.380   5.912  0.7183 -4.0030 -0.5460
  770MOL0     H 3943   2.356   5.352   5.966 -0.4589 -0.3565 -0.5622
  770MOL0     H 3944   2.413   5.591   5.794 -1.2129 -0.4663 -0.4564
  770MOL0     H 3945   2.261   5.528   5.826 -1.5391  0.1833  2.2565
  770MOL0     H 3946   2.286   5.717   6.188  0.5046 -2.3841  3.1933
  770MOL0     H 3947   2.572   5.347   5.304 -0.1260 -1.1847 -0.8667
  770MOL0     H 3948   2.543   5.358   5.065 -0.3465 -0.2768 -0.6677
  770MOL0     H 3949   2.398   5.395   4.991  0.6768  0.1018 -0.4078
  770MOL0     H 3950   2.502   5.537   5.067  2.6349 -0.2600  0.7004
  771MOL0     O 3951   8.732  10.352   3.065 -0.6265  0.3267 -0.2725
  771MOL0     C 3952   8.719  10.475   3.034  0.8748 -0.4613 -1.2302
  771MOL0     O 3953   8.803  10.547   2.963  0.1861 -0.2076  0.1641
  771MOL0     C 3954   8.934  10.545   2.992  0.3731  0.0393  0.5068
  771MOL0     C 3955   9.020  10.568   2.880  0.6382 -0.3706 -0.7079
  771MOL0     C 3956   9.156  10.562   2.899  1.0058 -0.7342  0.6422
  771MOL0     C 3957   9.209  10.534   3.018  0.3555 -0.2271 -0.4920
  771MOL0     O 3958   9.340  10.534   3.027 -0.5787 -0.4999 -0.8655
  771MOL0     C 3959   9.399  10.417   3.088 -0.3464 -1.2939  1.0626
  771MOL0     C 3960   9.543  10.402   3.026 -0.4733 -0.1923 -0.0277
  771MOL0     C 3961   9.596  10.267   3.059 -0.2801  0.5400  0.5263
  771MOL0     C 3962   9.721  10.219   2.977  0.3611 -0.6290 -0.2020
  771MOL0     C 3963   9.760  10.073   3.007  0.9519  0.0711  1.2751
  771MOL0     C 3964   9.895  10.031   2.958  0.1179  0.1346  0.5809
  771MOL0     C 3965   9.935   9.879   2.987  0.7463 -0.1072 -0.2042
  771MOL0     C 3966   9.969   9.845   3.132 -0.0315  0.0003 -0.0586
  771MOL0     N 3967  10.063   9.723   3.142  0.0946  0.5397 -0.2900
  771MOL0     C 3968  10.198   9.728   3.187 -0.0290 -0.0276  0.1243
  771MOL0     C 3969  10.249   9.604   3.153  0.5474 -0.0875  0.1423
  771MOL0     C 3970  10.391   9.557   3.172  0.1550  0.7320 -0.4797
  771MOL0     C 3971  10.397   9.479   3.301 -0.1529  0.8761  0.6633
  771MOL0     C 3972  10.545   9.437   3.318  0.6749 -0.6368 -0.1684
  771MOL0     C 3973  10.641   9.567   3.327  0.1208  0.5682  0.3347
  771MOL0     O 3974  10.582   9.656   3.425 -0.5749 -0.3320 -0.0963
  771MOL0     C 3975  10.574   9.794   3.404 -0.3927 -0.5153  0.5156
  771MOL0     C 3976  10.493   9.869   3.487  0.1472 -1.0404  0.7944
  771MOL0     C 3977  10.472  10.007   3.466 -0.3416 -0.1543 -0.6523
  771MOL0     C 3978  10.557  10.076   3.382 -0.4364  0.0555  0.7104
  771MOL0     C 3979  10.545  10.223   3.371  0.5643 -0.0876 -0.1328
  771MOL0     O 3980  10.457  10.288   3.452  1.2821 -0.9693 -0.5268
  771MOL0     C 3981  10.449  10.422   3.445  0.1050 -1.1122 -0.1932
  771MOL0     C 3982  10.323  10.466   3.485  0.4461 -0.0899 -0.0479
  771MOL0     C 3983  10.299  10.612   3.489 -0.0884  0.5308 -0.1400
  771MOL0     C 3984  10.401  10.702   3.459 -0.4731  0.3586 -0.1121
  771MOL0     O 3985  10.365  10.831   3.456 -0.0225 -0.3318 -0.4587
  771MOL0     C 3986  10.368  10.897   3.326 -0.2504  0.1113 -0.6482
  771MOL0     C 3987  10.276  11.019   3.333 -0.3628  0.6094 -0.1195
  771MOL0     C 3988  10.136  10.981   3.390 -0.3589  0.5254 -0.0405
  771MOL0     C 3989  10.031  11.099   3.365  0.1454  0.5642  0.0414
  771MOL0     C 3990   9.893  11.038   3.358  0.1800  0.4108  0.0719
  771MOL0     C 3991   9.812  11.124   3.272 -0.5535 -0.6477  0.7727
  771MOL0     C 3992   9.668  11.080   3.250  0.1755 -0.9688  0.4254
  771MOL0     C 3993   9.590  11.154   3.135 -0.0737  0.5083 -1.0814
  771MOL0    Cl 3994   9.591  11.321   3.207  0.5936  0.4888  0.1764
  771MOL0     C 3995  10.530  10.657   3.421 -0.1545  0.1564  0.0243
  771MOL0     C 3996  10.555  10.521   3.423  0.4692  0.2404 -0.0987
  771MOL0     O 3997  10.619  10.275   3.289  0.1647 -0.0076 -0.5074
  771MOL0     C 3998  10.646  10.000   3.302  0.1981 -0.4306  0.5750
  771MOL0     C 3999  10.652   9.859   3.316  0.2735 -0.6377 -1.1536
  771MOL0     N 4000  10.163   9.538   3.072 -0.2206 -0.2234  0.6113
  771MOL0     N 4001  10.053   9.605   3.074 -0.4567 -0.7351  0.7489
  771MOL0     C 4002   9.129  10.531   3.132 -0.2850  0.3721 -0.7174
  771MOL0     C 4003   8.997  10.536   3.119  0.7710  0.0695  0.0954
  771MOL0     C 4004   8.590  10.524   3.059 -0.3060 -0.4133  0.3099
  771MOL0     C 4005   8.518  10.549   2.945 -0.0131 -1.6675  0.3554
  771MOL0     C 4006   8.391  10.589   2.957 -0.2118 -0.0725  0.3881
  771MOL0     C 4007   8.333  10.621   3.082 -0.1046 -0.4768 -0.1572
  771MOL0     O 4008   8.210  10.677   3.113  0.3846  0.5089  0.5634
  771MOL0     C 4009   8.112  10.678   3.008 -0.1750 -0.0245  0.8128
  771MOL0     C 4010   7.978  10.744   3.036  0.2638  0.1880 -0.1813
  771MOL0     C 4011   7.971  10.898   3.041 -0.5810  0.2778 -0.3132
  771MOL0     C 4012   7.829  10.947   3.058  0.0651  0.0853 -0.0052
  771MOL0     C 4013   7.826  11.078   3.116 -0.4644 -0.9940 -0.3902
  771MOL0     C 4014   7.817  11.190   3.170  0.8776 -0.4288  0.0573
  771MOL0     C 4015   8.408  10.591   3.193 -0.3399 -0.4179  0.0406
  771MOL0     C 4016   8.540  10.547   3.185  0.6482  1.7286 -0.1102
  771MOL0     C 4017   8.631  10.532   3.310 -0.4750 -0.0556 -0.8744
  771MOL0     H 4018   8.973  10.577   2.782  0.2049  1.0348 -0.3828
  771MOL0     H 4019   9.226  10.583   2.820  2.5398 -1.2502  1.8065
  771MOL0     H 4020   9.420  10.453   3.190 -0.1850  1.3743  0.1624
  771MOL0     H 4021   9.347  10.321   3.087 -0.3983 -1.2631  0.6435
  771MOL0     H 4022   9.612  10.479   3.062  1.8515 -0.6760 -3.0866
  771MOL0     H 4023   9.550  10.431   2.921  1.0358  1.3282  0.4482
  771MOL0     H 4024   9.512  10.198   3.043  0.1515  0.3993 -1.3160
  771MOL0     H 4025   9.617  10.259   3.166  1.5619  0.8411  0.2198
  771MOL0     H 4026   9.692  10.224   2.872  1.4951  0.0369 -0.4904
  771MOL0     H 4027   9.799  10.290   3.005 -2.4685  2.2657  0.9440
  771MOL0     H 4028   9.755  10.061   3.116  2.5831 -0.5447  1.3055
  771MOL0     H 4029   9.683  10.006   2.968 -0.1449  2.3087 -0.6481
  771MOL0     H 4030   9.909  10.060   2.854  2.2648 -0.8986  0.5094
  771MOL0     H 4031   9.974  10.098   2.992  0.3321 -0.0599  0.4742
  771MOL0     H 4032  10.020   9.843   2.929  1.6542  0.3944  0.7942
  771MOL0     H 4033   9.848   9.814   2.971 -0.8467  2.0496 -0.8350
  771MOL0     H 4034  10.017   9.934   3.174 -0.6838  0.0211  0.6711
  771MOL0     H 4035   9.882   9.841   3.198 -1.4036 -0.3851 -1.8238
  771MOL0     H 4036  10.251   9.804   3.243 -0.7764  0.6205 -0.0250
  771MOL0     H 4037  10.411   9.486   3.092  0.6100 -1.4101  1.4322
  771MOL0     H 4038  10.450   9.648   3.158 -0.4727  1.0442 -1.1572
  771MOL0     H 4039  10.365   9.533   3.391  2.6235  0.7103  1.8591
  771MOL0     H 4040  10.330   9.393   3.298 -0.0955  0.8628 -0.5433
  771MOL0     H 4041  10.573   9.357   3.249 -1.5172 -1.5146 -0.1321
  771MOL0     H 4042  10.553   9.391   3.418 -2.8168  0.4219  0.7321
  771MOL0     H 4043  10.656   9.610   3.227  4.4241 -1.8189 -0.2892
  771MOL0     H 4044  10.743   9.541   3.355 -0.3001  1.3408  2.8010
  771MOL0     H 4045  10.433   9.814   3.559 -0.3594  0.2164  1.3495
  771MOL0     H 4046  10.407  10.059   3.535  1.6192 -2.3406  3.1690
  771MOL0     H 4047  10.250  10.386   3.486  0.2590 -0.0993 -3.6691
  771MOL0     H 4048  10.201  10.655   3.508 -1.1149 -1.0972 -1.5150
  771MOL0     H 4049  10.468  10.931   3.298 -0.2745 -0.6257 -1.7107
  771MOL0     H 4050  10.328  10.833   3.246  0.9461  2.0400 -2.9380
  771MOL0     H 4051  10.324  11.084   3.406 -2.3030  1.6267  0.3140
  771MOL0     H 4052  10.261  11.062   3.234  0.8986  1.6694  0.1190
  771MOL0     H 4053  10.097  10.892   3.339 -2.5146  0.8594  0.8938
  771MOL0     H 4054  10.146  10.956   3.496  0.3391 -2.0566 -0.6399
  771MOL0     H 4055  10.063  11.150   3.274 -0.1491 -1.3071 -1.1534
  771MOL0     H 4056  10.055  11.174   3.441  3.3702 -1.1068  0.8356
  771MOL0     H 4057   9.859  11.031   3.462 -1.4276  0.0719 -0.4477
  771MOL0     H 4058   9.897  10.939   3.311  1.2660 -0.6459  2.2224
  771MOL0     H 4059   9.814  11.219   3.327 -0.3425 -1.7318  2.7568
  771MOL0     H 4060   9.856  11.125   3.172  0.3523 -4.7468  0.9777
  771MOL0     H 4061   9.612  11.079   3.344  1.1719  1.2967  1.1187
  771MOL0     H 4062   9.677  10.976   3.216 -0.0871 -0.3795 -1.5826
  771MOL0     H 4063   9.648  11.159   3.041  2.4229  3.0001  0.4297
  771MOL0     H 4064   9.492  11.109   3.116 -0.0998  1.3243 -3.1771
  771MOL0     H 4065  10.601  10.740   3.424 -0.2053  0.1800  1.3302
  771MOL0     H 4066  10.661  10.496   3.421  0.7679  1.3634  0.9625
  771MOL0     H 4067  10.709  10.047   3.227  2.0467 -1.7420  1.2513
  771MOL0     H 4068  10.726   9.817   3.249  2.9259  2.8516 -0.6839
  771MOL0     H 4069   9.167  10.539   3.233 -0.1744  0.7736 -0.7875
  771MOL0     H 4070   8.942  10.519   3.211 -2.7985 -1.2793 -2.0900
  771MOL0     H 4071   8.548  10.517   2.846 -1.3305 -0.5526 -0.4434
  771MOL0     H 4072   8.332  10.602   2.867 -1.2273  1.3513  1.2086
  771MOL0     H 4073   8.098  10.573   2.982  0.1536 -0.4471  2.3002
  771MOL0     H 4074   8.151  10.724   2.916  1.5340 -0.2194  1.4126
  771MOL0     H 4075   7.937  10.701   3.128  0.2745 -0.5446 -0.5128
  771MOL0     H 4076   7.914  10.717   2.951  0.8948  0.0298 -0.6162
  771MOL0     H 4077   8.004  10.936   2.944  2.5605  2.2693  1.3800
  771MOL0     H 4078   8.047  10.934   3.111 -0.1706  1.6818 -1.4362
  771MOL0     H 4079   7.772  10.946   2.964  2.9093  3.5930 -2.0059
  771MOL0     H 4080   7.782  10.873   3.124  1.4145 -1.9553 -1.2092
  771MOL0     H 4081   7.828  11.285   3.219 -1.6228 -0.1608  0.2605
  771MOL0     H 4082   8.370  10.621   3.290  1.2297  1.6166  0.0728
  771MOL0     H 4083   8.699  10.616   3.325  0.0082 -0.6150  0.2316
  771MOL0     H 4084   8.573  10.534   3.403  2.4012 -1.0370  1.0832
  771MOL0     H 4085   8.691  10.440   3.315 -0.4449 -0.2311 -3.2259
  772MOL0     O 4086   0.307   2.952   7.946  0.2792  0.4225 -0.3275
  772MOL0     C 4087   0.331   3.068   7.908 -0.2567  0.2453  0.7436
  772MOL0     O 4088   0.431   3.141   7.961 -0.1335 -0.3973 -0.1636
  772MOL0     C 4089   0.511   3.113   8.069  0.0948 -0.3301 -0.3531
  772MOL0     C 4090   0.529   2.993   8.148  0.4479  0.7393 -0.2699
  772MOL0     C 4091   0.608   2.983   8.254 -0.8901  0.1769 -0.8873
  772MOL0     C 4092   0.681   3.102   8.294 -0.4849  0.4107 -0.6821
  772MOL0     O 4093   0.758   3.084   8.406 -0.6479  0.9441  0.2333
  772MOL0     C 4094   0.901   3.103   8.385 -0.0681 -0.4526 -0.2876
  772MOL0     C 4095   0.952   3.190   8.507 -0.2406 -0.1023  0.5490
  772MOL0     C 4096   1.104   3.157   8.520 -0.8086 -0.4785  0.1011
  772MOL0     C 4097   1.155   3.159   8.666 -0.4402 -0.1794  0.5849
  772MOL0     C 4098   1.295   3.099   8.675  0.6736 -0.6064  1.0689
  772MOL0     C 4099   1.357   3.127   8.808  0.5064  0.6244  0.6636
  772MOL0     C 4100   1.506   3.078   8.819 -0.8432 -0.2856  0.4600
  772MOL0     C 4101   1.582   3.162   8.931 -0.6543  0.3836  0.3428
  772MOL0     N 4102   1.715   3.103   8.958 -0.8126 -0.3397 -0.4695
  772MOL0     C 4103   1.745   2.976   8.998  0.1159 -0.1097  0.1704
  772MOL0     C 4104   1.877   2.962   8.993 -0.0846  0.5200 -0.7539
  772MOL0     C 4105   1.945   2.841   9.044  0.1223 -0.8080  0.0784
  772MOL0     C 4106   2.008   2.763   8.932 -0.8719 -0.5813  0.3445
  772MOL0     C 4107   2.154   2.813   8.919 -0.5480 -0.8802  0.4431
  772MOL0     C 4108   2.200   2.774   8.776 -0.4574  0.0933 -0.2107
  772MOL0     O 4109   2.327   2.834   8.731 -0.1579 -0.7595 -0.7586
  772MOL0     C 4110   2.449   2.801   8.791  0.0813 -0.5139 -0.7058
  772MOL0     C 4111   2.466   2.680   8.860  0.5233 -0.4509 -1.0497
  772MOL0     C 4112   2.593   2.645   8.907 -0.9796  0.0572 -0.4580
  772MOL0     C 4113   2.712   2.722   8.881  0.6378 -0.1174  0.3333
  772MOL0     C 4114   2.845   2.685   8.928  0.3099  0.6921  0.0397
  772MOL0     O 4115   2.946   2.729   8.846  0.2952  0.9539  0.7925
  772MOL0     C 4116   3.079   2.717   8.881 -0.1902  0.8374  0.2518
  772MOL0     C 4117   3.116   2.785   9.000 -0.4890 -0.6129 -1.4426
  772MOL0     C 4118   3.244   2.770   9.045  0.2231  0.1947 -0.0704
  772MOL0     C 4119   3.339   2.690   8.977 -0.5872 -0.3370 -0.6203
  772MOL0     O 4120   3.470   2.672   9.025  0.3132 -0.1307 -0.2608
  772MOL0     C 4121   3.523   2.757   9.130 -0.5962  0.7402  0.2726
  772MOL0     C 4122   3.671   2.720   9.153  0.0741 -1.2918  0.0193
  772MOL0     C 4123   3.765   2.785   9.044 -0.0596 -0.8985  0.4055
  772MOL0     C 4124   3.914   2.741   9.069 -1.1693 -0.0781  0.6112
  772MOL0     C 4125   4.010   2.789   8.952  0.4637  0.0132  0.8620
  772MOL0     C 4126   4.070   2.922   8.995  0.5904 -0.4859  0.4999
  772MOL0     C 4127   4.209   2.942   8.931  0.6567 -0.7194 -0.4680
  772MOL0     C 4128   4.300   3.059   8.985 -0.3860 -0.7841 -0.0844
  772MOL0    Cl 4129   4.212   3.218   8.997 -0.2266  0.1671 -0.4897
  772MOL0     C 4130   3.308   2.629   8.858  0.7216 -0.7881  0.7740
  772MOL0     C 4131   3.173   2.651   8.805  0.0988  0.4311 -0.9636
  772MOL0     O 4132   2.859   2.619   9.035 -0.4176  0.0045 -0.1360
  772MOL0     C 4133   2.692   2.832   8.782 -0.0244 -0.1096 -0.3014
  772MOL0     C 4134   2.565   2.867   8.742  0.3369 -0.5896  0.1462
  772MOL0     N 4135   1.932   3.080   8.951  0.4120  0.5199 -0.1004
  772MOL0     N 4136   1.833   3.162   8.936 -1.0378 -0.6580  0.6597
  772MOL0     C 4137   0.680   3.210   8.217 -0.2283 -0.1393 -0.2739
  772MOL0     C 4138   0.597   3.215   8.108 -0.4533 -0.1331  0.0573
  772MOL0     C 4139   0.245   3.142   7.811  0.1805 -0.2043 -0.1474
  772MOL0     C 4140   0.303   3.256   7.747 -0.0457  0.1672 -0.2223
  772MOL0     C 4141   0.220   3.344   7.673 -0.5393 -0.3951  0.2941
  772MOL0     C 4142   0.081   3.324   7.661  0.2404  0.2636 -0.1871
  772MOL0     O 4143   0.010   3.420   7.601  0.1875 -0.7773  0.3553
  772MOL0     C 4144  -0.126   3.435   7.644 -0.1728 -0.3863 -0.8702
  772MOL0     C 4145  -0.224   3.394   7.538  0.3892  0.2895  0.4954
  772MOL0     C 4146  -0.222   3.479   7.411 -0.8336  0.6196  0.2256
  772MOL0     C 4147  -0.346   3.439   7.333 -0.5125  0.0508  0.5142
  772MOL0     C 4148  -0.458   3.516   7.381 -0.2541  0.0489  1.0897
  772MOL0     C 4149  -0.548   3.595   7.407  0.1800 -0.3953 -0.2174
  772MOL0     C 4150   0.036   3.196   7.702  0.3691  0.2622 -0.2872
  772MOL0     C 4151   0.117   3.100   7.763 -0.4276 -0.4041  0.0429
  772MOL0     C 4152   0.059   2.968   7.799  0.3531 -0.5001 -0.4933
  772MOL0     H 4153   0.481   2.899   8.122  0.2380  0.2491  1.6765
  772MOL0     H 4154   0.609   2.889   8.308 -0.7021  0.6473 -0.0493
  772MOL0     H 4155   0.947   3.004   8.382 -0.6211 -0.7030 -0.7489
  772MOL0     H 4156   0.931   3.140   8.286  2.3290 -0.8546  0.2251
  772MOL0     H 4157   0.901   3.154   8.597  2.4432 -0.9355  1.8519
  772MOL0     H 4158   0.931   3.291   8.472 -0.8531 -0.6001 -0.5661
  772MOL0     H 4159   1.166   3.234   8.472 -0.9664 -0.7714 -0.5744
  772MOL0     H 4160   1.131   3.057   8.484  0.0501 -0.6716  1.2278
  772MOL0     H 4161   1.154   3.259   8.711 -1.8480 -1.1359  2.8502
  772MOL0     H 4162   1.089   3.097   8.727  1.8372 -2.7861  0.6017
  772MOL0     H 4163   1.294   2.993   8.650  1.0970 -0.4458  0.3356
  772MOL0     H 4164   1.367   3.139   8.603  1.1038  0.0060  1.8184
  772MOL0     H 4165   1.350   3.233   8.833 -2.7776  1.4751 -2.8794
  772MOL0     H 4166   1.310   3.077   8.892  1.5657 -1.2102  0.2161
  772MOL0     H 4167   1.564   3.094   8.728  0.7433 -1.3604  1.2477
  772MOL0     H 4168   1.531   2.975   8.843  1.8249  0.2491  0.2105
  772MOL0     H 4169   1.598   3.268   8.912  2.1999  0.5805  2.9679
  772MOL0     H 4170   1.530   3.160   9.028  1.4540 -2.2492  1.5461
  772MOL0     H 4171   1.680   2.890   9.011 -0.2601 -1.0105 -5.3378
  772MOL0     H 4172   2.023   2.865   9.118 -0.8575  1.1807  0.5150
  772MOL0     H 4173   1.873   2.781   9.100 -0.2511 -0.0600  0.4130
  772MOL0     H 4174   1.995   2.656   8.952 -2.4482 -0.5640 -0.4035
  772MOL0     H 4175   1.949   2.786   8.843 -2.2520 -0.0500  1.3532
  772MOL0     H 4176   2.224   2.771   8.991  0.3227 -0.0040  0.1280
  772MOL0     H 4177   2.155   2.922   8.931  1.5435 -1.0569  2.6196
  772MOL0     H 4178   2.133   2.811   8.698 -0.6569 -0.6775 -0.4141
  772MOL0     H 4179   2.200   2.665   8.773 -2.5848  0.0616 -0.3378
  772MOL0     H 4180   2.389   2.604   8.874  0.9205 -0.3752  2.4435
  772MOL0     H 4181   2.602   2.546   8.951  0.2680  0.4204  0.1590
  772MOL0     H 4182   3.033   2.818   9.061  0.3197 -2.3817  0.7520
  772MOL0     H 4183   3.275   2.814   9.139 -0.0196  2.1145 -0.8488
  772MOL0     H 4184   3.513   2.865   9.113  0.4133  0.3361 -4.1253
  772MOL0     H 4185   3.477   2.734   9.226 -1.6352  1.0817 -0.1204
  772MOL0     H 4186   3.706   2.758   9.250  0.2374 -0.4132 -0.3649
  772MOL0     H 4187   3.682   2.612   9.153  1.8847 -1.1596  1.6291
  772MOL0     H 4188   3.730   2.755   8.945  0.0765  0.8486 -0.2118
  772MOL0     H 4189   3.756   2.894   9.054  2.3185 -0.7828  2.2269
  772MOL0     H 4190   3.915   2.632   9.071  0.4202 -0.0741  2.4502
  772MOL0     H 4191   3.944   2.773   9.169 -1.8967  0.0990  0.7751
  772MOL0     H 4192   3.959   2.789   8.856  1.8005 -1.1212  0.1177
  772MOL0     H 4193   4.085   2.712   8.934 -1.1524 -1.5592  0.5705
  772MOL0     H 4194   4.007   3.005   8.963 -0.8351 -1.5722  0.3957
  772MOL0     H 4195   4.088   2.919   9.103  1.9085 -0.7771  0.2979
  772MOL0     H 4196   4.184   2.955   8.825 -0.7989 -1.7970 -0.2840
  772MOL0     H 4197   4.259   2.848   8.952 -0.7198 -1.5119 -0.5949
  772MOL0     H 4198   4.329   3.027   9.085 -1.9224  0.2139  0.7229
  772MOL0     H 4199   4.393   3.073   8.929  0.1396  0.4465  1.0536
  772MOL0     H 4200   3.373   2.564   8.800  1.0318 -2.8631  3.2730
  772MOL0     H 4201   3.150   2.616   8.705  2.6903 -0.6781 -1.2532
  772MOL0     H 4202   2.777   2.890   8.745 -1.8600  1.6245 -2.0776
  772MOL0     H 4203   2.533   2.953   8.684 -1.6742 -1.2107  0.2520
  772MOL0     H 4204   0.744   3.292   8.250  1.3795 -1.4814  0.0674
  772MOL0     H 4205   0.603   3.311   8.059 -0.3765  0.4163  1.1279
  772MOL0     H 4206   0.402   3.286   7.780  0.0262 -1.6610  1.4037
  772MOL0     H 4207   0.258   3.431   7.621 -2.2756 -0.7427 -1.6582
  772MOL0     H 4208  -0.142   3.539   7.672 -0.3880 -1.0626  1.7348
  772MOL0     H 4209  -0.153   3.374   7.731  0.5241 -0.0747 -0.4253
  772MOL0     H 4210  -0.325   3.381   7.578  0.8690 -6.2867  0.7710
  772MOL0     H 4211  -0.196   3.291   7.515 -0.3938  0.2103 -0.1599
  772MOL0     H 4212  -0.137   3.448   7.350 -2.6238 -1.0117 -1.5703
  772MOL0     H 4213  -0.219   3.586   7.433 -1.6847  0.7366 -0.2008
  772MOL0     H 4214  -0.336   3.477   7.231 -3.0461  3.9408  1.5308
  772MOL0     H 4215  -0.360   3.330   7.332 -1.5314  0.1259 -1.9783
  772MOL0     H 4216  -0.616   3.673   7.437  1.0351  1.2595 -2.3140
  772MOL0     H 4217  -0.069   3.170   7.692  0.2536  0.3152  0.6751
  772MOL0     H 4218   0.055   2.964   7.908  0.9885  2.0755 -0.3205
  772MOL0     H 4219  -0.035   2.949   7.745 -0.0545 -2.9941  0.9203
  772MOL0     H 4220   0.128   2.884   7.791  0.1370 -0.6290 -1.1350
  773MOL0     O 4221  11.034   8.888   0.453  0.3245 -0.4146  0.2528
  773MOL0     C 4222  11.099   8.984   0.413  0.7064  0.3843  0.9491
  773MOL0     O 4223  11.231   8.983   0.371 -0.4061 -0.0074 -0.4509
  773MOL0     C 4224  11.310   8.871   0.372  0.0800  0.2612 -0.0711
  773MOL0     C 4225  11.266   8.740   0.321 -0.0404  0.2315  0.4838
  773MOL0     C 4226  11.349   8.632   0.298 -0.4074  0.3764  0.1452
  773MOL0     C 4227  11.482   8.646   0.345 -0.2602 -0.3083 -0.3982
  773MOL0     O 4228  11.560   8.531   0.338  0.1127 -0.4416  0.4203
  773MOL0     C 4229  11.701   8.551   0.321 -0.0680  0.8802  0.0542
  773MOL0     C 4230  11.772   8.411   0.292  0.3477 -0.6560 -0.1589
  773MOL0     C 4231  11.921   8.418   0.270  0.5682  0.0920  0.0578
  773MOL0     C 4232  11.958   8.458   0.127  0.0572  0.4476 -0.1383
  773MOL0     C 4233  12.108   8.517   0.129 -0.4952  0.1972  0.5460
  773MOL0     C 4234  12.161   8.491  -0.017  0.0862 -0.1423 -1.3433
  773MOL0     C 4235  12.315   8.539  -0.014 -0.0525 -1.0855  0.1267
  773MOL0     C 4236  12.394   8.449  -0.113  0.3263 -0.9362 -0.0855
  773MOL0     N 4237  12.528   8.478  -0.116  0.6289  0.0913 -0.2761
  773MOL0     C 4238  12.581   8.606  -0.121  0.0257 -0.0353  0.4601
  773MOL0     C 4239  12.715   8.580  -0.127 -1.1104 -0.2301 -0.2831
  773MOL0     C 4240  12.825   8.669  -0.130 -0.3987 -0.6273 -1.0390
  773MOL0     C 4241  12.857   8.716  -0.270  0.2203 -0.0856  0.0377
  773MOL0     C 4242  12.937   8.633  -0.361 -0.0086  0.8154 -0.2878
  773MOL0     C 4243  13.085   8.621  -0.323 -0.0038 -0.7770  0.6876
  773MOL0     O 4244  13.156   8.740  -0.373 -0.1430 -0.2943  0.7234
  773MOL0     C 4245  13.296   8.738  -0.362 -0.3631 -0.9770 -0.3894
  773MOL0     C 4246  13.366   8.842  -0.431 -0.0200 -0.4162  0.0395
  773MOL0     C 4247  13.505   8.857  -0.431 -0.2567 -0.5840  0.1465
  773MOL0     C 4248  13.581   8.772  -0.351 -0.1362  0.0027  0.2063
  773MOL0     C 4249  13.724   8.781  -0.337  0.6919 -0.3790 -0.2250
  773MOL0     O 4250  13.783   8.900  -0.347 -0.3319 -0.5987 -0.0784
  773MOL0     C 4251  13.920   8.929  -0.342  0.8945  1.0989 -0.2796
  773MOL0     C 4252  13.967   9.058  -0.374 -0.3582 -0.1727  0.5793
  773MOL0     C 4253  14.101   9.093  -0.370 -0.3704  0.0100 -0.1273
  773MOL0     C 4254  14.194   8.992  -0.334  0.2666 -0.0020  0.8252
  773MOL0     O 4255  14.328   9.019  -0.324  0.4849 -0.2699  0.5873
  773MOL0     C 4256  14.377   9.151  -0.320  0.6579  1.0826  0.4804
  773MOL0     C 4257  14.520   9.146  -0.372  0.0391 -0.1110 -0.9714
  773MOL0     C 4258  14.624   9.089  -0.265  0.8621  0.4425 -0.2541
  773MOL0     C 4259  14.754   9.067  -0.331 -0.1725  0.2270 -0.3097
  773MOL0     C 4260  14.834   9.193  -0.370 -0.5419  0.0899  0.6318
  773MOL0     C 4261  14.945   9.142  -0.460 -0.5709 -0.3864 -0.7742
  773MOL0     C 4262  15.058   9.064  -0.403  0.4981  0.4889 -0.5816
  773MOL0     C 4263  15.145   9.127  -0.300 -0.6896 -1.0938  1.3003
  773MOL0    Cl 4264  15.228   9.253  -0.401 -0.3876 -0.3311 -0.1811
  773MOL0     C 4265  14.153   8.868  -0.294 -0.4063 -0.0477  0.3360
  773MOL0     C 4266  14.013   8.836  -0.303 -0.6593  0.0729 -0.1792
  773MOL0     O 4267  13.781   8.672  -0.336  0.1437 -0.5660 -0.3616
  773MOL0     C 4268  13.517   8.680  -0.268  0.6297  0.4569  0.2271
  773MOL0     C 4269  13.373   8.655  -0.280 -0.4702  0.3103 -0.1378
  773MOL0     N 4270  12.734   8.447  -0.133  0.2507  0.0864 -0.4719
  773MOL0     N 4271  12.627   8.388  -0.111  0.4310 -0.1766 -0.9895
  773MOL0     C 4272  11.530   8.767   0.392 -0.4293 -0.1671 -0.2227
  773MOL0     C 4273  11.449   8.883   0.404 -0.6962  0.3418 -0.6143
  773MOL0     C 4274  11.019   9.110   0.382  0.1185 -0.2686 -0.1799
  773MOL0     C 4275  11.080   9.197   0.300 -0.7899  0.2126  1.0112
  773MOL0     C 4276  11.021   9.322   0.256  0.4764  0.9513  0.2518
  773MOL0     C 4277  10.893   9.351   0.307 -0.5673 -0.5209  0.5473
  773MOL0     O 4278  10.826   9.462   0.267 -0.1145 -0.2624 -0.1160
  773MOL0     C 4279  10.767   9.436   0.138 -0.0093 -0.1737 -0.6325
  773MOL0     C 4280  10.624   9.499   0.137 -0.5662  0.0352  0.1860
  773MOL0     C 4281  10.552   9.495  -0.005 -0.4769 -0.4709 -0.3813
  773MOL0     C 4282  10.621   9.590  -0.103 -0.8212 -0.2864 -0.2094
  773MOL0     C 4283  10.603   9.738  -0.078 -0.0636  0.6891  0.1961
  773MOL0     C 4284  10.572   9.855  -0.050 -0.9365 -1.2808  0.1670
  773MOL0     C 4285  10.833   9.259   0.382  0.2778 -0.1507 -0.1367
  773MOL0     C 4286  10.891   9.135   0.423  0.8292  0.0317 -0.6299
  773MOL0     C 4287  10.800   9.052   0.515 -0.7010  0.0761  0.6161
  773MOL0     H 4288  11.160   8.719   0.311 -0.7868  2.6377  2.3013
  773MOL0     H 4289  11.299   8.543   0.261 -3.6408  1.4385  1.5266
  773MOL0     H 4290  11.710   8.618   0.235  1.0292 -0.8860 -1.2980
  773MOL0     H 4291  11.744   8.583   0.416  3.7278  1.4457 -1.6771
  773MOL0     H 4292  11.728   8.362   0.204  1.6039 -0.3756 -0.9620
  773MOL0     H 4293  11.742   8.350   0.377 -0.8692  0.8746  0.5598
  773MOL0     H 4294  11.952   8.315   0.291  1.6059  0.4343  0.2585
  773MOL0     H 4295  11.961   8.484   0.347 -1.6966 -0.6168  1.9649
  773MOL0     H 4296  11.963   8.367   0.067  1.1086  0.8395 -0.6793
  773MOL0     H 4297  11.897   8.529   0.070  0.3628 -0.9279 -2.2796
  773MOL0     H 4298  12.117   8.625   0.146 -0.3085  0.7434 -2.5293
  773MOL0     H 4299  12.174   8.461   0.196 -1.1203 -3.1578 -1.4403
  773MOL0     H 4300  12.149   8.383  -0.033  0.3932  0.0662 -3.2347
  773MOL0     H 4301  12.098   8.539  -0.093 -3.5017 -1.1998  0.7246
  773MOL0     H 4302  12.359   8.539   0.086 -0.9577  0.3123  0.5492
  773MOL0     H 4303  12.311   8.643  -0.045 -3.1307 -0.4429  2.2161
  773MOL0     H 4304  12.382   8.345  -0.080  2.1191 -0.8619  0.9217
  773MOL0     H 4305  12.351   8.451  -0.213  0.2277  0.7587 -0.0386
  773MOL0     H 4306  12.524   8.698  -0.115 -1.8159 -1.1906  2.6169
  773MOL0     H 4307  12.811   8.759  -0.069 -0.8341  0.7714 -3.0936
  773MOL0     H 4308  12.917   8.621  -0.095 -0.4806 -2.4845 -3.1530
  773MOL0     H 4309  12.764   8.740  -0.322 -0.8416  0.2535  2.0163
  773MOL0     H 4310  12.908   8.813  -0.267  0.3349  0.0513 -3.1818
  773MOL0     H 4311  12.929   8.658  -0.467 -0.6761 -1.7315 -0.8997
  773MOL0     H 4312  12.885   8.539  -0.343  0.5889  0.1214 -1.9588
  773MOL0     H 4313  13.123   8.537  -0.382  2.9245  1.9100 -1.5954
  773MOL0     H 4314  13.083   8.602  -0.215 -1.2215 -0.2773  0.7679
  773MOL0     H 4315  13.310   8.912  -0.493  0.5528 -0.9636 -1.1416
  773MOL0     H 4316  13.554   8.926  -0.499 -0.7401  2.2141  2.4520
  773MOL0     H 4317  13.899   9.129  -0.419  1.8397  0.8169 -1.3674
  773MOL0     H 4318  14.127   9.193  -0.401  0.4203 -0.5814 -1.4883
  773MOL0     H 4319  14.334   9.224  -0.389 -1.0693  0.2490  0.6159
  773MOL0     H 4320  14.381   9.195  -0.219 -1.8982  3.1045 -0.1835
  773MOL0     H 4321  14.524   9.082  -0.461  0.1173 -0.7891 -0.4885
  773MOL0     H 4322  14.555   9.247  -0.396  0.5567  0.1616  0.8194
  773MOL0     H 4323  14.633   9.159  -0.182 -0.2531 -0.6874  0.8688
  773MOL0     H 4324  14.572   9.009  -0.212 -0.6959  0.3702 -1.8182
  773MOL0     H 4325  14.748   8.990  -0.409 -1.0900  0.0710 -0.0884
  773MOL0     H 4326  14.818   9.016  -0.258  0.5621 -0.9877 -1.7464
  773MOL0     H 4327  14.874   9.249  -0.285 -0.9903 -1.6535  2.0631
  773MOL0     H 4328  14.776   9.259  -0.435 -0.9049 -1.9945 -1.3069
  773MOL0     H 4329  14.901   9.079  -0.538 -0.9471 -1.6577  0.4172
  773MOL0     H 4330  14.981   9.232  -0.510 -0.4784 -1.3317 -2.4991
  773MOL0     H 4331  15.127   9.026  -0.479  1.0555 -1.9550  1.0003
  773MOL0     H 4332  15.020   8.972  -0.357 -1.2178  2.6528  2.7652
  773MOL0     H 4333  15.076   9.151  -0.218  0.4432 -2.4080  2.7159
  773MOL0     H 4334  15.217   9.056  -0.258  0.0735  0.1762  2.1704
  773MOL0     H 4335  14.223   8.792  -0.261  1.7593  0.7067 -2.1901
  773MOL0     H 4336  13.998   8.735  -0.267 -1.6246  0.3786  0.3031
  773MOL0     H 4337  13.569   8.617  -0.196 -2.5359 -2.0061  0.5920
  773MOL0     H 4338  13.328   8.585  -0.210 -1.5510  0.6667 -0.4625
  773MOL0     H 4339  11.631   8.790   0.421  0.5677  0.9239 -3.9655
  773MOL0     H 4340  11.492   8.979   0.430 -0.5712  0.6416 -1.8843
  773MOL0     H 4341  11.184   9.194   0.270 -0.2058  3.4889  2.1763
  773MOL0     H 4342  11.074   9.381   0.181 -0.0191  0.6150 -0.3704
  773MOL0     H 4343  10.749   9.330   0.123 -2.1140 -0.2666  1.8605
  773MOL0     H 4344  10.844   9.462   0.064  2.3583  0.5780  1.9342
  773MOL0     H 4345  10.628   9.604   0.167 -0.1825  0.2168 -0.4764
  773MOL0     H 4346  10.551   9.459   0.207 -0.7546 -0.0365 -0.0514
  773MOL0     H 4347  10.450   9.534   0.007 -0.4143 -0.0100 -1.1905
  773MOL0     H 4348  10.549   9.397  -0.053 -4.5585 -0.4565 -0.5367
  773MOL0     H 4349  10.728   9.567  -0.105 -1.0337 -1.2875 -1.2551
  773MOL0     H 4350  10.586   9.567  -0.204 -0.2389  2.3790 -1.0871
  773MOL0     H 4351  10.567   9.960  -0.034  0.1197 -1.2918  0.6340
  773MOL0     H 4352  10.732   9.281   0.417  0.4356  0.5207 -0.0919
  773MOL0     H 4353  10.726   9.124   0.551 -0.2200  1.0361 -0.2760
  773MOL0     H 4354  10.761   8.970   0.454  0.5366  1.5269 -2.3403
  773MOL0     H 4355  10.860   9.017   0.600  2.4924 -0.7025 -1.7645
  774MOL0     O 4356   7.492   9.835   3.814  0.2488  0.9474  0.3013
  774MOL0     C 4357   7.423   9.731   3.784  0.2417 -0.0510  0.7449
  774MOL0     O 4358   7.428   9.610   3.845  0.7961  0.2817  0.1441
  774MOL0     C 4359   7.543   9.568   3.905  1.5323  0.4355 -1.1094
  774MOL0     C 4360   7.668   9.611   3.886 -1.1409 -0.2721 -0.2201
  774MOL0     C 4361   7.769   9.573   3.972  0.0985  0.6936 -0.3962
  774MOL0     C 4362   7.749   9.476   4.068 -0.5875  0.1224  0.5080
  774MOL0     O 4363   7.848   9.422   4.154  0.1061  0.6353  0.4342
  774MOL0     C 4364   7.982   9.490   4.156  0.4241 -0.7981 -0.2174
  774MOL0     C 4365   7.958   9.618   4.244  0.3431  0.1524 -0.1361
  774MOL0     C 4366   8.061   9.731   4.227  0.7644  0.3858  0.5283
  774MOL0     C 4367   8.192   9.655   4.241  0.3295  0.2077  0.0902
  774MOL0     C 4368   8.300   9.744   4.307 -0.0971  0.2995 -0.2300
  774MOL0     C 4369   8.289   9.751   4.466  0.5748  0.3598  0.4724
  774MOL0     C 4370   8.281   9.612   4.538 -0.5490 -0.4643 -0.0283
  774MOL0     C 4371   8.293   9.626   4.686  0.2778 -1.0040  0.4604
  774MOL0     N 4372   8.413   9.695   4.728  0.4883 -0.2476 -0.2856
  774MOL0     C 4373   8.420   9.830   4.743 -0.0188 -0.0078 -0.1792
  774MOL0     C 4374   8.531   9.856   4.808 -0.2845 -0.6160 -0.7039
  774MOL0     C 4375   8.579   9.997   4.846 -0.6417 -0.1899 -0.2771
  774MOL0     C 4376   8.708  10.027   4.782 -0.4670  0.6591 -0.4071
  774MOL0     C 4377   8.758  10.171   4.786  0.0349  0.4781  0.1480
  774MOL0     C 4378   8.903  10.198   4.761 -0.0880 -0.8594  0.0262
  774MOL0     O 4379   8.977  10.154   4.869 -0.2139  0.3278  0.0891
  774MOL0     C 4380   9.116  10.155   4.868 -0.3392 -0.3610 -0.1698
  774MOL0     C 4381   9.192  10.243   4.783  0.6014  0.4342 -0.5087
  774MOL0     C 4382   9.331  10.219   4.766  0.3473  0.0911 -0.9653
  774MOL0     C 4383   9.397  10.116   4.831  0.0821  0.2781 -0.2179
  774MOL0     C 4384   9.548  10.100   4.820  0.5633 -0.4909 -0.5194
  774MOL0     O 4385   9.598   9.992   4.893 -0.0461  0.0368  0.3061
  774MOL0     C 4386   9.731   9.968   4.866  0.3739  0.4742  0.1308
  774MOL0     C 4387   9.776   9.846   4.820  0.5646  0.8799 -0.2057
  774MOL0     C 4388   9.917   9.820   4.807  0.0659 -0.0275 -0.5209
  774MOL0     C 4389  10.016   9.914   4.853  0.8524  0.5072 -0.4851
  774MOL0     O 4390  10.145   9.877   4.837  0.2519  0.0133 -0.6644
  774MOL0     C 4391  10.234   9.902   4.946  0.1978  0.1046  0.3425
  774MOL0     C 4392  10.383   9.895   4.896  0.7256  0.5291 -1.5836
  774MOL0     C 4393  10.482   9.869   5.007 -0.0409  0.3250  0.5292
  774MOL0     C 4394  10.628   9.880   4.946  0.9691 -0.2823 -0.8474
  774MOL0     C 4395  10.731   9.899   5.057  0.4343  0.6963 -0.6252
  774MOL0     C 4396  10.865   9.927   4.995  0.0451  0.1121 -0.3768
  774MOL0     C 4397  10.974   9.922   5.105 -0.6333 -0.6073  0.8931
  774MOL0     C 4398  10.960  10.030   5.216  0.5010  0.3797  0.5717
  774MOL0    Cl 4399  10.948  10.197   5.149  0.1726 -0.0368  0.1063
  774MOL0     C 4400   9.975  10.031   4.915 -0.4103  0.3092  0.1466
  774MOL0     C 4401   9.829  10.049   4.919 -0.7309  0.0027 -1.0255
  774MOL0     O 4402   9.616  10.173   4.752 -0.5488 -0.3088 -0.4270
  774MOL0     C 4403   9.326  10.031   4.910 -0.7203  0.1482  0.0373
  774MOL0     C 4404   9.184  10.041   4.927 -0.0202 -0.2445 -0.5715
  774MOL0     N 4405   8.596   9.745   4.839  0.1993 -0.3151 -0.4678
  774MOL0     N 4406   8.522   9.644   4.793  0.5455 -0.1437  0.1816
  774MOL0     C 4407   7.629   9.410   4.067  0.1725 -0.3294  0.4516
  774MOL0     C 4408   7.524   9.467   3.999 -0.3524 -0.5101  0.0171
  774MOL0     C 4409   7.353   9.743   3.652  0.3909 -0.3491  0.1499
  774MOL0     C 4410   7.375   9.852   3.575 -0.5031 -0.2862  0.3859
  774MOL0     C 4411   7.314   9.867   3.450 -0.3726  0.0020  0.0334
  774MOL0     C 4412   7.225   9.780   3.391 -0.0034 -0.4758 -0.0590
  774MOL0     O 4413   7.177   9.822   3.266  0.8701  0.3274  0.3159
  774MOL0     C 4414   7.080   9.737   3.191  0.7721 -0.2106 -0.3050
  774MOL0     C 4415   7.055   9.796   3.050 -0.3801 -0.4769 -0.1878
  774MOL0     C 4416   7.029   9.955   3.050 -1.1228  0.8811  0.4254
  774MOL0     C 4417   6.897   9.984   2.991  0.6453  0.1855  0.1104
  774MOL0     C 4418   6.793   9.917   3.059  0.7561  0.1832 -0.3987
  774MOL0     C 4419   6.690   9.878   3.112  0.0510  0.3471  0.3000
  774MOL0     C 4420   7.196   9.665   3.475 -0.3932 -0.5943 -0.1954
  774MOL0     C 4421   7.246   9.651   3.606 -0.3736 -0.4054 -0.6471
  774MOL0     C 4422   7.201   9.531   3.692  0.3292  0.1698 -0.5739
  774MOL0     H 4423   7.678   9.688   3.811 -0.9415  0.0366  0.1223
  774MOL0     H 4424   7.865   9.624   3.972  1.0014 -0.9436  0.6542
  774MOL0     H 4425   8.043   9.411   4.202 -1.1116 -1.5092  0.6749
  774MOL0     H 4426   8.007   9.513   4.052 -0.6140 -1.1547 -0.5586
  774MOL0     H 4427   7.963   9.578   4.346  2.6681 -2.4990 -1.1843
  774MOL0     H 4428   7.857   9.655   4.224  0.0231  0.0081  1.1220
  774MOL0     H 4429   8.053   9.811   4.302  0.6766  0.0465  0.8843
  774MOL0     H 4430   8.040   9.775   4.129 -0.9713 -0.1782  0.6151
  774MOL0     H 4431   8.191   9.562   4.299 -2.3818 -0.2248 -0.5017
  774MOL0     H 4432   8.221   9.635   4.138 -2.6139  0.4325 -0.8812
  774MOL0     H 4433   8.403   9.722   4.280 -0.4299 -0.4846 -0.8831
  774MOL0     H 4434   8.288   9.844   4.264 -2.1802 -0.4099 -1.4384
  774MOL0     H 4435   8.381   9.806   4.486  1.1499 -1.2594  2.8115
  774MOL0     H 4436   8.202   9.808   4.502 -1.0537 -0.5843 -1.7731
  774MOL0     H 4437   8.354   9.545   4.491 -2.8052 -0.7847 -3.3647
  774MOL0     H 4438   8.186   9.559   4.527 -0.5615 -0.9709  2.0069
  774MOL0     H 4439   8.209   9.686   4.724  1.2171 -0.0595  1.1171
  774MOL0     H 4440   8.287   9.530   4.739  1.9536 -1.3399  0.0787
  774MOL0     H 4441   8.345   9.907   4.721 -1.2048 -0.4934  1.9039
  774MOL0     H 4442   8.501  10.072   4.827 -0.7404  0.1285  1.1885
  774MOL0     H 4443   8.592   9.998   4.955  1.3529  3.0213 -0.4346
  774MOL0     H 4444   8.789   9.960   4.813  1.8103  2.9774 -1.0262
  774MOL0     H 4445   8.688  10.004   4.677 -2.1249  1.5503 -0.3158
  774MOL0     H 4446   8.748  10.206   4.889 -1.8961 -0.0695  0.1840
  774MOL0     H 4447   8.697  10.228   4.715 -0.8180  1.0764  1.3215
  774MOL0     H 4448   8.910  10.304   4.735 -1.8251 -0.4928  0.8489
  774MOL0     H 4449   8.947  10.143   4.678  2.1613 -2.7296  2.3137
  774MOL0     H 4450   9.127  10.316   4.737 -0.7709  0.9261  2.0443
  774MOL0     H 4451   9.386  10.279   4.694  0.7473  1.5545  0.4885
  774MOL0     H 4452   9.702   9.774   4.786 -0.8667  1.1264  2.1438
  774MOL0     H 4453   9.949   9.732   4.752  0.0663  1.2436 -2.6230
  774MOL0     H 4454  10.226  10.000   4.995  0.9952 -0.3592  1.4381
  774MOL0     H 4455  10.224   9.826   5.024  1.5146 -2.9520 -2.2573
  774MOL0     H 4456  10.408   9.813   4.827 -2.2649 -0.3002 -1.8458
  774MOL0     H 4457  10.409   9.983   4.837 -0.1810  0.8633 -1.5026
  774MOL0     H 4458  10.472   9.940   5.090  1.0539  1.7871 -0.5432
  774MOL0     H 4459  10.460   9.771   5.050  3.0233 -0.2106  1.1596
  774MOL0     H 4460  10.641   9.961   4.874  0.9059  0.4852 -0.0208
  774MOL0     H 4461  10.639   9.789   4.886  1.0112  0.4012 -1.9105
  774MOL0     H 4462  10.732   9.810   5.121  0.5183  0.8104 -0.4662
  774MOL0     H 4463  10.700   9.983   5.120 -0.3790  1.7468 -2.3792
  774MOL0     H 4464  10.888   9.858   4.914 -0.3548 -0.7320  0.2114
  774MOL0     H 4465  10.862  10.024   4.944  0.4628 -0.4028 -1.4093
  774MOL0     H 4466  11.068   9.935   5.051  0.3288 -2.1357  2.0854
  774MOL0     H 4467  10.974   9.824   5.154 -0.0683  0.0304  2.2121
  774MOL0     H 4468  10.872   9.993   5.269  1.6266 -1.8079  1.0628
  774MOL0     H 4469  11.042  10.019   5.288  3.4794 -0.1582 -2.6288
  774MOL0     H 4470  10.054  10.097   4.950  0.3137 -0.9898  1.0348
  774MOL0     H 4471   9.795  10.146   4.954  1.0428  0.1429  0.4771
  774MOL0     H 4472   9.383   9.948   4.950  3.5045  4.1821  3.3592
  774MOL0     H 4473   9.139   9.962   4.987 -2.0693  1.9290  0.9546
  774MOL0     H 4474   7.604   9.321   4.125 -2.0916 -0.3958 -0.5214
  774MOL0     H 4475   7.427   9.431   4.030 -0.9387 -0.1250 -1.3052
  774MOL0     H 4476   7.453   9.925   3.593 -2.2137  2.1002 -1.2997
  774MOL0     H 4477   7.339   9.960   3.400 -2.6485  0.8214  0.3162
  774MOL0     H 4478   6.989   9.751   3.250 -0.6519  0.2448 -2.4920
  774MOL0     H 4479   7.119   9.635   3.205  0.5702 -0.1021  1.1938
  774MOL0     H 4480   6.974   9.739   3.004 -0.7412 -1.7398  1.8478
  774MOL0     H 4481   7.148   9.789   2.993  0.3689  0.9583  0.7837
  774MOL0     H 4482   7.107   9.998   2.987 -2.5024  3.2963  0.2229
  774MOL0     H 4483   7.032  10.007   3.146 -1.1282  1.0519  0.3334
  774MOL0     H 4484   6.885  10.092   2.991 -3.0420 -0.1176 -0.1771
  774MOL0     H 4485   6.902   9.944   2.889  0.1190  0.6110 -0.0830
  774MOL0     H 4486   6.611   9.850   3.177  0.5810 -0.9735  0.4043
  774MOL0     H 4487   7.124   9.590   3.445 -0.6378 -1.0456  1.4022
  774MOL0     H 4488   7.185   9.557   3.797  1.8124  0.3967 -0.3822
  774MOL0     H 4489   7.107   9.494   3.650  1.6391 -0.6118 -3.0374
  774MOL0     H 4490   7.276   9.453   3.675  0.7142  0.3815  0.1100
  775MOL0     O 4491   7.666   9.756  10.350 -0.2328 -0.2014  0.0207
  775MOL0     C 4492   7.687   9.827  10.256 -0.5473  0.2567  0.1621
  775MOL0     O 4493   7.622   9.937  10.220 -0.6043  0.0518  0.6370
  775MOL0     C 4494   7.525   9.984  10.307  0.1514 -0.4471  0.1295
  775MOL0     C 4495   7.392   9.969  10.275  0.3996  0.8555 -0.2402
  775MOL0     C 4496   7.294  10.032  10.350 -0.6730  0.3206  0.7185
  775MOL0     C 4497   7.334  10.130  10.440  0.6728  0.2200 -0.2025
  775MOL0     O 4498   7.252  10.217  10.508  0.6767  0.5759  0.6665
  775MOL0     C 4499   7.129  10.160  10.552  0.3976 -0.0788 -0.1879
  775MOL0     C 4500   7.079  10.263  10.650 -0.2717  0.3185  0.5267
  775MOL0     C 4501   6.988  10.208  10.751 -0.2264  0.2490 -0.4503
  775MOL0     C 4502   6.890  10.099  10.696  0.2651  0.1169  0.6710
  775MOL0     C 4503   6.757  10.087  10.780 -0.3245 -0.0983 -0.9333
  775MOL0     C 4504   6.770  10.038  10.926  0.2462  0.0132 -0.0566
  775MOL0     C 4505   6.656  10.057  11.038  0.5909  0.1078  0.1075
  775MOL0     C 4506   6.707  10.027  11.173  0.3186 -0.3949  0.1484
  775MOL0     N 4507   6.724   9.880  11.194 -0.0700 -0.7996  0.6503
  775MOL0     C 4508   6.636   9.777  11.175  0.6242 -0.1453  0.1724
  775MOL0     C 4509   6.706   9.664  11.187 -0.3115 -1.0456 -0.1477
  775MOL0     C 4510   6.658   9.518  11.179 -0.8933 -0.8068  0.4538
  775MOL0     C 4511   6.765   9.411  11.226  0.4166 -0.1483  0.0582
  775MOL0     C 4512   6.715   9.268  11.188  0.5290 -0.2681  0.3149
  775MOL0     C 4513   6.831   9.165  11.210 -0.6223  0.2130  0.6589
  775MOL0     O 4514   6.917   9.158  11.092 -0.7741  0.8008  0.6341
  775MOL0     C 4515   6.896   9.067  10.984  1.3127 -0.1036 -0.0647
  775MOL0     C 4516   6.777   8.993  10.959 -0.6677  1.1703 -1.2160
  775MOL0     C 4517   6.757   8.925  10.843  0.2900  0.2657 -0.0096
  775MOL0     C 4518   6.855   8.911  10.735  0.6064 -0.1082 -0.0125
  775MOL0     C 4519   6.830   8.843  10.615 -0.6174 -0.2502 -0.2384
  775MOL0     O 4520   6.947   8.800  10.547  0.4420 -0.2081  0.2156
  775MOL0     C 4521   6.945   8.741  10.419  0.2811  0.3278  0.1870
  775MOL0     C 4522   6.870   8.783  10.310  0.8885 -0.3048 -0.0351
  775MOL0     C 4523   6.871   8.721  10.184 -0.3223 -1.0731 -0.0052
  775MOL0     C 4524   6.945   8.607  10.171  0.0540  0.7435 -0.0675
  775MOL0     O 4525   6.945   8.522  10.061 -0.0902 -0.5877 -0.0083
  775MOL0     C 4526   6.931   8.568   9.932  0.3617  0.2456 -0.0264
  775MOL0     C 4527   6.938   8.450   9.830  0.4554 -0.2915  0.6345
  775MOL0     C 4528   6.994   8.507   9.702  0.1108 -0.0498  0.0441
  775MOL0     C 4529   6.958   8.422   9.574 -1.0942  0.2872  0.6846
  775MOL0     C 4530   7.087   8.350   9.532  0.2205 -0.8378 -0.7020
  775MOL0     C 4531   7.172   8.435   9.427 -0.1023 -0.0254  0.2710
  775MOL0     C 4532   7.312   8.385   9.420 -0.4832  0.4117 -0.1977
  775MOL0     C 4533   7.407   8.448   9.526 -0.3635  0.1330 -0.0339
  775MOL0    Cl 4534   7.562   8.366   9.512 -0.1313  0.1824 -0.2489
  775MOL0     C 4535   7.016   8.554  10.270 -0.1974 -0.1567 -0.4854
  775MOL0     C 4536   7.015   8.616  10.398  0.2565 -0.8962  0.2443
  775MOL0     O 4537   6.713   8.825  10.570 -0.4825  0.0802 -0.1766
  775MOL0     C 4538   6.975   8.981  10.770 -1.3922  0.2391  0.4210
  775MOL0     C 4539   6.993   9.055  10.888 -0.5288  0.1580  0.2587
  775MOL0     N 4540   6.833   9.700  11.225 -0.0846 -0.0673  0.3641
  775MOL0     N 4541   6.841   9.821  11.236 -0.6810 -0.1646  0.2970
  775MOL0     C 4542   7.468  10.151  10.462  0.1682  0.6666 -0.8603
  775MOL0     C 4543   7.570  10.082  10.400 -0.5866  0.4308 -0.5952
  775MOL0     C 4544   7.822   9.803  10.182 -0.6351  0.2320  0.6552
  775MOL0     C 4545   7.920   9.727  10.249 -0.4654 -0.1417 -0.0790
  775MOL0     C 4546   8.049   9.696  10.195  0.0701  0.3470  0.5202
  775MOL0     C 4547   8.087   9.740  10.066 -0.7586  0.3325 -0.0829
  775MOL0     O 4548   8.200   9.699   9.995 -0.2193 -0.5295  0.3883
  775MOL0     C 4549   8.231   9.560  10.000  0.3102  0.0743  0.3674
  775MOL0     C 4550   8.383   9.556  10.032  0.2727  0.0765  0.0833
  775MOL0     C 4551   8.461   9.630   9.912  0.3791  0.9197  1.1097
  775MOL0     C 4552   8.616   9.626   9.927  0.9165 -0.2011 -0.0702
  775MOL0     C 4553   8.699   9.720   9.843  0.2881 -0.6605  0.6873
  775MOL0     C 4554   8.762   9.803   9.777 -0.1431  0.4637 -0.3254
  775MOL0     C 4555   7.990   9.825  10.003 -0.6688 -0.2689  0.1261
  775MOL0     C 4556   7.860   9.856  10.052  0.1374 -0.1665 -0.0135
  775MOL0     C 4557   7.766   9.939   9.969 -0.4045  0.3614  1.0697
  775MOL0     H 4558   7.362   9.897  10.200  2.6856 -1.9174  1.3069
  775MOL0     H 4559   7.192  10.003  10.329 -0.1506  0.0998 -1.8260
  775MOL0     H 4560   7.060  10.137  10.471 -2.2539 -1.7653  2.3546
  775MOL0     H 4561   7.140  10.068  10.611  0.9949 -0.2083 -0.4932
  775MOL0     H 4562   7.019  10.342  10.603 -1.8285  0.2873  2.3344
  775MOL0     H 4563   7.164  10.305  10.704 -0.3691 -0.4031  1.2657
  775MOL0     H 4564   6.935  10.284  10.810  1.8556  0.4865  1.2334
  775MOL0     H 4565   7.055  10.148  10.813 -2.5638 -0.6498  1.4028
  775MOL0     H 4566   6.862  10.125  10.593 -1.9534 -1.4134  0.8318
  775MOL0     H 4567   6.943  10.003  10.695 -0.4346 -0.4248  4.3769
  775MOL0     H 4568   6.719  10.189  10.786  0.1288  0.0040  0.4902
  775MOL0     H 4569   6.691  10.019  10.724 -1.0731 -0.7217  0.6374
  775MOL0     H 4570   6.793   9.931  10.929  2.3564  0.3224 -1.7544
  775MOL0     H 4571   6.859  10.096  10.953  0.1955  2.1109 -3.7179
  775MOL0     H 4572   6.572   9.990  11.019  2.2530 -2.3343  0.9885
  775MOL0     H 4573   6.600  10.151  11.039 -3.1605 -1.9075 -0.9781
  775MOL0     H 4574   6.800  10.084  11.185 -0.0953  0.4883 -0.7171
  775MOL0     H 4575   6.634  10.064  11.244 -0.6441 -0.7231 -0.6417
  775MOL0     H 4576   6.539   9.773  11.128  0.9374 -2.7482 -0.3927
  775MOL0     H 4577   6.565   9.513  11.236 -0.6392  1.0874  1.1102
  775MOL0     H 4578   6.617   9.499  11.079  0.4930  0.2816 -0.3641
  775MOL0     H 4579   6.865   9.425  11.183  0.5581 -3.6906 -1.1607
  775MOL0     H 4580   6.768   9.420  11.335  2.4510  0.0710  0.0273
  775MOL0     H 4581   6.708   9.271  11.079  1.7819 -2.8158  0.0794
  775MOL0     H 4582   6.620   9.245  11.237 -2.4041  1.7846 -3.7942
  775MOL0     H 4583   6.805   9.062  11.238  0.1019 -0.5516 -1.3047
  775MOL0     H 4584   6.898   9.208  11.285  0.8765  1.8122 -1.4864
  775MOL0     H 4585   6.698   8.987  11.034  2.4579 -6.0902  2.5523
  775MOL0     H 4586   6.657   8.884  10.846  0.3737  0.1253  1.5685
  775MOL0     H 4587   6.815   8.875  10.299 -0.9327 -1.4337 -0.7186
  775MOL0     H 4588   6.822   8.768  10.099  1.6931 -0.5126 -0.9242
  775MOL0     H 4589   6.832   8.614   9.920  0.1866 -0.1114  0.0113
  775MOL0     H 4590   7.009   8.640   9.908  0.7815 -0.7251 -1.8136
  775MOL0     H 4591   7.014   8.375   9.856  2.4334  0.4433 -2.4875
  775MOL0     H 4592   6.844   8.399   9.810 -0.8806  2.7474 -1.5404
  775MOL0     H 4593   6.941   8.601   9.682 -2.7431 -1.7659 -1.2278
  775MOL0     H 4594   7.101   8.520   9.717  0.5792 -3.6429  0.7776
  775MOL0     H 4595   6.921   8.473   9.484  0.0871 -0.2877 -0.1551
  775MOL0     H 4596   6.889   8.343   9.603  0.7847 -1.4133  0.7129
  775MOL0     H 4597   7.068   8.251   9.489  0.2822 -0.4978 -1.5289
  775MOL0     H 4598   7.141   8.343   9.626 -0.4176  2.1331 -0.0153
  775MOL0     H 4599   7.125   8.428   9.329  0.7121 -0.4069 -0.0995
  775MOL0     H 4600   7.169   8.539   9.459 -0.6864  0.8385 -2.3615
  775MOL0     H 4601   7.351   8.401   9.318 -0.6700  1.9259 -0.0594
  775MOL0     H 4602   7.321   8.279   9.447  3.8049  0.9655  1.3923
  775MOL0     H 4603   7.417   8.551   9.493 -1.5273  0.1242 -0.4441
  775MOL0     H 4604   7.355   8.448   9.623 -3.9259  0.3094 -1.7936
  775MOL0     H 4605   7.077   8.466  10.253  0.8143  0.6022 -0.9202
  775MOL0     H 4606   7.080   8.584  10.478 -0.4545 -0.3996  1.0375
  775MOL0     H 4607   7.054   8.967  10.697 -0.4444 -1.4825  1.7076
  775MOL0     H 4608   7.085   9.112  10.901 -0.6619  0.3082  0.5490
  775MOL0     H 4609   7.489  10.226  10.537  4.4448 -1.5417  0.5083
  775MOL0     H 4610   7.674  10.112  10.415  0.3879 -2.6278 -0.5929
  775MOL0     H 4611   7.899   9.702  10.353  1.0511 -1.7206 -0.1132
  775MOL0     H 4612   8.123   9.641  10.251 -2.2853 -4.2377 -0.3172
  775MOL0     H 4613   8.215   9.515   9.901 -4.9858  3.0630 -0.5545
  775MOL0     H 4614   8.193   9.501  10.084  2.7542 -2.6939 -0.3197
  775MOL0     H 4615   8.420   9.453  10.037  2.2543  0.8081  3.2083
  775MOL0     H 4616   8.406   9.595  10.131  1.9749 -5.3029  2.1953
  775MOL0     H 4617   8.434   9.735   9.893 -0.4725  0.3673 -1.1153
  775MOL0     H 4618   8.429   9.581   9.819 -0.3954  3.0649  0.1811
  775MOL0     H 4619   8.620   9.651  10.033 -2.8223 -3.9360  1.2281
  775MOL0     H 4620   8.660   9.525   9.927  4.0084  0.9817  2.3087
  775MOL0     H 4621   8.826   9.879   9.738  0.6224  0.1231  0.2329
  775MOL0     H 4622   8.020   9.845   9.901  3.3854  0.4408  1.2900
  775MOL0     H 4623   7.680   9.877   9.942  0.1637 -1.1960  2.5605
  775MOL0     H 4624   7.738  10.025  10.031  1.0832  0.3181  1.8655
  775MOL0     H 4625   7.813   9.978   9.878 -2.0813 -2.9193 -1.3980
  776MOL0     O 4626   6.176   7.666   8.233 -0.0480  0.2609  0.0848
  776MOL0     C 4627   6.158   7.572   8.155  0.3719 -0.0326 -0.1337
  776MOL0     O 4628   6.259   7.487   8.109 -0.0651 -0.0238 -1.0327
  776MOL0     C 4629   6.391   7.506   8.144 -0.4599 -0.2087  0.0372
  776MOL0     C 4630   6.490   7.542   8.051  0.0955 -0.4820  0.6964
  776MOL0     C 4631   6.621   7.516   8.073 -0.4820 -0.2000 -0.1695
  776MOL0     C 4632   6.669   7.479   8.194  0.4754  0.3487 -0.4791
  776MOL0     O 4633   6.808   7.488   8.216  0.2437 -0.0950 -0.6281
  776MOL0     C 4634   6.839   7.503   8.361 -0.4862  0.4281 -0.4831
  776MOL0     C 4635   6.994   7.508   8.369 -0.8192  0.7758  0.0336
  776MOL0     C 4636   7.055   7.487   8.509 -0.0612  0.2843 -0.5705
  776MOL0     C 4637   7.207   7.542   8.519 -0.1461 -0.5330  0.1083
  776MOL0     C 4638   7.207   7.692   8.540  0.2502  0.4168 -0.6909
  776MOL0     C 4639   7.346   7.760   8.528 -0.2164 -0.3747 -0.1763
  776MOL0     C 4640   7.420   7.735   8.388 -0.1779 -0.5459  0.0550
  776MOL0     C 4641   7.546   7.830   8.374  0.1052  1.6083 -0.9148
  776MOL0     N 4642   7.625   7.813   8.253  0.1679 -0.1662 -0.2749
  776MOL0     C 4643   7.688   7.699   8.215  0.3662  0.4073  0.3265
  776MOL0     C 4644   7.727   7.728   8.097 -0.3329 -0.3787 -0.1598
  776MOL0     C 4645   7.805   7.651   8.002 -0.0507  0.3364  0.6429
  776MOL0     C 4646   7.708   7.598   7.900  0.2932  0.5013 -0.2246
  776MOL0     C 4647   7.777   7.504   7.789  0.1175  0.2302 -1.0706
  776MOL0     C 4648   7.929   7.518   7.750 -0.7480 -0.2561 -0.9676
  776MOL0     O 4649   8.024   7.478   7.852 -0.1648  1.0194 -0.2690
  776MOL0     C 4650   8.079   7.346   7.869 -0.2322  0.2333 -0.2374
  776MOL0     C 4651   8.187   7.327   7.954  0.6619  0.0066  0.4153
  776MOL0     C 4652   8.270   7.214   7.956  0.6073  0.9427 -0.1428
  776MOL0     C 4653   8.240   7.109   7.859  0.5348  0.2771 -0.2218
  776MOL0     C 4654   8.318   6.987   7.869 -0.6366  0.5307 -0.1878
  776MOL0     O 4655   8.432   6.995   7.949  0.0547  0.5370 -0.0629
  776MOL0     C 4656   8.539   6.904   7.935 -0.9885  0.3880  0.1698
  776MOL0     C 4657   8.625   6.900   8.045  0.2584 -0.0497  0.1105
  776MOL0     C 4658   8.730   6.807   8.049  0.2238  0.3338 -0.1505
  776MOL0     C 4659   8.750   6.712   7.950  0.4293 -0.5292 -0.1264
  776MOL0     O 4660   8.850   6.624   7.941 -0.0196 -0.4106 -0.2136
  776MOL0     C 4661   8.988   6.654   7.993  1.3461  0.0223 -0.4368
  776MOL0     C 4662   9.072   6.538   7.954  0.4580 -0.2248 -0.2422
  776MOL0     C 4663   9.213   6.559   8.002 -0.1963  0.2432  0.1673
  776MOL0     C 4664   9.294   6.436   7.998 -0.1885  0.6426  0.7018
  776MOL0     C 4665   9.444   6.452   7.996 -0.4289  0.3473 -0.4416
  776MOL0     C 4666   9.501   6.492   8.124 -0.5915 -0.8834  0.2775
  776MOL0     C 4667   9.650   6.503   8.120  0.3191  0.8395  0.6537
  776MOL0     C 4668   9.721   6.362   8.116  0.7014  0.4866  0.1324
  776MOL0    Cl 4669   9.893   6.358   8.080 -0.2358 -0.1994 -0.3494
  776MOL0     C 4670   8.671   6.719   7.832  0.3068 -0.0015 -0.0585
  776MOL0     C 4671   8.568   6.814   7.829  0.3118 -1.4940 -0.7263
  776MOL0     O 4672   8.275   6.885   7.820  0.4435  0.4636 -0.6141
  776MOL0     C 4673   8.125   7.116   7.776  0.1389  0.7339  0.1139
  776MOL0     C 4674   8.040   7.233   7.796  0.4034  1.0735 -0.0935
  776MOL0     N 4675   7.703   7.860   8.065  0.5784 -0.6113 -0.4090
  776MOL0     N 4676   7.629   7.913   8.164  0.0632  0.4487  0.4781
  776MOL0     C 4677   6.572   7.436   8.289 -0.7108  0.5796  1.1164
  776MOL0     C 4678   6.433   7.456   8.263 -0.0386  0.5479 -0.7855
  776MOL0     C 4679   6.016   7.562   8.115 -0.3065 -0.1736  0.6964
  776MOL0     C 4680   5.907   7.600   8.201 -1.4686 -1.0696  0.0918
  776MOL0     C 4681   5.775   7.581   8.159  0.3010 -0.8974 -0.7865
  776MOL0     C 4682   5.742   7.533   8.032 -0.4024  0.4225 -0.3235
  776MOL0     O 4683   5.605   7.527   7.980  0.3420 -0.0353  0.4428
  776MOL0     C 4684   5.506   7.513   8.084  0.4795  0.4315  0.1847
  776MOL0     C 4685   5.363   7.486   8.024 -0.8623 -0.1912  0.3432
  776MOL0     C 4686   5.310   7.621   7.967 -0.0280  0.5516  0.6288
  776MOL0     C 4687   5.166   7.598   7.910 -0.5993  0.4634 -0.1291
  776MOL0     C 4688   5.110   7.722   7.855 -0.0160 -1.1632  0.0392
  776MOL0     C 4689   5.056   7.814   7.797 -0.0474 -0.1803 -0.1144
  776MOL0     C 4690   5.845   7.498   7.948 -0.1500  0.8416 -0.2200
  776MOL0     C 4691   5.980   7.507   7.987 -0.1633 -0.0825 -0.0080
  776MOL0     C 4692   6.079   7.454   7.886  0.9968  0.3062  0.6140
  776MOL0     H 4693   6.471   7.572   7.948  3.1075 -2.7274 -0.6744
  776MOL0     H 4694   6.680   7.545   7.987 -4.0390  2.1638 -2.0800
  776MOL0     H 4695   6.800   7.594   8.407 -0.5451  0.4202 -0.5178
  776MOL0     H 4696   6.803   7.414   8.414  1.2246  0.9231  1.6251
  776MOL0     H 4697   7.023   7.606   8.331 -3.8946  0.6230 -3.3061
  776MOL0     H 4698   7.031   7.433   8.298  1.2817  0.9511  0.8814
  776MOL0     H 4699   7.065   7.379   8.519  0.1960  0.2913 -0.7470
  776MOL0     H 4700   7.001   7.531   8.593 -0.7604 -0.1549 -0.7804
  776MOL0     H 4701   7.258   7.495   8.604 -2.7545  1.3350  2.9018
  776MOL0     H 4702   7.265   7.518   8.429 -0.5479  1.1897 -0.6457
  776MOL0     H 4703   7.136   7.735   8.468 -1.4401 -2.0097 -0.6208
  776MOL0     H 4704   7.165   7.712   8.639  0.1309 -0.6927 -0.4990
  776MOL0     H 4705   7.331   7.867   8.547  3.7716  0.0451  1.5780
  776MOL0     H 4706   7.403   7.704   8.604  1.0641 -1.4871 -1.8824
  776MOL0     H 4707   7.361   7.766   8.301  1.4182  1.1351 -0.4870
  776MOL0     H 4708   7.461   7.633   8.382  0.1616 -0.4520  0.7487
  776MOL0     H 4709   7.502   7.930   8.371 -1.6039  0.8761 -2.5419
  776MOL0     H 4710   7.619   7.826   8.456  0.4487  0.2816 -1.2555
  776MOL0     H 4711   7.704   7.600   8.257 -0.3932  0.8372  1.6984
  776MOL0     H 4712   7.887   7.712   7.962 -1.3307  1.2091 -0.7691
  776MOL0     H 4713   7.855   7.568   8.053  1.4260  1.0461  0.4102
  776MOL0     H 4714   7.627   7.542   7.947 -2.4193  2.0096 -2.7338
  776MOL0     H 4715   7.645   7.678   7.858 -1.7000 -1.1237 -0.5069
  776MOL0     H 4716   7.714   7.504   7.700 -0.7931  0.1454 -0.4383
  776MOL0     H 4717   7.768   7.401   7.826 -0.0481  0.4673 -0.4301
  776MOL0     H 4718   7.948   7.625   7.732 -0.0208  0.3428  2.6593
  776MOL0     H 4719   7.936   7.455   7.661 -2.3483 -0.4093 -1.0259
  776MOL0     H 4720   8.214   7.415   8.012 -2.7942  1.2097  0.4663
  776MOL0     H 4721   8.349   7.208   8.031  0.4606  0.8162  0.0035
  776MOL0     H 4722   8.619   6.988   8.108  1.3359  0.4591 -0.4682
  776MOL0     H 4723   8.796   6.809   8.135  1.1071  0.2806 -0.8072
  776MOL0     H 4724   9.021   6.743   7.938 -1.8577 -1.0306 -4.6448
  776MOL0     H 4725   8.985   6.662   8.102  1.2267  0.0289 -0.4401
  776MOL0     H 4726   9.031   6.455   8.012 -0.7402  2.3223  2.8237
  776MOL0     H 4727   9.070   6.528   7.845  2.0400  4.4528 -0.9179
  776MOL0     H 4728   9.264   6.631   7.938 -2.1331  3.3737  1.8634
  776MOL0     H 4729   9.218   6.604   8.102  0.2826  3.7393 -1.3100
  776MOL0     H 4730   9.264   6.383   7.907 -0.6083 -1.5915  2.0405
  776MOL0     H 4731   9.269   6.368   8.080 -1.5298  0.6360  0.3236
  776MOL0     H 4732   9.459   6.532   7.923 -0.9237 -0.3874 -1.3760
  776MOL0     H 4733   9.494   6.359   7.967 -1.8720 -1.1488  1.5387
  776MOL0     H 4734   9.465   6.591   8.153  0.9223 -1.0482  3.0368
  776MOL0     H 4735   9.464   6.426   8.203  0.6210 -2.9432 -0.7772
  776MOL0     H 4736   9.679   6.573   8.199  2.5240  0.6624  0.0615
  776MOL0     H 4737   9.667   6.555   8.025 -0.6284 -0.8321 -0.4765
  776MOL0     H 4738   9.690   6.312   8.208 -0.9431  1.4665  0.1457
  776MOL0     H 4739   9.672   6.302   8.039 -2.9200 -0.8279  3.1295
  776MOL0     H 4740   8.682   6.659   7.742 -0.8034 -1.1680  0.5538
  776MOL0     H 4741   8.500   6.829   7.745  1.9868  0.5870 -1.8261
  776MOL0     H 4742   8.109   7.044   7.697  1.7418  1.3094 -0.7938
  776MOL0     H 4743   7.944   7.228   7.745  0.4616  0.6997 -0.1741
  776MOL0     H 4744   6.603   7.399   8.386 -2.0122  0.3703  1.4806
  776MOL0     H 4745   6.359   7.413   8.329  0.6868  2.6793  1.5415
  776MOL0     H 4746   5.937   7.657   8.289 -0.7637  0.4382 -1.0860
  776MOL0     H 4747   5.702   7.624   8.227  1.3528  0.2166 -0.3061
  776MOL0     H 4748   5.506   7.612   8.131  2.1121 -0.1681  1.5423
  776MOL0     H 4749   5.526   7.423   8.142  0.2343 -1.0360 -1.8987
  776MOL0     H 4750   5.289   7.451   8.097  0.3590 -3.0354  0.3231
  776MOL0     H 4751   5.381   7.401   7.957  0.2398  0.6553 -0.4825
  776MOL0     H 4752   5.378   7.661   7.891 -0.4921  1.0205  0.4548
  776MOL0     H 4753   5.301   7.688   8.053 -3.1159  1.6734 -0.4393
  776MOL0     H 4754   5.169   7.522   7.831 -0.5161 -0.1862  0.4883
  776MOL0     H 4755   5.101   7.563   7.991 -1.8548 -1.2880 -1.8094
  776MOL0     H 4756   4.996   7.885   7.743 -2.2303 -1.3451  0.6727
  776MOL0     H 4757   5.819   7.455   7.852  1.5873 -2.9690  0.8297
  776MOL0     H 4758   6.134   7.369   7.927  1.8769 -0.0994 -1.2608
  776MOL0     H 4759   6.025   7.412   7.800  0.9234  0.8987  0.3626
  776MOL0     H 4760   6.147   7.532   7.851  2.9092 -1.2161  0.7519
  777MOL0     O 4761   1.971   5.223  11.163  0.6618 -0.2750  0.0954
  777MOL0     C 4762   2.017   5.171  11.267  0.1481 -0.5538  0.0026
  777MOL0     O 4763   2.145   5.123  11.281 -0.2591  0.0292  0.3430
  777MOL0     C 4764   2.244   5.139  11.186  0.2332  0.3750  0.9858
  777MOL0     C 4765   2.348   5.040  11.180  0.8329 -0.9502  0.6637
  777MOL0     C 4766   2.459   5.055  11.099  0.0754  0.1764  0.1805
  777MOL0     C 4767   2.460   5.160  11.002 -0.5455  0.0089 -1.3547
  777MOL0     O 4768   2.573   5.167  10.921  0.6964  0.1266  0.4843
  777MOL0     C 4769   2.669   5.274  10.953  0.0222 -0.6174  0.5442
  777MOL0     C 4770   2.778   5.280  10.847 -0.1781 -0.3796 -0.5507
  777MOL0     C 4771   2.888   5.368  10.905  0.4623 -0.2927 -0.4946
  777MOL0     C 4772   3.017   5.348  10.827  0.1495  0.5872  0.1461
  777MOL0     C 4773   3.132   5.425  10.887 -0.2962 -0.5056 -0.6412
  777MOL0     C 4774   3.193   5.350  11.017 -0.6101  0.2715  0.0190
  777MOL0     C 4775   3.314   5.420  11.061 -0.1188 -0.3973  0.2327
  777MOL0     C 4776   3.428   5.319  11.097 -0.0785 -0.2131  0.6520
  777MOL0     N 4777   3.529   5.386  11.181  0.2087 -0.2632  0.8536
  777MOL0     C 4778   3.649   5.424  11.143 -0.1420 -0.2738  0.0636
  777MOL0     C 4779   3.706   5.468  11.256  0.2131 -0.3057 -0.0627
  777MOL0     C 4780   3.853   5.508  11.272 -1.2873  0.2074 -0.2773
  777MOL0     C 4781   3.886   5.534  11.424  0.2002 -0.1235  0.5612
  777MOL0     C 4782   3.844   5.666  11.470  0.3200 -0.3322  0.6901
  777MOL0     C 4783   3.886   5.704  11.611 -0.6832  0.3191 -0.1165
  777MOL0     O 4784   4.013   5.760  11.627  0.1234 -1.3549 -0.0571
  777MOL0     C 4785   4.112   5.683  11.664 -0.0397 -0.4516  0.4361
  777MOL0     C 4786   4.232   5.738  11.635  0.0456 -1.0510  0.5761
  777MOL0     C 4787   4.355   5.680  11.648 -0.0892 -0.0600 -0.1327
  777MOL0     C 4788   4.360   5.546  11.706 -0.8018 -0.2401 -0.6671
  777MOL0     C 4789   4.484   5.478  11.741 -0.3115 -0.4753  0.5553
  777MOL0     O 4790   4.594   5.544  11.691  1.2519 -0.2468  0.9292
  777MOL0     C 4791   4.720   5.492  11.702 -1.5054 -0.5836 -0.2482
  777MOL0     C 4792   4.821   5.542  11.618  1.3006  0.0638 -1.5036
  777MOL0     C 4793   4.944   5.493  11.611 -0.6572  0.2539  0.1523
  777MOL0     C 4794   4.993   5.388  11.694 -0.1165 -0.0934  0.1037
  777MOL0     O 4795   5.113   5.339  11.668 -0.5723  0.5460  0.0593
  777MOL0     C 4796   5.163   5.242  11.755 -0.5965 -0.2676 -0.4851
  777MOL0     C 4797   5.303   5.223  11.699 -1.2706  0.9074  0.2347
  777MOL0     C 4798   5.389   5.128  11.775  0.2260 -0.8952  0.7002
  777MOL0     C 4799   5.505   5.085  11.688 -0.3410  0.1995  0.9020
  777MOL0     C 4800   5.612   5.004  11.760 -1.1802 -0.7014 -1.0936
  777MOL0     C 4801   5.699   5.086  11.854  0.0006 -0.7126 -0.9148
  777MOL0     C 4802   5.738   5.028  11.992 -0.1008 -0.3901  0.7719
  777MOL0     C 4803   5.797   5.134  12.087  0.4562 -0.4793 -0.6484
  777MOL0    Cl 4804   5.840   5.072  12.241 -0.0008 -0.9214 -0.1753
  777MOL0     C 4805   4.897   5.335  11.777 -0.1952 -0.0280 -0.0161
  777MOL0     C 4806   4.764   5.387  11.786 -0.4636  0.7254  0.2665
  777MOL0     O 4807   4.480   5.370  11.805  0.1100  0.0535 -0.3066
  777MOL0     C 4808   4.237   5.491  11.751 -0.1946 -0.0055  0.1871
  777MOL0     C 4809   4.106   5.556  11.727 -0.9394  0.6845 -0.8320
  777MOL0     N 4810   3.615   5.461  11.358  0.0152 -0.0399  0.0924
  777MOL0     N 4811   3.510   5.401  11.311 -0.2836  0.2874  0.2216
  777MOL0     C 4812   2.357   5.257  11.003  0.0783 -0.3522 -0.4909
  777MOL0     C 4813   2.250   5.246  11.099  0.0724 -0.1875  0.7483
  777MOL0     C 4814   1.916   5.130  11.367  0.0314  0.0463 -0.5600
  777MOL0     C 4815   1.941   5.008  11.426  0.3157  0.1654 -0.3792
  777MOL0     C 4816   1.842   4.940  11.511 -0.7592 -0.3746 -0.3138
  777MOL0     C 4817   1.731   5.017  11.549  0.4810 -0.2971  0.3733
  777MOL0     O 4818   1.645   4.970  11.648 -0.1490  0.2685  0.7054
  777MOL0     C 4819   1.673   4.836  11.699  0.0286  0.3892 -0.4505
  777MOL0     C 4820   1.552   4.794  11.786 -0.2103 -0.4115 -0.2738
  777MOL0     C 4821   1.567   4.681  11.891 -0.4485 -0.8993  0.5560
  777MOL0     C 4822   1.528   4.545  11.841  0.8173  0.5888 -0.7186
  777MOL0     C 4823   1.551   4.451  11.953 -0.3829 -0.2393  0.2479
  777MOL0     C 4824   1.564   4.359  12.033 -0.4205  0.2355 -0.5317
  777MOL0     C 4825   1.714   5.152  11.505 -0.0433  0.3102 -0.1148
  777MOL0     C 4826   1.813   5.207  11.416 -0.0843  0.1355  0.2700
  777MOL0     C 4827   1.793   5.360  11.384  0.2749  0.1029 -0.0750
  777MOL0     H 4828   2.335   4.959  11.251 -0.2782 -1.2153  0.1665
  777MOL0     H 4829   2.533   4.978  11.116 -0.2091 -0.1875 -0.1970
  777MOL0     H 4830   2.616   5.368  10.935  3.7653  1.4928 -0.3155
  777MOL0     H 4831   2.701   5.269  11.058 -0.3492  1.3288  0.7751
  777MOL0     H 4832   2.749   5.316  10.748  0.1821 -1.1962 -0.9567
  777MOL0     H 4833   2.817   5.179  10.833 -0.2109 -0.5020  0.2285
  777MOL0     H 4834   2.908   5.327  11.005 -0.1513  0.0495 -0.2236
  777MOL0     H 4835   2.869   5.475  10.899 -0.6692 -0.5437 -1.6233
  777MOL0     H 4836   3.043   5.242  10.820 -0.9175  0.2164  1.4281
  777MOL0     H 4837   3.004   5.373  10.721 -3.2503  0.2061  0.3754
  777MOL0     H 4838   3.211   5.418  10.813 -1.2933  0.1835 -1.8069
  777MOL0     H 4839   3.102   5.526  10.917 -0.5561 -1.0817  1.1554
  777MOL0     H 4840   3.117   5.341  11.096  1.2627 -0.5108  1.8430
  777MOL0     H 4841   3.227   5.253  10.979 -2.1608 -0.0668 -0.5886
  777MOL0     H 4842   3.290   5.482  11.147  0.1255 -0.1960  0.1558
  777MOL0     H 4843   3.350   5.480  10.977 -1.6110 -2.2813 -1.8929
  777MOL0     H 4844   3.392   5.231  11.151 -2.1371 -0.1731 -0.5292
  777MOL0     H 4845   3.479   5.291  11.005 -0.6992  1.9563 -0.4369
  777MOL0     H 4846   3.692   5.430  11.043  3.5805  0.7204  1.5416
  777MOL0     H 4847   3.917   5.431  11.228 -0.2592  1.0296 -0.2564
  777MOL0     H 4848   3.863   5.598  11.212 -0.3087  0.7104  0.6081
  777MOL0     H 4849   3.846   5.454  11.487 -0.0634 -1.3758 -1.1076
  777MOL0     H 4850   3.995   5.532  11.432  0.1788 -0.8969  0.7097
  777MOL0     H 4851   3.737   5.687  11.462  0.3560 -0.8479 -1.7484
  777MOL0     H 4852   3.890   5.742  11.406  0.9763 -1.1730  0.1445
  777MOL0     H 4853   3.871   5.619  11.678  2.0329  0.6439  1.0408
  777MOL0     H 4854   3.823   5.789  11.639 -1.0984 -0.4693  1.4513
  777MOL0     H 4855   4.222   5.831  11.579 -2.3142 -1.3604  0.3731
  777MOL0     H 4856   4.444   5.735  11.620 -0.2092  1.1670  1.7152
  777MOL0     H 4857   4.790   5.625  11.556 -3.0142 -0.7955 -0.8304
  777MOL0     H 4858   5.019   5.535  11.545 -1.5733 -0.1169 -1.1583
  777MOL0     H 4859   5.167   5.273  11.860  0.3699 -0.7593 -0.3711
  777MOL0     H 4860   5.098   5.155  11.740  0.8487 -1.8541  1.8624
  777MOL0     H 4861   5.295   5.186  11.596  0.3017  0.4480  0.2594
  777MOL0     H 4862   5.369   5.310  11.693  1.7183 -1.2700 -1.2772
  777MOL0     H 4863   5.420   5.175  11.869  1.6126  0.0748 -0.1884
  777MOL0     H 4864   5.327   5.043  11.804  1.5074 -0.8633  3.9239
  777MOL0     H 4865   5.557   5.164  11.634 -2.8456  1.5499  0.3722
  777MOL0     H 4866   5.453   5.018  11.619 -0.1883  1.3351 -0.3473
  777MOL0     H 4867   5.682   4.967  11.684  2.8934 -0.6934  2.3127
  777MOL0     H 4868   5.570   4.913  11.804  2.2147 -2.3136 -0.8034
  777MOL0     H 4869   5.793   5.101  11.800  0.1938  2.7738  0.1523
  777MOL0     H 4870   5.645   5.177  11.878 -0.5358 -0.8826 -1.4419
  777MOL0     H 4871   5.810   4.950  11.967  0.3196  0.2423 -0.0714
  777MOL0     H 4872   5.643   4.993  12.032  0.2586 -0.9515  1.1514
  777MOL0     H 4873   5.882   5.181  12.039  1.1122 -2.4809 -1.5443
  777MOL0     H 4874   5.723   5.215  12.093  0.9999  0.0220 -0.6618
  777MOL0     H 4875   4.930   5.249  11.835  1.4294  1.3431  1.1998
  777MOL0     H 4876   4.706   5.344  11.866 -0.5428 -2.0120 -1.1579
  777MOL0     H 4877   4.240   5.391  11.792  2.2475 -0.6999 -1.4589
  777MOL0     H 4878   4.014   5.511  11.762  0.7390 -1.7356  0.7987
  777MOL0     H 4879   2.364   5.341  10.934 -2.2000 -2.0332 -2.9592
  777MOL0     H 4880   2.175   5.323  11.086 -0.8070 -1.3727 -2.1037
  777MOL0     H 4881   2.029   4.949  11.400 -0.3846 -0.5839 -1.1129
  777MOL0     H 4882   1.877   4.848  11.557  0.6746  0.7607  0.9543
  777MOL0     H 4883   1.761   4.827  11.764 -1.7900 -1.5770  1.9513
  777MOL0     H 4884   1.668   4.761  11.620 -3.6478  0.1289 -0.1208
  777MOL0     H 4885   1.472   4.760  11.719  0.5610 -3.6187  0.2750
  777MOL0     H 4886   1.538   4.884  11.847 -2.2593  0.7689 -2.2800
  777MOL0     H 4887   1.500   4.691  11.977  0.0247 -2.2566  1.1236
  777MOL0     H 4888   1.672   4.682  11.922  0.2623  0.8161 -1.7058
  777MOL0     H 4889   1.423   4.543  11.808 -0.2863 -1.4611  2.4596
  777MOL0     H 4890   1.596   4.518  11.760  1.7657  2.5734 -0.6467
  777MOL0     H 4891   1.577   4.279  12.102  1.1624  2.8664  2.4770
  777MOL0     H 4892   1.630   5.209  11.544 -0.3163  0.2784 -0.6430
  777MOL0     H 4893   1.721   5.413  11.448  0.0313 -0.5214  0.1772
  777MOL0     H 4894   1.895   5.397  11.400 -0.1907  0.7382  1.6948
  777MOL0     H 4895   1.759   5.367  11.281  1.3308  1.1405 -0.3799
  778MOL0     O 4896   7.994   5.294   3.429 -0.1091  0.4208  0.1214
  778MOL0     C 4897   8.006   5.175   3.448  0.7642  0.0152  0.1189
  778MOL0     O 4898   8.115   5.114   3.510  0.2870 -0.5780  0.1558
  778MOL0     C 4899   8.223   5.201   3.528 -0.2893  0.5735  0.2764
  778MOL0     C 4900   8.250   5.255   3.656 -0.4308 -0.0350 -0.1516
  778MOL0     C 4901   8.359   5.348   3.686  0.3512  0.1835  0.1291
  778MOL0     C 4902   8.445   5.375   3.590  0.2417  0.5705  0.3311
  778MOL0     O 4903   8.543   5.447   3.641  0.4934 -0.4012  0.4198
  778MOL0     C 4904   8.673   5.457   3.570  1.1717 -0.6162  0.9355
  778MOL0     C 4905   8.775   5.493   3.682 -0.1648 -0.0767  0.7391
  778MOL0     C 4906   8.903   5.512   3.598 -0.8219  0.3592  0.1684
  778MOL0     C 4907   9.025   5.549   3.672  0.6265 -0.1238  0.1054
  778MOL0     C 4908   9.130   5.615   3.591 -0.5261  0.1806 -0.6172
  778MOL0     C 4909   9.273   5.630   3.656 -0.4404  0.0110  0.2559
  778MOL0     C 4910   9.286   5.746   3.755  0.3244  0.5166 -0.6138
  778MOL0     C 4911   9.446   5.778   3.780  0.4037 -0.2354  0.2281
  778MOL0     N 4912   9.500   5.685   3.878 -0.4282  0.4735  0.2228
  778MOL0     C 4913   9.603   5.595   3.846 -0.3619  1.1125  0.8980
  778MOL0     C 4914   9.618   5.517   3.954 -0.6878  0.4308  0.9407
  778MOL0     C 4915   9.695   5.391   3.954 -0.2374  0.5041 -0.8684
  778MOL0     C 4916   9.822   5.400   4.043  0.3419 -0.2395 -0.1646
  778MOL0     C 4917   9.828   5.285   4.146 -0.2531 -0.2095  0.6915
  778MOL0     C 4918   9.948   5.295   4.240  0.2045 -1.2954  0.3607
  778MOL0     O 4919   9.957   5.177   4.318 -0.0878  0.3002  0.1647
  778MOL0     C 4920  10.053   5.146   4.411  0.1533  1.6838  0.8975
  778MOL0     C 4921  10.051   5.020   4.477 -0.0061 -0.1484 -0.1523
  778MOL0     C 4922  10.147   4.996   4.580 -0.2998  0.3016  0.1274
  778MOL0     C 4923  10.250   5.088   4.614  1.0211 -0.6976  0.1136
  778MOL0     C 4924  10.343   5.060   4.719 -0.5641  0.0264  0.3425
  778MOL0     O 4925  10.315   4.970   4.821  0.7178 -0.6372  0.4931
  778MOL0     C 4926  10.398   4.934   4.917  0.6766 -0.2227  0.3151
  778MOL0     C 4927  10.396   4.795   4.948 -0.0156  0.4581 -1.3312
  778MOL0     C 4928  10.461   4.756   5.055 -1.7094  0.3676 -0.5305
  778MOL0     C 4929  10.546   4.842   5.127 -0.5458  0.0524 -0.2923
  778MOL0     O 4930  10.620   4.769   5.218 -0.1037 -0.1907  0.1867
  778MOL0     C 4931  10.734   4.837   5.277 -0.3026  0.1844  0.3466
  778MOL0     C 4932  10.847   4.731   5.311 -0.5267  0.2916  0.9415
  778MOL0     C 4933  10.813   4.638   5.419  0.1854  1.3678 -0.1568
  778MOL0     C 4934  10.934   4.589   5.492 -0.2683 -0.0041 -0.3918
  778MOL0     C 4935  10.894   4.503   5.613 -0.3851  0.3915 -0.5064
  778MOL0     C 4936  11.010   4.443   5.682 -0.3243  0.0259 -0.0761
  778MOL0     C 4937  10.977   4.334   5.784  0.0493 -0.3954  0.4287
  778MOL0     C 4938  11.093   4.246   5.836  0.2306 -0.4022  0.3949
  778MOL0    Cl 4939  11.209   4.356   5.911  0.0028 -0.4047  0.1482
  778MOL0     C 4940  10.562   4.981   5.090  0.0087  0.2635 -0.0740
  778MOL0     C 4941  10.478   5.022   4.993  0.7821 -0.7527  0.4207
  778MOL0     O 4942  10.446   5.127   4.712  0.5111 -0.0654 -0.3738
  778MOL0     C 4943  10.247   5.213   4.551  0.3037 -0.4840  0.0340
  778MOL0     C 4944  10.153   5.238   4.453  1.0670  0.2397  0.2196
  778MOL0     N 4945   9.540   5.565   4.053 -0.1950 -0.5531  0.8003
  778MOL0     N 4946   9.468   5.671   4.009  0.6910 -0.3760  0.5357
  778MOL0     C 4947   8.427   5.330   3.465 -1.2590 -0.0983 -0.0203
  778MOL0     C 4948   8.321   5.241   3.431  1.5701  0.1423 -0.2755
  778MOL0     C 4949   7.889   5.090   3.407 -0.0315  0.5560 -1.0225
  778MOL0     C 4950   7.867   4.983   3.498 -0.0753 -1.0643 -0.6527
  778MOL0     C 4951   7.756   4.902   3.488  0.6862  0.4920  1.0829
  778MOL0     C 4952   7.665   4.925   3.381 -0.3166 -0.4101 -0.5805
  778MOL0     O 4953   7.552   4.855   3.361  0.1424  0.2429 -0.3277
  778MOL0     C 4954   7.484   4.804   3.476  0.2047  0.5181  0.4265
  778MOL0     C 4955   7.340   4.769   3.424  0.2650 -0.7779  0.4654
  778MOL0     C 4956   7.265   4.903   3.385  0.1865  0.0751  0.3846
  778MOL0     C 4957   7.124   4.866   3.324  0.5829 -0.8996  0.3637
  778MOL0     C 4958   7.005   4.870   3.406  0.3103  0.2956  0.0242
  778MOL0     C 4959   6.924   4.851   3.491  0.2678  0.4982 -0.5691
  778MOL0     C 4960   7.689   5.025   3.286  0.2766 -0.8179 -1.7252
  778MOL0     C 4961   7.801   5.109   3.301 -0.6335  0.5114  0.0168
  778MOL0     C 4962   7.824   5.210   3.191  0.5424  0.4767 -0.2923
  778MOL0     H 4963   8.177   5.224   3.730  1.2785 -1.2466  1.1455
  778MOL0     H 4964   8.372   5.391   3.784 -0.9246  1.4287 -0.1965
  778MOL0     H 4965   8.689   5.369   3.507  2.1697  0.7781 -0.8692
  778MOL0     H 4966   8.674   5.542   3.501  0.4414  2.8509  4.7919
  778MOL0     H 4967   8.776   5.419   3.763 -2.2054  0.2734  1.1171
  778MOL0     H 4968   8.743   5.590   3.721 -3.4518 -0.0191 -1.7644
  778MOL0     H 4969   8.882   5.595   3.530 -1.0691 -0.4664 -0.7837
  778MOL0     H 4970   8.919   5.422   3.537 -0.6901 -0.3347  1.2133
  778MOL0     H 4971   9.004   5.615   3.756  2.2434 -0.9193  1.1830
  778MOL0     H 4972   9.071   5.457   3.710  1.6116 -0.1341 -1.0478
  778MOL0     H 4973   9.148   5.554   3.502  0.8730  2.9950 -2.4262
  778MOL0     H 4974   9.098   5.713   3.554  2.4959  1.5527  0.1023
  778MOL0     H 4975   9.294   5.536   3.708  0.2691  1.0385  1.9041
  778MOL0     H 4976   9.344   5.655   3.576 -1.5955  3.9316  0.2782
  778MOL0     H 4977   9.240   5.724   3.852  0.8325 -2.3409 -0.9104
  778MOL0     H 4978   9.239   5.836   3.714  2.2039  1.7755 -0.1170
  778MOL0     H 4979   9.505   5.781   3.688  3.0976  0.9012  1.8721
  778MOL0     H 4980   9.450   5.880   3.820  1.4727  0.4999 -1.6473
  778MOL0     H 4981   9.635   5.570   3.745 -0.1915 -0.0721  1.2294
  778MOL0     H 4982   9.620   5.320   3.991  0.8252  0.3776  1.1803
  778MOL0     H 4983   9.704   5.375   3.846 -2.1615 -0.5401 -0.9157
  778MOL0     H 4984   9.908   5.392   3.977  1.9982  2.4362  1.4817
  778MOL0     H 4985   9.824   5.503   4.082  1.6028  0.9388 -3.0514
  778MOL0     H 4986   9.839   5.193   4.087  0.1186 -0.1535  0.6772
  778MOL0     H 4987   9.742   5.276   4.214  0.4177 -1.5337  1.4229
  778MOL0     H 4988   9.924   5.383   4.300 -0.4931 -0.8683 -0.5233
  778MOL0     H 4989  10.034   5.303   4.173 -1.6064 -1.9321 -2.1922
  778MOL0     H 4990   9.977   4.946   4.450 -1.0659  0.5878  0.6651
  778MOL0     H 4991  10.149   4.896   4.624  0.9642 -0.1021 -0.7877
  778MOL0     H 4992  10.323   4.730   4.902  0.0996 -1.0544  0.5321
  778MOL0     H 4993  10.446   4.657   5.097 -1.8023  1.8378  3.3454
  778MOL0     H 4994  10.770   4.915   5.210 -1.5109  1.3378  0.9973
  778MOL0     H 4995  10.707   4.870   5.378  1.2365 -1.2395  1.2863
  778MOL0     H 4996  10.881   4.676   5.223  0.0059  1.8025  0.1497
  778MOL0     H 4997  10.938   4.779   5.345 -0.6223  1.0556  0.1708
  778MOL0     H 4998  10.740   4.679   5.490 -0.6147 -0.8914  0.4043
  778MOL0     H 4999  10.759   4.554   5.375 -1.3430  0.4421  3.1863
  778MOL0     H 5000  10.993   4.672   5.532  0.1321  0.0909 -1.1528
  778MOL0     H 5001  11.000   4.532   5.426  0.2656 -0.6827  0.6952
  778MOL0     H 5002  10.834   4.421   5.572  1.3022 -0.6461 -0.9968
  778MOL0     H 5003  10.834   4.569   5.675 -2.8068 -1.7501 -0.4064
  778MOL0     H 5004  11.066   4.386   5.607  0.3889  0.4625  0.1194
  778MOL0     H 5005  11.081   4.512   5.728 -0.5873  0.1001  0.2224
  778MOL0     H 5006  10.903   4.280   5.724 -2.3680  2.2057  0.8642
  778MOL0     H 5007  10.918   4.367   5.870 -2.2304 -1.5857 -0.6046
  778MOL0     H 5008  11.055   4.177   5.913  4.1050  0.4038  3.3551
  778MOL0     H 5009  11.145   4.190   5.758 -1.5331 -1.1054 -0.3150
  778MOL0     H 5010  10.630   5.050   5.138  0.1903 -1.3544  2.1263
  778MOL0     H 5011  10.486   5.126   4.963  0.3576 -1.2048 -1.3670
  778MOL0     H 5012  10.309   5.298   4.578 -2.6764  0.8979  3.2650
  778MOL0     H 5013  10.133   5.340   4.420  1.1310 -0.7615 -3.3517
  778MOL0     H 5014   8.508   5.339   3.393  0.7551 -2.1637  1.8235
  778MOL0     H 5015   8.314   5.191   3.335 -1.4164  0.0045 -0.0841
  778MOL0     H 5016   7.937   4.963   3.578  0.5457 -1.7792 -1.3522
  778MOL0     H 5017   7.739   4.823   3.561 -2.2727 -0.2560 -0.2783
  778MOL0     H 5018   7.485   4.876   3.558  0.3103 -0.6197  1.4487
  778MOL0     H 5019   7.517   4.714   3.528 -1.7014  0.8805  2.3905
  778MOL0     H 5020   7.301   4.713   3.510  2.3497 -0.1895  1.8682
  778MOL0     H 5021   7.339   4.694   3.344  3.3280 -0.2506 -0.1975
  778MOL0     H 5022   7.321   4.966   3.316 -1.2988  0.1966 -0.7772
  778MOL0     H 5023   7.252   4.955   3.480  2.5506 -2.5277  2.2975
  778MOL0     H 5024   7.108   4.939   3.243 -0.3351  0.2016  1.5033
  778MOL0     H 5025   7.135   4.772   3.268  1.5164 -1.1671  0.9666
  778MOL0     H 5026   6.849   4.848   3.568  1.3712  2.7222  0.6969
  778MOL0     H 5027   7.626   5.023   3.198 -1.7646  2.6872 -0.5596
  778MOL0     H 5028   7.927   5.211   3.153 -0.3933 -1.5140 -3.2123
  778MOL0     H 5029   7.760   5.190   3.104  1.7623  2.9384 -1.8787
  778MOL0     H 5030   7.807   5.315   3.216 -0.7883  1.0264 -3.0796
  779MOL0     O 5031   1.558   9.714   5.196  0.7883 -0.4027  0.2857
  779MOL0     C 5032   1.650   9.635   5.201  0.5604  0.2234  0.4873
  779MOL0     O 5033   1.645   9.497   5.208  0.2303  0.5162  0.4861
  779MOL0     C 5034   1.530   9.416   5.171 -0.0356 -0.1515  0.3690
  779MOL0     C 5035   1.528   9.287   5.228  0.3887 -0.7239 -0.5976
  779MOL0     C 5036   1.422   9.202   5.204 -0.0589 -0.0513  0.0601
  779MOL0     C 5037   1.310   9.242   5.121 -0.7840 -0.6032  0.2059
  779MOL0     O 5038   1.203   9.182   5.092 -0.3027  0.2737  0.1479
  779MOL0     C 5039   1.217   9.041   5.090 -0.1218 -0.0187 -0.3538
  779MOL0     C 5040   1.118   8.968   5.001  0.3335 -0.2867 -0.2104
  779MOL0     C 5041   1.153   8.829   4.963 -0.4707  0.0787 -0.0210
  779MOL0     C 5042   1.032   8.748   4.920  0.0566 -0.1687 -0.9700
  779MOL0     C 5043   1.064   8.596   4.902 -0.6633  0.2137 -0.2007
  779MOL0     C 5044   1.087   8.524   5.038 -0.3738 -0.3918  0.0482
  779MOL0     C 5045   1.028   8.378   5.037 -0.5834  0.2270 -0.4168
  779MOL0     C 5046   1.073   8.291   4.913 -0.2276 -0.1694 -0.0339
  779MOL0     N 5047   1.219   8.283   4.905  0.8285 -0.5355  0.1113
  779MOL0     C 5048   1.288   8.337   4.802 -1.1891  0.1922 -0.7416
  779MOL0     C 5049   1.416   8.290   4.834 -0.8553  0.3120  0.1199
  779MOL0     C 5050   1.539   8.324   4.750  0.4967 -0.0005  0.7661
  779MOL0     C 5051   1.589   8.206   4.687 -0.5584  0.1597  0.1559
  779MOL0     C 5052   1.487   8.148   4.581 -0.1763  0.0210 -0.5200
  779MOL0     C 5053   1.556   8.034   4.513 -1.1909  1.2467  0.0625
  779MOL0     O 5054   1.682   8.071   4.442 -0.2955  0.8490 -0.2680
  779MOL0     C 5055   1.742   7.978   4.371 -0.8427  0.0124  0.4490
  779MOL0     C 5056   1.738   7.845   4.396 -1.1276 -0.3945  0.0564
  779MOL0     C 5057   1.802   7.755   4.317 -0.5049 -0.3909  0.4648
  779MOL0     C 5058   1.879   7.791   4.207 -0.0329  0.0551 -1.0257
  779MOL0     C 5059   1.953   7.687   4.139 -0.7850 -0.2615 -0.0051
  779MOL0     O 5060   2.007   7.721   4.013 -0.1778  0.1343  0.0726
  779MOL0     C 5061   2.119   7.653   3.950  0.8250  0.3540 -0.5607
  779MOL0     C 5062   2.217   7.585   4.031  0.9492 -0.6463  0.2518
  779MOL0     C 5063   2.329   7.537   3.973  0.7363 -0.3429 -0.1907
  779MOL0     C 5064   2.351   7.556   3.837 -0.5353  0.7564 -0.3803
  779MOL0     O 5065   2.471   7.503   3.795  0.5292 -0.1331 -0.5893
  779MOL0     C 5066   2.504   7.489   3.660 -0.0581  0.2587 -0.6973
  779MOL0     C 5067   2.605   7.372   3.640  0.1716  0.1952 -0.6157
  779MOL0     C 5068   2.756   7.414   3.671  0.2326  0.4217 -0.3948
  779MOL0     C 5069   2.777   7.380   3.821  0.2733  0.1597  0.0854
  779MOL0     C 5070   2.919   7.437   3.869  0.7985 -0.2898 -0.2037
  779MOL0     C 5071   3.038   7.376   3.793 -0.2969 -0.5187 -0.3868
  779MOL0     C 5072   3.168   7.441   3.828  0.6548 -0.1652 -0.3105
  779MOL0     C 5073   3.234   7.400   3.952  0.0040  0.6986 -0.4212
  779MOL0    Cl 5074   3.386   7.484   4.006 -0.1501 -0.5794  0.1700
  779MOL0     C 5075   2.253   7.614   3.755 -0.3848 -0.4478 -0.3816
  779MOL0     C 5076   2.137   7.671   3.816  0.1896 -0.1945 -0.0755
  779MOL0     O 5077   1.965   7.580   4.193 -0.7016  0.4546 -0.5061
  779MOL0     C 5078   1.888   7.926   4.180 -0.2000 -1.1028 -0.4601
  779MOL0     C 5079   1.833   8.020   4.274 -0.3426 -0.1612  0.0861
  779MOL0     N 5080   1.421   8.211   4.950 -0.3188  0.1615 -1.1779
  779MOL0     N 5081   1.297   8.196   4.983  0.2147  0.2293 -0.3331
  779MOL0     C 5082   1.312   9.372   5.064  0.5127  0.9107 -0.0894
  779MOL0     C 5083   1.420   9.466   5.094 -0.7147 -0.0033 -0.2801
  779MOL0     C 5084   1.778   9.693   5.208 -0.0064  0.4003 -0.2708
  779MOL0     C 5085   1.788   9.828   5.234 -0.1440  0.2661 -0.8181
  779MOL0     C 5086   1.906   9.898   5.213 -0.4762  0.7229 -0.2562
  779MOL0     C 5087   2.020   9.811   5.186  0.5415 -0.4314 -0.2301
  779MOL0     O 5088   2.149   9.870   5.177  0.8388  1.0589  0.2907
  779MOL0     C 5089   2.247   9.801   5.097  0.2322  0.4193  0.5479
  779MOL0     C 5090   2.331   9.916   5.054  0.3480  0.1383  0.0848
  779MOL0     C 5091   2.420   9.875   4.939 -0.1222 -0.4772 -1.0343
  779MOL0     C 5092   2.539   9.982   4.933 -0.4346  0.1424  0.0831
  779MOL0     C 5093   2.651   9.950   5.030  0.3336 -0.1635 -0.6150
  779MOL0     C 5094   2.745   9.905   5.102  1.1706 -0.1221 -0.0645
  779MOL0     C 5095   2.016   9.673   5.190  0.7173 -0.9795 -0.0591
  779MOL0     C 5096   1.898   9.611   5.204 -0.5561  1.0034 -0.1707
  779MOL0     C 5097   1.908   9.464   5.224 -0.0095  0.7946  0.0150
  779MOL0     H 5098   1.612   9.258   5.291 -0.6940 -1.8099  0.4076
  779MOL0     H 5099   1.421   9.109   5.259 -2.2450 -0.3536 -0.4263
  779MOL0     H 5100   1.317   9.012   5.057 -1.0743 -4.0296 -0.3069
  779MOL0     H 5101   1.202   9.008   5.193 -1.9008 -0.2118 -0.6445
  779MOL0     H 5102   1.106   9.013   4.902  2.2164 -1.5451 -1.0645
  779MOL0     H 5103   1.023   8.965   5.054  0.3420 -0.6357 -0.2156
  779MOL0     H 5104   1.211   8.773   5.037 -0.8911 -1.2174 -0.6289
  779MOL0     H 5105   1.220   8.830   4.876 -1.3615 -2.5507 -0.8427
  779MOL0     H 5106   0.942   8.755   4.982  0.2795  0.5301 -0.7225
  779MOL0     H 5107   1.014   8.781   4.817 -0.1603  1.2601 -0.4859
  779MOL0     H 5108   0.986   8.547   4.844  0.6453 -1.8067 -0.3477
  779MOL0     H 5109   1.158   8.587   4.846 -1.5427 -1.7448 -1.4745
  779MOL0     H 5110   1.196   8.516   5.047 -0.1713 -0.0056 -1.6961
  779MOL0     H 5111   1.054   8.582   5.125 -0.9941  0.3913 -0.6874
  779MOL0     H 5112   0.920   8.381   5.027 -0.6525  0.9204  0.4603
  779MOL0     H 5113   1.053   8.333   5.134 -0.1873  0.4458 -0.4160
  779MOL0     H 5114   1.024   8.195   4.929  0.6787 -0.4711  1.1001
  779MOL0     H 5115   1.034   8.337   4.822  1.1824 -0.1693 -0.6705
  779MOL0     H 5116   1.263   8.393   4.712  0.6161  2.3867  0.0329
  779MOL0     H 5117   1.519   8.395   4.670 -0.7286 -0.8748  0.2557
  779MOL0     H 5118   1.613   8.357   4.822  0.0734 -1.6999  2.0595
  779MOL0     H 5119   1.691   8.217   4.649  0.3648 -0.2940  2.3596
  779MOL0     H 5120   1.611   8.126   4.758 -0.8641 -1.1260 -1.1399
  779MOL0     H 5121   1.456   8.220   4.505 -4.1562  0.5929  1.3969
  779MOL0     H 5122   1.396   8.113   4.631  0.9010 -1.0188  0.7863
  779MOL0     H 5123   1.497   7.986   4.436  1.4912 -3.3137  0.5038
  779MOL0     H 5124   1.571   7.959   4.591 -1.2410  1.7508  0.5626
  779MOL0     H 5125   1.666   7.818   4.472 -0.2632  0.4859  1.2384
  779MOL0     H 5126   1.793   7.650   4.345  1.6006 -0.4147  1.2018
  779MOL0     H 5127   2.201   7.566   4.136 -0.5735  1.2492  0.4239
  779MOL0     H 5128   2.411   7.495   4.031  1.2215 -0.3050 -0.8318
  779MOL0     H 5129   2.416   7.457   3.604 -1.5015  1.8651  0.5551
  779MOL0     H 5130   2.540   7.582   3.616 -1.6932 -0.0178 -2.7600
  779MOL0     H 5131   2.565   7.282   3.687  0.6929  0.8677  1.1828
  779MOL0     H 5132   2.590   7.352   3.533 -1.4658 -1.1197 -0.1886
  779MOL0     H 5133   2.824   7.348   3.616 -0.4588 -1.4377  0.8754
  779MOL0     H 5134   2.780   7.520   3.657 -0.6550  0.7636  0.5718
  779MOL0     H 5135   2.773   7.271   3.825  1.6777  0.1342  1.4261
  779MOL0     H 5136   2.703   7.420   3.891  1.1347  3.9167 -0.9525
  779MOL0     H 5137   2.927   7.414   3.975 -2.0456 -2.4105 -0.3269
  779MOL0     H 5138   2.934   7.545   3.857  4.6346 -0.5821  0.5532
  779MOL0     H 5139   3.038   7.270   3.820 -2.1979 -0.3252  0.5724
  779MOL0     H 5140   3.024   7.384   3.685 -1.3601 -1.9350 -0.3836
  779MOL0     H 5141   3.144   7.546   3.846  1.1635  0.4781 -2.9369
  779MOL0     H 5142   3.237   7.433   3.744 -0.2826 -0.0338 -1.1159
  779MOL0     H 5143   3.165   7.412   4.036  0.1168 -3.4579  0.4642
  779MOL0     H 5144   3.252   7.293   3.941  2.1408  0.9255  0.4255
  779MOL0     H 5145   2.259   7.634   3.649 -2.4499  0.9272 -0.3029
  779MOL0     H 5146   2.066   7.727   3.756 -0.8636 -1.3994  0.0198
  779MOL0     H 5147   1.933   7.976   4.095 -1.2538 -0.8989 -0.9118
  779MOL0     H 5148   1.852   8.127   4.264 -0.2357 -0.1250  0.6244
  779MOL0     H 5149   1.221   9.394   5.009 -0.3934 -2.9470 -0.4114
  779MOL0     H 5150   1.435   9.560   5.040  1.2644 -1.8861 -3.3364
  779MOL0     H 5151   1.702   9.888   5.262 -1.0824 -0.4927 -1.9589
  779MOL0     H 5152   1.918  10.005   5.226 -0.2437  0.7993 -1.0434
  779MOL0     H 5153   2.200   9.764   5.005  0.7012  0.1569  0.4079
  779MOL0     H 5154   2.299   9.718   5.147  1.0065  0.8995  0.5451
  779MOL0     H 5155   2.394   9.943   5.139 -0.6215  1.3994  0.4411
  779MOL0     H 5156   2.277  10.007   5.028  2.1039  1.6492  1.4406
  779MOL0     H 5157   2.363   9.861   4.847 -3.9879 -0.5124  1.1438
  779MOL0     H 5158   2.463   9.777   4.963 -0.2123  0.0171  1.3274
  779MOL0     H 5159   2.582   9.975   4.833  0.2092  1.1706  0.2787
  779MOL0     H 5160   2.511  10.086   4.951  0.8959  0.8315 -1.6291
  779MOL0     H 5161   2.821   9.853   5.157  1.5022  0.6020  0.1746
  779MOL0     H 5162   2.103   9.610   5.172  2.3157  1.3862 -1.1343
  779MOL0     H 5163   2.002   9.429   5.268 -1.8861 -1.6316  2.4348
  779MOL0     H 5164   1.838   9.424   5.299  2.1739 -1.5290  0.9592
  779MOL0     H 5165   1.871   9.419   5.131 -1.9957  1.1602  0.5742
  780MOL0     O 5166   0.880   5.688   8.906 -0.3308 -0.8020 -0.5653
  780MOL0     C 5167   0.841   5.659   8.799 -0.5995  0.5533 -0.1013
  780MOL0     O 5168   0.879   5.549   8.733 -0.3106 -0.0388  0.3128
  780MOL0     C 5169   0.976   5.464   8.776  0.6544  0.7071 -0.0179
  780MOL0     C 5170   1.112   5.494   8.773 -0.5637 -0.2040 -0.3668
  780MOL0     C 5171   1.214   5.393   8.789 -0.1360  0.1477 -0.4145
  780MOL0     C 5172   1.179   5.267   8.827 -1.0289  0.4327 -0.2087
  780MOL0     O 5173   1.289   5.185   8.857  0.3410 -0.6053  0.5926
  780MOL0     C 5174   1.273   5.051   8.905  0.1680 -0.1186  0.2239
  780MOL0     C 5175   1.410   5.015   8.958 -0.1916 -0.2201  0.0177
  780MOL0     C 5176   1.521   5.057   8.862  0.2127 -0.1926 -0.8562
  780MOL0     C 5177   1.509   5.004   8.716 -0.2931 -0.0363 -0.6502
  780MOL0     C 5178   1.641   4.940   8.663 -0.0792  0.2025  0.6772
  780MOL0     C 5179   1.608   4.869   8.534 -0.4741  0.5427 -0.0902
  780MOL0     C 5180   1.740   4.817   8.476 -0.1667  0.3144  0.8239
  780MOL0     C 5181   1.774   4.679   8.535  0.3543  0.6776 -0.5939
  780MOL0     N 5182   1.905   4.619   8.508 -0.3448 -0.4822  0.2301
  780MOL0     C 5183   2.005   4.672   8.422  0.6924 -0.0995  0.2172
  780MOL0     C 5184   2.109   4.591   8.435 -0.0633 -0.2998  0.7934
  780MOL0     C 5185   2.234   4.594   8.342  0.4923  0.7862  1.0450
  780MOL0     C 5186   2.231   4.487   8.228 -0.4628  1.0517  0.2861
  780MOL0     C 5187   2.340   4.507   8.121 -0.8886 -1.0140  0.1483
  780MOL0     C 5188   2.466   4.439   8.160 -1.0105  0.1788 -0.7534
  780MOL0     O 5189   2.440   4.295   8.153 -0.8527  0.4415 -0.7834
  780MOL0     C 5190   2.556   4.221   8.120 -0.9609  0.3728 -0.4825
  780MOL0     C 5191   2.654   4.260   8.030 -0.6347 -0.7339  0.2378
  780MOL0     C 5192   2.772   4.185   8.018 -1.1077 -0.4974  0.3446
  780MOL0     C 5193   2.802   4.065   8.085 -0.1852 -0.1149 -0.5281
  780MOL0     C 5194   2.927   3.977   8.058  0.7674 -0.6289 -0.9106
  780MOL0     O 5195   3.041   4.028   7.988  0.2505  0.1293  0.3854
  780MOL0     C 5196   3.140   3.940   7.954  0.9216 -0.0461 -0.3000
  780MOL0     C 5197   3.251   3.926   8.033 -0.1725 -0.1151  0.1946
  780MOL0     C 5198   3.343   3.832   8.002 -0.9911 -0.3196 -0.3321
  780MOL0     C 5199   3.348   3.762   7.880  0.3360  0.2695 -1.0993
  780MOL0     O 5200   3.454   3.683   7.838 -0.2740 -0.1458 -0.1130
  780MOL0     C 5201   3.558   3.644   7.928  0.2932 -0.0690 -0.2317
  780MOL0     C 5202   3.649   3.536   7.870  0.6322  0.0273  0.7189
  780MOL0     C 5203   3.731   3.479   7.980  0.2061 -0.0569  0.1482
  780MOL0     C 5204   3.778   3.332   7.959 -0.7886  0.3067  0.0819
  780MOL0     C 5205   3.866   3.275   8.073  0.7143  0.3235 -0.9010
  780MOL0     C 5206   4.009   3.327   8.066  0.9927 -0.0628 -0.9889
  780MOL0     C 5207   4.091   3.301   8.200 -0.0572  0.3782 -0.3580
  780MOL0     C 5208   4.241   3.270   8.183  0.6028 -0.3354  0.4782
  780MOL0    Cl 5209   4.314   3.413   8.097  0.2970  0.5675 -0.3017
  780MOL0     C 5210   3.243   3.771   7.788 -1.0051 -1.3486 -0.0982
  780MOL0     C 5211   3.141   3.863   7.830 -0.7946 -0.6111 -0.2846
  780MOL0     O 5212   2.914   3.859   8.096  0.3361 -0.5740  0.1614
  780MOL0     C 5213   2.691   4.011   8.161 -0.1987  0.4981  0.3693
  780MOL0     C 5214   2.569   4.092   8.176 -0.2554  0.7241 -0.5586
  780MOL0     N 5215   2.075   4.488   8.522 -0.2696 -0.1821 -0.4620
  780MOL0     N 5216   1.959   4.505   8.570  0.0819  0.7051 -0.2271
  780MOL0     C 5217   1.040   5.233   8.835  0.3142  0.7340  0.1625
  780MOL0     C 5218   0.945   5.332   8.799  0.9803 -0.2214 -0.6511
  780MOL0     C 5219   0.746   5.740   8.723  0.1185 -0.8903  0.0054
  780MOL0     C 5220   0.761   5.730   8.576  0.1130  0.4911 -0.2493
  780MOL0     C 5221   0.697   5.821   8.497 -0.0317  0.3941  0.1310
  780MOL0     C 5222   0.605   5.908   8.555  0.2705 -0.3590  0.1217
  780MOL0     O 5223   0.548   6.004   8.469 -0.8582 -0.7449 -0.9930
  780MOL0     C 5224   0.537   6.135   8.521  0.0195 -0.1849 -0.7075
  780MOL0     C 5225   0.533   6.244   8.417 -0.7659 -0.6485 -0.0225
  780MOL0     C 5226   0.413   6.229   8.323 -0.8016 -0.3494 -0.4949
  780MOL0     C 5227   0.305   6.330   8.350 -0.5392 -0.0984  0.0053
  780MOL0     C 5228   0.196   6.347   8.250  0.9730 -0.0812  0.4803
  780MOL0     C 5229   0.100   6.360   8.183  0.0372  0.1691 -0.4937
  780MOL0     C 5230   0.576   5.899   8.686  0.8297 -0.1410 -0.0475
  780MOL0     C 5231   0.637   5.815   8.770 -0.9629 -0.3540  0.1135
  780MOL0     C 5232   0.611   5.828   8.916 -0.1410  0.1752  0.4360
  780MOL0     H 5233   1.139   5.596   8.747 -0.5420 -0.3426 -0.9135
  780MOL0     H 5234   1.319   5.422   8.782 -0.3739  0.8918 -1.1742
  780MOL0     H 5235   1.204   5.047   8.990  1.1459 -1.7424  0.9910
  780MOL0     H 5236   1.234   4.981   8.830  3.3894  0.6837 -2.4328
  780MOL0     H 5237   1.431   4.910   8.980 -1.6696 -0.2340  1.5008
  780MOL0     H 5238   1.421   5.062   9.057  1.7861 -2.0494  0.7552
  780MOL0     H 5239   1.606   5.023   8.922  0.7651  0.2564 -1.3706
  780MOL0     H 5240   1.530   5.166   8.857  0.7744 -0.2334 -0.7974
  780MOL0     H 5241   1.435   4.924   8.718 -0.9427  0.4271 -2.9241
  780MOL0     H 5242   1.482   5.079   8.641  1.6750  0.5325 -0.8646
  780MOL0     H 5243   1.720   5.014   8.646 -0.5438  0.4305 -0.5870
  780MOL0     H 5244   1.682   4.875   8.741  1.1865 -1.5860 -1.3559
  780MOL0     H 5245   1.543   4.782   8.545 -0.4635  0.5798  0.2639
  780MOL0     H 5246   1.563   4.934   8.459 -5.5986 -3.2297 -0.8148
  780MOL0     H 5247   1.825   4.883   8.496 -1.5279  1.9814  1.2806
  780MOL0     H 5248   1.719   4.819   8.369  2.0632 -3.7069  0.0706
  780MOL0     H 5249   1.766   4.690   8.644 -1.7271 -1.6503 -0.4302
  780MOL0     H 5250   1.707   4.600   8.501  1.0555 -0.5779  0.8197
  780MOL0     H 5251   2.000   4.756   8.354  1.1893 -2.6625 -3.3005
  780MOL0     H 5252   2.238   4.688   8.287 -1.5906 -0.5558 -1.6536
  780MOL0     H 5253   2.319   4.578   8.409 -0.5981 -1.1053  2.0849
  780MOL0     H 5254   2.240   4.385   8.268  3.1265 -0.6027 -3.9236
  780MOL0     H 5255   2.133   4.497   8.180  0.7057 -0.2883 -2.6620
  780MOL0     H 5256   2.362   4.614   8.110 -1.2763 -0.6150  2.7376
  780MOL0     H 5257   2.317   4.452   8.029 -0.2012 -3.3071  1.2702
  780MOL0     H 5258   2.496   4.484   8.255  1.2064 -1.6523 -0.4904
  780MOL0     H 5259   2.545   4.469   8.091 -1.4034 -0.1192 -1.3489
  780MOL0     H 5260   2.644   4.347   7.965 -2.8705 -0.2447  1.1390
  780MOL0     H 5261   2.847   4.221   7.948 -2.2159  2.2726  0.4487
  780MOL0     H 5262   3.252   3.988   8.122 -1.9078  0.7546 -0.3528
  780MOL0     H 5263   3.426   3.833   8.072 -1.7247  0.7592  0.5373
  780MOL0     H 5264   3.622   3.727   7.959 -0.1327 -0.3295  1.4645
  780MOL0     H 5265   3.500   3.600   8.010 -0.7758  0.3685 -0.7374
  780MOL0     H 5266   3.590   3.461   7.817  1.0021  0.3623 -0.1739
  780MOL0     H 5267   3.715   3.577   7.794 -0.1710  0.6318  0.3366
  780MOL0     H 5268   3.824   3.537   7.986  0.8034 -1.0250  0.5142
  780MOL0     H 5269   3.680   3.484   8.076  0.0432 -2.8436  0.2834
  780MOL0     H 5270   3.837   3.329   7.867 -1.3427  1.8140 -0.3645
  780MOL0     H 5271   3.693   3.265   7.948  0.5793 -1.3240 -1.2234
  780MOL0     H 5272   3.864   3.166   8.069  0.4106  0.0743  2.6654
  780MOL0     H 5273   3.826   3.310   8.169 -2.1200 -2.4848 -0.9204
  780MOL0     H 5274   4.046   3.272   7.979  0.5762  1.7344 -2.3658
  780MOL0     H 5275   4.007   3.433   8.041 -2.9000 -0.0613 -1.3653
  780MOL0     H 5276   4.061   3.211   8.254  1.7784  0.7914  1.4906
  780MOL0     H 5277   4.064   3.388   8.261 -3.5703 -0.9874  0.2713
  780MOL0     H 5278   4.286   3.248   8.280  1.3078  0.4029  0.3235
  780MOL0     H 5279   4.258   3.180   8.123  0.0988 -0.1031 -0.0264
  780MOL0     H 5280   3.257   3.709   7.700 -0.2593 -2.9183  1.0561
  780MOL0     H 5281   3.048   3.862   7.776 -1.0678  2.1864 -0.0148
  780MOL0     H 5282   2.709   3.913   8.203  1.7946  0.5039 -0.3564
  780MOL0     H 5283   2.494   4.057   8.246  0.2077  2.5031  0.8759
  780MOL0     H 5284   1.006   5.130   8.848  0.0935  1.1231  3.9811
  780MOL0     H 5285   0.842   5.299   8.793  0.8690  0.3619 -2.8095
  780MOL0     H 5286   0.822   5.658   8.522 -1.4013 -1.7325  0.8216
  780MOL0     H 5287   0.716   5.826   8.390 -2.4753  3.3328 -0.3123
  780MOL0     H 5288   0.621   6.163   8.585 -0.5633  4.3452 -1.6093
  780MOL0     H 5289   0.447   6.142   8.583  0.8288  0.5494  0.4139
  780MOL0     H 5290   0.622   6.245   8.353 -0.6453  1.4214  0.1094
  780MOL0     H 5291   0.539   6.348   8.451 -0.5709 -0.4328 -0.7134
  780MOL0     H 5292   0.381   6.124   8.326 -0.3100 -0.5132 -0.7800
  780MOL0     H 5293   0.453   6.254   8.224  2.6336 -1.3163  0.5097
  780MOL0     H 5294   0.269   6.312   8.451 -0.5747  1.4428  0.2858
  780MOL0     H 5295   0.357   6.426   8.354  0.6135 -0.6894 -0.1428
  780MOL0     H 5296   0.014   6.373   8.122  0.8160  2.0162 -1.2847
  780MOL0     H 5297   0.506   5.974   8.720  1.1356 -0.9801  2.6441
  780MOL0     H 5298   0.600   5.729   8.961 -0.8157  0.5660  1.1631
  780MOL0     H 5299   0.696   5.878   8.965 -0.1119 -1.5349  2.2685
  780MOL0     H 5300   0.530   5.900   8.934  2.2323  2.8670  1.2354
  781MOL0     O 5301   0.864   5.632   1.119  0.4920  0.2591  0.5731
  781MOL0     C 5302   0.814   5.746   1.110 -0.7978  0.9557 -0.3221
  781MOL0     O 5303   0.885   5.859   1.092 -0.1336 -0.0153  0.2941
  781MOL0     C 5304   1.009   5.860   1.036 -0.5130 -0.2981  0.1715
  781MOL0     C 5305   1.110   5.925   1.102 -0.0500 -0.2298 -0.6146
  781MOL0     C 5306   1.240   5.936   1.048  0.2433 -0.0964 -0.0529
  781MOL0     C 5307   1.263   5.873   0.929 -0.1865  0.0795  0.7916
  781MOL0     O 5308   1.376   5.886   0.851  0.6137  0.6268 -0.7963
  781MOL0     C 5309   1.501   5.880   0.924  0.5873  0.2691  0.0921
  781MOL0     C 5310   1.517   5.761   1.028  0.0364  0.5402  0.8287
  781MOL0     C 5311   1.636   5.778   1.106 -0.0356 -0.3574  0.3319
  781MOL0     C 5312   1.762   5.725   1.048 -0.0312  0.5450 -0.5518
  781MOL0     C 5313   1.871   5.739   1.155  0.2974  0.3335  1.0757
  781MOL0     C 5314   2.006   5.668   1.106  0.4816  0.1671 -0.4086
  781MOL0     C 5315   2.076   5.756   1.005 -0.3456 -0.2753 -0.2347
  781MOL0     C 5316   2.217   5.702   0.973 -0.2399  0.0455 -0.3292
  781MOL0     N 5317   2.214   5.565   0.924 -0.2070 -0.1004  0.9233
  781MOL0     C 5318   2.191   5.536   0.790 -1.5834 -0.1493  0.4586
  781MOL0     C 5319   2.214   5.401   0.787  0.9963  0.0961 -0.1994
  781MOL0     C 5320   2.204   5.320   0.651 -0.0942 -0.0551  0.1394
  781MOL0     C 5321   2.315   5.217   0.645 -0.7760 -0.1953 -0.3542
  781MOL0     C 5322   2.279   5.087   0.740  0.1997  0.3941  0.4024
  781MOL0     C 5323   2.389   4.981   0.717  0.6693  0.2251 -0.0552
  781MOL0     O 5324   2.383   4.887   0.830  0.3906 -0.1437  0.3659
  781MOL0     C 5325   2.500   4.868   0.892 -0.2831  0.1636  0.2973
  781MOL0     C 5326   2.623   4.856   0.829  0.5687 -0.9480 -0.2858
  781MOL0     C 5327   2.738   4.817   0.891  0.0845  0.7346 -0.2465
  781MOL0     C 5328   2.736   4.791   1.030  0.6766 -0.0524  0.1847
  781MOL0     C 5329   2.860   4.738   1.101 -0.5539  0.2050  0.3083
  781MOL0     O 5330   2.963   4.702   1.017  0.3273 -0.6650  0.0684
  781MOL0     C 5331   3.086   4.670   1.081  0.2012 -0.3144  0.1498
  781MOL0     C 5332   3.151   4.752   1.168 -0.3990  0.3343 -0.3268
  781MOL0     C 5333   3.262   4.708   1.225  0.7984 -0.5737  0.4472
  781MOL0     C 5334   3.326   4.598   1.178 -0.8568 -0.1585  0.3511
  781MOL0     O 5335   3.447   4.583   1.235 -0.0009  0.9415 -0.6796
  781MOL0     C 5336   3.543   4.480   1.194  1.2468 -0.4658 -0.6734
  781MOL0     C 5337   3.592   4.510   1.047 -0.2500 -0.0848  0.2356
  781MOL0     C 5338   3.724   4.440   1.016  0.3546 -0.0661 -0.0597
  781MOL0     C 5339   3.720   4.297   1.003  0.5694  0.8004  0.6197
  781MOL0     C 5340   3.854   4.233   0.966 -1.0514 -0.4893  0.7355
  781MOL0     C 5341   3.881   4.237   0.819 -0.2831 -0.6510  0.1627
  781MOL0     C 5342   3.818   4.120   0.740  0.8243 -0.5334 -0.9129
  781MOL0     C 5343   3.841   4.133   0.592 -0.2995  0.3792 -0.4316
  781MOL0    Cl 5344   4.015   4.096   0.553 -0.0532  0.1907 -0.1460
  781MOL0     C 5345   3.269   4.507   1.089  0.6081 -0.7026 -0.4449
  781MOL0     C 5346   3.146   4.553   1.035 -1.2344  0.4534 -0.7628
  781MOL0     O 5347   2.859   4.729   1.221  0.0521 -0.3699 -0.0650
  781MOL0     C 5348   2.614   4.796   1.098  0.0651 -0.7088 -0.4132
  781MOL0     C 5349   2.498   4.840   1.023  0.6653 -0.0386 -0.2975
  781MOL0     N 5350   2.252   5.363   0.914  0.9011  0.8232 -0.1349
  781MOL0     N 5351   2.254   5.455   0.998 -0.0079  0.3335 -0.4803
  781MOL0     C 5352   1.158   5.801   0.863  0.8421 -0.6351 -0.4228
  781MOL0     C 5353   1.033   5.789   0.923 -0.5164 -0.8696  0.3100
  781MOL0     C 5354   0.662   5.759   1.121 -0.2911  0.2919  1.4384
  781MOL0     C 5355   0.582   5.649   1.071  0.1706  0.8723  0.4296
  781MOL0     C 5356   0.447   5.658   1.075  0.0919 -0.4094 -0.2726
  781MOL0     C 5357   0.379   5.772   1.129 -0.2266  0.6654 -0.6102
  781MOL0     O 5358   0.246   5.763   1.158 -0.7536 -0.4830 -0.1074
  781MOL0     C 5359   0.167   5.862   1.089 -0.2884  0.1796  0.2080
  781MOL0     C 5360   0.036   5.803   1.072 -0.7065  0.1289  0.4798
  781MOL0     C 5361   0.041   5.689   0.966 -0.1593 -0.0432  0.5090
  781MOL0     C 5362  -0.094   5.649   0.923 -0.0948 -0.2669  0.0232
  781MOL0     C 5363  -0.076   5.550   0.824 -0.2193  0.3907 -0.5946
  781MOL0     C 5364  -0.080   5.469   0.732 -0.4904  0.6567  1.0777
  781MOL0     C 5365   0.454   5.888   1.162 -0.2470  0.5026 -0.2459
  781MOL0     C 5366   0.599   5.881   1.161 -0.4830  0.4289 -0.1303
  781MOL0     C 5367   0.674   6.009   1.186 -0.4298 -0.4710 -0.5115
  781MOL0     H 5368   1.078   5.981   1.189 -1.0086  0.6021 -1.4844
  781MOL0     H 5369   1.315   5.994   1.099  0.8835 -1.4977  0.6696
  781MOL0     H 5370   1.583   5.881   0.850 -1.6175 -1.2533 -2.5805
  781MOL0     H 5371   1.502   5.969   0.986 -1.5681  0.8554 -0.6166
  781MOL0     H 5372   1.515   5.669   0.968 -0.6630  3.2491 -3.7944
  781MOL0     H 5373   1.428   5.744   1.090  0.2092  0.4547  1.0551
  781MOL0     H 5374   1.623   5.734   1.205 -1.6300 -0.3887  0.1317
  781MOL0     H 5375   1.653   5.884   1.131 -0.9598 -0.0191 -0.4284
  781MOL0     H 5376   1.756   5.616   1.044  1.4960  0.4211 -0.0104
  781MOL0     H 5377   1.796   5.769   0.954 -0.4159  2.1843  0.0342
  781MOL0     H 5378   1.894   5.842   1.182 -0.4923  0.1815  2.3875
  781MOL0     H 5379   1.835   5.688   1.245 -5.3284 -0.8456 -1.4082
  781MOL0     H 5380   2.068   5.656   1.195 -0.2212 -0.6308 -0.0209
  781MOL0     H 5381   1.990   5.576   1.050  1.7878 -0.7459  0.6696
  781MOL0     H 5382   2.096   5.854   1.048 -3.4014  0.9044 -1.2273
  781MOL0     H 5383   2.020   5.759   0.911  1.4408  1.4589 -1.3217
  781MOL0     H 5384   2.257   5.768   0.895  0.9118  3.2744  2.7513
  781MOL0     H 5385   2.293   5.709   1.051 -0.0082  0.7725 -0.6077
  781MOL0     H 5386   2.163   5.608   0.714  1.4988  1.5945  0.7757
  781MOL0     H 5387   2.108   5.269   0.644  0.5970 -1.2535 -1.2247
  781MOL0     H 5388   2.209   5.384   0.563 -2.8378 -2.7664 -2.1941
  781MOL0     H 5389   2.343   5.198   0.541  0.6219 -0.6329  0.0828
  781MOL0     H 5390   2.400   5.267   0.693 -0.7536 -1.5819  1.1723
  781MOL0     H 5391   2.185   5.035   0.722 -0.9464  2.2841  0.7261
  781MOL0     H 5392   2.277   5.124   0.843 -2.3268  0.0161  0.5409
  781MOL0     H 5393   2.483   5.035   0.704  2.1262 -2.1020  0.2453
  781MOL0     H 5394   2.373   4.924   0.625  0.6859 -2.5076  1.5349
  781MOL0     H 5395   2.646   4.884   0.727 -0.0185  0.4007 -0.0612
  781MOL0     H 5396   2.833   4.812   0.840  0.4231 -1.9926  0.4990
  781MOL0     H 5397   3.120   4.853   1.194 -1.7892 -0.4237  1.1298
  781MOL0     H 5398   3.310   4.762   1.306  0.2639 -1.7689  1.5926
  781MOL0     H 5399   3.629   4.489   1.261  0.3137 -2.1799  0.8532
  781MOL0     H 5400   3.500   4.382   1.215 -1.7844  0.9086  0.2779
  781MOL0     H 5401   3.518   4.491   0.968  0.5877  0.6786 -0.7757
  781MOL0     H 5402   3.615   4.617   1.042 -1.5134  0.1836 -0.6196
  781MOL0     H 5403   3.759   4.489   0.925  1.7837 -0.7413  0.1036
  781MOL0     H 5404   3.790   4.464   1.100 -2.0711 -1.0691  2.2902
  781MOL0     H 5405   3.637   4.275   0.935  0.6138  4.0979 -0.6720
  781MOL0     H 5406   3.688   4.251   1.098 -1.0116 -0.9351 -0.6675
  781MOL0     H 5407   3.840   4.127   0.992 -0.9200 -1.5331 -2.9870
  781MOL0     H 5408   3.941   4.279   1.014 -1.5524 -0.5696  1.7674
  781MOL0     H 5409   3.857   4.337   0.779  0.9851  0.8466  2.9131
  781MOL0     H 5410   3.988   4.232   0.797 -0.4889 -2.1757 -0.6266
  781MOL0     H 5411   3.712   4.115   0.766  1.5485  0.9863  3.0552
  781MOL0     H 5412   3.868   4.027   0.767  2.6415  0.8098  0.6505
  781MOL0     H 5413   3.777   4.059   0.544 -1.4774  0.2814  1.1937
  781MOL0     H 5414   3.816   4.233   0.556  2.7278  0.1867 -3.5771
  781MOL0     H 5415   3.313   4.411   1.066  1.0891 -0.6915  0.3773
  781MOL0     H 5416   3.097   4.492   0.960 -1.1865 -0.8580  0.2285
  781MOL0     H 5417   2.613   4.782   1.205 -2.4608  0.4694 -0.2139
  781MOL0     H 5418   2.410   4.871   1.079  0.3365  2.0703 -1.8753
  781MOL0     H 5419   1.180   5.764   0.763 -1.3751 -2.7951 -0.2176
  781MOL0     H 5420   0.958   5.727   0.874 -0.3348  0.6687 -2.0752
  781MOL0     H 5421   0.620   5.551   1.044  0.4665  0.9769  0.4580
  781MOL0     H 5422   0.386   5.572   1.047  1.6562 -1.9453  0.8013
  781MOL0     H 5423   0.224   5.892   1.001  2.9692 -0.4651  1.9338
  781MOL0     H 5424   0.154   5.955   1.146  0.8859  0.4286  0.0993
  781MOL0     H 5425  -0.040   5.874   1.038 -1.9325 -1.0228  0.7260
  781MOL0     H 5426   0.006   5.759   1.168 -0.3475  0.5755  0.7994
  781MOL0     H 5427   0.095   5.600   1.001 -0.2899 -0.6959 -0.9023
  781MOL0     H 5428   0.108   5.724   0.887  1.3497  0.7164  2.0416
  781MOL0     H 5429  -0.149   5.602   1.005  0.1820 -1.3649 -0.4058
  781MOL0     H 5430  -0.148   5.735   0.883 -1.3791 -0.2467  1.6950
  781MOL0     H 5431  -0.092   5.392   0.659 -1.0635  3.2724 -1.7808
  781MOL0     H 5432   0.398   5.976   1.188  1.2284  2.0062 -1.8442
  781MOL0     H 5433   0.713   6.048   1.091 -1.4596 -3.3187 -2.2239
  781MOL0     H 5434   0.611   6.083   1.235  1.0324  0.3425  0.2207
  781MOL0     H 5435   0.754   5.985   1.257 -1.1562  0.5704  0.7089
  782MOL0     O 5436   8.495   3.887   4.515  0.7282 -0.2317 -0.4544
  782MOL0     C 5437   8.536   3.946   4.613 -0.3536 -0.0717 -0.3122
  782MOL0     O 5438   8.671   3.957   4.646 -0.1371 -0.1976 -0.0129
  782MOL0     C 5439   8.768   3.915   4.551 -0.7303  0.8131  0.3282
  782MOL0     C 5440   8.776   3.961   4.420  0.3817  0.7197 -0.7694
  782MOL0     C 5441   8.866   3.912   4.327 -0.7872  0.7399  0.2766
  782MOL0     C 5442   8.959   3.817   4.373  0.3764 -0.1765 -0.4829
  782MOL0     O 5443   9.055   3.751   4.299 -0.3709 -0.0815  0.1842
  782MOL0     C 5444   9.041   3.771   4.163  0.3785 -0.0165  0.8283
  782MOL0     C 5445   9.111   3.647   4.092  0.8741 -0.0870  0.1591
  782MOL0     C 5446   9.246   3.688   4.024  0.5088 -0.1824  0.0071
  782MOL0     C 5447   9.306   3.562   3.958  0.2842 -0.2898 -0.3591
  782MOL0     C 5448   9.423   3.591   3.865 -0.4164 -0.6072  0.9664
  782MOL0     C 5449   9.557   3.591   3.935 -0.1799  0.6318  0.2685
  782MOL0     C 5450   9.662   3.654   3.851 -0.5724 -0.0287  0.1061
  782MOL0     C 5451   9.695   3.592   3.715  0.4819  0.0412 -0.6442
  782MOL0     N 5452   9.817   3.644   3.658 -0.2103  0.3462  0.3607
  782MOL0     C 5453   9.845   3.777   3.628  0.4355  0.4375  0.1707
  782MOL0     C 5454   9.965   3.777   3.581 -0.0794  0.6115 -0.6236
  782MOL0     C 5455  10.052   3.895   3.536  0.2083 -0.3789 -0.3806
  782MOL0     C 5456   9.985   3.950   3.414  0.9916  0.6018  0.2884
  782MOL0     C 5457  10.063   4.058   3.358 -0.4449  0.1337  0.0526
  782MOL0     C 5458   9.992   4.110   3.235  0.3899 -0.0380  0.5407
  782MOL0     O 5459   9.876   4.184   3.270  0.4442 -0.0152  0.1674
  782MOL0     C 5460   9.840   4.264   3.167 -0.3186 -0.2019 -0.9934
  782MOL0     C 5461   9.832   4.233   3.033  0.0247  0.3499  0.5591
  782MOL0     C 5462   9.790   4.317   2.928  0.1246 -0.0776  0.9260
  782MOL0     C 5463   9.763   4.447   2.959 -0.6861 -0.9682 -0.7591
  782MOL0     C 5464   9.726   4.551   2.855  0.0867  0.5746 -0.1698
  782MOL0     O 5465   9.709   4.497   2.726 -0.0739 -0.6504 -0.0028
  782MOL0     C 5466   9.711   4.577   2.612  0.1112 -0.1908 -0.6675
  782MOL0     C 5467   9.823   4.613   2.539  0.0690 -0.2074 -0.4884
  782MOL0     C 5468   9.820   4.687   2.423  0.3995 -0.2542 -0.6787
  782MOL0     C 5469   9.701   4.732   2.370 -0.1285  0.3011  0.2045
  782MOL0     O 5470   9.703   4.818   2.257 -0.1315 -0.2868  0.2291
  782MOL0     C 5471   9.592   4.911   2.240  0.3247 -0.3902 -0.2166
  782MOL0     C 5472   9.657   5.041   2.177  0.6231  0.9878  0.3589
  782MOL0     C 5473   9.548   5.148   2.137 -0.2039  0.1566 -0.1486
  782MOL0     C 5474   9.620   5.273   2.080 -0.0156  0.1873  0.0222
  782MOL0     C 5475   9.511   5.368   2.001  0.4532 -0.4370  0.0496
  782MOL0     C 5476   9.389   5.422   2.089 -0.2129 -0.1734  0.0175
  782MOL0     C 5477   9.414   5.552   2.162  0.1132  0.1584 -0.5036
  782MOL0     C 5478   9.284   5.611   2.210 -0.4791  0.6779 -0.3408
  782MOL0    Cl 5479   9.326   5.767   2.286  0.3786  0.1346 -0.1660
  782MOL0     C 5480   9.590   4.692   2.445  0.2879 -0.6816  0.5578
  782MOL0     C 5481   9.597   4.621   2.559 -0.3188 -0.3644  0.3811
  782MOL0     O 5482   9.723   4.670   2.883 -0.0864  0.2188  0.3860
  782MOL0     C 5483   9.757   4.480   3.094 -0.3041 -0.8708 -0.3935
  782MOL0     C 5484   9.801   4.398   3.197  0.2825  0.7578 -0.2246
  782MOL0     N 5485  10.018   3.652   3.581  0.2212 -0.2219  0.4518
  782MOL0     N 5486   9.926   3.569   3.617  0.3667 -0.3704  0.0643
  782MOL0     C 5487   8.972   3.789   4.507  0.4950 -0.1381  0.4846
  782MOL0     C 5488   8.878   3.832   4.594 -0.2021 -0.4958  0.5451
  782MOL0     C 5489   8.433   4.001   4.704  0.1011  0.2652 -0.1981
  782MOL0     C 5490   8.331   3.906   4.733  0.0226 -0.3260 -0.9211
  782MOL0     C 5491   8.221   3.941   4.817 -1.3929 -0.1832  0.1535
  782MOL0     C 5492   8.218   4.064   4.877  0.3777  0.5612 -0.4904
  782MOL0     O 5493   8.137   4.105   4.980  0.5811 -0.2712 -0.1587
  782MOL0     C 5494   8.074   3.996   5.042  0.5376  0.1824  0.6815
  782MOL0     C 5495   7.987   4.034   5.162  0.1925  0.4913 -0.3222
  782MOL0     C 5496   7.937   3.916   5.237 -0.6443 -0.3042  0.4579
  782MOL0     C 5497   7.853   3.951   5.358  0.6103  0.0946  0.1294
  782MOL0     C 5498   7.765   3.839   5.383  0.4843 -0.0423  0.0913
  782MOL0     C 5499   7.701   3.735   5.405  0.6353 -0.1847  0.0654
  782MOL0     C 5500   8.320   4.149   4.860 -0.4867 -0.1792  0.6265
  782MOL0     C 5501   8.426   4.122   4.770  0.8936  0.0160 -0.1861
  782MOL0     C 5502   8.537   4.222   4.740 -0.5529  0.7818 -0.2607
  782MOL0     H 5503   8.710   4.043   4.392  0.2846  0.6858 -0.6408
  782MOL0     H 5504   8.853   3.938   4.222  1.3529  1.7704  0.2309
  782MOL0     H 5505   8.937   3.750   4.135  1.3640 -1.9242 -1.8470
  782MOL0     H 5506   9.073   3.866   4.118  1.8927 -0.6388  0.5434
  782MOL0     H 5507   9.043   3.607   4.017 -0.5141  0.7167  0.9509
  782MOL0     H 5508   9.122   3.553   4.147 -1.9484 -0.9679 -0.6338
  782MOL0     H 5509   9.320   3.713   4.101  0.5886 -4.4493  1.5891
  782MOL0     H 5510   9.237   3.764   3.946  0.8198 -0.1376  0.0130
  782MOL0     H 5511   9.338   3.500   4.043 -0.1728  0.6813  0.5484
  782MOL0     H 5512   9.230   3.509   3.900 -0.1688 -0.6439  0.5318
  782MOL0     H 5513   9.416   3.515   3.786  1.3211  0.5088 -0.3529
  782MOL0     H 5514   9.403   3.688   3.820  2.7220 -0.2589  0.0305
  782MOL0     H 5515   9.544   3.657   4.021 -1.0340  1.2567 -0.3132
  782MOL0     H 5516   9.587   3.489   3.960  1.8860  1.0122 -0.4678
  782MOL0     H 5517   9.754   3.653   3.910 -2.9241  2.1149  4.2561
  782MOL0     H 5518   9.627   3.758   3.847 -1.3827 -0.2306  1.4020
  782MOL0     H 5519   9.710   3.485   3.729  1.2428  0.1814 -0.3547
  782MOL0     H 5520   9.607   3.597   3.650 -0.6228 -2.0953  0.5511
  782MOL0     H 5521   9.795   3.871   3.650 -1.6232 -0.5619  0.0397
  782MOL0     H 5522  10.055   3.976   3.610  0.4847 -1.0351  0.3433
  782MOL0     H 5523  10.152   3.852   3.526 -0.7852 -2.6655 -1.0081
  782MOL0     H 5524   9.964   3.867   3.345 -1.7974  1.0197  0.5109
  782MOL0     H 5525   9.885   3.973   3.452  1.3491 -2.8789  4.1538
  782MOL0     H 5526  10.164   4.024   3.334  0.4388  2.2383  0.5492
  782MOL0     H 5527  10.069   4.135   3.436 -2.2767 -0.9119  1.2900
  782MOL0     H 5528   9.975   4.023   3.171  0.5352  0.3646 -0.0543
  782MOL0     H 5529  10.062   4.170   3.176 -0.5747  0.2693 -0.3301
  782MOL0     H 5530   9.852   4.128   3.015  1.4662  0.8339 -0.9374
  782MOL0     H 5531   9.768   4.283   2.828  2.8483 -0.4317  0.3675
  782MOL0     H 5532   9.919   4.584   2.581  0.7539 -0.1026 -1.9274
  782MOL0     H 5533   9.910   4.724   2.375 -0.1554  0.4538 -1.1818
  782MOL0     H 5534   9.522   4.866   2.168 -1.4440 -1.1316  1.8574
  782MOL0     H 5535   9.549   4.935   2.338  4.3905 -0.6175  1.8023
  782MOL0     H 5536   9.725   5.076   2.254  2.4113 -0.1720 -0.6225
  782MOL0     H 5537   9.723   5.022   2.092  0.7727  1.5795  0.3423
  782MOL0     H 5538   9.483   5.108   2.059  1.3842 -2.1454 -0.3831
  782MOL0     H 5539   9.485   5.170   2.223 -1.0787  1.6738 -1.1256
  782MOL0     H 5540   9.697   5.244   2.009  0.9467 -1.9601  1.8318
  782MOL0     H 5541   9.655   5.331   2.166 -0.4381  0.3469  0.0920
  782MOL0     H 5542   9.457   5.311   1.924 -0.0138  2.6329 -2.0705
  782MOL0     H 5543   9.566   5.452   1.957  1.5546  0.9944  3.8154
  782MOL0     H 5544   9.303   5.438   2.023  0.6557 -0.4266 -1.2079
  782MOL0     H 5545   9.369   5.352   2.171  0.2328  1.2719  1.3935
  782MOL0     H 5546   9.470   5.625   2.103  1.3039 -1.4132 -1.3864
  782MOL0     H 5547   9.484   5.520   2.239  0.8485 -4.4194 -2.6987
  782MOL0     H 5548   9.223   5.631   2.121  0.0156 -1.6569 -1.3026
  782MOL0     H 5549   9.233   5.540   2.276 -0.9939 -0.3331 -1.7622
  782MOL0     H 5550   9.490   4.713   2.408  0.5205 -1.5052 -0.5935
  782MOL0     H 5551   9.501   4.600   2.605 -0.4880 -2.4557 -0.8247
  782MOL0     H 5552   9.714   4.576   3.124 -1.7590 -1.7767  0.5723
  782MOL0     H 5553   9.777   4.436   3.296 -0.1083 -1.9794  0.8160
  782MOL0     H 5554   9.044   3.718   4.547  0.3261 -0.0127  1.0294
  782MOL0     H 5555   8.874   3.795   4.696  0.0730 -2.0642  0.0047
  782MOL0     H 5556   8.342   3.804   4.696  0.9568 -0.1620 -1.1274
  782MOL0     H 5557   8.145   3.867   4.843 -1.2964 -1.0757 -1.9036
  782MOL0     H 5558   8.157   3.934   5.077  0.7235  0.3548  0.5508
  782MOL0     H 5559   8.001   3.947   4.977 -0.7234  1.9626  0.6734
  782MOL0     H 5560   7.905   4.104   5.145  1.9732  3.1581  1.3054
  782MOL0     H 5561   8.042   4.088   5.240 -1.0984 -2.5296  2.9923
  782MOL0     H 5562   8.017   3.847   5.265 -0.0562  0.1117 -0.1736
  782MOL0     H 5563   7.881   3.865   5.158 -1.4254  1.2650 -0.0560
  782MOL0     H 5564   7.921   3.950   5.443 -1.3260 -2.5268  1.8027
  782MOL0     H 5565   7.796   4.044   5.351  1.2159  0.5248  0.8598
  782MOL0     H 5566   7.632   3.656   5.428 -0.8367  2.0242  4.3108
  782MOL0     H 5567   8.331   4.242   4.916 -3.0772  2.7923 -3.2062
  782MOL0     H 5568   8.606   4.190   4.661 -0.4463 -2.3788  0.9452
  782MOL0     H 5569   8.499   4.323   4.723  1.2763  1.7204  0.8258
  782MOL0     H 5570   8.600   4.230   4.830 -2.0175 -0.6132  0.9418
  783MOL0     O 5571   3.813   0.065  11.346  0.3163  0.4119 -0.3306
  783MOL0     C 5572   3.797  -0.052  11.379  0.6429  0.1477 -0.1610
  783MOL0     O 5573   3.877  -0.123  11.471  0.3815 -0.2842  0.1166
  783MOL0     C 5574   3.968  -0.042  11.546  0.3159  0.2145 -1.2567
  783MOL0     C 5575   3.929   0.061  11.626 -0.7241  0.2973 -0.1331
  783MOL0     C 5576   4.026   0.111  11.716  1.1628  0.4203 -0.0502
  783MOL0     C 5577   4.167   0.084  11.705 -0.5954  0.3844 -0.3626
  783MOL0     O 5578   4.275   0.136  11.771  0.4257 -0.5041 -0.2029
  783MOL0     C 5579   4.268   0.272  11.813 -0.3242  0.0308  0.9523
  783MOL0     C 5580   4.404   0.322  11.875  0.7945  0.0357 -0.4608
  783MOL0     C 5581   4.380   0.465  11.921 -1.2432  0.0243  0.4597
  783MOL0     C 5582   4.292   0.465  12.049 -0.0752  0.5540 -0.3504
  783MOL0     C 5583   4.287   0.588  12.136 -0.1959  0.0679 -0.0786
  783MOL0     C 5584   4.203   0.566  12.264  0.3580  1.1480 -0.2921
  783MOL0     C 5585   4.216   0.682  12.365 -0.7330 -0.4922 -0.5992
  783MOL0     C 5586   4.127   0.658  12.489 -0.5813 -1.3246 -0.2006
  783MOL0     N 5587   3.985   0.680  12.470  0.2431 -0.4047  0.6135
  783MOL0     C 5588   3.925   0.806  12.429 -0.1947 -0.7841  0.0706
  783MOL0     C 5589   3.799   0.782  12.389 -0.0246  0.4960  0.0275
  783MOL0     C 5590   3.701   0.894  12.365 -0.3746 -0.0896  0.3392
  783MOL0     C 5591   3.579   0.882  12.466 -0.4626  0.0001 -0.2671
  783MOL0     C 5592   3.472   0.990  12.423 -0.0478  0.1366 -0.9372
  783MOL0     C 5593   3.374   1.018  12.539 -0.5489 -0.5505 -0.6564
  783MOL0     O 5594   3.300   1.140  12.538  0.1643  0.2470  0.3441
  783MOL0     C 5595   3.221   1.171  12.646 -0.8175 -0.1796 -0.6634
  783MOL0     C 5596   3.192   1.306  12.661  0.0967  0.1342  0.8180
  783MOL0     C 5597   3.099   1.345  12.756 -0.1216 -0.2092  0.8664
  783MOL0     C 5598   3.036   1.249  12.838 -0.3333  0.3127  0.9930
  783MOL0     C 5599   2.952   1.298  12.954  0.5236  0.4488 -1.1739
  783MOL0     O 5600   2.933   1.205  13.059 -0.1249  0.4587  0.5369
  783MOL0     C 5601   2.866   1.228  13.175 -0.3509  0.0290  0.8516
  783MOL0     C 5602   2.881   1.346  13.248 -0.0698 -0.0764 -0.3483
  783MOL0     C 5603   2.784   1.371  13.350 -0.2510  0.2064  0.3278
  783MOL0     C 5604   2.696   1.268  13.392 -0.6375 -0.1171 -0.1944
  783MOL0     O 5605   2.611   1.297  13.498  0.0818  0.3745 -0.7473
  783MOL0     C 5606   2.539   1.191  13.553  0.7513 -0.6618 -0.9641
  783MOL0     C 5607   2.470   1.237  13.678  0.3309 -0.2529  0.8314
  783MOL0     C 5608   2.360   1.345  13.659 -0.0004 -0.6071 -0.3082
  783MOL0     C 5609   2.285   1.387  13.785 -1.1614 -0.1522  0.0341
  783MOL0     C 5610   2.183   1.294  13.837  0.0677 -0.1896  0.0312
  783MOL0     C 5611   2.132   1.326  13.972  0.0954 -0.2224  0.2814
  783MOL0     C 5612   2.213   1.257  14.079 -0.0209 -0.5964 -0.1875
  783MOL0     C 5613   2.188   1.314  14.216 -0.4498  0.1465  0.2972
  783MOL0    Cl 5614   2.019   1.293  14.263  0.3636 -0.4460  0.6783
  783MOL0     C 5615   2.693   1.148  13.323 -0.0049  0.1788  0.9374
  783MOL0     C 5616   2.771   1.134  13.210 -0.3102 -0.4981 -0.3967
  783MOL0     O 5617   2.909   1.409  12.954  0.4151  0.1724 -0.1411
  783MOL0     C 5618   3.058   1.116  12.818  0.4801 -0.0490 -0.1852
  783MOL0     C 5619   3.156   1.074  12.728  0.8182  0.4048  0.5433
  783MOL0     N 5620   3.776   0.646  12.387  0.0484 -0.7245  0.0354
  783MOL0     N 5621   3.884   0.588  12.450 -0.6678 -0.1988  0.5744
  783MOL0     C 5622   4.202  -0.019  11.612 -0.5047  0.2579 -0.2125
  783MOL0     C 5623   4.104  -0.081  11.541 -0.9309 -0.4452 -0.7575
  783MOL0     C 5624   3.687  -0.123  11.305 -0.0537 -0.2404 -0.5860
  783MOL0     C 5625   3.569  -0.053  11.312 -0.2627  1.0094 -0.1839
  783MOL0     C 5626   3.455  -0.110  11.256  0.3557 -0.4238  0.4928
  783MOL0     C 5627   3.451  -0.238  11.202  1.0826 -1.5652 -0.4933
  783MOL0     O 5628   3.341  -0.306  11.149  0.0300 -1.0318 -0.0624
  783MOL0     C 5629   3.221  -0.226  11.119  0.0505  0.3591 -1.0571
  783MOL0     C 5630   3.120  -0.329  11.077 -0.0611  0.8233  0.1772
  783MOL0     C 5631   2.987  -0.254  11.066  0.0448  0.7927  0.2542
  783MOL0     C 5632   2.919  -0.300  10.931  0.0191 -0.3753 -0.2093
  783MOL0     C 5633   2.779  -0.273  10.936  0.4592  0.0429 -0.9141
  783MOL0     C 5634   2.663  -0.242  10.935  0.7841 -1.0174  0.6784
  783MOL0     C 5635   3.563  -0.311  11.219 -0.2350  0.3658  0.6190
  783MOL0     C 5636   3.687  -0.257  11.269  0.1197  0.2522 -0.6522
  783MOL0     C 5637   3.797  -0.355  11.288  0.1233 -0.4537  0.0218
  783MOL0     H 5638   3.827   0.096  11.638 -0.3163  1.3300  0.3858
  783MOL0     H 5639   3.987   0.187  11.783 -2.3721 -1.5616  0.4115
  783MOL0     H 5640   4.241   0.322  11.719  0.7723 -0.1560  0.5296
  783MOL0     H 5641   4.183   0.289  11.879  0.1747  1.3337  1.2727
  783MOL0     H 5642   4.488   0.320  11.805 -0.6282  1.9910 -2.3324
  783MOL0     H 5643   4.435   0.258  11.959 -1.0006  2.5066  2.2431
  783MOL0     H 5644   4.338   0.528  11.842  1.2895 -1.2313 -2.0269
  783MOL0     H 5645   4.471   0.513  11.958 -0.7870  1.6035 -2.4625
  783MOL0     H 5646   4.187   0.452  12.020  0.8219 -1.0530 -3.2731
  783MOL0     H 5647   4.323   0.383  12.115 -2.9472  0.5315  1.1376
  783MOL0     H 5648   4.385   0.630  12.160  0.4813 -1.3760 -0.1972
  783MOL0     H 5649   4.231   0.670  12.090  0.8081  1.7150  1.5114
  783MOL0     H 5650   4.105   0.545  12.221  0.8413  1.2571 -1.4634
  783MOL0     H 5651   4.229   0.471  12.312 -0.5694 -0.8402 -3.4502
  783MOL0     H 5652   4.187   0.782  12.330 -1.3874 -0.0477  1.1159
  783MOL0     H 5653   4.319   0.685  12.401 -0.6870  0.7101 -0.7896
  783MOL0     H 5654   4.143   0.562  12.538 -2.6511 -0.9132  1.3985
  783MOL0     H 5655   4.163   0.740  12.551 -0.3765  0.5199 -2.5883
  783MOL0     H 5656   3.975   0.902  12.422 -3.1001  1.0801  2.2804
  783MOL0     H 5657   3.743   0.995  12.360 -0.8719  0.1605  0.9678
  783MOL0     H 5658   3.654   0.871  12.269  1.1402 -3.5144  0.2717
  783MOL0     H 5659   3.540   0.781  12.456 -0.4800 -0.1236  0.9237
  783MOL0     H 5660   3.605   0.905  12.570 -0.9602  1.0954 -0.3684
  783MOL0     H 5661   3.420   0.958  12.331  1.8507  0.5240 -2.1987
  783MOL0     H 5662   3.525   1.082  12.399  0.1327 -0.2095 -1.9275
  783MOL0     H 5663   3.440   1.024  12.626 -0.8849  3.4986 -0.5035
  783MOL0     H 5664   3.302   0.936  12.548 -0.5060 -0.5052  0.1042
  783MOL0     H 5665   3.253   1.372  12.599 -0.1477  0.0933  0.5299
  783MOL0     H 5666   3.071   1.449  12.764  0.7879  0.1025  0.1107
  783MOL0     H 5667   2.963   1.414  13.226  3.3709 -3.6878  0.3226
  783MOL0     H 5668   2.782   1.470  13.395  2.3224  0.4164  0.1652
  783MOL0     H 5669   2.464   1.158  13.481  1.5107  1.1731 -2.6911
  783MOL0     H 5670   2.617   1.117  13.573  1.0464 -1.2614 -3.9659
  783MOL0     H 5671   2.416   1.150  13.717 -1.3814 -0.1323 -1.1218
  783MOL0     H 5672   2.534   1.271  13.760 -0.9124  1.6717  1.0797
  783MOL0     H 5673   2.404   1.440  13.627  0.0864  0.6334  3.0190
  783MOL0     H 5674   2.278   1.312  13.595 -1.1186  0.0045  0.7430
  783MOL0     H 5675   2.245   1.488  13.774  0.7197  0.6220 -0.1129
  783MOL0     H 5676   2.360   1.407  13.862  1.0243  0.3923 -2.0999
  783MOL0     H 5677   2.212   1.189  13.842  1.2184  0.1579  1.0985
  783MOL0     H 5678   2.097   1.301  13.770  0.0804  2.8277  0.2031
  783MOL0     H 5679   2.123   1.435  13.981  0.1470 -0.3251  1.7547
  783MOL0     H 5680   2.034   1.281  13.985  0.4331 -1.7602 -1.9298
  783MOL0     H 5681   2.316   1.271  14.044 -0.1813 -1.5566 -1.0960
  783MOL0     H 5682   2.189   1.150  14.073  1.0592 -0.8224 -0.7636
  783MOL0     H 5683   2.248   1.274  14.298  1.3977 -1.3366 -1.6522
  783MOL0     H 5684   2.206   1.420  14.200 -0.1046 -0.1150 -1.2553
  783MOL0     H 5685   2.624   1.068  13.347  0.1801 -0.4823 -0.6516
  783MOL0     H 5686   2.763   1.041  13.154  0.6967 -0.4941 -0.5632
  783MOL0     H 5687   3.001   1.047  12.880  1.0880  0.5786  1.1133
  783MOL0     H 5688   3.164   0.966  12.718 -0.8763  0.2723  0.3694
  783MOL0     H 5689   4.306  -0.047  11.597 -0.2532 -0.4781  2.3888
  783MOL0     H 5690   4.122  -0.161  11.470  0.2385 -1.3198  0.4934
  783MOL0     H 5691   3.556   0.046  11.354  1.2905  0.8488  0.7697
  783MOL0     H 5692   3.361  -0.056  11.263  0.6904  0.3799 -0.9031
  783MOL0     H 5693   3.231  -0.156  11.036 -1.7126  1.0075 -0.7626
  783MOL0     H 5694   3.192  -0.172  11.210 -1.4689 -0.9571 -0.7058
  783MOL0     H 5695   3.113  -0.411  11.149  0.2067 -0.8401 -1.6052
  783MOL0     H 5696   3.155  -0.370  10.982  3.9380  0.2630  1.6986
  783MOL0     H 5697   2.988  -0.144  11.067  1.9034  0.8485  2.6270
  783MOL0     H 5698   2.928  -0.275  11.156  0.7340 -4.1878 -0.1925
  783MOL0     H 5699   2.969  -0.246  10.850 -0.9043 -1.8464 -1.8186
  783MOL0     H 5700   2.929  -0.407  10.915 -0.3540 -0.6633  1.3149
  783MOL0     H 5701   2.562  -0.208  10.945  1.8315  3.5253 -1.5482
  783MOL0     H 5702   3.573  -0.411  11.179  2.0218  1.1389 -0.9533
  783MOL0     H 5703   3.804  -0.391  11.391  1.4157 -1.7452 -0.4930
  783MOL0     H 5704   3.782  -0.444  11.226 -2.5085 -1.1219  1.4888
  783MOL0     H 5705   3.884  -0.302  11.249 -0.7840  0.8954 -0.2383
  784MOL0     O 5706   4.935   9.934   0.805  1.2564  0.3062  0.9624
  784MOL0     C 5707   4.873  10.036   0.804  0.2075 -0.0243  0.3387
  784MOL0     O 5708   4.914  10.147   0.878  0.2328  0.3230  0.3406
  784MOL0     C 5709   5.034  10.138   0.941 -0.1734  0.3823 -0.1307
  784MOL0     C 5710   5.042  10.133   1.080 -1.0564  1.4098  0.3501
  784MOL0     C 5711   5.167  10.140   1.152  0.4705 -0.2678 -0.1310
  784MOL0     C 5712   5.289  10.145   1.079  0.6371 -0.1426  0.1668
  784MOL0     O 5713   5.402  10.145   1.157 -0.4703 -1.4275  0.0806
  784MOL0     C 5714   5.506  10.243   1.129 -1.3879  0.1821  0.2753
  784MOL0     C 5715   5.461  10.393   1.128  0.7982  0.2456 -0.6137
  784MOL0     C 5716   5.378  10.434   1.249  0.1843 -0.0537 -0.3461
  784MOL0     C 5717   5.334  10.576   1.235 -0.4236 -0.4166 -0.7193
  784MOL0     C 5718   5.211  10.596   1.150 -0.9701  0.4160 -0.5368
  784MOL0     C 5719   5.185  10.741   1.123 -0.2513  0.4997  0.0952
  784MOL0     C 5720   5.249  10.792   0.998 -0.9585  0.1885  0.1225
  784MOL0     C 5721   5.172  10.755   0.867 -0.0097  0.5372  0.0420
  784MOL0     N 5722   5.039  10.814   0.861 -0.6402  0.5796 -0.7673
  784MOL0     C 5723   5.013  10.949   0.850  0.0171 -0.2372 -0.5000
  784MOL0     C 5724   4.870  10.946   0.826  0.1065 -0.6117  0.1681
  784MOL0     C 5725   4.761  11.051   0.817 -0.1726  0.6468  0.5153
  784MOL0     C 5726   4.704  11.058   0.953  0.6362 -0.1630  0.2455
  784MOL0     C 5727   4.627  11.192   0.981 -0.4316 -0.1305  0.2830
  784MOL0     C 5728   4.695  11.324   0.951  0.3796  0.2916 -0.9581
  784MOL0     O 5729   4.823  11.327   1.022 -0.3750  0.4793 -0.4549
  784MOL0     C 5730   4.886  11.450   1.034 -0.9949  0.2673  0.2419
  784MOL0     C 5731   4.992  11.462   1.125 -0.7237  1.0565  0.1919
  784MOL0     C 5732   5.069  11.578   1.132 -0.2695 -0.1570  1.0248
  784MOL0     C 5733   5.032  11.691   1.054  0.0151 -0.4666 -0.3068
  784MOL0     C 5734   5.087  11.819   1.094 -0.2710  0.2274 -0.0005
  784MOL0     O 5735   5.199  11.815   1.167  0.5599  0.0125  0.8762
  784MOL0     C 5736   5.284  11.919   1.151 -0.3879 -1.0013 -0.3762
  784MOL0     C 5737   5.319  11.978   1.025 -0.3714 -0.4756 -0.1828
  784MOL0     C 5738   5.416  12.083   1.021 -0.4974 -0.7952  0.3992
  784MOL0     C 5739   5.478  12.129   1.136 -0.9446 -0.6480  0.3617
  784MOL0     O 5740   5.568  12.233   1.143  0.2172 -0.1450  0.2604
  784MOL0     C 5741   5.704  12.206   1.099  0.1881  0.2690  0.2787
  784MOL0     C 5742   5.798  12.250   1.200 -0.3150  1.0685  0.0540
  784MOL0     C 5743   5.937  12.267   1.138 -0.2540  0.3411 -0.2861
  784MOL0     C 5744   6.041  12.312   1.236 -0.0027 -0.2183 -0.8182
  784MOL0     C 5745   6.183  12.332   1.177 -0.2497 -0.4590 -0.2888
  784MOL0     C 5746   6.252  12.193   1.161  0.0632 -0.2170 -0.1085
  784MOL0     C 5747   6.394  12.218   1.110  0.0479 -0.2035 -0.2298
  784MOL0     C 5748   6.488  12.221   1.227 -0.0031 -0.2457 -0.7887
  784MOL0    Cl 5749   6.525  12.061   1.282 -0.0974 -0.0283  0.4707
  784MOL0     C 5750   5.449  12.060   1.253 -0.5397 -0.3148  1.1297
  784MOL0     C 5751   5.356  11.957   1.258 -0.1095 -0.2371  0.8998
  784MOL0     O 5752   5.033  11.921   1.055  0.1189  0.4793  0.0423
  784MOL0     C 5753   4.927  11.680   0.963  0.7789 -0.0245  0.4012
  784MOL0     C 5754   4.866  11.553   0.944 -1.2358  0.4844  0.3799
  784MOL0     N 5755   4.828  10.812   0.827 -0.4678 -0.2097  0.4056
  784MOL0     N 5756   4.933  10.730   0.846  1.3732 -0.2687  0.5173
  784MOL0     C 5757   5.282  10.148   0.939  1.3449  1.1959 -0.2151
  784MOL0     C 5758   5.157  10.150   0.876 -0.0069 -0.0314  0.3306
  784MOL0     C 5759   4.737  10.041   0.747  0.3488  0.0820 -0.2684
  784MOL0     C 5760   4.669  10.165   0.767  0.6721  0.8561 -0.7591
  784MOL0     C 5761   4.555  10.183   0.699  0.2176  0.1916 -0.1329
  784MOL0     C 5762   4.495  10.092   0.612  0.0973  0.2548 -0.0873
  784MOL0     O 5763   4.385  10.133   0.539 -0.3123 -0.0670  0.4925
  784MOL0     C 5764   4.281  10.038   0.508  0.1771 -0.1264 -0.2862
  784MOL0     C 5765   4.147  10.098   0.462 -0.2280  0.2752 -0.1147
  784MOL0     C 5766   4.166  10.188   0.352  1.0471 -0.2925  0.3780
  784MOL0     C 5767   4.036  10.227   0.294  0.0568 -0.5673  0.2733
  784MOL0     C 5768   3.971  10.343   0.369 -0.4599  0.7748 -0.0871
  784MOL0     C 5769   3.937  10.450   0.412 -0.1430  0.0452 -0.9498
  784MOL0     C 5770   4.558   9.966   0.598  0.1808 -0.4963  0.7696
  784MOL0     C 5771   4.674   9.940   0.662 -0.3666 -0.0814 -0.4859
  784MOL0     C 5772   4.743   9.802   0.648  0.4672 -0.0338  0.3676
  784MOL0     H 5773   4.955  10.103   1.136 -0.9768 -4.5171 -2.0191
  784MOL0     H 5774   5.166  10.131   1.260  0.3163 -0.1485 -0.1221
  784MOL0     H 5775   5.578  10.230   1.209 -2.3894  2.7693  1.7274
  784MOL0     H 5776   5.557  10.215   1.036  0.9871  1.6099  1.0636
  784MOL0     H 5777   5.408  10.401   1.033  3.2389 -1.3186 -2.1979
  784MOL0     H 5778   5.551  10.455   1.135 -0.1974  1.6357  0.7895
  784MOL0     H 5779   5.449  10.430   1.332 -0.9458  2.2997  0.8351
  784MOL0     H 5780   5.287  10.375   1.263 -0.7731  0.6444 -3.0327
  784MOL0     H 5781   5.307  10.626   1.329 -1.2467 -0.9306 -0.6745
  784MOL0     H 5782   5.410  10.642   1.193 -2.0001  2.4454  0.6646
  784MOL0     H 5783   5.213  10.540   1.056 -2.1106 -1.2471  0.3805
  784MOL0     H 5784   5.128  10.546   1.201 -1.2444  0.4232 -0.9671
  784MOL0     H 5785   5.078  10.756   1.105 -0.6448 -1.8942  0.1655
  784MOL0     H 5786   5.223  10.796   1.209 -0.8819  1.8434 -0.4524
  784MOL0     H 5787   5.353  10.759   0.994 -1.1001 -0.1616 -1.9011
  784MOL0     H 5788   5.255  10.901   0.997 -0.8077  0.1839  0.5997
  784MOL0     H 5789   5.229  10.788   0.780 -1.6286 -1.7938 -2.0394
  784MOL0     H 5790   5.179  10.646   0.856  1.3316  0.4887  1.0858
  784MOL0     H 5791   5.082  11.031   0.865  0.3647 -0.5171 -0.5428
  784MOL0     H 5792   4.798  11.147   0.780 -0.2554 -0.3503 -2.4256
  784MOL0     H 5793   4.686  11.019   0.743 -0.0978  0.1794  0.6362
  784MOL0     H 5794   4.640  10.971   0.972 -2.2691  1.8589  0.3057
  784MOL0     H 5795   4.772  11.059   1.038 -1.2800  0.6021  1.8457
  784MOL0     H 5796   4.611  11.197   1.089  0.3401 -1.1694  0.4688
  784MOL0     H 5797   4.533  11.181   0.926  1.2562 -2.4550 -2.4345
  784MOL0     H 5798   4.635  11.407   0.989 -0.2659 -1.1677  1.4179
  784MOL0     H 5799   4.708  11.327   0.842  0.9289 -0.3098 -0.9153
  784MOL0     H 5800   5.014  11.373   1.184 -2.8327  1.4276  1.6506
  784MOL0     H 5801   5.144  11.577   1.210 -0.6162  0.4573  1.3700
  784MOL0     H 5802   5.257  11.941   0.945 -3.2159  1.6307  0.8881
  784MOL0     H 5803   5.429  12.142   0.930 -3.7823  1.5399  1.2448
  784MOL0     H 5804   5.716  12.098   1.084  1.9848  0.7695 -2.6557
  784MOL0     H 5805   5.729  12.255   1.004 -0.4129 -1.7128 -0.9905
  784MOL0     H 5806   5.762  12.343   1.244  0.8021  0.7944  1.6171
  784MOL0     H 5807   5.800  12.177   1.281 -0.3965  0.3033 -0.6252
  784MOL0     H 5808   5.954  12.166   1.100 -1.9536 -1.0149  2.2057
  784MOL0     H 5809   5.925  12.338   1.056 -1.9956  2.2677  1.5056
  784MOL0     H 5810   6.059  12.231   1.308 -2.1352  1.8035  2.2591
  784MOL0     H 5811   6.007  12.396   1.296  0.4357 -2.5125  3.0131
  784MOL0     H 5812   6.231  12.396   1.251 -0.3986 -0.6596 -0.0176
  784MOL0     H 5813   6.180  12.384   1.081 -1.4012  1.2442  0.6123
  784MOL0     H 5814   6.252  12.132   1.251 -1.5825 -0.2547 -0.0938
  784MOL0     H 5815   6.199  12.136   1.083  0.2839  0.6699 -0.9264
  784MOL0     H 5816   6.404  12.313   1.057 -0.2772 -1.0098 -1.8118
  784MOL0     H 5817   6.416  12.139   1.038 -1.5254 -2.6122  1.7777
  784MOL0     H 5818   6.581  12.266   1.193  0.5898 -2.9679 -3.2184
  784MOL0     H 5819   6.444  12.283   1.306  1.0092  1.3122 -1.4110
  784MOL0     H 5820   5.509  12.079   1.341  1.3819 -1.6622  0.1785
  784MOL0     H 5821   5.352  11.903   1.353  1.5113 -0.8543  0.6475
  784MOL0     H 5822   4.892  11.768   0.909 -0.4957 -1.2238 -0.8227
  784MOL0     H 5823   4.798  11.556   0.861  0.3230  2.5380 -0.9455
  784MOL0     H 5824   5.378  10.139   0.890  0.3166 -0.7164 -2.0467
  784MOL0     H 5825   5.151  10.160   0.768 -1.0729  1.1195  0.4701
  784MOL0     H 5826   4.703  10.255   0.816  0.9263 -0.4372  1.6059
  784MOL0     H 5827   4.494  10.272   0.715 -1.8431 -1.2370  0.3183
  784MOL0     H 5828   4.267   9.981   0.601 -1.6516 -1.7676 -1.5003
  784MOL0     H 5829   4.313   9.965   0.434  0.0741 -0.8101  0.3279
  784MOL0     H 5830   4.077  10.147   0.531 -0.5725  1.0208 -0.9778
  784MOL0     H 5831   4.092  10.009   0.433  1.5115 -0.5604 -0.9663
  784MOL0     H 5832   4.220  10.137   0.271 -1.0140  1.4738 -2.3119
  784MOL0     H 5833   4.233  10.266   0.391  1.5177 -0.5655  0.1232
  784MOL0     H 5834   4.065  10.269   0.197  0.8038  3.0898  1.8847
  784MOL0     H 5835   3.967  10.145   0.273 -0.6500  0.1320 -0.1847
  784MOL0     H 5836   3.899  10.539   0.458  0.9164 -0.0544  0.1528
  784MOL0     H 5837   4.513   9.892   0.532 -0.8050 -0.1590  1.0615
  784MOL0     H 5838   4.751   9.759   0.749 -2.9303 -1.1767  0.2858
  784MOL0     H 5839   4.689   9.732   0.583  2.7067 -1.2618 -0.2562
  784MOL0     H 5840   4.841   9.808   0.601  0.3902  0.8792  0.3050
  785MOL0     O 5841   8.794   0.590   1.896  0.1506  0.6443  0.7059
  785MOL0     C 5842   8.825   0.477   1.928 -0.0270 -0.5074  1.1445
  785MOL0     O 5843   8.746   0.388   1.993  0.4477  0.8122  0.5128
  785MOL0     C 5844   8.611   0.426   2.009 -0.1260  0.6038 -0.3681
  785MOL0     C 5845   8.557   0.457   2.137 -0.7757 -0.3371 -0.2045
  785MOL0     C 5846   8.419   0.489   2.152  0.2446 -0.1557 -0.9619
  785MOL0     C 5847   8.337   0.497   2.033 -0.0529 -0.1476  0.2760
  785MOL0     O 5848   8.203   0.520   2.028  0.2119 -0.8615 -0.2766
  785MOL0     C 5849   8.137   0.546   2.159  0.0079  0.2558  0.0366
  785MOL0     C 5850   7.992   0.585   2.153 -0.2184  0.0488 -0.3382
  785MOL0     C 5851   7.893   0.501   2.069 -0.6040 -0.0057  0.2418
  785MOL0     C 5852   7.889   0.530   1.918  0.3891 -0.1105  0.2671
  785MOL0     C 5853   7.769   0.464   1.845  0.3508 -0.5038 -0.1207
  785MOL0     C 5854   7.794   0.325   1.782 -0.3790  0.0767  0.1048
  785MOL0     C 5855   7.869   0.222   1.868 -0.4651 -0.2063  0.5163
  785MOL0     C 5856   7.881   0.092   1.802  0.3106 -0.1727 -0.1011
  785MOL0     N 5857   8.000   0.082   1.724 -0.5456  0.2721 -0.0757
  785MOL0     C 5858   8.127   0.055   1.768 -1.0032  0.7984 -0.3249
  785MOL0     C 5859   8.214   0.101   1.677  0.7560  0.4667  0.4076
  785MOL0     C 5860   8.362   0.101   1.671 -0.6748  0.0319 -0.7304
  785MOL0     C 5861   8.438  -0.013   1.747  0.1227  0.1296 -0.3983
  785MOL0     C 5862   8.589   0.008   1.769  0.4229  0.1955 -0.1347
  785MOL0     C 5863   8.669   0.013   1.629 -0.0648  0.0554 -0.1030
  785MOL0     O 5864   8.804   0.001   1.660 -0.5547 -0.2712  0.3972
  785MOL0     C 5865   8.880  -0.042   1.555 -0.0412 -0.7220 -1.1257
  785MOL0     C 5866   8.988  -0.115   1.609 -0.4298  0.1508  0.2906
  785MOL0     C 5867   9.072  -0.195   1.512 -0.0357 -0.0848 -0.4690
  785MOL0     C 5868   9.040  -0.198   1.374 -0.7232  0.8504  0.8289
  785MOL0     C 5869   9.117  -0.277   1.276 -0.6701 -0.1334  0.1018
  785MOL0     O 5870   9.060  -0.295   1.154 -0.0563 -0.3577 -0.5954
  785MOL0     C 5871   9.101  -0.388   1.066 -0.5962 -0.3618  0.2001
  785MOL0     C 5872   9.216  -0.474   1.065 -0.5378  0.2934  1.1152
  785MOL0     C 5873   9.237  -0.550   0.951  0.3996  0.3856  0.1297
  785MOL0     C 5874   9.151  -0.553   0.843 -0.0125 -0.0713  0.4040
  785MOL0     O 5875   9.174  -0.656   0.758  0.0741  0.2716  0.7476
  785MOL0     C 5876   9.068  -0.718   0.685  0.8308  0.3189 -0.3522
  785MOL0     C 5877   9.132  -0.827   0.598 -0.2262  0.4042 -0.8506
  785MOL0     C 5878   9.143  -0.777   0.451 -0.1647  0.3058 -0.8050
  785MOL0     C 5879   9.223  -0.883   0.371 -0.6386 -1.0013  0.2046
  785MOL0     C 5880   9.233  -0.834   0.229  0.4680 -0.5708  1.0272
  785MOL0     C 5881   9.295  -0.931   0.131 -0.4222 -0.2660  0.1123
  785MOL0     C 5882   9.443  -0.948   0.140  0.3919 -0.6055 -0.1985
  785MOL0     C 5883   9.498  -1.025   0.033  0.0799  0.2476  1.5764
  785MOL0    Cl 5884   9.666  -1.086   0.042 -0.2469  0.0418 -0.1464
  785MOL0     C 5885   9.040  -0.465   0.842 -0.0458  0.3305  0.3453
  785MOL0     C 5886   9.016  -0.388   0.954  0.2704  0.2977 -0.3093
  785MOL0     O 5887   9.213  -0.333   1.321  0.0415  0.3054  0.7779
  785MOL0     C 5888   8.940  -0.120   1.328  0.2803 -0.3416 -0.8999
  785MOL0     C 5889   8.851  -0.045   1.416 -0.3904  0.2532  0.8393
  785MOL0     N 5890   8.140   0.161   1.578 -0.2202  0.5416 -0.1925
  785MOL0     N 5891   8.019   0.149   1.610 -0.0354  0.1652  0.5992
  785MOL0     C 5892   8.393   0.475   1.909  0.2392 -1.5141  0.2276
  785MOL0     C 5893   8.531   0.447   1.892 -0.1893  0.4705  0.7448
  785MOL0     C 5894   8.971   0.450   1.925 -0.0457 -1.0977  0.7947
  785MOL0     C 5895   9.062   0.548   1.976 -0.3983  0.4251 -0.3470
  785MOL0     C 5896   9.200   0.533   1.967  0.3412  0.0656  0.6611
  785MOL0     C 5897   9.251   0.427   1.899  0.0428 -0.3730  0.1348
  785MOL0     O 5898   9.385   0.414   1.880 -0.3197  0.4571 -0.2181
  785MOL0     C 5899   9.440   0.376   1.751 -0.1074 -0.4235  0.0146
  785MOL0     C 5900   9.567   0.444   1.709 -0.4118  0.5364 -1.0148
  785MOL0     C 5901   9.678   0.421   1.810  0.6958 -0.0051  0.8955
  785MOL0     C 5902   9.795   0.512   1.791  0.2369 -0.3475  0.8470
  785MOL0     C 5903   9.901   0.492   1.889 -0.8255 -0.0051 -0.0671
  785MOL0     C 5904   9.991   0.471   1.971 -0.4841 -0.5925  0.5718
  785MOL0     C 5905   9.165   0.332   1.838 -0.8925  0.5524  0.1932
  785MOL0     C 5906   9.027   0.344   1.859 -1.2324  0.2900  0.0073
  785MOL0     C 5907   8.948   0.233   1.787  0.5077  0.6909  0.3935
  785MOL0     H 5908   8.627   0.492   2.212 -1.3421  0.2170  0.0672
  785MOL0     H 5909   8.378   0.513   2.249 -0.1548 -1.0222 -0.9066
  785MOL0     H 5910   8.136   0.451   2.213 -3.3027 -0.7694 -1.5292
  785MOL0     H 5911   8.192   0.615   2.224  0.2627  1.5926 -1.5393
  785MOL0     H 5912   7.983   0.683   2.106 -0.4569  0.0899 -0.2049
  785MOL0     H 5913   7.950   0.583   2.254 -3.9066 -0.0931 -1.7300
  785MOL0     H 5914   7.800   0.486   2.124 -0.4299 -1.7930  0.0818
  785MOL0     H 5915   7.937   0.401   2.070 -2.6545 -1.1128 -3.0595
  785MOL0     H 5916   7.872   0.637   1.907 -1.7175 -0.0277  3.1728
  785MOL0     H 5917   7.976   0.502   1.858 -0.3755  0.5023 -1.1745
  785MOL0     H 5918   7.683   0.448   1.911 -0.5706  2.2529 -0.5156
  785MOL0     H 5919   7.730   0.529   1.766 -0.8928 -1.6683 -0.4971
  785MOL0     H 5920   7.704   0.275   1.748 -1.6644  2.1495  0.2411
  785MOL0     H 5921   7.849   0.351   1.691 -1.5025  3.0538  0.1391
  785MOL0     H 5922   7.816   0.213   1.963 -0.6610 -1.8712  0.2823
  785MOL0     H 5923   7.971   0.257   1.889 -0.2345 -1.6394  2.0142
  785MOL0     H 5924   7.887   0.015   1.880 -1.2527  1.4521  1.7149
  785MOL0     H 5925   7.785   0.072   1.754 -1.2086 -1.5149  3.1746
  785MOL0     H 5926   8.153   0.011   1.864 -3.9291  1.9928  1.1125
  785MOL0     H 5927   8.391   0.092   1.565 -0.5711  1.0163 -0.7946
  785MOL0     H 5928   8.402   0.194   1.713 -2.0302 -0.4130  1.7147
  785MOL0     H 5929   8.389  -0.021   1.845 -1.3336 -1.6805 -1.2120
  785MOL0     H 5930   8.414  -0.097   1.681  1.1270 -0.0908 -0.4865
  785MOL0     H 5931   8.628  -0.078   1.824 -1.1021  1.5971  3.4105
  785MOL0     H 5932   8.616   0.098   1.825  1.1433  0.2741 -0.5824
  785MOL0     H 5933   8.645   0.106   1.576 -1.4011  0.7143  1.5869
  785MOL0     H 5934   8.635  -0.075   1.573  0.0953  0.3900 -0.7460
  785MOL0     H 5935   9.004  -0.114   1.716 -1.2483  1.6147  0.4321
  785MOL0     H 5936   9.158  -0.242   1.559 -0.6373  0.4411  1.2296
  785MOL0     H 5937   9.289  -0.483   1.145  1.3942 -2.1973 -0.7667
  785MOL0     H 5938   9.322  -0.616   0.965  0.5113  0.9754  2.7320
  785MOL0     H 5939   9.012  -0.764   0.767 -0.1196 -0.2963 -1.3278
  785MOL0     H 5940   9.009  -0.653   0.621 -0.8086 -0.7684  0.0000
  785MOL0     H 5941   9.227  -0.864   0.638 -1.1524 -1.2912 -0.1000
  785MOL0     H 5942   9.075  -0.920   0.611 -2.4554  1.8526  0.4847
  785MOL0     H 5943   9.043  -0.772   0.408 -1.7464 -1.2836  2.3016
  785MOL0     H 5944   9.195  -0.681   0.450  0.6578 -0.0836  0.9240
  785MOL0     H 5945   9.163  -0.974   0.358  0.1028 -1.4469 -0.1348
  785MOL0     H 5946   9.320  -0.902   0.417 -1.1287 -2.5047  0.7149
  785MOL0     H 5947   9.287  -0.740   0.243 -1.7051  1.1457 -1.1324
  785MOL0     H 5948   9.129  -0.820   0.197  0.0029 -4.3979  0.3623
  785MOL0     H 5949   9.251  -1.031   0.132 -0.5304 -0.2853 -2.4102
  785MOL0     H 5950   9.268  -0.887   0.035 -1.7337  1.2105  1.0958
  785MOL0     H 5951   9.465  -0.991   0.238 -3.7882  0.4935  1.4341
  785MOL0     H 5952   9.483  -0.847   0.142  1.2519 -0.8695  3.4623
  785MOL0     H 5953   9.440  -1.117   0.023 -1.6125  1.5218 -2.7984
  785MOL0     H 5954   9.498  -0.976  -0.065  4.7798  1.1396  1.7836
  785MOL0     H 5955   8.981  -0.467   0.751  0.6961 -0.8684 -0.1417
  785MOL0     H 5956   8.938  -0.313   0.961 -0.2815 -0.1299 -1.5960
  785MOL0     H 5957   8.910  -0.097   1.226  0.1712  3.9886 -0.1012
  785MOL0     H 5958   8.769   0.018   1.386 -0.0846  0.8971  1.3178
  785MOL0     H 5959   8.327   0.498   1.825 -2.9528 -2.4661  2.3026
  785MOL0     H 5960   8.572   0.438   1.792 -1.3662  0.4458  0.2487
  785MOL0     H 5961   9.010   0.635   2.017 -0.1678 -1.6102  5.0542
  785MOL0     H 5962   9.256   0.618   2.008 -0.4878  0.6709  0.5610
  785MOL0     H 5963   9.363   0.414   1.683  0.6076  3.5910  1.1580
  785MOL0     H 5964   9.455   0.268   1.748  1.4984 -0.2145 -0.3705
  785MOL0     H 5965   9.548   0.551   1.720  2.3121  0.9908 -0.1385
  785MOL0     H 5966   9.600   0.422   1.607 -0.9428 -0.5622 -0.9677
  785MOL0     H 5967   9.709   0.316   1.801  0.5082 -0.0248  0.4217
  785MOL0     H 5968   9.626   0.431   1.906 -0.7310  1.1169  0.0523
  785MOL0     H 5969   9.836   0.504   1.689  1.3456  0.3194  1.2174
  785MOL0     H 5970   9.756   0.611   1.814 -2.2527 -0.5185 -2.0430
  785MOL0     H 5971  10.083   0.440   2.016  0.2512  2.3348  1.2627
  785MOL0     H 5972   9.211   0.253   1.779 -0.0100  3.1660 -2.8671
  785MOL0     H 5973   9.011   0.162   1.733 -1.6337 -2.0155  1.1538
  785MOL0     H 5974   8.900   0.173   1.866 -1.9031  0.4867 -1.1369
  785MOL0     H 5975   8.864   0.269   1.726 -0.1241 -1.3464 -0.0281
  786MOL0     O 5976  10.912   5.555   7.295  0.3846  0.4332 -0.4037
  786MOL0     C 5977  10.934   5.625   7.188  0.1394  0.2707 -0.5503
  786MOL0     O 5978  10.845   5.686   7.114  0.7021  0.7913  0.2004
  786MOL0     C 5979  10.719   5.695   7.164 -0.2537  0.3872  0.0527
  786MOL0     C 5980  10.679   5.810   7.232  0.2238 -0.7648  0.4829
  786MOL0     C 5981  10.548   5.830   7.287 -0.5890 -0.1207 -0.1692
  786MOL0     C 5982  10.458   5.719   7.289  0.3870  0.2816 -0.1037
  786MOL0     O 5983  10.334   5.723   7.342 -0.0722 -0.2243 -0.2010
  786MOL0     C 5984  10.268   5.851   7.318  0.2713 -0.0903  0.1710
  786MOL0     C 5985  10.116   5.846   7.348  0.7041  0.1622 -0.2329
  786MOL0     C 5986  10.079   5.828   7.499  0.1401  0.1885  0.0648
  786MOL0     C 5987   9.939   5.893   7.518 -0.5724  1.0889  0.2355
  786MOL0     C 5988   9.892   5.893   7.667 -0.1982  0.0419 -0.3226
  786MOL0     C 5989   9.749   5.945   7.682 -0.1784  0.1463  0.0977
  786MOL0     C 5990   9.713   6.086   7.651 -0.9867  0.1604 -0.6076
  786MOL0     C 5991   9.788   6.184   7.735 -0.8806 -0.1480 -0.5436
  786MOL0     N 5992   9.762   6.328   7.701 -0.5507 -0.0588 -0.4629
  786MOL0     C 5993   9.642   6.393   7.719 -0.4545 -0.8712 -0.2318
  786MOL0     C 5994   9.675   6.522   7.670 -0.6400  0.8939 -0.1178
  786MOL0     C 5995   9.578   6.622   7.632 -0.6401 -0.1746 -0.0021
  786MOL0     C 5996   9.582   6.742   7.730 -0.3224  0.5852  0.6842
  786MOL0     C 5997   9.449   6.815   7.741 -1.1193  0.4623  0.2684
  786MOL0     C 5998   9.458   6.940   7.841 -0.1379 -0.5984 -0.1301
  786MOL0     O 5999   9.319   6.976   7.863  0.6591 -0.0466 -0.4024
  786MOL0     C 6000   9.296   7.089   7.931 -0.1831 -0.2923  0.6272
  786MOL0     C 6001   9.164   7.134   7.930  0.1143 -0.7279  0.9775
  786MOL0     C 6002   9.134   7.251   7.991  0.2829  0.3208 -0.9094
  786MOL0     C 6003   9.233   7.333   8.049  0.4668  0.1181  0.3689
  786MOL0     C 6004   9.212   7.476   8.090 -0.0163  0.2059 -0.2781
  786MOL0     O 6005   9.082   7.507   8.116 -0.3039 -0.2172  0.6809
  786MOL0     C 6006   9.036   7.636   8.112 -0.4201  0.4923 -0.4233
  786MOL0     C 6007   8.984   7.691   7.995  0.0893  0.0912 -0.3836
  786MOL0     C 6008   8.923   7.822   7.999  0.7558 -0.3040 -0.1785
  786MOL0     C 6009   8.933   7.905   8.113 -0.0539  0.1142 -0.1066
  786MOL0     O 6010   8.889   8.034   8.117  0.2289 -0.1847  0.2573
  786MOL0     C 6011   8.815   8.087   8.009  0.0880 -0.4667 -0.0068
  786MOL0     C 6012   8.783   8.226   8.048 -0.2424 -0.0682 -0.3374
  786MOL0     C 6013   8.918   8.312   8.046 -0.2428 -1.1434 -0.2636
  786MOL0     C 6014   8.911   8.457   8.081 -0.0049 -0.4512 -0.9136
  786MOL0     C 6015   8.865   8.483   8.225  0.1484  0.1247  0.7874
  786MOL0     C 6016   8.878   8.640   8.251 -0.7106  0.5074  0.1109
  786MOL0     C 6017   8.821   8.676   8.388 -1.3169  0.3471 -0.1793
  786MOL0     C 6018   8.683   8.623   8.402  0.9095 -0.5747 -0.3928
  786MOL0    Cl 6019   8.628   8.693   8.562 -0.1840 -0.1912  0.6659
  786MOL0     C 6020   8.992   7.848   8.226 -0.4729 -0.4614 -0.0231
  786MOL0     C 6021   9.035   7.714   8.229  0.7353 -0.5871  0.9305
  786MOL0     O 6022   9.301   7.554   8.080 -0.1276  0.1219 -0.5946
  786MOL0     C 6023   9.371   7.292   8.038  0.4175  0.2307 -0.7862
  786MOL0     C 6024   9.399   7.167   7.984 -0.2564  0.3366  0.6878
  786MOL0     N 6025   9.812   6.521   7.641 -0.8435 -0.0236  0.7900
  786MOL0     N 6026   9.862   6.408   7.654 -0.4967 -0.3011 -0.1331
  786MOL0     C 6027  10.511   5.597   7.240 -0.5238 -0.7843 -0.6358
  786MOL0     C 6028  10.637   5.579   7.181 -0.0173 -0.2740  1.0000
  786MOL0     C 6029  11.075   5.616   7.137  0.8713  0.4341  0.2688
  786MOL0     C 6030  11.091   5.611   6.996  0.6770  0.0246 -1.0773
  786MOL0     C 6031  11.223   5.609   6.950 -0.4865  0.6282  0.5632
  786MOL0     C 6032  11.332   5.586   7.034 -0.3355  0.0245 -0.4380
  786MOL0     O 6033  11.465   5.569   6.991 -0.3271  0.7481 -0.1842
  786MOL0     C 6034  11.492   5.578   6.847 -0.1636 -1.2230  0.1663
  786MOL0     C 6035  11.645   5.594   6.832  0.2653 -0.0357  1.1551
  786MOL0     C 6036  11.725   5.477   6.894 -0.3000 -0.5064 -0.2717
  786MOL0     C 6037  11.681   5.336   6.855  0.2242  0.3476  0.3211
  786MOL0     C 6038  11.682   5.332   6.704 -0.1468 -0.4341 -0.3817
  786MOL0     C 6039  11.683   5.329   6.579  0.0288  0.0609 -0.9332
  786MOL0     C 6040  11.307   5.567   7.167 -0.2991 -1.0327 -0.0432
  786MOL0     C 6041  11.183   5.588   7.226  0.0713 -1.1533 -0.1268
  786MOL0     C 6042  11.188   5.568   7.377 -0.2213  0.6872  0.0265
  786MOL0     H 6043  10.750   5.892   7.238 -0.6706  0.1121 -0.3682
  786MOL0     H 6044  10.527   5.928   7.329  4.1327  1.0064  0.0741
  786MOL0     H 6045  10.311   5.923   7.389 -2.5143  0.6120  1.3167
  786MOL0     H 6046  10.274   5.873   7.211 -3.3135  0.7743  0.0061
  786MOL0     H 6047  10.089   5.765   7.280  2.0014  1.5431 -2.5367
  786MOL0     H 6048  10.066   5.936   7.310 -0.6064 -1.0434 -1.4738
  786MOL0     H 6049  10.151   5.874   7.567 -0.6678  0.1115  0.9873
  786MOL0     H 6050  10.073   5.722   7.525 -0.4180 -0.1373 -1.2823
  786MOL0     H 6051   9.950   5.996   7.482 -2.2936  0.1756 -3.3720
  786MOL0     H 6052   9.863   5.839   7.460 -2.7128  2.4544  1.6267
  786MOL0     H 6053   9.890   5.792   7.707  0.1767  0.7075  1.4549
  786MOL0     H 6054   9.950   5.967   7.723  2.1810 -0.9364 -1.4043
  786MOL0     H 6055   9.685   5.869   7.637 -0.0035  0.2093 -0.2633
  786MOL0     H 6056   9.730   5.926   7.788  0.6619 -0.9660  0.0667
  786MOL0     H 6057   9.607   6.096   7.674 -0.1808 -0.5236  4.9067
  786MOL0     H 6058   9.739   6.110   7.548  1.6497 -0.1407 -0.0900
  786MOL0     H 6059   9.767   6.179   7.842  0.6964 -1.9199 -0.2638
  786MOL0     H 6060   9.894   6.163   7.718 -0.7565  0.7137 -0.8528
  786MOL0     H 6061   9.550   6.347   7.752  1.8856 -2.9713  4.3765
  786MOL0     H 6062   9.602   6.647   7.528  0.0599  3.3273  0.8892
  786MOL0     H 6063   9.481   6.571   7.635 -0.6530 -0.9869 -5.3489
  786MOL0     H 6064   9.618   6.723   7.831  2.2326  0.3522 -0.1972
  786MOL0     H 6065   9.642   6.824   7.688 -0.8651  0.8629  0.4430
  786MOL0     H 6066   9.370   6.751   7.782  0.0023 -1.8211 -0.9450
  786MOL0     H 6067   9.417   6.855   7.644 -1.1242  0.9328  0.4618
  786MOL0     H 6068   9.512   7.018   7.787 -0.8884  0.1068  0.1248
  786MOL0     H 6069   9.515   6.896   7.923  1.8185  0.2316 -0.9839
  786MOL0     H 6070   9.082   7.077   7.889  0.1566 -0.5241  0.6012
  786MOL0     H 6071   9.032   7.287   7.990  0.4407  0.8218 -0.2173
  786MOL0     H 6072   8.979   7.640   7.899 -1.5669  1.4675 -1.0712
  786MOL0     H 6073   8.871   7.867   7.915 -0.2716  1.7739  1.5047
  786MOL0     H 6074   8.855   8.091   7.908  0.5767 -0.0069  0.2027
  786MOL0     H 6075   8.721   8.031   8.005 -0.0685 -0.1523 -0.8315
  786MOL0     H 6076   8.720   8.277   7.975 -0.4673  3.4715  2.0759
  786MOL0     H 6077   8.734   8.240   8.145 -2.1983 -3.1539 -0.7467
  786MOL0     H 6078   8.996   8.263   8.106 -1.0108  0.0921  1.8137
  786MOL0     H 6079   8.949   8.313   7.941 -0.6063  0.9666 -0.3876
  786MOL0     H 6080   8.845   8.497   8.003 -1.4744 -1.8000 -0.4076
  786MOL0     H 6081   9.008   8.508   8.073 -0.7347  1.1467 -0.0017
  786MOL0     H 6082   8.916   8.421   8.299  2.9627  0.0425 -1.1001
  786MOL0     H 6083   8.763   8.444   8.235  0.7655 -1.9015 -0.3810
  786MOL0     H 6084   8.983   8.672   8.250 -0.1080 -1.1479  2.3939
  786MOL0     H 6085   8.830   8.697   8.172  2.0743 -0.3975 -2.4202
  786MOL0     H 6086   8.816   8.786   8.393  1.3252  0.5041  0.3480
  786MOL0     H 6087   8.887   8.646   8.470  2.2608 -0.0428 -2.9744
  786MOL0     H 6088   8.613   8.662   8.327 -4.0280  0.4520  4.1219
  786MOL0     H 6089   8.679   8.514   8.407 -1.4759 -0.4996  1.0465
  786MOL0     H 6090   9.006   7.903   8.318  0.9255 -0.7256 -0.0631
  786MOL0     H 6091   9.086   7.680   8.319  1.3770 -2.1794  0.0083
  786MOL0     H 6092   9.446   7.363   8.073  2.1160 -2.0360  0.3899
  786MOL0     H 6093   9.503   7.135   7.987 -0.2694 -0.1564 -1.8033
  786MOL0     H 6094  10.436   5.519   7.254 -0.3139 -0.6076  2.1556
  786MOL0     H 6095  10.673   5.490   7.131 -0.5293  0.4277 -0.7199
  786MOL0     H 6096  11.010   5.618   6.925  2.4109  0.0224 -3.1645
  786MOL0     H 6097  11.244   5.603   6.844 -0.0537 -0.5680  0.7024
  786MOL0     H 6098  11.433   5.649   6.790 -1.4134 -2.1850  0.2137
  786MOL0     H 6099  11.468   5.486   6.793  0.9522 -0.6189 -1.4240
  786MOL0     H 6100  11.667   5.698   6.858  1.8921  0.6234 -2.3083
  786MOL0     H 6101  11.668   5.594   6.725  1.1474 -0.1970  1.3324
  786MOL0     H 6102  11.718   5.485   7.003  1.1720 -1.4657 -0.0802
  786MOL0     H 6103  11.832   5.491   6.880 -0.2172 -1.8655 -1.1869
  786MOL0     H 6104  11.755   5.266   6.894 -1.0107 -2.5816 -2.1498
  786MOL0     H 6105  11.581   5.320   6.898 -0.9402  4.9331 -0.2030
  786MOL0     H 6106  11.666   5.353   6.476  1.1539  1.9692 -0.7166
  786MOL0     H 6107  11.397   5.548   7.225 -0.9079  1.2219  1.8335
  786MOL0     H 6108  11.275   5.507   7.402  0.0543 -0.1730 -2.6187
  786MOL0     H 6109  11.185   5.664   7.429 -0.7686  0.4965  0.3583
  786MOL0     H 6110  11.105   5.504   7.408 -1.1968  1.5886 -0.6404
  787MOL0     O 6111  11.109   1.662   0.620  0.3132 -0.0228  0.7415
  787MOL0     C 6112  11.176   1.570   0.563 -0.0666 -0.7001 -0.2117
  787MOL0     O 6113  11.126   1.445   0.544  0.6624 -0.0223  0.5054
  787MOL0     C 6114  10.995   1.410   0.588  0.6097 -0.7580  0.7586
  787MOL0     C 6115  10.997   1.335   0.706 -0.6102 -0.1375 -0.1576
  787MOL0     C 6116  10.880   1.294   0.768  0.7278 -0.8070  0.6475
  787MOL0     C 6117  10.759   1.315   0.704 -0.1674  0.6885  0.2182
  787MOL0     O 6118  10.647   1.272   0.765  0.1301  0.6715 -0.0729
  787MOL0     C 6119  10.537   1.369   0.767  0.3868  0.5723  0.0783
  787MOL0     C 6120  10.424   1.314   0.857 -0.1060 -0.4826  0.0654
  787MOL0     C 6121  10.341   1.190   0.821 -0.9607  1.0906  0.5974
  787MOL0     C 6122  10.231   1.167   0.924  0.4473  1.0939 -0.6139
  787MOL0     C 6123  10.162   1.028   0.888  0.1072  0.1066  0.1189
  787MOL0     C 6124  10.064   0.983   0.995  0.1657  0.2691 -0.4702
  787MOL0     C 6125  10.027   0.837   0.977  0.2657  0.9231  0.0368
  787MOL0     C 6126   9.894   0.807   1.054 -0.6743  0.3572 -0.0302
  787MOL0     N 6127   9.903   0.841   1.195  1.2079 -0.1755 -0.1429
  787MOL0     C 6128   9.955   0.764   1.296  0.3493  0.3140 -0.2371
  787MOL0     C 6129   9.937   0.832   1.409  0.1395 -0.0815 -0.1271
  787MOL0     C 6130   9.991   0.813   1.545 -0.7990 -0.4619  0.6288
  787MOL0     C 6131  10.145   0.853   1.541 -0.0997 -0.6847  0.3123
  787MOL0     C 6132  10.189   0.913   1.679 -0.5513 -0.2848  0.4371
  787MOL0     C 6133  10.344   0.915   1.697 -0.0293  0.9794 -0.0435
  787MOL0     O 6134  10.389   1.011   1.610  0.2327  0.2654  0.2079
  787MOL0     C 6135  10.520   1.048   1.611  0.2373  0.0810  0.1748
  787MOL0     C 6136  10.548   1.155   1.527  0.4413  0.3653  0.0656
  787MOL0     C 6137  10.675   1.216   1.519  0.1856  1.4055 -0.8470
  787MOL0     C 6138  10.779   1.166   1.605  0.7934 -0.6701 -0.0025
  787MOL0     C 6139  10.917   1.220   1.623  0.2791  0.4134  0.3984
  787MOL0     O 6140  11.015   1.130   1.661  0.9556  0.0047  0.1238
  787MOL0     C 6141  11.145   1.170   1.667  0.2997  0.0438  0.0455
  787MOL0     C 6142  11.205   1.250   1.579  0.6181  0.6241  0.4480
  787MOL0     C 6143  11.338   1.283   1.582 -0.1025  0.6706 -0.7251
  787MOL0     C 6144  11.415   1.212   1.677  0.1968 -0.5460 -1.0887
  787MOL0     O 6145  11.543   1.246   1.704 -0.5689 -0.3625  0.1890
  787MOL0     C 6146  11.631   1.263   1.590  0.4542  0.2497 -0.5810
  787MOL0     C 6147  11.772   1.260   1.651 -0.2587 -0.3990 -0.7878
  787MOL0     C 6148  11.862   1.385   1.613  1.0423  0.7305 -0.9954
  787MOL0     C 6149  11.820   1.525   1.664  0.8194 -0.4876 -0.8604
  787MOL0     C 6150  11.885   1.631   1.582  0.7057  0.1761 -0.0250
  787MOL0     C 6151  12.035   1.634   1.574 -0.0533  0.0778 -0.4198
  787MOL0     C 6152  12.080   1.775   1.495 -0.2079  0.1916  0.1959
  787MOL0     C 6153  12.222   1.814   1.527  0.0240 -0.4123 -0.3595
  787MOL0    Cl 6154  12.341   1.712   1.444 -0.4727 -0.2781 -0.0473
  787MOL0     C 6155  11.358   1.121   1.761 -0.2361  0.2631  0.1016
  787MOL0     C 6156  11.221   1.105   1.760  0.2825 -0.3389 -0.0969
  787MOL0     O 6157  10.932   1.342   1.608 -1.2411  0.3890 -0.2355
  787MOL0     C 6158  10.744   1.051   1.678  0.7250  0.5739  0.1148
  787MOL0     C 6159  10.618   0.990   1.681  0.7286  0.2636 -0.1935
  787MOL0     N 6160   9.882   0.956   1.379 -0.3464 -0.0484  0.2263
  787MOL0     N 6161   9.873   0.966   1.247 -0.2432  0.3582  0.2966
  787MOL0     C 6162  10.757   1.392   0.585  0.0133 -0.8424  0.5372
  787MOL0     C 6163  10.876   1.443   0.527  0.4199 -0.1384 -0.4955
  787MOL0     C 6164  11.311   1.600   0.502  0.8296  0.2502 -0.2475
  787MOL0     C 6165  11.347   1.737   0.486 -0.7577  0.2914  0.0856
  787MOL0     C 6166  11.468   1.770   0.430  0.8458 -0.5560  0.1462
  787MOL0     C 6167  11.562   1.670   0.402  0.2548  0.4812  0.0865
  787MOL0     O 6168  11.689   1.692   0.359  0.1903 -0.6341 -0.0555
  787MOL0     C 6169  11.745   1.828   0.338 -0.4036  0.5741 -0.0603
  787MOL0     C 6170  11.892   1.811   0.315 -0.7983 -0.6632  0.1443
  787MOL0     C 6171  11.953   1.941   0.239  0.1626  0.0989 -0.5697
  787MOL0     C 6172  12.105   1.935   0.227  0.2128  0.4623  0.1906
  787MOL0     C 6173  12.147   1.821   0.140 -0.3546  0.0277 -0.7274
  787MOL0     C 6174  12.177   1.738   0.057  0.3186 -0.2822  0.1337
  787MOL0     C 6175  11.531   1.536   0.431 -0.0114 -0.0456  1.7682
  787MOL0     C 6176  11.404   1.500   0.479 -0.4058  0.1217 -0.1712
  787MOL0     C 6177  11.384   1.353   0.507 -0.5063 -0.3026 -0.0248
  787MOL0     H 6178  11.089   1.317   0.760 -0.9820  1.8644  1.2495
  787MOL0     H 6179  10.874   1.237   0.860  0.1527 -1.1311  0.4202
  787MOL0     H 6180  10.571   1.468   0.800 -0.5600  0.2437  2.1943
  787MOL0     H 6181  10.493   1.385   0.668 -2.3309  5.5393  1.7662
  787MOL0     H 6182  10.355   1.394   0.885  0.1608 -0.1394 -0.2475
  787MOL0     H 6183  10.460   1.289   0.958  0.1175  1.3329  0.4645
  787MOL0     H 6184  10.400   1.098   0.827 -4.0482 -1.0627  0.8345
  787MOL0     H 6185  10.295   1.203   0.723 -1.5252  2.7207  1.0541
  787MOL0     H 6186  10.290   1.163   1.016  2.4699  1.7228 -1.8148
  787MOL0     H 6187  10.166   1.254   0.929 -1.4829 -0.1332 -2.3484
  787MOL0     H 6188  10.121   1.024   0.787 -2.6986 -0.5347  1.2001
  787MOL0     H 6189  10.236   0.946   0.889  1.4659  1.2236 -1.9121
  787MOL0     H 6190  10.109   0.996   1.094 -1.9480  0.2880  0.5389
  787MOL0     H 6191   9.973   1.043   0.988  1.0282  1.4441 -2.5807
  787MOL0     H 6192  10.106   0.770   1.011 -0.7191 -1.0978 -1.3735
  787MOL0     H 6193  10.018   0.825   0.869 -0.8776 -2.1317  0.3538
  787MOL0     H 6194   9.808   0.859   1.010 -0.8318  0.4686  0.4069
  787MOL0     H 6195   9.871   0.700   1.052 -2.5563  0.6876  1.2044
  787MOL0     H 6196  10.005   0.667   1.296 -1.4054 -0.6418 -0.7915
  787MOL0     H 6197   9.931   0.856   1.625  0.9829  1.6441  0.9390
  787MOL0     H 6198   9.983   0.704   1.557 -1.4765 -0.5295 -0.3562
  787MOL0     H 6199  10.209   0.775   1.499 -1.2568 -1.0499 -0.8452
  787MOL0     H 6200  10.150   0.943   1.479 -0.5658  0.6161  2.0555
  787MOL0     H 6201  10.148   0.856   1.763 -0.7251 -0.3567  0.3020
  787MOL0     H 6202  10.152   1.014   1.697  0.4806 -0.1463  1.9977
  787MOL0     H 6203  10.384   0.816   1.673  0.2685  1.0511  0.1466
  787MOL0     H 6204  10.368   0.944   1.800  0.2409  3.2584 -0.6977
  787MOL0     H 6205  10.468   1.203   1.472 -0.7019 -1.0595  0.4166
  787MOL0     H 6206  10.705   1.294   1.450 -3.0544  1.7770 -1.9879
  787MOL0     H 6207  11.147   1.304   1.506  0.4299  0.7973  0.7215
  787MOL0     H 6208  11.372   1.360   1.513  1.0252  2.0019  1.2285
  787MOL0     H 6209  11.624   1.179   1.522  1.6882 -0.7865  0.5191
  787MOL0     H 6210  11.619   1.351   1.526  1.9566 -0.1014 -1.3867
  787MOL0     H 6211  11.762   1.246   1.759 -4.1349 -0.6366 -1.0597
  787MOL0     H 6212  11.822   1.165   1.631 -0.4356 -0.6761  0.0534
  787MOL0     H 6213  11.965   1.366   1.644  1.8450  0.7132 -3.4516
  787MOL0     H 6214  11.873   1.392   1.504  1.7481 -1.6444 -1.1282
  787MOL0     H 6215  11.861   1.539   1.764  0.5888  2.7181 -1.1255
  787MOL0     H 6216  11.712   1.541   1.668  1.1211  1.8213 -0.7809
  787MOL0     H 6217  11.846   1.725   1.623 -0.2493  1.2676 -3.2096
  787MOL0     H 6218  11.834   1.615   1.487  0.1058 -1.8011  0.5796
  787MOL0     H 6219  12.068   1.627   1.678  0.7471  2.6173 -0.4360
  787MOL0     H 6220  12.073   1.548   1.519 -0.0460  1.3459 -2.4852
  787MOL0     H 6221  12.015   1.861   1.514 -1.9543 -0.6761 -1.4529
  787MOL0     H 6222  12.076   1.754   1.387  1.2350 -0.4012  0.2283
  787MOL0     H 6223  12.238   1.922   1.523 -0.3943 -0.2317  1.6703
  787MOL0     H 6224  12.240   1.785   1.631 -0.8304  1.2000  0.2695
  787MOL0     H 6225  11.410   1.069   1.841  0.8712  2.7076  1.0736
  787MOL0     H 6226  11.173   1.040   1.833 -0.8524  3.3288  2.7447
  787MOL0     H 6227  10.820   1.009   1.744  2.6669 -1.0288 -2.8944
  787MOL0     H 6228  10.585   0.914   1.751  2.5936  1.3791  2.0347
  787MOL0     H 6229  10.668   1.410   0.524  0.0015  0.2970  0.8622
  787MOL0     H 6230  10.880   1.493   0.431 -0.1048 -1.0903 -1.0300
  787MOL0     H 6231  11.266   1.807   0.505 -0.0361  1.3209 -0.5144
  787MOL0     H 6232  11.497   1.874   0.426  0.4893 -0.3480  2.0120
  787MOL0     H 6233  11.722   1.887   0.427  0.7960 -2.0845  2.1643
  787MOL0     H 6234  11.693   1.858   0.246 -1.1667 -1.6636 -0.4330
  787MOL0     H 6235  11.915   1.721   0.258  2.5480 -0.8857  1.6214
  787MOL0     H 6236  11.948   1.809   0.410  1.0227  2.4679 -0.6926
  787MOL0     H 6237  11.920   2.031   0.292  0.2951  0.0208 -0.3583
  787MOL0     H 6238  11.900   1.953   0.143 -1.5960  1.9883  0.5408
  787MOL0     H 6239  12.136   2.033   0.191  0.2745  1.1235  1.9520
  787MOL0     H 6240  12.149   1.921   0.327  0.6033  0.8514  0.0757
  787MOL0     H 6241  12.209   1.680  -0.027  0.3370  1.2851 -1.0051
  787MOL0     H 6242  11.599   1.457   0.400 -0.5418 -0.4726  1.6840
  787MOL0     H 6243  11.484   1.309   0.502  1.4236  3.5507  0.7347
  787MOL0     H 6244  11.346   1.351   0.609 -0.3069  2.7278  0.2149
  787MOL0     H 6245  11.316   1.300   0.440 -0.0640  0.8242 -1.4252
  788MOL0     O 6246   6.659   5.144   3.197  0.8873 -0.3332 -0.4237
  788MOL0     C 6247   6.721   5.156   3.295 -0.8940  0.4361 -0.8178
  788MOL0     O 6248   6.681   5.125   3.420 -0.2763 -1.0163 -0.4129
  788MOL0     C 6249   6.550   5.112   3.431  0.0520 -0.7929  0.6129
  788MOL0     C 6250   6.489   4.991   3.410  0.9928 -0.4748  0.5997
  788MOL0     C 6251   6.352   4.971   3.427 -0.1825 -0.5164 -0.0888
  788MOL0     C 6252   6.264   5.080   3.463  0.5259 -0.0264  0.5676
  788MOL0     O 6253   6.136   5.043   3.476 -0.2512  0.0722  0.2356
  788MOL0     C 6254   6.031   5.138   3.525  0.3794 -0.3305  0.4770
  788MOL0     C 6255   5.917   5.043   3.586 -0.3707  0.4511 -0.3558
  788MOL0     C 6256   5.848   4.967   3.468 -1.0888 -0.5347  0.0824
  788MOL0     C 6257   5.734   5.054   3.400  0.1315  0.2775 -0.2273
  788MOL0     C 6258   5.587   5.013   3.385  0.4315  0.7466  0.5918
  788MOL0     C 6259   5.507   5.006   3.516  0.0043 -1.1038 -0.8002
  788MOL0     C 6260   5.473   5.146   3.578 -0.1728  1.0600  0.6649
  788MOL0     C 6261   5.382   5.128   3.702  0.5001  0.2468 -0.1387
  788MOL0     N 6262   5.308   5.241   3.743 -0.5075  0.3094  0.2132
  788MOL0     C 6263   5.369   5.352   3.793  0.1901  0.2269  0.1345
  788MOL0     C 6264   5.284   5.456   3.756 -0.3014  0.1166 -0.2139
  788MOL0     C 6265   5.313   5.605   3.769  1.4876 -0.2266  0.7650
  788MOL0     C 6266   5.395   5.666   3.649  0.4722  0.4742  0.8939
  788MOL0     C 6267   5.446   5.810   3.672 -0.0346 -0.8219  0.0341
  788MOL0     C 6268   5.580   5.811   3.741 -0.1603 -0.1382  0.3794
  788MOL0     O 6269   5.626   5.949   3.777  0.4958 -0.2690 -0.1746
  788MOL0     C 6270   5.758   5.974   3.758 -0.9593 -0.8541 -0.9488
  788MOL0     C 6271   5.863   5.884   3.784 -0.3675  0.3641 -0.6921
  788MOL0     C 6272   5.993   5.911   3.747  0.0647  0.2614  0.5831
  788MOL0     C 6273   6.031   6.040   3.717  1.1297 -0.6534  1.0750
  788MOL0     C 6274   6.175   6.086   3.713  0.7746  0.3742  0.6479
  788MOL0     O 6275   6.192   6.224   3.698 -0.3054 -0.7171 -0.2232
  788MOL0     C 6276   6.319   6.281   3.689 -0.5678 -0.2014  0.1113
  788MOL0     C 6277   6.345   6.408   3.751 -0.4039  0.6819  0.1790
  788MOL0     C 6278   6.477   6.455   3.750  0.1880  0.4932 -0.4799
  788MOL0     C 6279   6.583   6.388   3.692 -0.3233  0.1622 -0.2206
  788MOL0     O 6280   6.704   6.451   3.703  0.2224 -0.5263  0.4675
  788MOL0     C 6281   6.830   6.383   3.688 -1.0182  0.7815  0.4520
  788MOL0     C 6282   6.950   6.481   3.710 -0.3878  0.4600  0.8139
  788MOL0     C 6283   6.949   6.589   3.614 -0.5647 -0.1865  0.4031
  788MOL0     C 6284   7.065   6.682   3.637  0.1952  0.7436  0.2865
  788MOL0     C 6285   7.063   6.817   3.567 -0.0173 -0.9483  0.2158
  788MOL0     C 6286   7.057   6.815   3.420 -0.2743 -0.9898 -0.1898
  788MOL0     C 6287   7.091   6.946   3.359  0.4942 -0.0020  0.7054
  788MOL0     C 6288   7.126   6.928   3.213 -0.2357 -0.1110 -0.1772
  788MOL0    Cl 6289   7.204   7.091   3.159  0.2732  0.0398  0.5131
  788MOL0     C 6290   6.565   6.279   3.617  0.7158 -0.0995 -0.5367
  788MOL0     C 6291   6.434   6.224   3.617 -0.2781  0.1577 -0.0724
  788MOL0     O 6292   6.261   5.997   3.705 -0.0796 -0.4563 -0.2058
  788MOL0     C 6293   5.927   6.137   3.701  0.0815 -0.5723  0.6691
  788MOL0     C 6294   5.793   6.100   3.717  0.0090 -0.4683  0.6898
  788MOL0     N 6295   5.173   5.403   3.697  0.1000  0.1988 -0.0532
  788MOL0     N 6296   5.193   5.283   3.686  0.1268  0.1567 -0.4257
  788MOL0     C 6297   6.328   5.203   3.488 -0.1885  0.6728  0.5694
  788MOL0     C 6298   6.469   5.216   3.480 -0.0970 -0.3879  0.3263
  788MOL0     C 6299   6.860   5.201   3.273 -0.5118 -0.3379  0.6693
  788MOL0     C 6300   6.946   5.213   3.388 -0.2497 -0.0273 -0.2223
  788MOL0     C 6301   7.073   5.281   3.377  0.4276  0.7179 -0.1944
  788MOL0     C 6302   7.129   5.314   3.256 -0.8345  0.6162 -0.1870
  788MOL0     O 6303   7.264   5.351   3.247 -0.1949 -0.0011 -0.5779
  788MOL0     C 6304   7.332   5.359   3.370 -1.1846  0.0906 -0.2166
  788MOL0     C 6305   7.460   5.432   3.344  0.5576  0.1322  0.1364
  788MOL0     C 6306   7.551   5.433   3.465  0.3291 -0.2021  0.4791
  788MOL0     C 6307   7.674   5.514   3.426  0.3446  0.0172  0.0638
  788MOL0     C 6308   7.656   5.651   3.474  0.3741  0.3986  0.4467
  788MOL0     C 6309   7.656   5.761   3.526  0.3072  1.2846  0.6606
  788MOL0     C 6310   7.050   5.298   3.140 -0.3348 -1.2045 -0.1271
  788MOL0     C 6311   6.915   5.250   3.146  0.7234 -0.9980 -0.2191
  788MOL0     C 6312   6.837   5.268   3.017 -0.0315  0.2315 -0.5264
  788MOL0     H 6313   6.547   4.902   3.387  1.0980 -0.2599  0.0219
  788MOL0     H 6314   6.325   4.868   3.407 -0.5040 -0.9438  2.2667
  788MOL0     H 6315   6.073   5.200   3.605  1.2208 -1.1528  0.6835
  788MOL0     H 6316   5.987   5.202   3.448 -0.3140 -2.0027 -0.5520
  788MOL0     H 6317   5.848   5.103   3.646  1.1587  0.2219  1.7553
  788MOL0     H 6318   5.962   4.990   3.670 -1.4492  3.7638  2.5504
  788MOL0     H 6319   5.809   4.871   3.503 -0.3686 -0.7751  0.2536
  788MOL0     H 6320   5.932   4.953   3.399 -0.6771 -2.0193  0.8182
  788MOL0     H 6321   5.724   5.148   3.455 -0.4960  0.6867 -1.0321
  788MOL0     H 6322   5.778   5.097   3.310 -1.4665 -0.2319 -1.2865
  788MOL0     H 6323   5.529   5.075   3.316 -1.1146  0.6798  1.7845
  788MOL0     H 6324   5.593   4.910   3.348 -0.3534  1.5672 -2.0453
  788MOL0     H 6325   5.414   4.952   3.496  0.2936 -2.1529  0.5364
  788MOL0     H 6326   5.573   4.963   3.592  1.0854  2.0041  0.1920
  788MOL0     H 6327   5.416   5.208   3.508  2.9130  1.5693 -1.5843
  788MOL0     H 6328   5.568   5.199   3.595 -1.1874  2.8698  1.0079
  788MOL0     H 6329   5.309   5.049   3.680  1.1761 -0.4132 -0.0394
  788MOL0     H 6330   5.443   5.097   3.788  1.6649  1.8304 -0.3480
  788MOL0     H 6331   5.463   5.340   3.846 -0.2740 -2.8246  0.4411
  788MOL0     H 6332   5.221   5.664   3.770  1.1673 -0.6625 -0.4540
  788MOL0     H 6333   5.367   5.621   3.863 -1.1291 -2.6636  2.8459
  788MOL0     H 6334   5.484   5.606   3.629 -1.0758 -0.7271 -3.1890
  788MOL0     H 6335   5.330   5.660   3.562  1.1211  0.1674  0.4288
  788MOL0     H 6336   5.369   5.861   3.729  0.4576  2.5739 -2.0630
  788MOL0     H 6337   5.465   5.870   3.582  0.6820 -0.0803  0.6652
  788MOL0     H 6338   5.646   5.766   3.666 -0.5732  1.1461 -0.7942
  788MOL0     H 6339   5.566   5.753   3.833  3.3083  0.4863  1.4455
  788MOL0     H 6340   5.833   5.786   3.819  1.2768 -0.2472 -0.8960
  788MOL0     H 6341   6.067   5.832   3.762 -0.0646 -0.4921 -2.1813
  788MOL0     H 6342   6.270   6.468   3.802  0.2576  2.9270 -1.3299
  788MOL0     H 6343   6.499   6.546   3.804 -0.0180 -1.5320  3.3507
  788MOL0     H 6344   6.824   6.306   3.765 -3.0781  2.8813  2.5636
  788MOL0     H 6345   6.836   6.346   3.585  0.0876  3.2200 -0.4306
  788MOL0     H 6346   6.949   6.512   3.815  1.8668 -0.6072  1.2176
  788MOL0     H 6347   7.040   6.422   3.690 -1.9717 -1.5976 -0.7239
  788MOL0     H 6348   6.944   6.557   3.509 -2.6933  0.5956  0.2030
  788MOL0     H 6349   6.851   6.637   3.619 -1.0610 -1.2928  3.4291
  788MOL0     H 6350   7.154   6.635   3.593 -1.1286  2.0979 -4.4187
  788MOL0     H 6351   7.075   6.701   3.744 -0.5240 -2.0918  0.9376
  788MOL0     H 6352   7.148   6.880   3.595 -0.7159  0.5806 -0.9098
  788MOL0     H 6353   6.970   6.866   3.598 -0.5661 -2.4064  0.9555
  788MOL0     H 6354   7.132   6.747   3.378  0.1805  1.1753 -3.2289
  788MOL0     H 6355   6.956   6.790   3.387 -0.9727 -1.5676  2.1978
  788MOL0     H 6356   7.176   7.003   3.398 -1.7470  3.4347  0.9417
  788MOL0     H 6357   7.004   7.009   3.375 -0.0956 -0.3962 -0.8140
  788MOL0     H 6358   7.198   6.846   3.212 -1.8737 -1.7773  3.3601
  788MOL0     H 6359   7.039   6.914   3.148  2.1569  2.5883 -4.4213
  788MOL0     H 6360   6.645   6.229   3.563  1.4963  1.2936 -0.7310
  788MOL0     H 6361   6.425   6.132   3.561 -0.4924  0.6623 -0.8842
  788MOL0     H 6362   5.959   6.235   3.667  4.2854 -1.6390  1.0018
  788MOL0     H 6363   5.723   6.177   3.686 -1.1150 -1.4527  0.7077
  788MOL0     H 6364   6.268   5.289   3.513 -1.3970  0.0978 -0.2855
  788MOL0     H 6365   6.511   5.315   3.499  1.3625 -1.0659  0.7996
  788MOL0     H 6366   6.903   5.181   3.483 -0.8574  2.1557  0.2804
  788MOL0     H 6367   7.124   5.293   3.472  2.4237 -2.0739 -0.7612
  788MOL0     H 6368   7.339   5.261   3.419  2.0436 -0.5244 -1.6555
  788MOL0     H 6369   7.271   5.421   3.436 -4.7962 -1.1243 -2.1154
  788MOL0     H 6370   7.443   5.534   3.310  3.2641  0.8924  0.8338
  788MOL0     H 6371   7.520   5.379   3.269  2.1725  1.8465  0.1363
  788MOL0     H 6372   7.588   5.332   3.486 -1.3185 -1.4104 -1.9612
  788MOL0     H 6373   7.490   5.465   3.550 -1.2711 -2.1878  0.1660
  788MOL0     H 6374   7.762   5.467   3.470  0.8292 -0.7001 -1.5836
  788MOL0     H 6375   7.674   5.515   3.316 -1.1600  0.0094  0.0408
  788MOL0     H 6376   7.658   5.855   3.577 -1.0887  1.9561 -0.4463
  788MOL0     H 6377   7.083   5.346   3.048 -1.2515 -0.5609 -0.1288
  788MOL0     H 6378   6.879   5.329   2.936  1.9607  0.6175  0.7354
  788MOL0     H 6379   6.840   5.167   2.975 -1.1042 -1.4287  3.0682
  788MOL0     H 6380   6.738   5.310   3.038  1.0790  1.1379  3.8416
  789MOL0     O 6381   2.302   2.185   0.120  0.6761  0.2035 -0.6849
  789MOL0     C 6382   2.188   2.218   0.160  0.4142  0.3741 -1.7471
  789MOL0     O 6383   2.071   2.176   0.112 -0.6646 -0.4460  0.7300
  789MOL0     C 6384   2.080   2.054   0.046 -0.3077 -0.5878 -0.2480
  789MOL0     C 6385   2.061   2.048  -0.092  0.2984 -0.7367 -0.3796
  789MOL0     C 6386   2.054   1.921  -0.155  0.5140  0.9598 -0.0180
  789MOL0     C 6387   2.084   1.803  -0.082 -0.6973 -0.6455 -0.1320
  789MOL0     O 6388   2.079   1.674  -0.125  0.2690 -0.0162  0.4464
  789MOL0     C 6389   2.202   1.620  -0.154 -0.3617  0.2264  0.1267
  789MOL0     C 6390   2.237   1.660  -0.298  0.4211  0.2256 -0.4800
  789MOL0     C 6391   2.354   1.573  -0.363  0.9122 -0.0584 -0.6671
  789MOL0     C 6392   2.357   1.607  -0.512  0.4487 -0.6237  0.1467
  789MOL0     C 6393   2.447   1.509  -0.586  0.4082  0.0310  0.7336
  789MOL0     C 6394   2.475   1.554  -0.727  0.1826 -0.6083 -0.9225
  789MOL0     C 6395   2.583   1.468  -0.788  0.1992 -0.8940  0.2036
  789MOL0     C 6396   2.596   1.515  -0.933  0.1805 -0.3134  0.0928
  789MOL0     N 6397   2.686   1.432  -1.011 -0.5809  0.7380  0.6207
  789MOL0     C 6398   2.652   1.314  -1.072 -0.3712  0.4548  0.3421
  789MOL0     C 6399   2.765   1.266  -1.143  0.6567 -0.5860  0.3887
  789MOL0     C 6400   2.754   1.152  -1.237 -1.1674 -0.7270 -0.2641
  789MOL0     C 6401   2.881   1.062  -1.232  0.3630  1.1286 -0.9861
  789MOL0     C 6402   2.928   1.014  -1.094  0.5870 -0.3094 -0.0819
  789MOL0     C 6403   3.040   0.921  -1.118 -0.1145  0.2263  0.2498
  789MOL0     O 6404   3.101   0.879  -0.998  1.0134  1.0373  0.9182
  789MOL0     C 6405   3.179   0.764  -1.005  0.2970 -1.0373 -0.1775
  789MOL0     C 6406   3.192   0.669  -1.110  0.2697 -0.1889 -0.5849
  789MOL0     C 6407   3.283   0.560  -1.100  1.1640  0.2552 -0.4922
  789MOL0     C 6408   3.360   0.541  -0.982  0.6380 -0.7008 -0.3352
  789MOL0     C 6409   3.451   0.429  -0.970  0.1361 -0.8016  0.1049
  789MOL0     O 6410   3.513   0.407  -0.851 -0.1574  0.3710 -0.6683
  789MOL0     C 6411   3.608   0.312  -0.847 -0.3907  0.0068 -0.6345
  789MOL0     C 6412   3.578   0.187  -0.875 -0.6441  0.2911 -0.3160
  789MOL0     C 6413   3.683   0.095  -0.870 -1.0459  0.4366 -0.1149
  789MOL0     C 6414   3.815   0.129  -0.837 -0.0790  1.4269  0.7775
  789MOL0     O 6415   3.924   0.047  -0.853 -0.2374 -0.6504 -0.4547
  789MOL0     C 6416   3.902  -0.089  -0.882  0.2002  0.4582 -0.1560
  789MOL0     C 6417   4.029  -0.172  -0.884  0.6427 -0.1706  0.3403
  789MOL0     C 6418   4.082  -0.186  -0.742 -0.1882  0.0960  0.9608
  789MOL0     C 6419   4.215  -0.264  -0.737  0.2339 -0.0035  0.3945
  789MOL0     C 6420   4.195  -0.409  -0.786 -0.3268  0.2464 -0.3546
  789MOL0     C 6421   4.331  -0.492  -0.773  0.5596 -0.2674  0.7763
  789MOL0     C 6422   4.320  -0.630  -0.832  0.0803  0.7876  0.6823
  789MOL0     C 6423   4.450  -0.712  -0.820 -0.1018  1.1723  0.1477
  789MOL0    Cl 6424   4.397  -0.877  -0.843 -0.0025  0.1908  0.2998
  789MOL0     C 6425   3.842   0.260  -0.802  0.4882  1.3217 -0.2987
  789MOL0     C 6426   3.736   0.352  -0.803  0.5211 -0.5663 -0.4576
  789MOL0     O 6427   3.482   0.374  -1.077  0.0824 -0.1326 -0.0672
  789MOL0     C 6428   3.359   0.650  -0.893  0.9363  1.0627  0.4911
  789MOL0     C 6429   3.266   0.755  -0.903 -1.1094  0.5198 -0.2763
  789MOL0     N 6430   2.857   1.365  -1.129  0.3439 -1.1063 -0.7161
  789MOL0     N 6431   2.810   1.459  -1.050 -0.3520 -0.4604 -0.5848
  789MOL0     C 6432   2.106   1.815   0.055  0.6859  0.5694  0.7821
  789MOL0     C 6433   2.095   1.938   0.123  0.9846  0.1044  0.2553
  789MOL0     C 6434   2.196   2.290   0.288 -0.7188  0.6433  0.4758
  789MOL0     C 6435   2.248   2.218   0.391  0.4804 -0.2209 -0.0336
  789MOL0     C 6436   2.233   2.255   0.526  0.1952 -0.5177 -0.4571
  789MOL0     C 6437   2.169   2.377   0.552 -0.1507 -0.4093  0.3996
  789MOL0     O 6438   2.146   2.412   0.681 -0.3159  0.7174  0.2418
  789MOL0     C 6439   2.074   2.531   0.721 -0.3098 -0.0245  0.4357
  789MOL0     C 6440   2.170   2.643   0.746 -0.6106  0.4451  0.7528
  789MOL0     C 6441   2.280   2.607   0.850 -0.5322  0.0234  0.8279
  789MOL0     C 6442   2.230   2.593   0.998  0.2273  0.1548 -0.0440
  789MOL0     C 6443   2.346   2.566   1.086 -1.0520  0.7939  0.0503
  789MOL0     C 6444   2.438   2.536   1.169  0.3911  0.7497 -0.4206
  789MOL0     C 6445   2.134   2.457   0.442 -0.3300 -0.7777  1.0931
  789MOL0     C 6446   2.142   2.411   0.309  0.1938 -0.7964 -0.0669
  789MOL0     C 6447   2.083   2.494   0.193 -0.2775 -0.2036 -0.5073
  789MOL0     H 6448   2.035   2.139  -0.144 -1.1119  0.5673  2.3733
  789MOL0     H 6449   2.021   1.898  -0.256  1.5181 -2.5223  0.3125
  789MOL0     H 6450   2.279   1.638  -0.078 -1.1098 -0.6600  1.1307
  789MOL0     H 6451   2.187   1.512  -0.154 -0.1215  0.0987 -3.2252
  789MOL0     H 6452   2.272   1.763  -0.305  0.6632  0.2883  1.2296
  789MOL0     H 6453   2.151   1.635  -0.360 -1.6563  1.0315  1.9054
  789MOL0     H 6454   2.335   1.467  -0.344 -1.2781  0.8453  3.4835
  789MOL0     H 6455   2.453   1.595  -0.322  0.3933 -0.0784  0.6525
  789MOL0     H 6456   2.260   1.593  -0.560 -0.2105  1.6657  0.7277
  789MOL0     H 6457   2.388   1.711  -0.508 -1.1502 -0.1539  3.1858
  789MOL0     H 6458   2.540   1.487  -0.533  0.5639 -1.3712 -0.0827
  789MOL0     H 6459   2.402   1.410  -0.593 -2.9130  1.5175 -1.1839
  789MOL0     H 6460   2.381   1.541  -0.781 -0.6728 -3.8406  1.0971
  789MOL0     H 6461   2.511   1.657  -0.730 -2.4392  0.4892  1.0122
  789MOL0     H 6462   2.555   1.362  -0.780 -1.7655 -0.2788  3.2266
  789MOL0     H 6463   2.678   1.481  -0.736  1.4550  0.1583 -2.1804
  789MOL0     H 6464   2.500   1.527  -0.984  0.5233 -0.1285 -0.5217
  789MOL0     H 6465   2.627   1.620  -0.941  0.8810 -0.4990  0.3659
  789MOL0     H 6466   2.556   1.263  -1.067 -0.0118 -0.1126  2.3129
  789MOL0     H 6467   2.666   1.091  -1.212 -1.3238 -0.7433 -0.8354
  789MOL0     H 6468   2.747   1.198  -1.336 -1.0319 -0.7739 -0.2957
  789MOL0     H 6469   2.867   0.964  -1.278  5.3111 -1.2973  1.9972
  789MOL0     H 6470   2.960   1.122  -1.279  1.9985  0.2210  0.5368
  789MOL0     H 6471   2.849   0.970  -1.033  0.9769 -0.9636 -0.0432
  789MOL0     H 6472   2.961   1.103  -1.038  0.9180 -0.1038 -0.5918
  789MOL0     H 6473   3.103   0.967  -1.194 -2.2068  2.8163 -0.0664
  789MOL0     H 6474   2.988   0.836  -1.163 -0.4975 -0.1848  1.4215
  789MOL0     H 6475   3.141   0.668  -1.206  0.4264 -1.5067 -0.6835
  789MOL0     H 6476   3.275   0.486  -1.178  1.2196 -0.9777  0.6260
  789MOL0     H 6477   3.480   0.156  -0.909 -0.0585 -0.3601 -1.4864
  789MOL0     H 6478   3.654  -0.005  -0.903  0.3915 -0.1182  0.2447
  789MOL0     H 6479   3.840  -0.139  -0.807  2.0915 -1.3881  0.2613
  789MOL0     H 6480   3.854  -0.098  -0.980 -3.5727  0.5509  1.5303
  789MOL0     H 6481   4.006  -0.275  -0.911  1.1627 -0.6998  1.8541
  789MOL0     H 6482   4.100  -0.119  -0.949 -0.6155  1.1534 -0.0257
  789MOL0     H 6483   4.102  -0.087  -0.700 -0.8532  0.9580 -0.6813
  789MOL0     H 6484   4.003  -0.223  -0.676 -2.2238  2.1662 -0.1723
  789MOL0     H 6485   4.237  -0.275  -0.631  0.8329 -1.6793  0.1119
  789MOL0     H 6486   4.298  -0.223  -0.796 -2.0308  1.2988 -2.1118
  789MOL0     H 6487   4.156  -0.404  -0.888 -2.7334  1.8801  0.5433
  789MOL0     H 6488   4.122  -0.459  -0.721  0.4455 -0.6452 -0.1540
  789MOL0     H 6489   4.421  -0.454  -0.821  0.0313 -3.3314 -3.1091
  789MOL0     H 6490   4.363  -0.505  -0.669  3.2943 -1.4575 -0.1261
  789MOL0     H 6491   4.290  -0.624  -0.937  0.6382  0.9583  0.5301
  789MOL0     H 6492   4.238  -0.680  -0.779  2.1400  0.2604  3.6313
  789MOL0     H 6493   4.516  -0.688  -0.904 -0.3704 -2.8392 -1.4349
  789MOL0     H 6494   4.494  -0.698  -0.721 -0.2428  1.2655  0.1981
  789MOL0     H 6495   3.939   0.304  -0.784 -1.2507  3.9550  4.7465
  789MOL0     H 6496   3.748   0.459  -0.787  1.4045 -0.8910  1.3268
  789MOL0     H 6497   3.424   0.632  -0.809  0.9413 -1.8630 -0.0423
  789MOL0     H 6498   3.273   0.824  -0.819  3.7660  1.0030 -0.7421
  789MOL0     H 6499   2.140   1.727   0.109  1.0550  1.3429  1.8423
  789MOL0     H 6500   2.105   1.935   0.231  3.2157 -1.6188  0.0813
  789MOL0     H 6501   2.292   2.121   0.367  2.4095  0.8414 -1.0452
  789MOL0     H 6502   2.254   2.185   0.606  0.6716  0.8429  0.6568
  789MOL0     H 6503   2.010   2.505   0.806  2.2359 -0.7432  2.2528
  789MOL0     H 6504   2.002   2.555   0.642 -0.6993 -3.0665 -0.2257
  789MOL0     H 6505   2.119   2.735   0.776 -1.3153  0.6284 -0.9233
  789MOL0     H 6506   2.207   2.671   0.647  0.8799  0.4424  1.2885
  789MOL0     H 6507   2.358   2.684   0.848  2.4624 -2.7480 -2.3265
  789MOL0     H 6508   2.334   2.519   0.815  0.0688 -0.6209  3.2376
  789MOL0     H 6509   2.172   2.677   1.036 -0.5913 -1.0298  1.4718
  789MOL0     H 6510   2.163   2.509   1.018 -0.5073  0.2697 -1.7931
  789MOL0     H 6511   2.528   2.506   1.218  1.6775  0.7848 -2.6088
  789MOL0     H 6512   2.091   2.557   0.448  2.1726  0.6232 -1.8109
  789MOL0     H 6513   2.002   2.446   0.137  3.3168 -2.0894 -4.7521
  789MOL0     H 6514   2.045   2.590   0.230 -1.9790 -0.7198 -0.8477
  789MOL0     H 6515   2.157   2.513   0.114 -0.2183  0.6404 -0.2686
  790MOL0     O 6516   4.526   8.570   1.433  0.2703  0.2486  0.1114
  790MOL0     C 6517   4.452   8.507   1.504  0.9238 -0.6962 -0.2352
  790MOL0     O 6518   4.498   8.418   1.605  0.0663 -0.0883 -0.0232
  790MOL0     C 6519   4.631   8.384   1.605  0.4262  0.3545 -0.4396
  790MOL0     C 6520   4.670   8.259   1.551 -0.0016 -0.5063  1.1872
  790MOL0     C 6521   4.807   8.229   1.556  1.3905  0.0983  0.2289
  790MOL0     C 6522   4.899   8.324   1.605  0.0427  0.4165 -0.6761
  790MOL0     O 6523   5.034   8.302   1.598  0.0367 -0.2559 -0.2220
  790MOL0     C 6524   5.130   8.357   1.701 -0.3734 -0.1007 -0.2742
  790MOL0     C 6525   5.264   8.353   1.639  0.6267 -0.9623  0.3884
  790MOL0     C 6526   5.324   8.220   1.613  0.9086 -0.1499  0.4345
  790MOL0     C 6527   5.392   8.159   1.735 -0.7056  0.2119 -0.8752
  790MOL0     C 6528   5.501   8.049   1.689  0.8867 -0.3042 -0.2035
  790MOL0     C 6529   5.635   8.105   1.648  0.0749 -0.5533  0.6487
  790MOL0     C 6530   5.724   7.985   1.604 -0.6118  0.2046  0.7133
  790MOL0     C 6531   5.851   8.047   1.551  0.3520  0.8124  0.2763
  790MOL0     N 6532   5.930   8.118   1.645  0.0582  0.6429 -0.0474
  790MOL0     C 6533   5.984   8.244   1.616  0.9113  0.7509 -1.0744
  790MOL0     C 6534   6.037   8.275   1.739 -0.6981  0.6582 -0.5323
  790MOL0     C 6535   6.099   8.411   1.773  0.1695  0.7121  0.0873
  790MOL0     C 6536   6.085   8.455   1.919 -0.0501 -0.6583  0.7337
  790MOL0     C 6537   5.944   8.464   1.983 -0.6439  0.4847 -0.7481
  790MOL0     C 6538   5.911   8.607   2.035 -0.4916 -0.7075  0.0993
  790MOL0     O 6539   5.795   8.612   2.123  0.7093 -0.1054 -0.0372
  790MOL0     C 6540   5.664   8.633   2.075  0.7138 -0.2285  0.4157
  790MOL0     C 6541   5.626   8.651   1.941  0.3480 -0.1681 -0.1222
  790MOL0     C 6542   5.488   8.662   1.912 -0.1239  0.2708  0.0083
  790MOL0     C 6543   5.386   8.675   2.012 -0.0758 -0.6372  0.9835
  790MOL0     C 6544   5.244   8.684   1.976  0.1301 -0.0079  0.7322
  790MOL0     O 6545   5.157   8.713   2.076  0.1582  0.4730  0.3182
  790MOL0     C 6546   5.027   8.744   2.031  0.0507 -0.1824 -0.5846
  790MOL0     C 6547   5.001   8.871   1.989  0.3817 -0.2272 -0.3209
  790MOL0     C 6548   4.874   8.903   1.948 -0.8093  0.5362 -0.1956
  790MOL0     C 6549   4.769   8.801   1.944 -0.9519  0.0866 -0.1697
  790MOL0     O 6550   4.647   8.816   1.882  0.4005  0.2442  0.2032
  790MOL0     C 6551   4.653   8.853   1.750 -1.0455 -0.5554 -0.2429
  790MOL0     C 6552   4.515   8.881   1.701  0.0269 -0.2229 -0.0655
  790MOL0     C 6553   4.502   8.898   1.553 -0.3684  0.4215 -0.5101
  790MOL0     C 6554   4.360   8.898   1.509 -0.0633 -0.0861 -0.9846
  790MOL0     C 6555   4.355   8.909   1.359 -0.2982  0.4998 -0.1543
  790MOL0     C 6556   4.212   8.916   1.301 -0.2584 -0.4483  0.6247
  790MOL0     C 6557   4.189   9.004   1.171 -0.8491  0.7280 -0.5873
  790MOL0     C 6558   4.248   8.939   1.044  0.3479  0.0790 -0.1110
  790MOL0    Cl 6559   4.360   8.801   1.042 -0.4936 -0.0924  0.0920
  790MOL0     C 6560   4.807   8.676   1.976 -0.2143  0.9486  0.6246
  790MOL0     C 6561   4.935   8.642   2.021  0.1793  0.0093 -0.9412
  790MOL0     O 6562   5.220   8.672   1.853 -0.4881 -0.1773 -0.5908
  790MOL0     C 6563   5.428   8.672   2.146 -0.3536 -0.9119 -0.5500
  790MOL0     C 6564   5.567   8.654   2.171 -0.6077 -0.4546 -0.0870
  790MOL0     N 6565   6.024   8.169   1.825 -0.0969  0.2302 -0.0748
  790MOL0     N 6566   5.962   8.073   1.775 -0.1752  0.2919  0.2017
  790MOL0     C 6567   4.850   8.435   1.662  0.2020 -0.2970 -0.0098
  790MOL0     C 6568   4.719   8.472   1.655  0.1008 -0.5658  0.3904
  790MOL0     C 6569   4.302   8.507   1.483 -0.2723 -0.9306 -1.7735
  790MOL0     C 6570   4.270   8.519   1.349  0.1519  0.1170  1.5446
  790MOL0     C 6571   4.133   8.545   1.316 -0.3730  0.5178 -0.7224
  790MOL0     C 6572   4.035   8.546   1.417 -0.4665  0.1508 -0.1810
  790MOL0     O 6573   3.898   8.573   1.397 -0.4087  0.8696 -0.1211
  790MOL0     C 6574   3.861   8.636   1.272  0.3085  0.3790  0.4717
  790MOL0     C 6575   3.718   8.689   1.279 -0.7973  0.4649 -0.6651
  790MOL0     C 6576   3.621   8.576   1.307 -0.0204 -0.0128 -0.9348
  790MOL0     C 6577   3.482   8.599   1.246  1.0237 -0.6628 -0.5904
  790MOL0     C 6578   3.402   8.712   1.315  0.6553  0.5159  0.4020
  790MOL0     C 6579   3.348   8.806   1.367  0.6517  0.0387 -0.8372
  790MOL0     C 6580   4.066   8.515   1.548 -0.4587  0.4808 -0.1319
  790MOL0     C 6581   4.202   8.495   1.581 -0.0810  0.3058 -0.0209
  790MOL0     C 6582   4.244   8.469   1.722  0.0738 -0.1078 -0.0680
  790MOL0     H 6583   4.609   8.183   1.504  1.6530  0.6459 -3.2648
  790MOL0     H 6584   4.839   8.136   1.511  1.0273 -0.8243  1.7841
  790MOL0     H 6585   5.108   8.462   1.726  2.3778  0.4671  0.0096
  790MOL0     H 6586   5.151   8.302   1.793 -0.0885  0.3997 -0.0360
  790MOL0     H 6587   5.329   8.417   1.699  1.0272  0.6441 -1.6242
  790MOL0     H 6588   5.255   8.407   1.544 -0.2637  3.8588  2.9187
  790MOL0     H 6589   5.408   8.232   1.544  2.9669 -0.5313  2.7102
  790MOL0     H 6590   5.247   8.151   1.576 -1.6482  0.3740  4.1808
  790MOL0     H 6591   5.430   8.235   1.803 -2.0086 -0.8355  1.1270
  790MOL0     H 6592   5.319   8.111   1.801 -0.4701  2.3776  1.0723
  790MOL0     H 6593   5.517   7.986   1.777 -1.4473 -0.0053  0.5183
  790MOL0     H 6594   5.444   7.990   1.616 -2.8674  1.1155  1.2934
  790MOL0     H 6595   5.626   8.180   1.569 -0.8452  1.2830  2.4094
  790MOL0     H 6596   5.686   8.160   1.728 -0.5366  1.9594 -0.5983
  790MOL0     H 6597   5.676   7.917   1.532  2.2397 -3.1161  1.6360
  790MOL0     H 6598   5.746   7.911   1.682 -2.2658 -1.2131 -0.0957
  790MOL0     H 6599   5.921   7.974   1.508 -1.2495 -1.4002  1.2054
  790MOL0     H 6600   5.832   8.100   1.457  3.4839 -0.0186 -0.9557
  790MOL0     H 6601   5.979   8.303   1.526 -1.3872  0.0347 -1.4806
  790MOL0     H 6602   6.204   8.418   1.746  0.6714  0.8839  1.9616
  790MOL0     H 6603   6.048   8.485   1.710  0.0593  0.9996  0.5056
  790MOL0     H 6604   6.144   8.390   1.983 -1.0185 -1.5463  0.7542
  790MOL0     H 6605   6.130   8.555   1.917  0.8755 -1.0570  1.5669
  790MOL0     H 6606   5.929   8.394   2.066 -0.2075  1.3442  0.0792
  790MOL0     H 6607   5.872   8.431   1.908  0.4441 -2.3326 -0.7109
  790MOL0     H 6608   5.904   8.681   1.954 -1.9111  0.9327  1.6514
  790MOL0     H 6609   5.998   8.638   2.093 -0.8121  1.5474 -0.5317
  790MOL0     H 6610   5.696   8.669   1.860  1.4029  0.5623  0.9166
  790MOL0     H 6611   5.458   8.676   1.809 -1.1380  0.7480  0.3541
  790MOL0     H 6612   5.071   8.953   1.979 -1.0058  0.8102 -1.9575
  790MOL0     H 6613   4.847   9.003   1.913 -3.0531  0.0094 -0.1659
  790MOL0     H 6614   4.706   8.948   1.742  0.0289 -0.4312  5.0871
  790MOL0     H 6615   4.699   8.781   1.681  1.3606  0.7073 -0.0904
  790MOL0     H 6616   4.447   8.804   1.739 -1.6848  0.7329 -1.0651
  790MOL0     H 6617   4.485   8.971   1.756  1.7044 -1.4420  3.0978
  790MOL0     H 6618   4.567   8.980   1.519  1.4790 -1.1014 -0.8814
  790MOL0     H 6619   4.549   8.811   1.506 -0.0355  1.5391 -2.3686
  790MOL0     H 6620   4.299   8.979   1.549 -0.6127 -0.5442 -0.8779
  790MOL0     H 6621   4.320   8.801   1.541  1.5768 -0.7372 -0.8371
  790MOL0     H 6622   4.417   8.836   1.306 -1.1415 -0.0774 -0.3726
  790MOL0     H 6623   4.403   9.005   1.344  0.0502  0.8992  2.8717
  790MOL0     H 6624   4.179   8.813   1.287 -1.3695  0.0818 -1.0141
  790MOL0     H 6625   4.142   8.952   1.377  2.3144  0.4019  2.7438
  790MOL0     H 6626   4.238   9.101   1.170  0.7773 -0.0595 -0.4952
  790MOL0     H 6627   4.083   9.027   1.160 -0.2442  5.3621  1.1803
  790MOL0     H 6628   4.160   8.908   0.986  0.8452  0.0444 -0.8658
  790MOL0     H 6629   4.302   9.014   0.984  2.0080  2.3128  3.7678
  790MOL0     H 6630   4.726   8.606   1.956 -0.2109  1.6527 -2.2177
  790MOL0     H 6631   4.961   8.544   2.059 -0.7029 -0.2621 -1.0381
  790MOL0     H 6632   5.355   8.663   2.225 -0.3740 -2.6624 -0.7284
  790MOL0     H 6633   5.589   8.648   2.278 -4.0698 -4.1704  0.6429
  790MOL0     H 6634   4.914   8.508   1.712  0.3775 -2.2794  2.9075
  790MOL0     H 6635   4.681   8.568   1.689 -0.3026 -0.6593  0.2055
  790MOL0     H 6636   4.353   8.514   1.280 -2.4203 -1.2077 -1.7384
  790MOL0     H 6637   4.122   8.566   1.210 -0.9092  2.6178 -0.2971
  790MOL0     H 6638   3.877   8.574   1.183 -0.4413  1.8031 -0.6974
  790MOL0     H 6639   3.917   8.728   1.252  1.4994 -0.3934  0.1556
  790MOL0     H 6640   3.705   8.746   1.187  2.6407  1.5987 -0.5505
  790MOL0     H 6641   3.723   8.753   1.367 -0.7853 -2.8222  1.9205
  790MOL0     H 6642   3.604   8.559   1.414  0.1013  2.7584 -0.3850
  790MOL0     H 6643   3.666   8.487   1.263  0.9478  0.9998 -2.0909
  790MOL0     H 6644   3.493   8.608   1.138 -0.2997  0.2007 -0.6876
  790MOL0     H 6645   3.430   8.505   1.269  0.6055  0.1743  2.2579
  790MOL0     H 6646   3.317   8.897   1.415  2.0838 -0.7431  1.8047
  790MOL0     H 6647   3.989   8.533   1.623  0.6874  0.5330  1.0615
  790MOL0     H 6648   4.156   8.471   1.786  2.5940 -1.3373  3.7937
  790MOL0     H 6649   4.293   8.373   1.738 -0.7029 -0.0418  3.4950
  790MOL0     H 6650   4.307   8.555   1.746 -1.2509  1.3175 -1.4375
  791MOL0     O 6651   7.416   0.802   7.226  0.0375 -0.6519 -0.5323
  791MOL0     C 6652   7.440   0.754   7.118 -0.2611 -0.1185 -0.9713
  791MOL0     O 6653   7.521   0.810   7.020 -0.3097 -0.1380  0.2033
  791MOL0     C 6654   7.604   0.917   7.053 -0.5696 -0.0222 -0.1292
  791MOL0     C 6655   7.600   1.022   6.964  0.6020  0.0557 -0.5338
  791MOL0     C 6656   7.682   1.133   6.981 -1.3627 -0.2350  0.0964
  791MOL0     C 6657   7.778   1.132   7.079  0.4802  0.1720 -0.7988
  791MOL0     O 6658   7.857   1.239   7.106 -0.4877  0.3186  0.5105
  791MOL0     C 6659   7.899   1.320   6.990  0.2346  0.4052  0.2634
  791MOL0     C 6660   8.024   1.394   7.030  0.0441  0.4000  0.9094
  791MOL0     C 6661   8.040   1.517   6.932  0.4004  0.3481  0.4759
  791MOL0     C 6662   8.180   1.588   6.950 -0.0618 -0.0655 -0.5987
  791MOL0     C 6663   8.184   1.708   6.857 -0.0761  0.5949  0.1601
  791MOL0     C 6664   8.323   1.752   6.829 -0.4219  0.5100  0.8075
  791MOL0     C 6665   8.337   1.869   6.736  0.3077 -0.2601  0.5220
  791MOL0     C 6666   8.316   1.985   6.818 -0.0720  0.4803 -0.2596
  791MOL0     N 6667   8.355   2.114   6.754 -0.3833 -0.3333  0.4516
  791MOL0     C 6668   8.464   2.136   6.666 -0.0103 -0.1370  0.5520
  791MOL0     C 6669   8.468   2.268   6.644 -0.1773 -0.1156  0.8952
  791MOL0     C 6670   8.557   2.349   6.545 -0.3664  0.1770  0.4212
  791MOL0     C 6671   8.693   2.368   6.608 -0.2844  0.0085  0.8095
  791MOL0     C 6672   8.791   2.477   6.546  1.0749  0.4809 -0.7242
  791MOL0     C 6673   8.877   2.530   6.664 -0.4651 -0.4678  0.0486
  791MOL0     O 6674   8.810   2.594   6.781 -0.2544  0.1936  0.0914
  791MOL0     C 6675   8.748   2.704   6.751 -0.2386  0.5802  0.2236
  791MOL0     C 6676   8.819   2.820   6.728 -0.1215  0.9353  0.4607
  791MOL0     C 6677   8.751   2.936   6.701 -0.3802 -0.8124  0.5851
  791MOL0     C 6678   8.611   2.939   6.668  0.0484 -0.7670  0.1101
  791MOL0     C 6679   8.546   3.057   6.604 -0.4146 -0.3753 -1.0748
  791MOL0     O 6680   8.622   3.177   6.588  0.0241 -0.1050  0.9131
  791MOL0     C 6681   8.576   3.285   6.517 -0.8927  0.0324 -0.1562
  791MOL0     C 6682   8.459   3.344   6.554  1.2052  0.2534  0.2872
  791MOL0     C 6683   8.399   3.450   6.475 -0.7996  0.1118 -0.8000
  791MOL0     C 6684   8.461   3.491   6.350  0.0353  0.1657 -0.8452
  791MOL0     O 6685   8.386   3.581   6.283 -0.0800  0.1627  0.0557
  791MOL0     C 6686   8.460   3.678   6.205  0.6579  0.3586  0.5394
  791MOL0     C 6687   8.452   3.809   6.285  0.3009  0.4005 -0.7232
  791MOL0     C 6688   8.500   3.931   6.214  1.1633  0.4445 -0.3044
  791MOL0     C 6689   8.390   3.986   6.119 -0.4351 -0.4391  0.0189
  791MOL0     C 6690   8.443   4.107   6.041 -0.0064 -0.4792  0.0212
  791MOL0     C 6691   8.341   4.160   5.941 -0.5385 -0.6382  1.2368
  791MOL0     C 6692   8.356   4.298   5.878 -0.3491 -0.2240  0.7619
  791MOL0     C 6693   8.494   4.314   5.805 -0.4576  0.4983  0.5919
  791MOL0    Cl 6694   8.504   4.214   5.662 -0.4871 -0.2064  0.1598
  791MOL0     C 6695   8.574   3.425   6.306  0.3113  1.1129 -0.5397
  791MOL0     C 6696   8.632   3.326   6.393  0.4691  0.2192 -0.5961
  791MOL0     O 6697   8.431   3.043   6.562  0.5876 -0.1703 -0.3041
  791MOL0     C 6698   8.543   2.824   6.698  1.0835  0.0857 -0.8904
  791MOL0     C 6699   8.609   2.707   6.737 -0.5848  0.3840  0.0713
  791MOL0     N 6700   8.370   2.318   6.720 -0.3695 -0.3859 -0.2057
  791MOL0     N 6701   8.299   2.232   6.783 -0.1200 -0.1826  0.9978
  791MOL0     C 6702   7.782   1.023   7.173 -0.7609 -0.2733 -0.0732
  791MOL0     C 6703   7.695   0.917   7.160 -0.0356  0.1385 -0.5961
  791MOL0     C 6704   7.366   0.633   7.071  0.1789  0.7918  0.5068
  791MOL0     C 6705   7.429   0.534   6.996  0.1994 -0.1906 -0.1391
  791MOL0     C 6706   7.361   0.427   6.938 -0.4165 -0.1848 -0.5861
  791MOL0     C 6707   7.220   0.417   6.944 -1.0289 -0.2548  0.3110
  791MOL0     O 6708   7.158   0.309   6.897 -0.2066  0.2443 -0.4429
  791MOL0     C 6709   7.157   0.206   6.988  1.0721  1.0459 -0.4686
  791MOL0     C 6710   7.007   0.210   7.049 -1.2543  0.3746  0.3304
  791MOL0     C 6711   6.901   0.171   6.948  0.1701  1.2413  0.1775
  791MOL0     C 6712   6.770   0.182   7.026 -0.3793  0.9716  0.6088
  791MOL0     C 6713   6.657   0.148   6.941  1.3023 -0.6212 -0.3554
  791MOL0     C 6714   6.564   0.132   6.863 -0.4587 -0.2507  0.0183
  791MOL0     C 6715   7.150   0.512   7.015  0.6555 -0.0674  0.4510
  791MOL0     C 6716   7.226   0.616   7.079  0.6332 -0.7974 -0.9171
  791MOL0     C 6717   7.151   0.698   7.176  0.5918  0.0535  0.6422
  791MOL0     H 6718   7.533   1.032   6.879 -0.7542  1.2416  0.6255
  791MOL0     H 6719   7.686   1.218   6.914 -1.8941  1.1530  1.7418
  791MOL0     H 6720   7.913   1.254   6.905 -2.0814  1.3733 -0.9664
  791MOL0     H 6721   7.817   1.389   6.967 -0.5627 -0.7148 -0.3720
  791MOL0     H 6722   8.114   1.332   7.029 -0.9167 -1.1111 -2.0722
  791MOL0     H 6723   8.009   1.425   7.134 -1.1336  0.5725  0.6979
  791MOL0     H 6724   7.962   1.593   6.946  1.8460  1.5441  2.7353
  791MOL0     H 6725   8.032   1.475   6.832 -1.8400  0.7109  0.4512
  791MOL0     H 6726   8.201   1.624   7.051  2.2524 -0.2219 -0.9777
  791MOL0     H 6727   8.262   1.522   6.921 -0.0844 -0.0962 -0.5918
  791MOL0     H 6728   8.122   1.690   6.769  0.6504  0.3361 -0.3052
  791MOL0     H 6729   8.129   1.789   6.906 -3.6180 -0.8847 -0.9931
  791MOL0     H 6730   8.389   1.781   6.912  0.9823  1.3818 -0.5628
  791MOL0     H 6731   8.370   1.668   6.778 -1.0010 -0.1329  1.3038
  791MOL0     H 6732   8.264   1.860   6.655  0.2473 -3.9975  0.8029
  791MOL0     H 6733   8.435   1.860   6.689  0.0110  0.7771 -0.3263
  791MOL0     H 6734   8.207   1.985   6.835 -0.0547  1.6617 -0.1047
  791MOL0     H 6735   8.359   1.970   6.918 -3.9569 -2.1553  1.2974
  791MOL0     H 6736   8.516   2.052   6.622 -0.0615 -0.0559  0.3376
  791MOL0     H 6737   8.571   2.306   6.445  2.4101  4.2407 -1.1779
  791MOL0     H 6738   8.515   2.447   6.520  2.5820  0.7191 -3.2778
  791MOL0     H 6739   8.683   2.397   6.713  2.1719 -0.3733  1.2333
  791MOL0     H 6740   8.739   2.268   6.610 -1.2907 -0.4596  1.2038
  791MOL0     H 6741   8.728   2.558   6.510  1.3234  0.5197 -1.0721
  791MOL0     H 6742   8.847   2.435   6.462 -0.9557 -3.4166 -0.3846
  791MOL0     H 6743   8.962   2.591   6.631  0.2141 -1.8111 -0.7745
  791MOL0     H 6744   8.937   2.445   6.697  0.3210  1.1522  3.1855
  791MOL0     H 6745   8.927   2.815   6.727 -0.1876 -1.6538 -0.1256
  791MOL0     H 6746   8.826   3.013   6.685 -0.3633 -1.1205 -0.9435
  791MOL0     H 6747   8.414   3.324   6.650 -0.3641  0.8496 -0.2937
  791MOL0     H 6748   8.309   3.491   6.519 -0.4073  0.5618 -0.4072
  791MOL0     H 6749   8.565   3.653   6.191  0.0962 -1.4587 -0.7557
  791MOL0     H 6750   8.411   3.692   6.108  2.6334 -1.8951 -0.8831
  791MOL0     H 6751   8.346   3.816   6.314  0.7718 -0.3399  1.3971
  791MOL0     H 6752   8.506   3.803   6.380  2.7169  1.3046 -1.9527
  791MOL0     H 6753   8.510   4.005   6.294 -1.9938 -2.9152  3.6754
  791MOL0     H 6754   8.595   3.905   6.166  1.4836  0.0705  0.5232
  791MOL0     H 6755   8.301   4.012   6.177  0.1294 -0.7438  1.0233
  791MOL0     H 6756   8.362   3.907   6.049 -1.2496 -0.3810  0.2678
  791MOL0     H 6757   8.538   4.081   5.993  0.0061 -2.0801  0.8395
  791MOL0     H 6758   8.476   4.184   6.112  1.3252 -0.7361 -0.2985
  791MOL0     H 6759   8.326   4.090   5.859 -3.2535 -0.9835  1.9268
  791MOL0     H 6760   8.248   4.175   5.998 -0.2147 -0.3570  1.7053
  791MOL0     H 6761   8.351   4.369   5.961 -1.8574 -1.1241  1.4872
  791MOL0     H 6762   8.266   4.308   5.817 -1.6469 -5.6692  1.2554
  791MOL0     H 6763   8.510   4.420   5.781  1.1302  0.7185  2.3513
  791MOL0     H 6764   8.577   4.293   5.873  0.7066 -0.7732 -1.1417
  791MOL0     H 6765   8.613   3.448   6.207  2.2030 -1.4834 -0.4991
  791MOL0     H 6766   8.720   3.270   6.363  0.1904 -1.2472  1.1028
  791MOL0     H 6767   8.435   2.821   6.695  1.0946 -0.0462 -3.5575
  791MOL0     H 6768   8.554   2.623   6.776  1.1868 -0.8690  0.0011
  791MOL0     H 6769   7.851   1.030   7.256  0.0627  0.5149 -0.8034
  791MOL0     H 6770   7.682   0.842   7.237  1.5805  0.7644  0.3230
  791MOL0     H 6771   7.536   0.537   6.976  0.4823  1.1000  1.4096
  791MOL0     H 6772   7.419   0.355   6.881  4.2169  0.1004  3.2122
  791MOL0     H 6773   7.220   0.229   7.074 -0.5151 -0.3257  1.1633
  791MOL0     H 6774   7.184   0.116   6.933  0.2395  1.4076 -1.5168
  791MOL0     H 6775   6.992   0.311   7.088  5.1734  0.8126  2.7528
  791MOL0     H 6776   7.002   0.155   7.143  0.9767 -0.4467  0.0325
  791MOL0     H 6777   6.906   0.066   6.918 -0.7620  0.8599  1.2930
  791MOL0     H 6778   6.909   0.238   6.862  2.1330 -0.4580 -1.0809
  791MOL0     H 6779   6.772   0.121   7.117 -0.8469  0.9979  0.6428
  791MOL0     H 6780   6.755   0.287   7.054 -1.7954  0.2124  3.0834
  791MOL0     H 6781   6.481   0.114   6.798  0.9327  1.4556 -2.3984
  791MOL0     H 6782   7.043   0.525   7.027  0.6485  0.9335 -0.5575
  791MOL0     H 6783   7.193   0.678   7.275 -2.4790  1.5000  2.3796
  791MOL0     H 6784   7.155   0.803   7.144 -0.4534 -0.1613 -0.2234
  791MOL0     H 6785   7.047   0.668   7.190 -1.2045  4.5726 -1.1473
  792MOL0     O 6786   0.361   8.434   3.858  0.8168  0.3016 -0.4745
  792MOL0     C 6787   0.448   8.370   3.918 -0.2082 -0.8473 -0.2788
  792MOL0     O 6788   0.431   8.292   4.035  0.0164  0.2350  0.4231
  792MOL0     C 6789   0.304   8.286   4.086 -0.4052 -0.7922 -0.7393
  792MOL0     C 6790   0.235   8.399   4.143 -0.5263  0.2945  0.9911
  792MOL0     C 6791   0.105   8.396   4.190  0.8031  0.7420  0.1926
  792MOL0     C 6792   0.039   8.271   4.195  0.0491 -0.8360  0.0054
  792MOL0     O 6793  -0.087   8.231   4.236 -0.6908 -0.2547 -0.2810
  792MOL0     C 6794  -0.185   8.330   4.266  0.2950 -0.2897  0.1714
  792MOL0     C 6795  -0.316   8.258   4.290 -0.6289 -0.0550 -0.7042
  792MOL0     C 6796  -0.356   8.175   4.163  0.8807  0.3392 -0.4844
  792MOL0     C 6797  -0.510   8.147   4.163 -0.5403 -0.0986  0.4537
  792MOL0     C 6798  -0.541   8.040   4.048  0.1234 -0.1330  0.2062
  792MOL0     C 6799  -0.661   7.946   4.085 -0.2272 -0.0174  0.4570
  792MOL0     C 6800  -0.657   7.860   4.210 -0.6628 -0.2619  0.3488
  792MOL0     C 6801  -0.774   7.753   4.213 -0.9297 -0.3845  0.0772
  792MOL0     N 6802  -0.909   7.804   4.253  0.0343  0.9063  0.0143
  792MOL0     C 6803  -1.018   7.726   4.229 -0.0060 -0.3143  0.2036
  792MOL0     C 6804  -1.125   7.790   4.279  0.1457 -0.4100  0.6054
  792MOL0     C 6805  -1.271   7.759   4.261 -0.0918 -0.4490  0.0312
  792MOL0     C 6806  -1.351   7.882   4.203 -0.8738 -0.7976 -0.6728
  792MOL0     C 6807  -1.322   7.902   4.047 -0.2409  0.1686 -0.2199
  792MOL0     C 6808  -1.232   8.030   4.029  0.4728  1.3513 -0.6897
  792MOL0     O 6809  -1.220   8.069   3.894 -0.3823  0.9596 -0.1740
  792MOL0     C 6810  -1.135   8.168   3.870 -0.0790 -0.0714  0.3845
  792MOL0     C 6811  -1.065   8.240   3.974 -0.4455  0.5442  0.1338
  792MOL0     C 6812  -0.955   8.326   3.945  0.3524  0.1982 -0.4558
  792MOL0     C 6813  -0.923   8.344   3.815 -0.2314 -0.4481  0.5038
  792MOL0     C 6814  -0.796   8.406   3.777  0.5469  0.3355  0.0851
  792MOL0     O 6815  -0.790   8.467   3.655 -0.4132  0.5828  0.7465
  792MOL0     C 6816  -0.667   8.502   3.598  1.0992 -0.3456 -0.2648
  792MOL0     C 6817  -0.539   8.453   3.622 -0.0582  0.1265 -0.5223
  792MOL0     C 6818  -0.424   8.492   3.551 -0.4041  0.0556  0.2879
  792MOL0     C 6819  -0.429   8.588   3.449 -0.2519 -0.3393 -0.7692
  792MOL0     O 6820  -0.320   8.634   3.367  0.6299 -0.1103  0.3337
  792MOL0     C 6821  -0.203   8.552   3.347 -1.0760  0.6389  0.2243
  792MOL0     C 6822  -0.072   8.618   3.313  0.0316 -0.7541 -0.0530
  792MOL0     C 6823  -0.075   8.695   3.179 -0.4573 -0.1100  0.5550
  792MOL0     C 6824  -0.085   8.599   3.062  0.7371 -0.5150  0.0803
  792MOL0     C 6825  -0.102   8.675   2.932  0.4637 -1.0190  0.4271
  792MOL0     C 6826   0.024   8.681   2.850  0.0897 -0.2277 -0.2364
  792MOL0     C 6827  -0.015   8.732   2.709  0.2572 -0.6673  0.5496
  792MOL0     C 6828   0.002   8.888   2.709  0.3706  0.1948  0.4985
  792MOL0    Cl 6829  -0.010   8.947   2.541  0.1454  0.1302  0.0316
  792MOL0     C 6830  -0.550   8.658   3.436 -0.6602  0.3677 -0.1662
  792MOL0     C 6831  -0.672   8.604   3.505  0.4450 -0.6522  0.5473
  792MOL0     O 6832  -0.706   8.407   3.867  0.7184 -0.4142  0.1734
  792MOL0     C 6833  -0.999   8.287   3.715  0.2826  0.1136 -1.0105
  792MOL0     C 6834  -1.102   8.188   3.736  0.7829  0.3968 -0.6931
  792MOL0     N 6835  -1.088   7.905   4.339  0.1023  0.7640  0.4415
  792MOL0     N 6836  -0.955   7.910   4.336 -0.6618 -0.2599 -0.4489
  792MOL0     C 6837   0.115   8.159   4.156 -1.1668 -0.6073 -0.4251
  792MOL0     C 6838   0.238   8.163   4.103 -0.3148  0.6295  0.4348
  792MOL0     C 6839   0.579   8.346   3.855 -0.2972 -0.6718 -0.1033
  792MOL0     C 6840   0.644   8.218   3.867 -0.1217  0.6683  0.1665
  792MOL0     C 6841   0.767   8.195   3.805 -0.0269  0.3051 -0.1401
  792MOL0     C 6842   0.832   8.288   3.719  0.7115  0.1741  0.0960
  792MOL0     O 6843   0.957   8.267   3.674 -0.6282 -0.0710 -0.5892
  792MOL0     C 6844   0.969   8.158   3.583  0.2595 -0.6142 -0.0686
  792MOL0     C 6845   1.107   8.128   3.521  0.3555 -0.1627 -0.0365
  792MOL0     C 6846   1.214   8.098   3.635 -0.7140  0.5574 -0.0400
  792MOL0     C 6847   1.331   8.016   3.576 -0.8949  0.3812 -0.2554
  792MOL0     C 6848   1.418   8.103   3.495  0.4087  0.2259 -0.0670
  792MOL0     C 6849   1.490   8.183   3.432 -0.1090  0.3890  0.2894
  792MOL0     C 6850   0.764   8.409   3.697 -0.5222  0.1991 -0.4244
  792MOL0     C 6851   0.648   8.440   3.765  0.1182 -0.8953 -0.2602
  792MOL0     C 6852   0.599   8.587   3.773 -0.2175  0.5081  0.2689
  792MOL0     H 6853   0.284   8.496   4.130 -2.8205  1.5375  1.1349
  792MOL0     H 6854   0.038   8.479   4.208 -0.8130  0.1438 -2.4219
  792MOL0     H 6855  -0.154   8.395   4.349 -3.3564  2.1008 -0.0861
  792MOL0     H 6856  -0.203   8.397   4.181 -4.3349  0.2158  1.2557
  792MOL0     H 6857  -0.382   8.335   4.330  1.0192  0.5782  0.9574
  792MOL0     H 6858  -0.298   8.185   4.369 -1.5079  1.3496  0.8427
  792MOL0     H 6859  -0.298   8.082   4.162  3.0688  1.5870  1.2889
  792MOL0     H 6860  -0.335   8.230   4.070  0.7447  2.7184  0.8204
  792MOL0     H 6861  -0.542   8.117   4.264 -2.0835 -1.0374 -0.2885
  792MOL0     H 6862  -0.567   8.240   4.151 -2.8828 -1.4093  0.7318
  792MOL0     H 6863  -0.572   8.095   3.959 -0.4278 -1.3518 -0.3760
  792MOL0     H 6864  -0.458   7.977   4.017 -1.5283 -2.8035  0.9188
  792MOL0     H 6865  -0.752   8.006   4.080  1.0251  1.9280 -0.6833
  792MOL0     H 6866  -0.662   7.874   4.002  1.4042 -0.1648  0.5345
  792MOL0     H 6867  -0.667   7.915   4.304  0.6921 -0.4977  0.6489
  792MOL0     H 6868  -0.565   7.802   4.214 -1.3418 -1.6055 -1.7716
  792MOL0     H 6869  -0.777   7.706   4.114 -0.3092  0.1217 -0.1907
  792MOL0     H 6870  -0.740   7.680   4.286 -1.5447  1.0942  1.9333
  792MOL0     H 6871  -1.027   7.635   4.170 -0.3590 -1.1940  1.5611
  792MOL0     H 6872  -1.288   7.670   4.200  1.7275 -0.0100 -1.1991
  792MOL0     H 6873  -1.303   7.740   4.364  2.6210  1.8835  1.4380
  792MOL0     H 6874  -1.460   7.869   4.200 -1.1316  0.9695  0.0725
  792MOL0     H 6875  -1.329   7.974   4.259  1.5885 -2.9603  2.3025
  792MOL0     H 6876  -1.416   7.927   3.998 -1.2603 -0.6445  1.2284
  792MOL0     H 6877  -1.270   7.813   4.010 -1.5013  0.6280 -3.3647
  792MOL0     H 6878  -1.132   8.003   4.066  1.3715  2.2221 -2.3676
  792MOL0     H 6879  -1.278   8.103   4.096  2.1364 -0.8503  3.1630
  792MOL0     H 6880  -1.077   8.226   4.081  0.2351  3.0854  0.6093
  792MOL0     H 6881  -0.912   8.376   4.031 -1.6957  1.7505 -0.2571
  792MOL0     H 6882  -0.519   8.376   3.696  2.7895 -0.4915 -1.7973
  792MOL0     H 6883  -0.332   8.438   3.571  1.5999  2.3181 -2.1302
  792MOL0     H 6884  -0.179   8.495   3.438 -0.5243 -1.1146 -0.9656
  792MOL0     H 6885  -0.225   8.472   3.276 -1.5921 -1.0328  2.1648
  792MOL0     H 6886  -0.057   8.691   3.393  0.2150 -2.7234  1.7925
  792MOL0     H 6887   0.014   8.550   3.315  0.9193  0.3163 -0.5319
  792MOL0     H 6888  -0.159   8.765   3.172 -0.8358 -0.5426  0.7029
  792MOL0     H 6889   0.016   8.754   3.167  0.4592 -1.7117 -0.8855
  792MOL0     H 6890  -0.167   8.526   3.064  0.7753 -0.5688 -0.3473
  792MOL0     H 6891   0.010   8.545   3.056  2.0411  0.9837  4.0800
  792MOL0     H 6892  -0.128   8.779   2.952  3.5643 -0.1161  0.3591
  792MOL0     H 6893  -0.190   8.633   2.883  0.2365 -1.4593  1.1960
  792MOL0     H 6894   0.096   8.754   2.889 -1.8542  0.3454  2.5816
  792MOL0     H 6895   0.077   8.585   2.842 -0.2246 -0.2702 -2.4181
  792MOL0     H 6896  -0.119   8.708   2.683  0.3748 -0.3180 -0.2706
  792MOL0     H 6897   0.041   8.678   2.632  2.0455  0.7288  0.7930
  792MOL0     H 6898  -0.064   8.938   2.781 -0.0855  1.1572 -0.5658
  792MOL0     H 6899   0.104   8.909   2.745  0.4112 -2.0278  1.8887
  792MOL0     H 6900  -0.564   8.733   3.359 -0.7517  0.5801  0.0585
  792MOL0     H 6901  -0.768   8.633   3.464  1.6746  1.8826 -0.8054
  792MOL0     H 6902  -0.963   8.307   3.615  0.3401  3.1456 -0.4800
  792MOL0     H 6903  -1.138   8.121   3.659  0.7293 -1.0890  0.5620
  792MOL0     H 6904   0.076   8.058   4.168 -0.7364 -1.0442 -2.3465
  792MOL0     H 6905   0.293   8.072   4.079 -3.8950 -0.9544 -2.7637
  792MOL0     H 6906   0.601   8.138   3.926  1.3578 -0.9839 -0.9069
  792MOL0     H 6907   0.822   8.108   3.839  2.7062  1.8672 -0.3085
  792MOL0     H 6908   0.909   8.182   3.494  0.5725 -0.5025 -0.2511
  792MOL0     H 6909   0.932   8.067   3.630  3.0012 -0.4274  2.7510
  792MOL0     H 6910   1.129   8.217   3.461  0.3571 -0.2675 -0.1950
  792MOL0     H 6911   1.094   8.047   3.448 -0.1149 -0.8574  0.8103
  792MOL0     H 6912   1.167   8.037   3.712 -1.4292 -1.0588 -1.6973
  792MOL0     H 6913   1.248   8.191   3.681  2.6538 -0.2221 -0.6913
  792MOL0     H 6914   1.396   7.978   3.656 -0.9627 -0.1156 -0.4334
  792MOL0     H 6915   1.285   7.931   3.525 -1.8398  0.5814  0.2347
  792MOL0     H 6916   1.571   8.244   3.398  0.7453  0.9741  3.1501
  792MOL0     H 6917   0.805   8.485   3.631  2.8061 -1.0740 -0.0471
  792MOL0     H 6918   0.534   8.623   3.693 -0.4231  3.4553  1.6321
  792MOL0     H 6919   0.543   8.608   3.864 -1.3910 -3.4030  0.6275
  792MOL0     H 6920   0.689   8.647   3.758  0.0665 -0.2449 -1.2534
  793MOL0     O 6921   7.728   2.641  10.156 -0.6187 -1.1775 -0.3945
  793MOL0     C 6922   7.707   2.669  10.039  0.8594 -0.3968  0.2447
  793MOL0     O 6923   7.797   2.722   9.953  0.0063 -1.2167 -0.0075
  793MOL0     C 6924   7.931   2.728   9.984  0.5838 -1.1459  0.7710
  793MOL0     C 6925   8.007   2.607   9.999 -0.2590  0.6785 -0.0203
  793MOL0     C 6926   8.142   2.605  10.035 -0.6007 -0.4517 -0.2312
  793MOL0     C 6927   8.211   2.733  10.067  0.1331  1.0718 -0.3553
  793MOL0     O 6928   8.345   2.742  10.102  0.5493 -0.0473 -0.1240
  793MOL0     C 6929   8.434   2.645  10.048  0.2370 -0.2118  0.0666
  793MOL0     C 6930   8.573   2.698  10.067  0.4934 -0.2685  0.7528
  793MOL0     C 6931   8.680   2.603  10.002 -0.2713  0.6024  0.2014
  793MOL0     C 6932   8.822   2.644  10.060 -0.2632  0.5207  0.1140
  793MOL0     C 6933   8.912   2.522  10.080  1.0002  0.1785  0.0165
  793MOL0     C 6934   8.941   2.435   9.952 -0.0107  0.9766  0.0934
  793MOL0     C 6935   8.986   2.292   9.975 -0.6469  0.0276 -0.7155
  793MOL0     C 6936   9.107   2.272  10.067  0.1229  0.7892  0.0913
  793MOL0     N 6937   9.231   2.305   9.998 -0.3294  0.2131  0.1151
  793MOL0     C 6938   9.289   2.431  10.002  0.8325  1.0308 -0.4073
  793MOL0     C 6939   9.388   2.423   9.911 -0.3904 -0.7036 -0.3411
  793MOL0     C 6940   9.479   2.540   9.894  0.4431 -0.3903 -0.1963
  793MOL0     C 6941   9.598   2.525   9.989  0.3138 -0.3571 -0.8514
  793MOL0     C 6942   9.685   2.644   9.977  0.2342 -0.2422  0.3094
  793MOL0     C 6943   9.835   2.638  10.035 -0.5399 -0.0598 -0.6700
  793MOL0     O 6944   9.928   2.581   9.946 -0.2895  0.5471  0.1582
  793MOL0     C 6945   9.989   2.460   9.967 -0.9017  0.4165  0.0341
  793MOL0     C 6946   9.947   2.356  10.054 -0.7375 -0.6848  0.8684
  793MOL0     C 6947  10.011   2.232  10.067  0.1145 -0.2567 -0.8118
  793MOL0     C 6948  10.124   2.211   9.979  0.0771  0.1133  0.3132
  793MOL0     C 6949  10.207   2.095   9.993 -0.2894  0.6583 -0.4399
  793MOL0     O 6950  10.307   2.076   9.895  0.3088  0.3233  0.6241
  793MOL0     C 6951  10.401   1.977   9.899  0.2614  0.5036 -0.1057
  793MOL0     C 6952  10.430   1.918   9.775 -0.9223 -0.3416  0.5531
  793MOL0     C 6953  10.513   1.801   9.763  0.5407 -1.0689  0.6672
  793MOL0     C 6954  10.574   1.758   9.882  0.9342 -0.1859  0.4401
  793MOL0     O 6955  10.673   1.667   9.865  0.1556 -0.4791 -0.8976
  793MOL0     C 6956  10.805   1.718   9.880  0.4562 -0.0550  0.1559
  793MOL0     C 6957  10.908   1.614   9.873 -0.3642  0.5763  0.4728
  793MOL0     C 6958  10.946   1.582   9.733  0.9819 -1.0011 -0.5301
  793MOL0     C 6959  11.026   1.453   9.730  0.3305 -0.6560 -0.3978
  793MOL0     C 6960  11.083   1.424   9.583  0.4327  0.1308 -0.6256
  793MOL0     C 6961  11.154   1.291   9.575 -0.5776 -0.1803  0.0926
  793MOL0     C 6962  11.267   1.280   9.468  0.9100 -0.0919  1.0141
  793MOL0     C 6963  11.331   1.137   9.478  0.3312 -0.2788 -0.1965
  793MOL0    Cl 6964  11.429   1.131   9.327 -0.2980 -0.5587  0.1207
  793MOL0     C 6965  10.547   1.806  10.010 -0.7548 -0.6423 -0.5890
  793MOL0     C 6966  10.458   1.915  10.015 -0.4693  0.9217  0.1814
  793MOL0     O 6967  10.193   2.021  10.089  0.7156 -0.1188  0.0396
  793MOL0     C 6968  10.172   2.315   9.892 -0.2327  0.5156 -0.6170
  793MOL0     C 6969  10.097   2.432   9.880 -0.4047 -0.1279 -0.3752
  793MOL0     N 6970   9.402   2.292   9.860  0.2264  0.1295 -0.0631
  793MOL0     N 6971   9.302   2.229   9.908 -0.6649  0.0381 -0.2272
  793MOL0     C 6972   8.135   2.850  10.059  0.6108 -0.3491  0.6697
  793MOL0     C 6973   8.001   2.847  10.010  0.6874 -0.1932 -1.0028
  793MOL0     C 6974   7.562   2.667  10.011 -0.4014  0.2833 -0.2071
  793MOL0     C 6975   7.479   2.574  10.081 -0.1075 -0.6466 -0.0488
  793MOL0     C 6976   7.339   2.577  10.053  0.0346  0.5715 -0.7440
  793MOL0     C 6977   7.287   2.666   9.965  0.2446  0.1948  1.0403
  793MOL0     O 6978   7.158   2.655   9.922  0.3740  0.6946 -0.2218
  793MOL0     C 6979   7.059   2.612  10.027  0.2401  0.2266 -0.8294
  793MOL0     C 6980   6.920   2.634   9.962 -1.3362 -0.5062 -0.1014
  793MOL0     C 6981   6.886   2.541   9.857  1.0588 -0.3033  0.4737
  793MOL0     C 6982   6.742   2.530   9.801  0.5471  0.1644  0.1347
  793MOL0     C 6983   6.670   2.445   9.891 -0.7790 -0.8513  0.5424
  793MOL0     C 6984   6.603   2.390   9.974  0.0433  1.1118  0.1716
  793MOL0     C 6985   7.371   2.741   9.880  0.1524 -0.7816  0.4689
  793MOL0     C 6986   7.510   2.743   9.901  0.9373  0.5380  0.0686
  793MOL0     C 6987   7.584   2.828   9.804 -0.2178 -0.1777  0.0198
  793MOL0     H 6988   7.959   2.512   9.979 -0.3360  0.9258 -1.0853
  793MOL0     H 6989   8.196   2.512  10.050  0.7490  0.4630  0.7611
  793MOL0     H 6990   8.418   2.555  10.108  2.4636  1.3429  3.2698
  793MOL0     H 6991   8.425   2.624   9.941  1.3047 -1.5885  0.2126
  793MOL0     H 6992   8.598   2.695  10.173  0.0368 -1.6207  0.8364
  793MOL0     H 6993   8.575   2.801  10.028 -2.5585 -0.2183  0.4927
  793MOL0     H 6994   8.667   2.593   9.894 -3.0692  0.5552  0.4689
  793MOL0     H 6995   8.646   2.514  10.056  1.2792  1.1785  2.2371
  793MOL0     H 6996   8.863   2.709   9.982  0.4234 -0.6824 -0.5537
  793MOL0     H 6997   8.822   2.701  10.154  0.6834  0.3917  0.2050
  793MOL0     H 6998   9.011   2.546  10.120 -0.2467  1.7505  2.4150
  793MOL0     H 6999   8.876   2.454  10.158 -0.2527  1.4356  0.5842
  793MOL0     H 7000   8.852   2.416   9.891 -0.5141 -0.5286  1.2141
  793MOL0     H 7001   9.009   2.479   9.879  0.5640 -1.6477 -1.0648
  793MOL0     H 7002   9.013   2.233   9.887  0.4223 -1.5836  0.6335
  793MOL0     H 7003   8.895   2.246  10.015 -0.7979  1.5878  0.8636
  793MOL0     H 7004   9.094   2.330  10.159  0.1520 -2.9676  2.6715
  793MOL0     H 7005   9.109   2.166  10.095  0.7182  0.2118 -1.9473
  793MOL0     H 7006   9.241   2.511  10.057 -1.1120 -0.6362  0.4723
  793MOL0     H 7007   9.513   2.560   9.792 -0.2612  2.1603  0.0023
  793MOL0     H 7008   9.420   2.626   9.926  0.7834 -1.1732  2.7678
  793MOL0     H 7009   9.573   2.499  10.092  0.0023 -2.2566 -1.3736
  793MOL0     H 7010   9.659   2.439   9.959  0.9629 -0.1642 -0.1340
  793MOL0     H 7011   9.627   2.724  10.024 -1.3770 -2.3764  2.1830
  793MOL0     H 7012   9.691   2.662   9.869 -2.3180 -1.5837 -0.1218
  793MOL0     H 7013   9.824   2.580  10.127 -0.5944  3.3790  1.6733
  793MOL0     H 7014   9.875   2.736  10.061 -2.4964  0.6022  0.0394
  793MOL0     H 7015   9.860   2.358  10.118 -0.8303 -1.4825  0.7747
  793MOL0     H 7016   9.990   2.157  10.143  2.4324 -1.0229 -0.8433
  793MOL0     H 7017  10.389   1.961   9.684 -0.6809 -1.5284 -0.1396
  793MOL0     H 7018  10.533   1.744   9.673  0.2718  0.4482 -0.3775
  793MOL0     H 7019  10.811   1.794   9.801 -0.3930 -1.4225 -1.2802
  793MOL0     H 7020  10.821   1.764   9.979  0.2641 -1.5624  0.9116
  793MOL0     H 7021  10.994   1.639   9.936  0.1159 -4.3070  2.1929
  793MOL0     H 7022  10.876   1.521   9.922  2.0880 -1.1381 -0.9853
  793MOL0     H 7023  10.860   1.567   9.668  2.7310  3.6161 -4.5166
  793MOL0     H 7024  11.003   1.665   9.690 -1.1325 -0.2563 -2.0846
  793MOL0     H 7025  10.956   1.375   9.759 -0.7554  0.1493 -0.7590
  793MOL0     H 7026  11.108   1.456   9.802 -2.0675  1.2093  2.4832
  793MOL0     H 7027  11.156   1.499   9.551  1.3549  0.5254  2.0904
  793MOL0     H 7028  11.002   1.421   9.509 -0.3861 -0.5790  0.2643
  793MOL0     H 7029  11.205   1.286   9.672  0.7540  3.6760 -0.1898
  793MOL0     H 7030  11.076   1.218   9.555 -0.6435 -0.0561 -0.1150
  793MOL0     H 7031  11.347   1.355   9.476 -0.1709  1.8016 -3.1370
  793MOL0     H 7032  11.218   1.293   9.371  0.8501 -0.9068  0.9325
  793MOL0     H 7033  11.397   1.116   9.563 -0.2328 -2.5805 -0.2749
  793MOL0     H 7034  11.269   1.048   9.488  1.6114 -1.3675 -1.3753
  793MOL0     H 7035  10.581   1.772  10.107 -0.1501  1.7246  0.1167
  793MOL0     H 7036  10.432   1.955  10.113 -3.4306  0.6458 -0.3989
  793MOL0     H 7037  10.253   2.303   9.821 -0.6921 -2.4299 -0.7641
  793MOL0     H 7038  10.137   2.499   9.804  1.5746 -0.3499  0.3995
  793MOL0     H 7039   8.182   2.946  10.078  1.7430 -0.3070 -1.8358
  793MOL0     H 7040   7.954   2.944  10.000 -1.5152 -1.1648 -0.6093
  793MOL0     H 7041   7.536   2.515  10.151 -0.3693  1.1819  1.7985
  793MOL0     H 7042   7.273   2.513  10.111 -5.2672  4.1790 -2.1197
  793MOL0     H 7043   7.075   2.669  10.119 -0.2257 -0.9494 -0.0018
  793MOL0     H 7044   7.070   2.510  10.063 -0.3168  0.5207  0.2153
  793MOL0     H 7045   6.905   2.740   9.937  0.7102  0.6471  2.9336
  793MOL0     H 7046   6.843   2.614  10.038 -1.1786  1.9304  0.7973
  793MOL0     H 7047   6.916   2.439   9.882  1.6684 -1.0280 -2.7267
  793MOL0     H 7048   6.938   2.583   9.771 -0.9519  1.5893  0.0870
  793MOL0     H 7049   6.718   2.637   9.796  0.7548  0.1623 -2.2055
  793MOL0     H 7050   6.738   2.493   9.698 -2.9394  1.2690 -0.2597
  793MOL0     H 7051   6.549   2.340  10.052  0.2476  0.6472  0.0213
  793MOL0     H 7052   7.333   2.801   9.798  1.2262  0.5310  0.8928
  793MOL0     H 7053   7.531   2.835   9.708 -1.9090 -0.1656  0.9117
  793MOL0     H 7054   7.580   2.930   9.844 -0.9833  1.5186 -3.9172
  793MOL0     H 7055   7.681   2.792   9.770  0.3369  0.3264  1.0256
  794MOL0     O 7056   7.785   6.335  10.418  0.0328  0.1837 -0.0301
  794MOL0     C 7057   7.752   6.433  10.476 -0.6769  0.1207 -0.9069
  794MOL0     O 7058   7.656   6.522  10.436 -0.0662 -0.1921 -0.1721
  794MOL0     C 7059   7.600   6.511  10.306 -0.9492 -0.5440 -0.5558
  794MOL0     C 7060   7.684   6.516  10.191  0.1618  1.2022  0.5833
  794MOL0     C 7061   7.622   6.521  10.066  0.8119 -1.0667  0.3432
  794MOL0     C 7062   7.481   6.520  10.054 -0.2697 -0.3827 -0.5868
  794MOL0     O 7063   7.427   6.534   9.929 -0.1208 -1.1029 -0.3447
  794MOL0     C 7064   7.300   6.482   9.900 -0.2120 -0.3636  0.7811
  794MOL0     C 7065   7.296   6.415   9.756 -0.0264 -0.1651  0.3432
  794MOL0     C 7066   7.412   6.323   9.729 -0.8022 -0.0050 -0.5341
  794MOL0     C 7067   7.402   6.207   9.838 -0.6973 -0.2018 -0.4798
  794MOL0     C 7068   7.472   6.075   9.784  0.1591  0.8867  0.2119
  794MOL0     C 7069   7.469   5.973   9.897 -0.0816 -0.3815  0.2126
  794MOL0     C 7070   7.570   5.858   9.860 -0.0825  0.4954 -0.2200
  794MOL0     C 7071   7.567   5.738   9.958  0.2269 -0.1148 -0.6544
  794MOL0     N 7072   7.645   5.618   9.921 -0.7443 -0.8540  0.1023
  794MOL0     C 7073   7.617   5.511   9.839 -0.7027 -0.7045 -0.2998
  794MOL0     C 7074   7.694   5.412   9.872 -0.5042 -0.1692  0.3221
  794MOL0     C 7075   7.710   5.276   9.813  0.5671 -0.6065 -0.7810
  794MOL0     C 7076   7.743   5.265   9.657 -0.3806  0.2623  0.4865
  794MOL0     C 7077   7.884   5.318   9.625 -0.5192  1.2124  0.3953
  794MOL0     C 7078   7.905   5.470   9.633 -0.5537 -0.7249 -0.0204
  794MOL0     O 7079   8.041   5.501   9.606 -0.3860 -0.3902  0.5420
  794MOL0     C 7080   8.100   5.601   9.686 -0.6527  0.3351  0.3305
  794MOL0     C 7081   8.214   5.651   9.625  0.2535 -0.8389 -0.0809
  794MOL0     C 7082   8.306   5.730   9.698  0.3689  0.5663  0.6527
  794MOL0     C 7083   8.295   5.753   9.834 -0.0973  0.2632  0.9911
  794MOL0     C 7084   8.388   5.837   9.912  0.1603  0.4687 -0.2240
  794MOL0     O 7085   8.487   5.883   9.842  0.3089 -0.5997 -0.1836
  794MOL0     C 7086   8.586   5.971   9.893 -0.5715 -0.1001 -0.6540
  794MOL0     C 7087   8.685   5.988   9.790  1.1912  0.3232 -0.1804
  794MOL0     C 7088   8.800   6.058   9.823  0.3311  0.7362 -0.0771
  794MOL0     C 7089   8.825   6.083   9.959 -1.0034  0.4666 -1.2104
  794MOL0     O 7090   8.946   6.136  10.008 -0.2183  0.2063  0.0857
  794MOL0     C 7091   9.031   6.197   9.914 -0.4906  1.3885  0.2851
  794MOL0     C 7092   9.127   6.279   9.992 -1.0343 -0.0916 -0.2748
  794MOL0     C 7093   9.257   6.318   9.923 -0.1978  0.0720  1.1766
  794MOL0     C 7094   9.337   6.406  10.014  0.0830  0.5167  0.0522
  794MOL0     C 7095   9.460   6.467   9.949  1.5336 -0.3398 -0.6757
  794MOL0     C 7096   9.545   6.530  10.057  0.2874 -0.7445 -0.6126
  794MOL0     C 7097   9.663   6.607   9.996 -0.1394 -0.5296 -0.2936
  794MOL0     C 7098   9.786   6.524   9.955 -0.2178  0.3173  0.0761
  794MOL0    Cl 7099   9.909   6.645   9.944  0.3436  0.5975 -0.1298
  794MOL0     C 7100   8.727   6.075  10.057 -1.2151  0.1599  0.1523
  794MOL0     C 7101   8.613   6.013  10.019  0.1839  0.1707  0.0142
  794MOL0     O 7102   8.353   5.870  10.027 -0.4944  0.0786 -0.4568
  794MOL0     C 7103   8.182   5.701   9.894 -0.3539  0.0487 -0.2963
  794MOL0     C 7104   8.083   5.628   9.823 -0.0804  0.6045  0.6014
  794MOL0     N 7105   7.774   5.464   9.977 -0.1002  0.5758  0.6498
  794MOL0     N 7106   7.762   5.593   9.996  0.4788  0.2242  0.4648
  794MOL0     C 7107   7.398   6.513  10.166 -0.3864  0.8681 -0.6351
  794MOL0     C 7108   7.464   6.507  10.291 -0.0099  1.4825  0.1083
  794MOL0     C 7109   7.839   6.461  10.598  0.0009 -0.2714  0.4811
  794MOL0     C 7110   7.870   6.598  10.629  0.3448  0.0693  0.8746
  794MOL0     C 7111   7.953   6.634  10.735  0.1716  0.4997  0.1793
  794MOL0     C 7112   8.002   6.537  10.815 -0.1940 -0.0203 -0.3052
  794MOL0     O 7113   8.100   6.562  10.910  0.0156  0.0039  0.3490
  794MOL0     C 7114   8.174   6.690  10.919 -0.1219  0.5533  0.6272
  794MOL0     C 7115   8.242   6.710  11.059  0.6853 -0.9604 -0.3827
  794MOL0     C 7116   8.308   6.588  11.113 -0.0786  1.0365  0.1477
  794MOL0     C 7117   8.395   6.628  11.227  0.9925  0.7177 -0.0679
  794MOL0     C 7118   8.322   6.685  11.343  0.0449  0.2543  0.4324
  794MOL0     C 7119   8.283   6.737  11.443  0.0137  0.0050 -0.1745
  794MOL0     C 7120   7.958   6.405  10.807  0.4427 -0.1601 -0.0507
  794MOL0     C 7121   7.894   6.359  10.687 -0.6317  0.2318 -0.2931
  794MOL0     C 7122   7.871   6.209  10.658  0.3857 -0.3092 -0.3130
  794MOL0     H 7123   7.792   6.514  10.196  0.1245  2.2009  2.4140
  794MOL0     H 7124   7.687   6.523   9.979 -1.0622 -0.1215 -1.1029
  794MOL0     H 7125   7.274   6.405   9.973 -2.2229  0.3769  0.9175
  794MOL0     H 7126   7.238   6.572   9.904  3.0021  2.0094  2.0306
  794MOL0     H 7127   7.300   6.503   9.691  5.7499  0.1210  0.5863
  794MOL0     H 7128   7.201   6.361   9.742 -0.4880  0.7984 -0.4153
  794MOL0     H 7129   7.504   6.382   9.742  0.1162 -1.3168 -0.8808
  794MOL0     H 7130   7.400   6.282   9.628  2.3307  1.0733 -1.4554
  794MOL0     H 7131   7.452   6.234   9.932 -3.9841 -0.9691  1.6401
  794MOL0     H 7132   7.297   6.187   9.860 -0.6808  0.2025 -0.0336
  794MOL0     H 7133   7.415   6.047   9.695 -1.8553  0.0768  1.6793
  794MOL0     H 7134   7.578   6.094   9.765 -0.2612  1.9257 -1.2867
  794MOL0     H 7135   7.499   6.021   9.991  1.8049 -1.9604  0.4827
  794MOL0     H 7136   7.365   5.943   9.910 -0.0955 -0.4149  0.0261
  794MOL0     H 7137   7.671   5.899   9.859 -0.8247  2.5320  0.7612
  794MOL0     H 7138   7.544   5.818   9.762 -0.6544 -2.5439  1.0551
  794MOL0     H 7139   7.579   5.770  10.062 -3.2887  1.9663 -0.7463
  794MOL0     H 7140   7.464   5.704   9.969  0.7282 -1.4792  0.1994
  794MOL0     H 7141   7.540   5.484   9.767 -0.7447 -1.1822 -0.0742
  794MOL0     H 7142   7.778   5.217   9.875  0.1412 -3.6761 -3.0146
  794MOL0     H 7143   7.604   5.248   9.820  0.1050  1.3775  1.1663
  794MOL0     H 7144   7.732   5.169   9.606 -2.7063  0.3121  0.8045
  794MOL0     H 7145   7.674   5.335   9.609 -0.9633  0.5192  1.6642
  794MOL0     H 7146   7.906   5.295   9.521 -0.3778  1.7323  0.3060
  794MOL0     H 7147   7.958   5.275   9.693  1.1729 -0.8698 -2.5472
  794MOL0     H 7148   7.876   5.513   9.730  0.9674  1.9118 -0.6253
  794MOL0     H 7149   7.840   5.520   9.560  2.3113  1.7369 -1.1111
  794MOL0     H 7150   8.236   5.608   9.528 -1.9874 -1.0157 -0.5573
  794MOL0     H 7151   8.398   5.747   9.644  0.0198 -3.1103 -1.4563
  794MOL0     H 7152   8.674   5.952   9.688 -0.2231 -0.7874  0.3272
  794MOL0     H 7153   8.868   6.093   9.746  0.0950  0.2691 -0.5078
  794MOL0     H 7154   9.072   6.121   9.847  0.1591  1.0432  1.0621
  794MOL0     H 7155   8.980   6.267   9.846 -2.4520 -0.2234  0.0149
  794MOL0     H 7156   9.079   6.374  10.018 -1.3631  0.6740 -3.2816
  794MOL0     H 7157   9.136   6.233  10.091 -1.0217  0.9034  0.2008
  794MOL0     H 7158   9.315   6.231   9.892  2.7992  2.4534 -0.4543
  794MOL0     H 7159   9.246   6.366   9.825  0.2993 -2.0460  0.0373
  794MOL0     H 7160   9.373   6.336  10.091  1.7185 -1.5262 -2.3933
  794MOL0     H 7161   9.274   6.486  10.053 -0.3641 -1.5593  4.1561
  794MOL0     H 7162   9.439   6.543   9.872  1.9785  0.9394  0.4204
  794MOL0     H 7163   9.515   6.385   9.902  1.0780 -0.1072 -1.6360
  794MOL0     H 7164   9.490   6.606  10.113  1.0247  0.1079 -1.0216
  794MOL0     H 7165   9.589   6.456  10.125 -0.8848  0.4635  1.5670
  794MOL0     H 7166   9.693   6.690  10.061  0.6823 -1.3720  0.4294
  794MOL0     H 7167   9.625   6.653   9.904 -2.1464  0.4875  0.9582
  794MOL0     H 7168   9.822   6.459  10.035  2.1845  0.3099 -0.9226
  794MOL0     H 7169   9.771   6.469   9.862 -1.6110 -0.7439  0.8907
  794MOL0     H 7170   8.753   6.114  10.155  3.6844 -0.2234 -0.6967
  794MOL0     H 7171   8.540   5.997  10.098  1.2162 -1.8064  0.6476
  794MOL0     H 7172   8.151   5.715   9.997 -0.8402  3.7362 -0.8149
  794MOL0     H 7173   8.008   5.590   9.892 -0.8696  2.7723  1.0252
  794MOL0     H 7174   7.290   6.518  10.155 -0.7560  1.1437  2.2563
  794MOL0     H 7175   7.394   6.495  10.372 -0.6867 -3.0708 -0.8824
  794MOL0     H 7176   7.830   6.672  10.560  2.2088 -1.1540 -1.6820
  794MOL0     H 7177   7.977   6.740  10.748 -2.0166  0.8878  1.4605
  794MOL0     H 7178   8.103   6.770  10.902 -2.1525 -1.3617 -0.3833
  794MOL0     H 7179   8.248   6.696  10.838  0.6077 -1.0801  1.1247
  794MOL0     H 7180   8.152   6.746  11.110 -0.8960  2.4824 -4.8794
  794MOL0     H 7181   8.301   6.801  11.072  1.5353 -1.8939  3.7391
  794MOL0     H 7182   8.376   6.543  11.040 -0.1393 -0.4734  0.9868
  794MOL0     H 7183   8.224   6.521  11.135 -0.4515  1.4181 -0.0861
  794MOL0     H 7184   8.459   6.549  11.267  1.1385  0.8884  0.0365
  794MOL0     H 7185   8.466   6.704  11.193  1.1310  1.3399  1.5368
  794MOL0     H 7186   8.249   6.769  11.539  0.6612  0.6138 -0.1424
  794MOL0     H 7187   8.003   6.337  10.878  0.9365  0.5886  0.3807
  794MOL0     H 7188   7.895   6.138  10.738 -0.4290 -0.7703 -0.4640
  794MOL0     H 7189   7.766   6.203  10.628  0.1122  1.0357  0.3080
  794MOL0     H 7190   7.935   6.178  10.575  1.8984 -0.7874  0.9872
  795MOL0     O 7191   2.366   7.763   8.153 -0.0768  0.1764 -0.4133
  795MOL0     C 7192   2.453   7.809   8.238  0.6467  0.3040  0.2175
  795MOL0     O 7193   2.582   7.761   8.249  0.3327  1.2929 -0.0700
  795MOL0     C 7194   2.643   7.679   8.148  0.2488 -0.1687 -0.5011
  795MOL0     C 7195   2.622   7.689   8.010  0.9204 -0.0197  0.4531
  795MOL0     C 7196   2.694   7.606   7.918 -0.0973  0.0895 -0.2904
  795MOL0     C 7197   2.773   7.506   7.976 -1.3049 -0.7072 -0.8078
  795MOL0     O 7198   2.855   7.438   7.888 -0.0032  0.2444  0.7395
  795MOL0     C 7199   2.932   7.323   7.917 -0.7006 -0.5862  0.4001
  795MOL0     C 7200   2.847   7.193   7.947 -0.3440 -1.1370  0.1207
  795MOL0     C 7201   2.940   7.064   7.938  0.0234 -1.0438  0.2819
  795MOL0     C 7202   2.856   6.935   7.925 -0.9055 -0.2712 -0.5908
  795MOL0     C 7203   2.958   6.817   7.952 -0.1241 -0.7011  0.5740
  795MOL0     C 7204   2.880   6.691   7.950 -0.4310  1.0845 -1.0054
  795MOL0     C 7205   2.968   6.569   7.947 -0.1523  1.7437  0.2929
  795MOL0     C 7206   2.888   6.435   7.931  0.3260 -0.8790  0.5259
  795MOL0     N 7207   2.970   6.321   7.992  0.3226  0.6280 -0.2159
  795MOL0     C 7208   2.959   6.284   8.124  0.2399 -0.0355  0.8852
  795MOL0     C 7209   3.023   6.168   8.128  0.9873  0.8299  1.1071
  795MOL0     C 7210   3.028   6.088   8.247  0.0190  0.0107 -0.2966
  795MOL0     C 7211   3.158   6.029   8.282 -0.0667 -0.1364 -1.3121
  795MOL0     C 7212   3.263   5.979   8.178  0.5564  0.7964 -0.8063
  795MOL0     C 7213   3.398   5.954   8.244  0.4701 -0.5721  0.1426
  795MOL0     O 7214   3.402   5.819   8.294  0.1434 -0.9192  0.3219
  795MOL0     C 7215   3.530   5.766   8.307  0.4597  0.6806 -0.6826
  795MOL0     C 7216   3.548   5.632   8.300 -0.3706  0.0891  0.9055
  795MOL0     C 7217   3.679   5.569   8.301 -0.0537 -0.2069  0.0023
  795MOL0     C 7218   3.794   5.648   8.334 -0.6732  0.2351  1.0381
  795MOL0     C 7219   3.932   5.593   8.333  0.2256 -0.3312  0.3744
  795MOL0     O 7220   4.029   5.658   8.402  0.0842 -0.2516 -0.2234
  795MOL0     C 7221   4.163   5.622   8.403  1.3520  1.0076 -0.3753
  795MOL0     C 7222   4.227   5.547   8.300  0.1056 -0.5333 -0.1773
  795MOL0     C 7223   4.355   5.496   8.327  0.1671 -0.5001 -0.0131
  795MOL0     C 7224   4.417   5.516   8.452 -0.4336 -1.2123  0.5268
  795MOL0     O 7225   4.540   5.459   8.480 -0.3563  0.1108  0.1744
  795MOL0     C 7226   4.629   5.442   8.374 -0.2608  0.8123 -0.1655
  795MOL0     C 7227   4.769   5.403   8.420  0.1953 -0.6384  0.9463
  795MOL0     C 7228   4.843   5.508   8.495  0.7179  1.0169 -0.6882
  795MOL0     C 7229   4.998   5.488   8.482  0.5583  0.1339  0.4686
  795MOL0     C 7230   5.079   5.589   8.557 -0.2925 -0.2503 -0.4247
  795MOL0     C 7231   5.226   5.555   8.565 -0.7161  0.0752 -0.1028
  795MOL0     C 7232   5.299   5.645   8.665  0.2719 -0.4220  0.3386
  795MOL0     C 7233   5.445   5.614   8.682 -0.0895 -0.0896  0.2418
  795MOL0    Cl 7234   5.502   5.678   8.846 -0.0479 -0.0475  0.2223
  795MOL0     C 7235   4.351   5.586   8.549  0.7309 -0.6121 -0.2351
  795MOL0     C 7236   4.224   5.640   8.530 -0.6304  0.0073  0.4067
  795MOL0     O 7237   3.938   5.487   8.276 -0.1321  0.7111 -0.2863
  795MOL0     C 7238   3.770   5.782   8.348 -0.2798 -0.2057  0.6435
  795MOL0     C 7239   3.643   5.840   8.330 -0.2460 -0.6609  0.4291
  795MOL0     N 7240   3.076   6.140   8.001 -0.5008 -0.5764 -0.8451
  795MOL0     N 7241   3.049   6.236   7.922 -0.0485  0.5036  0.0896
  795MOL0     C 7242   2.792   7.494   8.120 -0.9683  0.6697  0.8358
  795MOL0     C 7243   2.720   7.570   8.204 -0.0655 -0.5171  0.4298
  795MOL0     C 7244   2.408   7.930   8.320 -0.0458 -0.7634  0.0182
  795MOL0     C 7245   2.505   8.037   8.330  0.0747  1.2893  0.5332
  795MOL0     C 7246   2.470   8.161   8.388  1.2808  0.4103 -0.1998
  795MOL0     C 7247   2.344   8.177   8.458 -0.7009  0.0540  0.4960
  795MOL0     O 7248   2.333   8.292   8.514 -0.1169  0.2113 -0.4794
  795MOL0     C 7249   2.229   8.317   8.609  1.4695 -0.1805  0.2782
  795MOL0     C 7250   2.243   8.257   8.743 -0.3699 -1.0364  0.0587
  795MOL0     C 7251   2.147   8.314   8.845 -0.3443  0.2532  0.1714
  795MOL0     C 7252   2.188   8.415   8.946 -0.1359  0.5072 -0.1042
  795MOL0     C 7253   2.241   8.538   8.892 -0.1139  0.8462 -0.1648
  795MOL0     C 7254   2.289   8.641   8.847  0.8710 -0.1528 -0.3582
  795MOL0     C 7255   2.246   8.076   8.448  0.4362  0.1526 -0.5535
  795MOL0     C 7256   2.280   7.958   8.381 -0.6356 -0.2631  0.0965
  795MOL0     C 7257   2.173   7.855   8.378  0.4926  0.7581 -0.0611
  795MOL0     H 7258   2.562   7.774   7.978 -0.3882 -0.2452  2.1927
  795MOL0     H 7259   2.689   7.619   7.811  2.1284  0.8375 -0.3543
  795MOL0     H 7260   2.994   7.306   7.829 -0.2404  1.5978  0.2362
  795MOL0     H 7261   3.002   7.337   8.000  0.3826  0.8121 -0.7088
  795MOL0     H 7262   2.760   7.179   7.883 -0.2280 -1.3610  0.0117
  795MOL0     H 7263   2.810   7.201   8.050  0.7864 -2.1559  0.6330
  795MOL0     H 7264   2.988   7.057   8.036  1.1794 -1.0393 -0.2669
  795MOL0     H 7265   3.005   7.069   7.850 -0.2807 -0.0146  0.1074
  795MOL0     H 7266   2.775   6.942   7.999  0.6047  0.2385  1.0977
  795MOL0     H 7267   2.813   6.922   7.826 -1.0296  1.2985 -0.7789
  795MOL0     H 7268   3.035   6.826   7.875  0.8064 -0.6509  1.4775
  795MOL0     H 7269   3.003   6.819   8.052 -0.0315 -0.0212  0.5249
  795MOL0     H 7270   2.819   6.689   8.041 -0.8446 -0.0662 -1.2940
  795MOL0     H 7271   2.819   6.686   7.860 -0.4450 -4.7535 -1.0148
  795MOL0     H 7272   3.028   6.561   8.038  2.0976 -3.7104 -1.2489
  795MOL0     H 7273   3.031   6.582   7.859  2.7663 -2.1502  1.5442
  795MOL0     H 7274   2.793   6.451   7.982  1.6770 -1.4830  3.4181
  795MOL0     H 7275   2.866   6.420   7.825  0.9564  2.3955 -0.1606
  795MOL0     H 7276   2.908   6.327   8.209  2.7442 -0.2214  2.5979
  795MOL0     H 7277   2.979   6.148   8.324  1.1486  2.1727 -1.1824
  795MOL0     H 7278   2.962   6.001   8.245 -0.9417  0.5144  3.4279
  795MOL0     H 7279   3.210   6.089   8.357  1.3117 -1.3788 -1.2337
  795MOL0     H 7280   3.148   5.934   8.335  1.9702  0.6035  0.5161
  795MOL0     H 7281   3.276   6.053   8.099  1.9143  1.1237 -0.3008
  795MOL0     H 7282   3.222   5.890   8.129  0.1788 -0.4120  1.5611
  795MOL0     H 7283   3.413   6.021   8.329 -0.2971 -0.1989 -0.0045
  795MOL0     H 7284   3.478   5.963   8.170 -1.0019 -2.4129 -1.7826
  795MOL0     H 7285   3.468   5.572   8.259  1.1025  0.3742 -2.7657
  795MOL0     H 7286   3.685   5.460   8.298  3.4207 -0.1193 -2.5989
  795MOL0     H 7287   4.174   5.514   8.211 -0.2967  0.8714 -0.4875
  795MOL0     H 7288   4.406   5.440   8.249  0.6023  0.1303 -0.1914
  795MOL0     H 7289   4.584   5.373   8.302  0.1143  1.4415 -1.0163
  795MOL0     H 7290   4.643   5.536   8.321  0.7518 -1.6238 -4.7761
  795MOL0     H 7291   4.773   5.307   8.472 -1.9465 -1.1097  0.3052
  795MOL0     H 7292   4.816   5.376   8.325  2.0113  1.6498  1.0933
  795MOL0     H 7293   4.820   5.609   8.459  3.5856  1.3529 -1.8947
  795MOL0     H 7294   4.813   5.503   8.600  2.9982 -3.5398  0.0173
  795MOL0     H 7295   5.033   5.482   8.378  1.9562 -0.1564  0.9342
  795MOL0     H 7296   5.006   5.388   8.527 -1.6249 -0.9303 -1.3356
  795MOL0     H 7297   5.042   5.597   8.660  1.0691  0.1947  0.0411
  795MOL0     H 7298   5.072   5.679   8.496  0.0138  0.4701  0.5925
  795MOL0     H 7299   5.224   5.455   8.607 -0.6615  0.4614  0.8421
  795MOL0     H 7300   5.274   5.560   8.466  0.6777  2.0804  0.6038
  795MOL0     H 7301   5.252   5.633   8.763 -0.9130  2.4322  0.2237
  795MOL0     H 7302   5.273   5.749   8.642 -3.8655 -0.7391  2.5428
  795MOL0     H 7303   5.452   5.507   8.663 -0.1835  0.0244 -0.4580
  795MOL0     H 7304   5.506   5.669   8.609  3.1594  1.5693  3.8275
  795MOL0     H 7305   4.396   5.604   8.646  1.7080 -1.2712 -0.5471
  795MOL0     H 7306   4.176   5.672   8.622 -0.5798 -1.8200  1.1257
  795MOL0     H 7307   3.840   5.864   8.361 -0.3097 -0.0495 -0.1046
  795MOL0     H 7308   3.630   5.947   8.311 -0.6940 -1.1194 -2.2051
  795MOL0     H 7309   2.866   7.421   8.151 -0.2449  0.9267 -0.2150
  795MOL0     H 7310   2.744   7.560   8.310  4.6188  0.9677 -0.2823
  795MOL0     H 7311   2.602   8.029   8.282  0.2328  1.2725  0.8549
  795MOL0     H 7312   2.539   8.245   8.380  1.4695  0.6934  3.1547
  795MOL0     H 7313   2.130   8.290   8.572  1.5012 -0.6552  0.5262
  795MOL0     H 7314   2.223   8.426   8.619  1.6193  0.0618 -1.8026
  795MOL0     H 7315   2.347   8.271   8.772 -0.2619 -1.8197  0.0791
  795MOL0     H 7316   2.224   8.149   8.738 -0.3320 -1.2165  2.6903
  795MOL0     H 7317   2.092   8.227   8.883 -0.5715 -0.3367 -1.4082
  795MOL0     H 7318   2.072   8.370   8.790  0.7463  2.7958  1.1503
  795MOL0     H 7319   2.095   8.438   8.999 -0.7873  1.6552 -1.6987
  795MOL0     H 7320   2.260   8.366   9.012 -1.3622 -1.0450  0.1386
  795MOL0     H 7321   2.342   8.732   8.824  0.9496  0.1479  0.9453
  795MOL0     H 7322   2.147   8.079   8.492  0.6427 -3.3425  0.4938
  795MOL0     H 7323   2.107   7.875   8.293  1.9973  0.3825 -1.3534
  795MOL0     H 7324   2.210   7.752   8.370 -0.4827  0.3364  0.6724
  795MOL0     H 7325   2.109   7.864   8.466  1.1231 -0.8120  0.5894
  796MOL0     O 7326   3.191   9.639   1.996  0.0838  0.0841  0.1700
  796MOL0     C 7327   3.179   9.526   1.956 -1.0374  0.2851  0.1635
  796MOL0     O 7328   3.280   9.453   1.893 -0.1770 -0.0836  0.0566
  796MOL0     C 7329   3.399   9.512   1.870 -0.0160 -0.9442 -0.3899
  796MOL0     C 7330   3.412   9.640   1.811  0.6027 -0.4338  0.3879
  796MOL0     C 7331   3.540   9.685   1.775 -1.0090  0.4552 -0.3333
  796MOL0     C 7332   3.656   9.605   1.789 -1.2819  0.0805 -0.2890
  796MOL0     O 7333   3.777   9.667   1.761 -0.1928 -0.8965 -0.2301
  796MOL0     C 7334   3.901   9.589   1.769  0.1509 -0.6038 -0.3264
  796MOL0     C 7335   3.947   9.600   1.917 -0.4654  0.0839 -0.2661
  796MOL0     C 7336   4.012   9.733   1.961 -0.1931 -0.5366  0.0205
  796MOL0     C 7337   4.146   9.769   1.887  0.3378 -0.7265  1.0466
  796MOL0     C 7338   4.213   9.904   1.932 -0.1954  0.6544 -0.0099
  796MOL0     C 7339   4.313   9.962   1.844 -0.1383 -0.5332  0.0159
  796MOL0     C 7340   4.435   9.866   1.835 -0.2334  0.1419 -0.7511
  796MOL0     C 7341   4.552   9.926   1.754 -0.6161  0.0555 -0.2204
  796MOL0     N 7342   4.665   9.835   1.734  0.1072  0.3462  0.8058
  796MOL0     C 7343   4.689   9.758   1.617 -0.1988 -0.8919 -0.3393
  796MOL0     C 7344   4.809   9.701   1.624 -0.0434 -0.6229 -0.3856
  796MOL0     C 7345   4.870   9.620   1.508  1.2449  0.0851  0.2150
  796MOL0     C 7346   4.857   9.707   1.376  0.0261 -0.0153 -0.6970
  796MOL0     C 7347   4.988   9.769   1.339 -0.1453 -0.0279  0.4816
  796MOL0     C 7348   5.067   9.845   1.467  1.0575  0.0111  0.5087
  796MOL0     O 7349   5.198   9.897   1.421  0.1522  0.1608  0.8593
  796MOL0     C 7350   5.290   9.937   1.516 -0.2039  0.9285  0.8342
  796MOL0     C 7351   5.256   9.979   1.648 -0.0117  0.0584  0.0443
  796MOL0     C 7352   5.342  10.048   1.725 -0.1880 -0.1450  0.2176
  796MOL0     C 7353   5.474  10.088   1.683  0.3148  0.4028  0.1442
  796MOL0     C 7354   5.573  10.148   1.773  0.2462 -0.1770 -0.5799
  796MOL0     O 7355   5.702  10.141   1.733  0.2802 -0.0395  0.5526
  796MOL0     C 7356   5.817  10.192   1.804 -0.1543  0.4630  0.4024
  796MOL0     C 7357   5.845  10.192   1.941 -0.1589  0.0176 -0.6196
  796MOL0     C 7358   5.963  10.260   1.982 -0.2680 -0.5056  0.0213
  796MOL0     C 7359   6.054  10.308   1.893  0.2291  0.2672  0.5869
  796MOL0     O 7360   6.172  10.355   1.953 -0.1146  0.2992  0.6291
  796MOL0     C 7361   6.251  10.231   1.978  0.2788 -0.4761 -0.8175
  796MOL0     C 7362   6.331  10.186   1.855 -0.0821 -0.4135 -0.2814
  796MOL0     C 7363   6.422  10.298   1.806 -0.3335 -0.1420 -0.3880
  796MOL0     C 7364   6.514  10.242   1.692  0.4510 -0.3861 -0.1498
  796MOL0     C 7365   6.621  10.350   1.665 -0.4479 -0.4071  0.5274
  796MOL0     C 7366   6.567  10.482   1.617  0.5104 -0.7304 -0.6353
  796MOL0     C 7367   6.463  10.474   1.506 -0.7298  0.1570 -0.1526
  796MOL0     C 7368   6.405  10.607   1.460  0.1615  0.3262 -0.4590
  796MOL0    Cl 7369   6.529  10.726   1.413 -0.1064  0.1068  0.0012
  796MOL0     C 7370   6.036  10.291   1.756  0.4555  0.5398 -0.8812
  796MOL0     C 7371   5.917  10.240   1.714  0.7542 -0.1303 -0.0405
  796MOL0     O 7372   5.528  10.191   1.877 -0.1661 -0.1380 -0.9131
  796MOL0     C 7373   5.507  10.050   1.552 -0.3592 -0.3949 -0.9208
  796MOL0     C 7374   5.418   9.980   1.464 -0.6532 -0.3087  0.1988
  796MOL0     N 7375   4.864   9.753   1.747  0.4330  0.3053 -0.1641
  796MOL0     N 7376   4.780   9.824   1.813  0.3632 -0.3253 -0.2457
  796MOL0     C 7377   3.636   9.484   1.849 -0.5950  1.0179  0.3786
  796MOL0     C 7378   3.509   9.436   1.896 -0.9403 -0.5796  0.9463
  796MOL0     C 7379   3.064   9.443   2.015 -0.7700 -0.3315  0.2400
  796MOL0     C 7380   3.093   9.305   2.024 -0.7495  0.1433 -0.1818
  796MOL0     C 7381   2.994   9.217   2.089  0.3790  0.6329  1.2618
  796MOL0     C 7382   2.873   9.277   2.123  0.0791  0.7979  0.1632
  796MOL0     O 7383   2.786   9.193   2.192  0.6506 -0.0005  1.0236
  796MOL0     C 7384   2.737   9.233   2.322  0.1682  0.6029 -0.3348
  796MOL0     C 7385   2.618   9.144   2.360 -0.6107 -0.1923 -0.2644
  796MOL0     C 7386   2.536   9.214   2.473 -0.2374 -0.5844  0.1717
  796MOL0     C 7387   2.430   9.304   2.402  0.6351 -0.2045  0.0896
  796MOL0     C 7388   2.292   9.248   2.412  0.3062 -0.2914 -0.0238
  796MOL0     C 7389   2.176   9.200   2.413  0.9621 -0.5904  0.5104
  796MOL0     C 7390   2.846   9.409   2.106  0.1420  0.1249  0.5116
  796MOL0     C 7391   2.938   9.498   2.056 -0.3595  0.4612  0.4762
  796MOL0     C 7392   2.895   9.636   2.030 -0.0727  0.1273  0.1113
  796MOL0     H 7393   3.331   9.713   1.811 -0.0316 -1.1048  1.8660
  796MOL0     H 7394   3.538   9.785   1.733  1.7477 -0.1091 -2.0934
  796MOL0     H 7395   3.878   9.484   1.746 -0.9117  0.1813 -3.2642
  796MOL0     H 7396   3.975   9.629   1.700  1.6363  0.4981  1.7802
  796MOL0     H 7397   4.020   9.529   1.955  0.7433 -0.0161 -2.5695
  796MOL0     H 7398   3.859   9.585   1.979  0.2734 -0.9491  0.5708
  796MOL0     H 7399   4.036   9.743   2.067 -1.0062 -0.0050  0.1614
  796MOL0     H 7400   3.940   9.814   1.950  0.8123  0.0392 -3.3263
  796MOL0     H 7401   4.213   9.684   1.901  0.2607 -0.9921 -0.1236
  796MOL0     H 7402   4.123   9.783   1.782  1.2826  0.4349  0.9823
  796MOL0     H 7403   4.140   9.984   1.947  1.1763  2.2899 -1.5800
  796MOL0     H 7404   4.261   9.888   2.029  1.9963  2.3526 -0.7284
  796MOL0     H 7405   4.264   9.990   1.750  1.2045 -0.3596 -0.6549
  796MOL0     H 7406   4.347  10.057   1.885 -3.1315  0.5294  0.2803
  796MOL0     H 7407   4.397   9.778   1.782 -2.0627  1.6714 -2.1504
  796MOL0     H 7408   4.460   9.838   1.937 -4.4865  0.1888  0.4785
  796MOL0     H 7409   4.523   9.961   1.654  0.4727 -0.8075 -0.8547
  796MOL0     H 7410   4.589  10.017   1.802 -1.4975 -0.3918  1.3597
  796MOL0     H 7411   4.618   9.750   1.535 -2.0836 -1.2105  1.2564
  796MOL0     H 7412   4.973   9.588   1.529  1.5187  1.1868  0.6568
  796MOL0     H 7413   4.812   9.528   1.495  1.3260 -0.0775  0.9906
  796MOL0     H 7414   4.835   9.636   1.295 -0.9360  1.3017 -1.6411
  796MOL0     H 7415   4.765   9.766   1.386 -0.7096 -1.4667  1.7156
  796MOL0     H 7416   4.990   9.832   1.250  4.4389 -0.2749  0.2211
  796MOL0     H 7417   5.060   9.691   1.312  0.6348  0.8362  0.0295
  796MOL0     H 7418   5.088   9.779   1.551  1.2593 -0.6191 -0.0237
  796MOL0     H 7419   5.008   9.928   1.507 -1.0142 -1.3540  0.4374
  796MOL0     H 7420   5.161   9.961   1.698  1.2680  0.1905  2.7144
  796MOL0     H 7421   5.313  10.070   1.827  0.1503 -1.6439  0.6545
  796MOL0     H 7422   5.768  10.169   2.014 -2.8497  2.1950 -2.5491
  796MOL0     H 7423   5.989  10.284   2.085  0.5635  2.0352 -0.6991
  796MOL0     H 7424   6.319  10.259   2.059 -2.2680  3.2124  0.3019
  796MOL0     H 7425   6.188  10.149   2.014  0.1766  0.2617  0.7249
  796MOL0     H 7426   6.398  10.103   1.881  0.8913  1.0489  2.1535
  796MOL0     H 7427   6.263  10.161   1.773  1.1337 -0.9776 -1.1505
  796MOL0     H 7428   6.355  10.376   1.769 -1.0564 -1.4129 -1.8964
  796MOL0     H 7429   6.479  10.326   1.896  1.1045 -0.8918 -1.0284
  796MOL0     H 7430   6.462  10.207   1.603 -1.9063  0.8017  0.6817
  796MOL0     H 7431   6.562  10.152   1.734  2.2406 -0.2481 -1.8028
  796MOL0     H 7432   6.701  10.314   1.601 -1.0977 -2.5785  0.8513
  796MOL0     H 7433   6.671  10.363   1.761  2.4877 -0.4650 -0.9014
  796MOL0     H 7434   6.520  10.540   1.697  2.4318  0.0570 -0.0098
  796MOL0     H 7435   6.644  10.553   1.584 -1.2955  1.4178 -0.4667
  796MOL0     H 7436   6.378  10.419   1.546 -0.5049  1.3449  2.1024
  796MOL0     H 7437   6.495  10.433   1.410  2.0034  0.0749  0.7089
  796MOL0     H 7438   6.350  10.586   1.368  1.5381 -1.0670 -0.9986
  796MOL0     H 7439   6.345  10.653   1.539 -0.9337 -1.6101 -0.1166
  796MOL0     H 7440   6.111  10.308   1.679 -0.2984  0.0332 -1.7442
  796MOL0     H 7441   5.900  10.203   1.613 -0.0326  1.5284 -0.5379
  796MOL0     H 7442   5.601  10.084   1.510 -0.3872 -0.8399 -1.3468
  796MOL0     H 7443   5.434   9.964   1.358 -0.9622  1.0966 -0.0880
  796MOL0     H 7444   3.714   9.423   1.894 -1.9898  0.5178  2.2195
  796MOL0     H 7445   3.500   9.346   1.956 -0.4859 -0.6098  0.9706
  796MOL0     H 7446   3.196   9.281   1.998 -1.2081  0.6179 -2.6645
  796MOL0     H 7447   3.024   9.113   2.103  2.5070  0.8593 -0.9151
  796MOL0     H 7448   2.701   9.336   2.312 -0.3662  0.3300 -1.3173
  796MOL0     H 7449   2.818   9.228   2.396  0.5057  1.2884 -0.6466
  796MOL0     H 7450   2.657   9.048   2.396 -1.5035 -0.1319  0.9508
  796MOL0     H 7451   2.553   9.120   2.276 -0.2099 -0.0350 -0.6232
  796MOL0     H 7452   2.606   9.272   2.534  0.3718 -1.8173  0.6580
  796MOL0     H 7453   2.481   9.143   2.535  0.7373 -0.4987  1.1668
  796MOL0     H 7454   2.436   9.405   2.445 -1.6969  0.1748 -0.3789
  796MOL0     H 7455   2.455   9.321   2.297  1.8541  2.6709  0.7356
  796MOL0     H 7456   2.079   9.165   2.385  0.0543  1.5584  0.7729
  796MOL0     H 7457   2.748   9.444   2.136  0.2492 -0.0556  1.1029
  796MOL0     H 7458   2.970   9.697   1.978  0.3487 -0.1517  0.3874
  796MOL0     H 7459   2.797   9.632   1.981 -1.3580  0.4452  2.4859
  796MOL0     H 7460   2.862   9.669   2.129 -3.6150 -2.4099 -0.0177
  797MOL0     O 7461   8.082   9.310   1.030  0.4267 -0.4843  0.5950
  797MOL0     C 7462   8.075   9.192   1.053 -0.9898  0.5341  0.5789
  797MOL0     O 7463   8.021   9.139   1.165 -0.5576 -0.0733  0.9975
  797MOL0     C 7464   7.988   9.208   1.280  0.0346  0.3297 -0.1617
  797MOL0     C 7465   7.921   9.116   1.365 -0.1999 -0.1296  0.2351
  797MOL0     C 7466   7.880   9.157   1.493 -0.5325 -0.1906  0.3427
  797MOL0     C 7467   7.896   9.290   1.542  0.3028  1.2292 -0.1457
  797MOL0     O 7468   7.853   9.310   1.677  0.2406  0.1559  0.7476
  797MOL0     C 7469   7.877   9.439   1.735 -0.9788 -1.3981 -0.1307
  797MOL0     C 7470   7.777   9.540   1.723  0.1701  0.0664 -0.3884
  797MOL0     C 7471   7.656   9.504   1.814 -0.3387 -0.3215 -0.2657
  797MOL0     C 7472   7.536   9.612   1.803 -0.7631  0.0977  0.2198
  797MOL0     C 7473   7.453   9.587   1.681  0.6637  0.5294  0.0828
  797MOL0     C 7474   7.309   9.626   1.700  0.0108 -0.2530 -0.0596
  797MOL0     C 7475   7.241   9.613   1.576  0.4751  0.7667  0.6854
  797MOL0     C 7476   7.093   9.648   1.559  0.8278  0.8271  0.6736
  797MOL0     N 7477   7.079   9.795   1.569 -0.7309  0.3437 -0.0993
  797MOL0     C 7478   7.004   9.858   1.668 -0.2330  0.2048  1.0083
  797MOL0     C 7479   7.025   9.986   1.644 -0.3570  1.3286  0.1150
  797MOL0     C 7480   6.964  10.089   1.720 -0.3485  0.7548 -0.5751
  797MOL0     C 7481   7.070  10.138   1.830 -0.9607 -0.0507  0.4307
  797MOL0     C 7482   7.019  10.243   1.933 -0.7940  0.3720  0.1155
  797MOL0     C 7483   6.955  10.369   1.872 -0.2902 -0.2857 -0.2449
  797MOL0     O 7484   7.016  10.420   1.754 -0.7165  0.6853  0.3567
  797MOL0     C 7485   7.140  10.476   1.778  0.1688 -0.3505  0.3776
  797MOL0     C 7486   7.174  10.559   1.889 -2.1951 -0.4878  0.2602
  797MOL0     C 7487   7.300  10.624   1.896 -0.0808 -0.0758 -0.3749
  797MOL0     C 7488   7.392  10.620   1.787 -0.3366 -0.2482 -0.2647
  797MOL0     C 7489   7.519  10.700   1.798  0.1289  0.0575  1.3578
  797MOL0     O 7490   7.524  10.790   1.900  0.5680  0.3524 -0.6926
  797MOL0     C 7491   7.642  10.863   1.912 -0.4839  0.0085 -0.5269
  797MOL0     C 7492   7.700  10.940   1.810 -0.4331  0.1828 -0.1130
  797MOL0     C 7493   7.824  11.008   1.827  0.0451 -0.2016 -0.2805
  797MOL0     C 7494   7.876  11.014   1.957  0.4401 -0.5180 -0.2120
  797MOL0     O 7495   8.001  11.082   1.960 -0.0975 -0.4620 -0.5070
  797MOL0     C 7496   8.067  11.105   2.088 -0.5425  0.0259 -0.4020
  797MOL0     C 7497   8.218  11.127   2.053  0.7950 -0.6939  0.0341
  797MOL0     C 7498   8.278  11.000   1.982 -0.2445  0.4250  1.5439
  797MOL0     C 7499   8.428  10.998   2.006 -1.0963 -0.0160  0.2375
  797MOL0     C 7500   8.490  10.863   1.940 -0.4495  0.3467  0.0875
  797MOL0     C 7501   8.498  10.857   1.792  0.3686  0.0172 -0.2546
  797MOL0     C 7502   8.548  10.993   1.736  0.5386 -0.4447  0.1965
  797MOL0     C 7503   8.642  10.992   1.619 -1.0772  0.3009  0.4270
  797MOL0    Cl 7504   8.779  10.887   1.664 -0.3870 -0.0356  0.0744
  797MOL0     C 7505   7.821  10.944   2.064 -0.3769  0.1361  0.7213
  797MOL0     C 7506   7.696  10.875   2.044 -0.1761 -0.1377 -0.5565
  797MOL0     O 7507   7.613  10.681   1.721  0.1745 -0.7224 -0.4890
  797MOL0     C 7508   7.350  10.542   1.676 -0.5644 -0.1941  0.6962
  797MOL0     C 7509   7.230  10.481   1.672  0.3917  0.7376 -0.6417
  797MOL0     N 7510   7.111  10.005   1.534 -0.2534  0.1473 -0.5581
  797MOL0     N 7511   7.150   9.885   1.497 -0.6193  0.2290  0.0825
  797MOL0     C 7512   7.960   9.379   1.451  1.1340 -0.9960  0.1349
  797MOL0     C 7513   8.002   9.334   1.317 -1.0857  0.9737 -0.6319
  797MOL0     C 7514   8.129   9.094   0.956 -0.3487  0.9554 -0.0152
  797MOL0     C 7515   8.096   8.964   0.991  0.5359  0.1591  0.6114
  797MOL0     C 7516   8.153   8.852   0.935  0.5369 -1.0495  0.2607
  797MOL0     C 7517   8.242   8.865   0.823 -0.3520  0.1403 -0.3834
  797MOL0     O 7518   8.276   8.752   0.753  0.0409  0.1677 -0.1421
  797MOL0     C 7519   8.163   8.727   0.664 -0.6787 -0.0550  0.2992
  797MOL0     C 7520   8.166   8.579   0.607  0.2438  0.2498 -0.4921
  797MOL0     C 7521   8.308   8.567   0.534 -0.4212 -0.2648  0.6404
  797MOL0     C 7522   8.326   8.435   0.454  0.0371 -0.1332  0.1493
  797MOL0     C 7523   8.301   8.323   0.540  0.6171  0.1507 -0.0414
  797MOL0     C 7524   8.274   8.223   0.609  0.2069 -1.0896  0.5416
  797MOL0     C 7525   8.264   8.994   0.780 -0.5046 -1.2926  1.1545
  797MOL0     C 7526   8.210   9.110   0.842 -0.7258  0.0436 -0.3871
  797MOL0     C 7527   8.253   9.242   0.780  0.3758 -0.3940  0.1865
  797MOL0     H 7528   7.895   9.017   1.327  1.6442 -0.1168 -1.2244
  797MOL0     H 7529   7.834   9.082   1.555  1.3670 -1.3546  0.4337
  797MOL0     H 7530   7.891   9.423   1.842  0.1176  1.0740  0.1526
  797MOL0     H 7531   7.979   9.467   1.709 -0.6412 -1.3559  1.1700
  797MOL0     H 7532   7.752   9.536   1.617  2.6801  0.9809 -1.0818
  797MOL0     H 7533   7.815   9.636   1.759  1.3899 -0.7572  0.6437
  797MOL0     H 7534   7.697   9.500   1.916 -1.3690 -1.8203  0.1257
  797MOL0     H 7535   7.616   9.407   1.785  2.7831 -1.7761 -0.1057
  797MOL0     H 7536   7.479   9.606   1.896  1.1401 -1.5612  1.3706
  797MOL0     H 7537   7.567   9.716   1.811 -1.7241  0.3624  0.6146
  797MOL0     H 7538   7.496   9.638   1.594 -0.4496 -0.8664 -1.3331
  797MOL0     H 7539   7.448   9.481   1.655 -3.8832  0.5109  0.2206
  797MOL0     H 7540   7.259   9.569   1.779 -1.4744  0.3778 -0.5036
  797MOL0     H 7541   7.303   9.732   1.726  1.7195 -0.0012 -0.5996
  797MOL0     H 7542   7.260   9.511   1.541  0.5626 -0.0045  2.8203
  797MOL0     H 7543   7.288   9.675   1.499 -2.0699 -0.6848 -2.2862
  797MOL0     H 7544   7.055   9.619   1.460  1.4760  3.4873 -0.4477
  797MOL0     H 7545   7.027   9.592   1.626 -1.1034  1.7307 -0.3682
  797MOL0     H 7546   6.944   9.803   1.740 -0.9568 -2.3050 -1.3359
  797MOL0     H 7547   6.944  10.173   1.653 -0.7548 -0.8765 -2.5832
  797MOL0     H 7548   6.871  10.052   1.764 -1.3312  1.2932 -2.1168
  797MOL0     H 7549   7.124  10.055   1.876 -5.8559 -1.7288  3.9294
  797MOL0     H 7550   7.142  10.187   1.763  0.0691  2.0484  2.8757
  797MOL0     H 7551   7.108  10.286   1.981 -0.3329  0.5541 -0.8693
  797MOL0     H 7552   6.955  10.203   2.012 -1.2778  1.4600  0.2849
  797MOL0     H 7553   6.962  10.440   1.955  0.3875 -0.4729 -0.1313
  797MOL0     H 7554   6.850  10.355   1.848 -0.0209  1.5768 -2.9135
  797MOL0     H 7555   7.115  10.586   1.975 -1.9637  3.5423 -0.6346
  797MOL0     H 7556   7.323  10.680   1.985  0.3200  1.1879 -1.2425
  797MOL0     H 7557   7.657  10.938   1.711 -0.9706  1.5996  0.0639
  797MOL0     H 7558   7.873  11.063   1.748 -0.6565  1.3801  0.3524
  797MOL0     H 7559   8.034  11.200   2.129  0.6392  1.1453 -1.9406
  797MOL0     H 7560   8.048  11.024   2.160 -0.5493 -1.6541 -2.1878
  797MOL0     H 7561   8.217  11.211   1.982  0.5221  0.7846  1.7059
  797MOL0     H 7562   8.278  11.147   2.142  1.9909 -0.5112 -0.7936
  797MOL0     H 7563   8.250  10.904   2.027  1.9421 -1.8300 -1.5688
  797MOL0     H 7564   8.256  10.994   1.875  0.1246 -0.2027  1.5027
  797MOL0     H 7565   8.441  10.980   2.113 -2.7608 -1.7929  0.1976
  797MOL0     H 7566   8.476  11.093   1.982 -0.6657  0.0254  1.2065
  797MOL0     H 7567   8.443  10.774   1.983  0.4470 -1.9419 -3.2583
  797MOL0     H 7568   8.592  10.843   1.973 -1.4898 -3.9792  1.2749
  797MOL0     H 7569   8.557  10.773   1.755 -3.1365 -1.9659 -1.8389
  797MOL0     H 7570   8.401  10.838   1.745 -0.6906 -1.4458  2.3133
  797MOL0     H 7571   8.613  11.031   1.814 -0.6837 -1.9058  2.0088
  797MOL0     H 7572   8.460  11.056   1.719 -2.1911 -4.1648 -0.7437
  797MOL0     H 7573   8.606  10.970   1.518 -2.6607  3.4647  0.1780
  797MOL0     H 7574   8.685  11.092   1.605 -1.4098  0.2763 -0.9033
  797MOL0     H 7575   7.867  10.932   2.161 -0.3145  2.6785  1.0763
  797MOL0     H 7576   7.649  10.829   2.130  0.7136 -1.3357 -0.6834
  797MOL0     H 7577   7.418  10.544   1.592  1.4981 -0.0597  2.2901
  797MOL0     H 7578   7.198  10.417   1.590 -1.6538  0.9585 -0.0871
  797MOL0     H 7579   7.984   9.481   1.480  1.4434 -0.4980 -1.7792
  797MOL0     H 7580   8.054   9.405   1.253 -0.8088  0.3428 -1.1145
  797MOL0     H 7581   8.023   8.941   1.068 -0.3053 -1.1151 -0.5293
  797MOL0     H 7582   8.116   8.759   0.975 -4.9547 -0.5839 -2.6859
  797MOL0     H 7583   8.182   8.789   0.575 -0.0283 -0.9339 -0.1988
  797MOL0     H 7584   8.068   8.753   0.711 -1.3172  0.5917 -1.2741
  797MOL0     H 7585   8.087   8.555   0.536 -3.0742  2.0936  2.3008
  797MOL0     H 7586   8.149   8.509   0.690 -1.6707  0.4219 -0.7054
  797MOL0     H 7587   8.389   8.572   0.608  3.0158 -0.8455 -2.7226
  797MOL0     H 7588   8.332   8.645   0.462 -0.4419 -0.8898 -0.0598
  797MOL0     H 7589   8.262   8.438   0.366  0.8998 -1.2441 -0.5536
  797MOL0     H 7590   8.427   8.425   0.413  0.7489  3.5523  0.7006
  797MOL0     H 7591   8.248   8.138   0.669 -1.0844 -2.0485 -1.2636
  797MOL0     H 7592   8.333   9.013   0.697  2.3343  1.2997  3.8527
  797MOL0     H 7593   8.341   9.226   0.717 -1.9829  1.1806 -3.8733
  797MOL0     H 7594   8.180   9.287   0.712  2.6020  0.7753 -1.5579
  797MOL0     H 7595   8.271   9.325   0.849 -3.4562  2.8373 -2.3002
  798MOL0     O 7596   0.999   2.110   2.840  0.0704  0.2270  0.1060
  798MOL0     C 7597   0.961   2.125   2.957 -0.6394 -0.5336 -0.1494
  798MOL0     O 7598   1.037   2.140   3.070 -0.8636  0.1354  0.4834
  798MOL0     C 7599   1.181   2.132   3.045  0.4872  0.0990  0.2039
  798MOL0     C 7600   1.224   2.013   3.003 -0.9566  0.9550  0.3830
  798MOL0     C 7601   1.359   1.988   2.965 -0.0376 -0.3787  0.0698
  798MOL0     C 7602   1.444   2.095   2.971 -0.7532 -0.8014  0.5508
  798MOL0     O 7603   1.577   2.061   2.946 -0.4798 -0.3341  0.1537
  798MOL0     C 7604   1.684   2.161   2.945 -0.6011  0.5946  0.6108
  798MOL0     C 7605   1.809   2.113   2.864  1.0893 -0.2591  0.5106
  798MOL0     C 7606   1.918   2.224   2.852  0.1220  0.6072  0.7881
  798MOL0     C 7607   2.052   2.167   2.810 -0.6183  0.2679 -0.4692
  798MOL0     C 7608   2.153   2.286   2.825  0.0182  0.1650 -0.2527
  798MOL0     C 7609   2.268   2.260   2.731 -0.3765  0.3682 -0.2720
  798MOL0     C 7610   2.373   2.370   2.744 -0.1472  0.2439 -0.7411
  798MOL0     C 7611   2.466   2.344   2.869  0.2611  0.4498  0.4857
  798MOL0     N 7612   2.579   2.442   2.874 -0.6047  0.3302 -0.0353
  798MOL0     C 7613   2.657   2.502   2.783  0.6515  0.1995  0.0074
  798MOL0     C 7614   2.731   2.591   2.845  0.0450 -0.0050  0.0068
  798MOL0     C 7615   2.839   2.673   2.787 -0.2244  0.1028 -0.0139
  798MOL0     C 7616   2.972   2.593   2.757  0.1489 -0.1176  0.3327
  798MOL0     C 7617   3.055   2.661   2.651 -0.8615  0.3440  0.1116
  798MOL0     C 7618   3.116   2.789   2.715  0.0539 -0.5847 -0.4348
  798MOL0     O 7619   3.182   2.867   2.617 -0.3031 -0.7465 -0.7507
  798MOL0     C 7620   3.314   2.840   2.600  0.3692 -0.0301 -0.0989
  798MOL0     C 7621   3.351   2.755   2.498  0.1569  0.4212  0.5029
  798MOL0     C 7622   3.484   2.727   2.476  0.1060 -0.7579  0.5403
  798MOL0     C 7623   3.583   2.793   2.558 -0.3331  0.6395  1.3570
  798MOL0     C 7624   3.736   2.771   2.522 -0.1433 -0.1436 -1.0654
  798MOL0     O 7625   3.769   2.698   2.406 -0.4452 -0.0120  0.4413
  798MOL0     C 7626   3.899   2.666   2.403  0.5697  1.1267 -0.9537
  798MOL0     C 7627   3.945   2.552   2.471 -0.2691  0.3169  0.4784
  798MOL0     C 7628   4.076   2.520   2.466  0.4112  0.4350 -0.9078
  798MOL0     C 7629   4.163   2.605   2.404 -1.0626 -0.2958  0.3857
  798MOL0     O 7630   4.300   2.586   2.394 -0.1662 -0.5123  1.1335
  798MOL0     C 7631   4.364   2.488   2.466  0.4792  0.4365 -0.0483
  798MOL0     C 7632   4.510   2.481   2.437  0.5200  1.2785  0.2288
  798MOL0     C 7633   4.579   2.595   2.516  0.2726  0.1587  1.2191
  798MOL0     C 7634   4.719   2.603   2.454 -0.2005  0.1989 -0.9095
  798MOL0     C 7635   4.805   2.700   2.533  0.3180 -0.0286  0.8506
  798MOL0     C 7636   4.936   2.735   2.467  0.6698 -1.2808 -0.3369
  798MOL0     C 7637   5.026   2.818   2.562 -0.3532 -0.1621 -0.5504
  798MOL0     C 7638   5.151   2.855   2.493  0.0865 -0.1621 -0.1741
  798MOL0    Cl 7639   5.256   2.934   2.606  0.2046 -0.1550  0.5027
  798MOL0     C 7640   4.112   2.717   2.333 -0.4515 -0.0819 -0.6250
  798MOL0     C 7641   3.984   2.753   2.339  0.8722  0.2553 -0.6415
  798MOL0     O 7642   3.816   2.822   2.606  0.0726 -0.5338  0.0881
  798MOL0     C 7643   3.547   2.881   2.662  0.0066  0.9343 -0.6344
  798MOL0     C 7644   3.407   2.906   2.681 -0.6429  0.5838  0.5421
  798MOL0     N 7645   2.711   2.574   2.979 -0.5854  0.1829 -0.2704
  798MOL0     N 7646   2.622   2.483   2.997  0.0907 -0.0342 -0.6027
  798MOL0     C 7647   1.401   2.219   3.016 -0.1174  0.6939 -0.2626
  798MOL0     C 7648   1.272   2.233   3.055  1.0473  0.8270 -0.5057
  798MOL0     C 7649   0.818   2.144   2.979  0.5938 -0.1587 -0.5740
  798MOL0     C 7650   0.775   2.274   3.028 -0.8033  0.5101 -0.3293
  798MOL0     C 7651   0.639   2.293   3.059  0.6319 -0.8325  0.1079
  798MOL0     C 7652   0.545   2.186   3.034  0.1338 -1.0352  0.2193
  798MOL0     O 7653   0.410   2.200   3.063  0.0480 -0.5106 -0.0947
  798MOL0     C 7654   0.337   2.304   2.993 -0.4268  0.6447  1.0221
  798MOL0     C 7655   0.374   2.318   2.837  0.4421  0.3907  0.3269
  798MOL0     C 7656   0.336   2.184   2.763 -1.0673 -0.7621  0.4937
  798MOL0     C 7657   0.421   2.189   2.626 -0.3222 -0.2105 -0.2879
  798MOL0     C 7658   0.442   2.049   2.583 -0.4996 -0.3018  0.2931
  798MOL0     C 7659   0.466   1.939   2.527  0.3473 -0.2363 -0.5420
  798MOL0     C 7660   0.588   2.072   2.982 -1.0481  0.4681  1.0249
  798MOL0     C 7661   0.719   2.050   2.944  0.3663  0.7671  0.2076
  798MOL0     C 7662   0.755   1.908   2.900 -0.5343 -0.1743  0.1579
  798MOL0     H 7663   1.153   1.932   2.995 -2.6678  2.3326  1.0145
  798MOL0     H 7664   1.384   1.887   2.937  0.3986 -0.5310  0.9826
  798MOL0     H 7665   1.645   2.251   2.897 -1.4876 -0.5215 -0.8384
  798MOL0     H 7666   1.702   2.195   3.047 -4.2192  3.9434  0.3651
  798MOL0     H 7667   1.770   2.088   2.765  0.0091  0.3146  0.7837
  798MOL0     H 7668   1.852   2.017   2.892  0.6977 -0.9778 -1.2300
  798MOL0     H 7669   1.935   2.272   2.948 -0.6996  1.9877  0.2669
  798MOL0     H 7670   1.895   2.301   2.778  1.8645 -0.3975 -0.8782
  798MOL0     H 7671   2.090   2.083   2.868  0.6727  0.1915 -1.3957
  798MOL0     H 7672   2.041   2.134   2.706 -1.9470 -0.8160 -0.0204
  798MOL0     H 7673   2.105   2.383   2.805  0.7712  1.4512  3.3062
  798MOL0     H 7674   2.190   2.289   2.928 -0.6984 -1.1143  0.0628
  798MOL0     H 7675   2.312   2.160   2.733 -0.6463  0.1184 -2.9798
  798MOL0     H 7676   2.236   2.272   2.628  0.3750  0.5413 -0.4944
  798MOL0     H 7677   2.320   2.465   2.740 -1.7195 -0.0719  4.6879
  798MOL0     H 7678   2.438   2.360   2.656 -0.9917  2.7569 -1.7298
  798MOL0     H 7679   2.414   2.321   2.963 -1.6284  1.0259 -0.3609
  798MOL0     H 7680   2.514   2.248   2.849 -0.9105  0.1522 -1.0010
  798MOL0     H 7681   2.658   2.479   2.677  2.5740 -0.8026  0.2094
  798MOL0     H 7682   2.799   2.708   2.692  0.3236 -0.0411 -0.3004
  798MOL0     H 7683   2.852   2.760   2.852 -0.5258 -0.4395  0.7877
  798MOL0     H 7684   3.021   2.577   2.854 -1.8363 -1.2510  1.2015
  798MOL0     H 7685   2.954   2.489   2.729 -0.4097  0.5829 -2.1950
  798MOL0     H 7686   3.008   2.665   2.553  0.8652 -0.6487 -0.7999
  798MOL0     H 7687   3.128   2.581   2.638 -3.3122 -2.2129  1.0399
  798MOL0     H 7688   3.179   2.774   2.803 -1.2909  1.7509  1.0139
  798MOL0     H 7689   3.024   2.840   2.744  0.9560  1.0895 -0.4144
  798MOL0     H 7690   3.276   2.687   2.458  0.2460  0.8575 -0.4266
  798MOL0     H 7691   3.515   2.658   2.398  1.3286 -0.9806  1.2064
  798MOL0     H 7692   3.864   2.492   2.509 -1.8978 -1.5474 -4.9589
  798MOL0     H 7693   4.092   2.433   2.529  0.2346  1.9955  1.3872
  798MOL0     H 7694   4.347   2.506   2.573 -0.6516  1.1192 -0.3397
  798MOL0     H 7695   4.325   2.391   2.432 -1.5517  1.3525 -0.4441
  798MOL0     H 7696   4.548   2.382   2.465 -0.1904  0.9077 -0.0951
  798MOL0     H 7697   4.530   2.485   2.329  0.0005 -0.9873 -0.0094
  798MOL0     H 7698   4.523   2.688   2.501 -0.3629 -0.6061 -2.0281
  798MOL0     H 7699   4.575   2.573   2.623  1.0533  3.6731  2.0917
  798MOL0     H 7700   4.698   2.631   2.350 -0.2423 -3.1753 -1.9430
  798MOL0     H 7701   4.762   2.504   2.435 -0.0633  0.2420 -0.8258
  798MOL0     H 7702   4.827   2.661   2.633 -0.0735  0.2056  1.0352
  798MOL0     H 7703   4.758   2.798   2.547 -0.0601  0.2473 -1.8839
  798MOL0     H 7704   4.993   2.651   2.427  2.6199 -0.3881  0.3977
  798MOL0     H 7705   4.907   2.795   2.381  0.0593 -1.4384 -0.2419
  798MOL0     H 7706   5.039   2.767   2.658  0.1236  0.0585 -0.4913
  798MOL0     H 7707   4.971   2.910   2.581 -1.8857 -1.2470  0.5437
  798MOL0     H 7708   5.206   2.762   2.475  1.8409  0.1534  2.7814
  798MOL0     H 7709   5.121   2.906   2.401 -0.6729  1.4793  0.9312
  798MOL0     H 7710   4.187   2.774   2.280  0.8185  0.3898  1.5463
  798MOL0     H 7711   3.941   2.843   2.295  3.7879  1.6978 -0.7575
  798MOL0     H 7712   3.623   2.941   2.711  0.3510 -0.3168  0.4541
  798MOL0     H 7713   3.380   2.983   2.752 -2.7768 -0.0995  0.5525
  798MOL0     H 7714   1.457   2.312   3.017 -2.5471  2.2690 -1.6335
  798MOL0     H 7715   1.252   2.328   3.105 -1.8843 -1.1607  2.4952
  798MOL0     H 7716   0.840   2.354   3.062  0.3867  1.0575 -3.4965
  798MOL0     H 7717   0.601   2.383   3.107  2.4418  0.0702 -0.0909
  798MOL0     H 7718   0.342   2.401   3.044 -2.8149  0.5118  1.5763
  798MOL0     H 7719   0.236   2.263   2.986  1.6664 -5.1016 -2.4569
  798MOL0     H 7720   0.477   2.349   2.818  1.2283 -1.1539  1.7530
  798MOL0     H 7721   0.320   2.398   2.787 -1.7335 -0.3552  1.3768
  798MOL0     H 7722   0.228   2.184   2.744 -0.6697 -0.7362 -2.0648
  798MOL0     H 7723   0.355   2.096   2.825  1.6722  1.2405  2.7806
  798MOL0     H 7724   0.373   2.241   2.542  1.0768 -1.4941 -1.9721
  798MOL0     H 7725   0.519   2.235   2.638 -0.6648 -0.0710  2.6193
  798MOL0     H 7726   0.499   1.850   2.477 -0.3233 -0.4695 -0.5686
  798MOL0     H 7727   0.513   1.997   2.959  0.4909 -0.9907  0.6491
  798MOL0     H 7728   0.682   1.836   2.936  1.3105 -3.1525 -1.6247
  798MOL0     H 7729   0.749   1.884   2.793 -2.4435  3.2892 -0.6938
  798MOL0     H 7730   0.850   1.886   2.949  0.0478  2.6247  0.4547
  799MOL0     O 7731   7.367   4.536   9.589  0.4300  0.1780  0.2334
  799MOL0     C 7732   7.293   4.633   9.560 -0.5903  0.1047  0.3776
  799MOL0     O 7733   7.320   4.766   9.575 -0.0050  0.4629 -0.2876
  799MOL0     C 7734   7.439   4.801   9.629  0.4435 -0.7946 -1.2977
  799MOL0     C 7735   7.454   4.812   9.766  0.1887  0.2846  0.1631
  799MOL0     C 7736   7.572   4.850   9.826 -0.9187  0.3673  0.4905
  799MOL0     C 7737   7.695   4.851   9.740  0.1124  0.1508  0.8122
  799MOL0     O 7738   7.814   4.881   9.789 -0.2221 -0.5330  0.1632
  799MOL0     C 7739   7.852   4.871   9.928 -0.8778  0.0589 -0.2735
  799MOL0     C 7740   7.996   4.900   9.943 -0.6244 -0.2819 -0.6609
  799MOL0     C 7741   8.034   5.045   9.928 -0.5557 -0.1708 -0.2864
  799MOL0     C 7742   8.180   5.071   9.962  0.1468 -0.8679 -0.3371
  799MOL0     C 7743   8.238   5.221   9.935 -0.1032 -0.4012 -0.2971
  799MOL0     C 7744   8.132   5.327   9.958  0.3918 -0.3489 -0.4904
  799MOL0     C 7745   8.091   5.336  10.110  0.2724 -0.7975 -0.0302
  799MOL0     C 7746   8.143   5.446  10.205 -0.4094  0.8395  0.7265
  799MOL0     N 7747   8.284   5.448  10.216 -0.8878  0.2292 -0.2452
  799MOL0     C 7748   8.378   5.490  10.121  0.2872 -0.2822  0.2941
  799MOL0     C 7749   8.497   5.465  10.181 -0.1408 -0.3391  0.7882
  799MOL0     C 7750   8.635   5.496  10.131 -0.3292  0.0802  0.4206
  799MOL0     C 7751   8.691   5.620  10.185  0.5152  0.0366  0.1760
  799MOL0     C 7752   8.822   5.648  10.115 -0.1304  1.0287 -0.2544
  799MOL0     C 7753   8.882   5.773  10.175 -0.0250 -0.5671  0.5961
  799MOL0     O 7754   8.890   5.768  10.319  0.0503 -0.3245  0.1246
  799MOL0     C 7755   9.006   5.709  10.380  0.2545 -0.0170  0.6418
  799MOL0     C 7756   9.108   5.639  10.314  0.0352  0.6755  0.3620
  799MOL0     C 7757   9.212   5.587  10.384 -0.7250 -1.0047  0.2888
  799MOL0     C 7758   9.226   5.601  10.525 -0.4433 -0.2157 -1.1978
  799MOL0     C 7759   9.344   5.564  10.602 -0.6912  0.2500 -0.7473
  799MOL0     O 7760   9.328   5.515  10.723  0.1315 -0.6358  0.5629
  799MOL0     C 7761   9.430   5.475  10.805 -0.2882  0.8810 -0.0516
  799MOL0     C 7762   9.388   5.429  10.936 -0.0348  0.3412 -0.6583
  799MOL0     C 7763   9.486   5.399  11.039  0.4763 -0.7803  0.1159
  799MOL0     C 7764   9.624   5.420  11.012  0.5188  0.1008 -0.2043
  799MOL0     O 7765   9.728   5.388  11.097  0.6838  0.2189  0.1972
  799MOL0     C 7766   9.760   5.492  11.191  0.1288 -0.1999 -0.4355
  799MOL0     C 7767   9.850   5.436  11.306  0.9422 -0.2718  0.7451
  799MOL0     C 7768   9.992   5.438  11.254 -0.8084  0.7910  0.1027
  799MOL0     C 7769  10.077   5.435  11.378 -0.9480  0.1163 -0.1596
  799MOL0     C 7770  10.229   5.431  11.352 -1.0637 -0.5617  0.8068
  799MOL0     C 7771  10.307   5.439  11.485  0.0804  0.2267  0.7620
  799MOL0     C 7772  10.451   5.461  11.459 -0.0345 -0.0310 -0.3215
  799MOL0     C 7773  10.519   5.413  11.586  0.7177 -0.1861 -1.1565
  799MOL0    Cl 7774  10.692   5.449  11.567  0.3203  0.7348  0.1757
  799MOL0     C 7775   9.660   5.459  10.880  0.7699 -0.5619  0.1575
  799MOL0     C 7776   9.568   5.487  10.781  0.1096  0.1896 -1.0084
  799MOL0     O 7777   9.447   5.576  10.541 -0.2146 -0.5842 -0.4249
  799MOL0     C 7778   9.118   5.658  10.595  0.4216  0.0064 -0.3199
  799MOL0     C 7779   9.015   5.715  10.519 -0.1989 -0.6790 -0.2256
  799MOL0     N 7780   8.480   5.404  10.305  0.6074 -0.1052 -0.1565
  799MOL0     N 7781   8.348   5.384  10.315 -0.1666  0.3439 -0.4238
  799MOL0     C 7782   7.669   4.834   9.600 -1.3960 -0.3231 -0.6922
  799MOL0     C 7783   7.545   4.810   9.548  0.3756  0.1208 -0.5768
  799MOL0     C 7784   7.155   4.597   9.539 -0.1221 -0.6936 -0.0690
  799MOL0     C 7785   7.064   4.699   9.570  0.2719 -0.3627  0.3823
  799MOL0     C 7786   6.926   4.667   9.566 -0.4773  0.2320 -0.2210
  799MOL0     C 7787   6.884   4.537   9.563 -0.3771 -0.0886 -0.3956
  799MOL0     O 7788   6.747   4.526   9.568  0.0601 -0.1829  0.2309
  799MOL0     C 7789   6.694   4.390   9.572 -0.1607  0.0982 -0.3983
  799MOL0     C 7790   6.542   4.396   9.598  0.3946 -0.2879  0.5589
  799MOL0     C 7791   6.467   4.425   9.464 -0.0385  0.0530  0.0460
  799MOL0     C 7792   6.410   4.294   9.404  0.0067 -0.2509  0.3095
  799MOL0     C 7793   6.351   4.322   9.269  0.4626  0.2456  0.3866
  799MOL0     C 7794   6.296   4.352   9.164  0.2031 -0.0315  0.3698
  799MOL0     C 7795   6.969   4.444   9.539  0.1494  0.3666  0.1945
  799MOL0     C 7796   7.102   4.472   9.514 -0.0900  0.6082 -0.0271
  799MOL0     C 7797   7.181   4.351   9.464  0.6058 -0.0624 -0.1903
  799MOL0     H 7798   7.361   4.805   9.821 -0.2849 -1.7998 -0.7853
  799MOL0     H 7799   7.585   4.881   9.929 -0.0870  0.1986  0.4406
  799MOL0     H 7800   7.796   4.945   9.985 -0.6823 -1.4730  2.0373
  799MOL0     H 7801   7.842   4.767   9.962 -2.0160 -0.5296 -2.2513
  799MOL0     H 7802   8.035   4.839   9.861 -0.0361 -1.0498  0.1818
  799MOL0     H 7803   8.035   4.869  10.040  0.5395 -1.2633 -1.4120
  799MOL0     H 7804   7.975   5.109   9.995  0.7831  0.1807  0.6215
  799MOL0     H 7805   8.017   5.066   9.822  2.3912  1.9590 -0.4717
  799MOL0     H 7806   8.199   5.043  10.066  1.8340  0.3490 -0.2702
  799MOL0     H 7807   8.240   5.009   9.895  1.1387 -0.5219  0.2120
  799MOL0     H 7808   8.328   5.236   9.994 -0.7539 -1.4081  0.9848
  799MOL0     H 7809   8.274   5.215   9.832  2.1713  1.2118  0.3353
  799MOL0     H 7810   8.181   5.418   9.921 -2.2540  1.4846  0.1804
  799MOL0     H 7811   8.042   5.321   9.897  0.7134  1.2928 -1.1869
  799MOL0     H 7812   8.115   5.243  10.162  0.1849 -2.3295 -2.5572
  799MOL0     H 7813   7.981   5.341  10.108  0.2776 -0.9335 -0.7856
  799MOL0     H 7814   8.105   5.546  10.180  1.2012  0.9378 -1.7243
  799MOL0     H 7815   8.099   5.436  10.304 -3.3499  3.1904 -0.1917
  799MOL0     H 7816   8.362   5.553  10.035 -0.0016 -0.9161 -0.1186
  799MOL0     H 7817   8.708   5.420  10.160 -0.0648 -0.0366 -0.5209
  799MOL0     H 7818   8.640   5.503  10.022  1.7366  1.6303  0.5398
  799MOL0     H 7819   8.617   5.699  10.171 -1.6829 -1.9651 -0.0906
  799MOL0     H 7820   8.693   5.604  10.293 -0.1970 -0.1616  0.1594
  799MOL0     H 7821   8.813   5.647  10.006  0.7067  0.2407 -0.3358
  799MOL0     H 7822   8.892   5.566  10.135 -0.4813  1.1213  1.5717
  799MOL0     H 7823   8.813   5.854  10.152  0.5728 -0.2320 -0.0626
  799MOL0     H 7824   8.979   5.793  10.128 -0.1236  0.5950  0.8549
  799MOL0     H 7825   9.099   5.618  10.208  0.7493 -0.6686  0.5508
  799MOL0     H 7826   9.288   5.537  10.326 -0.6605  0.7059 -1.2055
  799MOL0     H 7827   9.281   5.422  10.946 -0.1036  0.0229 -1.5179
  799MOL0     H 7828   9.449   5.384  11.140  0.2823  0.3052  0.2163
  799MOL0     H 7829   9.803   5.578  11.139 -1.3138 -0.1034 -1.5069
  799MOL0     H 7830   9.673   5.536  11.241  1.5006  2.3151 -0.0469
  799MOL0     H 7831   9.842   5.485  11.403  0.1203 -1.3500  1.2547
  799MOL0     H 7832   9.819   5.333  11.328  0.9404 -0.8752 -1.7654
  799MOL0     H 7833  10.018   5.353  11.190  0.4542  1.5903 -0.4983
  799MOL0     H 7834  10.002   5.536  11.205  0.5263  0.9913  0.7296
  799MOL0     H 7835  10.050   5.354  11.447  2.5117  0.4808  1.8517
  799MOL0     H 7836  10.057   5.534  11.419 -0.1841  0.0752  0.3399
  799MOL0     H 7837  10.259   5.517  11.291 -1.1594  0.4591  2.1675
  799MOL0     H 7838  10.249   5.344  11.288  1.0115  0.5557 -0.1699
  799MOL0     H 7839  10.266   5.516  11.551  0.4294  2.3879 -1.4024
  799MOL0     H 7840  10.296   5.342  11.535 -0.8916  0.2966  0.7004
  799MOL0     H 7841  10.466   5.569  11.449 -1.0833 -0.0131 -1.9812
  799MOL0     H 7842  10.483   5.401  11.373  0.8490 -2.8047  1.7674
  799MOL0     H 7843  10.483   5.467  11.674  0.6845  0.5429 -1.6031
  799MOL0     H 7844  10.486   5.309  11.588 -3.4502  0.9396 -1.9922
  799MOL0     H 7845   9.768   5.456  10.865  0.7084 -0.8595 -0.2548
  799MOL0     H 7846   9.609   5.537  10.693  0.5128  1.4252 -0.1359
  799MOL0     H 7847   9.135   5.659  10.702  0.8777  1.1522 -0.3892
  799MOL0     H 7848   8.928   5.761  10.565  0.2351 -1.7722  1.7771
  799MOL0     H 7849   7.744   4.842   9.522 -0.1903 -0.5817  0.3947
  799MOL0     H 7850   7.530   4.802   9.440 -0.2524  0.4306 -0.5178
  799MOL0     H 7851   7.091   4.802   9.590  2.7269 -0.8857  0.0592
  799MOL0     H 7852   6.848   4.742   9.577 -0.0819  0.8010 -1.1672
  799MOL0     H 7853   6.740   4.338   9.657  2.0542  0.0400 -1.5742
  799MOL0     H 7854   6.711   4.332   9.481  0.0335  1.6359 -1.3702
  799MOL0     H 7855   6.531   4.475   9.672 -0.4031  0.6016 -0.4847
  799MOL0     H 7856   6.505   4.300   9.636  0.7709  0.0543  1.8384
  799MOL0     H 7857   6.532   4.480   9.396  0.2611 -1.2085 -0.7222
  799MOL0     H 7858   6.390   4.491   9.505 -1.7074 -1.0962 -1.1240
  799MOL0     H 7859   6.488   4.217   9.404  0.8641  0.4728  3.2975
  799MOL0     H 7860   6.328   4.265   9.471 -1.8640  1.5956 -1.0867
  799MOL0     H 7861   6.252   4.367   9.067  0.5437 -2.5200 -0.2317
  799MOL0     H 7862   6.930   4.343   9.526 -0.5736  0.7627 -0.8525
  799MOL0     H 7863   7.104   4.283   9.429  0.2738  0.1023  0.2084
  799MOL0     H 7864   7.248   4.371   9.380 -0.0420 -2.7989 -1.4769
  799MOL0     H 7865   7.233   4.298   9.544 -0.0372 -0.4327 -0.0096
  800MOL0     O 7866   7.896   4.565   6.868  0.0354  0.2160 -0.1950
  800MOL0     C 7867   7.912   4.624   6.758  0.5794  0.2152 -0.3116
  800MOL0     O 7868   8.001   4.730   6.725 -0.3311 -0.4478 -0.1581
  800MOL0     C 7869   8.090   4.739   6.829 -0.6532  0.0956 -0.1091
  800MOL0     C 7870   8.089   4.844   6.912 -0.9258 -0.4983 -0.5299
  800MOL0     C 7871   8.182   4.870   7.014 -0.0630  0.6877 -0.1625
  800MOL0     C 7872   8.285   4.780   7.042 -0.3022 -0.8727  0.5520
  800MOL0     O 7873   8.367   4.789   7.154  0.0920  0.1517 -0.6082
  800MOL0     C 7874   8.293   4.829   7.275 -0.3187 -0.2943  1.0468
  800MOL0     C 7875   8.363   4.779   7.408  0.2925  0.5223  0.4984
  800MOL0     C 7876   8.486   4.856   7.441  0.0788 -0.8534 -0.2624
  800MOL0     C 7877   8.586   4.770   7.520 -0.6009  0.0937 -0.4440
  800MOL0     C 7878   8.698   4.853   7.576  0.5664  0.1775 -0.0072
  800MOL0     C 7879   8.779   4.767   7.670  0.2477  0.6642 -0.1776
  800MOL0     C 7880   8.929   4.818   7.694  0.1053 -0.0441 -0.5706
  800MOL0     C 7881   9.024   4.705   7.686 -0.1349 -0.3743 -0.7979
  800MOL0     N 7882   9.028   4.597   7.782  0.9095  0.0132 -0.1385
  800MOL0     C 7883   8.959   4.476   7.762  0.7679 -0.0039  0.2116
  800MOL0     C 7884   9.023   4.398   7.857  0.0449 -0.2785  0.0377
  800MOL0     C 7885   8.977   4.258   7.888 -0.4227 -0.3638  0.2976
  800MOL0     C 7886   8.854   4.247   7.971 -0.1464  0.1587 -0.1445
  800MOL0     C 7887   8.888   4.276   8.120  0.1983 -0.1447 -0.2892
  800MOL0     C 7888   8.901   4.137   8.187  0.4638 -0.4117 -0.0382
  800MOL0     O 7889   8.951   4.160   8.322 -0.1728  0.5116  0.0856
  800MOL0     C 7890   9.080   4.171   8.352  0.2664 -0.4955  0.4065
  800MOL0     C 7891   9.114   4.223   8.477 -0.0134  1.3705 -0.2343
  800MOL0     C 7892   9.246   4.240   8.515 -1.0282  0.5263  0.0045
  800MOL0     C 7893   9.352   4.188   8.435  0.1757 -1.0396  0.0600
  800MOL0     C 7894   9.491   4.187   8.481  0.1564 -0.6626 -0.4699
  800MOL0     O 7895   9.573   4.089   8.428 -0.1385 -0.0512 -1.0166
  800MOL0     C 7896   9.708   4.112   8.425  0.2256  0.0801  0.4865
  800MOL0     C 7897   9.770   4.132   8.291  0.1705 -0.5025 -0.6257
  800MOL0     C 7898   9.909   4.166   8.276 -0.0882 -0.8297  0.8477
  800MOL0     C 7899   9.985   4.172   8.390  1.2130 -0.3552 -0.6538
  800MOL0     O 7900  10.120   4.179   8.392 -0.0629 -0.3489 -0.5473
  800MOL0     C 7901  10.183   4.277   8.315 -0.7910 -0.3372 -0.1455
  800MOL0     C 7902  10.318   4.323   8.374  0.2586 -0.9905 -0.6214
  800MOL0     C 7903  10.301   4.403   8.508  0.2773 -0.0735 -0.6691
  800MOL0     C 7904  10.416   4.478   8.576  1.0534  0.2294  0.0642
  800MOL0     C 7905  10.372   4.531   8.716  0.6560 -0.5102  0.1040
  800MOL0     C 7906  10.471   4.628   8.779  0.0079  0.5614  0.3347
  800MOL0     C 7907  10.606   4.576   8.814 -0.0096 -0.2423 -0.6854
  800MOL0     C 7908  10.664   4.644   8.946 -0.0416  0.2163  0.9117
  800MOL0    Cl 7909  10.829   4.592   8.965  0.1498  0.2470  0.4004
  800MOL0     C 7910   9.931   4.153   8.516  1.0846 -0.2512 -0.1715
  800MOL0     C 7911   9.792   4.131   8.536  0.2241  0.0113  0.2894
  800MOL0     O 7912   9.529   4.283   8.545 -0.1644  0.2098 -0.6582
  800MOL0     C 7913   9.319   4.131   8.312  0.2532 -1.0577 -0.5062
  800MOL0     C 7914   9.184   4.128   8.276  0.8469  0.0063  0.2709
  800MOL0     N 7915   9.108   4.468   7.931 -0.2933  0.3613 -0.3316
  800MOL0     N 7916   9.118   4.588   7.882  0.3391 -0.0289 -0.6817
  800MOL0     C 7917   8.300   4.676   6.951 -0.3363 -0.6762 -0.8181
  800MOL0     C 7918   8.204   4.658   6.847 -0.3798 -0.3388 -0.4554
  800MOL0     C 7919   7.791   4.626   6.666  0.4270  0.8860 -0.6627
  800MOL0     C 7920   7.668   4.613   6.733  0.7160  0.6018 -0.6113
  800MOL0     C 7921   7.549   4.607   6.659 -0.1547  0.7602 -0.0561
  800MOL0     C 7922   7.561   4.597   6.514  0.4255  0.2006 -0.6453
  800MOL0     O 7923   7.461   4.552   6.432  0.0114 -0.9570 -0.0682
  800MOL0     C 7924   7.325   4.544   6.482 -0.6327 -0.9639 -0.9071
  800MOL0     C 7925   7.211   4.604   6.393 -0.4923  0.2252 -0.9483
  800MOL0     C 7926   7.245   4.744   6.351  0.1797 -0.1223 -0.4727
  800MOL0     C 7927   7.116   4.816   6.331 -0.3014 -0.4996 -0.5697
  800MOL0     C 7928   7.042   4.785   6.203  0.0157 -0.4144 -0.5515
  800MOL0     C 7929   6.966   4.752   6.113 -0.0594 -0.0362  0.2797
  800MOL0     C 7930   7.688   4.604   6.455 -0.3146 -0.0773 -0.6621
  800MOL0     C 7931   7.802   4.617   6.525 -0.1243 -0.5277  0.4933
  800MOL0     C 7932   7.926   4.600   6.446 -1.1291  0.0255 -0.0204
  800MOL0     H 7933   8.005   4.912   6.906 -1.5547 -1.1945  0.1168
  800MOL0     H 7934   8.158   4.950   7.084 -1.3104 -0.0077  0.2531
  800MOL0     H 7935   8.269   4.936   7.281  0.2779 -0.0896  0.0478
  800MOL0     H 7936   8.197   4.778   7.265 -2.4707  3.5201  0.1062
  800MOL0     H 7937   8.385   4.672   7.412 -2.8315 -0.1554  2.2551
  800MOL0     H 7938   8.306   4.805   7.497 -0.0424  1.0649  0.1353
  800MOL0     H 7939   8.448   4.937   7.504  2.7391  0.4774 -0.2016
  800MOL0     H 7940   8.528   4.902   7.351 -2.7229  1.1411 -0.6902
  800MOL0     H 7941   8.527   4.734   7.605 -0.3602 -0.9410 -0.7040
  800MOL0     H 7942   8.628   4.687   7.462  0.4394  0.0319  0.3506
  800MOL0     H 7943   8.761   4.878   7.490  1.2079 -0.6748  0.2075
  800MOL0     H 7944   8.653   4.940   7.625  0.8066 -0.4245  1.3081
  800MOL0     H 7945   8.732   4.753   7.767 -1.9401  1.1388 -1.1165
  800MOL0     H 7946   8.783   4.669   7.623 -0.0465  1.0077 -0.9409
  800MOL0     H 7947   8.937   4.857   7.796  2.4362  2.3738 -1.5665
  800MOL0     H 7948   8.949   4.894   7.619 -0.0469 -0.0178 -0.5843
  800MOL0     H 7949   9.034   4.657   7.589  8.0198 -4.4201  1.1879
  800MOL0     H 7950   9.126   4.741   7.701  0.1268 -2.1481  3.0375
  800MOL0     H 7951   8.891   4.446   7.683  3.4564 -2.1904 -1.4939
  800MOL0     H 7952   8.957   4.212   7.790  1.2651  3.4742 -2.0892
  800MOL0     H 7953   9.066   4.205   7.923 -0.4011  0.0186  0.8270
  800MOL0     H 7954   8.783   4.327   7.946 -0.1905  0.7769  1.8006
  800MOL0     H 7955   8.794   4.158   7.949 -0.9509  0.8792 -0.9629
  800MOL0     H 7956   8.795   4.321   8.156 -2.0609 -0.0839 -5.2313
  800MOL0     H 7957   8.963   4.352   8.140 -1.4876  1.1288  1.4910
  800MOL0     H 7958   8.955   4.069   8.119 -2.1081  0.0510 -2.7865
  800MOL0     H 7959   8.807   4.081   8.185  0.1459 -0.0142 -3.8244
  800MOL0     H 7960   9.022   4.248   8.531 -0.0393  1.8744 -0.5079
  800MOL0     H 7961   9.269   4.313   8.592 -1.7009  3.0671 -2.0643
  800MOL0     H 7962   9.714   4.139   8.198  2.2504 -1.3740 -2.0236
  800MOL0     H 7963   9.952   4.196   8.181 -0.4701 -0.5592  0.7590
  800MOL0     H 7964  10.207   4.250   8.212 -1.2192 -0.5144 -0.1963
  800MOL0     H 7965  10.122   4.367   8.307 -0.3262 -0.1833 -2.6188
  800MOL0     H 7966  10.388   4.240   8.377 -0.3151 -1.4391  0.9967
  800MOL0     H 7967  10.371   4.390   8.306 -1.3457 -1.2583 -2.2244
  800MOL0     H 7968  10.227   4.478   8.479  0.2460  0.7761  1.4487
  800MOL0     H 7969  10.263   4.333   8.583  4.5012 -1.2163  0.7370
  800MOL0     H 7970  10.465   4.550   8.509  0.3412 -0.0955 -0.8373
  800MOL0     H 7971  10.499   4.411   8.598 -0.0453 -1.0234  0.5208
  800MOL0     H 7972  10.365   4.449   8.788  4.3703 -0.3377  0.8594
  800MOL0     H 7973  10.271   4.573   8.710  0.2806 -1.1715  1.5100
  800MOL0     H 7974  10.487   4.709   8.706  1.6511 -2.1902 -2.6086
  800MOL0     H 7975  10.425   4.663   8.871 -0.3325  0.7597  0.0932
  800MOL0     H 7976  10.676   4.591   8.731  3.1614 -0.7917  1.6875
  800MOL0     H 7977  10.588   4.470   8.831 -0.0579 -0.4822 -2.1137
  800MOL0     H 7978  10.655   4.753   8.935 -0.0760  0.0629 -0.9062
  800MOL0     H 7979  10.602   4.608   9.029 -0.4420 -2.2309 -0.3663
  800MOL0     H 7980  10.004   4.155   8.597 -0.5438  1.1301  1.3596
  800MOL0     H 7981   9.760   4.113   8.638 -0.9940  0.2531 -0.0381
  800MOL0     H 7982   9.394   4.091   8.245  0.0086 -1.8514 -0.3225
  800MOL0     H 7983   9.153   4.083   8.182  1.7685 -0.3491  0.1242
  800MOL0     H 7984   8.387   4.612   6.959  0.4640  0.6653  2.5432
  800MOL0     H 7985   8.214   4.578   6.774  0.6369 -0.4854 -0.1707
  800MOL0     H 7986   7.665   4.589   6.838 -0.5555 -0.5472 -0.8799
  800MOL0     H 7987   7.453   4.592   6.708  1.0151  0.7075  2.3844
  800MOL0     H 7988   7.308   4.594   6.578  0.2155 -2.1627 -0.0958
  800MOL0     H 7989   7.294   4.441   6.500  0.7049 -1.0150  1.4660
  800MOL0     H 7990   7.122   4.603   6.457  0.4235 -0.8847  0.3864
  800MOL0     H 7991   7.192   4.540   6.306  1.2736 -0.6187 -0.7581
  800MOL0     H 7992   7.316   4.744   6.268 -1.5167  2.6547 -2.0755
  800MOL0     H 7993   7.296   4.792   6.435  0.9174  0.1577 -1.0691
  800MOL0     H 7994   7.059   4.783   6.418  1.2150 -2.0244 -0.1093
  800MOL0     H 7995   7.139   4.923   6.343  3.9208 -1.1821 -1.1359
  800MOL0     H 7996   6.900   4.708   6.042  0.9857 -1.3639  0.0910
  800MOL0     H 7997   7.701   4.584   6.349  1.0873  0.3858 -0.6006
  800MOL0     H 7998   8.002   4.537   6.493  0.1306  0.5364 -1.2791
  800MOL0     H 7999   7.900   4.556   6.350  1.8285 -0.6586 -0.5926
  800MOL0     H 8000   7.971   4.696   6.419  0.4291 -0.6219  0.1788
  801MOL0     O 8001  11.257   5.465   1.404  0.6343  0.1203  0.4923
  801MOL0     C 8002  11.253   5.429   1.285 -0.9477  0.4433  0.0843
  801MOL0     O 8003  11.351   5.369   1.219 -0.0959 -0.1721 -0.0253
  801MOL0     C 8004  11.487   5.366   1.250 -0.0231 -0.0044  0.6100
  801MOL0     C 8005  11.557   5.464   1.305 -0.4336 -0.1374 -0.8090
  801MOL0     C 8006  11.691   5.446   1.349  0.5234 -0.6952  0.3962
  801MOL0     C 8007  11.761   5.329   1.302  0.0057 -0.1809  0.2863
  801MOL0     O 8008  11.892   5.313   1.321 -0.3483  0.4502  0.3526
  801MOL0     C 8009  11.973   5.427   1.350 -0.1634  0.1851 -0.3632
  801MOL0     C 8010  12.114   5.379   1.363  0.4059 -1.4071 -0.1374
  801MOL0     C 8011  12.182   5.440   1.490  0.7441  1.1299 -0.1034
  801MOL0     C 8012  12.331   5.404   1.494  0.0799 -0.2902  0.0984
  801MOL0     C 8013  12.409   5.424   1.618 -0.0874 -0.2064  1.2321
  801MOL0     C 8014  12.373   5.551   1.698 -0.4979  0.5097  0.7800
  801MOL0     C 8015  12.475   5.579   1.817 -0.0084  0.5703 -0.0124
  801MOL0     C 8016  12.432   5.683   1.903 -0.3530  0.1634  0.2584
  801MOL0     N 8017  12.533   5.716   2.006 -0.0813 -0.8557 -0.1842
  801MOL0     C 8018  12.543   5.669   2.137 -0.4697  0.5997 -0.0037
  801MOL0     C 8019  12.659   5.726   2.187 -0.4710  0.6693 -0.6207
  801MOL0     C 8020  12.724   5.726   2.320 -0.2836 -0.3756 -0.0689
  801MOL0     C 8021  12.627   5.779   2.417 -0.4337  0.6047 -0.2742
  801MOL0     C 8022  12.695   5.792   2.549  0.9415  0.3693 -0.2197
  801MOL0     C 8023  12.703   5.660   2.621 -0.0395 -0.5772  0.0605
  801MOL0     O 8024  12.757   5.681   2.752 -0.0136 -0.8827 -0.1219
  801MOL0     C 8025  12.666   5.707   2.847  0.5306  0.2720 -0.3704
  801MOL0     C 8026  12.640   5.830   2.899 -0.2466  0.2415  0.9485
  801MOL0     C 8027  12.564   5.855   3.013  0.5856  0.0548  0.2115
  801MOL0     C 8028  12.488   5.748   3.070 -0.2403  0.3831  0.3997
  801MOL0     C 8029  12.396   5.770   3.185  0.6053  0.2458  0.3619
  801MOL0     O 8030  12.284   5.693   3.182 -0.5552  0.3840 -0.9408
  801MOL0     C 8031  12.196   5.711   3.287 -0.0765 -0.2902  0.0589
  801MOL0     C 8032  12.231   5.724   3.425  0.0229 -0.4586  0.3809
  801MOL0     C 8033  12.129   5.750   3.524 -0.4558  0.3954  0.6223
  801MOL0     C 8034  11.993   5.752   3.487 -0.2719 -0.2222  1.2152
  801MOL0     O 8035  11.888   5.776   3.570 -0.1158 -0.3074 -0.4522
  801MOL0     C 8036  11.934   5.811   3.708  0.4467 -0.2903  0.1154
  801MOL0     C 8037  11.810   5.826   3.795  0.1071 -0.2506 -0.8732
  801MOL0     C 8038  11.835   5.851   3.947 -0.0045  0.9623  1.0158
  801MOL0     C 8039  11.913   5.976   3.975  0.5035  0.5100  0.2908
  801MOL0     C 8040  11.962   5.982   4.119  0.8926  0.3316  0.3656
  801MOL0     C 8041  11.832   5.989   4.204 -0.1269  0.5570  0.2148
  801MOL0     C 8042  11.874   6.011   4.353  0.3698 -0.0554 -1.0563
  801MOL0     C 8043  11.754   5.992   4.460  0.0430 -0.1355  0.2929
  801MOL0    Cl 8044  11.618   6.113   4.454  0.3510  0.1059  0.2013
  801MOL0     C 8045  11.962   5.723   3.352 -0.5809 -0.5273  0.2836
  801MOL0     C 8046  12.064   5.713   3.262 -0.5131  0.7400  0.3352
  801MOL0     O 8047  12.429   5.861   3.261  0.7340 -0.3043  0.9749
  801MOL0     C 8048  12.508   5.621   3.013 -0.1736  0.6023 -0.9329
  801MOL0     C 8049  12.590   5.600   2.902 -0.2854  0.5862  0.3108
  801MOL0     N 8050  12.711   5.806   2.091  0.2125  0.2329  1.8097
  801MOL0     N 8051  12.648   5.792   1.983 -0.0902  0.1526  0.0877
  801MOL0     C 8052  11.692   5.226   1.236 -0.5612  0.4458 -0.0303
  801MOL0     C 8053  11.557   5.246   1.215  0.9878 -0.4020  0.0804
  801MOL0     C 8054  11.118   5.433   1.216  0.0281  0.2055 -0.9516
  801MOL0     C 8055  11.099   5.351   1.107 -0.5811 -0.1985  0.4514
  801MOL0     C 8056  10.976   5.340   1.034  0.5905  0.1321  0.4948
  801MOL0     C 8057  10.865   5.396   1.081  0.0810  0.8552  0.8898
  801MOL0     O 8058  10.749   5.363   1.014 -0.0851  0.0401 -0.6792
  801MOL0     C 8059  10.621   5.409   1.051  0.2023  0.7063 -0.9393
  801MOL0     C 8060  10.555   5.305   1.152 -0.1349  1.1426 -1.0609
  801MOL0     C 8061  10.544   5.168   1.089  0.8871 -0.6123 -0.2579
  801MOL0     C 8062  10.463   5.178   0.967 -0.2562 -0.2921  0.1208
  801MOL0     C 8063  10.394   5.057   0.943 -0.2072  0.0166  0.4911
  801MOL0     C 8064  10.324   4.957   0.932  0.1695 -0.3544 -0.5965
  801MOL0     C 8065  10.869   5.476   1.199 -0.4018  0.0378  0.0935
  801MOL0     C 8066  11.001   5.493   1.267  0.1623  1.1103  0.6529
  801MOL0     C 8067  11.006   5.593   1.382 -0.1834 -0.7909  0.5798
  801MOL0     H 8068  11.523   5.566   1.314  2.7622  1.1390 -1.6162
  801MOL0     H 8069  11.744   5.535   1.383 -0.1779 -0.3491  0.6150
  801MOL0     H 8070  11.969   5.505   1.273 -0.0337 -2.9532 -3.8448
  801MOL0     H 8071  11.949   5.471   1.447 -0.3415 -1.0001  0.1583
  801MOL0     H 8072  12.171   5.421   1.280  0.7829  2.0312  1.6858
  801MOL0     H 8073  12.120   5.270   1.365 -0.1776 -1.4381  1.3924
  801MOL0     H 8074  12.125   5.405   1.576 -0.3431  1.1850 -0.7773
  801MOL0     H 8075  12.172   5.549   1.494  1.0658  1.1718 -0.3751
  801MOL0     H 8076  12.344   5.296   1.482  1.4382 -0.2905  1.2189
  801MOL0     H 8077  12.379   5.457   1.411 -1.0764 -0.3497 -0.6215
  801MOL0     H 8078  12.390   5.340   1.686  3.7276 -2.1550  0.1725
  801MOL0     H 8079  12.513   5.413   1.584  0.1293 -3.8393  2.5735
  801MOL0     H 8080  12.379   5.635   1.629 -2.1955 -1.0799 -1.4608
  801MOL0     H 8081  12.272   5.539   1.738 -0.9114  1.3723  0.0136
  801MOL0     H 8082  12.567   5.604   1.765 -2.0125  1.6172 -3.3740
  801MOL0     H 8083  12.496   5.489   1.875 -0.0653  1.7183  1.8673
  801MOL0     H 8084  12.404   5.775   1.850  1.5383 -0.5012 -2.0253
  801MOL0     H 8085  12.346   5.642   1.958  0.3727 -0.7544  0.7192
  801MOL0     H 8086  12.486   5.584   2.176 -1.4450  1.0708 -0.3550
  801MOL0     H 8087  12.754   5.625   2.351  1.0423 -0.8343 -2.5205
  801MOL0     H 8088  12.803   5.801   2.308 -1.2143  0.5698 -0.4818
  801MOL0     H 8089  12.606   5.878   2.377  0.2185  0.0468 -2.0772
  801MOL0     H 8090  12.540   5.714   2.431  0.2741 -0.5877 -1.2253
  801MOL0     H 8091  12.633   5.858   2.609 -0.8580 -0.9054 -0.5891
  801MOL0     H 8092  12.797   5.832   2.555  0.7904  0.6428  3.9751
  801MOL0     H 8093  12.768   5.599   2.558  0.6077  2.2902 -2.3161
  801MOL0     H 8094  12.604   5.616   2.626 -1.3448  2.1904  0.7388
  801MOL0     H 8095  12.702   5.908   2.855  1.2915 -0.9345  0.9558
  801MOL0     H 8096  12.550   5.952   3.061 -1.2816  0.2521 -0.6407
  801MOL0     H 8097  12.331   5.703   3.460  0.7221  0.0394 -1.2021
  801MOL0     H 8098  12.166   5.766   3.625 -0.8606  0.3644  0.7798
  801MOL0     H 8099  11.994   5.725   3.739  2.8438  1.5328  0.8824
  801MOL0     H 8100  11.989   5.906   3.718 -0.3508 -0.0402  2.9735
  801MOL0     H 8101  11.737   5.898   3.757  0.7921  3.0241  3.2287
  801MOL0     H 8102  11.755   5.731   3.794  0.1969 -0.3400  0.4496
  801MOL0     H 8103  11.739   5.852   4.000  0.6659 -1.0322  2.3929
  801MOL0     H 8104  11.890   5.767   3.990  0.2976  1.5721  1.8722
  801MOL0     H 8105  11.864   6.068   3.942 -0.6063  0.1495  0.8654
  801MOL0     H 8106  12.007   5.966   3.920 -0.2501 -0.5617 -0.8740
  801MOL0     H 8107  12.022   6.073   4.128 -0.1017  0.8770  1.8933
  801MOL0     H 8108  12.024   5.897   4.151 -0.3742 -0.3716  1.0343
  801MOL0     H 8109  11.756   6.057   4.165 -2.3886 -1.7055  0.3663
  801MOL0     H 8110  11.782   5.891   4.208 -0.2736  0.6680  1.1833
  801MOL0     H 8111  11.935   6.100   4.371 -1.9362  1.7428 -1.7072
  801MOL0     H 8112  11.942   5.926   4.369  3.6152  2.4455 -0.6127
  801MOL0     H 8113  11.702   5.896   4.451 -1.8205  0.8587 -0.0059
  801MOL0     H 8114  11.802   5.994   4.559  0.1878 -1.7316  0.2869
  801MOL0     H 8115  11.860   5.699   3.323 -1.1209  1.7152  0.1802
  801MOL0     H 8116  12.040   5.678   3.162  0.0477 -2.1242  1.1135
  801MOL0     H 8117  12.444   5.539   3.045  0.7071 -1.4174 -3.9935
  801MOL0     H 8118  12.605   5.502   2.860  0.1439  0.9142 -0.3147
  801MOL0     H 8119  11.738   5.136   1.198 -1.6090 -0.7403  1.4037
  801MOL0     H 8120  11.495   5.172   1.166  0.8407  1.0261 -2.0209
  801MOL0     H 8121  11.188   5.315   1.056  0.3062  3.7546 -1.1135
  801MOL0     H 8122  10.975   5.274   0.948  1.5490  0.5516  0.1530
  801MOL0     H 8123  10.553   5.417   0.966  1.5381  2.9564 -1.8782
  801MOL0     H 8124  10.623   5.507   1.099 -0.1576 -0.6062  1.9460
  801MOL0     H 8125  10.451   5.323   1.179  0.0969 -0.0045  0.7257
  801MOL0     H 8126  10.615   5.292   1.242 -0.8113 -2.1073 -0.9519
  801MOL0     H 8127  10.506   5.103   1.169  0.6945 -0.1970 -0.0124
  801MOL0     H 8128  10.642   5.136   1.050  0.9466 -0.1118 -0.5206
  801MOL0     H 8129  10.386   5.255   0.974 -1.4035 -1.3528 -0.5253
  801MOL0     H 8130  10.530   5.193   0.882 -0.8179  1.7246 -0.0042
  801MOL0     H 8131  10.258   4.876   0.909 -0.5302  0.6682 -2.3745
  801MOL0     H 8132  10.777   5.508   1.248 -1.2342 -1.6683 -0.2683
  801MOL0     H 8133  11.046   5.539   1.469 -0.6880 -0.3050  1.1243
  801MOL0     H 8134  11.069   5.679   1.359 -1.2659 -0.3622 -0.9567
  801MOL0     H 8135  10.911   5.641   1.409  0.8883  1.2030  1.0632
  802MOL0     O 8136   7.917  10.488  11.310  0.1061 -0.6316 -0.9245
  802MOL0     C 8137   8.025  10.433  11.330  0.5630  0.3550  0.0315
  802MOL0     O 8138   8.042  10.305  11.313 -0.2433  0.8257 -0.2259
  802MOL0     C 8139   7.936  10.223  11.355 -0.1188  0.3011 -0.6969
  802MOL0     C 8140   7.838  10.175  11.266 -0.5767 -0.7965  0.0546
  802MOL0     C 8141   7.730  10.107  11.324 -0.4539 -0.4939  1.0693
  802MOL0     C 8142   7.723  10.083  11.464  0.3719  0.3010 -0.3679
  802MOL0     O 8143   7.625   9.997  11.522 -0.3402 -0.3033  0.2286
  802MOL0     C 8144   7.520   9.943  11.437  0.3307 -0.5743 -0.3302
  802MOL0     C 8145   7.407  10.048  11.400  0.0304  0.0344 -0.3919
  802MOL0     C 8146   7.385  10.138  11.518  0.8374 -0.8382  0.4207
  802MOL0     C 8147   7.283  10.076  11.626  0.2001  0.3580 -0.4018
  802MOL0     C 8148   7.140  10.111  11.603 -0.4129 -0.2925 -0.2960
  802MOL0     C 8149   7.052  10.025  11.695 -0.4817 -0.9903 -0.2435
  802MOL0     C 8150   6.905  10.036  11.679  0.4913  0.2181  0.1069
  802MOL0     C 8151   6.841   9.966  11.556 -0.7124 -0.1132 -0.4708
  802MOL0     N 8152   6.697   9.996  11.545  0.0553  0.1220 -0.8411
  802MOL0     C 8153   6.584   9.931  11.595 -0.2878 -0.6198 -0.0151
  802MOL0     C 8154   6.483  10.014  11.575  0.2695 -0.0557 -0.5426
  802MOL0     C 8155   6.342   9.988  11.630 -0.1282 -0.2338 -0.6976
  802MOL0     C 8156   6.232  10.058  11.550 -0.4121 -1.1202 -0.6843
  802MOL0     C 8157   6.214   9.995  11.417  0.0791  0.2365 -0.3765
  802MOL0     C 8158   6.107  10.066  11.329  0.3590 -0.4168  0.6127
  802MOL0     O 8159   5.980  10.078  11.400  0.0683  0.1873 -0.4197
  802MOL0     C 8160   5.872  10.097  11.314  0.9671  0.9538 -0.9314
  802MOL0     C 8161   5.860  10.209  11.227  0.1489  0.2039 -0.1279
  802MOL0     C 8162   5.746  10.214  11.144  0.5291 -0.7024 -0.8628
  802MOL0     C 8163   5.647  10.115  11.145  0.2735 -1.1425 -0.2083
  802MOL0     C 8164   5.535  10.134  11.050 -0.1685 -0.5147  0.2021
  802MOL0     O 8165   5.439  10.037  11.037 -0.4629 -0.1661 -0.0942
  802MOL0     C 8166   5.336  10.042  10.947 -0.5066  0.4001 -0.8154
  802MOL0     C 8167   5.307  10.125  10.837  0.3327  0.5152 -0.1613
  802MOL0     C 8168   5.185  10.111  10.768 -0.8571  0.2189  0.4852
  802MOL0     C 8169   5.102  10.002  10.791  0.4824 -0.3926  0.9348
  802MOL0     O 8170   4.985   9.998  10.718 -0.2545  0.8806 -0.3747
  802MOL0     C 8171   4.895   9.891  10.748 -0.4805 -0.3667  0.0565
  802MOL0     C 8172   4.787   9.892  10.649 -0.0391  0.0657  0.5744
  802MOL0     C 8173   4.713  10.024  10.631 -0.2432 -1.1406  0.0957
  802MOL0     C 8174   4.571  10.018  10.573  0.1431 -0.2468 -0.3403
  802MOL0     C 8175   4.498  10.148  10.551  0.0484 -0.5825 -0.2604
  802MOL0     C 8176   4.343  10.132  10.547  0.0448 -0.0001  0.1544
  802MOL0     C 8177   4.284  10.061  10.425  0.4960  0.2367 -0.3607
  802MOL0     C 8178   4.267   9.915  10.440  0.3852  0.0372 -0.1074
  802MOL0    Cl 8179   4.139   9.875  10.557  0.0228 -0.5366  0.0252
  802MOL0     C 8180   5.139   9.911  10.892  0.1883 -0.0989  0.6435
  802MOL0     C 8181   5.246   9.938  10.968 -0.0365  0.5215 -0.3838
  802MOL0     O 8182   5.538  10.247  10.992  0.6243  1.0254  0.0226
  802MOL0     C 8183   5.653  10.007  11.233  0.2389 -0.0181  1.2447
  802MOL0     C 8184   5.768   9.996  11.313  0.5979  0.8110  0.5020
  802MOL0     N 8185   6.531  10.129  11.519  0.2491  0.2177  0.7522
  802MOL0     N 8186   6.657  10.121  11.505  0.1223 -0.1523 -0.5122
  802MOL0     C 8187   7.823  10.132  11.551  0.1920 -0.3394  0.6668
  802MOL0     C 8188   7.932  10.200  11.494  0.0063  0.4044 -0.0785
  802MOL0     C 8189   8.140  10.521  11.362  0.7644  0.6964 -0.4049
  802MOL0     C 8190   8.266  10.457  11.375 -0.8709 -0.6203  0.3796
  802MOL0     C 8191   8.375  10.532  11.405 -0.4437 -0.3192  0.7965
  802MOL0     C 8192   8.376  10.668  11.434 -0.3029  1.2124 -0.3949
  802MOL0     O 8193   8.495  10.718  11.479 -0.7701 -1.0545  0.3267
  802MOL0     C 8194   8.505  10.859  11.502  0.1147  1.0209 -0.0336
  802MOL0     C 8195   8.658  10.892  11.523 -0.3658  0.4628 -0.8137
  802MOL0     C 8196   8.767  10.793  11.466 -0.0482  0.4109 -0.5863
  802MOL0     C 8197   8.912  10.847  11.466  0.4494  0.2556  0.4621
  802MOL0     C 8198   8.953  10.893  11.597  0.0583 -0.3344 -1.0959
  802MOL0     C 8199   9.005  10.919  11.704  1.2453 -0.9920  1.0615
  802MOL0     C 8200   8.249  10.732  11.422 -0.4964  0.1657 -0.5734
  802MOL0     C 8201   8.135  10.665  11.389  0.0366 -0.4510 -0.0096
  802MOL0     C 8202   8.010  10.745  11.395 -0.3505  0.7061  1.3969
  802MOL0     H 8203   7.854  10.214  11.166  2.2220 -1.2411  0.2592
  802MOL0     H 8204   7.650  10.069  11.262  0.6669  0.5838 -1.1280
  802MOL0     H 8205   7.558   9.888  11.351  0.5516 -1.7252  0.4829
  802MOL0     H 8206   7.470   9.865  11.494  1.4467 -0.6076  0.6515
  802MOL0     H 8207   7.316   9.991  11.380 -1.0585  0.5484  2.5650
  802MOL0     H 8208   7.433  10.112  11.315  2.6910 -0.1402  0.2006
  802MOL0     H 8209   7.336  10.229  11.482  1.7014  0.1629  1.7014
  802MOL0     H 8210   7.472  10.152  11.583 -1.2117 -0.0625  3.2013
  802MOL0     H 8211   7.290   9.967  11.624 -0.9235  0.2527  0.2674
  802MOL0     H 8212   7.296  10.108  11.730 -0.7041  1.3340 -0.5771
  802MOL0     H 8213   7.127  10.219  11.617 -0.2987 -0.4571  1.2455
  802MOL0     H 8214   7.115  10.092  11.498  0.7699 -1.2436 -0.4324
  802MOL0     H 8215   7.085   9.921  11.694  0.6586 -0.6881  1.2855
  802MOL0     H 8216   7.072  10.054  11.799  1.5283 -3.4068  0.1371
  802MOL0     H 8217   6.868  10.139  11.685  0.2551  0.2205 -1.2134
  802MOL0     H 8218   6.867   9.981  11.766 -0.2697  1.3507  0.5163
  802MOL0     H 8219   6.898   9.999  11.468  1.7021  0.2015  1.1257
  802MOL0     H 8220   6.853   9.857  11.555 -0.9874 -0.1463 -0.0035
  802MOL0     H 8221   6.581   9.842  11.658  0.9684 -0.6295  0.0680
  802MOL0     H 8222   6.310   9.884  11.638  1.5913 -0.6726  3.2025
  802MOL0     H 8223   6.347  10.033  11.730  1.9698  3.4055 -2.2473
  802MOL0     H 8224   6.139  10.046  11.606 -0.2252 -0.9082 -0.3274
  802MOL0     H 8225   6.260  10.164  11.545  0.3171 -1.2667  0.1218
  802MOL0     H 8226   6.195   9.891  11.442  1.7286  0.1586  0.6677
  802MOL0     H 8227   6.302   9.995  11.351 -2.1012  0.2114 -3.4806
  802MOL0     H 8228   6.091  10.003  11.241  0.6570  2.3033 -1.5435
  802MOL0     H 8229   6.139  10.162  11.287  1.0754 -1.9864 -2.7638
  802MOL0     H 8230   5.931  10.290  11.216 -0.7543  1.0583  0.1389
  802MOL0     H 8231   5.745  10.301  11.079 -1.9150 -1.1982 -1.6168
  802MOL0     H 8232   5.375  10.204  10.807  2.0605 -1.5919 -2.1810
  802MOL0     H 8233   5.145  10.181  10.695 -3.3039  0.7285  2.1465
  802MOL0     H 8234   4.950   9.797  10.739 -0.8203 -0.6394  0.7623
  802MOL0     H 8235   4.850   9.916  10.845 -2.1403  2.1715 -1.2577
  802MOL0     H 8236   4.830   9.863  10.552 -1.2485  3.0219 -0.9848
  802MOL0     H 8237   4.715   9.814  10.675  1.2370 -1.3318  0.0372
  802MOL0     H 8238   4.720  10.085  10.721 -1.4231 -1.0808  0.1583
  802MOL0     H 8239   4.772  10.082  10.559 -0.8423 -0.2666  0.2930
  802MOL0     H 8240   4.503   9.950  10.626 -0.0791  0.4490  0.2846
  802MOL0     H 8241   4.562   9.966  10.477 -2.0969  0.3632 -0.5342
  802MOL0     H 8242   4.540  10.202  10.465  2.9893 -4.2474 -1.3965
  802MOL0     H 8243   4.524  10.221  10.629 -0.9872 -0.7254  0.2324
  802MOL0     H 8244   4.311  10.064  10.626 -0.9871 -1.3296 -1.3369
  802MOL0     H 8245   4.292  10.228  10.549 -1.7007 -0.8841  1.3978
  802MOL0     H 8246   4.343  10.071  10.333  0.8273  0.0233 -0.1765
  802MOL0     H 8247   4.188  10.111  10.409 -0.1409 -0.4676  1.0691
  802MOL0     H 8248   4.245   9.872  10.342  0.2843 -0.8124  0.2862
  802MOL0     H 8249   4.359   9.870  10.477  0.4876 -2.0974 -2.6890
  802MOL0     H 8250   5.077   9.826  10.918 -1.2161  0.5479 -0.4400
  802MOL0     H 8251   5.272   9.867  11.045  1.4516  0.7509 -0.6403
  802MOL0     H 8252   5.565   9.944  11.237 -0.6457  1.1129  0.3869
  802MOL0     H 8253   5.768   9.920  11.390 -0.6426  1.2118  0.9330
  802MOL0     H 8254   7.807  10.118  11.657 -0.8716 -1.6875  0.3551
  802MOL0     H 8255   8.008  10.244  11.558  1.3246  0.2514 -1.4748
  802MOL0     H 8256   8.272  10.348  11.373  1.2920 -0.5698  1.1871
  802MOL0     H 8257   8.473  10.487  11.408  0.6309  1.6698 -1.4069
  802MOL0     H 8258   8.439  10.891  11.583  0.9285  1.7194  0.3679
  802MOL0     H 8259   8.472  10.899  11.406  1.1148 -1.9505 -1.7541
  802MOL0     H 8260   8.659  10.895  11.632 -0.4407 -0.5378 -0.7794
  802MOL0     H 8261   8.681  10.995  11.493  2.0988  0.1576 -0.2208
  802MOL0     H 8262   8.741  10.792  11.360 -0.2625  1.0776 -0.5496
  802MOL0     H 8263   8.760  10.694  11.512  3.0520  0.9240  1.2235
  802MOL0     H 8264   8.980  10.771  11.427 -1.4831 -1.3212 -0.0292
  802MOL0     H 8265   8.905  10.938  11.406 -0.3106  0.2083  0.4654
  802MOL0     H 8266   9.058  10.955  11.789 -0.0172  5.0187 -0.2160
  802MOL0     H 8267   8.249  10.836  11.453  0.9451 -0.5776  2.3135
  802MOL0     H 8268   7.960  10.740  11.298  0.7464  1.6797  0.7731
  802MOL0     H 8269   7.942  10.705  11.471 -0.4459 -0.5181  0.6946
  802MOL0     H 8270   8.031  10.849  11.420 -0.9825  1.8012 -2.0808
  803MOL0     O 8271   9.352   6.279   2.458  0.8186 -0.3524  0.2491
  803MOL0     C 8272   9.424   6.323   2.546  0.4064  0.0825 -1.0627
  803MOL0     O 8273   9.531   6.262   2.597  0.3771 -0.3865 -0.0026
  803MOL0     C 8274   9.585   6.155   2.547  0.4778  0.3397 -0.3939
  803MOL0     C 8275   9.572   6.110   2.413 -0.0973 -0.4678 -1.8790
  803MOL0     C 8276   9.634   5.994   2.367  0.3374 -0.7225  0.2448
  803MOL0     C 8277   9.705   5.917   2.452 -0.5998  1.0257  0.3381
  803MOL0     O 8278   9.775   5.807   2.393  0.1995  0.1915  0.4501
  803MOL0     C 8279   9.806   5.702   2.483  0.7398  0.4881 -0.1467
  803MOL0     C 8280   9.840   5.579   2.394 -0.2103 -0.4061 -0.0958
  803MOL0     C 8281   9.852   5.448   2.474 -0.3776 -0.8240 -1.0283
  803MOL0     C 8282   9.896   5.333   2.378  0.0278  0.3291  0.1473
  803MOL0     C 8283   9.945   5.216   2.463  0.3335 -0.7535  0.5213
  803MOL0     C 8284  10.020   5.125   2.371  0.6462  0.4649  0.1242
  803MOL0     C 8285  10.060   4.986   2.439 -0.0049  0.1165 -0.4035
  803MOL0     C 8286  10.153   4.902   2.341  0.0222 -1.0884 -0.5938
  803MOL0     N 8287  10.229   4.799   2.424  0.1518  0.1579  0.1912
  803MOL0     C 8288  10.352   4.819   2.497 -0.5671 -0.0308  0.6970
  803MOL0     C 8289  10.380   4.704   2.552  0.2943  0.5025 -0.9712
  803MOL0     C 8290  10.487   4.677   2.662 -0.6948  1.0862 -1.2094
  803MOL0     C 8291  10.627   4.646   2.600 -0.1895  1.3002 -0.2156
  803MOL0     C 8292  10.726   4.618   2.710 -0.3947  1.5268 -0.7952
  803MOL0     C 8293  10.870   4.594   2.649  0.6236 -0.7861 -0.1308
  803MOL0     O 8294  10.963   4.549   2.749 -0.2594 -0.5741 -0.6137
  803MOL0     C 8295  11.086   4.532   2.706 -0.3294 -0.3248 -0.9461
  803MOL0     C 8296  11.171   4.633   2.682 -0.6591  0.0614  0.2079
  803MOL0     C 8297  11.301   4.608   2.640 -0.1814  0.3064 -0.1780
  803MOL0     C 8298  11.348   4.479   2.615 -0.0209 -0.3091 -0.1792
  803MOL0     C 8299  11.480   4.450   2.575  0.0424  0.9045 -0.0951
  803MOL0     O 8300  11.586   4.515   2.636 -0.5166  0.3469 -0.3511
  803MOL0     C 8301  11.721   4.499   2.605  0.2749  0.3246 -0.2678
  803MOL0     C 8302  11.802   4.583   2.668  0.0042  0.5674 -0.6339
  803MOL0     C 8303  11.941   4.586   2.644  0.4667  0.0213 -0.0283
  803MOL0     C 8304  11.995   4.488   2.554 -1.4374 -0.4456 -0.1770
  803MOL0     O 8305  12.128   4.493   2.529  0.1030  0.4638  0.7215
  803MOL0     C 8306  12.179   4.629   2.498 -0.0666 -0.3689  0.0274
  803MOL0     C 8307  12.299   4.617   2.412 -0.1975  0.1438  0.3341
  803MOL0     C 8308  12.410   4.534   2.493  0.3877 -1.3165 -0.4425
  803MOL0     C 8309  12.546   4.604   2.464 -0.3679  1.1575  0.5387
  803MOL0     C 8310  12.658   4.541   2.552 -0.3825  0.5059  0.4058
  803MOL0     C 8311  12.795   4.593   2.510 -0.1435  0.0733 -0.5097
  803MOL0     C 8312  12.910   4.534   2.595  0.8677 -1.0374 -0.0882
  803MOL0     C 8313  13.042   4.591   2.539  0.0499 -0.4433 -0.4004
  803MOL0    Cl 8314  13.080   4.533   2.383  0.0467  0.2436  0.6601
  803MOL0     C 8315  11.917   4.394   2.501 -0.2818  0.0468 -0.5865
  803MOL0     C 8316  11.776   4.398   2.523 -0.0072 -0.0384 -0.7950
  803MOL0     O 8317  11.487   4.356   2.499  0.0707  0.1586 -0.4003
  803MOL0     C 8318  11.257   4.378   2.626 -0.6038 -0.1220 -0.2643
  803MOL0     C 8319  11.127   4.407   2.668  0.4952  0.5174  1.3372
  803MOL0     N 8320  10.264   4.620   2.526 -0.1975 -0.0385 -0.0560
  803MOL0     N 8321  10.179   4.675   2.451 -0.1520 -0.1327  0.1434
  803MOL0     C 8322   9.734   5.967   2.581  0.0421  0.7563  0.1181
  803MOL0     C 8323   9.675   6.084   2.631 -0.5940 -0.0888  0.2375
  803MOL0     C 8324   9.392   6.444   2.613 -0.2064 -0.0504 -1.1216
  803MOL0     C 8325   9.266   6.498   2.601  0.4452 -0.0014  0.6855
  803MOL0     C 8326   9.232   6.619   2.655 -0.2050  1.1013  0.0495
  803MOL0     C 8327   9.321   6.698   2.719 -0.7254  0.3852  0.6775
  803MOL0     O 8328   9.287   6.820   2.769 -0.2752  0.1612 -0.4062
  803MOL0     C 8329   9.231   6.906   2.669  1.0738  0.0870  0.9831
  803MOL0     C 8330   9.303   7.046   2.657  0.2935  0.5009 -1.7247
  803MOL0     C 8331   9.298   7.122   2.789  0.0506  0.5715  0.9939
  803MOL0     C 8332   9.419   7.218   2.789 -0.1262 -1.0014 -1.1490
  803MOL0     C 8333   9.547   7.140   2.790 -0.7318 -0.7461  0.3971
  803MOL0     C 8334   9.640   7.075   2.771 -0.5404 -0.0999 -0.6270
  803MOL0     C 8335   9.443   6.651   2.742 -0.4191 -0.0613 -0.7495
  803MOL0     C 8336   9.488   6.527   2.694  0.4091 -0.2124  0.2610
  803MOL0     C 8337   9.637   6.490   2.716  0.7946  0.0439  0.0264
  803MOL0     H 8338   9.529   6.175   2.337 -1.6961  1.2631  0.3820
  803MOL0     H 8339   9.612   5.954   2.268 -1.1987 -1.5538  0.8799
  803MOL0     H 8340   9.892   5.728   2.546  0.7007 -1.5923  0.8373
  803MOL0     H 8341   9.714   5.678   2.537  1.0083  2.2450  1.1903
  803MOL0     H 8342   9.934   5.599   2.341  0.2482 -2.9026 -0.3642
  803MOL0     H 8343   9.767   5.555   2.316  0.8198 -4.6346  0.0003
  803MOL0     H 8344   9.757   5.428   2.524 -0.8216 -0.9398 -1.8983
  803MOL0     H 8345   9.925   5.451   2.556  0.5178 -2.1825 -1.7306
  803MOL0     H 8346   9.812   5.310   2.312 -0.8603  1.3625  0.8724
  803MOL0     H 8347   9.971   5.366   2.305 -4.8845  2.0620 -4.8198
  803MOL0     H 8348  10.015   5.257   2.537 -0.8617  0.4973  1.0037
  803MOL0     H 8349   9.858   5.171   2.511 -1.8176  0.3008 -2.1533
  803MOL0     H 8350   9.969   5.103   2.277  2.9256  3.8168 -2.1214
  803MOL0     H 8351  10.106   5.178   2.331 -0.3223  1.7624 -0.3156
  803MOL0     H 8352   9.963   4.941   2.465  0.2646  0.5966  1.6307
  803MOL0     H 8353  10.117   4.998   2.532  2.6413 -0.4437 -1.8708
  803MOL0     H 8354  10.089   4.846   2.272 -1.1064 -1.9419  1.0692
  803MOL0     H 8355  10.224   4.968   2.290 -0.5389  0.1386  0.1427
  803MOL0     H 8356  10.423   4.898   2.518  0.7453 -1.7698  3.3322
  803MOL0     H 8357  10.497   4.753   2.740 -1.0234 -1.3896  1.4213
  803MOL0     H 8358  10.449   4.591   2.718 -1.3831 -0.3291 -3.6688
  803MOL0     H 8359  10.622   4.567   2.524  0.9991  1.6669 -0.7045
  803MOL0     H 8360  10.657   4.736   2.545 -0.9621  1.6735 -0.0377
  803MOL0     H 8361  10.708   4.521   2.758  0.8327  0.9441 -1.4495
  803MOL0     H 8362  10.723   4.694   2.788  0.4694  2.6030 -1.7649
  803MOL0     H 8363  10.898   4.685   2.595 -0.6992 -0.2079  0.1128
  803MOL0     H 8364  10.861   4.516   2.573 -2.2291  0.7695 -1.5197
  803MOL0     H 8365  11.139   4.736   2.680 -0.0504  0.3805  3.1976
  803MOL0     H 8366  11.358   4.693   2.605  2.5559 -1.8791 -1.4658
  803MOL0     H 8367  11.746   4.653   2.729 -3.1608  0.2118 -2.8860
  803MOL0     H 8368  12.005   4.644   2.710  0.8300  0.9489 -1.1488
  803MOL0     H 8369  12.107   4.691   2.443  0.4590  0.8093  0.6127
  803MOL0     H 8370  12.203   4.672   2.596  2.3414 -0.2318 -0.5712
  803MOL0     H 8371  12.277   4.574   2.314 -0.1884 -1.1786  0.8797
  803MOL0     H 8372  12.334   4.720   2.408  2.1974 -0.6304 -1.5156
  803MOL0     H 8373  12.380   4.522   2.597 -1.8861 -6.2772 -1.3653
  803MOL0     H 8374  12.394   4.432   2.456  1.3161 -1.3287 -0.8383
  803MOL0     H 8375  12.536   4.708   2.498  0.9599  1.2058  0.8249
  803MOL0     H 8376  12.574   4.603   2.358  1.2939 -0.0896  0.9453
  803MOL0     H 8377  12.650   4.432   2.548 -0.3875  0.5386 -0.7351
  803MOL0     H 8378  12.638   4.566   2.656 -4.4788 -0.5296  0.0260
  803MOL0     H 8379  12.816   4.576   2.404  1.8637  4.1402 -0.9506
  803MOL0     H 8380  12.810   4.700   2.528  2.6450 -0.8372  4.5064
  803MOL0     H 8381  12.914   4.425   2.599 -2.4112 -1.2243  1.2325
  803MOL0     H 8382  12.885   4.573   2.694  1.2635 -0.8431 -0.0632
  803MOL0     H 8383  13.052   4.699   2.536 -1.3446 -0.1850  1.9281
  803MOL0     H 8384  13.114   4.542   2.606 -1.0506 -1.0350  0.3786
  803MOL0     H 8385  11.967   4.317   2.444 -0.5267 -1.2699  0.9083
  803MOL0     H 8386  11.715   4.325   2.470 -1.1843  0.6006 -0.3616
  803MOL0     H 8387  11.289   4.277   2.601  2.7885  0.2245  1.9630
  803MOL0     H 8388  11.059   4.323   2.680  3.3487 -2.8065 -2.7954
  803MOL0     H 8389   9.810   5.921   2.644  0.6171 -1.1613 -1.8665
  803MOL0     H 8390   9.692   6.123   2.731 -0.7005 -1.1758  0.6898
  803MOL0     H 8391   9.191   6.447   2.542  1.1071 -0.9594  0.6492
  803MOL0     H 8392   9.131   6.650   2.627 -0.0033  0.2191 -1.8104
  803MOL0     H 8393   9.122   6.904   2.679  0.9382 -0.1264 -0.3031
  803MOL0     H 8394   9.240   6.864   2.569 -1.6277  1.7163 -0.0615
  803MOL0     H 8395   9.246   7.106   2.584 -1.6834  0.0794 -0.6036
  803MOL0     H 8396   9.408   7.040   2.628  0.8716  3.3058 -0.5601
  803MOL0     H 8397   9.297   7.039   2.861 -3.2666  0.2572  0.7106
  803MOL0     H 8398   9.202   7.174   2.793 -1.6168 -2.2024  0.1288
  803MOL0     H 8399   9.420   7.271   2.693  3.9238  0.1593 -0.6612
  803MOL0     H 8400   9.408   7.278   2.879  1.3816 -0.9777 -0.9508
  803MOL0     H 8401   9.726   7.018   2.744  1.0538  2.8788 -2.3256
  803MOL0     H 8402   9.510   6.703   2.810  1.2025 -1.3953 -1.2577
  803MOL0     H 8403   9.628   6.405   2.785 -1.8117  1.5511  1.7215
  803MOL0     H 8404   9.682   6.457   2.623  0.8303  1.2395 -0.3976
  803MOL0     H 8405   9.700   6.576   2.739 -0.6336  0.8040  1.3367
  804MOL0     O 8406  10.185   6.915   8.162 -0.4885  0.8675 -0.0993
  804MOL0     C 8407  10.122   6.932   8.269 -0.4930 -0.0266 -0.0056
  804MOL0     O 8408  10.172   6.973   8.392 -0.0161  0.4157 -0.4309
  804MOL0     C 8409  10.313   6.951   8.401  0.5469 -0.6124  0.4997
  804MOL0     C 8410  10.398   7.063   8.393 -0.8525  0.0909 -0.4762
  804MOL0     C 8411  10.536   7.044   8.407 -0.8146  0.1852  0.7587
  804MOL0     C 8412  10.595   6.920   8.414  0.7618 -0.3227 -0.0104
  804MOL0     O 8413  10.728   6.915   8.434 -0.2249 -0.4770 -0.6928
  804MOL0     C 8414  10.794   6.798   8.487  0.6193  1.0563 -0.3817
  804MOL0     C 8415  10.920   6.831   8.557  0.2569 -0.7148  0.5958
  804MOL0     C 8416  10.991   6.706   8.618  0.7243 -0.8564 -0.5396
  804MOL0     C 8417  11.107   6.737   8.701 -0.4553 -0.3213 -0.3531
  804MOL0     C 8418  11.229   6.734   8.609 -0.0999  0.8159  0.3663
  804MOL0     C 8419  11.343   6.639   8.655  1.0066 -0.2829  0.2490
  804MOL0     C 8420  11.458   6.637   8.557 -0.0252  0.0886 -0.4125
  804MOL0     C 8421  11.600   6.647   8.622  0.3122 -0.7200  0.1761
  804MOL0     N 8422  11.655   6.533   8.694  0.0663 -0.5365 -0.1086
  804MOL0     C 8423  11.616   6.496   8.818  0.3655 -0.2153 -0.5167
  804MOL0     C 8424  11.668   6.373   8.836 -0.4360  0.2704  0.1566
  804MOL0     C 8425  11.653   6.299   8.957  0.2326  0.6864  0.1820
  804MOL0     C 8426  11.767   6.335   9.062  0.6801  0.8321 -0.1188
  804MOL0     C 8427  11.909   6.282   9.021 -1.2098  0.4122  0.5362
  804MOL0     C 8428  11.994   6.317   9.144  0.3619  0.1764  0.6752
  804MOL0     O 8429  12.131   6.337   9.106 -0.0392 -0.5806 -0.0515
  804MOL0     C 8430  12.224   6.246   9.145  1.2000  0.1229 -0.0920
  804MOL0     C 8431  12.202   6.111   9.174 -0.1402  0.1073  0.6288
  804MOL0     C 8432  12.299   6.021   9.218 -1.2127  0.5429  0.1288
  804MOL0     C 8433  12.431   6.074   9.229 -0.3232 -0.1301  0.2167
  804MOL0     C 8434  12.541   5.987   9.267 -0.2300 -0.2018  1.0053
  804MOL0     O 8435  12.664   6.042   9.226 -0.0463  0.3405  0.1955
  804MOL0     C 8436  12.788   5.981   9.227  0.0398  0.7755 -0.2834
  804MOL0     C 8437  12.832   5.864   9.301  0.1238 -0.3326  1.2423
  804MOL0     C 8438  12.968   5.829   9.290  0.5003  0.1667 -0.3217
  804MOL0     C 8439  13.059   5.897   9.217 -0.9641 -0.6108 -0.1582
  804MOL0     O 8440  13.185   5.845   9.216  0.6200  0.9165 -0.0688
  804MOL0     C 8441  13.291   5.910   9.151 -0.5009  0.0979 -0.3235
  804MOL0     C 8442  13.280   5.909   8.995  0.5897  0.4499  0.2682
  804MOL0     C 8443  13.382   5.816   8.923  0.5194  0.7702 -0.4094
  804MOL0     C 8444  13.372   5.838   8.764 -0.6018 -0.2927  0.2305
  804MOL0     C 8445  13.398   5.721   8.673 -0.6412  0.0287  0.1127
  804MOL0     C 8446  13.559   5.698   8.668  0.2073  0.3886 -0.1467
  804MOL0     C 8447  13.625   5.828   8.607  0.3317 -0.8116  0.6607
  804MOL0     C 8448  13.769   5.804   8.556 -0.2870 -0.6945  0.2411
  804MOL0    Cl 8449  13.856   5.738   8.700 -0.2848 -0.3676  0.2315
  804MOL0     C 8450  13.026   6.021   9.159  0.2540 -0.1156  0.5384
  804MOL0     C 8451  12.893   6.064   9.169  0.6034  0.7256 -0.3566
  804MOL0     O 8452  12.528   5.874   9.305 -0.1892  0.0344 -0.3366
  804MOL0     C 8453  12.459   6.208   9.187 -0.3360  0.0974 -0.5921
  804MOL0     C 8454  12.356   6.293   9.146  0.4382 -0.2488 -0.5164
  804MOL0     N 8455  11.754   6.345   8.733  0.8327  0.1122 -0.3663
  804MOL0     N 8456  11.741   6.446   8.650 -0.2745 -1.2353  0.2102
  804MOL0     C 8457  10.502   6.807   8.421 -0.1020 -1.1445  0.4622
  804MOL0     C 8458  10.366   6.827   8.414 -0.3971  0.8683 -1.0181
  804MOL0     C 8459   9.976   6.912   8.276 -0.9785  0.0947 -0.4969
  804MOL0     C 8460   9.904   6.978   8.369  0.0419 -1.4922  0.0323
  804MOL0     C 8461   9.761   6.981   8.375  0.0357 -0.8114 -0.2174
  804MOL0     C 8462   9.687   6.916   8.282  0.6027 -0.2068  0.1674
  804MOL0     O 8463   9.552   6.914   8.274  0.2636 -0.5490 -0.0984
  804MOL0     C 8464   9.494   6.848   8.389  0.7241 -0.5383  0.2986
  804MOL0     C 8465   9.344   6.802   8.365 -0.3999  0.1903  0.2275
  804MOL0     C 8466   9.242   6.917   8.364  0.1195 -0.0742  0.4468
  804MOL0     C 8467   9.116   6.877   8.285 -0.3015 -0.2761 -0.2476
  804MOL0     C 8468   9.026   6.994   8.277  1.0077  0.4899  0.2455
  804MOL0     C 8469   8.934   7.075   8.271 -0.3960 -0.7534 -0.4143
  804MOL0     C 8470   9.760   6.843   8.187  0.7346 -0.3920  0.4897
  804MOL0     C 8471   9.901   6.833   8.184  0.6458 -0.3971  0.5629
  804MOL0     C 8472   9.952   6.746   8.069 -0.0259  0.8127  0.2016
  804MOL0     H 8473  10.357   7.162   8.376  0.9329  0.7182 -1.3720
  804MOL0     H 8474  10.600   7.129   8.423 -0.1365 -0.0717 -0.4473
  804MOL0     H 8475  10.730   6.746   8.560  1.4616  3.2881  2.1052
  804MOL0     H 8476  10.805   6.718   8.413 -0.7962 -0.2851  0.7678
  804MOL0     H 8477  10.896   6.893   8.644 -0.7053  0.1214 -0.2390
  804MOL0     H 8478  10.981   6.881   8.481 -1.2916  0.3684  0.0287
  804MOL0     H 8479  11.014   6.636   8.538  1.5430 -0.9046 -0.2731
  804MOL0     H 8480  10.914   6.670   8.687 -0.0031  2.7827  0.8112
  804MOL0     H 8481  11.088   6.836   8.744  0.7357 -0.3273  0.2349
  804MOL0     H 8482  11.122   6.670   8.786  1.4643  3.1433  2.3354
  804MOL0     H 8483  11.210   6.692   8.510 -1.7291  0.3837  0.8249
  804MOL0     H 8484  11.273   6.833   8.592  3.0363 -0.8028 -1.9724
  804MOL0     H 8485  11.373   6.661   8.758 -0.3778 -0.4407  0.7063
  804MOL0     H 8486  11.288   6.544   8.656  2.7846 -1.3827  2.4432
  804MOL0     H 8487  11.448   6.726   8.493 -1.2181  1.5285  1.6592
  804MOL0     H 8488  11.460   6.550   8.490  0.9483 -0.4203  0.2649
  804MOL0     H 8489  11.667   6.680   8.542  1.5327  0.5440  1.6500
  804MOL0     H 8490  11.603   6.728   8.695  1.3730 -0.6630  0.0940
  804MOL0     H 8491  11.563   6.550   8.895  0.6457 -1.3919  0.5376
  804MOL0     H 8492  11.557   6.329   9.000  0.2094  0.4122  0.3196
  804MOL0     H 8493  11.654   6.190   8.950  1.3291  0.7189 -0.3384
  804MOL0     H 8494  11.767   6.444   9.068  0.5584  0.7741  1.5285
  804MOL0     H 8495  11.736   6.292   9.158 -0.1450 -1.0185 -1.1654
  804MOL0     H 8496  11.942   6.324   8.925 -2.0085  2.7225  1.2298
  804MOL0     H 8497  11.902   6.176   8.995 -0.5942  0.4108  0.3600
  804MOL0     H 8498  11.962   6.236   9.210  0.1259  0.3326  0.7563
  804MOL0     H 8499  11.955   6.410   9.186 -2.8692  0.0795 -1.7812
  804MOL0     H 8500  12.105   6.063   9.163  0.1451 -0.5293  0.8797
  804MOL0     H 8501  12.289   5.915   9.240  2.6573 -0.1166 -0.4841
  804MOL0     H 8502  12.769   5.806   9.367  2.6008 -0.7241  3.4193
  804MOL0     H 8503  12.995   5.732   9.330  0.8052  0.1072 -0.6739
  804MOL0     H 8504  13.296   6.009   9.198 -0.6169 -0.2495  0.4299
  804MOL0     H 8505  13.385   5.871   9.189 -1.2715  0.9649  2.6899
  804MOL0     H 8506  13.182   5.871   8.964  0.0831  0.5084  1.7273
  804MOL0     H 8507  13.302   6.011   8.963 -0.5407  0.9872  1.1133
  804MOL0     H 8508  13.487   5.827   8.953 -0.0082  0.4932  1.6941
  804MOL0     H 8509  13.348   5.715   8.947 -0.2205  1.2174  0.4988
  804MOL0     H 8510  13.436   5.924   8.744 -1.2717  1.0473  3.2303
  804MOL0     H 8511  13.276   5.882   8.736 -0.9961 -2.4478 -2.1504
  804MOL0     H 8512  13.347   5.729   8.576 -0.6618 -1.2909  0.0047
  804MOL0     H 8513  13.359   5.636   8.729  3.5931  0.1907  3.8296
  804MOL0     H 8514  13.594   5.681   8.770  0.2699  1.1404 -0.0366
  804MOL0     H 8515  13.581   5.608   8.610  4.1604  0.7590  0.5318
  804MOL0     H 8516  13.624   5.896   8.693  2.2034 -1.0624  0.9266
  804MOL0     H 8517  13.570   5.873   8.524  0.9533  0.2126  0.7910
  804MOL0     H 8518  13.769   5.738   8.469 -3.7513 -0.8572  0.2235
  804MOL0     H 8519  13.814   5.902   8.537 -0.0709 -0.1217  3.1355
  804MOL0     H 8520  13.091   6.095   9.113 -2.9730  1.8438 -1.1974
  804MOL0     H 8521  12.862   6.159   9.125 -0.8109  0.0144 -0.9528
  804MOL0     H 8522  12.557   6.254   9.183 -1.4314  2.5883 -1.2088
  804MOL0     H 8523  12.376   6.390   9.100  1.6216 -1.4978 -2.8148
  804MOL0     H 8524  10.526   6.701   8.418  0.4277 -1.0107 -1.7316
  804MOL0     H 8525  10.298   6.745   8.435 -0.0438  1.4241  3.4974
  804MOL0     H 8526   9.955   7.035   8.446 -1.3095 -1.6338  1.0595
  804MOL0     H 8527   9.707   7.037   8.451  0.7526 -0.7977  0.3024
  804MOL0     H 8528   9.484   6.917   8.473  1.6428  0.1961 -0.1816
  804MOL0     H 8529   9.556   6.765   8.424 -2.0171 -2.4199  0.9821
  804MOL0     H 8530   9.319   6.728   8.442 -2.0121  0.3450 -0.0997
  804MOL0     H 8531   9.336   6.748   8.269  0.8600 -0.7373  0.6245
  804MOL0     H 8532   9.294   7.002   8.320 -1.3409  0.7916  0.3341
  804MOL0     H 8533   9.215   6.934   8.468  0.4053 -1.6342  0.8059
  804MOL0     H 8534   9.131   6.857   8.179  0.2557  2.0692 -0.6699
  804MOL0     H 8535   9.067   6.791   8.332  1.7094 -1.1466  0.3934
  804MOL0     H 8536   8.855   7.147   8.281  0.3112 -0.0305  0.1602
  804MOL0     H 8537   9.709   6.802   8.101 -0.2088  1.3645  0.1638
  804MOL0     H 8538  10.056   6.713   8.077 -0.9016 -1.9395  1.6673
  804MOL0     H 8539   9.898   6.652   8.070  3.4022 -1.3457  1.1045
  804MOL0     H 8540   9.934   6.804   7.978  2.3347  0.3762 -0.6243
  805MOL0     O 8541   5.486   1.128   4.342 -0.2752  0.1549  0.2386
  805MOL0     C 8542   5.433   1.232   4.300 -0.1134 -0.3670 -0.1486
  805MOL0     O 8543   5.500   1.353   4.302  0.3366  0.2154 -0.0215
  805MOL0     C 8544   5.624   1.364   4.367 -0.0864 -0.4207 -0.0054
  805MOL0     C 8545   5.630   1.420   4.501 -1.4119  0.1573 -0.2490
  805MOL0     C 8546   5.756   1.443   4.562  0.2642 -0.3077 -0.2837
  805MOL0     C 8547   5.872   1.417   4.487 -0.5599  0.6823  0.0645
  805MOL0     O 8548   5.999   1.442   4.535 -0.3318 -0.0737 -0.3506
  805MOL0     C 8549   6.009   1.554   4.618  0.7581 -0.7842  0.1203
  805MOL0     C 8550   6.158   1.593   4.645  0.3728  0.1528 -0.5876
  805MOL0     C 8551   6.245   1.480   4.702 -0.1858 -0.1891 -0.3357
  805MOL0     C 8552   6.177   1.430   4.833 -1.1858 -0.2117  0.1558
  805MOL0     C 8553   6.286   1.353   4.914 -0.1171 -1.3418  0.5045
  805MOL0     C 8554   6.369   1.449   5.005 -0.8249  0.6558 -0.1774
  805MOL0     C 8555   6.297   1.549   5.099 -0.2831 -0.1461  0.7103
  805MOL0     C 8556   6.366   1.584   5.223  0.1992 -0.4350  0.3315
  805MOL0     N 8557   6.397   1.468   5.312 -0.0304  0.7299  0.4333
  805MOL0     C 8558   6.305   1.409   5.389  0.4909 -0.1201 -0.3661
  805MOL0     C 8559   6.361   1.297   5.446  1.0952 -0.4346 -0.4275
  805MOL0     C 8560   6.277   1.194   5.513 -0.0059 -0.4212 -0.5305
  805MOL0     C 8561   6.309   1.168   5.663  0.1933  0.7879  0.9380
  805MOL0     C 8562   6.267   1.284   5.760  0.4152  0.0222 -0.2837
  805MOL0     C 8563   6.241   1.219   5.905  0.2864 -0.7081  0.0881
  805MOL0     O 8564   6.356   1.141   5.951 -0.1751  0.5775  0.2260
  805MOL0     C 8565   6.468   1.209   5.995 -0.3017 -0.2105  0.3032
  805MOL0     C 8566   6.596   1.147   5.999 -0.0068 -0.3091  0.4832
  805MOL0     C 8567   6.715   1.204   6.034 -0.3941  0.6929  0.1940
  805MOL0     C 8568   6.713   1.337   6.084 -0.9298  0.5847  0.2917
  805MOL0     C 8569   6.839   1.402   6.137 -0.3111  0.2089  1.0638
  805MOL0     O 8570   6.817   1.516   6.201  0.2120 -0.1591 -0.3381
  805MOL0     C 8571   6.904   1.595   6.268  0.1350  0.0881  0.0883
  805MOL0     C 8572   6.898   1.732   6.262 -0.1935 -0.8328 -0.5196
  805MOL0     C 8573   6.977   1.808   6.348 -0.2758 -0.3394 -0.2099
  805MOL0     C 8574   7.079   1.749   6.424 -0.3341 -0.0543 -1.3259
  805MOL0     O 8575   7.161   1.842   6.492 -0.2972  0.1287  0.0889
  805MOL0     C 8576   7.271   1.799   6.573 -0.0656  0.8210 -0.1811
  805MOL0     C 8577   7.389   1.733   6.493  0.2895 -0.1836 -0.9110
  805MOL0     C 8578   7.438   1.830   6.386  0.0721 -0.2931  0.1343
  805MOL0     C 8579   7.562   1.778   6.316  0.3007 -0.0453 -0.2817
  805MOL0     C 8580   7.582   1.853   6.182 -0.2707  1.0496 -0.1115
  805MOL0     C 8581   7.666   1.980   6.194  0.1152  0.3345 -0.5603
  805MOL0     C 8582   7.669   2.046   6.061  0.2449  0.1936  0.0367
  805MOL0     C 8583   7.806   2.092   6.046  0.0586 -0.3218  0.9397
  805MOL0    Cl 8584   7.867   2.182   6.186  0.2450  0.3894 -0.1524
  805MOL0     C 8585   7.093   1.609   6.426  0.1298  0.7582 -0.4672
  805MOL0     C 8586   7.014   1.542   6.348  1.1786  0.0501  0.1177
  805MOL0     O 8587   6.950   1.353   6.117  0.7400  0.6237  0.3874
  805MOL0     C 8588   6.591   1.401   6.097  0.4336 -0.1404 -0.4795
  805MOL0     C 8589   6.470   1.340   6.048 -0.4469 -0.3087 -1.2572
  805MOL0     N 8590   6.495   1.299   5.403  0.6147  0.1086 -0.0147
  805MOL0     N 8591   6.513   1.406   5.333  0.2387  0.0359  0.7018
  805MOL0     C 8592   5.859   1.365   4.362  0.1054 -0.1976  0.1149
  805MOL0     C 8593   5.739   1.345   4.298 -0.6314  0.5489  0.1854
  805MOL0     C 8594   5.306   1.222   4.223 -0.2131 -0.2294 -1.0775
  805MOL0     C 8595   5.283   1.102   4.154  0.2248  0.3992  0.4213
  805MOL0     C 8596   5.157   1.082   4.097  0.5604 -0.0567  0.8153
  805MOL0     C 8597   5.057   1.176   4.098 -0.5179  0.7750 -0.2188
  805MOL0     O 8598   4.926   1.161   4.053  0.3855  0.5285 -0.0527
  805MOL0     C 8599   4.879   1.040   3.990 -0.0361 -0.0968  0.1825
  805MOL0     C 8600   4.860   0.923   4.097  0.5437 -0.4710 -0.3468
  805MOL0     C 8601   4.751   0.967   4.202 -0.0429  0.2498  0.4057
  805MOL0     C 8602   4.729   0.864   4.315 -0.6079 -1.6987 -0.0476
  805MOL0     C 8603   4.646   0.749   4.283 -0.4385 -0.1929 -0.2221
  805MOL0     C 8604   4.570   0.652   4.260  0.7982 -0.7254  0.2411
  805MOL0     C 8605   5.090   1.291   4.160  0.5558  0.3645 -0.1404
  805MOL0     C 8606   5.213   1.327   4.217  0.0804 -0.0607  0.0204
  805MOL0     C 8607   5.226   1.472   4.276  0.5595  1.2584  0.0012
  805MOL0     H 8608   5.530   1.447   4.533 -0.7824  1.7534  0.5021
  805MOL0     H 8609   5.763   1.494   4.657  3.9592  0.5178 -0.8431
  805MOL0     H 8610   5.952   1.640   4.580  1.3197  1.5769  4.1049
  805MOL0     H 8611   5.966   1.544   4.718  0.4070  2.4077  0.3803
  805MOL0     H 8612   6.160   1.679   4.714 -3.4952 -1.2075  1.5059
  805MOL0     H 8613   6.199   1.623   4.549 -0.8068  4.8678  0.1292
  805MOL0     H 8614   6.343   1.519   4.730  0.3218 -1.7492  0.1817
  805MOL0     H 8615   6.250   1.390   4.641 -4.1424 -0.3779 -0.6378
  805MOL0     H 8616   6.135   1.518   4.882 -1.4895  0.6926 -1.6533
  805MOL0     H 8617   6.091   1.365   4.817 -2.1827  1.2397 -0.6549
  805MOL0     H 8618   6.230   1.286   4.980 -0.3058 -0.4636  1.2630
  805MOL0     H 8619   6.348   1.286   4.854  0.1631 -2.4649  1.9762
  805MOL0     H 8620   6.426   1.374   5.061  0.9577  2.0879  0.0186
  805MOL0     H 8621   6.435   1.505   4.937  4.3957 -2.5442  1.6048
  805MOL0     H 8622   6.197   1.507   5.113 -2.4357  2.9448 -3.4359
  805MOL0     H 8623   6.274   1.642   5.047 -4.2137  0.0448  2.4196
  805MOL0     H 8624   6.460   1.627   5.188 -1.3195  1.9623 -1.0389
  805MOL0     H 8625   6.322   1.662   5.285 -0.9218  0.3424 -1.3705
  805MOL0     H 8626   6.202   1.444   5.390  1.0803  1.9047 -2.0039
  805MOL0     H 8627   6.176   1.236   5.502 -0.6412 -2.1164 -1.6362
  805MOL0     H 8628   6.283   1.102   5.455  0.8680  0.2644 -1.5659
  805MOL0     H 8629   6.241   1.091   5.701  0.5173 -1.4833 -2.6022
  805MOL0     H 8630   6.412   1.140   5.687  0.3850 -0.3740 -1.0072
  805MOL0     H 8631   6.180   1.341   5.725  1.2292  1.1429 -0.5585
  805MOL0     H 8632   6.345   1.361   5.764  1.9461 -1.3493 -2.0629
  805MOL0     H 8633   6.161   1.145   5.916 -1.3959  1.4289  4.1365
  805MOL0     H 8634   6.207   1.298   5.972  2.2212 -1.3424  1.9196
  805MOL0     H 8635   6.613   1.047   5.960 -2.0138 -0.9890  1.1847
  805MOL0     H 8636   6.806   1.150   6.009 -0.3604 -0.1536  2.0450
  805MOL0     H 8637   6.820   1.777   6.201 -0.2157 -0.6884 -0.3864
  805MOL0     H 8638   6.966   1.915   6.338 -2.1644 -0.6695 -2.6199
  805MOL0     H 8639   7.305   1.889   6.624 -3.7824  2.4395 -0.2325
  805MOL0     H 8640   7.235   1.731   6.651 -0.2097  0.0207 -0.9375
  805MOL0     H 8641   7.470   1.707   6.562 -0.4108  2.0145  0.8678
  805MOL0     H 8642   7.344   1.647   6.442 -2.4827 -0.3060  1.4917
  805MOL0     H 8643   7.359   1.868   6.320  0.8891 -0.6937 -1.1225
  805MOL0     H 8644   7.482   1.914   6.440 -2.4297  1.0597  0.1800
  805MOL0     H 8645   7.555   1.671   6.296 -0.3955 -0.6004  2.5846
  805MOL0     H 8646   7.658   1.789   6.366 -0.6838 -0.0752  1.6783
  805MOL0     H 8647   7.485   1.885   6.143 -0.3186  2.4146  1.0507
  805MOL0     H 8648   7.618   1.788   6.102 -0.6240 -1.6505  1.7951
  805MOL0     H 8649   7.622   2.046   6.270  2.2583  0.9531  0.2035
  805MOL0     H 8650   7.761   1.938   6.229 -0.2826 -0.5825 -0.5512
  805MOL0     H 8651   7.593   2.125   6.066  0.2085  0.1359  0.4226
  805MOL0     H 8652   7.647   1.978   5.979 -0.6684 -0.8907  1.1390
  805MOL0     H 8653   7.870   2.004   6.036  1.2136  0.6765 -1.5129
  805MOL0     H 8654   7.808   2.150   5.953  2.9011 -0.1601  1.0144
  805MOL0     H 8655   7.155   1.546   6.488 -0.4305 -0.5108 -1.1721
  805MOL0     H 8656   7.018   1.434   6.349 -1.0695 -0.2248 -3.3730
  805MOL0     H 8657   6.586   1.491   6.159  2.6275 -0.2439 -0.0716
  805MOL0     H 8658   6.377   1.394   6.062  0.4166  0.6908  1.2110
  805MOL0     H 8659   5.946   1.334   4.304  0.2580 -0.0416  0.2585
  805MOL0     H 8660   5.741   1.301   4.199  0.9594 -2.0411  1.2630
  805MOL0     H 8661   5.356   1.024   4.168 -0.7117 -0.8464 -1.2645
  805MOL0     H 8662   5.141   0.994   4.035  1.0302  0.0258  0.5816
  805MOL0     H 8663   4.946   1.009   3.909  0.9293  0.1838  0.8435
  805MOL0     H 8664   4.787   1.067   3.938 -1.8554  0.7786  3.5319
  805MOL0     H 8665   4.953   0.890   4.146  1.2761 -0.2233 -1.5422
  805MOL0     H 8666   4.809   0.838   4.051 -2.4704  1.6320 -1.1583
  805MOL0     H 8667   4.652   0.968   4.156 -0.5224  0.1398  1.4017
  805MOL0     H 8668   4.784   1.061   4.245 -0.8345  0.8698 -0.3130
  805MOL0     H 8669   4.830   0.842   4.351 -0.0683  1.6236  0.8011
  805MOL0     H 8670   4.686   0.925   4.395 -1.3321 -0.2797 -1.4721
  805MOL0     H 8671   4.502   0.576   4.229 -0.4273 -0.8756  3.0069
  805MOL0     H 8672   5.006   1.359   4.149 -2.6652 -3.2674 -0.1733
  805MOL0     H 8673   5.285   1.533   4.207  2.3124  0.3916  0.6714
  805MOL0     H 8674   5.123   1.504   4.294  0.0003 -1.1656  1.6777
  805MOL0     H 8675   5.278   1.480   4.372 -1.2902 -2.1672  1.4731
  806MOL0     O 8676   4.906  11.011   0.103  0.8660  0.1147  0.1202
  806MOL0     C 8677   4.934  10.898   0.075  0.8458  0.5356 -0.1003
  806MOL0     O 8678   5.038  10.831   0.131 -0.2775 -0.1468 -1.0106
  806MOL0     C 8679   5.087  10.877   0.254 -0.7923  1.0804 -0.9059
  806MOL0     C 8680   5.125  10.783   0.356 -0.3076  0.7224  0.2703
  806MOL0     C 8681   5.191  10.825   0.476 -0.5063 -0.8147 -0.6611
  806MOL0     C 8682   5.214  10.972   0.501  0.6193  0.0437 -0.5566
  806MOL0     O 8683   5.277  11.028   0.606 -0.1614  1.0589 -0.2927
  806MOL0     C 8684   5.414  10.998   0.595 -0.4012  0.1836 -0.1789
  806MOL0     C 8685   5.454  11.031   0.730  0.2026 -1.4506 -0.5342
  806MOL0     C 8686   5.605  11.017   0.748 -0.0249 -0.5715 -0.1493
  806MOL0     C 8687   5.648  11.063   0.886 -0.0730 -0.2159 -0.0602
  806MOL0     C 8688   5.803  11.045   0.915  0.4013 -0.0965 -0.2401
  806MOL0     C 8689   5.835  11.052   1.061  0.5535 -0.1241  0.6270
  806MOL0     C 8690   5.985  11.089   1.072 -0.2875  0.2815 -0.4128
  806MOL0     C 8691   6.020  11.149   1.203 -0.4735 -0.6896 -0.7018
  806MOL0     N 8692   6.162  11.185   1.199 -0.1844  0.2370 -0.0920
  806MOL0     C 8693   6.268  11.124   1.272  0.4307 -0.8150  0.1568
  806MOL0     C 8694   6.373  11.207   1.241  0.1690  0.4901 -0.8629
  806MOL0     C 8695   6.511  11.207   1.295  0.5611 -0.0063 -0.3007
  806MOL0     C 8696   6.565  11.065   1.294 -1.2879  0.9698 -0.1117
  806MOL0     C 8697   6.713  11.045   1.333 -0.2282 -0.0640 -0.4134
  806MOL0     C 8698   6.810  11.090   1.223  0.0145 -0.2918 -0.1915
  806MOL0     O 8699   6.811  11.234   1.204  0.1571  0.8325 -0.0588
  806MOL0     C 8700   6.902  11.310   1.274 -0.4151 -0.4273  0.0831
  806MOL0     C 8701   6.939  11.431   1.210  0.3601 -0.6540  1.3946
  806MOL0     C 8702   7.030  11.523   1.255  0.5151 -0.3536  1.0584
  806MOL0     C 8703   7.091  11.503   1.376 -0.2052 -0.4953 -0.5943
  806MOL0     C 8704   7.203  11.595   1.418 -0.2510  0.1091  0.8507
  806MOL0     O 8705   7.244  11.681   1.318  0.6271  0.4954  0.1752
  806MOL0     C 8706   7.360  11.745   1.341  0.2538 -0.7305 -0.5725
  806MOL0     C 8707   7.354  11.883   1.385 -0.8192 -1.3938  0.2850
  806MOL0     C 8708   7.469  11.958   1.427  0.1928  1.2281 -0.1919
  806MOL0     C 8709   7.599  11.894   1.409  0.8903 -1.0885 -0.1518
  806MOL0     O 8710   7.710  11.963   1.441 -0.1228  0.0819 -0.1239
  806MOL0     C 8711   7.839  11.902   1.423  0.2882  0.3611 -0.3067
  806MOL0     C 8712   7.949  11.988   1.476 -0.4933 -0.8253 -0.5957
  806MOL0     C 8713   8.086  11.927   1.450 -0.9380 -0.6097  0.0224
  806MOL0     C 8714   8.217  12.015   1.476 -0.0557 -0.2062  0.2310
  806MOL0     C 8715   8.196  12.158   1.415 -0.5593 -0.2958  0.0871
  806MOL0     C 8716   8.147  12.264   1.512 -0.5934 -0.5297 -0.6595
  806MOL0     C 8717   8.171  12.413   1.467  1.4282  0.0272 -0.4126
  806MOL0     C 8718   8.086  12.449   1.344  0.0583 -0.0700 -0.1003
  806MOL0    Cl 8719   8.200  12.439   1.204  0.3356  0.6704  0.0293
  806MOL0     C 8720   7.597  11.759   1.366  0.8097  0.3419  0.2254
  806MOL0     C 8721   7.481  11.688   1.330  0.3588  0.0755 -0.3296
  806MOL0     O 8722   7.257  11.591   1.524 -0.4872  0.1343 -0.2354
  806MOL0     C 8723   7.058  11.390   1.446  0.0692 -0.8251  0.3507
  806MOL0     C 8724   6.964  11.293   1.395 -0.0184 -0.4031 -0.5862
  806MOL0     N 8725   6.324  11.299   1.154 -0.7307 -0.1353  0.2519
  806MOL0     N 8726   6.202  11.295   1.138 -0.1748 -0.6769 -0.4814
  806MOL0     C 8727   5.167  11.059   0.400 -0.1813  0.3224 -0.0114
  806MOL0     C 8728   5.114  11.008   0.284 -0.5730 -0.4761 -0.3489
  806MOL0     C 8729   4.842  10.809  -0.014  0.6089  0.6534  0.6453
  806MOL0     C 8730   4.823  10.848  -0.151 -0.8489 -0.1261 -0.0077
  806MOL0     C 8731   4.746  10.772  -0.236  0.1788  0.5112  0.0495
  806MOL0     C 8732   4.695  10.642  -0.200 -0.4278  0.1986 -0.1193
  806MOL0     O 8733   4.621  10.584  -0.300 -0.2260  0.1919  0.6389
  806MOL0     C 8734   4.541  10.471  -0.268  0.3460  0.2807  0.5583
  806MOL0     C 8735   4.483  10.414  -0.405  0.2691 -0.2228 -0.1961
  806MOL0     C 8736   4.395  10.293  -0.368  0.1616 -0.1178 -0.3644
  806MOL0     C 8737   4.348  10.202  -0.478 -0.3700 -0.3319 -0.1795
  806MOL0     C 8738   4.251  10.265  -0.572 -0.8114  0.0867  0.4617
  806MOL0     C 8739   4.164  10.336  -0.636  0.5441  0.2064 -0.7720
  806MOL0     C 8740   4.714  10.596  -0.068  0.5089  1.0829 -0.6560
  806MOL0     C 8741   4.789  10.679   0.024 -0.4114 -0.0205 -0.8692
  806MOL0     C 8742   4.792  10.637   0.172 -0.3973  0.1728  0.6784
  806MOL0     H 8743   5.126  10.675   0.341  1.2586  1.0273 -2.5272
  806MOL0     H 8744   5.235  10.746   0.537 -1.7094 -0.4540  0.7211
  806MOL0     H 8745   5.438  10.892   0.583 -2.5948 -0.2874 -0.8949
  806MOL0     H 8746   5.459  11.058   0.516  1.0486 -3.5973 -2.4829
  806MOL0     H 8747   5.404  10.976   0.811  1.1336  0.5022  1.4914
  806MOL0     H 8748   5.426  11.134   0.754  0.6230 -1.1610 -1.2596
  806MOL0     H 8749   5.649  11.085   0.674 -0.7244  0.0027 -0.0502
  806MOL0     H 8750   5.643  10.917   0.727 -1.5303 -1.5693  1.6128
  806MOL0     H 8751   5.611  11.166   0.887 -2.4549 -0.8806 -3.4226
  806MOL0     H 8752   5.593  11.011   0.964 -0.1168 -1.2333 -0.7563
  806MOL0     H 8753   5.851  10.955   0.877  0.7148 -1.0129  2.1612
  806MOL0     H 8754   5.853  11.135   0.877  4.5426 -3.0085 -2.4487
  806MOL0     H 8755   5.779  11.141   1.089  0.3362 -0.1210  0.1902
  806MOL0     H 8756   5.816  10.967   1.127  2.4056 -1.1226 -0.0260
  806MOL0     H 8757   6.022  11.160   0.997  1.1962 -1.5805 -1.5414
  806MOL0     H 8758   6.036  10.992   1.075 -2.3835 -0.9071  3.6906
  806MOL0     H 8759   5.956  11.237   1.214 -1.7918 -1.3566 -2.4807
  806MOL0     H 8760   5.988  11.080   1.282  1.2193  0.0437  0.6779
  806MOL0     H 8761   6.270  11.043   1.344  1.2701 -0.5015  0.5047
  806MOL0     H 8762   6.568  11.276   1.232  0.8001 -1.4815 -1.7653
  806MOL0     H 8763   6.520  11.253   1.394  1.4533  1.3516 -0.9839
  806MOL0     H 8764   6.501  11.016   1.368 -0.7536 -0.7647 -0.7577
  806MOL0     H 8765   6.547  11.013   1.200 -0.5275  0.6040 -0.0628
  806MOL0     H 8766   6.721  10.937   1.349 -1.8813  0.0683  1.7762
  806MOL0     H 8767   6.735  11.093   1.429 -1.2316 -0.1851 -0.1087
  806MOL0     H 8768   6.775  11.053   1.126 -2.7785  0.8797  0.2870
  806MOL0     H 8769   6.909  11.051   1.251  0.2735  2.1854  2.9658
  806MOL0     H 8770   6.888  11.449   1.116  1.2446  1.7117  1.3031
  806MOL0     H 8771   7.037  11.616   1.200  0.5138 -0.5438  0.7302
  806MOL0     H 8772   7.261  11.939   1.397  0.6974  2.1163 -2.4687
  806MOL0     H 8773   7.462  12.064   1.448 -0.8097  1.2803 -0.7326
  806MOL0     H 8774   7.836  11.807   1.478  0.0579  0.3763 -0.2925
  806MOL0     H 8775   7.857  11.889   1.316 -3.2759 -1.7678 -0.8097
  806MOL0     H 8776   7.944  12.083   1.423  0.4749 -0.7853 -0.6291
  806MOL0     H 8777   7.943  12.009   1.583  2.4029 -1.4419 -0.2249
  806MOL0     H 8778   8.097  11.830   1.499  0.4224 -0.8942 -0.7933
  806MOL0     H 8779   8.093  11.903   1.343  1.0265 -0.6600  0.1190
  806MOL0     H 8780   8.298  11.961   1.426 -1.4233 -2.8206  0.6133
  806MOL0     H 8781   8.226  12.009   1.584 -1.7665 -0.6711  0.3826
  806MOL0     H 8782   8.136  12.171   1.324 -2.4669 -1.9734  1.0077
  806MOL0     H 8783   8.292  12.186   1.371 -0.5497 -4.0941 -2.7368
  806MOL0     H 8784   8.040  12.246   1.525 -1.0802 -0.6778 -4.0090
  806MOL0     H 8785   8.205  12.251   1.604  0.2444 -0.5176 -1.1796
  806MOL0     H 8786   8.276  12.430   1.442  0.6143  2.3120 -2.6364
  806MOL0     H 8787   8.158  12.481   1.551  4.1783 -0.5741  0.6138
  806MOL0     H 8788   7.994  12.392   1.331 -0.3788  0.2285  1.5126
  806MOL0     H 8789   8.047  12.550   1.354  1.5058  0.6875 -1.4825
  806MOL0     H 8790   7.686  11.704   1.334 -0.2444 -2.1321  1.2440
  806MOL0     H 8791   7.490  11.601   1.266 -1.8153  0.6094 -1.4374
  806MOL0     H 8792   7.105  11.365   1.540  1.2073  0.3787  0.1408
  806MOL0     H 8793   6.950  11.193   1.436  1.7694 -0.7368 -0.7177
  806MOL0     H 8794   5.170  11.167   0.411 -0.1264  0.5131 -1.6874
  806MOL0     H 8795   5.079  11.094   0.227  2.8165 -0.1371 -2.1589
  806MOL0     H 8796   4.874  10.936  -0.188 -3.0157  0.5488 -1.5972
  806MOL0     H 8797   4.728  10.797  -0.340  0.9405  0.7346 -0.0363
  806MOL0     H 8798   4.460  10.500  -0.199  1.3605 -1.9013  2.8372
  806MOL0     H 8799   4.604  10.394  -0.223  1.0855 -0.0538 -0.9846
  806MOL0     H 8800   4.559  10.375  -0.472 -1.1219 -0.7859 -1.4954
  806MOL0     H 8801   4.436  10.498  -0.457  0.5254 -1.7727 -3.1408
  806MOL0     H 8802   4.305  10.316  -0.310  1.8977  1.1579  2.0217
  806MOL0     H 8803   4.449  10.227  -0.299  1.2103  1.4082  0.3137
  806MOL0     H 8804   4.423  10.164  -0.548 -1.1005  2.1416 -2.4962
  806MOL0     H 8805   4.294  10.124  -0.424  2.2972  0.0280  3.3528
  806MOL0     H 8806   4.092  10.404  -0.677  2.1459  1.5617 -1.4613
  806MOL0     H 8807   4.656  10.508  -0.042 -0.1813  2.0775  1.5222
  806MOL0     H 8808   4.890  10.596   0.197  1.5507  2.4009 -2.5420
  806MOL0     H 8809   4.780  10.727   0.233  0.9661 -1.1350  3.0000
  806MOL0     H 8810   4.711  10.565   0.192  2.2819 -3.0993  0.6491
  807MOL0     O 8811   1.942   1.507   6.201  1.1692  0.6562  0.0207
  807MOL0     C 8812   1.856   1.559   6.272  0.3734  0.6651 -0.6276
  807MOL0     O 8813   1.873   1.625   6.391 -0.4303 -0.3850 -0.2432
  807MOL0     C 8814   1.989   1.600   6.459 -0.4468  0.0689  0.6779
  807MOL0     C 8815   2.077   1.491   6.454 -0.0324  0.4791 -0.5158
  807MOL0     C 8816   2.193   1.491   6.522  0.0681 -0.9985 -0.1300
  807MOL0     C 8817   2.248   1.605   6.579 -0.8436  0.0985 -0.0351
  807MOL0     O 8818   2.375   1.619   6.633 -0.0796  0.4783 -0.2977
  807MOL0     C 8819   2.480   1.555   6.566 -0.4693  0.0207  0.4297
  807MOL0     C 8820   2.618   1.606   6.611 -0.1210  0.0146  0.1543
  807MOL0     C 8821   2.726   1.497   6.598 -1.6939 -0.7349  0.1012
  807MOL0     C 8822   2.861   1.540   6.654 -0.0140 -0.4200 -0.2071
  807MOL0     C 8823   2.979   1.450   6.605 -0.1950  0.2248 -0.2685
  807MOL0     C 8824   3.115   1.510   6.649 -0.1358  1.0538 -0.2849
  807MOL0     C 8825   3.132   1.541   6.794 -0.3829  0.6848 -1.2811
  807MOL0     C 8826   3.267   1.611   6.833 -0.2350 -0.0708  0.2240
  807MOL0     N 8827   3.390   1.526   6.840  0.5226  0.2874 -0.2496
  807MOL0     C 8828   3.475   1.545   6.949  0.6082 -0.6716  0.0935
  807MOL0     C 8829   3.567   1.447   6.927  0.0048 -0.1326 -0.0912
  807MOL0     C 8830   3.676   1.417   7.027  0.2477  0.2196  0.3977
  807MOL0     C 8831   3.822   1.386   6.976  0.3638 -0.4887 -0.3059
  807MOL0     C 8832   3.863   1.234   6.966  0.9811  0.3213 -0.4269
  807MOL0     C 8833   4.007   1.224   6.922  0.9469 -0.6376 -0.1038
  807MOL0     O 8834   4.074   1.292   7.028 -0.2266  0.5093  0.2249
  807MOL0     C 8835   4.205   1.261   7.037 -0.4214  1.1077 -0.3694
  807MOL0     C 8836   4.269   1.306   7.154  0.5797  0.4547 -1.0935
  807MOL0     C 8837   4.406   1.300   7.179  0.4817 -0.0638  0.3882
  807MOL0     C 8838   4.473   1.214   7.089 -0.1287  0.9112 -0.0792
  807MOL0     C 8839   4.612   1.174   7.105 -0.0034  0.3611 -1.0971
  807MOL0     O 8840   4.678   1.216   7.224 -0.3434  0.2930 -0.5997
  807MOL0     C 8841   4.801   1.163   7.259  0.3830  1.0748  0.3670
  807MOL0     C 8842   4.868   1.242   7.350 -0.2719  0.6368  0.4684
  807MOL0     C 8843   5.001   1.202   7.392 -0.1327  0.2301 -0.0733
  807MOL0     C 8844   5.054   1.077   7.347  0.4047 -0.2171  0.1006
  807MOL0     O 8845   5.173   1.023   7.389 -0.0670 -0.6631  0.4350
  807MOL0     C 8846   5.267   1.115   7.443  0.1956  0.2620  0.1521
  807MOL0     C 8847   5.394   1.037   7.431  0.5887 -0.2931 -0.5619
  807MOL0     C 8848   5.525   1.089   7.502  0.0357 -0.1270  0.2448
  807MOL0     C 8849   5.634   0.983   7.520  0.2700  0.3860 -1.1282
  807MOL0     C 8850   5.777   1.041   7.533  0.1454 -0.8784  0.0653
  807MOL0     C 8851   5.867   0.940   7.596 -0.5788  0.2965  0.3846
  807MOL0     C 8852   6.015   0.991   7.600  0.1652 -0.7888  0.0430
  807MOL0     C 8853   6.106   0.906   7.677 -0.0105  0.3502  0.7181
  807MOL0    Cl 8854   6.170   0.793   7.554 -0.0542  0.3345 -0.2717
  807MOL0     C 8855   4.976   0.992   7.268 -0.0096 -0.8355  0.1610
  807MOL0     C 8856   4.857   1.042   7.221 -1.0637  0.6730  0.3778
  807MOL0     O 8857   4.662   1.113   7.008  0.1273  0.0458  0.2251
  807MOL0     C 8858   4.416   1.172   6.962 -0.1795  0.4764  0.4113
  807MOL0     C 8859   4.278   1.196   6.944 -0.5392  0.0542  0.4819
  807MOL0     N 8860   3.536   1.380   6.812 -0.2252 -0.5004  0.0202
  807MOL0     N 8861   3.437   1.430   6.756 -0.0691  0.3140  0.2508
  807MOL0     C 8862   2.166   1.719   6.584 -0.2743  0.3872  0.7673
  807MOL0     C 8863   2.040   1.708   6.524 -0.4530 -0.4036  0.3581
  807MOL0     C 8864   1.713   1.534   6.229 -0.2035 -0.1710 -1.3283
  807MOL0     C 8865   1.689   1.442   6.131  0.6276  0.8008  0.3620
  807MOL0     C 8866   1.561   1.410   6.074  1.1007 -0.2204  0.5678
  807MOL0     C 8867   1.458   1.478   6.134  0.4018 -0.2467 -0.3970
  807MOL0     O 8868   1.333   1.474   6.070 -0.1610 -0.5034 -0.0325
  807MOL0     C 8869   1.272   1.346   6.045  0.2509  0.8575  0.2656
  807MOL0     C 8870   1.238   1.303   5.908 -0.1454  0.6353  1.7592
  807MOL0     C 8871   1.163   1.159   5.899 -0.4919 -0.3353  0.2128
  807MOL0     C 8872   1.144   1.105   5.746 -0.2814 -0.0144  0.1314
  807MOL0     C 8873   1.069   1.210   5.674  0.0254  0.3784 -0.0338
  807MOL0     C 8874   1.014   1.315   5.627 -0.3893  0.8300 -0.1907
  807MOL0     C 8875   1.478   1.576   6.234 -0.5427 -0.6340  0.0307
  807MOL0     C 8876   1.601   1.599   6.290  0.4525 -0.2836  0.3979
  807MOL0     C 8877   1.617   1.709   6.407 -0.3334  0.8613  1.0815
  807MOL0     H 8878   2.058   1.399   6.400  2.4271 -0.9845  0.9154
  807MOL0     H 8879   2.243   1.395   6.535 -1.4440 -1.6087  1.8747
  807MOL0     H 8880   2.473   1.448   6.589  1.7157  0.0087  1.3728
  807MOL0     H 8881   2.480   1.564   6.457 -2.6782 -0.0938  0.3864
  807MOL0     H 8882   2.600   1.627   6.717 -0.7094  0.4843 -0.0327
  807MOL0     H 8883   2.645   1.700   6.562 -0.5328  0.1842  0.2554
  807MOL0     H 8884   2.747   1.475   6.493 -1.9219 -0.6137  0.0323
  807MOL0     H 8885   2.691   1.403   6.642 -0.2122 -2.3228 -1.9139
  807MOL0     H 8886   2.871   1.644   6.620  1.3521 -1.0867 -1.9822
  807MOL0     H 8887   2.856   1.551   6.763  3.5477 -0.8174  0.1173
  807MOL0     H 8888   2.974   1.353   6.655  0.3097 -0.8989 -2.2549
  807MOL0     H 8889   2.969   1.419   6.500 -0.5889 -1.7644  0.3124
  807MOL0     H 8890   3.181   1.427   6.621 -0.8089 -0.6363  2.6418
  807MOL0     H 8891   3.130   1.602   6.592  0.1138  0.6938 -0.8013
  807MOL0     H 8892   3.108   1.453   6.854  4.1731  0.1434  0.1356
  807MOL0     H 8893   3.053   1.605   6.833 -1.3393 -1.3063  0.2699
  807MOL0     H 8894   3.295   1.685   6.757  1.6163 -1.1036 -0.1349
  807MOL0     H 8895   3.246   1.661   6.928 -1.4296 -1.7369  0.8886
  807MOL0     H 8896   3.468   1.608   7.037  0.2024  4.0984 -2.9899
  807MOL0     H 8897   3.690   1.507   7.086  0.9358  0.2697  0.1600
  807MOL0     H 8898   3.656   1.333   7.095  0.2558  1.8459  2.4828
  807MOL0     H 8899   3.846   1.442   6.885  0.1482  1.1313  0.6011
  807MOL0     H 8900   3.888   1.438   7.046  1.9433  2.1458 -3.4301
  807MOL0     H 8901   3.781   1.187   6.912 -1.0269  0.6600  2.1388
  807MOL0     H 8902   3.858   1.183   7.063  0.4779  1.3485  0.1043
  807MOL0     H 8903   4.028   1.272   6.826 -0.0966 -3.5194 -1.9335
  807MOL0     H 8904   4.023   1.115   6.919  2.8711 -0.3731 -0.7178
  807MOL0     H 8905   4.218   1.370   7.225  1.9625  1.6573 -1.1312
  807MOL0     H 8906   4.455   1.336   7.269 -1.4908 -0.7611  1.8151
  807MOL0     H 8907   4.823   1.340   7.368 -2.3666 -0.2623  0.4600
  807MOL0     H 8908   5.042   1.275   7.461 -1.9099  1.9513 -0.7585
  807MOL0     H 8909   5.272   1.211   7.390  2.0819  0.7536  1.1121
  807MOL0     H 8910   5.233   1.135   7.545 -0.4943 -0.2331  0.0264
  807MOL0     H 8911   5.378   0.936   7.469  0.0553 -0.3405 -0.9002
  807MOL0     H 8912   5.416   1.034   7.324 -0.2006 -0.1490 -0.7318
  807MOL0     H 8913   5.556   1.168   7.433 -0.8766 -1.7777 -2.1895
  807MOL0     H 8914   5.482   1.133   7.593 -2.0029  1.1635 -1.2344
  807MOL0     H 8915   5.621   0.908   7.442 -0.4619 -1.0731  0.3484
  807MOL0     H 8916   5.615   0.915   7.603 -2.7835  0.3825 -1.7242
  807MOL0     H 8917   5.775   1.136   7.588 -0.8945 -0.8779  0.0444
  807MOL0     H 8918   5.816   1.076   7.437 -3.2545  2.8664 -0.2489
  807MOL0     H 8919   5.833   0.924   7.699  1.3067 -0.8445  0.8907
  807MOL0     H 8920   5.872   0.846   7.541  0.9427  1.4801 -1.6291
  807MOL0     H 8921   6.006   1.078   7.666 -0.7386  0.6133 -1.8344
  807MOL0     H 8922   6.048   1.008   7.497 -0.6421  2.5990  0.2460
  807MOL0     H 8923   6.185   0.965   7.725  0.5880  1.1697 -1.1789
  807MOL0     H 8924   6.052   0.844   7.749 -0.7807 -1.2210 -1.1025
  807MOL0     H 8925   5.011   0.891   7.252  1.9417 -0.4173  1.4673
  807MOL0     H 8926   4.799   0.969   7.166  0.2430 -0.3639  0.3233
  807MOL0     H 8927   4.461   1.106   6.889 -2.0130  2.5880 -2.8320
  807MOL0     H 8928   4.231   1.153   6.856 -1.5428  1.5150  0.2623
  807MOL0     H 8929   2.213   1.810   6.620  0.6862  1.9666 -3.7406
  807MOL0     H 8930   1.991   1.804   6.535  1.7162  0.9478 -1.1540
  807MOL0     H 8931   1.775   1.384   6.100  0.7815  0.5489  1.2162
  807MOL0     H 8932   1.556   1.347   5.986 -1.5247  1.5126 -0.6633
  807MOL0     H 8933   1.186   1.359   6.112  1.0128 -0.3780  1.5551
  807MOL0     H 8934   1.328   1.268   6.097 -2.0516  0.1114  1.8157
  807MOL0     H 8935   1.333   1.305   5.854 -1.1188 -1.2036 -0.1606
  807MOL0     H 8936   1.173   1.367   5.847 -0.4161 -3.0454 -2.2593
  807MOL0     H 8937   1.073   1.174   5.959  0.1526  0.1002  1.0740
  807MOL0     H 8938   1.232   1.093   5.952 -1.9007 -3.9530 -2.0424
  807MOL0     H 8939   1.246   1.093   5.707  1.6951  5.2575  2.6864
  807MOL0     H 8940   1.087   1.012   5.742 -0.2273 -0.0175 -1.8800
  807MOL0     H 8941   0.982   1.408   5.586  1.0147  0.5664 -2.0377
  807MOL0     H 8942   1.394   1.640   6.262  0.3942  0.8831 -0.4873
  807MOL0     H 8943   1.522   1.745   6.446  0.0995  1.9732  1.1342
  807MOL0     H 8944   1.675   1.663   6.488 -0.7255 -0.9235  0.4097
  807MOL0     H 8945   1.678   1.790   6.368  0.7579 -1.1841 -1.8658
  808MOL0     O 8946  10.101   1.420   7.067  0.3251 -0.3545  0.2551
  808MOL0     C 8947  10.029   1.320   7.054 -0.7105  0.0589 -0.5511
  808MOL0     O 8948  10.075   1.192   7.030  0.3904  0.0186  0.1389
  808MOL0     C 8949  10.208   1.170   7.023  0.2107  0.1407  0.3266
  808MOL0     C 8950  10.261   1.110   6.907 -0.5951 -0.0770  0.2744
  808MOL0     C 8951  10.404   1.087   6.897 -0.1241  0.2218 -0.5511
  808MOL0     C 8952  10.488   1.099   7.008  0.0573 -0.8096 -0.1980
  808MOL0     O 8953  10.619   1.054   7.016  0.3571 -0.0451 -0.3020
  808MOL0     C 8954  10.660   0.970   6.899 -0.4006 -0.5526  0.2424
  808MOL0     C 8955  10.814   0.930   6.916  1.1689  0.0948  0.2003
  808MOL0     C 8956  10.828   0.845   7.038  0.5596  0.0238 -0.3392
  808MOL0     C 8957  10.967   0.782   7.025 -0.2335  0.4789 -1.0386
  808MOL0     C 8958  11.011   0.702   7.147  0.6622  0.5936 -0.1366
  808MOL0     C 8959  11.011   0.550   7.128  0.9872  0.6840  0.8560
  808MOL0     C 8960  11.036   0.464   7.253  0.4203 -0.3651 -0.2065
  808MOL0     C 8961  11.186   0.449   7.288 -0.2893  0.8712  0.3223
  808MOL0     N 8962  11.239   0.327   7.218  0.5238 -0.1226  0.5926
  808MOL0     C 8963  11.217   0.200   7.268  0.3405 -0.4301 -1.5001
  808MOL0     C 8964  11.290   0.127   7.194  0.2675  0.1392 -0.6911
  808MOL0     C 8965  11.300  -0.016   7.220  0.5141  0.0134  0.2495
  808MOL0     C 8966  11.394  -0.058   7.345  0.1397 -0.5183  0.3517
  808MOL0     C 8967  11.541  -0.024   7.310  0.0366  0.7156  0.5157
  808MOL0     C 8968  11.604  -0.117   7.208  0.6720 -0.2690  0.1595
  808MOL0     O 8969  11.567  -0.254   7.241  0.2620  0.3195  0.2972
  808MOL0     C 8970  11.655  -0.352   7.242  1.1638  0.5509 -0.2351
  808MOL0     C 8971  11.609  -0.463   7.318  0.3080  0.1744 -0.2022
  808MOL0     C 8972  11.689  -0.576   7.331 -0.3773  0.3151  0.5702
  808MOL0     C 8973  11.811  -0.582   7.255  0.1825  1.1083 -0.2826
  808MOL0     C 8974  11.886  -0.710   7.269  0.1618 -0.3199  0.4445
  808MOL0     O 8975  11.874  -0.785   7.382  0.2116 -0.3038  0.5581
  808MOL0     C 8976  11.985  -0.861   7.406 -0.2599 -0.2180 -1.1197
  808MOL0     C 8977  12.120  -0.809   7.406  1.1848 -0.7473  0.1681
  808MOL0     C 8978  12.219  -0.893   7.427 -1.2232  0.0360  0.3996
  808MOL0     C 8979  12.201  -1.036   7.438 -0.7858  0.4703  0.2734
  808MOL0     O 8980  12.300  -1.129   7.461 -0.4543 -0.5553  0.3202
  808MOL0     C 8981  12.436  -1.095   7.429 -0.2122 -0.0607 -0.3641
  808MOL0     C 8982  12.506  -1.220   7.392 -0.0930  0.3339  0.0253
  808MOL0     C 8983  12.624  -1.196   7.302  0.5596 -0.0418  0.1065
  808MOL0     C 8984  12.717  -1.325   7.278 -0.4921  0.4956 -0.1242
  808MOL0     C 8985  12.848  -1.302   7.205 -1.0005 -0.6424  0.1039
  808MOL0     C 8986  12.953  -1.219   7.285  0.1690 -0.3720 -0.3565
  808MOL0     C 8987  13.099  -1.259   7.247  0.5672  0.9091 -0.3249
  808MOL0     C 8988  13.222  -1.206   7.336 -0.7897  0.0406  0.2309
  808MOL0    Cl 8989  13.209  -1.018   7.352 -0.0899  0.2714  0.0355
  808MOL0     C 8990  12.073  -1.084   7.448 -0.2638 -0.2580  0.0819
  808MOL0     C 8991  11.958  -0.995   7.444  0.1744  0.2361  0.4522
  808MOL0     O 8992  11.952  -0.737   7.175 -0.4846  0.2778 -0.2859
  808MOL0     C 8993  11.852  -0.469   7.185 -0.4487 -0.1453 -0.7255
  808MOL0     C 8994  11.779  -0.360   7.186  0.2718 -0.0548  1.1174
  808MOL0     N 8995  11.351   0.193   7.095 -0.2489 -0.3383 -0.5452
  808MOL0     N 8996  11.326   0.320   7.110 -0.2487  0.0141  0.4672
  808MOL0     C 8997  10.439   1.179   7.114 -0.6442  0.1338 -0.5123
  808MOL0     C 8998  10.299   1.210   7.121 -0.0188 -0.2096 -1.3289
  808MOL0     C 8999   9.890   1.336   7.055 -0.4640 -0.4885 -0.2804
  808MOL0     C 9000   9.818   1.276   6.956  0.4087 -0.2447 -0.0500
  808MOL0     C 9001   9.674   1.273   6.956 -0.1985 -0.0870  0.5953
  808MOL0     C 9002   9.607   1.330   7.065  0.0150  0.8730  0.4527
  808MOL0     O 9003   9.472   1.316   7.090  0.0226 -0.3979 -0.1556
  808MOL0     C 9004   9.393   1.438   7.113  0.2045  0.2297 -0.4323
  808MOL0     C 9005   9.294   1.454   7.000 -0.9174  0.0875 -0.1556
  808MOL0     C 9006   9.356   1.464   6.863 -0.4156  0.6538  0.3535
  808MOL0     C 9007   9.252   1.478   6.752 -0.0717 -0.2557  0.3421
  808MOL0     C 9008   9.155   1.372   6.741 -1.2116  0.4121  0.0741
  808MOL0     C 9009   9.059   1.298   6.731  0.0724  0.0961 -0.5731
  808MOL0     C 9010   9.684   1.403   7.158 -0.1788  0.0493  0.3003
  808MOL0     C 9011   9.828   1.417   7.150  0.9008 -0.2854 -0.4919
  808MOL0     C 9012   9.909   1.496   7.256  0.6247  0.2869 -0.0288
  808MOL0     H 9013  10.199   1.086   6.821  2.1764 -3.2688 -1.0739
  808MOL0     H 9014  10.447   1.040   6.810 -0.1920 -0.6110 -0.1513
  808MOL0     H 9015  10.596   0.881   6.902  0.5525 -1.5736 -3.7002
  808MOL0     H 9016  10.651   1.030   6.808  1.4808 -1.9675 -0.9557
  808MOL0     H 9017  10.867   1.024   6.933  0.0705  0.4356  1.9882
  808MOL0     H 9018  10.845   0.886   6.821 -0.0301 -0.8829  0.2378
  808MOL0     H 9019  10.751   0.768   7.047 -0.3133  1.1007  3.0823
  808MOL0     H 9020  10.816   0.911   7.125  3.1604  0.6023 -0.3375
  808MOL0     H 9021  10.977   0.714   6.940 -0.6717 -0.8998 -0.0385
  808MOL0     H 9022  11.042   0.860   7.011  0.2660  0.6821  1.9852
  808MOL0     H 9023  11.114   0.721   7.180  0.1143 -0.2209  2.3091
  808MOL0     H 9024  10.943   0.722   7.230 -1.7520 -0.7272 -1.7048
  808MOL0     H 9025  10.910   0.526   7.091  1.5819  0.9539 -1.0557
  808MOL0     H 9026  11.077   0.516   7.048 -1.5504 -0.5228 -0.8680
  808MOL0     H 9027  11.001   0.362   7.236 -2.8375  0.0157  2.9382
  808MOL0     H 9028  10.982   0.507   7.338 -0.7273 -1.4122 -0.3786
  808MOL0     H 9029  11.238   0.543   7.268  0.2842  0.5459  0.2682
  808MOL0     H 9030  11.198   0.435   7.396 -2.6025  3.2022  0.9886
  808MOL0     H 9031  11.167   0.172   7.361  3.1912  0.0407  0.3202
  808MOL0     H 9032  11.201  -0.060   7.237 -1.0619  2.4362 -1.9807
  808MOL0     H 9033  11.346  -0.059   7.130  1.5634  1.3769  0.1101
  808MOL0     H 9034  11.367  -0.007   7.438 -1.5551 -1.9230  0.6918
  808MOL0     H 9035  11.370  -0.163   7.360 -4.5433  0.2598 -0.0784
  808MOL0     H 9036  11.602  -0.032   7.400  0.5842  0.3636  0.1162
  808MOL0     H 9037  11.552   0.080   7.276  0.6131 -0.1688 -2.2212
  808MOL0     H 9038  11.713  -0.111   7.210  1.1315 -1.8265 -5.1336
  808MOL0     H 9039  11.560  -0.098   7.109 -2.3284 -3.2043  0.7284
  808MOL0     H 9040  11.515  -0.457   7.371 -0.5102 -2.9756 -1.1065
  808MOL0     H 9041  11.664  -0.658   7.398 -1.2194  1.7928  2.1278
  808MOL0     H 9042  12.145  -0.704   7.400  1.7400 -0.8203  1.0358
  808MOL0     H 9043  12.321  -0.858   7.435 -0.6552  0.0238 -4.1789
  808MOL0     H 9044  12.439  -1.032   7.340  3.2829 -0.2412 -0.5116
  808MOL0     H 9045  12.485  -1.043   7.512 -1.5034  0.8400 -0.1428
  808MOL0     H 9046  12.548  -1.267   7.482 -2.4254 -2.7859 -0.3496
  808MOL0     H 9047  12.440  -1.297   7.351  0.8476 -1.3490  1.5181
  808MOL0     H 9048  12.585  -1.170   7.204  0.3453  0.1637  0.2444
  808MOL0     H 9049  12.668  -1.103   7.340 -3.8352  1.2521  2.9080
  808MOL0     H 9050  12.663  -1.403   7.223 -0.0266  0.7997 -1.0454
  808MOL0     H 9051  12.736  -1.378   7.371  0.3083 -1.1023 -1.1572
  808MOL0     H 9052  12.837  -1.267   7.101  0.1978 -1.5498 -0.3525
  808MOL0     H 9053  12.895  -1.401   7.207 -1.8987 -1.0626  0.6082
  808MOL0     H 9054  12.926  -1.114   7.268 -0.1879  0.1007  2.6937
  808MOL0     H 9055  12.935  -1.237   7.391  1.1750 -0.2516 -0.1565
  808MOL0     H 9056  13.125  -1.217   7.149 -3.1784  2.0805 -0.9723
  808MOL0     H 9057  13.108  -1.366   7.231 -0.6891  0.9107 -1.1713
  808MOL0     H 9058  13.222  -1.249   7.437  1.7560 -0.1116  0.2248
  808MOL0     H 9059  13.313  -1.242   7.288 -0.5373 -0.4917  1.0681
  808MOL0     H 9060  12.060  -1.185   7.484 -0.6168  0.3566  1.7955
  808MOL0     H 9061  11.858  -1.032   7.462  0.3065 -0.5331 -0.3082
  808MOL0     H 9062  11.950  -0.470   7.138 -0.6981  2.5039 -1.4318
  808MOL0     H 9063  11.820  -0.271   7.139 -0.8485  0.3387  0.8566
  808MOL0     H 9064  10.506   1.200   7.197 -0.1052  3.7151 -1.6891
  808MOL0     H 9065  10.258   1.249   7.214 -0.1330 -1.9346 -0.6118
  808MOL0     H 9066   9.868   1.215   6.881  0.9798 -0.7106  0.6978
  808MOL0     H 9067   9.611   1.238   6.874 -0.3806  4.1040 -1.2998
  808MOL0     H 9068   9.465   1.520   7.111  0.2292  0.2051 -0.6747
  808MOL0     H 9069   9.345   1.444   7.210  0.7937 -2.1955  0.0974
  808MOL0     H 9070   9.233   1.543   7.018  0.6144  1.6608 -2.2788
  808MOL0     H 9071   9.229   1.366   6.999  0.0421 -0.6458 -1.1152
  808MOL0     H 9072   9.422   1.377   6.852 -2.4621 -1.4678  3.1295
  808MOL0     H 9073   9.416   1.555   6.855 -1.1426  0.9870 -2.0575
  808MOL0     H 9074   9.210   1.578   6.748 -2.4934 -1.2069 -3.8269
  808MOL0     H 9075   9.304   1.491   6.656  1.2421  1.1287  1.1921
  808MOL0     H 9076   8.980   1.226   6.724 -0.1615  0.3151 -0.1399
  808MOL0     H 9077   9.636   1.452   7.242  2.1029  0.1484  1.6192
  808MOL0     H 9078   9.858   1.480   7.352 -1.8792  1.8556 -1.0042
  808MOL0     H 9079  10.018   1.488   7.267  0.7504  2.1767  0.4137
  808MOL0     H 9080   9.901   1.603   7.235  0.8151  0.1647 -0.7353
  809MOL0     O 9081   8.579   3.408   7.432 -0.2140 -0.8982  0.5040
  809MOL0     C 9082   8.546   3.529   7.413  0.3170 -0.1814  0.8650
  809MOL0     O 9083   8.422   3.578   7.380  1.3446 -0.0269 -0.6354
  809MOL0     C 9084   8.312   3.495   7.369 -0.0749 -0.1262  1.8927
  809MOL0     C 9085   8.214   3.535   7.281 -0.0769 -1.4028 -0.1512
  809MOL0     C 9086   8.095   3.463   7.266  0.3227 -0.0035  0.4733
  809MOL0     C 9087   8.080   3.341   7.336  0.3858  0.5858 -0.1720
  809MOL0     O 9088   7.974   3.258   7.322  0.5568 -0.2005 -0.1285
  809MOL0     C 9089   7.985   3.118   7.345  0.3142  0.6346  0.7374
  809MOL0     C 9090   7.854   3.055   7.289 -0.9812  0.0316  0.7122
  809MOL0     C 9091   7.825   3.078   7.131 -0.6655  0.3195 -0.7709
  809MOL0     C 9092   7.856   2.955   7.048  0.5313  0.1715 -0.0222
  809MOL0     C 9093   7.733   2.863   7.051  0.1107 -0.0795  0.4835
  809MOL0     C 9094   7.669   2.854   6.908 -0.1851 -0.1908 -0.0361
  809MOL0     C 9095   7.537   2.774   6.898  0.3119  0.3000 -0.5622
  809MOL0     C 9096   7.421   2.866   6.938  0.0647 -0.1562 -0.0968
  809MOL0     N 9097   7.303   2.789   6.995  0.5178 -0.3176 -0.4884
  809MOL0     C 9098   7.311   2.707   7.102 -0.5208  0.2816  0.1969
  809MOL0     C 9099   7.190   2.707   7.154  0.0628  0.3074  0.4469
  809MOL0     C 9100   7.146   2.614   7.260 -0.2101 -0.1671  0.1744
  809MOL0     C 9101   7.264   2.545   7.342 -0.0185 -0.6930 -0.1312
  809MOL0     C 9102   7.310   2.630   7.462 -0.8838 -1.1713 -0.0735
  809MOL0     C 9103   7.400   2.751   7.436  0.8705  0.1077 -0.0319
  809MOL0     O 9104   7.463   2.789   7.556  0.6180 -0.2892 -0.4388
  809MOL0     C 9105   7.602   2.784   7.579 -0.1096 -0.7847  0.6621
  809MOL0     C 9106   7.658   2.846   7.693  0.1170 -0.2431 -0.5566
  809MOL0     C 9107   7.796   2.866   7.700 -0.4124  0.3151 -0.6472
  809MOL0     C 9108   7.878   2.825   7.597  0.6998  0.2510 -0.1445
  809MOL0     C 9109   8.014   2.870   7.581  0.2732  0.6391 -0.0395
  809MOL0     O 9110   8.077   2.829   7.464 -0.7397 -0.0631 -0.4351
  809MOL0     C 9111   8.206   2.869   7.438  0.5884 -0.4855  0.5022
  809MOL0     C 9112   8.234   2.865   7.297 -0.1427  0.1162  0.4597
  809MOL0     C 9113   8.358   2.913   7.247  0.1471  0.0775 -0.4616
  809MOL0     C 9114   8.464   2.951   7.331  0.4283  0.0346  0.0192
  809MOL0     O 9115   8.585   2.989   7.285 -0.0593 -0.0056  0.2938
  809MOL0     C 9116   8.651   3.109   7.329  0.6299  0.2137 -0.3523
  809MOL0     C 9117   8.799   3.113   7.288 -0.7190  0.2157 -0.4441
  809MOL0     C 9118   8.907   3.074   7.389  0.6851  0.9208  0.4830
  809MOL0     C 9119   8.952   3.183   7.489  0.8823  1.2319 -0.0317
  809MOL0     C 9120   9.066   3.147   7.575  0.0659 -0.1159  0.4547
  809MOL0     C 9121   9.199   3.166   7.503 -0.0989 -0.1250  0.1898
  809MOL0     C 9122   9.315   3.142   7.601  0.0060  0.3225  0.0415
  809MOL0     C 9123   9.447   3.115   7.533 -0.0565 -0.8910 -0.6488
  809MOL0    Cl 9124   9.464   2.955   7.454 -0.2094 -0.1374  0.0453
  809MOL0     C 9125   8.432   2.948   7.470  0.4126 -0.5304  0.7577
  809MOL0     C 9126   8.308   2.913   7.523  0.0335  0.5407 -0.3588
  809MOL0     O 9127   8.057   2.954   7.659 -0.8143  0.3505 -0.5425
  809MOL0     C 9128   7.822   2.741   7.495  0.3965 -0.4238 -0.1609
  809MOL0     C 9129   7.683   2.732   7.484 -0.7942  0.8317 -0.1445
  809MOL0     N 9130   7.109   2.792   7.079 -0.2342 -0.5608 -0.6085
  809MOL0     N 9131   7.177   2.838   6.986 -0.3105 -0.2014 -0.1604
  809MOL0     C 9132   8.177   3.309   7.434  0.5150 -0.0774 -0.4666
  809MOL0     C 9133   8.288   3.385   7.449  0.1969  0.8664 -0.4415
  809MOL0     C 9134   8.660   3.628   7.419 -1.3192  1.3091  0.1513
  809MOL0     C 9135   8.645   3.742   7.344 -0.0430  0.0886 -0.4147
  809MOL0     C 9136   8.742   3.844   7.344 -0.3384  0.3839 -0.6418
  809MOL0     C 9137   8.848   3.833   7.429  0.2230  1.1331  1.0061
  809MOL0     O 9138   8.952   3.917   7.434  0.7213  1.2889 -0.1016
  809MOL0     C 9139   8.981   4.011   7.333  0.7160  0.5846  0.1909
  809MOL0     C 9140   9.116   4.085   7.358  0.5171 -0.5564  0.9063
  809MOL0     C 9141   9.246   4.007   7.323 -0.4603  0.4082  0.3142
  809MOL0     C 9142   9.251   3.982   7.176 -0.2435  0.0851  0.1112
  809MOL0     C 9143   9.376   3.928   7.128  0.7758 -0.1421 -0.4437
  809MOL0     C 9144   9.465   3.859   7.091 -0.0836 -0.2155  1.1662
  809MOL0     C 9145   8.857   3.725   7.514 -0.5262 -0.4831  0.9008
  809MOL0     C 9146   8.765   3.619   7.512 -0.3486 -0.0317  0.1998
  809MOL0     C 9147   8.789   3.499   7.603  0.4739  0.3221 -0.5709
  809MOL0     H 9148   8.250   3.614   7.216  0.0609 -2.3673 -1.2770
  809MOL0     H 9149   8.019   3.495   7.195 -0.3398 -0.6230  0.8911
  809MOL0     H 9150   8.070   3.075   7.289  0.4470  1.3772  0.3582
  809MOL0     H 9151   7.993   3.092   7.451  2.7649 -3.3150 -0.1723
  809MOL0     H 9152   7.777   3.110   7.343 -0.6029 -0.5042  1.8250
  809MOL0     H 9153   7.852   2.953   7.328 -1.1609  0.1188  0.9323
  809MOL0     H 9154   7.894   3.156   7.096 -0.0207 -0.3896 -1.1176
  809MOL0     H 9155   7.725   3.118   7.116  0.1033  2.4870 -0.4986
  809MOL0     H 9156   7.868   2.981   6.942 -4.5840  0.4338 -0.7909
  809MOL0     H 9157   7.946   2.914   7.095  0.6712 -0.7275 -1.0398
  809MOL0     H 9158   7.772   2.764   7.076  0.7233  0.2604  0.8716
  809MOL0     H 9159   7.666   2.895   7.132 -0.5193 -2.3803  0.9529
  809MOL0     H 9160   7.640   2.952   6.870 -1.2185 -1.4894 -2.8331
  809MOL0     H 9161   7.733   2.816   6.828  0.1690  3.6087 -1.7891
  809MOL0     H 9162   7.531   2.688   6.966 -1.7128  1.0032  0.2158
  809MOL0     H 9163   7.529   2.747   6.792  1.1903  3.0623 -1.4056
  809MOL0     H 9164   7.458   2.929   7.019  0.4227 -0.9681  0.3830
  809MOL0     H 9165   7.395   2.928   6.851 -0.5319  0.8852  0.7955
  809MOL0     H 9166   7.399   2.646   7.121 -0.8441 -0.4618 -0.6165
  809MOL0     H 9167   7.062   2.654   7.318 -1.6215 -2.5416 -0.0594
  809MOL0     H 9168   7.102   2.531   7.203  1.3460 -1.7189  1.1174
  809MOL0     H 9169   7.216   2.455   7.383 -0.5052 -0.5285 -0.3287
  809MOL0     H 9170   7.350   2.508   7.286  0.2198  0.3072 -0.4535
  809MOL0     H 9171   7.357   2.562   7.534 -1.7233 -0.2662  1.3894
  809MOL0     H 9172   7.227   2.674   7.518 -1.4790  1.6395 -2.9095
  809MOL0     H 9173   7.333   2.831   7.403 -1.5934 -1.5833  0.6408
  809MOL0     H 9174   7.473   2.731   7.356 -0.2252 -2.8766 -0.4049
  809MOL0     H 9175   7.591   2.869   7.776  1.4870 -0.6697  0.7049
  809MOL0     H 9176   7.840   2.918   7.785 -0.5083 -0.8612  0.1419
  809MOL0     H 9177   8.151   2.839   7.231  1.2419 -2.0069 -0.5735
  809MOL0     H 9178   8.352   2.919   7.139 -1.2172 -2.7380 -0.6349
  809MOL0     H 9179   8.587   3.189   7.288 -0.3628  1.4538  3.2760
  809MOL0     H 9180   8.637   3.130   7.435 -0.9398  0.7980 -0.6341
  809MOL0     H 9181   8.796   3.050   7.198 -0.5796  1.5613 -1.4230
  809MOL0     H 9182   8.823   3.213   7.251 -0.1765  0.5076  0.6650
  809MOL0     H 9183   8.870   2.980   7.432  1.7125 -1.6031 -3.5891
  809MOL0     H 9184   9.001   3.037   7.348  0.3930  0.2115  0.4358
  809MOL0     H 9185   8.878   3.219   7.561  0.3785  0.6910 -0.2736
  809MOL0     H 9186   8.985   3.269   7.430  1.9497  1.2807  0.6040
  809MOL0     H 9187   9.055   3.042   7.605 -3.8030 -0.4059 -1.3193
  809MOL0     H 9188   9.059   3.207   7.666  0.0066 -1.0486  1.0764
  809MOL0     H 9189   9.211   3.096   7.419  1.6189  1.0261 -0.5721
  809MOL0     H 9190   9.199   3.258   7.444  1.1875 -0.9008 -1.1070
  809MOL0     H 9191   9.288   3.060   7.668 -1.2736 -0.6890 -1.6336
  809MOL0     H 9192   9.326   3.233   7.660  1.1149  0.7693 -0.8253
  809MOL0     H 9193   9.470   3.190   7.457  2.4415 -0.9905 -0.0854
  809MOL0     H 9194   9.521   3.118   7.614  1.1929  2.4133 -1.7317
  809MOL0     H 9195   8.506   2.977   7.543  0.9153 -0.1010  0.0902
  809MOL0     H 9196   8.298   2.917   7.631 -2.0581 -0.1205 -0.4796
  809MOL0     H 9197   7.886   2.686   7.426 -1.2643 -2.6131 -0.0542
  809MOL0     H 9198   7.661   2.684   7.389  0.6052 -1.4600  0.6125
  809MOL0     H 9199   8.152   3.231   7.506  0.7483 -2.0531 -2.4202
  809MOL0     H 9200   8.356   3.340   7.520  0.3972 -1.8473 -2.2312
  809MOL0     H 9201   8.571   3.760   7.267 -2.1140  3.0450  2.0131
  809MOL0     H 9202   8.736   3.928   7.276  1.7284  1.3961  0.3518
  809MOL0     H 9203   8.897   4.080   7.333 -0.9860 -1.3969  1.3396
  809MOL0     H 9204   8.979   3.957   7.238 -1.4667 -0.1182  0.5923
  809MOL0     H 9205   9.111   4.126   7.459 -0.1620  0.7443  0.3724
  809MOL0     H 9206   9.104   4.163   7.281  1.2996 -0.2844  1.0507
  809MOL0     H 9207   9.259   3.922   7.390  1.0421  1.5260  1.5193
  809MOL0     H 9208   9.335   4.061   7.356  0.3137 -0.2824 -0.5844
  809MOL0     H 9209   9.175   3.907   7.155  1.5244 -2.4560  2.2387
  809MOL0     H 9210   9.221   4.075   7.127 -0.2776  0.4239  0.7564
  809MOL0     H 9211   9.545   3.793   7.063  0.6246 -0.0777  2.7759
  809MOL0     H 9212   8.945   3.735   7.576  0.2566 -2.6150  0.2173
  809MOL0     H 9213   8.854   3.430   7.548  1.0447  0.7810 -0.4806
  809MOL0     H 9214   8.849   3.523   7.691  1.0713  0.7343 -1.0836
  809MOL0     H 9215   8.700   3.444   7.636  0.8488 -0.0181 -0.1376
  810MOL0     O 9216   4.146   0.443   6.730 -0.0689 -0.1642  0.0148
  810MOL0     C 9217   4.121   0.353   6.813 -0.4634 -0.6487 -0.0220
  810MOL0     O 9218   4.208   0.314   6.911  0.4057 -0.6106 -0.4211
  810MOL0     C 9219   4.339   0.336   6.895  0.0237 -0.4397 -0.5053
  810MOL0     C 9220   4.402   0.414   6.989  0.4244  0.4151 -0.0772
  810MOL0     C 9221   4.539   0.427   6.999 -0.7608  0.4376  0.8490
  810MOL0     C 9222   4.620   0.366   6.909 -0.2422  0.9325  0.5493
  810MOL0     O 9223   4.754   0.370   6.927  0.4277  0.5109 -0.4250
  810MOL0     C 9224   4.836   0.261   6.885  0.0217  0.1984 -0.1646
  810MOL0     C 9225   4.980   0.283   6.928  0.4570  0.5103  0.5783
  810MOL0     C 9226   5.063   0.159   6.886 -0.4745 -0.0521  0.4292
  810MOL0     C 9227   5.066   0.052   7.001 -0.5555  0.1963 -0.6146
  810MOL0     C 9228   5.101  -0.088   6.951  0.4115 -0.4020 -0.3007
  810MOL0     C 9229   5.103  -0.205   7.059  0.2228  0.0219  0.0954
  810MOL0     C 9230   5.090  -0.346   6.997  0.7573 -0.8247 -0.3529
  810MOL0     C 9231   5.202  -0.374   6.889 -0.0968  1.1086 -0.7081
  810MOL0     N 9232   5.335  -0.366   6.956 -0.1567  0.4907  0.9231
  810MOL0     C 9233   5.376  -0.436   7.066 -0.3232 -0.0911  0.2042
  810MOL0     C 9234   5.480  -0.368   7.112 -1.1435 -1.1823 -0.0509
  810MOL0     C 9235   5.577  -0.396   7.234  0.8795 -0.1959 -0.3128
  810MOL0     C 9236   5.697  -0.295   7.247  0.5473 -0.1116  0.3952
  810MOL0     C 9237   5.672  -0.139   7.275  0.1976  0.4241  0.7484
  810MOL0     C 9238   5.798  -0.058   7.225 -0.4211  0.5397  0.2460
  810MOL0     O 9239   5.915  -0.119   7.275 -0.0925 -0.2551 -0.2357
  810MOL0     C 9240   5.976  -0.066   7.388  0.0147  0.7789 -0.5335
  810MOL0     C 9241   5.921   0.007   7.493 -0.1115  0.0710 -0.1330
  810MOL0     C 9242   5.999   0.031   7.607  0.9598 -0.0055  0.3464
  810MOL0     C 9243   6.140  -0.002   7.611  0.7338 -1.0760  0.1626
  810MOL0     C 9244   6.236   0.064   7.703 -0.0763 -0.1936 -0.5441
  810MOL0     O 9245   6.365   0.005   7.710  1.2212 -0.1373  0.3023
  810MOL0     C 9246   6.460   0.058   7.795  0.6545 -0.6807 -0.0438
  810MOL0     C 9247   6.499   0.194   7.803  0.3935  0.0019  0.9223
  810MOL0     C 9248   6.597   0.228   7.889 -1.3744  0.0643 -0.6185
  810MOL0     C 9249   6.680   0.128   7.948  0.5623 -0.1165 -0.2745
  810MOL0     O 9250   6.790   0.157   8.028  0.1317 -0.3211  0.2274
  810MOL0     C 9251   6.802   0.289   8.085 -0.5788 -0.5730  0.3244
  810MOL0     C 9252   6.906   0.287   8.193 -0.6142  0.2636  0.1020
  810MOL0     C 9253   6.891   0.414   8.275  0.8054  0.8151  0.0694
  810MOL0     C 9254   6.932   0.556   8.219 -0.1407  0.2088 -0.5136
  810MOL0     C 9255   7.081   0.546   8.180 -0.0893  0.1429  0.0344
  810MOL0     C 9256   7.174   0.555   8.300 -1.0618 -0.0528 -0.7134
  810MOL0     C 9257   7.323   0.536   8.271 -0.6180  0.7255 -0.3186
  810MOL0     C 9258   7.401   0.538   8.409  0.4293 -0.3501 -0.0934
  810MOL0    Cl 9259   7.587   0.556   8.408  0.0050  0.2855  0.3394
  810MOL0     C 9260   6.637  -0.005   7.947 -0.2228  1.3614 -0.0693
  810MOL0     C 9261   6.528  -0.047   7.868  0.2309 -0.7951 -0.3325
  810MOL0     O 9262   6.205   0.159   7.774 -0.7998 -0.0063  0.4157
  810MOL0     C 9263   6.195  -0.072   7.499 -0.0730 -0.5637 -0.5650
  810MOL0     C 9264   6.113  -0.106   7.400  1.2230 -0.7868  1.1883
  810MOL0     N 9265   5.501  -0.261   7.027  0.0929  0.0726 -0.5570
  810MOL0     N 9266   5.412  -0.253   6.935 -0.3288  0.6564 -0.1556
  810MOL0     C 9267   4.556   0.287   6.804 -0.9735 -0.6198 -0.3004
  810MOL0     C 9268   4.419   0.279   6.798 -0.6323  0.5642 -0.0501
  810MOL0     C 9269   3.986   0.305   6.818 -0.0201  0.1948  0.5317
  810MOL0     C 9270   3.935   0.247   6.942  0.8653 -0.4829  1.1851
  810MOL0     C 9271   3.817   0.201   6.958  0.6793 -0.0404  0.2088
  810MOL0     C 9272   3.717   0.212   6.863 -0.9864  0.7325  0.5214
  810MOL0     O 9273   3.591   0.163   6.890 -0.3545 -0.1040  0.1248
  810MOL0     C 9274   3.479   0.202   6.805  0.2964 -0.4547  0.6774
  810MOL0     C 9275   3.355   0.219   6.900  0.5729  0.1732 -0.0788
  810MOL0     C 9276   3.217   0.206   6.828  0.7993  0.6648 -0.2221
  810MOL0     C 9277   3.106   0.221   6.934  0.8015  0.3931  0.2383
  810MOL0     C 9278   2.977   0.224   6.871 -0.2176  0.1694  0.4898
  810MOL0     C 9279   2.869   0.219   6.823 -0.3179 -0.1476  0.8237
  810MOL0     C 9280   3.760   0.271   6.733 -0.1046 -0.2385  0.2721
  810MOL0     C 9281   3.893   0.317   6.715  0.1344  0.2056  0.1819
  810MOL0     C 9282   3.923   0.361   6.573 -0.2106  0.1549  0.0759
  810MOL0     H 9283   4.341   0.472   7.058  1.1010  1.8879 -0.6837
  810MOL0     H 9284   4.578   0.494   7.076  1.0764 -1.1783  1.3839
  810MOL0     H 9285   4.818   0.166   6.937  2.3669 -0.9479 -1.2825
  810MOL0     H 9286   4.825   0.244   6.778  4.5618  1.5682 -1.0733
  810MOL0     H 9287   4.994   0.289   7.036 -0.5702 -0.4680  0.7806
  810MOL0     H 9288   5.022   0.370   6.877 -0.5512  0.2603 -0.7241
  810MOL0     H 9289   5.166   0.184   6.857 -0.1400 -1.2074  0.5541
  810MOL0     H 9290   5.008   0.119   6.801 -0.0461  1.6713 -0.7079
  810MOL0     H 9291   5.152   0.086   7.059  0.0824  1.2633 -2.1231
  810MOL0     H 9292   4.978   0.047   7.065  2.0200 -0.9744  3.1829
  810MOL0     H 9293   5.012  -0.105   6.890 -1.1451  0.6852  1.5945
  810MOL0     H 9294   5.192  -0.084   6.889  1.7646  2.5485  1.6418
  810MOL0     H 9295   5.188  -0.192   7.126 -0.4605  2.9532  0.5511
  810MOL0     H 9296   5.014  -0.188   7.120  0.3873  3.6144 -0.4612
  810MOL0     H 9297   4.989  -0.354   6.956  0.5562  0.2649 -0.1157
  810MOL0     H 9298   5.093  -0.416   7.081 -0.3482  0.9828  1.2622
  810MOL0     H 9299   5.191  -0.476   6.851  2.1006  0.1661  0.9214
  810MOL0     H 9300   5.200  -0.302   6.806 -1.8193  0.5454 -1.1777
  810MOL0     H 9301   5.335  -0.532   7.096 -1.1415  0.1675 -0.0630
  810MOL0     H 9302   5.524  -0.406   7.329 -1.4117  3.2227 -1.0532
  810MOL0     H 9303   5.610  -0.498   7.213 -0.6577 -0.3309 -2.3730
  810MOL0     H 9304   5.773  -0.329   7.318  0.7392  0.5408  0.5132
  810MOL0     H 9305   5.745  -0.296   7.148 -0.3446  1.7974 -0.1009
  810MOL0     H 9306   5.657  -0.138   7.384  2.4500  1.7888  1.1095
  810MOL0     H 9307   5.594  -0.095   7.212  2.6633  1.0783 -2.0385
  810MOL0     H 9308   5.800   0.043   7.267  1.0610  0.3603  0.6757
  810MOL0     H 9309   5.812  -0.054   7.117 -0.0691  2.6148  0.3303
  810MOL0     H 9310   5.819   0.043   7.497 -0.0355  0.5757 -1.8824
  810MOL0     H 9311   5.976   0.099   7.688  2.5099  1.4873 -0.4036
  810MOL0     H 9312   6.446   0.267   7.743 -1.2801 -1.3848  0.6066
  810MOL0     H 9313   6.631   0.330   7.903  1.8677 -0.8215 -1.1663
  810MOL0     H 9314   6.830   0.364   8.010 -1.8010  0.8022  1.2048
  810MOL0     H 9315   6.708   0.312   8.135 -0.3955 -2.0522  1.4194
  810MOL0     H 9316   6.879   0.205   8.259 -0.3266  1.4074  1.7091
  810MOL0     H 9317   7.005   0.257   8.158  0.1900 -0.4619  2.7630
  810MOL0     H 9318   6.790   0.412   8.316  0.5697 -0.1280 -0.5265
  810MOL0     H 9319   6.945   0.393   8.368 -0.4296 -0.3051  0.5617
  810MOL0     H 9320   6.915   0.626   8.302 -1.6053 -0.5437 -0.1482
  810MOL0     H 9321   6.866   0.584   8.136 -0.5295 -0.9505 -0.6101
  810MOL0     H 9322   7.102   0.627   8.110 -0.9551  1.6058  1.4056
  810MOL0     H 9323   7.096   0.453   8.124 -0.1668  0.4933 -0.5793
  810MOL0     H 9324   7.167   0.660   8.333  0.9804 -1.2424  4.6109
  810MOL0     H 9325   7.130   0.491   8.377  0.3932  0.7864  0.8956
  810MOL0     H 9326   7.372   0.618   8.218 -1.9291  0.9110 -1.2951
  810MOL0     H 9327   7.341   0.444   8.214  2.2890  2.1162 -1.8561
  810MOL0     H 9328   7.368   0.629   8.460  1.1724  1.7009 -3.0144
  810MOL0     H 9329   7.371   0.458   8.477  0.1863 -0.0140  0.1961
  810MOL0     H 9330   6.675  -0.085   8.010 -0.7104  0.9872 -0.2424
  810MOL0     H 9331   6.505  -0.151   7.847  0.4602 -0.5906 -1.7389
  810MOL0     H 9332   6.300  -0.096   7.498 -0.1610 -1.2270  1.7391
  810MOL0     H 9333   6.165  -0.158   7.320  0.2890  1.5925 -1.0992
  810MOL0     H 9334   4.616   0.242   6.726 -0.2372 -1.1086  0.5262
  810MOL0     H 9335   4.373   0.222   6.717  0.8098 -3.4053  1.6400
  810MOL0     H 9336   4.003   0.238   7.026  3.1166 -3.8085 -0.7647
  810MOL0     H 9337   3.791   0.150   7.051 -0.1393 -0.7918 -0.4195
  810MOL0     H 9338   3.460   0.132   6.723 -4.8802  1.5299 -0.2004
  810MOL0     H 9339   3.496   0.296   6.752 -2.1717 -0.7969 -0.9006
  810MOL0     H 9340   3.365   0.314   6.954  1.9847  0.9939 -1.6911
  810MOL0     H 9341   3.365   0.139   6.973 -0.9941 -1.3011 -1.3892
  810MOL0     H 9342   3.213   0.116   6.765  2.4397  0.5365 -0.1754
  810MOL0     H 9343   3.203   0.291   6.761 -2.4041  0.3690 -0.1157
  810MOL0     H 9344   3.108   0.129   6.993  1.5473 -1.0275 -1.8758
  810MOL0     H 9345   3.120   0.311   6.995  1.4329  2.7069 -3.0141
  810MOL0     H 9346   2.785   0.207   6.757  0.5356  1.7390 -0.6802
  810MOL0     H 9347   3.681   0.274   6.659 -2.2600 -0.7088  2.4209
  810MOL0     H 9348   3.893   0.273   6.516  2.0567  0.1055 -1.1460
  810MOL0     H 9349   3.857   0.437   6.530 -0.1105 -0.3627 -1.0193
  810MOL0     H 9350   4.023   0.392   6.540  1.3245  1.0157  4.7440
  811MOL0     O 9351   9.497   6.027  10.103  0.2430  0.2514 -0.0464
  811MOL0     C 9352   9.496   5.905  10.115 -0.0868 -0.0709  0.8941
  811MOL0     O 9353   9.434   5.837  10.208  0.4596 -0.0052 -0.0870
  811MOL0     C 9354   9.357   5.901  10.302 -0.4788  0.1164 -0.4490
  811MOL0     C 9355   9.380   5.882  10.434 -0.9550  0.0176 -0.8669
  811MOL0     C 9356   9.302   5.943  10.539 -0.4643 -0.0148 -0.4710
  811MOL0     C 9357   9.200   6.032  10.500  0.8679  0.4629 -0.2545
  811MOL0     O 9358   9.120   6.089  10.593 -0.1640  0.0325 -0.2732
  811MOL0     C 9359   9.055   6.219  10.564 -0.4318  0.8169 -0.6784
  811MOL0     C 9360   9.030   6.306  10.692 -0.1247 -0.2330  0.9654
  811MOL0     C 9361   9.162   6.316  10.777 -0.0660 -0.8365 -0.0866
  811MOL0     C 9362   9.135   6.442  10.873  0.0855  0.3672  0.9620
  811MOL0     C 9363   9.247   6.467  10.976 -0.0679 -0.2392 -0.4886
  811MOL0     C 9364   9.217   6.594  11.047 -0.2711 -0.5744  0.2588
  811MOL0     C 9365   9.336   6.635  11.132 -0.2972 -0.3609  0.8907
  811MOL0     C 9366   9.474   6.616  11.071 -0.1698  0.6787 -0.2852
  811MOL0     N 9367   9.577   6.683  11.154  0.2472 -0.4544  1.0519
  811MOL0     C 9368   9.595   6.820  11.155  0.2197 -0.2428 -0.5681
  811MOL0     C 9369   9.703   6.845  11.236  0.3838 -0.9372 -0.4311
  811MOL0     C 9370   9.760   6.983  11.277 -0.4133  0.9088  0.7016
  811MOL0     C 9371   9.905   6.958  11.329  0.5409  0.0491 -0.2540
  811MOL0     C 9372   9.943   7.085  11.414 -0.2078  0.4303 -0.8385
  811MOL0     C 9373  10.079   7.054  11.474  0.9016  0.1485 -0.4474
  811MOL0     O 9374  10.182   7.046  11.374  0.7368 -1.5697  0.2354
  811MOL0     C 9375  10.239   6.931  11.336  0.2880 -0.4425 -0.2879
  811MOL0     C 9376  10.366   6.937  11.274  0.6642 -0.7130  0.0925
  811MOL0     C 9377  10.443   6.827  11.243 -0.6150 -0.0718  0.0103
  811MOL0     C 9378  10.384   6.701  11.251 -0.7028 -0.5414  0.4258
  811MOL0     C 9379  10.445   6.583  11.187 -0.3175  0.0808  0.3414
  811MOL0     O 9380  10.581   6.585  11.168  0.1984 -0.3263  0.2388
  811MOL0     C 9381  10.648   6.529  11.067  0.1814  0.1628  0.2206
  811MOL0     C 9382  10.777   6.566  11.044  0.0156  0.6324 -0.0815
  811MOL0     C 9383  10.861   6.510  10.942 -0.2598 -0.1937  0.1626
  811MOL0     C 9384  10.809   6.410  10.854 -0.2779 -0.9154 -0.6888
  811MOL0     O 9385  10.880   6.363  10.743  0.5908  0.4417  0.2665
  811MOL0     C 9386  11.020   6.381  10.743 -1.2758 -0.6272 -0.2582
  811MOL0     C 9387  11.079   6.314  10.618 -0.4489 -0.2656  0.3718
  811MOL0     C 9388  11.079   6.159  10.654  0.1028  0.2588 -1.2055
  811MOL0     C 9389  11.129   6.059  10.551 -0.3996  0.4883 -0.5753
  811MOL0     C 9390  11.113   5.905  10.596  0.6939 -0.3773 -0.0856
  811MOL0     C 9391  10.961   5.871  10.580 -1.2421  0.1800 -0.7978
  811MOL0     C 9392  10.930   5.725  10.597 -0.5683 -0.1650 -0.2657
  811MOL0     C 9393  10.960   5.634  10.485 -0.8328  0.5807 -0.1617
  811MOL0    Cl 9394  10.893   5.471  10.511 -0.2756  0.3729 -0.0901
  811MOL0     C 9395  10.674   6.369  10.872  0.1894 -0.0910  0.3373
  811MOL0     C 9396  10.598   6.425  10.978  0.4392 -0.5040 -0.2068
  811MOL0     O 9397  10.367   6.502  11.135  0.0422  0.3848  0.1915
  811MOL0     C 9398  10.256   6.694  11.301  0.1869  0.5820 -0.3119
  811MOL0     C 9399  10.186   6.800  11.345 -0.9908 -0.0164  0.0366
  811MOL0     N 9400   9.741   6.719  11.287  0.1734 -0.6656  0.1081
  811MOL0     N 9401   9.658   6.631  11.246 -0.5662 -0.6181 -0.0689
  811MOL0     C 9402   9.178   6.062  10.364 -0.3331  0.4340 -0.5027
  811MOL0     C 9403   9.260   6.001  10.271 -0.1682  0.2198 -0.5026
  811MOL0     C 9404   9.584   5.828  10.023 -0.2136  0.6127  0.0428
  811MOL0     C 9405   9.611   5.692  10.051 -0.1134  0.1921  0.4479
  811MOL0     C 9406   9.712   5.616   9.988  0.9170 -0.8926  0.7206
  811MOL0     C 9407   9.776   5.674   9.885 -0.1153  0.1979  0.2678
  811MOL0     O 9408   9.862   5.606   9.801  0.1594 -0.8031  1.0103
  811MOL0     C 9409   9.952   5.513   9.856  0.0980  0.0590  0.5018
  811MOL0     C 9410  10.030   5.579   9.968  0.9154 -0.3017 -0.2429
  811MOL0     C 9411  10.120   5.700   9.927 -0.8235 -0.3212 -0.7688
  811MOL0     C 9412  10.236   5.654   9.834  0.3153 -0.6671 -0.7330
  811MOL0     C 9413  10.299   5.780   9.781 -0.2323  0.3220 -0.4706
  811MOL0     C 9414  10.354   5.878   9.740 -0.1727  0.6406 -0.1629
  811MOL0     C 9415   9.745   5.807   9.842 -0.4234 -0.6240  0.0269
  811MOL0     C 9416   9.651   5.887   9.907 -0.2031  0.8130 -0.0006
  811MOL0     C 9417   9.625   6.030   9.863  0.5413 -0.0062  0.7929
  811MOL0     H 9418   9.462   5.821  10.471 -1.1205  0.0013 -0.5171
  811MOL0     H 9419   9.316   5.917  10.643  3.1701  1.2886 -0.4796
  811MOL0     H 9420   9.112   6.273  10.488  3.6748 -0.2686  1.3575
  811MOL0     H 9421   8.955   6.200  10.525 -0.2147 -0.9021 -0.4788
  811MOL0     H 9422   8.946   6.278  10.757 -0.2433 -1.7659  0.1978
  811MOL0     H 9423   9.007   6.407  10.657 -0.9649  0.0798  2.3207
  811MOL0     H 9424   9.247   6.332  10.710  0.1346 -0.6191  0.2162
  811MOL0     H 9425   9.167   6.229  10.844 -1.1812 -1.0443 -0.2488
  811MOL0     H 9426   9.127   6.526  10.802  1.2902  0.2809  0.7098
  811MOL0     H 9427   9.038   6.417  10.917 -1.2195 -2.8427 -3.0644
  811MOL0     H 9428   9.253   6.385  11.048  3.4227  0.6367  0.3808
  811MOL0     H 9429   9.339   6.467  10.917 -1.1407  1.7289 -2.3100
  811MOL0     H 9430   9.207   6.670  10.969  0.3291 -2.6583 -1.9852
  811MOL0     H 9431   9.119   6.591  11.095 -1.0546  1.0691 -1.1405
  811MOL0     H 9432   9.323   6.579  11.224 -0.6204 -1.5657  0.1392
  811MOL0     H 9433   9.333   6.740  11.163 -2.0968 -0.3057  0.6623
  811MOL0     H 9434   9.509   6.514  11.054 -1.0989  0.4026 -0.6220
  811MOL0     H 9435   9.474   6.662  10.971 -1.0273  0.1123 -0.5517
  811MOL0     H 9436   9.547   6.897  11.095  0.5601  0.9368  0.6419
  811MOL0     H 9437   9.748   7.050  11.191  1.4393  1.0193  0.5005
  811MOL0     H 9438   9.701   7.022  11.360  0.4096  0.3538  1.5593
  811MOL0     H 9439   9.901   6.867  11.391 -4.0044  0.6799  0.7401
  811MOL0     H 9440   9.963   6.944  11.238 -0.3055  0.6628 -0.9011
  811MOL0     H 9441   9.877   7.106  11.499  0.6725  1.1326 -0.3145
  811MOL0     H 9442   9.950   7.183  11.366  1.8374  1.8704  2.1169
  811MOL0     H 9443  10.074   6.962  11.533 -0.7437  0.2463 -0.3958
  811MOL0     H 9444  10.105   7.133  11.546 -1.1529 -0.5979  1.2339
  811MOL0     H 9445  10.412   7.032  11.251  1.0829 -0.8912  0.1639
  811MOL0     H 9446  10.539   6.827  11.192 -1.4022 -0.5040 -1.5540
  811MOL0     H 9447  10.816   6.640  11.112  3.7866  0.5582 -1.8942
  811MOL0     H 9448  10.957   6.557  10.925 -0.5337  1.7902  3.2965
  811MOL0     H 9449  11.050   6.486  10.746 -1.4622 -0.5754  2.5246
  811MOL0     H 9450  11.060   6.338  10.835 -3.1430  2.8155  2.4413
  811MOL0     H 9451  11.030   6.341  10.524  1.5912  0.4538 -0.5484
  811MOL0     H 9452  11.184   6.341  10.603 -1.0104  1.1308 -1.4770
  811MOL0     H 9453  11.140   6.145  10.744 -0.2446 -1.0848 -1.1535
  811MOL0     H 9454  10.978   6.132  10.687  0.2494  1.3421  0.2437
  811MOL0     H 9455  11.236   6.075  10.533 -0.7171  1.6121 -1.6370
  811MOL0     H 9456  11.086   6.069  10.451  0.1458 -0.8909 -0.9763
  811MOL0     H 9457  11.147   5.904  10.700 -0.9803 -1.5763  0.4938
  811MOL0     H 9458  11.174   5.834  10.538  0.4427 -0.4845 -0.2208
  811MOL0     H 9459  10.907   5.930  10.654 -0.2446  1.1164 -0.8012
  811MOL0     H 9460  10.927   5.899  10.480 -1.3557  1.8500 -0.3208
  811MOL0     H 9461  10.823   5.719  10.617 -0.6156 -0.9104 -0.6730
  811MOL0     H 9462  10.979   5.685  10.687  1.4084 -2.1271 -2.0967
  811MOL0     H 9463  10.918   5.665  10.388 -0.1599 -0.1019 -0.6813
  811MOL0     H 9464  11.069   5.625  10.479 -0.7385 -0.9635  2.4157
  811MOL0     H 9465  10.637   6.303  10.795 -2.0500 -1.3952  2.3925
  811MOL0     H 9466  10.496   6.387  10.987  0.9301 -1.8851 -0.2953
  811MOL0     H 9467  10.201   6.601  11.304 -0.6704  1.0802  2.0592
  811MOL0     H 9468  10.086   6.774  11.380 -1.2206 -0.1793 -0.7217
  811MOL0     H 9469   9.101   6.134  10.340 -0.9778  0.1627  0.6744
  811MOL0     H 9470   9.246   6.015  10.165  0.8857 -1.2093 -0.8663
  811MOL0     H 9471   9.548   5.643  10.125 -1.5666  0.5821 -0.4873
  811MOL0     H 9472   9.742   5.517  10.021  0.4775 -1.1426  0.3901
  811MOL0     H 9473  10.017   5.473   9.777  1.6633 -1.4545  2.4529
  811MOL0     H 9474   9.899   5.425   9.893 -2.8876  1.1976 -0.7876
  811MOL0     H 9475  10.095   5.498  10.004  3.1247  1.7466  0.6266
  811MOL0     H 9476   9.953   5.591  10.045 -2.8306 -3.0545 -3.1755
  811MOL0     H 9477  10.154   5.745  10.020 -2.6761  0.0734 -0.2415
  811MOL0     H 9478  10.059   5.776   9.877  1.8147  2.1960 -0.4028
  811MOL0     H 9479  10.317   5.595   9.877 -1.1097 -3.3367 -1.4594
  811MOL0     H 9480  10.205   5.590   9.750  1.7120 -0.7225 -1.2195
  811MOL0     H 9481  10.404   5.968   9.712 -1.2854  0.9795 -1.1763
  811MOL0     H 9482   9.794   5.848   9.754  0.8785  2.9969  2.2084
  811MOL0     H 9483   9.673   6.090   9.941  0.2915  2.4391 -0.8405
  811MOL0     H 9484   9.652   6.046   9.758  0.9168 -0.6499  0.7848
  811MOL0     H 9485   9.518   6.055   9.863  0.6753  0.9580 -2.4890
  812MOL0     O 9486   1.555   5.686   4.470 -0.5674  0.7969 -0.6149
  812MOL0     C 9487   1.507   5.644   4.363  1.1013 -0.3756  1.0822
  812MOL0     O 9488   1.565   5.648   4.246  0.2918  0.5989 -0.7312
  812MOL0     C 9489   1.698   5.672   4.238 -0.1105 -0.4986 -0.8687
  812MOL0     C 9490   1.740   5.733   4.126  0.3816 -0.2214  0.0952
  812MOL0     C 9491   1.877   5.744   4.097 -0.1688 -0.1706 -0.1693
  812MOL0     C 9492   1.971   5.702   4.184  0.1807 -1.3640 -1.2984
  812MOL0     O 9493   2.108   5.717   4.176 -0.5230 -0.1665 -0.0611
  812MOL0     C 9494   2.170   5.744   4.050  0.7693 -0.5869  0.5826
  812MOL0     C 9495   2.316   5.762   4.070  0.4640  0.6478 -0.0909
  812MOL0     C 9496   2.382   5.755   3.930  1.1399 -0.7197  0.5608
  812MOL0     C 9497   2.525   5.716   3.935  0.8488  0.5626  0.6388
  812MOL0     C 9498   2.621   5.825   3.973  0.4280 -0.5790 -0.0041
  812MOL0     C 9499   2.745   5.808   3.885  0.0253 -0.2177  0.5685
  812MOL0     C 9500   2.859   5.896   3.936 -0.1147 -0.3654 -0.2189
  812MOL0     C 9501   2.850   6.043   3.933  0.0400  0.3714  0.1147
  812MOL0     N 9502   2.978   6.098   3.960 -0.3276  0.6817  0.7116
  812MOL0     C 9503   3.017   6.115   4.084 -0.3378 -0.1006  0.3538
  812MOL0     C 9504   3.139   6.166   4.062 -0.3032 -0.5617  0.0823
  812MOL0     C 9505   3.248   6.213   4.158  0.0255  0.0067  0.0369
  812MOL0     C 9506   3.389   6.169   4.123 -0.6652 -0.2083  0.3648
  812MOL0     C 9507   3.483   6.220   4.230 -0.2763  0.8013 -0.2069
  812MOL0     C 9508   3.613   6.149   4.246 -0.1960  0.7210 -0.1819
  812MOL0     O 9509   3.700   6.200   4.358 -0.4407  0.3512  0.2742
  812MOL0     C 9510   3.834   6.167   4.360  0.6488  0.6700  0.1886
  812MOL0     C 9511   3.926   6.265   4.392  0.2871  0.5466 -0.1260
  812MOL0     C 9512   4.062   6.235   4.397  0.2144 -0.4777  0.3989
  812MOL0     C 9513   4.115   6.105   4.379 -0.2583 -0.3205  0.5818
  812MOL0     C 9514   4.260   6.073   4.399  0.1689  0.9341 -0.0382
  812MOL0     O 9515   4.286   5.934   4.415  0.6494  0.1500 -0.1205
  812MOL0     C 9516   4.415   5.888   4.440  0.0068 -0.8633  0.1036
  812MOL0     C 9517   4.477   5.926   4.554 -1.0368 -0.1603 -0.2426
  812MOL0     C 9518   4.615   5.890   4.565  0.5903  0.4137 -0.1493
  812MOL0     C 9519   4.673   5.802   4.474  0.9863 -0.3577  0.5182
  812MOL0     O 9520   4.793   5.762   4.501 -0.2173 -0.1557  0.2915
  812MOL0     C 9521   4.829   5.627   4.471  0.2648 -0.6719  0.4246
  812MOL0     C 9522   4.944   5.592   4.559 -0.2749 -0.2372  0.5357
  812MOL0     C 9523   4.918   5.605   4.707  0.3966  0.2286 -0.0962
  812MOL0     C 9524   5.035   5.557   4.797  0.1944 -0.4993 -0.0707
  812MOL0     C 9525   4.993   5.548   4.949  0.0367  0.1305  1.1060
  812MOL0     C 9526   4.992   5.678   5.022  1.0157 -0.5970  0.4859
  812MOL0     C 9527   4.908   5.670   5.149 -0.7170  0.5179  0.1627
  812MOL0     C 9528   4.956   5.576   5.253  0.2764  0.3716  0.5379
  812MOL0    Cl 9529   5.118   5.614   5.316 -0.4047 -0.1010  0.1007
  812MOL0     C 9530   4.591   5.754   4.365 -0.5608  0.4901  0.1112
  812MOL0     C 9531   4.464   5.804   4.350  0.3049 -0.6876  0.4694
  812MOL0     O 9532   4.348   6.162   4.404 -0.6698 -0.1961  0.4348
  812MOL0     C 9533   4.020   6.001   4.352  0.5513  0.2133  0.0762
  812MOL0     C 9534   3.880   6.035   4.338 -0.4280  0.1243  0.6786
  812MOL0     N 9535   3.178   6.151   3.932  0.4314 -0.9490  0.1346
  812MOL0     N 9536   3.075   6.110   3.869 -0.6187  0.1063  0.6316
  812MOL0     C 9537   1.931   5.642   4.296  0.0606  0.4550 -0.3811
  812MOL0     C 9538   1.799   5.635   4.333  0.8027  0.1346  0.3710
  812MOL0     C 9539   1.375   5.564   4.359 -0.0974  0.3045 -0.7401
  812MOL0     C 9540   1.348   5.490   4.244 -0.2265 -0.1278  0.0301
  812MOL0     C 9541   1.233   5.413   4.222  0.3784  0.2434 -0.4100
  812MOL0     C 9542   1.139   5.397   4.325  0.5745 -0.2355  0.8333
  812MOL0     O 9543   1.022   5.322   4.316 -0.4711 -0.0794 -0.6805
  812MOL0     C 9544   1.042   5.187   4.257  0.6173 -0.2719  0.4495
  812MOL0     C 9545   1.005   5.076   4.353  0.2721 -0.6872 -0.1705
  812MOL0     C 9546   0.854   5.078   4.399 -0.2900  1.2490  0.5515
  812MOL0     C 9547   0.810   5.182   4.496  0.4421 -0.2819  1.0058
  812MOL0     C 9548   0.669   5.168   4.524 -0.0779  0.8261 -0.7481
  812MOL0     C 9549   0.552   5.139   4.550 -0.3177  0.5428  0.4537
  812MOL0     C 9550   1.161   5.468   4.443 -0.4312 -1.0655 -0.1706
  812MOL0     C 9551   1.275   5.559   4.463  0.6158  0.1863  0.0169
  812MOL0     C 9552   1.286   5.628   4.602 -0.2699 -0.6916  0.2913
  812MOL0     H 9553   1.665   5.774   4.059  1.5278  0.8660 -0.5717
  812MOL0     H 9554   1.901   5.783   3.998  0.5155 -0.3159 -0.0607
  812MOL0     H 9555   2.136   5.665   3.981  2.7846  0.7713 -2.1581
  812MOL0     H 9556   2.124   5.836   4.012 -0.4558 -0.7558  1.5978
  812MOL0     H 9557   2.356   5.685   4.137 -0.9670  1.3167  1.6060
  812MOL0     H 9558   2.337   5.859   4.116  1.5643  0.9536 -1.1760
  812MOL0     H 9559   2.364   5.852   3.884 -1.1063  1.4725  5.3536
  812MOL0     H 9560   2.330   5.684   3.864 -2.2800  3.7103 -2.1496
  812MOL0     H 9561   2.543   5.633   4.004  0.1411 -0.0907  0.0649
  812MOL0     H 9562   2.551   5.681   3.834  0.7746 -0.2464  0.8871
  812MOL0     H 9563   2.572   5.921   3.959  0.9751 -0.0016  1.7158
  812MOL0     H 9564   2.628   5.824   4.082 -3.3492  2.1172  0.4466
  812MOL0     H 9565   2.793   5.710   3.891 -0.8925 -0.9539 -2.7278
  812MOL0     H 9566   2.726   5.819   3.778 -4.0869 -2.0222  0.9519
  812MOL0     H 9567   2.954   5.859   3.897 -0.2763 -0.9013 -0.1076
  812MOL0     H 9568   2.871   5.861   4.039 -0.1382 -0.1042 -0.1269
  812MOL0     H 9569   2.816   6.067   3.831 -1.3024 -1.6512  0.0231
  812MOL0     H 9570   2.774   6.093   3.994  0.2347  1.6308 -0.6286
  812MOL0     H 9571   2.969   6.111   4.181 -3.3498  1.3462 -0.9411
  812MOL0     H 9572   3.243   6.322   4.156 -2.0163 -0.0595 -0.4283
  812MOL0     H 9573   3.222   6.174   4.256  0.6125 -1.6097 -0.4130
  812MOL0     H 9574   3.407   6.062   4.106  2.5561  0.1764  0.8034
  812MOL0     H 9575   3.404   6.218   4.026 -0.7278 -0.6004  0.1529
  812MOL0     H 9576   3.435   6.215   4.328  0.1768  3.3464  0.1950
  812MOL0     H 9577   3.503   6.326   4.212  2.4979  0.2648 -0.7261
  812MOL0     H 9578   3.666   6.170   4.152 -0.0469  0.0013 -0.2579
  812MOL0     H 9579   3.596   6.041   4.245  0.6307  0.5403 -2.9799
  812MOL0     H 9580   3.877   6.356   4.426 -0.6323 -0.5401  1.6174
  812MOL0     H 9581   4.129   6.317   4.420  1.6754 -1.5955  0.3048
  812MOL0     H 9582   4.440   6.009   4.613 -0.0405 -1.4713  2.3573
  812MOL0     H 9583   4.673   5.934   4.645  2.8899 -2.4275 -0.0968
  812MOL0     H 9584   4.751   5.552   4.483 -0.2041  0.0564  2.3926
  812MOL0     H 9585   4.869   5.623   4.369  2.0826 -1.1958  1.1227
  812MOL0     H 9586   4.989   5.493   4.549  1.1496  0.2584  1.6682
  812MOL0     H 9587   5.027   5.662   4.543 -1.1059  0.0453 -3.7472
  812MOL0     H 9588   4.892   5.710   4.727 -0.8577 -0.0135 -0.3730
  812MOL0     H 9589   4.832   5.546   4.741  0.8336 -0.4010 -0.0823
  812MOL0     H 9590   5.121   5.619   4.768  0.6377 -0.8650  0.4557
  812MOL0     H 9591   5.046   5.450   4.777 -1.9993 -0.5041 -1.6817
  812MOL0     H 9592   5.057   5.470   4.992 -1.5446 -2.1463 -0.4271
  812MOL0     H 9593   4.895   5.500   4.957 -0.2835  0.9254  2.2801
  812MOL0     H 9594   5.095   5.694   5.056  1.7810  2.8299 -2.7365
  812MOL0     H 9595   4.953   5.762   4.964  3.1000 -0.3495 -0.6675
  812MOL0     H 9596   4.807   5.646   5.116  0.6970 -1.5010 -3.1693
  812MOL0     H 9597   4.920   5.771   5.188 -0.6767  1.5755 -2.4168
  812MOL0     H 9598   4.878   5.560   5.328  1.3255 -3.4363  1.0169
  812MOL0     H 9599   4.965   5.477   5.209  1.7237  0.0109  1.5716
  812MOL0     H 9600   4.633   5.671   4.308  4.8746  0.2462  3.7594
  812MOL0     H 9601   4.394   5.778   4.271 -1.7531  2.8012  0.9013
  812MOL0     H 9602   4.061   5.901   4.349  0.4988 -0.1709  4.6050
  812MOL0     H 9603   3.809   5.956   4.315 -1.0789  0.9883 -0.3898
  812MOL0     H 9604   2.010   5.607   4.361 -1.3086  1.0132  1.6946
  812MOL0     H 9605   1.779   5.581   4.425  3.2629  2.7177  2.5883
  812MOL0     H 9606   1.420   5.484   4.163 -1.6621 -0.5061 -1.2588
  812MOL0     H 9607   1.223   5.367   4.124 -0.8844  0.4086 -0.3795
  812MOL0     H 9608   1.137   5.170   4.206 -0.0821  1.0115 -1.3814
  812MOL0     H 9609   0.969   5.167   4.178  0.9775 -0.2681  0.1185
  812MOL0     H 9610   1.070   5.078   4.441  0.3847  1.1780 -0.2728
  812MOL0     H 9611   1.042   4.982   4.309  1.4239 -1.5557  2.4560
  812MOL0     H 9612   0.836   4.977   4.438 -0.1543  1.4007  1.0065
  812MOL0     H 9613   0.792   5.077   4.309 -0.1444 -0.7976  0.4326
  812MOL0     H 9614   0.879   5.183   4.580  1.7381  0.8101 -0.0259
  812MOL0     H 9615   0.827   5.284   4.458  0.3403 -0.0628  1.5314
  812MOL0     H 9616   0.451   5.107   4.561 -1.0240  1.9298 -1.5168
  812MOL0     H 9617   1.093   5.460   4.528 -0.3853  0.3996  0.0333
  812MOL0     H 9618   1.294   5.737   4.601  0.4640 -0.7436  0.1776
  812MOL0     H 9619   1.216   5.585   4.674  2.3729 -0.1248  3.4312
  812MOL0     H 9620   1.377   5.588   4.648  1.9833  4.1354  0.6652
  813MOL0     O 9621   5.069   6.208  11.229  0.4678 -0.3586 -0.4713
  813MOL0     C 9622   5.015   6.129  11.156  0.5403  0.2981  0.4448
  813MOL0     O 9623   5.044   6.094  11.027 -0.3191 -0.5154  0.6984
  813MOL0     C 9624   5.150   6.163  10.968 -0.6281 -0.5950 -0.0742
  813MOL0     C 9625   5.133   6.293  10.922  0.0586 -1.1101 -0.1899
  813MOL0     C 9626   5.238   6.345  10.844 -0.4925 -0.1077  0.2206
  813MOL0     C 9627   5.356   6.290  10.819  0.3438  0.6154 -1.0831
  813MOL0     O 9628   5.454   6.350  10.751  0.1782  0.6038  0.4247
  813MOL0     C 9629   5.425   6.395  10.622 -0.5771  0.2224  0.5057
  813MOL0     C 9630   5.553   6.448  10.563 -0.0931 -0.2130 -0.2785
  813MOL0     C 9631   5.528   6.494  10.421 -0.4468 -0.5945  0.4843
  813MOL0     C 9632   5.662   6.553  10.358 -0.3110 -0.0048 -0.2824
  813MOL0     C 9633   5.650   6.580  10.213 -0.1056 -0.4008  1.0067
  813MOL0     C 9634   5.579   6.718  10.194 -0.7548 -0.2369  1.5359
  813MOL0     C 9635   5.547   6.742  10.041 -0.9136  0.0998 -0.3394
  813MOL0     C 9636   5.507   6.885  10.005  0.1759  0.1712 -0.5562
  813MOL0     N 9637   5.377   6.928  10.065 -0.0745 -0.3497  0.3553
  813MOL0     C 9638   5.278   6.956   9.976  0.4086  0.2657 -0.2069
  813MOL0     C 9639   5.176   7.010  10.055  0.8469 -0.0026  0.7111
  813MOL0     C 9640   5.039   7.053  10.009  1.2750  0.5693  0.0366
  813MOL0     C 9641   5.008   7.034   9.856  0.2242 -0.3627 -0.0653
  813MOL0     C 9642   4.876   7.091   9.813  0.4833 -0.1358 -0.1420
  813MOL0     C 9643   4.879   7.242   9.785 -0.2949 -0.4174  0.6660
  813MOL0     O 9644   4.879   7.313   9.913  0.0868 -0.0353  0.1861
  813MOL0     C 9645   4.761   7.360   9.969  0.4386  0.6678  0.6212
  813MOL0     C 9646   4.767   7.428  10.094 -0.2352  0.0311 -0.9768
  813MOL0     C 9647   4.640   7.467  10.145  0.5892  0.6275 -0.4277
  813MOL0     C 9648   4.516   7.442  10.078 -0.3167 -0.5525  0.5993
  813MOL0     C 9649   4.388   7.465  10.152  0.0838 -0.3722 -0.5655
  813MOL0     O 9650   4.282   7.500  10.078 -0.5775  0.1672 -0.5477
  813MOL0     C 9651   4.167   7.551  10.138  0.6339  0.4938  0.7253
  813MOL0     C 9652   4.092   7.660  10.095 -0.1657 -0.1294  0.4378
  813MOL0     C 9653   3.974   7.710  10.157  0.0154 -0.2336  0.2329
  813MOL0     C 9654   3.931   7.644  10.275  0.7529 -0.4202  0.1685
  813MOL0     O 9655   3.842   7.708  10.366  0.0818 -0.0728 -0.2643
  813MOL0     C 9656   3.773   7.822  10.310  0.0942 -0.5168 -0.6757
  813MOL0     C 9657   3.686   7.886  10.417  0.3228  0.1058  0.1362
  813MOL0     C 9658   3.593   7.791  10.494 -0.5121  0.0419 -0.1988
  813MOL0     C 9659   3.478   7.857  10.568  0.9763  0.2555 -0.0098
  813MOL0     C 9660   3.522   7.978  10.648  0.5595  0.9534 -0.2524
  813MOL0     C 9661   3.626   7.953  10.755  0.0701  0.1570 -0.3997
  813MOL0     C 9662   3.678   8.078  10.821  0.2779  0.3683  0.7070
  813MOL0     C 9663   3.569   8.175  10.867 -0.0494  0.9295 -0.0650
  813MOL0    Cl 9664   3.635   8.302  10.977 -0.0985  0.5007 -0.2628
  813MOL0     C 9665   3.989   7.526  10.306 -0.1367 -0.5075 -0.5795
  813MOL0     C 9666   4.108   7.481  10.239  0.2775 -0.3947 -0.7636
  813MOL0     O 9667   4.393   7.481  10.272 -0.0732  0.0334 -0.1674
  813MOL0     C 9668   4.515   7.390   9.954  0.6113 -0.3098  1.2161
  813MOL0     C 9669   4.634   7.342   9.904 -0.3302  0.0936  1.1086
  813MOL0     N 9670   5.221   7.011  10.186  0.2512 -0.4340 -0.8704
  813MOL0     N 9671   5.337   6.959  10.189 -0.3254 -0.4144  0.0232
  813MOL0     C 9672   5.373   6.165  10.870  0.3773  1.5969 -0.0918
  813MOL0     C 9673   5.268   6.094  10.948  0.2485 -0.5154 -0.0160
  813MOL0     C 9674   4.914   6.041  11.224  0.6838  0.0274  0.7991
  813MOL0     C 9675   4.852   5.941  11.145 -0.7025  0.3243  0.9589
  813MOL0     C 9676   4.755   5.852  11.192 -0.0922  0.1584 -1.1776
  813MOL0     C 9677   4.700   5.861  11.321 -0.9914 -1.2070  0.1878
  813MOL0     O 9678   4.623   5.768  11.381 -0.2593 -0.1415 -0.8026
  813MOL0     C 9679   4.573   5.643  11.310  0.1452 -0.1541  0.1547
  813MOL0     C 9680   4.453   5.684  11.235 -0.2978 -0.4768  0.0662
  813MOL0     C 9681   4.399   5.556  11.171 -0.8602 -0.3032  0.6273
  813MOL0     C 9682   4.316   5.584  11.054  1.0541  1.0312  0.5461
  813MOL0     C 9683   4.400   5.634  10.947  0.8163 -0.2282 -0.3438
  813MOL0     C 9684   4.472   5.676  10.863  0.3240 -0.3527 -1.3362
  813MOL0     C 9685   4.756   5.964  11.398 -0.1047  1.0316 -0.0266
  813MOL0     C 9686   4.858   6.055  11.359  0.0609  0.4022  0.1570
  813MOL0     C 9687   4.902   6.166  11.458 -0.1139 -0.8910  0.6232
  813MOL0     H 9688   5.037   6.341  10.938  2.0439  2.4878  2.2972
  813MOL0     H 9689   5.212   6.444  10.808 -1.3102  0.2198  1.5998
  813MOL0     H 9690   5.390   6.305  10.572 -1.4702 -0.9785  3.1363
  813MOL0     H 9691   5.341   6.465  10.625 -0.4596  0.5324 -1.6082
  813MOL0     H 9692   5.634   6.374  10.562  0.8810  0.8266 -0.2404
  813MOL0     H 9693   5.594   6.536  10.614  0.3727 -1.3522  1.4136
  813MOL0     H 9694   5.452   6.573  10.420  0.5010  0.3326  0.4879
  813MOL0     H 9695   5.495   6.405  10.367  2.9638 -0.9660 -1.2247
  813MOL0     H 9696   5.669   6.640  10.424 -1.3259 -0.5986  0.6321
  813MOL0     H 9697   5.750   6.494  10.385  1.0227  2.3307  0.8241
  813MOL0     H 9698   5.750   6.585  10.167 -0.9654  0.2698 -0.9058
  813MOL0     H 9699   5.599   6.503  10.155  2.8829 -0.3531 -2.0340
  813MOL0     H 9700   5.481   6.714  10.243 -0.3609  0.5882  2.4192
  813MOL0     H 9701   5.632   6.798  10.247 -1.6166  2.1105 -0.9296
  813MOL0     H 9702   5.455   6.686  10.022 -1.7959  1.8618 -1.5639
  813MOL0     H 9703   5.632   6.714   9.979  1.7024  2.3708  1.9352
  813MOL0     H 9704   5.585   6.956  10.036 -2.7970  2.4448  2.4487
  813MOL0     H 9705   5.505   6.882   9.895 -0.6141 -2.8851 -0.5482
  813MOL0     H 9706   5.270   6.931   9.871  1.0745 -0.4558 -0.0986
  813MOL0     H 9707   4.969   7.006  10.078  2.3129  1.9605  2.1512
  813MOL0     H 9708   5.032   7.161  10.026 -0.4965  0.6594 -0.9963
  813MOL0     H 9709   5.090   7.071   9.795 -0.2893 -1.5344 -1.5291
  813MOL0     H 9710   5.006   6.925   9.841 -0.9473 -0.6217  1.6403
  813MOL0     H 9711   4.790   7.072   9.877  0.3130  0.3000 -0.2367
  813MOL0     H 9712   4.854   7.037   9.720  0.0493 -0.8460  0.3661
  813MOL0     H 9713   4.800   7.272   9.716  0.8422 -0.9644 -0.9229
  813MOL0     H 9714   4.965   7.258   9.719 -1.6105 -2.1434 -1.6056
  813MOL0     H 9715   4.853   7.454  10.155  0.0632  0.0021 -1.3830
  813MOL0     H 9716   4.636   7.519  10.240  3.0112 -1.0990  0.7359
  813MOL0     H 9717   4.116   7.701   9.997  2.5672 -0.8743  0.6893
  813MOL0     H 9718   3.914   7.792  10.120 -2.1170 -1.4257  0.9061
  813MOL0     H 9719   3.850   7.896  10.288  0.0151 -0.2525 -0.0946
  813MOL0     H 9720   3.709   7.801  10.224  0.0674 -0.3079 -0.7079
  813MOL0     H 9721   3.739   7.943  10.494 -0.8259  1.2943  0.0642
  813MOL0     H 9722   3.617   7.959  10.375  0.0852 -1.5102 -2.4697
  813MOL0     H 9723   3.535   7.732  10.423 -1.0543  0.8023 -0.4023
  813MOL0     H 9724   3.655   7.725  10.555 -3.7954 -1.2177  2.0375
  813MOL0     H 9725   3.434   7.794  10.647 -0.8285  2.9346  1.2614
  813MOL0     H 9726   3.398   7.886  10.500 -1.0033 -0.3412  1.9340
  813MOL0     H 9727   3.426   8.014  10.686  0.2820 -0.2475  0.2275
  813MOL0     H 9728   3.562   8.056  10.583  1.0102 -1.0865 -2.6021
  813MOL0     H 9729   3.576   7.890  10.830  1.0769 -1.1890 -0.8357
  813MOL0     H 9730   3.705   7.894  10.709 -0.2543  1.1035 -2.2817
  813MOL0     H 9731   3.742   8.135  10.753  0.4598 -0.2986  0.3176
  813MOL0     H 9732   3.734   8.038  10.906  0.1919 -0.3657  0.4207
  813MOL0     H 9733   3.503   8.227  10.796 -3.2640  0.0472  2.0185
  813MOL0     H 9734   3.498   8.128  10.936 -0.8032  1.4039 -0.4988
  813MOL0     H 9735   3.948   7.474  10.392  0.9614 -0.4792 -0.0196
  813MOL0     H 9736   4.153   7.394  10.286  0.7268  0.3597  0.2286
  813MOL0     H 9737   4.428   7.383   9.889  0.9823  0.5988  0.5897
  813MOL0     H 9738   4.630   7.294   9.807  2.0395  2.6337 -0.3799
  813MOL0     H 9739   5.475   6.136  10.844 -0.6690 -1.4284 -1.2995
  813MOL0     H 9740   5.283   5.992  10.983 -0.6714 -0.1067  1.6436
  813MOL0     H 9741   4.869   5.922  11.039 -2.0688 -0.2109  0.8176
  813MOL0     H 9742   4.712   5.787  11.116 -0.7439 -0.7439 -0.0593
  813MOL0     H 9743   4.539   5.573  11.387  3.0835 -0.9675  0.8476
  813MOL0     H 9744   4.642   5.596  11.240  0.2374 -1.1394  0.8862
  813MOL0     H 9745   4.478   5.759  11.159 -0.6918 -0.2419  0.1672
  813MOL0     H 9746   4.377   5.733  11.295 -0.8642 -1.8236  0.4850
  813MOL0     H 9747   4.345   5.498  11.246  1.3779 -3.6875 -0.1535
  813MOL0     H 9748   4.476   5.485  11.138 -0.3148  1.1355 -1.4376
  813MOL0     H 9749   4.255   5.497  11.028  1.1746  0.3344  2.4856
  813MOL0     H 9750   4.240   5.657  11.083 -1.9620 -1.2788 -0.9495
  813MOL0     H 9751   4.526   5.711  10.778  0.6289  4.0094  0.3822
  813MOL0     H 9752   4.705   5.978  11.493 -0.5512 -0.3675 -0.0338
  813MOL0     H 9753   4.997   6.131  11.499 -0.5540 -0.6528  1.8790
  813MOL0     H 9754   4.907   6.263  11.408  2.2054 -0.5982  1.3244
  813MOL0     H 9755   4.836   6.179  11.544  2.0518 -1.5106  2.4801
  814MOL0     O 9756   5.241   5.483   1.790  0.1854  0.0822  0.0783
  814MOL0     C 9757   5.273   5.377   1.731  0.0735 -0.0557 -0.3520
  814MOL0     O 9758   5.381   5.300   1.769  0.2464 -0.3790  0.1493
  814MOL0     C 9759   5.439   5.328   1.889  0.0127 -0.4289  0.0395
  814MOL0     C 9760   5.368   5.362   2.012 -0.3632  0.5411  0.2082
  814MOL0     C 9761   5.432   5.385   2.129  0.0772 -0.4049 -0.5501
  814MOL0     C 9762   5.569   5.374   2.127 -0.5224 -0.4036  0.3196
  814MOL0     O 9763   5.620   5.404   2.253  0.6465 -0.4125 -0.0538
  814MOL0     C 9764   5.751   5.455   2.257 -0.2011 -0.2017 -1.1056
  814MOL0     C 9765   5.796   5.474   2.397  0.2274 -0.3386 -0.2674
  814MOL0     C 9766   5.934   5.542   2.402  0.3328  0.1577  0.2399
  814MOL0     C 9767   6.056   5.459   2.358  0.2880 -0.2282  0.0923
  814MOL0     C 9768   6.186   5.539   2.380 -0.3218  1.3190 -0.4158
  814MOL0     C 9769   6.310   5.456   2.327  0.1981 -0.3993 -0.4245
  814MOL0     C 9770   6.449   5.510   2.363  1.0191 -0.1818  0.0235
  814MOL0     C 9771   6.476   5.657   2.335 -0.5103 -0.0059 -0.4340
  814MOL0     N 9772   6.617   5.698   2.352  0.6282 -0.3945 -0.3794
  814MOL0     C 9773   6.659   5.762   2.472  0.6589  0.0356 -0.4860
  814MOL0     C 9774   6.796   5.765   2.457  0.8826  0.3586  0.3817
  814MOL0     C 9775   6.884   5.820   2.569 -0.5101 -0.1159  0.6575
  814MOL0     C 9776   6.914   5.707   2.668  0.6328  0.5212 -0.5549
  814MOL0     C 9777   7.009   5.765   2.777  0.3097  0.6062 -0.2302
  814MOL0     C 9778   7.004   5.682   2.905 -0.3830 -0.0586 -0.2556
  814MOL0     O 9779   7.097   5.580   2.931  0.5444  0.0659  0.6241
  814MOL0     C 9780   7.234   5.604   2.939 -0.3847 -1.6468 -0.5069
  814MOL0     C 9781   7.295   5.731   2.933  0.0550 -1.1226 -0.2071
  814MOL0     C 9782   7.432   5.733   2.928 -0.1837 -0.2088 -1.4826
  814MOL0     C 9783   7.518   5.624   2.946 -0.0421  0.5103 -0.0267
  814MOL0     C 9784   7.659   5.628   2.979 -0.4728 -0.0547 -0.8608
  814MOL0     O 9785   7.711   5.757   3.003 -0.3365 -0.2336 -0.0194
  814MOL0     C 9786   7.841   5.757   3.056  0.2227 -0.1657  0.2211
  814MOL0     C 9787   7.940   5.823   2.987 -0.2562 -0.0129 -0.8500
  814MOL0     C 9788   8.069   5.840   3.047  0.0215  0.5650 -0.2788
  814MOL0     C 9789   8.101   5.781   3.172  0.3999 -0.9505 -1.0276
  814MOL0     O 9790   8.232   5.789   3.224  0.0907 -0.7179  0.4397
  814MOL0     C 9791   8.260   5.709   3.341 -0.3391 -1.0090  0.0480
  814MOL0     C 9792   8.412   5.712   3.373 -0.6004  0.4577  0.0592
  814MOL0     C 9793   8.480   5.847   3.361  0.0708 -0.4918  0.9883
  814MOL0     C 9794   8.611   5.867   3.431 -0.2043 -0.2131  0.3439
  814MOL0     C 9795   8.701   5.983   3.371 -0.6226  0.3164  0.4475
  814MOL0     C 9796   8.808   5.941   3.267  0.2977  0.3285  0.0170
  814MOL0     C 9797   8.886   6.052   3.206 -0.1347  0.1119  0.0160
  814MOL0     C 9798   8.806   6.136   3.110 -0.1628 -0.6013  0.3320
  814MOL0    Cl 9799   8.727   6.050   2.968 -0.3085  0.3001 -0.4914
  814MOL0     C 9800   7.996   5.721   3.239  0.3111 -0.2812 -0.1026
  814MOL0     C 9801   7.865   5.711   3.184  0.3137 -0.5579  0.0887
  814MOL0     O 9802   7.724   5.521   2.985  0.6747 -0.2273 -0.0810
  814MOL0     C 9803   7.455   5.501   2.931 -1.1403  0.2020  0.2138
  814MOL0     C 9804   7.322   5.492   2.928  0.9969  0.4110  0.5529
  814MOL0     N 9805   6.832   5.716   2.327 -0.2805  0.5199 -0.2752
  814MOL0     N 9806   6.723   5.673   2.269  0.1673 -0.0855  0.5169
  814MOL0     C 9807   5.648   5.345   2.015 -0.1213 -1.0434 -0.2818
  814MOL0     C 9808   5.583   5.326   1.894  0.2377 -0.5390  0.5803
  814MOL0     C 9809   5.180   5.336   1.625  0.6363 -1.1145 -0.0133
  814MOL0     C 9810   5.058   5.406   1.611  0.7852  0.4545 -0.5832
  814MOL0     C 9811   4.970   5.390   1.503  0.6843  0.2847 -0.3724
  814MOL0     C 9812   4.997   5.291   1.405 -0.4592 -0.2730 -1.2703
  814MOL0     O 9813   4.923   5.283   1.292  0.3328  0.1724  0.0167
  814MOL0     C 9814   4.784   5.337   1.281  0.2144 -0.6777  0.1601
  814MOL0     C 9815   4.712   5.267   1.159 -0.5366  0.5264 -0.6040
  814MOL0     C 9816   4.703   5.114   1.174  0.1429 -0.1815 -0.2836
  814MOL0     C 9817   4.594   5.055   1.269 -0.5210 -0.3667  0.1894
  814MOL0     C 9818   4.449   5.085   1.246 -0.7216  0.0232  0.3169
  814MOL0     C 9819   4.340   5.131   1.226 -0.4209  0.0757 -0.0546
  814MOL0     C 9820   5.124   5.224   1.418 -0.9673  0.1689  0.6773
  814MOL0     C 9821   5.211   5.237   1.529 -0.6348  0.4303 -0.1658
  814MOL0     C 9822   5.343   5.156   1.535 -0.5100  0.4064  0.6189
  814MOL0     H 9823   5.263   5.357   2.038  0.2023  0.1115  2.6276
  814MOL0     H 9824   5.380   5.417   2.218  0.8900 -0.3605 -0.0756
  814MOL0     H 9825   5.817   5.378   2.215 -0.1104 -0.1377 -1.0816
  814MOL0     H 9826   5.764   5.546   2.198  1.9324 -0.1105 -0.5986
  814MOL0     H 9827   5.787   5.380   2.452  0.1311 -0.3099 -0.2344
  814MOL0     H 9828   5.727   5.541   2.451  0.6951  1.7144 -2.0729
  814MOL0     H 9829   5.950   5.569   2.507  1.4937  1.1361 -0.1717
  814MOL0     H 9830   5.928   5.636   2.346 -1.4826  0.6185  1.1243
  814MOL0     H 9831   6.059   5.362   2.409 -2.6439 -0.5206 -0.1469
  814MOL0     H 9832   6.047   5.442   2.250 -1.6161 -0.0937  0.2027
  814MOL0     H 9833   6.173   5.637   2.333 -0.2163  0.6721 -1.8575
  814MOL0     H 9834   6.204   5.558   2.486 -0.6360 -5.5191  1.3322
  814MOL0     H 9835   6.304   5.356   2.370  0.5658 -0.1127  0.3016
  814MOL0     H 9836   6.305   5.457   2.217  0.8495 -0.3468 -0.4550
  814MOL0     H 9837   6.524   5.444   2.318 -0.9181 -2.9589  0.6632
  814MOL0     H 9838   6.474   5.480   2.465  0.4737 -2.5542 -0.4837
  814MOL0     H 9839   6.434   5.681   2.237 -0.1637 -0.9824 -0.8298
  814MOL0     H 9840   6.424   5.710   2.415 -0.4295 -1.7506  0.8555
  814MOL0     H 9841   6.605   5.801   2.558 -1.2197 -0.5097 -1.3742
  814MOL0     H 9842   6.970   5.871   2.525 -2.2904  3.5632  1.0351
  814MOL0     H 9843   6.826   5.904   2.609 -0.8817  1.2958 -2.5541
  814MOL0     H 9844   6.822   5.682   2.721  1.2541 -0.6864 -0.0092
  814MOL0     H 9845   6.956   5.620   2.617 -1.3110 -0.4049 -0.6612
  814MOL0     H 9846   6.983   5.870   2.798  0.8864  0.6846  0.1015
  814MOL0     H 9847   7.111   5.774   2.739  1.7500 -1.5834  2.7899
  814MOL0     H 9848   6.903   5.642   2.913 -1.0917  1.6680 -0.1775
  814MOL0     H 9849   7.022   5.745   2.993  2.2853  1.4784 -1.7730
  814MOL0     H 9850   7.238   5.823   2.943  2.7396  0.4809  1.7078
  814MOL0     H 9851   7.476   5.833   2.928 -3.7739  1.5908 -0.1274
  814MOL0     H 9852   7.919   5.879   2.897 -1.4493 -1.4277 -1.5020
  814MOL0     H 9853   8.149   5.898   3.001  1.8605 -1.7360 -0.1357
  814MOL0     H 9854   8.208   5.747   3.430 -1.7335 -1.2543 -0.6237
  814MOL0     H 9855   8.218   5.609   3.327  0.0332 -0.8734 -2.7054
  814MOL0     H 9856   8.419   5.665   3.472 -1.2796 -1.5799 -0.8152
  814MOL0     H 9857   8.461   5.654   3.294  2.1879  0.1874  1.8400
  814MOL0     H 9858   8.482   5.875   3.255  0.6780 -0.2046  1.0747
  814MOL0     H 9859   8.411   5.922   3.399 -1.9883 -2.1299  0.7139
  814MOL0     H 9860   8.676   5.779   3.428 -0.2779 -0.2771 -2.9403
  814MOL0     H 9861   8.590   5.887   3.536 -2.0390  0.8237 -0.1857
  814MOL0     H 9862   8.747   6.036   3.455 -2.5056 -0.9405  2.3888
  814MOL0     H 9863   8.627   6.046   3.321  1.0739  1.1184 -1.1145
  814MOL0     H 9864   8.874   5.869   3.317 -1.6182 -1.7360 -0.2827
  814MOL0     H 9865   8.755   5.886   3.189 -0.5788  0.2680  0.6390
  814MOL0     H 9866   8.961   5.994   3.151  0.1316 -0.8197  1.3013
  814MOL0     H 9867   8.946   6.116   3.271  1.3791  0.5642 -1.7491
  814MOL0     H 9868   8.728   6.182   3.172 -1.2011 -1.2391 -0.4509
  814MOL0     H 9869   8.860   6.226   3.079 -2.2486  0.9164  0.8451
  814MOL0     H 9870   8.001   5.669   3.334  0.5442  0.1034  0.0981
  814MOL0     H 9871   7.790   5.656   3.241  0.4166 -1.9736 -1.0820
  814MOL0     H 9872   7.522   5.416   2.928  1.3461  1.8174  3.7100
  814MOL0     H 9873   7.266   5.399   2.934  1.2031  0.3510  1.7438
  814MOL0     H 9874   5.755   5.330   2.013 -0.2085 -1.6660 -1.5087
  814MOL0     H 9875   5.639   5.315   1.802 -1.3949  0.3359 -0.5605
  814MOL0     H 9876   5.028   5.478   1.687  1.5849  0.7582 -0.5502
  814MOL0     H 9877   4.881   5.452   1.495  0.7710  1.0981  3.2660
  814MOL0     H 9878   4.797   5.445   1.270  0.3762 -0.6818  0.2901
  814MOL0     H 9879   4.716   5.312   1.363 -0.7490 -0.2225 -0.4972
  814MOL0     H 9880   4.760   5.289   1.063  4.6654 -3.3539  0.6354
  814MOL0     H 9881   4.609   5.302   1.147  0.0564  3.9097  2.3953
  814MOL0     H 9882   4.803   5.073   1.192 -0.6871 -1.9019  0.5864
  814MOL0     H 9883   4.668   5.093   1.073 -2.3042 -1.3209  0.7166
  814MOL0     H 9884   4.606   4.946   1.271 -0.7010 -0.3986 -0.4447
  814MOL0     H 9885   4.622   5.086   1.371 -0.2995 -1.0191  0.3332
  814MOL0     H 9886   4.253   5.189   1.206  0.3726  1.2326 -0.2867
  814MOL0     H 9887   5.154   5.160   1.335  1.3468  2.3390 -0.2715
  814MOL0     H 9888   5.351   5.086   1.618  3.9484  1.3532  1.2931
  814MOL0     H 9889   5.375   5.091   1.454  2.0752 -3.4762  4.3343
  814MOL0     H 9890   5.422   5.232   1.545  2.2587 -2.1274 -0.3752
  815MOL0     O 9891   7.781   9.178   8.852  0.8128 -0.3202  0.0090
  815MOL0     C 9892   7.838   9.081   8.801 -0.3670  0.4610 -0.4370
  815MOL0     O 9893   7.936   9.085   8.718  0.1806  0.3868 -0.0167
  815MOL0     C 9894   7.998   9.205   8.693 -0.1065 -1.2525  0.0786
  815MOL0     C 9895   7.936   9.311   8.621  0.2299  1.0918 -0.2307
  815MOL0     C 9896   8.014   9.425   8.571  0.5525  0.4401 -0.7203
  815MOL0     C 9897   8.148   9.431   8.594  0.7491  0.2488  0.3078
  815MOL0     O 9898   8.231   9.530   8.542  0.3934  0.0118 -0.2859
  815MOL0     C 9899   8.200   9.593   8.422 -0.3376 -0.8159  0.4821
  815MOL0     C 9900   8.329   9.645   8.365 -0.7582 -0.2446  0.2331
  815MOL0     C 9901   8.446   9.539   8.351  0.1175  0.4502  0.2999
  815MOL0     C 9902   8.572   9.612   8.297  0.8160 -0.0509  0.0307
  815MOL0     C 9903   8.674   9.497   8.288 -0.2604 -1.0174  0.1663
  815MOL0     C 9904   8.812   9.549   8.245 -0.2375  0.0948  0.3263
  815MOL0     C 9905   8.893   9.420   8.218 -0.0631  0.5710  0.2660
  815MOL0     C 9906   9.052   9.453   8.212  0.2306  0.4611  0.1178
  815MOL0     N 9907   9.095   9.487   8.342 -1.3069 -0.3093 -0.7346
  815MOL0     C 9908   9.079   9.418   8.465  0.2869  0.0189  0.5718
  815MOL0     C 9909   9.150   9.494   8.558 -0.1154 -0.0336  0.3832
  815MOL0     C 9910   9.151   9.464   8.701  0.1929  0.2041 -0.4463
  815MOL0     C 9911   9.291   9.418   8.761 -0.1799  0.1540 -0.4765
  815MOL0     C 9912   9.266   9.326   8.885  0.1594 -0.1093 -0.0967
  815MOL0     C 9913   9.405   9.284   8.932 -0.2088 -0.1937  0.5524
  815MOL0     O 9914   9.455   9.405   8.991  0.3139  0.2213  0.3379
  815MOL0     C 9915   9.576   9.401   9.048  0.8710  1.5980  0.1381
  815MOL0     C 9916   9.648   9.279   9.086  0.4783 -0.0139  0.8852
  815MOL0     C 9917   9.782   9.276   9.125 -0.3411 -0.0281  0.4446
  815MOL0     C 9918   9.848   9.408   9.132 -0.0390  0.7161 -1.3478
  815MOL0     C 9919   9.993   9.411   9.147 -0.1235 -0.4187 -0.3433
  815MOL0     O 9920  10.056   9.534   9.184 -0.2846 -0.7592 -0.6149
  815MOL0     C 9921  10.190   9.522   9.213 -0.0336  0.2764  0.2367
  815MOL0     C 9922  10.230   9.529   9.344 -0.5534  0.5820 -0.8515
  815MOL0     C 9923  10.368   9.503   9.385  0.1005  0.3099  0.8303
  815MOL0     C 9924  10.467   9.477   9.284  0.6222  0.6435  0.5710
  815MOL0     O 9925  10.586   9.446   9.334 -0.1515  0.8666 -0.4361
  815MOL0     C 9926  10.695   9.457   9.246  0.2524 -0.3764 -0.0607
  815MOL0     C 9927  10.817   9.404   9.316 -0.2248 -0.4400  0.1812
  815MOL0     C 9928  10.943   9.420   9.233  0.6744 -0.2004 -0.5722
  815MOL0     C 9929  11.056   9.342   9.308  0.1430  0.0337  0.8171
  815MOL0     C 9930  11.177   9.326   9.220 -0.8086  0.0174  0.2470
  815MOL0     C 9931  11.255   9.452   9.184  0.5169  0.1535  1.0793
  815MOL0     C 9932  11.385   9.407   9.108 -0.2287 -0.2956 -0.5933
  815MOL0     C 9933  11.425   9.519   9.006  0.0731  0.4941  0.0156
  815MOL0    Cl 9934  11.522   9.632   9.107  0.1813 -0.1571 -0.3694
  815MOL0     C 9935  10.427   9.465   9.149  0.3801 -0.3476 -0.1423
  815MOL0     C 9936  10.291   9.490   9.110  0.4368  0.5781  0.3814
  815MOL0     O 9937  10.055   9.314   9.119  0.1603  0.1571  0.4534
  815MOL0     C 9938   9.771   9.529   9.116  0.6260 -0.5633 -0.5724
  815MOL0     C 9939   9.634   9.521   9.080 -0.4368  0.1462  0.3999
  815MOL0     N 9940   9.207   9.601   8.493 -1.0073  0.8224 -0.7869
  815MOL0     N 9941   9.190   9.585   8.366  0.6921  0.1964 -0.2669
  815MOL0     C 9942   8.210   9.330   8.666 -0.0957 -0.6940  0.4132
  815MOL0     C 9943   8.136   9.226   8.719  0.2070  0.4284  0.5524
  815MOL0     C 9944   7.769   8.956   8.810  0.8324 -0.1687  0.6861
  815MOL0     C 9945   7.727   8.886   8.699 -1.0939  0.9046  0.1047
  815MOL0     C 9946   7.649   8.774   8.715  0.0060 -1.1701 -0.5684
  815MOL0     C 9947   7.597   8.729   8.830 -0.2790  0.5240 -0.4765
  815MOL0     O 9948   7.514   8.617   8.818  0.4191  0.2192  0.3233
  815MOL0     C 9949   7.477   8.551   8.939  0.3168  0.7728  0.5417
  815MOL0     C 9950   7.385   8.437   8.892 -0.2632 -1.0126 -0.7742
  815MOL0     C 9951   7.335   8.350   9.005 -0.5812  0.8848  0.3040
  815MOL0     C 9952   7.237   8.252   8.932  0.0843  0.1216 -0.0088
  815MOL0     C 9953   7.292   8.117   8.910  0.0182 -0.0846  0.0998
  815MOL0     C 9954   7.330   8.001   8.886  0.0715  0.5537 -0.1344
  815MOL0     C 9955   7.638   8.798   8.941  0.0041 -0.1807  0.7645
  815MOL0     C 9956   7.721   8.911   8.940 -0.4544  0.2601  0.4784
  815MOL0     C 9957   7.762   8.965   9.073 -0.1385  0.4030  0.2992
  815MOL0     H 9958   7.829   9.318   8.606  0.1718 -1.6530 -1.8549
  815MOL0     H 9959   7.978   9.513   8.519  0.3753  0.5410 -0.4274
  815MOL0     H 9960   8.149   9.527   8.352 -0.8127 -1.8966  1.8071
  815MOL0     H 9961   8.131   9.677   8.433 -1.3521 -1.1014 -2.8814
  815MOL0     H 9962   8.350   9.730   8.430  0.4122 -1.3808  1.3880
  815MOL0     H 9963   8.315   9.690   8.266 -0.3243  0.5900  0.5475
  815MOL0     H 9964   8.418   9.455   8.287  0.3683  0.1808  0.5428
  815MOL0     H 9965   8.464   9.500   8.451 -2.0435  0.1494  0.6366
  815MOL0     H 9966   8.549   9.658   8.200  0.6325  0.9342  0.5322
  815MOL0     H 9967   8.604   9.692   8.364 -2.1362  0.0023  1.5403
  815MOL0     H 9968   8.686   9.454   8.389 -3.8759 -2.4987  0.1116
  815MOL0     H 9969   8.640   9.418   8.220  2.0579  1.3213 -4.0831
  815MOL0     H 9970   8.817   9.596   8.146  2.8542  0.3469  0.4817
  815MOL0     H 9971   8.859   9.623   8.310  0.4305  0.8121 -0.9166
  815MOL0     H 9972   8.861   9.369   8.126  0.8005 -1.4782  1.0228
  815MOL0     H 9973   8.869   9.346   8.296  2.0806 -0.2774  0.1929
  815MOL0     H 9974   9.104   9.362   8.181 -0.7865 -0.0507 -0.0971
  815MOL0     H 9975   9.071   9.532   8.138  2.0109 -1.8078 -2.0302
  815MOL0     H 9976   9.025   9.327   8.487  2.0743 -0.4580  3.4899
  815MOL0     H 9977   9.127   9.555   8.757  0.6284  0.5925 -0.8787
  815MOL0     H 9978   9.071   9.394   8.724  1.3504 -1.7648 -2.0873
  815MOL0     H 9979   9.343   9.355   8.688  1.4515  2.3397 -1.3272
  815MOL0     H 9980   9.359   9.504   8.771 -0.8373  0.6882 -0.4747
  815MOL0     H 9981   9.198   9.243   8.865 -1.0336  0.6481  0.6551
  815MOL0     H 9982   9.213   9.388   8.958  2.2263  0.4780  0.9917
  815MOL0     H 9983   9.462   9.248   8.847 -0.0009 -1.0240  1.0419
  815MOL0     H 9984   9.404   9.202   9.005 -1.5955 -1.8406 -1.2363
  815MOL0     H 9985   9.598   9.183   9.074 -0.0502  0.5248 -2.0484
  815MOL0     H 9986   9.824   9.185   9.166 -1.4243 -0.1030  1.4280
  815MOL0     H 9987  10.154   9.565   9.412 -0.7424  0.6510 -1.0988
  815MOL0     H 9988  10.388   9.525   9.490 -0.4225  2.6661  0.4923
  815MOL0     H 9989  10.685   9.390   9.160  1.6641 -1.7761  0.8010
  815MOL0     H 9990  10.709   9.562   9.220  1.4046 -0.0310  1.7786
  815MOL0     H 9991  10.835   9.471   9.401 -0.5577  0.4559 -0.4449
  815MOL0     H 9992  10.792   9.301   9.344  0.9662 -1.1076 -1.0903
  815MOL0     H 9993  10.916   9.381   9.135 -2.0970  0.6137 -0.2347
  815MOL0     H 9994  10.968   9.526   9.228  3.9366 -0.9042 -1.0739
  815MOL0     H 9995  11.021   9.243   9.340  0.4549  0.5513  2.9097
  815MOL0     H 9996  11.083   9.388   9.404  1.7877 -0.7213  0.7584
  815MOL0     H 9997  11.143   9.278   9.128  0.8831 -1.1637  0.2041
  815MOL0     H 9998  11.248   9.262   9.273  0.1142  1.5790  0.9872
  815MOL0     H 9999  11.194   9.517   9.121  1.4689 -0.7719 -0.8695
  815MOL0     H10000  11.270   9.515   9.272 -1.2659  3.1718 -0.6015
  815MOL0     H10001  11.366   9.312   9.056 -1.4111  0.2460 -1.1727
  815MOL0     H10002  11.465   9.383   9.179  0.6562 -2.3166 -2.1378
  815MOL0     H10003  11.482   9.475   8.924  2.1842  0.4330  1.4296
  815MOL0     H10004  11.342   9.577   8.965  0.7887  1.2589 -0.3897
  815MOL0     H10005  10.492   9.435   9.067  0.1485 -0.5308 -0.2583
  815MOL0     H10006  10.273   9.480   9.004  2.3728 -0.9536  0.1328
  815MOL0     H10007   9.804   9.629   9.143 -1.2171  0.4685 -1.8689
  815MOL0     H10008   9.580   9.613   9.060  0.7159  1.2209  1.9707
  815MOL0     H10009   8.316   9.341   8.686  0.7063 -1.7799 -2.7001
  815MOL0     H10010   8.190   9.149   8.774  1.2569 -0.3929 -1.5168
  815MOL0     H10011   7.772   8.926   8.608  3.5495 -0.1048  1.6412
  815MOL0     H10012   7.636   8.742   8.612 -0.1345 -0.0310 -0.9226
  815MOL0     H10013   7.413   8.612   9.004 -0.5310 -1.0607  1.5414
  815MOL0     H10014   7.566   8.511   8.988  0.0522 -2.7236 -1.4432
  815MOL0     H10015   7.435   8.370   8.821  0.3364 -0.1687 -1.1676
  815MOL0     H10016   7.305   8.478   8.829 -0.6152 -0.0067  0.3065
  815MOL0     H10017   7.296   8.414   9.085  2.1642  0.6974  1.9215
  815MOL0     H10018   7.421   8.293   9.041 -0.0453  1.3681 -0.1756
  815MOL0     H10019   7.152   8.241   9.000 -1.1166  1.7415 -1.1773
  815MOL0     H10020   7.202   8.286   8.834  0.7637 -1.7630 -0.9564
  815MOL0     H10021   7.352   7.897   8.878  1.2097  0.8077 -0.5472
  815MOL0     H10022   7.610   8.769   9.042 -2.7860 -1.9027 -0.3815
  815MOL0     H10023   7.722   8.916   9.162  2.2513 -1.7463  0.3137
  815MOL0     H10024   7.870   8.962   9.092 -0.4161  1.6777  2.3768
  815MOL0     H10025   7.729   9.070   9.070  0.1191  0.5191  1.0847
  816MOL0     O10026   4.849   2.353   9.946 -0.3259  0.0003  0.1456
  816MOL0     C10027   4.857   2.262   9.865  0.1799 -0.5322  1.1554
  816MOL0     O10028   4.965   2.225   9.792 -0.6181  0.1159  0.3532
  816MOL0     C10029   5.074   2.308   9.765  0.6323  0.0952 -0.3319
  816MOL0     C10030   5.196   2.253   9.720 -0.2282 -0.3036 -0.0996
  816MOL0     C10031   5.314   2.328   9.698 -0.1016 -0.2475  0.1367
  816MOL0     C10032   5.309   2.462   9.723  0.7586 -0.6866 -0.5365
  816MOL0     O10033   5.411   2.553   9.715  0.6024 -0.0773  0.2095
  816MOL0     C10034   5.539   2.493   9.716  0.6894  0.9295  0.0330
  816MOL0     C10035   5.646   2.587   9.745 -0.3118 -0.0655  0.0649
  816MOL0     C10036   5.767   2.612   9.653 -0.6540 -0.0862  0.1787
  816MOL0     C10037   5.817   2.476   9.609 -0.3863 -0.4504 -0.6043
  816MOL0     C10038   5.919   2.499   9.489  0.3431 -0.2482 -0.4990
  816MOL0     C10039   6.048   2.584   9.518 -1.4842  0.4450 -0.8092
  816MOL0     C10040   6.128   2.509   9.620 -0.1301  0.5290 -0.2452
  816MOL0     C10041   6.267   2.567   9.658  0.9055  0.4663 -0.2889
  816MOL0     N10042   6.375   2.520   9.573 -0.5649 -0.2428  0.1013
  816MOL0     C10043   6.375   2.527   9.435  0.0339  0.5784 -0.5671
  816MOL0     C10044   6.489   2.471   9.389  0.5713 -1.0944 -0.3072
  816MOL0     C10045   6.551   2.466   9.250  0.5328 -0.0558 -0.7411
  816MOL0     C10046   6.544   2.324   9.199  0.3364  0.0567  0.4553
  816MOL0     C10047   6.593   2.289   9.058 -0.0104 -0.0551 -0.9488
  816MOL0     C10048   6.744   2.300   9.038 -0.3069 -0.0341  0.2454
  816MOL0     O10049   6.766   2.412   8.949  0.2548 -0.1678 -0.6732
  816MOL0     C10050   6.876   2.416   8.881  0.8296  0.6813  1.2403
  816MOL0     C10051   6.899   2.523   8.791 -0.3348  0.0710 -0.3267
  816MOL0     C10052   7.022   2.540   8.722  1.5439  0.1980 -0.6333
  816MOL0     C10053   7.118   2.439   8.727 -0.5395 -0.8561 -1.3383
  816MOL0     C10054   7.228   2.445   8.632  0.6226 -0.4421  0.5272
  816MOL0     O10055   7.344   2.406   8.678 -0.0106  0.2165  0.1027
  816MOL0     C10056   7.462   2.419   8.601 -0.1315  0.0365 -1.4577
  816MOL0     C10057   7.513   2.524   8.524  0.5138  0.0687  0.4133
  816MOL0     C10058   7.635   2.509   8.463 -0.5024  0.1607 -0.3681
  816MOL0     C10059   7.722   2.393   8.482 -1.2245  0.2571 -0.3457
  816MOL0     O10060   7.850   2.382   8.419  0.2421 -0.3116 -0.7061
  816MOL0     C10061   7.924   2.486   8.370  0.8082 -0.7163  0.0749
  816MOL0     C10062   8.060   2.441   8.367 -0.8627 -1.2436  0.6617
  816MOL0     C10063   8.159   2.552   8.316  0.0397  0.6467  0.5847
  816MOL0     C10064   8.197   2.656   8.421  0.5799 -0.8334 -0.9137
  816MOL0     C10065   8.296   2.766   8.366 -0.0271 -0.1367 -0.1772
  816MOL0     C10066   8.330   2.883   8.461 -0.1221  0.3863 -0.1723
  816MOL0     C10067   8.375   2.845   8.605  0.3780  0.4228 -0.1549
  816MOL0     C10068   8.510   2.784   8.613  0.5682  0.4140 -1.1728
  816MOL0    Cl10069   8.656   2.892   8.574  0.6583  0.4880  0.1597
  816MOL0     C10070   7.673   2.292   8.559  0.3760  0.1629 -0.6226
  816MOL0     C10071   7.539   2.308   8.612 -0.0447  0.1088 -0.0062
  816MOL0     O10072   7.211   2.483   8.517 -0.1646 -0.1494  0.5706
  816MOL0     C10073   7.103   2.343   8.827  0.0201 -0.5909  1.2155
  816MOL0     C10074   6.986   2.334   8.900  0.5750 -0.4603 -0.3014
  816MOL0     N10075   6.552   2.424   9.507  0.1690  0.2810 -0.0236
  816MOL0     N10076   6.489   2.460   9.614 -0.2474  0.3776 -0.0029
  816MOL0     C10077   5.185   2.524   9.771 -0.6063 -0.0058  0.8848
  816MOL0     C10078   5.072   2.447   9.789 -0.3213  0.1776  0.1996
  816MOL0     C10079   4.738   2.176   9.854 -0.0608  0.1141 -0.0734
  816MOL0     C10080   4.749   2.068   9.762  0.2285  0.6542 -0.1189
  816MOL0     C10081   4.640   1.988   9.747  0.9347  0.3101 -1.0505
  816MOL0     C10082   4.520   2.001   9.818  0.0321  0.0791  0.9286
  816MOL0     O10083   4.424   1.900   9.784  0.1030 -1.3568 -0.1337
  816MOL0     C10084   4.297   1.907   9.853 -0.3879  0.8188 -0.7815
  816MOL0     C10085   4.226   1.801   9.768  0.4794  0.8046  0.0350
  816MOL0     C10086   4.081   1.795   9.813  0.8335  0.2981 -0.9920
  816MOL0     C10087   4.010   1.681   9.738  0.1956 -0.1813 -0.7164
  816MOL0     C10088   3.872   1.669   9.797 -0.1532  0.3130 -0.9240
  816MOL0     C10089   3.755   1.668   9.839 -0.2598  0.3305 -0.1871
  816MOL0     C10090   4.514   2.103   9.914  0.2781 -0.6415 -0.1180
  816MOL0     C10091   4.621   2.191   9.935 -0.0169  0.5606 -0.0626
  816MOL0     C10092   4.606   2.286  10.043  0.4352 -0.8732 -1.9252
  816MOL0     H10093   5.209   2.146   9.717 -0.9740 -0.3944 -0.2304
  816MOL0     H10094   5.408   2.287   9.662  0.3665 -1.0504  2.1355
  816MOL0     H10095   5.540   2.413   9.791  0.0080  3.4076  2.8999
  816MOL0     H10096   5.548   2.453   9.615  2.8283 -0.4785  0.7195
  816MOL0     H10097   5.687   2.565   9.844 -1.0719  1.0907  0.6567
  816MOL0     H10098   5.605   2.688   9.749 -0.8208 -0.1370 -2.0806
  816MOL0     H10099   5.844   2.661   9.713 -1.3611  1.6304 -0.2626
  816MOL0     H10100   5.742   2.674   9.566 -1.4771 -2.6727 -1.5680
  816MOL0     H10101   5.872   2.430   9.692  1.3998  0.5062 -1.2096
  816MOL0     H10102   5.742   2.401   9.583 -1.2082  0.1810 -0.1157
  816MOL0     H10103   5.951   2.400   9.455  1.2195 -1.1224  2.5926
  816MOL0     H10104   5.864   2.544   9.406 -1.8076 -1.3796  0.2498
  816MOL0     H10105   6.105   2.604   9.426 -0.9626 -0.5040 -0.7110
  816MOL0     H10106   6.028   2.681   9.562 -0.8573 -0.3072  1.2146
  816MOL0     H10107   6.139   2.407   9.584 -0.4962  0.8626 -1.3367
  816MOL0     H10108   6.079   2.510   9.718  0.9424 -0.1576  0.3147
  816MOL0     H10109   6.270   2.676   9.658  0.1869  0.5088 -2.0708
  816MOL0     H10110   6.289   2.537   9.761  2.4814  4.3180  0.6799
  816MOL0     H10111   6.310   2.588   9.373  2.4474  1.7386 -2.1167
  816MOL0     H10112   6.502   2.528   9.175  0.4789  0.9378  0.0951
  816MOL0     H10113   6.653   2.504   9.260  0.4906 -0.4305  1.8014
  816MOL0     H10114   6.603   2.267   9.271 -0.9644 -1.1925  0.5819
  816MOL0     H10115   6.438   2.298   9.202 -0.3993  2.8629  1.9287
  816MOL0     H10116   6.533   2.349   8.988  0.8412 -0.1621 -1.8017
  816MOL0     H10117   6.560   2.187   9.035 -0.3543 -0.1490 -0.0818
  816MOL0     H10118   6.781   2.204   9.000 -0.6949 -0.8872  1.9267
  816MOL0     H10119   6.803   2.317   9.129 -0.7156 -2.3241  0.9999
  816MOL0     H10120   6.815   2.589   8.770  0.0661  1.5447  2.1653
  816MOL0     H10121   7.027   2.615   8.644 -0.7352  0.5464 -0.5150
  816MOL0     H10122   7.454   2.614   8.514 -1.4984 -1.1984  0.1519
  816MOL0     H10123   7.664   2.584   8.391 -2.3135  0.3282 -0.9673
  816MOL0     H10124   7.890   2.524   8.274  0.9407  1.0279  0.6882
  816MOL0     H10125   7.910   2.575   8.432 -1.2526 -0.5695 -0.5312
  816MOL0     H10126   8.090   2.400   8.463 -1.5095  0.1352  1.4803
  816MOL0     H10127   8.056   2.360   8.294 -1.1241 -0.0020 -0.7671
  816MOL0     H10128   8.251   2.499   8.287  0.3221  1.6195 -0.3634
  816MOL0     H10129   8.127   2.598   8.222  1.1910  1.8627  0.7575
  816MOL0     H10130   8.241   2.610   8.510 -3.0779  0.1859  1.6615
  816MOL0     H10131   8.102   2.696   8.459  0.8675 -0.5513 -0.4930
  816MOL0     H10132   8.252   2.812   8.277 -0.1505  0.2502  0.0799
  816MOL0     H10133   8.390   2.718   8.337 -0.1549 -0.1200 -0.6287
  816MOL0     H10134   8.398   2.953   8.412 -0.8265  2.2610  1.3421
  816MOL0     H10135   8.236   2.932   8.490  0.6524  1.0554  1.3876
  816MOL0     H10136   8.301   2.778   8.649  0.1458  1.5237  1.2114
  816MOL0     H10137   8.370   2.933   8.669  0.0872  1.2553 -1.2772
  816MOL0     H10138   8.510   2.736   8.712 -2.5727  0.2645 -1.1692
  816MOL0     H10139   8.512   2.694   8.551 -2.7251  0.9035 -2.1504
  816MOL0     H10140   7.728   2.198   8.562  0.5562  0.2462 -1.2694
  816MOL0     H10141   7.494   2.227   8.668 -1.1462 -0.4401 -1.5977
  816MOL0     H10142   7.184   2.272   8.834  0.7808  0.3457  2.4443
  816MOL0     H10143   6.976   2.243   8.958 -3.3973 -1.8941 -2.8056
  816MOL0     H10144   5.192   2.632   9.779  0.3158 -0.0342  0.5934
  816MOL0     H10145   4.980   2.495   9.822  1.6258  2.7780  2.2731
  816MOL0     H10146   4.825   2.060   9.685  1.4666 -0.5351  1.1633
  816MOL0     H10147   4.650   1.898   9.687  1.3028 -0.3959  0.0494
  816MOL0     H10148   4.246   2.003   9.853 -2.9022 -0.3655  1.6885
  816MOL0     H10149   4.311   1.861   9.952 -0.6170 -0.6151 -1.3862
  816MOL0     H10150   4.269   1.703   9.793 -3.9897 -1.1310  1.1849
  816MOL0     H10151   4.228   1.816   9.660  0.0902 -1.8086 -0.4017
  816MOL0     H10152   4.036   1.895   9.807 -1.2829 -0.4381  1.0537
  816MOL0     H10153   4.091   1.766   9.918  1.3894  2.5304 -0.3649
  816MOL0     H10154   3.998   1.703   9.631  0.6294 -1.1757 -0.9741
  816MOL0     H10155   4.068   1.589   9.735 -0.3007 -0.6348  1.6215
  816MOL0     H10156   3.655   1.651   9.875 -0.0962 -2.7123 -0.8870
  816MOL0     H10157   4.425   2.114   9.976  0.5564  0.2739  0.1433
  816MOL0     H10158   4.688   2.273  10.115 -1.5041 -1.8839  0.2183
  816MOL0     H10159   4.586   2.388  10.008 -1.3516 -0.6531 -0.4476
  816MOL0     H10160   4.515   2.264  10.099  1.9516 -2.4043  0.0816
  817MOL0     O10161   3.727  10.869   5.371  0.5408  0.1648  0.2843
  817MOL0     C10162   3.646  10.949   5.312 -0.4657  0.1126  0.3243
  817MOL0     O10163   3.670  11.084   5.292 -0.2861  0.2642  0.6767
  817MOL0     C10164   3.791  11.138   5.317 -0.5457 -0.3954 -0.7514
  817MOL0     C10165   3.830  11.237   5.228 -0.2098 -0.3083 -0.4202
  817MOL0     C10166   3.956  11.305   5.235 -0.3620  0.3520  0.2455
  817MOL0     C10167   4.036  11.293   5.347  0.8976 -0.2124  0.4839
  817MOL0     O10168   4.144  11.367   5.375 -0.3494 -0.5157 -0.1000
  817MOL0     C10169   4.195  11.464   5.279  0.2198  0.6251  0.3404
  817MOL0     C10170   4.287  11.563   5.334  0.4336  0.1572 -0.2546
  817MOL0     C10171   4.412  11.494   5.388  0.2045  0.4529 -0.0721
  817MOL0     C10172   4.502  11.596   5.451 -0.4571  0.1053  0.4188
  817MOL0     C10173   4.646  11.545   5.481 -0.4387 -0.1194 -0.1121
  817MOL0     C10174   4.656  11.430   5.578 -0.5152  0.5243 -0.8026
  817MOL0     C10175   4.802  11.384   5.590 -0.3666  0.3697  0.6133
  817MOL0     C10176   4.897  11.474   5.673 -0.6933  0.7263 -0.1603
  817MOL0     N10177   4.891  11.483   5.813  0.1208  0.3012 -0.1473
  817MOL0     C10178   4.981  11.420   5.898  0.4524  1.0001 -0.6281
  817MOL0     C10179   4.974  11.499   6.008 -1.0194  0.6586  0.7785
  817MOL0     C10180   5.058  11.478   6.134 -0.3831 -0.5601  0.0298
  817MOL0     C10181   5.203  11.480   6.105 -0.5338 -0.9212 -0.4785
  817MOL0     C10182   5.252  11.613   6.050  0.6771 -0.6533  0.9843
  817MOL0     C10183   5.392  11.616   6.020 -0.2045  0.3301  0.0642
  817MOL0     O10184   5.466  11.617   6.143 -0.5830  0.8801 -0.4563
  817MOL0     C10185   5.605  11.574   6.137  0.8556  0.5217  0.4831
  817MOL0     C10186   5.634  11.442   6.092 -0.4731  0.7591 -0.3141
  817MOL0     C10187   5.759  11.394   6.090 -0.0954  1.0038 -0.5321
  817MOL0     C10188   5.867  11.473   6.139  0.1102  1.1704  0.0097
  817MOL0     C10189   5.997  11.411   6.143 -0.2317 -0.5994 -0.3658
  817MOL0     O10190   6.016  11.287   6.108  0.1886 -0.4682  0.4206
  817MOL0     C10191   6.140  11.253   6.054 -0.2633 -0.5103  0.0048
  817MOL0     C10192   6.164  11.258   5.916 -0.4400  0.8342  0.6721
  817MOL0     C10193   6.293  11.231   5.872  0.3284  0.1078  0.6606
  817MOL0     C10194   6.394  11.204   5.961 -0.3985  0.5474 -0.1539
  817MOL0     O10195   6.524  11.174   5.924  0.3237  0.0541  0.3565
  817MOL0     C10196   6.533  11.043   5.873  0.1175 -0.4961  0.1853
  817MOL0     C10197   6.683  10.998   5.899  0.4440 -0.0068 -0.1876
  817MOL0     C10198   6.721  10.969   6.039  0.0159  1.1557 -0.0042
  817MOL0     C10199   6.853  11.032   6.076  0.5658 -0.1885 -0.5097
  817MOL0     C10200   6.919  10.972   6.199  0.5024  1.4739  0.1500
  817MOL0     C10201   6.964  10.812   6.183  0.9421 -0.6205  0.3356
  817MOL0     C10202   7.039  10.759   6.303  0.4016 -0.5702  0.9953
  817MOL0     C10203   7.125  10.867   6.376 -0.2546  0.0659 -1.1797
  817MOL0    Cl10204   7.245  10.926   6.263  0.2036 -0.1327  0.4571
  817MOL0     C10205   6.373  11.194   6.097  0.3331  0.1593 -0.0684
  817MOL0     C10206   6.238  11.211   6.142 -0.6536  1.4702  0.3808
  817MOL0     O10207   6.084  11.483   6.199 -0.1986 -0.0796  1.0749
  817MOL0     C10208   5.841  11.593   6.200  1.2846 -0.4021  0.9347
  817MOL0     C10209   5.706  11.648   6.186 -1.1373  0.1754 -0.2774
  817MOL0     N10210   4.891  11.607   5.989 -0.1086  0.4645  0.4803
  817MOL0     N10211   4.836  11.587   5.874  0.0968 -0.3863  0.8638
  817MOL0     C10212   3.999  11.209   5.445  0.7514  0.5610  0.2678
  817MOL0     C10213   3.876  11.127   5.432 -0.3446 -0.2454 -0.1215
  817MOL0     C10214   3.513  10.900   5.258  0.0996  0.5232  1.4736
  817MOL0     C10215   3.501  10.766   5.225  0.8262  0.0703  1.0855
  817MOL0     C10216   3.374  10.703   5.198  0.2598  0.0238 -1.1035
  817MOL0     C10217   3.257  10.772   5.193 -0.0529 -0.4981 -0.2404
  817MOL0     O10218   3.133  10.723   5.172 -0.2712 -0.0078 -0.2110
  817MOL0     C10219   3.111  10.580   5.161 -0.0297 -0.5330  0.4236
  817MOL0     C10220   3.140  10.540   5.012 -0.1735  0.5093  0.0572
  817MOL0     C10221   3.042  10.606   4.914 -0.5009 -0.6513  0.0891
  817MOL0     C10222   3.042  10.531   4.782  0.0413  0.3658  0.4027
  817MOL0     C10223   3.165  10.548   4.713 -0.0602 -0.4769  0.7206
  817MOL0     C10224   3.277  10.556   4.676  0.4102 -0.1391 -0.7798
  817MOL0     C10225   3.273  10.914   5.216 -0.3285 -0.0183 -0.0897
  817MOL0     C10226   3.398  10.979   5.238  0.2948  0.8330  0.0028
  817MOL0     C10227   3.386  11.128   5.263 -0.4963 -0.5561  0.9896
  817MOL0     H10228   3.762  11.249   5.144  1.8410 -1.6948 -2.4107
  817MOL0     H10229   3.979  11.368   5.150 -2.0560 -2.0009 -2.1515
  817MOL0     H10230   4.234  11.416   5.190  3.0014  0.2657  1.6428
  817MOL0     H10231   4.108  11.525   5.254 -0.8679 -0.0617  2.1972
  817MOL0     H10232   4.246  11.617   5.420  1.3710  0.0802  0.2604
  817MOL0     H10233   4.305  11.634   5.252 -1.1802  0.8145 -0.0732
  817MOL0     H10234   4.458  11.429   5.313  1.1226 -1.9881  2.4528
  817MOL0     H10235   4.377  11.430   5.469  0.1396  1.7884  1.0031
  817MOL0     H10236   4.509  11.684   5.387  1.6738  1.0186  1.8167
  817MOL0     H10237   4.460  11.618   5.549 -0.8468 -0.8977  0.4883
  817MOL0     H10238   4.692  11.522   5.384 -0.4865 -1.5792  0.1897
  817MOL0     H10239   4.702  11.626   5.528 -0.3482 -0.5048  0.4601
  817MOL0     H10240   4.606  11.449   5.673 -0.2134 -1.1286 -0.2760
  817MOL0     H10241   4.592  11.348   5.545  0.2987  0.0450 -1.2464
  817MOL0     H10242   4.842  11.371   5.489  3.5124 -3.6284  2.3126
  817MOL0     H10243   4.805  11.286   5.641  3.1875 -0.2527 -0.4669
  817MOL0     H10244   5.001  11.457   5.643  0.5356  2.0343  2.8997
  817MOL0     H10245   4.876  11.576   5.638 -2.1507  0.5519  0.1534
  817MOL0     H10246   5.024  11.322   5.886 -0.8421  0.4012 -0.4938
  817MOL0     H10247   5.030  11.561   6.199 -4.0457 -1.3015 -0.3674
  817MOL0     H10248   5.041  11.381   6.182 -2.3912 -0.6410 -0.7251
  817MOL0     H10249   5.264  11.457   6.193 -0.3070 -1.2405 -0.7179
  817MOL0     H10250   5.224  11.402   6.032  1.6519 -0.0101 -0.9002
  817MOL0     H10251   5.241  11.688   6.129 -0.2297 -0.9795  1.1883
  817MOL0     H10252   5.190  11.635   5.963  3.2257 -2.3200 -1.4015
  817MOL0     H10253   5.417  11.702   5.957  1.6564  0.4831  0.9638
  817MOL0     H10254   5.427  11.530   5.963  1.0710  0.0831  1.1920
  817MOL0     H10255   5.552  11.384   6.050  0.2501 -0.3593 -0.2331
  817MOL0     H10256   5.782  11.295   6.051 -0.7546  0.2189  0.9895
  817MOL0     H10257   6.078  11.293   5.859  0.6827  2.5339 -0.0567
  817MOL0     H10258   6.305  11.255   5.767 -3.7817  1.3097  0.2817
  817MOL0     H10259   6.462  10.978   5.925  0.1965 -0.1195  0.7791
  817MOL0     H10260   6.514  11.053   5.766 -0.1812 -2.5824 -0.0053
  817MOL0     H10261   6.699  10.911   5.834 -0.0081  0.9225 -1.5932
  817MOL0     H10262   6.752  11.069   5.852  0.7802 -2.4190 -3.7091
  817MOL0     H10263   6.640  10.989   6.109  0.8098 -0.6817  1.5382
  817MOL0     H10264   6.736  10.862   6.057 -0.1589  0.4183 -3.4367
  817MOL0     H10265   6.842  11.138   6.098  4.4077 -0.1224  2.0544
  817MOL0     H10266   6.918  11.027   5.988  1.8993 -3.3443  0.4984
  817MOL0     H10267   6.848  10.999   6.278 -2.4463  1.5914 -2.3505
  817MOL0     H10268   7.008  11.036   6.206 -0.7030  3.0467  2.0524
  817MOL0     H10269   6.873  10.752   6.173  0.3923 -0.1364  2.0890
  817MOL0     H10270   7.025  10.797   6.094 -2.0947 -0.1459 -1.9983
  817MOL0     H10271   7.102  10.676   6.269  0.1818  0.5381 -2.5227
  817MOL0     H10272   6.970  10.722   6.380  0.4827 -1.1478  0.7974
  817MOL0     H10273   7.065  10.952   6.409  0.5467  0.2194 -0.1149
  817MOL0     H10274   7.171  10.821   6.463 -0.5105 -0.2607 -1.2155
  817MOL0     H10275   6.456  11.167   6.161 -1.3241 -0.6543  1.8184
  817MOL0     H10276   6.214  11.181   6.244 -0.9749  2.4210  0.5880
  817MOL0     H10277   5.920  11.649   6.249 -0.3346  1.5359  1.4669
  817MOL0     H10278   5.680  11.750   6.214  1.0391  0.2410  1.7887
  817MOL0     H10279   4.071  11.210   5.526 -0.5925  4.7601  1.6284
  817MOL0     H10280   3.845  11.067   5.517 -1.9064  0.9218  0.1856
  817MOL0     H10281   3.588  10.703   5.216  0.9319  0.3257  0.1920
  817MOL0     H10282   3.386  10.597   5.182 -0.7277 -0.3196  0.2303
  817MOL0     H10283   3.006  10.569   5.191 -0.7779  0.9985 -1.3920
  817MOL0     H10284   3.172  10.520   5.228 -1.9296 -2.3507  0.6657
  817MOL0     H10285   3.136  10.433   4.990  3.5869  0.1547  0.4742
  817MOL0     H10286   3.246  10.564   4.999 -0.0224  0.8896  1.6736
  817MOL0     H10287   3.073  10.711   4.906 -0.4446 -0.7238 -0.7248
  817MOL0     H10288   2.938  10.608   4.946 -0.0995 -1.2202  1.4916
  817MOL0     H10289   3.027  10.424   4.796  0.1994 -0.0536 -2.1556
  817MOL0     H10290   2.951  10.572   4.736 -3.0929 -4.1501  1.8823
  817MOL0     H10291   3.384  10.551   4.673  0.6294  1.2447  1.8822
  817MOL0     H10292   3.181  10.973   5.216 -1.4829 -1.5157  3.4058
  817MOL0     H10293   3.448  11.182   5.190  2.4670 -1.2794  2.8058
  817MOL0     H10294   3.284  11.168   5.254  0.2118  1.3651  1.0741
  817MOL0     H10295   3.421  11.151   5.364 -0.7929 -0.4766  1.0749
  818MOL0     O10296   0.740   2.586   7.589 -0.4718 -0.2939  0.1488
  818MOL0     C10297   0.678   2.493   7.642 -0.2223 -0.2958  0.6632
  818MOL0     O10298   0.551   2.475   7.637  1.0466  0.3809  0.0053
  818MOL0     C10299   0.493   2.523   7.519  0.1384 -1.1137 -0.7488
  818MOL0     C10300   0.480   2.440   7.405  0.2929 -0.1549 -0.0356
  818MOL0     C10301   0.389   2.483   7.307 -0.1305 -0.5177 -0.4103
  818MOL0     C10302   0.321   2.603   7.302 -0.2966 -0.6916 -0.2367
  818MOL0     O10303   0.248   2.659   7.203  0.2172 -0.3888 -0.8558
  818MOL0     C10304   0.246   2.583   7.083  0.7122 -0.7915  0.9176
  818MOL0     C10305   0.143   2.647   6.996 -0.3120 -0.1923 -0.2528
  818MOL0     C10306   0.196   2.781   6.937 -0.0794  0.2511 -0.0494
  818MOL0     C10307   0.085   2.842   6.845  0.1651  0.1777  0.4408
  818MOL0     C10308   0.122   2.965   6.763 -1.1064  0.2793  0.6670
  818MOL0     C10309   0.021   2.994   6.646 -0.3599  0.0750 -0.4703
  818MOL0     C10310  -0.111   3.054   6.692 -0.7392  0.1723 -0.5251
  818MOL0     C10311  -0.130   3.195   6.631  0.0931  0.2852 -0.2016
  818MOL0     N10312  -0.045   3.306   6.689 -0.4740 -0.5069  0.6313
  818MOL0     C10313  -0.032   3.348   6.816 -0.3836  0.3591 -0.6010
  818MOL0     C10314   0.045   3.456   6.815 -0.0497 -0.1775 -0.6334
  818MOL0     C10315   0.088   3.540   6.935  0.3179 -0.3972  0.5804
  818MOL0     C10316   0.224   3.503   6.982 -0.0622 -0.2607 -0.9448
  818MOL0     C10317   0.272   3.593   7.103  0.3396  0.9352  0.1139
  818MOL0     C10318   0.370   3.515   7.200  0.8305  0.5030  0.4434
  818MOL0     O10319   0.418   3.609   7.295  1.4303 -0.7348 -0.1392
  818MOL0     C10320   0.487   3.573   7.403 -0.5751 -0.4728 -0.6851
  818MOL0     C10321   0.472   3.644   7.520  0.0018 -0.6942  0.0783
  818MOL0     C10322   0.536   3.596   7.636 -0.2168 -0.3901 -0.1096
  818MOL0     C10323   0.622   3.483   7.628 -0.4984 -1.0214 -0.6766
  818MOL0     C10324   0.690   3.434   7.751  0.5507 -0.0328  0.5104
  818MOL0     O10325   0.800   3.360   7.732 -0.7931  0.2504  0.5305
  818MOL0     C10326   0.882   3.332   7.842 -0.1392 -1.2457 -0.3165
  818MOL0     C10327   0.931   3.210   7.850 -0.4000  0.6338  0.3052
  818MOL0     C10328   1.019   3.172   7.950 -0.5489  0.2308  0.4445
  818MOL0     C10329   1.062   3.258   8.052 -0.2411 -0.6939 -0.3154
  818MOL0     O10330   1.138   3.205   8.155 -0.0992 -0.7751 -0.5983
  818MOL0     C10331   1.252   3.290   8.187  0.0955 -0.5264 -0.4866
  818MOL0     C10332   1.355   3.196   8.256  1.6330  0.3947 -1.2860
  818MOL0     C10333   1.491   3.260   8.271  0.7610  1.0247  0.1805
  818MOL0     C10334   1.570   3.185   8.380  0.3667  0.2642  0.6895
  818MOL0     C10335   1.715   3.204   8.350  0.0819  0.4136 -0.9997
  818MOL0     C10336   1.795   3.244   8.472 -0.5358  0.7841  0.0736
  818MOL0     C10337   1.938   3.249   8.420  0.4355  0.4269  0.2015
  818MOL0     C10338   2.023   3.284   8.539 -1.3608 -0.5066  0.6792
  818MOL0    Cl10339   2.189   3.310   8.483  0.1706 -0.3741 -0.2371
  818MOL0     C10340   0.999   3.388   8.054 -1.0654  0.1864 -0.1750
  818MOL0     C10341   0.915   3.421   7.946 -0.2250 -0.5257  0.3153
  818MOL0     O10342   0.647   3.478   7.860 -0.3229  0.0447  0.1052
  818MOL0     C10343   0.641   3.426   7.505  0.1288  1.8449 -0.0505
  818MOL0     C10344   0.582   3.474   7.392  0.4515 -0.5116  0.1230
  818MOL0     N10345   0.092   3.473   6.684  0.5011  0.2096  0.9157
  818MOL0     N10346   0.047   3.368   6.615  0.4839 -0.1593  0.2599
  818MOL0     C10347   0.337   2.676   7.413 -0.5251  0.1154 -0.9813
  818MOL0     C10348   0.418   2.641   7.524 -0.2966 -0.5616  0.0277
  818MOL0     C10349   0.749   2.416   7.752 -1.1512 -0.2967  0.9418
  818MOL0     C10350   0.678   2.358   7.856  0.4499  0.2212 -0.4623
  818MOL0     C10351   0.736   2.288   7.964  0.1307 -1.1889  0.3821
  818MOL0     C10352   0.880   2.276   7.975  0.7434  0.2961  0.0776
  818MOL0     O10353   0.954   2.210   8.068  0.3036  0.1800  0.1713
  818MOL0     C10354   0.876   2.137   8.154  0.2665  0.7387  0.4650
  818MOL0     C10355   0.945   2.067   8.276  0.3348 -0.2048  0.2029
  818MOL0     C10356   0.964   1.925   8.227  0.0456  0.1540  0.3095
  818MOL0     C10357   1.042   1.833   8.316 -0.0091 -0.7690  0.1400
  818MOL0     C10358   0.963   1.800   8.435 -0.1554  0.1382  0.1993
  818MOL0     C10359   0.901   1.759   8.524  0.5509  0.2346 -0.2137
  818MOL0     C10360   0.950   2.343   7.874  0.4620 -0.7864 -0.6556
  818MOL0     C10361   0.886   2.412   7.769 -0.2091 -0.7488  0.7222
  818MOL0     C10362   0.994   2.464   7.673 -0.7627  0.0885  0.1272
  818MOL0     H10363   0.525   2.341   7.402 -1.5786 -1.0919  0.8803
  818MOL0     H10364   0.372   2.415   7.224 -2.6120  2.6796 -2.7729
  818MOL0     H10365   0.344   2.578   7.034  0.5499  1.3454  0.2950
  818MOL0     H10366   0.212   2.485   7.117  0.9185 -0.9580  0.6488
  818MOL0     H10367   0.049   2.670   7.048 -0.7975  1.2653 -1.6831
  818MOL0     H10368   0.119   2.580   6.912  2.0558 -0.8396 -0.4752
  818MOL0     H10369   0.291   2.755   6.890 -1.5035 -3.6116 -1.1849
  818MOL0     H10370   0.214   2.857   7.014  2.6597  1.5412 -1.8372
  818MOL0     H10371   0.049   2.765   6.776 -0.7714  3.1386 -2.6484
  818MOL0     H10372  -0.001   2.880   6.901 -0.7633  0.1093 -0.8779
  818MOL0     H10373   0.140   3.057   6.819  2.1044  1.2722 -1.6852
  818MOL0     H10374   0.219   2.944   6.718 -0.7634 -0.0331  1.5405
  818MOL0     H10375   0.065   3.079   6.593 -0.9215  0.2698 -0.6341
  818MOL0     H10376   0.009   2.903   6.588 -0.3663  1.6912 -3.1775
  818MOL0     H10377  -0.106   3.072   6.799  4.2578  0.1839 -0.5477
  818MOL0     H10378  -0.200   2.990   6.681 -0.9199  0.3628 -0.1939
  818MOL0     H10379  -0.115   3.176   6.524 -0.1899  0.0882 -0.2080
  818MOL0     H10380  -0.235   3.225   6.645 -0.7482 -2.0863 -1.0167
  818MOL0     H10381  -0.076   3.314   6.910  1.4448 -1.3096 -0.2910
  818MOL0     H10382   0.091   3.648   6.920  0.9268 -0.1259  2.4161
  818MOL0     H10383   0.020   3.522   7.019 -0.0770  1.1695  0.6169
  818MOL0     H10384   0.235   3.398   7.011  1.6067  0.2953  0.5819
  818MOL0     H10385   0.288   3.502   6.894  0.4917 -1.5051 -0.5546
  818MOL0     H10386   0.179   3.619   7.154 -0.6584 -1.4953 -0.3353
  818MOL0     H10387   0.318   3.683   7.062  2.2284 -0.6732 -1.5238
  818MOL0     H10388   0.449   3.478   7.134 -2.2869 -3.6008 -1.4489
  818MOL0     H10389   0.315   3.438   7.255  0.7130  0.1978 -0.0961
  818MOL0     H10390   0.404   3.728   7.527 -0.6593 -1.2088 -0.0629
  818MOL0     H10391   0.509   3.645   7.729  1.6013  1.0102 -0.2586
  818MOL0     H10392   0.901   3.143   7.770  0.3091  1.9137 -1.0805
  818MOL0     H10393   1.066   3.074   7.952 -0.0218  0.4877  0.6971
  818MOL0     H10394   1.309   3.319   8.099 -0.2570 -1.7533 -1.1396
  818MOL0     H10395   1.232   3.378   8.250  1.4294 -0.7023  0.2231
  818MOL0     H10396   1.325   3.195   8.361  3.4654  0.2949 -0.7217
  818MOL0     H10397   1.346   3.099   8.206 -2.3064 -0.2190  0.2706
  818MOL0     H10398   1.540   3.231   8.177 -0.2989 -0.1015 -0.0488
  818MOL0     H10399   1.494   3.368   8.287 -1.4561  0.8033  2.5382
  818MOL0     H10400   1.550   3.078   8.389  2.7857 -0.0953  3.5827
  818MOL0     H10401   1.543   3.215   8.482  0.7246 -0.2712  0.9518
  818MOL0     H10402   1.732   3.281   8.274 -3.0802  0.7641 -1.4836
  818MOL0     H10403   1.746   3.105   8.315  1.3886 -0.0534  1.2565
  818MOL0     H10404   1.773   3.347   8.501  0.1292  1.3907 -1.4728
  818MOL0     H10405   1.796   3.167   8.549  0.7397 -0.1768 -0.8515
  818MOL0     H10406   1.948   3.326   8.344  0.4173  1.2477  1.0194
  818MOL0     H10407   1.968   3.156   8.369 -0.7805  1.8857 -3.5067
  818MOL0     H10408   1.981   3.374   8.585 -3.5995 -0.8412 -0.5857
  818MOL0     H10409   2.014   3.199   8.607  0.1564 -1.9348 -0.7948
  818MOL0     H10410   1.009   3.453   8.141  1.8749  0.5906 -0.7069
  818MOL0     H10411   0.860   3.514   7.940  0.4658 -0.0864  0.6142
  818MOL0     H10412   0.703   3.343   7.474 -0.3622  2.5455 -3.4088
  818MOL0     H10413   0.615   3.441   7.294  1.2796  1.4061 -0.2804
  818MOL0     H10414   0.300   2.774   7.441 -0.3490 -0.3185  0.9406
  818MOL0     H10415   0.424   2.707   7.611 -0.7864  0.8280 -0.9551
  818MOL0     H10416   0.570   2.363   7.851 -0.0109 -2.2039  2.9495
  818MOL0     H10417   0.678   2.249   8.047  0.9307 -0.0815  1.5138
  818MOL0     H10418   0.821   2.062   8.096  0.5098  1.6788 -1.0184
  818MOL0     H10419   0.809   2.205   8.208  0.2242 -1.4215  3.4103
  818MOL0     H10420   0.887   2.060   8.368 -0.2461  0.1683 -0.1329
  818MOL0     H10421   1.036   2.121   8.304 -1.0622  0.8243  3.1828
  818MOL0     H10422   1.032   1.939   8.142 -0.1536  0.5691  0.2193
  818MOL0     H10423   0.871   1.880   8.192  1.5300 -1.2038 -2.2135
  818MOL0     H10424   1.057   1.752   8.243 -1.6548 -0.0288 -1.0791
  818MOL0     H10425   1.135   1.888   8.332 -1.1285  0.8639  1.3131
  818MOL0     H10426   0.849   1.724   8.610  0.6782 -5.5146 -2.0698
  818MOL0     H10427   1.057   2.356   7.890 -0.1733  3.2194  1.6440
  818MOL0     H10428   1.094   2.424   7.687 -0.1601  1.7202  0.6671
  818MOL0     H10429   0.963   2.457   7.568 -0.9029 -4.5452  0.2936
  818MOL0     H10430   0.996   2.564   7.717 -0.2029 -0.2367  0.8589
  819MOL0     O10431   1.945   3.845   4.094 -0.7347 -0.5383  0.6643
  819MOL0     C10432   2.002   3.890   3.993  0.5411  0.7824  0.5902
  819MOL0     O10433   2.100   3.977   3.986  0.1069  0.1285 -0.4216
  819MOL0     C10434   2.176   4.022   4.100 -0.4556 -0.1597  0.5198
  819MOL0     C10435   2.172   3.979   4.238  0.7554  0.3086 -0.0001
  819MOL0     C10436   2.269   4.037   4.326 -0.1858  0.7197 -0.5091
  819MOL0     C10437   2.361   4.133   4.280  0.8867 -1.3283  0.6411
  819MOL0     O10438   2.454   4.181   4.363  0.4323 -0.7337  0.1756
  819MOL0     C10439   2.550   4.084   4.392 -1.3090  0.1299 -0.7428
  819MOL0     C10440   2.679   4.140   4.426 -0.3998  0.4482  0.4024
  819MOL0     C10441   2.803   4.090   4.344  0.3657 -1.0203 -0.2301
  819MOL0     C10442   2.837   3.947   4.354 -0.4355  0.1217  0.1274
  819MOL0     C10443   2.979   3.925   4.304 -0.4103  0.4294  1.0431
  819MOL0     C10444   3.012   3.772   4.296  0.1757  0.3472 -0.5452
  819MOL0     C10445   3.139   3.745   4.228 -0.0660  0.0356  0.2325
  819MOL0     C10446   3.155   3.613   4.164  0.6109 -0.0596  0.8393
  819MOL0     N10447   3.146   3.505   4.256 -0.5979 -0.3672  0.9751
  819MOL0     C10448   3.231   3.488   4.359 -0.2751 -0.0708 -0.0096
  819MOL0     C10449   3.179   3.397   4.445 -0.6111  0.1860  0.3012
  819MOL0     C10450   3.233   3.354   4.575  0.1595  0.0361  0.2392
  819MOL0     C10451   3.319   3.229   4.567 -0.8880 -0.2369  0.2192
  819MOL0     C10452   3.463   3.262   4.535 -0.0438  0.1696  0.2688
  819MOL0     C10453   3.542   3.329   4.652  0.1010  0.1510  0.0650
  819MOL0     O10454   3.681   3.317   4.618 -0.4847 -0.0906 -0.5841
  819MOL0     C10455   3.750   3.408   4.541  0.8496 -0.1082 -0.6758
  819MOL0     C10456   3.875   3.369   4.490  0.4990 -0.0067  0.4588
  819MOL0     C10457   3.961   3.449   4.417 -0.4974  0.1930  0.0811
  819MOL0     C10458   3.917   3.577   4.387 -0.7196 -0.0838 -0.5646
  819MOL0     C10459   4.010   3.677   4.326 -0.0282 -0.3339 -0.1556
  819MOL0     O10460   4.141   3.635   4.321  1.1281 -0.3966 -0.1288
  819MOL0     C10461   4.239   3.690   4.253  0.1204  0.6720 -0.7390
  819MOL0     C10462   4.278   3.822   4.278  0.3067 -0.5163  0.6157
  819MOL0     C10463   4.386   3.877   4.207  0.2868 -0.1960 -0.9409
  819MOL0     C10464   4.458   3.798   4.115 -0.2851 -0.2330  0.8584
  819MOL0     O10465   4.562   3.840   4.043 -0.4609  0.4865  0.4598
  819MOL0     C10466   4.657   3.946   4.084 -0.4671  0.6564  0.0164
  819MOL0     C10467   4.753   3.901   4.194  1.0557  0.1967  0.5595
  819MOL0     C10468   4.812   3.761   4.168 -0.4016 -0.1811  0.9421
  819MOL0     C10469   4.927   3.743   4.268  0.3880  0.4503  0.1297
  819MOL0     C10470   5.011   3.614   4.247 -0.1066 -0.1474 -0.5116
  819MOL0     C10471   5.146   3.625   4.326 -0.5168 -0.4865  0.8170
  819MOL0     C10472   5.232   3.503   4.298 -0.5662 -0.4683  0.1102
  819MOL0     C10473   5.352   3.487   4.399  0.0656 -0.0405 -0.8213
  819MOL0    Cl10474   5.288   3.495   4.570 -0.0592  0.1889  0.2329
  819MOL0     C10475   4.410   3.667   4.089  0.1893 -0.2451  0.1248
  819MOL0     C10476   4.300   3.612   4.154  0.7001  0.2192  0.7025
  819MOL0     O10477   3.960   3.786   4.282 -0.3496  0.6215  0.2177
  819MOL0     C10478   3.801   3.622   4.448  0.8872 -0.5495  0.3542
  819MOL0     C10479   3.716   3.537   4.511  0.1698  0.4366 -0.7731
  819MOL0     N10480   3.052   3.363   4.400 -0.2747 -0.2319 -0.1687
  819MOL0     N10481   3.040   3.433   4.282  0.1273 -0.1261 -0.9301
  819MOL0     C10482   2.364   4.177   4.145 -0.0453 -0.7397  0.5180
  819MOL0     C10483   2.272   4.126   4.058 -0.2919 -0.0066  0.2602
  819MOL0     C10484   1.943   3.859   3.860  1.0006  0.4790 -0.3177
  819MOL0     C10485   1.989   3.926   3.747  0.4957 -0.2335 -0.2942
  819MOL0     C10486   1.927   3.897   3.623 -1.0088 -0.2954  0.3225
  819MOL0     C10487   1.826   3.801   3.617 -0.2493 -0.1277  0.4139
  819MOL0     O10488   1.788   3.792   3.489 -0.2523  0.0716  0.5571
  819MOL0     C10489   1.749   3.665   3.434 -0.6700 -0.6008 -0.2632
  819MOL0     C10490   1.653   3.690   3.325  0.7483  0.8861 -0.4351
  819MOL0     C10491   1.519   3.738   3.372 -0.4238 -0.1813  1.0058
  819MOL0     C10492   1.425   3.802   3.259 -0.5891 -0.9519  0.0431
  819MOL0     C10493   1.373   3.926   3.306  0.0432 -0.5999 -0.0353
  819MOL0     C10494   1.317   4.028   3.343  0.7180  0.9064  1.2053
  819MOL0     C10495   1.777   3.735   3.730  0.9500  0.4807 -0.6652
  819MOL0     C10496   1.848   3.751   3.850 -0.2087  0.1819 -0.5914
  819MOL0     C10497   1.811   3.652   3.958 -0.5414  0.2884 -0.4037
  819MOL0     H10498   2.104   3.903   4.274 -0.5338  0.3132 -2.1829
  819MOL0     H10499   2.270   4.013   4.432 -3.4547  0.9634 -0.3210
  819MOL0     H10500   2.515   4.030   4.481 -2.3840  3.2567  0.8929
  819MOL0     H10501   2.564   4.011   4.312  2.0273  0.1323 -0.3065
  819MOL0     H10502   2.713   4.120   4.528  3.8470  0.2330 -0.8632
  819MOL0     H10503   2.686   4.246   4.400  1.3546  0.5870  1.3132
  819MOL0     H10504   2.886   4.161   4.356 -0.0742 -0.2302 -1.5893
  819MOL0     H10505   2.766   4.116   4.244 -1.9045  0.0055  0.8235
  819MOL0     H10506   2.827   3.918   4.459 -0.2649  0.9120  0.3712
  819MOL0     H10507   2.763   3.882   4.307  0.8010 -2.1393  1.1467
  819MOL0     H10508   2.980   3.958   4.199 -1.1246 -1.9445  0.2226
  819MOL0     H10509   3.057   3.974   4.363  2.3549  1.4156 -3.0039
  819MOL0     H10510   3.007   3.734   4.399 -2.0529  1.1539 -0.2976
  819MOL0     H10511   2.933   3.715   4.246  0.9996 -1.0585 -0.2961
  819MOL0     H10512   3.221   3.753   4.300 -1.5674 -2.1358  2.3357
  819MOL0     H10513   3.152   3.824   4.153  0.2493  0.2219  0.4814
  819MOL0     H10514   3.082   3.588   4.087  1.1854  1.2055 -0.1445
  819MOL0     H10515   3.257   3.600   4.127 -0.0942 -0.6004 -1.0144
  819MOL0     H10516   3.326   3.538   4.370 -1.1239  1.7270 -0.3920
  819MOL0     H10517   3.289   3.434   4.623  0.7494  0.2479 -0.7824
  819MOL0     H10518   3.158   3.331   4.651  2.7498  0.6953  3.2181
  819MOL0     H10519   3.321   3.181   4.666 -1.7199 -0.9682 -0.1011
  819MOL0     H10520   3.277   3.161   4.493  0.8477 -0.2159 -0.8344
  819MOL0     H10521   3.461   3.315   4.439  0.0483 -3.3485 -1.8433
  819MOL0     H10522   3.519   3.174   4.503  0.4086 -0.1177  1.7676
  819MOL0     H10523   3.516   3.273   4.743  1.8730 -2.1412 -0.7602
  819MOL0     H10524   3.509   3.433   4.646 -1.2635 -0.3564 -3.4042
  819MOL0     H10525   3.897   3.264   4.503 -0.8390 -0.1169  2.2058
  819MOL0     H10526   4.056   3.406   4.384 -1.5962 -2.6129  0.3025
  819MOL0     H10527   4.215   3.881   4.343  0.9084 -0.9916  1.6556
  819MOL0     H10528   4.391   3.985   4.210 -0.7078 -0.1571 -0.1607
  819MOL0     H10529   4.718   3.989   4.004  3.2555  0.4659  2.4911
  819MOL0     H10530   4.603   4.026   4.135 -0.7895  0.2570  0.3071
  819MOL0     H10531   4.836   3.972   4.195  2.4377 -1.1597 -2.7052
  819MOL0     H10532   4.700   3.902   4.290 -2.8443  0.1968 -1.3967
  819MOL0     H10533   4.734   3.685   4.178 -0.4545  0.0062  2.0699
  819MOL0     H10534   4.847   3.772   4.065  1.6185  1.6954  1.7478
  819MOL0     H10535   4.878   3.743   4.366 -2.5112  0.9982 -1.1907
  819MOL0     H10536   4.992   3.831   4.260  0.7553  0.0334 -2.5261
  819MOL0     H10537   5.038   3.604   4.142  1.3666  1.1843 -0.2903
  819MOL0     H10538   4.962   3.524   4.286  3.1775 -1.8191  0.1059
  819MOL0     H10539   5.198   3.713   4.287 -3.2007  1.5304  1.4867
  819MOL0     H10540   5.126   3.649   4.431  1.3441  2.3708  0.6544
  819MOL0     H10541   5.270   3.515   4.196 -0.9330 -3.6752 -0.4990
  819MOL0     H10542   5.184   3.405   4.296  2.7456 -2.2157 -0.4586
  819MOL0     H10543   5.404   3.393   4.379  1.5790  0.4170  0.7602
  819MOL0     H10544   5.429   3.564   4.389  2.0231 -1.6647  0.9320
  819MOL0     H10545   4.459   3.603   4.016 -0.1237 -0.1818 -0.1416
  819MOL0     H10546   4.271   3.509   4.132 -0.1374  0.4142  0.8532
  819MOL0     H10547   3.774   3.725   4.430  0.9021 -1.0847 -3.8373
  819MOL0     H10548   3.619   3.575   4.541  0.6863 -0.1675  2.0211
  819MOL0     H10549   2.448   4.227   4.097  1.2046 -2.2357  1.0599
  819MOL0     H10550   2.285   4.151   3.954 -1.4364  0.2567  0.1661
  819MOL0     H10551   2.071   3.997   3.751  2.3993 -2.3260  0.1228
  819MOL0     H10552   1.966   3.949   3.536 -1.7035 -0.0753  0.1292
  819MOL0     H10553   1.727   3.589   3.510  2.4338 -2.1381 -0.7181
  819MOL0     H10554   1.837   3.626   3.381 -0.7098  0.5052 -1.1932
  819MOL0     H10555   1.630   3.591   3.284 -0.4540 -1.0241  4.1992
  819MOL0     H10556   1.699   3.752   3.248  0.8867  0.3536 -0.7875
  819MOL0     H10557   1.550   3.819   3.438  0.3833  1.3290 -1.1084
  819MOL0     H10558   1.476   3.662   3.438  1.5264 -1.4294  0.9084
  819MOL0     H10559   1.478   3.815   3.165  1.8271  1.2075  1.5477
  819MOL0     H10560   1.343   3.737   3.229 -2.5106  1.4730 -0.2022
  819MOL0     H10561   1.275   4.123   3.369 -1.2298  1.0907 -2.0085
  819MOL0     H10562   1.690   3.671   3.724 -0.2975  1.9350  0.8060
  819MOL0     H10563   1.745   3.576   3.916  4.0763 -2.2759 -3.9563
  819MOL0     H10564   1.904   3.599   3.982 -0.2845 -0.1549 -2.2274
  819MOL0     H10565   1.770   3.697   4.049  0.2200  1.0708 -0.4287
  820MOL0     O10566   5.305  11.037  10.472 -0.7367 -0.4404  0.6345
  820MOL0     C10567   5.357  10.947  10.535 -0.3868 -0.0775  0.3324
  820MOL0     O10568   5.293  10.846  10.594 -0.2255 -0.2204 -0.3215
  820MOL0     C10569   5.160  10.852  10.622  0.8421  0.0458  1.3242
  820MOL0     C10570   5.067  10.887  10.523  0.3969 -0.4384 -0.8002
  820MOL0     C10571   4.943  10.920  10.572 -0.0791  0.1136 -0.1568
  820MOL0     C10572   4.895  10.900  10.699 -0.2057  0.2037  0.2712
  820MOL0     O10573   4.774  10.932  10.748  0.5069 -0.0862 -0.4127
  820MOL0     C10574   4.693  11.013  10.671  0.4487  0.2427  0.8699
  820MOL0     C10575   4.597  11.097  10.761  0.3022 -0.2364  0.7036
  820MOL0     C10576   4.677  11.173  10.867 -0.0689  0.1322 -0.3471
  820MOL0     C10577   4.577  11.233  10.972  0.3738  0.5451  0.4165
  820MOL0     C10578   4.646  11.314  11.082  0.9179  0.3332  0.6135
  820MOL0     C10579   4.712  11.214  11.180  0.1129  0.0469  0.7061
  820MOL0     C10580   4.766  11.278  11.307 -1.0009  0.6541  0.0388
  820MOL0     C10581   4.873  11.385  11.287  0.0657  0.0509  0.8686
  820MOL0     N10582   4.934  11.427  11.413 -0.7325  0.2849 -0.6950
  820MOL0     C10583   5.064  11.393  11.454 -0.1123  0.0661 -0.4581
  820MOL0     C10584   5.103  11.488  11.538  0.0295 -0.6640 -0.4536
  820MOL0     C10585   5.244  11.510  11.582 -0.8299  1.0954 -0.0653
  820MOL0     C10586   5.256  11.539  11.727  0.6519  0.7096 -0.3744
  820MOL0     C10587   5.393  11.548  11.793  0.2390  1.2901  0.0808
  820MOL0     C10588   5.438  11.423  11.874 -0.6994  0.1736  0.5960
  820MOL0     O10589   5.559  11.374  11.799  0.2248 -0.0719  0.5357
  820MOL0     C10590   5.672  11.405  11.866 -0.4207  0.7068 -0.3407
  820MOL0     C10591   5.762  11.300  11.878 -0.2110 -0.2756 -0.0618
  820MOL0     C10592   5.881  11.329  11.950 -0.0711 -0.5754 -0.3136
  820MOL0     C10593   5.914  11.454  12.004 -0.4841  0.5623 -0.3165
  820MOL0     C10594   6.050  11.485  12.048  0.6248 -0.2276  0.9103
  820MOL0     O10595   6.139  11.374  12.046  0.3796 -0.3342 -0.4157
  820MOL0     C10596   6.268  11.409  12.046 -0.2425 -0.1944  0.2517
  820MOL0     C10597   6.345  11.379  12.159  0.1412  0.0747  0.1408
  820MOL0     C10598   6.481  11.413  12.163 -0.2610  0.2009 -0.3066
  820MOL0     C10599   6.542  11.495  12.061  0.1033  0.2669 -0.0879
  820MOL0     O10600   6.679  11.528  12.052  0.3473  0.3378 -0.0789
  820MOL0     C10601   6.764  11.496  12.161  0.0933  0.0068 -0.3939
  820MOL0     C10602   6.905  11.556  12.132  0.6402  0.2169 -0.3240
  820MOL0     C10603   7.013  11.508  12.233  1.2833 -0.2265  0.5190
  820MOL0     C10604   7.157  11.535  12.168  1.1160 -0.5820 -0.9034
  820MOL0     C10605   7.255  11.516  12.290  0.8169 -0.1349  0.3158
  820MOL0     C10606   7.404  11.502  12.254 -0.5671 -0.6461  0.2589
  820MOL0     C10607   7.479  11.461  12.390 -0.1078  0.0172 -0.5769
  820MOL0     C10608   7.617  11.529  12.404  0.0708  0.0640  0.4116
  820MOL0    Cl10609   7.711  11.484  12.253  0.1024 -0.1550 -0.1070
  820MOL0     C10610   6.462  11.511  11.945  0.2388  0.7602 -0.5798
  820MOL0     C10611   6.326  11.471  11.934 -0.5859 -0.6420  0.2097
  820MOL0     O10612   6.079  11.602  12.080  0.3898 -0.0320 -0.2915
  820MOL0     C10613   5.818  11.559  12.001  0.0457  1.3459 -0.2369
  820MOL0     C10614   5.699  11.532  11.927  0.5452 -0.0648  1.6081
  820MOL0     N10615   4.996  11.572  11.577  0.6668  0.8006  0.6354
  820MOL0     N10616   4.903  11.534  11.484  0.1471 -0.6122  0.8793
  820MOL0     C10617   4.986  10.847  10.793 -0.3451 -0.5815  0.2163
  820MOL0     C10618   5.114  10.824  10.749 -0.0536 -0.7246 -0.6570
  820MOL0     C10619   5.509  10.937  10.539 -0.0265 -0.7947  0.0865
  820MOL0     C10620   5.564  10.813  10.530 -0.0010 -0.1534 -0.1360
  820MOL0     C10621   5.701  10.805  10.511 -0.0484  1.1209  0.3616
  820MOL0     C10622   5.782  10.919  10.516 -0.5917  0.9312  0.3250
  820MOL0     O10623   5.912  10.910  10.480 -0.2176 -0.4464  0.6196
  820MOL0     C10624   6.016  10.843  10.557 -0.2931 -0.0354  1.2115
  820MOL0     C10625   6.065  10.948  10.657  0.4648  0.6916  0.2858
  820MOL0     C10626   6.165  11.049  10.599  0.0499  0.6948 -0.0304
  820MOL0     C10627   6.235  11.120  10.713  0.5757 -0.4351 -0.1892
  820MOL0     C10628   6.338  11.217  10.669  0.4976 -0.3579  0.4147
  820MOL0     C10629   6.419  11.301  10.636 -0.6086  0.3364  0.3442
  820MOL0     C10630   5.729  11.043  10.533 -0.7478 -0.1707  0.0444
  820MOL0     C10631   5.594  11.057  10.544  0.0608  0.3306  0.8031
  820MOL0     C10632   5.538  11.189  10.544 -0.0054 -0.1701  0.2806
  820MOL0     H10633   5.091  10.912  10.420  2.8697 -1.8469 -0.6376
  820MOL0     H10634   4.874  10.976  10.509 -0.7306 -1.2222 -0.6714
  820MOL0     H10635   4.745  11.084  10.606  0.3055 -1.5098 -1.3016
  820MOL0     H10636   4.643  10.937  10.610  4.6596 -1.8132 -0.3786
  820MOL0     H10637   4.521  11.031  10.803  0.9701 -0.6681  1.2496
  820MOL0     H10638   4.533  11.165  10.704  0.0820 -1.9737 -1.2432
  820MOL0     H10639   4.730  11.249  10.809  0.8646  0.7615  1.2574
  820MOL0     H10640   4.756  11.118  10.919 -0.5183 -0.0010  0.2032
  820MOL0     H10641   4.500  11.293  10.923  2.1697  1.6689 -1.1913
  820MOL0     H10642   4.523  11.147  11.014 -0.4491  0.9076  0.1084
  820MOL0     H10643   4.724  11.375  11.035  1.6783 -1.2484 -0.2511
  820MOL0     H10644   4.575  11.382  11.129  0.5620  0.8055 -0.5641
  820MOL0     H10645   4.644  11.137  11.216 -0.9776  1.5409  1.9661
  820MOL0     H10646   4.786  11.155  11.125  0.6780  0.3948  1.0851
  820MOL0     H10647   4.802  11.197  11.372 -1.1463  0.9650  0.5057
  820MOL0     H10648   4.691  11.339  11.357 -0.1956  1.2918  0.4946
  820MOL0     H10649   4.943  11.356  11.208 -3.0293  0.3481 -2.2826
  820MOL0     H10650   4.819  11.471  11.245 -2.0056 -1.0761  1.0533
  820MOL0     H10651   5.126  11.315  11.411 -1.5659 -0.4739 -1.6388
  820MOL0     H10652   5.311  11.427  11.561 -0.5152  0.9905  1.2257
  820MOL0     H10653   5.284  11.604  11.543  0.1268  1.5117  1.7962
  820MOL0     H10654   5.202  11.633  11.742 -0.7573 -0.2937  1.1821
  820MOL0     H10655   5.196  11.466  11.782  0.5179  0.1750 -1.2120
  820MOL0     H10656   5.380  11.607  11.884 -0.5623 -1.3183  1.7579
  820MOL0     H10657   5.473  11.586  11.730  2.5632 -1.4515  1.1894
  820MOL0     H10658   5.364  11.342  11.873 -2.0721  1.3964 -0.4559
  820MOL0     H10659   5.466  11.451  11.976 -2.9636  1.6986  0.8565
  820MOL0     H10660   5.734  11.199  11.851  1.1950 -1.4446  2.4607
  820MOL0     H10661   5.946  11.242  11.950 -0.7243 -1.1877 -3.3445
  820MOL0     H10662   6.305  11.327  12.245  0.2628  2.8629  1.9983
  820MOL0     H10663   6.545  11.380  12.244  0.2459  2.4157  0.2849
  820MOL0     H10664   6.724  11.533  12.256  0.5958  0.1067 -0.2157
  820MOL0     H10665   6.764  11.387  12.168 -1.9556  0.0332  0.8723
  820MOL0     H10666   6.924  11.530  12.027  1.0760 -1.1615  0.0823
  820MOL0     H10667   6.884  11.663  12.139 -0.1029  0.2310 -2.2220
  820MOL0     H10668   7.004  11.565  12.326  2.0938  2.9428 -1.1598
  820MOL0     H10669   7.003  11.402  12.256 -2.1186  0.7550  4.8327
  820MOL0     H10670   7.163  11.637  12.129  1.3917 -1.4169 -3.2322
  820MOL0     H10671   7.178  11.461  12.090 -0.5044 -1.1443 -0.8327
  820MOL0     H10672   7.217  11.422  12.332  0.3612  0.1172  0.4672
  820MOL0     H10673   7.230  11.601  12.355 -3.5903  1.9942 -3.6453
  820MOL0     H10674   7.426  11.427  12.178  1.7380  0.2201  0.0056
  820MOL0     H10675   7.454  11.587  12.207 -0.3077 -0.6851  0.4593
  820MOL0     H10676   7.485  11.353  12.401  1.6888  0.2791  1.4975
  820MOL0     H10677   7.423  11.497  12.477  0.7087 -0.8712  0.3340
  820MOL0     H10678   7.607  11.637  12.407 -1.7193 -0.0711  0.2353
  820MOL0     H10679   7.666  11.504  12.498  0.0776  0.8712  0.6289
  820MOL0     H10680   6.510  11.562  11.862  1.1017 -2.1680 -2.0086
  820MOL0     H10681   6.283  11.469  11.834  1.9461  0.5238 -0.9890
  820MOL0     H10682   5.836  11.656  12.044 -3.5545  1.3061  1.8055
  820MOL0     H10683   5.630  11.615  11.922  0.9391  0.1859 -0.4922
  820MOL0     H10684   4.962  10.838  10.898 -2.0498 -1.3261 -0.1943
  820MOL0     H10685   5.191  10.783  10.812  0.7905  2.1248  0.3245
  820MOL0     H10686   5.496  10.728  10.524  1.5021 -1.3497 -0.8150
  820MOL0     H10687   5.748  10.708  10.496 -0.6394  0.4606  2.5535
  820MOL0     H10688   6.086  10.808  10.481 -2.5211  1.7930 -1.9201
  820MOL0     H10689   5.973  10.766  10.621 -1.3513  1.3989  2.2982
  820MOL0     H10690   6.111  10.897  10.741  0.2708 -0.8292 -0.5100
  820MOL0     H10691   5.984  11.007  10.702 -0.2201 -1.1407  1.5434
  820MOL0     H10692   6.118  11.112  10.523  0.6315 -1.3310 -2.1995
  820MOL0     H10693   6.241  10.991  10.544 -2.0472 -1.9646 -0.3238
  820MOL0     H10694   6.167  11.165  10.787  0.5261 -2.8946  1.3792
  820MOL0     H10695   6.292  11.044  10.766 -1.8278 -0.0562  3.2428
  820MOL0     H10696   6.496  11.369  10.603 -2.3245  0.8570 -2.9391
  820MOL0     H10697   5.790  11.129  10.509 -1.8263 -0.0484 -2.5825
  820MOL0     H10698   5.608  11.242  10.609 -0.3726  0.3567  0.2600
  820MOL0     H10699   5.544  11.223  10.440  1.3195  0.7065  0.6226
  820MOL0     H10700   5.437  11.203  10.585 -0.2508 -0.8566 -0.0773
  821MOL0     O10701   2.922   7.637   9.764 -0.6592  0.5009 -0.0955
  821MOL0     C10702   2.852   7.620   9.859 -0.3903  1.4037 -0.2649
  821MOL0     O10703   2.893   7.625   9.983 -0.6693  0.2554 -0.2874
  821MOL0     C10704   3.021   7.593  10.013 -0.6136  0.0682 -0.5447
  821MOL0     C10705   3.093   7.664  10.113 -0.0994  0.2653 -1.0474
  821MOL0     C10706   3.229   7.643  10.136 -0.3692 -0.1343 -0.3633
  821MOL0     C10707   3.300   7.541  10.075  0.4385  0.0694  0.4816
  821MOL0     O10708   3.428   7.521  10.119 -0.8095  0.7834  0.3853
  821MOL0     C10709   3.523   7.448  10.040 -0.0859  0.3286 -0.6499
  821MOL0     C10710   3.666   7.446  10.105 -0.2217 -0.5346  0.8549
  821MOL0     C10711   3.779   7.412  10.014 -0.9951 -0.1660  0.1423
  821MOL0     C10712   3.814   7.263  10.003 -1.2945 -0.6622 -0.1067
  821MOL0     C10713   3.927   7.254   9.904 -1.2194  0.4554 -0.0840
  821MOL0     C10714   3.977   7.114   9.873  0.6914 -0.0089 -0.3412
  821MOL0     C10715   4.098   7.102   9.771 -0.0850 -0.4599 -0.8552
  821MOL0     C10716   4.217   7.181   9.818  0.2178 -0.9657 -0.1735
  821MOL0     N10717   4.335   7.148   9.735 -0.1844  0.0571  0.0504
  821MOL0     C10718   4.365   7.197   9.605 -1.0315  0.2862  0.1413
  821MOL0     C10719   4.459   7.113   9.560  0.4339  0.0524  0.1899
  821MOL0     C10720   4.523   7.112   9.425 -0.6974  0.0256  0.8896
  821MOL0     C10721   4.670   7.135   9.437 -0.2567  0.1855  0.2662
  821MOL0     C10722   4.751   7.163   9.304 -0.5629  0.1355  0.0295
  821MOL0     C10723   4.897   7.106   9.299 -0.1471 -0.3627  0.0132
  821MOL0     O10724   4.971   7.173   9.409 -0.2475 -0.9020  0.4866
  821MOL0     C10725   5.112   7.176   9.406  0.5967 -0.7348 -0.8345
  821MOL0     C10726   5.180   7.257   9.498  0.2589 -0.5122 -0.7800
  821MOL0     C10727   5.320   7.251   9.518  0.1176  0.0399 -0.0523
  821MOL0     C10728   5.394   7.160   9.438  0.6677 -0.0547  0.2031
  821MOL0     C10729   5.544   7.157   9.444  0.2313 -0.5207 -0.4646
  821MOL0     O10730   5.602   7.064   9.376  0.0357  0.3980 -0.4945
  821MOL0     C10731   5.731   7.036   9.386  1.5161  0.6251 -0.3414
  821MOL0     C10732   5.800   7.049   9.509 -0.5138 -0.1566 -0.5362
  821MOL0     C10733   5.940   7.037   9.501  0.5012  0.0479 -0.2997
  821MOL0     C10734   6.004   6.976   9.392 -0.0991 -0.1994  0.5840
  821MOL0     O10735   6.135   6.939   9.392  0.0345 -0.7608 -0.1205
  821MOL0     C10736   6.209   6.914   9.509 -0.2936 -0.4328 -1.0644
  821MOL0     C10737   6.350   6.874   9.468 -0.0655  0.0482 -0.5389
  821MOL0     C10738   6.435   6.820   9.589  0.6087 -0.1254  0.0603
  821MOL0     C10739   6.451   6.912   9.706 -0.6652  0.4605 -0.0091
  821MOL0     C10740   6.503   6.831   9.835  0.1496 -0.3429  0.6052
  821MOL0     C10741   6.658   6.801   9.806  0.2973 -0.6821  0.1460
  821MOL0     C10742   6.727   6.724   9.913 -0.4733  0.4418 -0.1587
  821MOL0     C10743   6.878   6.682   9.890  0.1811  0.4788  0.5068
  821MOL0    Cl10744   6.926   6.564  10.015 -0.1332 -0.1162 -0.1916
  821MOL0     C10745   5.930   6.954   9.274 -0.6286  0.1342  0.5626
  821MOL0     C10746   5.791   6.987   9.270 -0.0567  0.2972 -0.9476
  821MOL0     O10747   5.592   7.238   9.526 -0.0458 -0.0632  0.4752
  821MOL0     C10748   5.334   7.076   9.340  0.3048 -0.2111  0.2316
  821MOL0     C10749   5.188   7.089   9.327 -0.1654  0.2704  0.0460
  821MOL0     N10750   4.476   7.010   9.656 -0.8754 -0.1004  0.5127
  821MOL0     N10751   4.397   7.024   9.755  0.2589  0.7955  0.2702
  821MOL0     C10752   3.227   7.465   9.989 -0.3326 -0.5017 -0.0059
  821MOL0     C10753   3.095   7.486   9.957  0.4747  1.3503 -0.3999
  821MOL0     C10754   2.725   7.559   9.834  0.0273 -0.6556  0.1805
  821MOL0     C10755   2.707   7.477   9.722  0.0310 -0.8553  0.5111
  821MOL0     C10756   2.592   7.399   9.703 -0.8735  0.2916 -0.3266
  821MOL0     C10757   2.493   7.406   9.791  0.2703 -0.4325  1.0637
  821MOL0     O10758   2.379   7.334   9.748  0.1060  0.4999 -0.1932
  821MOL0     C10759   2.269   7.329   9.847 -0.7993 -0.1115  0.6852
  821MOL0     C10760   2.160   7.237   9.803  1.1941 -0.2506  0.1907
  821MOL0     C10761   2.110   7.287   9.673 -0.8883  0.0826  0.2497
  821MOL0     C10762   1.978   7.228   9.635  0.2958 -0.0205  0.2689
  821MOL0     C10763   1.981   7.085   9.611  0.1339  0.1157  0.8381
  821MOL0     C10764   1.988   6.968   9.584  0.0710  0.6460 -0.1462
  821MOL0     C10765   2.507   7.494   9.905  0.9801 -0.1659  0.4429
  821MOL0     C10766   2.623   7.568   9.928 -0.3998  0.6291  0.3687
  821MOL0     C10767   2.622   7.656  10.054  0.0990  0.1058  0.2258
  821MOL0     H10768   3.045   7.747  10.163  0.5548 -1.1087  2.0583
  821MOL0     H10769   3.292   7.705  10.199  1.5286 -1.3446 -0.9860
  821MOL0     H10770   3.489   7.345  10.036  0.6436  0.0042  0.8954
  821MOL0     H10771   3.532   7.494   9.941  2.0642  2.3403  0.3671
  821MOL0     H10772   3.669   7.376  10.189  2.3837 -0.3771  0.9847
  821MOL0     H10773   3.681   7.550  10.138 -1.2493 -0.5049  1.2900
  821MOL0     H10774   3.862   7.478  10.041 -0.6090 -0.5051 -0.2111
  821MOL0     H10775   3.754   7.449   9.914  1.9764  3.9191  0.6457
  821MOL0     H10776   3.845   7.221  10.099 -0.8135  3.1041  1.5744
  821MOL0     H10777   3.721   7.220   9.963  0.0125 -1.3829 -2.5935
  821MOL0     H10778   3.891   7.283   9.804  0.0808 -1.8219 -1.2991
  821MOL0     H10779   4.004   7.317   9.950 -0.3990 -1.0390  0.6789
  821MOL0     H10780   4.012   7.076   9.970 -0.6596  1.6068  0.8462
  821MOL0     H10781   3.889   7.065   9.832  1.6883  0.5929 -3.4120
  821MOL0     H10782   4.060   7.133   9.673  1.5375  0.8888 -1.1112
  821MOL0     H10783   4.116   6.995   9.764 -2.1211 -0.7594 -2.5672
  821MOL0     H10784   4.201   7.288   9.804  2.9494 -0.5056 -0.3219
  821MOL0     H10785   4.250   7.156   9.919  2.5016 -2.2526 -1.1382
  821MOL0     H10786   4.317   7.272   9.543 -3.0085 -0.7664  0.3233
  821MOL0     H10787   4.511   7.012   9.381  0.7014  0.2463 -0.0564
  821MOL0     H10788   4.473   7.185   9.360 -0.3247  0.0177  0.5947
  821MOL0     H10789   4.680   7.224   9.500 -0.5610 -0.4322  1.2058
  821MOL0     H10790   4.710   7.049   9.491 -1.6792  0.6576  2.1603
  821MOL0     H10791   4.753   7.271   9.284  1.1767  0.2077  0.3991
  821MOL0     H10792   4.695   7.112   9.226  0.3192  1.2919 -1.4217
  821MOL0     H10793   4.941   7.133   9.203 -0.4792 -0.5895 -0.2031
  821MOL0     H10794   4.891   6.997   9.307 -2.0552 -0.4890 -2.0980
  821MOL0     H10795   5.119   7.336   9.540  0.4027 -0.8343  0.0719
  821MOL0     H10796   5.374   7.317   9.584  3.4807 -0.2689 -2.2527
  821MOL0     H10797   5.766   7.090   9.604 -1.4090 -1.7125 -0.1562
  821MOL0     H10798   6.000   7.053   9.590 -0.1112  5.2243 -0.5181
  821MOL0     H10799   6.197   7.004   9.570 -0.6376  0.5861 -2.5835
  821MOL0     H10800   6.163   6.830   9.562  1.9623 -0.8730  0.3847
  821MOL0     H10801   6.351   6.803   9.385  1.4879 -0.6419  0.0372
  821MOL0     H10802   6.412   6.957   9.435  1.9446 -0.5579  1.4092
  821MOL0     H10803   6.377   6.736   9.629 -4.9233  2.1875 -2.0631
  821MOL0     H10804   6.531   6.793   9.544  0.9187  1.5066 -0.3066
  821MOL0     H10805   6.361   6.964   9.739 -1.0618 -1.1648  1.6581
  821MOL0     H10806   6.527   6.990   9.694 -2.8497  3.0952  2.1509
  821MOL0     H10807   6.450   6.739   9.859  2.7149 -2.2195 -0.4947
  821MOL0     H10808   6.499   6.899   9.922  0.3658  2.1060 -1.1904
  821MOL0     H10809   6.670   6.743   9.715  0.5012 -1.8640  0.9117
  821MOL0     H10810   6.706   6.897   9.785  0.0026 -0.4628  0.4437
  821MOL0     H10811   6.667   6.633   9.921 -0.4633  0.5535  1.5239
  821MOL0     H10812   6.717   6.779  10.007 -2.9918  0.3747 -0.3103
  821MOL0     H10813   6.873   6.624   9.797 -1.5019  0.6469  0.4521
  821MOL0     H10814   6.950   6.763   9.899 -0.9961  1.2816  5.1990
  821MOL0     H10815   5.993   6.925   9.191  0.5791 -0.7886  1.7537
  821MOL0     H10816   5.727   6.970   9.184  0.4092  0.1237 -1.2628
  821MOL0     H10817   5.387   6.998   9.286 -1.2094 -0.9867 -0.1914
  821MOL0     H10818   5.135   7.013   9.270  1.0782  0.3000 -1.2107
  821MOL0     H10819   3.293   7.390   9.947  4.7588  2.1135  2.4121
  821MOL0     H10820   3.047   7.415   9.889 -1.0483 -0.0599  2.0003
  821MOL0     H10821   2.781   7.465   9.645 -0.8649 -1.2100 -0.3125
  821MOL0     H10822   2.591   7.339   9.613 -1.0395  0.5536 -0.5035
  821MOL0     H10823   2.238   7.433   9.839  4.8105  1.7822 -1.4226
  821MOL0     H10824   2.302   7.293   9.945 -0.3789  0.5847  0.8018
  821MOL0     H10825   2.088   7.250   9.885  2.4832  5.2509  0.8474
  821MOL0     H10826   2.194   7.134   9.786 -0.1748 -0.6379 -0.3122
  821MOL0     H10827   2.193   7.249   9.613 -1.6367 -1.6743  0.2790
  821MOL0     H10828   2.101   7.396   9.669 -3.6039 -0.0475  1.1486
  821MOL0     H10829   1.915   7.238   9.725  2.1998  1.1306  1.5459
  821MOL0     H10830   1.937   7.287   9.553 -1.7029  0.1796  1.3435
  821MOL0     H10831   1.994   6.862   9.575 -2.8326  0.0658  2.8090
  821MOL0     H10832   2.427   7.506   9.978  3.1415 -0.7612  3.0779
  821MOL0     H10833   2.548   7.630  10.130  0.9430  0.3625  1.1526
  821MOL0     H10834   2.712   7.645  10.114  1.0391 -3.5249 -1.5639
  821MOL0     H10835   2.595   7.754  10.013 -2.1924 -0.4528  0.2530
  822MOL0     O10836   1.941   5.564  11.023  0.7419  0.2433  0.0433
  822MOL0     C10837   1.990   5.546  10.912 -0.4972  0.3125 -0.2693
  822MOL0     O10838   1.927   5.514  10.796  0.4491 -0.3521 -0.1420
  822MOL0     C10839   1.787   5.500  10.811  0.3341  0.5112  0.0933
  822MOL0     C10840   1.723   5.402  10.885 -0.0450 -0.7959 -0.2149
  822MOL0     C10841   1.585   5.410  10.913 -0.6298 -0.3342 -0.2945
  822MOL0     C10842   1.510   5.504  10.849  0.0638  0.2969 -0.0159
  822MOL0     O10843   1.368   5.480  10.877  0.4584 -0.7462  0.0654
  822MOL0     C10844   1.282   5.572  10.810 -0.7485 -0.2360 -0.2424
  822MOL0     C10845   1.270   5.708  10.864 -0.5763  0.1577  0.0235
  822MOL0     C10846   1.189   5.809  10.785 -0.8809  0.2978  0.1409
  822MOL0     C10847   1.052   5.828  10.840  0.9583 -0.3368 -0.3508
  822MOL0     C10848   0.958   5.903  10.746  0.2212 -0.3728 -0.0823
  822MOL0     C10849   0.805   5.883  10.756  0.2827 -0.5330  0.3488
  822MOL0     C10850   0.722   5.981  10.672  0.5450 -0.0889  1.0224
  822MOL0     C10851   0.588   5.930  10.623 -0.2834  0.2977  0.5028
  822MOL0     N10852   0.507   5.826  10.688 -0.5943 -0.0867 -0.6422
  822MOL0     C10853   0.515   5.695  10.671 -0.1898 -0.0644  0.9134
  822MOL0     C10854   0.435   5.647  10.769 -0.0828  0.6041  0.0458
  822MOL0     C10855   0.408   5.501  10.803 -0.7720 -0.4258  0.6328
  822MOL0     C10856   0.493   5.472  10.930  0.4295  0.4623  0.0139
  822MOL0     C10857   0.641   5.464  10.909 -0.8336  0.0019  0.6075
  822MOL0     C10858   0.720   5.450  11.038 -0.0908 -0.3422 -0.0805
  822MOL0     O10859   0.860   5.466  11.005 -0.2111  0.9542 -0.8688
  822MOL0     C10860   0.952   5.453  11.109 -0.2064 -1.0427 -0.0903
  822MOL0     C10861   0.928   5.462  11.252  1.3000 -0.0852  0.4127
  822MOL0     C10862   1.035   5.445  11.344 -0.1771 -0.2364  0.6148
  822MOL0     C10863   1.172   5.435  11.295  0.1971  0.9340 -1.7711
  822MOL0     C10864   1.292   5.415  11.380 -0.4761  0.3328  0.3756
  822MOL0     O10865   1.257   5.408  11.510  0.2628  0.3075 -0.2812
  822MOL0     C10866   1.358   5.423  11.603  0.0640 -0.0604 -0.2596
  822MOL0     C10867   1.426   5.545  11.611 -0.0059  0.1443 -0.0630
  822MOL0     C10868   1.526   5.557  11.701 -0.1000  0.3013 -0.6476
  822MOL0     C10869   1.560   5.462  11.799  0.5595  0.4491  0.3546
  822MOL0     O10870   1.642   5.506  11.896 -0.4022 -0.2037  0.0175
  822MOL0     C10871   1.711   5.405  11.971  0.3559  0.3007 -0.2570
  822MOL0     C10872   1.776   5.467  12.087 -0.3044  0.8916 -0.1820
  822MOL0     C10873   1.846   5.358  12.170  0.7728  0.9262 -0.3893
  822MOL0     C10874   1.756   5.268  12.260  0.1452  0.0669  0.7294
  822MOL0     C10875   1.824   5.218  12.384 -0.0510  0.2134  0.0475
  822MOL0     C10876   1.943   5.135  12.342 -0.7770  0.7331 -0.1440
  822MOL0     C10877   1.967   5.031  12.453  0.6650  0.6128 -0.0945
  822MOL0     C10878   2.098   4.967  12.433 -0.0030 -0.4850  0.2557
  822MOL0    Cl10879   2.140   4.846  12.561  0.1023 -0.4492 -0.3173
  822MOL0     C10880   1.489   5.339  11.795 -1.1586 -0.4975 -0.2616
  822MOL0     C10881   1.387   5.323  11.699  0.5352  0.2043  0.9208
  822MOL0     O10882   1.409   5.424  11.335 -0.8905 -0.0759  0.0916
  822MOL0     C10883   1.184   5.429  11.151  0.1274 -0.7281 -0.1626
  822MOL0     C10884   1.076   5.438  11.067  0.2040  0.0543 -0.2904
  822MOL0     N10885   0.383   5.751  10.845  1.3498  0.7805  1.2451
  822MOL0     N10886   0.423   5.864  10.791 -1.0510 -0.8397  0.1784
  822MOL0     C10887   1.567   5.599  10.765 -0.0835 -0.9681 -0.6949
  822MOL0     C10888   1.707   5.595  10.744  0.7291 -0.2951  0.3071
  822MOL0     C10889   2.137   5.562  10.877  0.2435 -0.6803 -0.1844
  822MOL0     C10890   2.192   5.551  10.748 -0.6239  0.1814 -0.5999
  822MOL0     C10891   2.320   5.590  10.717 -0.7198 -0.0842  0.1357
  822MOL0     C10892   2.412   5.636  10.809  0.4173  0.1154  0.8414
  822MOL0     O10893   2.530   5.700  10.777 -0.1561 -0.4151  0.0309
  822MOL0     C10894   2.570   5.679  10.642  0.7862 -0.0411  0.3581
  822MOL0     C10895   2.701   5.746  10.610  0.3668  0.2639  0.4813
  822MOL0     C10896   2.814   5.732  10.704 -1.4470  0.6618  0.3022
  822MOL0     C10897   2.947   5.789  10.643  0.5761 -0.3577 -0.2245
  822MOL0     C10898   3.047   5.810  10.749  0.3380  0.0151  0.7871
  822MOL0     C10899   3.117   5.829  10.849  0.4948 -0.1837  0.3148
  822MOL0     C10900   2.363   5.645  10.941  0.4321 -0.5451  0.4371
  822MOL0     C10901   2.230   5.606  10.978  0.3241 -0.6335 -0.0396
  822MOL0     C10902   2.199   5.630  11.126  0.0215  0.0189  0.1116
  822MOL0     H10903   1.784   5.323  10.927  0.3282 -1.4558 -1.9253
  822MOL0     H10904   1.550   5.344  10.992 -0.6379 -1.5890 -1.2999
  822MOL0     H10905   1.313   5.573  10.705 -0.1408 -0.0789 -0.0642
  822MOL0     H10906   1.182   5.527  10.814 -0.5885 -0.5049  1.4432
  822MOL0     H10907   1.367   5.753  10.887 -1.0120  0.6143  1.0300
  822MOL0     H10908   1.222   5.698  10.962  2.3114 -0.2338  1.5335
  822MOL0     H10909   1.171   5.772  10.684 -1.4761 -0.8394  0.6404
  822MOL0     H10910   1.247   5.901  10.782 -3.0032  1.8283  2.0729
  822MOL0     H10911   1.003   5.733  10.864  1.2302  0.0335  1.9579
  822MOL0     H10912   1.054   5.870  10.941  1.1595  0.8983 -0.8542
  822MOL0     H10913   0.975   6.009  10.767  0.2155 -0.7614  2.0824
  822MOL0     H10914   0.978   5.877  10.641  0.2367  0.2302 -0.2334
  822MOL0     H10915   0.770   5.788  10.715 -1.5797  0.9260 -1.6295
  822MOL0     H10916   0.784   5.898  10.863  1.0268  1.2110  0.2971
  822MOL0     H10917   0.784   6.011  10.587  0.0137 -0.1538  0.6113
  822MOL0     H10918   0.715   6.070  10.736 -0.8608 -1.3944  2.7840
  822MOL0     H10919   0.527   6.021  10.620  1.5135  1.5200 -0.5638
  822MOL0     H10920   0.589   5.896  10.519 -0.5875 -1.8318  1.1309
  822MOL0     H10921   0.570   5.651  10.588 -1.3270  0.7735 -0.3189
  822MOL0     H10922   0.301   5.485  10.812 -0.9651  1.5123  2.7616
  822MOL0     H10923   0.441   5.437  10.720 -0.5314  1.9621 -1.2451
  822MOL0     H10924   0.472   5.545  11.009 -0.3824  1.9857 -1.5460
  822MOL0     H10925   0.454   5.383  10.980  2.1581 -0.0359  0.5470
  822MOL0     H10926   0.679   5.553  10.857  1.2859 -0.4405  1.2976
  822MOL0     H10927   0.657   5.384  10.836  0.5696  0.2232  0.6490
  822MOL0     H10928   0.702   5.352  11.082 -1.5127  0.3674  1.0086
  822MOL0     H10929   0.700   5.521  11.118  1.1686  0.0046 -0.0370
  822MOL0     H10930   0.829   5.481  11.293 -0.2977 -0.5980 -2.8690
  822MOL0     H10931   1.021   5.451  11.452  1.7464  0.9816  0.8478
  822MOL0     H10932   1.385   5.616  11.540  0.9463 -0.4140 -1.2194
  822MOL0     H10933   1.571   5.655  11.715 -0.6282  0.4377  0.2524
  822MOL0     H10934   1.648   5.327  12.014 -3.1363  1.1710 -3.3025
  822MOL0     H10935   1.790   5.360  11.911  1.5825 -1.1356  2.3047
  822MOL0     H10936   1.857   5.534  12.054 -1.3846  2.4306  0.1819
  822MOL0     H10937   1.708   5.529  12.146 -3.0858  0.3928 -2.6810
  822MOL0     H10938   1.890   5.279  12.108 -0.9544  0.3019 -0.8751
  822MOL0     H10939   1.925   5.398  12.233 -1.8727  2.5617  2.0906
  822MOL0     H10940   1.707   5.195  12.195 -0.4056  1.0649 -0.0111
  822MOL0     H10941   1.681   5.337  12.300  0.8019  0.3293  1.5473
  822MOL0     H10942   1.750   5.150  12.429  0.4295 -1.1722 -1.1572
  822MOL0     H10943   1.850   5.293  12.459 -0.3916  1.6255 -1.2157
  822MOL0     H10944   1.922   5.067  12.259 -1.8033  1.3040 -0.3567
  822MOL0     H10945   2.019   5.213  12.335 -0.7518  0.8257  0.9258
  822MOL0     H10946   1.886   4.958  12.440 -0.2629  1.7295 -0.9136
  822MOL0     H10947   1.954   5.080  12.550 -1.8349  0.7111 -0.4001
  822MOL0     H10948   2.117   4.931  12.332  0.4144 -2.1236  0.8844
  822MOL0     H10949   2.174   5.043  12.452 -0.8723  0.0780  1.6303
  822MOL0     H10950   1.502   5.271  11.879  2.0722  0.8803  0.5200
  822MOL0     H10951   1.312   5.244  11.700 -1.5153  2.0478  0.4141
  822MOL0     H10952   1.287   5.412  11.120  0.9633  0.7200  1.6256
  822MOL0     H10953   1.096   5.430  10.960  1.0221  0.7621 -0.2068
  822MOL0     H10954   1.512   5.681  10.721  2.4949  3.1746  3.0030
  822MOL0     H10955   1.757   5.662  10.676 -0.0546 -1.3564 -1.3804
  822MOL0     H10956   2.137   5.506  10.666  0.8877 -0.9337 -1.0369
  822MOL0     H10957   2.348   5.555  10.618  1.8073 -1.7584  1.3224
  822MOL0     H10958   2.489   5.721  10.583 -1.4642 -4.1964  0.1266
  822MOL0     H10959   2.580   5.572  10.620 -0.1446  0.2854 -2.0018
  822MOL0     H10960   2.685   5.854  10.607 -1.2854  0.0999  1.7771
  822MOL0     H10961   2.738   5.703  10.516  0.2235 -0.2521  0.6538
  822MOL0     H10962   2.832   5.629  10.738 -0.0341  1.2029  1.2750
  822MOL0     H10963   2.783   5.783  10.796  0.5440  4.5701 -1.0075
  822MOL0     H10964   2.974   5.708  10.574  0.1488 -0.5937 -0.1140
  822MOL0     H10965   2.937   5.888  10.596  1.2093  0.3427  1.0613
  822MOL0     H10966   3.160   5.828  10.948 -1.3735 -0.9453  1.1696
  822MOL0     H10967   2.430   5.698  11.008  2.4717 -0.2716 -1.7191
  822MOL0     H10968   2.149   5.727  11.142  2.5540  1.0159  3.1338
  822MOL0     H10969   2.124   5.555  11.155 -1.2492  1.3405  0.4003
  822MOL0     H10970   2.290   5.624  11.187  1.2690 -0.6429 -1.7531
  823MOL0     O10971   6.414  10.046  10.103 -0.9173  0.9589 -0.0756
  823MOL0     C10972   6.318  10.107  10.142  0.5082  0.4113  1.1172
  823MOL0     O10973   6.314  10.233  10.171 -0.3671  0.0349 -0.9274
  823MOL0     C10974   6.437  10.301  10.187  0.1578  1.2674 -0.2630
  823MOL0     C10975   6.489  10.378  10.082  0.5925 -0.0359 -0.4347
  823MOL0     C10976   6.618  10.442  10.095  0.1712 -0.1660 -0.3425
  823MOL0     C10977   6.688  10.434  10.209 -0.5921 -0.9341 -0.0834
  823MOL0     O10978   6.795  10.516  10.216  0.5017 -0.3793 -0.3437
  823MOL0     C10979   6.900  10.461  10.291 -0.5490 -0.3160  0.1416
  823MOL0     C10980   7.023  10.564  10.307 -0.3681  0.0061  0.1574
  823MOL0     C10981   7.149  10.500  10.362  0.2954  0.0966 -0.4724
  823MOL0     C10982   7.279  10.563  10.317 -0.8331  0.3790  0.5428
  823MOL0     C10983   7.397  10.482  10.359  0.3885  0.2630  0.6584
  823MOL0     C10984   7.537  10.552  10.341  0.3074  0.2838 -0.2904
  823MOL0     C10985   7.647  10.476  10.407  0.0634 -0.4897  0.3304
  823MOL0     C10986   7.788  10.536  10.418  0.7303  0.0187  0.7523
  823MOL0     N10987   7.889  10.442  10.465  0.3314 -0.0678 -0.7608
  823MOL0     C10988   8.015  10.482  10.508 -0.0341  0.5577  0.4688
  823MOL0     C10989   8.077  10.370  10.546 -0.4360  0.0704 -0.3596
  823MOL0     C10990   8.223  10.367  10.581  0.4482  0.3383 -0.4464
  823MOL0     C10991   8.311  10.334  10.456  0.7027  0.3564 -0.4982
  823MOL0     C10992   8.455  10.369  10.480  0.1600  0.0064  0.4417
  823MOL0     C10993   8.532  10.274  10.579  1.0437 -0.3627  0.2176
  823MOL0     O10994   8.629  10.356  10.643 -0.4194 -0.2933  0.1323
  823MOL0     C10995   8.714  10.279  10.711 -0.3097  0.5532 -0.3166
  823MOL0     C10996   8.732  10.317  10.846  0.1848  0.4966  0.5144
  823MOL0     C10997   8.817  10.255  10.930  1.1784  1.2846  0.0737
  823MOL0     C10998   8.897  10.146  10.882  0.7911 -0.9735  0.2300
  823MOL0     C10999   9.004  10.098  10.967 -0.1440 -0.0843 -0.1135
  823MOL0     O11000   9.004  10.145  11.101 -0.0509  0.0418  1.3141
  823MOL0     C11001   9.088  10.092  11.199  0.5329  0.2256  0.9266
  823MOL0     C11002   9.026  10.065  11.320 -0.8608 -0.2699  0.5360
  823MOL0     C11003   9.101  10.018  11.428  0.2800 -0.2823  0.3870
  823MOL0     C11004   9.243   9.992  11.413  0.7655 -0.5185  0.6998
  823MOL0     O11005   9.311   9.957  11.521 -0.1741  0.1449 -0.1276
  823MOL0     C11006   9.454   9.928  11.529 -0.2909 -0.1675 -0.0827
  823MOL0     C11007   9.475   9.894  11.682  0.3879 -0.0714 -0.0163
  823MOL0     C11008   9.621   9.842  11.711 -0.9453 -1.7163 -0.1764
  823MOL0     C11009   9.650   9.815  11.864 -0.4179 -0.1570 -0.1823
  823MOL0     C11010   9.798   9.756  11.893 -0.7114  0.4429  0.2974
  823MOL0     C11011   9.908   9.861  11.885  0.4662 -0.5404 -0.0925
  823MOL0     C11012  10.048   9.788  11.852  0.2094 -1.2171 -1.0912
  823MOL0     C11013  10.094   9.678  11.946  0.6901 -0.8428  0.3737
  823MOL0    Cl11014  10.045   9.521  11.873 -0.5191  0.3238 -0.3323
  823MOL0     C11015   9.299  10.007  11.278  0.2906 -0.2304 -0.7914
  823MOL0     C11016   9.229  10.065  11.179  0.4818 -0.9274  0.2560
  823MOL0     O11017   9.096  10.030  10.926  0.5288  0.3236 -0.3074
  823MOL0     C11018   8.880  10.106  10.746 -0.7624  0.1211 -0.5271
  823MOL0     C11019   8.795  10.176  10.654  0.3471  0.4750  0.0648
  823MOL0     N11020   8.000  10.262  10.515 -0.0597 -0.0745 -0.0774
  823MOL0     N11021   7.883  10.307  10.472  0.2884  0.4254 -0.4360
  823MOL0     C11022   6.630  10.362  10.316 -0.2350 -0.5359  0.7203
  823MOL0     C11023   6.509  10.300  10.307 -0.4472 -0.5186 -0.6666
  823MOL0     C11024   6.199  10.031  10.141  0.2703  0.3498  0.3245
  823MOL0     C11025   6.159   9.954  10.251  0.2462 -0.4855  0.1696
  823MOL0     C11026   6.041   9.872  10.244 -0.2414 -0.5918  1.0438
  823MOL0     C11027   5.970   9.871  10.115 -0.2404 -0.5732  0.1193
  823MOL0     O11028   5.873   9.783  10.101 -0.2058  0.2648  0.4649
  823MOL0     C11029   5.845   9.673  10.182 -0.0613 -0.5520 -0.5286
  823MOL0     C11030   5.718   9.596  10.144  0.7866  0.4429 -0.1835
  823MOL0     C11031   5.587   9.689  10.141 -0.0632  0.6149  0.1883
  823MOL0     C11032   5.452   9.618  10.102  0.5127  0.0923 -0.3063
  823MOL0     C11033   5.337   9.703  10.088  0.7623  0.4584 -0.5994
  823MOL0     C11034   5.235   9.769  10.076  0.3618 -0.3281 -0.9381
  823MOL0     C11035   6.008   9.954  10.009  0.7422 -0.1965 -0.2229
  823MOL0     C11036   6.123  10.042  10.021 -0.5424  0.8017 -0.3274
  823MOL0     C11037   6.160  10.135   9.906  0.3618  0.3138 -0.0953
  823MOL0     H11038   6.420  10.395   9.999 -0.1173 -0.4801  0.0530
  823MOL0     H11039   6.666  10.513  10.028  0.3115  1.0919  1.0248
  823MOL0     H11040   6.875  10.432  10.394  0.2575  1.9267  1.0274
  823MOL0     H11041   6.938  10.376  10.232 -2.6683 -1.4030  0.2467
  823MOL0     H11042   6.989  10.630  10.388 -1.9035  1.0571 -1.2646
  823MOL0     H11043   7.029  10.624  10.216 -1.8531 -1.6864 -1.1265
  823MOL0     H11044   7.152  10.394  10.333  1.1063 -1.1311  3.4443
  823MOL0     H11045   7.150  10.500  10.472  1.3882 -3.7920 -0.3137
  823MOL0     H11046   7.279  10.577  10.208  1.8787  0.1589  0.4455
  823MOL0     H11047   7.291  10.664  10.357  0.5000 -0.8137  3.4113
  823MOL0     H11048   7.383  10.470  10.466  1.0413  3.1216  1.1592
  823MOL0     H11049   7.394  10.393  10.295  0.8966  0.5522  0.2223
  823MOL0     H11050   7.566  10.572  10.238  2.9241 -0.6694  0.1929
  823MOL0     H11051   7.529  10.652  10.385 -1.5125 -0.0758  0.3040
  823MOL0     H11052   7.651  10.379  10.358  4.7432 -0.3763  0.0723
  823MOL0     H11053   7.608  10.470  10.509  1.4296  1.1042  1.0072
  823MOL0     H11054   7.820  10.591  10.329 -1.9579 -0.6549 -0.7321
  823MOL0     H11055   7.764  10.602  10.502  1.5973 -0.7341  1.6205
  823MOL0     H11056   8.050  10.584  10.503  0.0613  0.4544 -2.3885
  823MOL0     H11057   8.243  10.464  10.626  0.7341  0.0834 -0.0127
  823MOL0     H11058   8.236  10.294  10.662  0.8096  0.7559 -0.1272
  823MOL0     H11059   8.302  10.230  10.423 -3.8612  0.8264 -1.4743
  823MOL0     H11060   8.265  10.395  10.378 -0.9028  0.9980  0.8769
  823MOL0     H11061   8.461  10.471  10.517 -0.1235  0.2958 -0.2982
  823MOL0     H11062   8.509  10.367  10.384  0.4311 -0.3928  0.6007
  823MOL0     H11063   8.574  10.192  10.520 -0.2958 -0.2863 -0.8797
  823MOL0     H11064   8.459  10.247  10.656  2.2860  1.5183  2.1930
  823MOL0     H11065   8.667  10.395  10.884 -0.8133  0.2975 -0.7442
  823MOL0     H11066   8.830  10.289  11.033 -1.0513 -0.0221  0.8714
  823MOL0     H11067   8.918  10.081  11.327 -0.6436  1.4690  0.2464
  823MOL0     H11068   9.063   9.997  11.528  0.4057  2.4007  1.0807
  823MOL0     H11069   9.491   9.855  11.456  0.8630  0.7706 -0.4606
  823MOL0     H11070   9.514  10.014  11.500 -0.5196  1.1880  3.0745
  823MOL0     H11071   9.449   9.978  11.746 -0.8780 -1.8220  1.8681
  823MOL0     H11072   9.416   9.808  11.714 -0.5149 -1.1408 -3.9378
  823MOL0     H11073   9.635   9.751  11.653  1.4834 -1.4017 -0.1639
  823MOL0     H11074   9.682   9.927  11.680 -2.0981 -0.9355 -0.4050
  823MOL0     H11075   9.568   9.756  11.904 -0.2244 -1.6110 -1.8092
  823MOL0     H11076   9.635   9.909  11.918  0.6774 -0.4577  0.6737
  823MOL0     H11077   9.810   9.683  11.812 -2.2102  1.0452 -0.5015
  823MOL0     H11078   9.802   9.698  11.986 -1.7672 -2.4360 -1.3244
  823MOL0     H11079   9.894   9.923  11.796  2.5550 -2.3940 -1.8141
  823MOL0     H11080   9.917   9.919  11.977  0.6435 -1.4615  0.4780
  823MOL0     H11081  10.123   9.867  11.840 -2.5153  1.2699 -3.5199
  823MOL0     H11082  10.046   9.745  11.751  1.1092  2.1514 -2.7118
  823MOL0     H11083  10.199   9.682  11.975  0.5704 -1.8074  0.9857
  823MOL0     H11084  10.049   9.691  12.045 -0.9164  3.5999 -0.7369
  823MOL0     H11085   9.400   9.981  11.248  0.1541  0.9883 -2.4750
  823MOL0     H11086   9.281  10.087  11.086  0.5245  0.8901  0.6695
  823MOL0     H11087   8.955  10.037  10.707 -0.8181  0.7422 -1.7707
  823MOL0     H11088   8.802  10.166  10.546 -0.3533 -0.2655  0.0817
  823MOL0     H11089   6.686  10.373  10.408  0.7286 -2.7948  0.4660
  823MOL0     H11090   6.475  10.239  10.391 -1.2903  1.2030  0.2900
  823MOL0     H11091   6.227   9.970  10.333  1.8898  0.5611 -1.3351
  823MOL0     H11092   6.003   9.817  10.329  1.7814 -0.3362  2.1766
  823MOL0     H11093   5.826   9.709  10.283  0.2750  1.0109 -0.9954
  823MOL0     H11094   5.935   9.611  10.176 -0.2356 -0.7065 -2.3365
  823MOL0     H11095   5.698   9.507  10.203 -1.3847  0.5407 -0.6938
  823MOL0     H11096   5.721   9.559  10.041  0.8167  0.0321 -0.0356
  823MOL0     H11097   5.610   9.761  10.062 -0.3161  0.9727  0.4370
  823MOL0     H11098   5.566   9.743  10.233 -1.7024 -1.6444  1.2380
  823MOL0     H11099   5.464   9.558  10.011 -1.4435  0.4129 -0.8345
  823MOL0     H11100   5.434   9.545  10.181 -0.0568 -1.1147 -1.5108
  823MOL0     H11101   5.137   9.812  10.067 -0.3763 -2.2455 -2.9885
  823MOL0     H11102   5.938   9.957   9.927 -1.1431 -0.1903  1.3097
  823MOL0     H11103   6.070  10.146   9.846 -0.4423 -2.1581  0.5442
  823MOL0     H11104   6.191  10.231   9.948  1.4800  1.1195 -2.5427
  823MOL0     H11105   6.243  10.105   9.841  1.1501 -0.0029  1.0157
  824MOL0     O11106   0.755   4.515  11.056 -0.1561  0.4420 -0.5588
  824MOL0     C11107   0.842   4.514  11.140  0.1056 -0.3503  0.0949
  824MOL0     O11108   0.956   4.452  11.134 -0.2036  0.9780 -0.1474
  824MOL0     C11109   1.021   4.425  11.012 -0.3718 -0.2606  0.6231
  824MOL0     C11110   1.162   4.427  11.009  0.6923  0.8036 -0.2894
  824MOL0     C11111   1.234   4.409  10.892 -0.2863  0.4380  0.5054
  824MOL0     C11112   1.158   4.363  10.776  0.4953 -0.8037 -0.7023
  824MOL0     O11113   1.221   4.340  10.658 -0.3696 -0.3513 -0.4882
  824MOL0     C11114   1.156   4.355  10.537  1.4446 -0.6394  1.1339
  824MOL0     C11115   1.256   4.371  10.421  0.1719 -0.3602 -0.7125
  824MOL0     C11116   1.334   4.236  10.385  0.2176 -0.1385  0.2406
  824MOL0     C11117   1.442   4.254  10.287 -0.9759  1.2380 -0.3539
  824MOL0     C11118   1.578   4.186  10.337 -0.5363  0.0314 -0.0768
  824MOL0     C11119   1.688   4.221  10.233  0.0640  1.2100 -0.2143
  824MOL0     C11120   1.837   4.189  10.272 -0.5653 -0.2812 -0.0728
  824MOL0     C11121   1.920   4.263  10.172 -0.3564  0.6857  1.0203
  824MOL0     N11122   2.060   4.247  10.200 -0.3344 -0.0555  0.1669
  824MOL0     C11123   2.134   4.135  10.197  0.4910  0.6495 -0.0744
  824MOL0     C11124   2.260   4.168  10.187 -0.5763  0.6816 -0.2361
  824MOL0     C11125   2.366   4.053  10.181  0.2381 -0.9397 -0.2125
  824MOL0     C11126   2.510   4.105  10.147  0.0325  0.5000  1.1996
  824MOL0     C11127   2.607   3.980  10.147 -0.7817  0.5118 -0.0815
  824MOL0     C11128   2.750   4.023  10.112 -0.4155  0.2595  0.4940
  824MOL0     O11129   2.840   3.921  10.151 -0.4113 -0.3237 -0.8777
  824MOL0     C11130   2.971   3.935  10.116 -0.4370 -0.8532  0.0863
  824MOL0     C11131   3.024   4.056  10.085  0.0062 -0.0681  0.1965
  824MOL0     C11132   3.152   4.061  10.033 -0.3120  0.0392 -0.6162
  824MOL0     C11133   3.244   3.955  10.027  0.1841  0.0938 -0.3286
  824MOL0     C11134   3.383   3.973   9.987  0.1631  0.3753  0.0208
  824MOL0     O11135   3.430   4.100   9.964  0.5754  0.2737  0.2466
  824MOL0     C11136   3.566   4.126   9.952  0.4076 -0.2223 -0.6096
  824MOL0     C11137   3.613   4.204   9.841 -0.3382 -0.7745  0.2927
  824MOL0     C11138   3.748   4.223   9.823  0.1398  0.5292  0.6532
  824MOL0     C11139   3.840   4.178   9.915 -0.6651 -0.2892 -0.5687
  824MOL0     O11140   3.968   4.224   9.891  0.4310  0.7917  0.3813
  824MOL0     C11141   4.066   4.222   9.992 -0.2550  0.6155  0.3441
  824MOL0     C11142   4.198   4.258   9.941 -0.0738  0.2622  0.3057
  824MOL0     C11143   4.302   4.195  10.030 -0.0852 -0.1986 -0.8210
  824MOL0     C11144   4.442   4.213   9.985  0.3341  0.5622  0.9907
  824MOL0     C11145   4.528   4.145  10.095 -0.4917 -0.9972 -0.0401
  824MOL0     C11146   4.678   4.170  10.060  0.1562 -0.4998 -0.0500
  824MOL0     C11147   4.765   4.064  10.142 -0.1032  0.2142  0.4053
  824MOL0     C11148   4.914   4.074  10.108  0.2905  0.7222 -0.2162
  824MOL0    Cl11149   4.982   4.235  10.147 -0.1845  0.1972 -0.6841
  824MOL0     C11150   3.793   4.106  10.025 -0.0765 -0.8769  0.1404
  824MOL0     C11151   3.658   4.082  10.053  0.9134  1.1356  0.7264
  824MOL0     O11152   3.450   3.876   9.987  0.6343 -0.6055 -0.1618
  824MOL0     C11153   3.181   3.829  10.054 -0.5495  0.3328 -0.2546
  824MOL0     C11154   3.044   3.819  10.088 -0.6111 -0.4058  0.1252
  824MOL0     N11155   2.261   4.302  10.186  0.6538 -0.4462 -0.4138
  824MOL0     N11156   2.143   4.353  10.198  1.0306 -0.6301  0.4236
  824MOL0     C11157   1.019   4.340  10.786 -1.0907  0.4702 -1.3342
  824MOL0     C11158   0.952   4.381  10.897  0.4165  0.2752  0.0264
  824MOL0     C11159   0.803   4.555  11.278 -1.1763  0.1165 -0.9772
  824MOL0     C11160   0.665   4.565  11.310  0.7756  1.0212 -0.1825
  824MOL0     C11161   0.619   4.590  11.448 -1.0996 -0.1517  0.2958
  824MOL0     C11162   0.714   4.616  11.547  0.7033  0.8385  0.6590
  824MOL0     O11163   0.676   4.645  11.666 -0.0154  0.1661  0.7281
  824MOL0     C11164   0.653   4.524  11.742 -0.1500 -0.1447  0.4383
  824MOL0     C11165   0.721   4.564  11.883  0.1792 -0.4262  0.6484
  824MOL0     C11166   0.868   4.515  11.879 -0.2795 -0.3521 -0.9331
  824MOL0     C11167   0.921   4.497  12.015 -0.0990 -0.0135 -0.2635
  824MOL0     C11168   1.057   4.461  11.998 -1.1813  0.3153  0.7559
  824MOL0     C11169   1.169   4.415  11.977 -0.0909 -0.6667  0.2361
  824MOL0     C11170   0.853   4.605  11.514  0.2595  0.1343  0.1193
  824MOL0     C11171   0.897   4.577  11.383  1.3270  0.9420  0.0985
  824MOL0     C11172   1.048   4.571  11.364  0.2710 -0.7302  0.3458
  824MOL0     H11173   1.233   4.456  11.086  0.4015  2.7605 -0.7143
  824MOL0     H11174   1.342   4.415  10.883 -0.2055 -1.7094 -0.4441
  824MOL0     H11175   1.085   4.273  10.519 -0.0333  0.8932 -0.3961
  824MOL0     H11176   1.092   4.443  10.529 -0.2297 -1.9275 -1.0267
  824MOL0     H11177   1.340   4.437  10.445 -0.5001  0.8924 -1.6860
  824MOL0     H11178   1.203   4.416  10.336  1.8909  0.1370 -1.5547
  824MOL0     H11179   1.247   4.182  10.347 -0.2374  3.2675 -4.4464
  824MOL0     H11180   1.373   4.211  10.484 -0.6761  2.8829  1.4678
  824MOL0     H11181   1.421   4.216  10.187  3.1715 -0.1209 -0.9009
  824MOL0     H11182   1.466   4.358  10.263  1.4650  0.5115 -1.3577
  824MOL0     H11183   1.610   4.244  10.424  0.1301 -0.5632  0.0902
  824MOL0     H11184   1.579   4.079  10.358  0.7745 -0.1508 -0.9280
  824MOL0     H11185   1.660   4.167  10.142 -3.0178 -1.4413  2.0481
  824MOL0     H11186   1.689   4.326  10.205  0.4586  0.5436 -3.0486
  824MOL0     H11187   1.863   4.083  10.272  1.2387  0.1246 -0.5929
  824MOL0     H11188   1.865   4.230  10.369  0.4209  2.4307 -1.3960
  824MOL0     H11189   1.910   4.225  10.070  2.2618 -0.2952  1.0555
  824MOL0     H11190   1.896   4.370  10.175 -1.8882  0.3607  0.9188
  824MOL0     H11191   2.085   4.040  10.210 -1.0494  1.4034 -0.1403
  824MOL0     H11192   2.372   4.000  10.276 -2.9623 -1.3151 -0.1136
  824MOL0     H11193   2.337   3.983  10.102 -0.5472  0.2486 -1.0141
  824MOL0     H11194   2.508   4.160  10.052  0.6802  3.2872  2.6979
  824MOL0     H11195   2.545   4.183  10.215 -1.8960  2.3688  0.1857
  824MOL0     H11196   2.561   3.912  10.075 -5.0760  3.5021 -0.5215
  824MOL0     H11197   2.612   3.920  10.238 -0.0576 -2.9553 -2.2237
  824MOL0     H11198   2.769   4.115  10.169 -2.5576  2.0387 -1.4853
  824MOL0     H11199   2.754   4.053  10.007 -4.7263 -1.1957 -0.2635
  824MOL0     H11200   2.979   4.154  10.092 -3.5785 -1.5828  1.1985
  824MOL0     H11201   3.190   4.162  10.020  3.5397 -1.3027 -1.2332
  824MOL0     H11202   3.549   4.244   9.763  0.8455  1.7365  0.4986
  824MOL0     H11203   3.799   4.273   9.741  0.7700 -0.9248  0.1244
  824MOL0     H11204   4.050   4.297  10.071 -2.4399  1.0028 -0.3824
  824MOL0     H11205   4.078   4.124  10.040  1.9074  0.2255 -0.8767
  824MOL0     H11206   4.211   4.215   9.841 -0.6036 -1.8369  1.0796
  824MOL0     H11207   4.209   4.367   9.937 -2.5036  0.4947 -2.2668
  824MOL0     H11208   4.298   4.233  10.132  2.4508 -2.4466  0.2675
  824MOL0     H11209   4.286   4.086  10.031  0.3650 -0.3331 -2.8106
  824MOL0     H11210   4.461   4.321   9.983 -1.6920  0.9504  0.5950
  824MOL0     H11211   4.465   4.162   9.891  0.7126  1.1059  0.7784
  824MOL0     H11212   4.508   4.037  10.096  0.4583 -1.1748  0.1718
  824MOL0     H11213   4.497   4.189  10.190  1.4987 -1.0812  0.6954
  824MOL0     H11214   4.694   4.165   9.952 -0.5437 -0.7631 -0.1482
  824MOL0     H11215   4.699   4.276  10.080 -0.7542 -0.4713  0.8482
  824MOL0     H11216   4.739   3.963  10.109 -0.2035  0.6751 -0.9973
  824MOL0     H11217   4.743   4.082  10.247  1.1160 -2.2990  1.1685
  824MOL0     H11218   4.958   4.008  10.184 -1.2730  0.8698  0.8608
  824MOL0     H11219   4.940   4.055  10.004 -1.6718  2.4820 -1.1027
  824MOL0     H11220   3.867   4.061  10.090  0.1176 -1.5239 -0.5108
  824MOL0     H11221   3.608   4.052  10.145 -0.0290  0.6283  0.0609
  824MOL0     H11222   3.249   3.745  10.040  0.7659  0.6110  3.4028
  824MOL0     H11223   2.996   3.722  10.094 -1.3148  0.0393  3.1735
  824MOL0     H11224   0.964   4.306  10.699 -0.8583 -0.7390 -1.0224
  824MOL0     H11225   0.844   4.380  10.899  0.3566 -0.2337  3.5681
  824MOL0     H11226   0.588   4.547  11.236 -1.1529 -0.7872  2.0935
  824MOL0     H11227   0.513   4.595  11.470 -1.1541  0.5211 -0.1059
  824MOL0     H11228   0.708   4.433  11.715  2.1940  0.7176  1.9796
  824MOL0     H11229   0.546   4.505  11.748 -0.4193 -0.0831 -2.6521
  824MOL0     H11230   0.676   4.502  11.961 -0.1862  1.8945  2.3847
  824MOL0     H11231   0.715   4.668  11.915 -0.3080 -0.8346  1.9708
  824MOL0     H11232   0.933   4.596  11.842  2.1120 -1.2308  1.0901
  824MOL0     H11233   0.869   4.420  11.826 -1.5682  1.1216 -3.8276
  824MOL0     H11234   0.900   4.590  12.069 -2.9269 -0.5648 -0.2614
  824MOL0     H11235   0.869   4.408  12.053 -1.0709 -0.7557 -3.0876
  824MOL0     H11236   1.266   4.371  11.967  0.2348 -0.1912  1.1992
  824MOL0     H11237   0.914   4.628  11.601  2.4498 -0.7801 -1.0920
  824MOL0     H11238   1.075   4.650  11.294 -2.8282 -0.1272 -0.3333
  824MOL0     H11239   1.089   4.600  11.462  2.2940 -1.5942 -0.2126
  824MOL0     H11240   1.078   4.472  11.330  0.1252  0.1191 -2.4818
  825MOL0     O11241   0.413   7.013   2.142 -0.2151  0.4713 -0.3394
  825MOL0     C11242   0.315   6.949   2.094  0.0390  0.6901 -0.2521
  825MOL0     O11243   0.300   6.814   2.077  0.5884  0.1354  0.1125
  825MOL0     C11244   0.426   6.743   2.112  0.4183 -0.0954 -0.0753
  825MOL0     C11245   0.552   6.770   2.062 -0.2907  1.1509 -0.0060
  825MOL0     C11246   0.664   6.691   2.103 -0.0444 -0.4143 -0.5371
  825MOL0     C11247   0.646   6.585   2.191  0.5329  0.7873 -0.8042
  825MOL0     O11248   0.753   6.518   2.253 -0.0830 -0.0098  0.3351
  825MOL0     C11249   0.763   6.547   2.399  0.7460 -0.5496  0.4581
  825MOL0     C11250   0.907   6.552   2.432  0.8045  0.4213  0.3841
  825MOL0     C11251   0.985   6.426   2.392 -0.1798 -0.1156 -0.8633
  825MOL0     C11252   1.082   6.392   2.509  0.0676  0.5283  0.9236
  825MOL0     C11253   1.176   6.285   2.470 -0.0761  0.3087 -1.0072
  825MOL0     C11254   1.287   6.258   2.583 -0.4959 -0.2716  0.1342
  825MOL0     C11255   1.419   6.265   2.507 -0.5922 -0.1148 -0.0683
  825MOL0     C11256   1.534   6.203   2.592  0.0293 -0.0061  0.1359
  825MOL0     N11257   1.656   6.285   2.560  0.3203 -0.0767  0.0146
  825MOL0     C11258   1.686   6.414   2.596  0.0932 -0.2187  0.5993
  825MOL0     C11259   1.788   6.448   2.519 -0.2697  0.2506 -0.4940
  825MOL0     C11260   1.856   6.579   2.540 -0.3470  0.0462 -0.1479
  825MOL0     C11261   1.991   6.582   2.464 -0.8760 -0.3221 -0.2069
  825MOL0     C11262   1.984   6.652   2.326  1.3845  0.9100 -0.9272
  825MOL0     C11263   2.117   6.665   2.263  0.0626 -1.2753  0.2898
  825MOL0     O11264   2.168   6.794   2.302  0.0025 -0.3337  0.0823
  825MOL0     C11265   2.297   6.809   2.355  0.6697 -0.4846  0.0325
  825MOL0     C11266   2.361   6.921   2.296 -0.1403 -0.1750  0.0234
  825MOL0     C11267   2.489   6.960   2.328  0.5860 -0.2851  0.9078
  825MOL0     C11268   2.559   6.892   2.427 -0.5766 -0.0100 -0.1991
  825MOL0     C11269   2.708   6.918   2.459  0.6990  0.3375  0.1023
  825MOL0     O11270   2.767   6.835   2.550 -0.2066 -0.1536 -0.4098
  825MOL0     C11271   2.900   6.855   2.584 -0.3813 -1.3531 -0.4194
  825MOL0     C11272   2.990   6.765   2.539  0.3987  0.7792  0.5660
  825MOL0     C11273   3.125   6.776   2.594  0.1154  0.2322  0.0099
  825MOL0     C11274   3.155   6.881   2.686 -0.4060  0.6923 -0.0883
  825MOL0     O11275   3.286   6.883   2.739  1.4825 -0.9065  0.0852
  825MOL0     C11276   3.317   6.979   2.843  0.4298 -0.2375 -0.3440
  825MOL0     C11277   3.460   6.967   2.885  0.6076  0.1580  0.5093
  825MOL0     C11278   3.490   6.833   2.952  0.4199 -0.8135  0.3773
  825MOL0     C11279   3.646   6.824   2.961  0.1283  0.3630  0.8680
  825MOL0     C11280   3.691   6.715   3.060  0.1634 -0.4534  0.1198
  825MOL0     C11281   3.845   6.707   3.077  0.6706  0.2505  0.0873
  825MOL0     C11282   3.897   6.819   3.174  0.2948 -0.2610  0.2341
  825MOL0     C11283   4.048   6.822   3.152 -0.2856  0.7791  0.0020
  825MOL0    Cl11284   4.140   6.668   3.180 -0.3890 -0.2764  0.0957
  825MOL0     C11285   3.062   6.983   2.722  0.0101  0.6558  0.7758
  825MOL0     C11286   2.930   6.961   2.671 -0.0448 -1.1798  1.4156
  825MOL0     O11287   2.768   6.999   2.392  0.5546 -0.2493  1.1717
  825MOL0     C11288   2.495   6.781   2.488 -0.3491 -0.3931 -0.1828
  825MOL0     C11289   2.367   6.740   2.449  0.1495 -0.7673 -0.4219
  825MOL0     N11290   1.820   6.347   2.431  1.2675  0.2103  0.4829
  825MOL0     N11291   1.738   6.244   2.459  0.4827 -0.4965  0.0364
  825MOL0     C11292   0.518   6.548   2.228  0.6073  0.3060  0.3552
  825MOL0     C11293   0.409   6.626   2.190  0.1436  0.1121 -0.2266
  825MOL0     C11294   0.210   7.019   2.025 -0.0919 -0.7133  1.0000
  825MOL0     C11295   0.191   6.994   1.889  0.9742 -0.2967  0.3494
  825MOL0     C11296   0.118   7.076   1.805  0.0825  0.3500  0.5799
  825MOL0     C11297   0.059   7.187   1.864  0.5846 -0.7811  0.0268
  825MOL0     O11298  -0.020   7.256   1.777 -0.2561 -0.4838  0.4277
  825MOL0     C11299  -0.066   7.386   1.805 -0.8562 -0.1103  0.1677
  825MOL0     C11300   0.049   7.486   1.817  0.2911  0.6611  0.4953
  825MOL0     C11301  -0.016   7.627   1.845 -0.9853 -0.2913 -0.8983
  825MOL0     C11302   0.081   7.747   1.871  0.0745  0.0218  0.4988
  825MOL0     C11303   0.136   7.786   1.745 -0.2654 -0.4774  0.2459
  825MOL0     C11304   0.172   7.842   1.642 -0.9797  0.1282  0.9288
  825MOL0     C11305   0.074   7.219   1.999 -0.2834 -0.6161  0.2196
  825MOL0     C11306   0.157   7.140   2.081 -0.3407  0.5231  0.3393
  825MOL0     C11307   0.163   7.171   2.224  1.0226 -0.4350  0.7163
  825MOL0     H11308   0.573   6.846   1.988  1.4860  2.4473  1.7165
  825MOL0     H11309   0.761   6.718   2.062  0.4368 -2.8648 -1.2072
  825MOL0     H11310   0.725   6.642   2.437  0.5849 -0.6839  0.6388
  825MOL0     H11311   0.706   6.475   2.459 -1.2084  1.0478  0.6337
  825MOL0     H11312   0.914   6.567   2.540  2.9455  0.7650  0.2305
  825MOL0     H11313   0.957   6.627   2.371 -1.3593  0.4069 -1.5375
  825MOL0     H11314   1.043   6.441   2.300  2.4295 -2.8283  0.1856
  825MOL0     H11315   0.921   6.340   2.372  1.1949 -0.7240 -3.1206
  825MOL0     H11316   1.129   6.482   2.551  0.0114 -0.0114  2.1878
  825MOL0     H11317   1.022   6.355   2.592  0.3729  0.8081  1.2755
  825MOL0     H11318   1.137   6.190   2.433  1.2433 -1.0323  0.8727
  825MOL0     H11319   1.220   6.317   2.375 -1.2595 -0.6467 -1.9078
  825MOL0     H11320   1.273   6.327   2.666  0.1628  0.5209 -0.3937
  825MOL0     H11321   1.273   6.155   2.618 -1.3682 -0.5635 -0.9823
  825MOL0     H11322   1.434   6.369   2.475  0.5362  0.3635  1.8399
  825MOL0     H11323   1.402   6.203   2.419  0.0896 -1.0753  0.4648
  825MOL0     H11324   1.522   6.202   2.701 -2.5990 -3.9581  0.0404
  825MOL0     H11325   1.550   6.097   2.567  2.6199  0.5728 -0.9891
  825MOL0     H11326   1.649   6.477   2.676 -1.3605  2.4657 -2.0143
  825MOL0     H11327   1.780   6.651   2.508 -1.3028 -1.7278 -2.1071
  825MOL0     H11328   1.882   6.583   2.647  2.3702  2.3383 -0.7723
  825MOL0     H11329   2.071   6.625   2.525  0.2168 -0.8802 -1.1960
  825MOL0     H11330   2.020   6.480   2.435 -2.3117 -0.8311  0.0475
  825MOL0     H11331   1.932   6.749   2.335 -0.6179  0.0951 -2.7976
  825MOL0     H11332   1.927   6.590   2.256  3.2287 -1.2791 -0.5693
  825MOL0     H11333   2.106   6.669   2.154  3.5768  1.3780 -0.1377
  825MOL0     H11334   2.178   6.576   2.283 -3.1509 -3.2332  2.2608
  825MOL0     H11335   2.291   6.976   2.234 -3.8540 -0.3396  3.6008
  825MOL0     H11336   2.532   7.042   2.272  1.0103 -0.7297  0.5782
  825MOL0     H11337   2.964   6.674   2.487 -1.3622  0.0747  2.5494
  825MOL0     H11338   3.195   6.696   2.575 -0.9947 -1.0550  1.0737
  825MOL0     H11339   3.280   7.080   2.822  1.6686  0.3727  0.2617
  825MOL0     H11340   3.255   6.936   2.921  0.7622  0.4359  0.3110
  825MOL0     H11341   3.521   6.986   2.796 -1.1263  2.3850 -0.2972
  825MOL0     H11342   3.490   7.041   2.959  1.4060  0.4950 -0.1375
  825MOL0     H11343   3.443   6.830   3.051  1.3435 -2.0321  0.8113
  825MOL0     H11344   3.460   6.743   2.897 -1.1526 -2.0511  3.0311
  825MOL0     H11345   3.689   6.918   2.996  0.8344 -0.0683  1.1981
  825MOL0     H11346   3.678   6.812   2.857 -0.1722  0.6084  0.7466
  825MOL0     H11347   3.644   6.620   3.035  0.0352 -0.9348  2.0977
  825MOL0     H11348   3.651   6.737   3.159 -0.8792 -0.5940 -0.2646
  825MOL0     H11349   3.870   6.613   3.127 -0.0412  0.0890  0.1478
  825MOL0     H11350   3.901   6.719   2.984 -2.1200  0.0794 -1.7177
  825MOL0     H11351   3.875   6.793   3.278  1.8244 -0.7673  0.4611
  825MOL0     H11352   3.860   6.920   3.157  2.5212  0.3111 -1.7877
  825MOL0     H11353   4.079   6.842   3.049 -0.0754 -0.8701 -0.2748
  825MOL0     H11354   4.090   6.903   3.213 -0.5239 -0.0345  1.2825
  825MOL0     H11355   3.079   7.068   2.787  1.2568  1.2675 -0.3149
  825MOL0     H11356   2.846   7.021   2.705  0.0583 -1.4146  2.0913
  825MOL0     H11357   2.552   6.729   2.565  2.1845 -1.2528 -2.5112
  825MOL0     H11358   2.323   6.655   2.499 -2.6242 -0.4430 -2.1119
  825MOL0     H11359   0.522   6.470   2.304  5.3353  1.6885  1.8631
  825MOL0     H11360   0.312   6.607   2.234  1.0135 -1.1960  1.2246
  825MOL0     H11361   0.238   6.907   1.846 -0.5189 -1.3856  0.8001
  825MOL0     H11362   0.112   7.058   1.698  0.8182 -0.1205  0.6092
  825MOL0     H11363  -0.127   7.388   1.896 -1.5151 -4.6168  0.0649
  825MOL0     H11364  -0.128   7.420   1.722  0.2142 -0.3366 -0.7534
  825MOL0     H11365   0.100   7.489   1.721  0.3192  0.0800  0.4898
  825MOL0     H11366   0.120   7.459   1.896 -1.1876 -0.1236  1.6102
  825MOL0     H11367  -0.070   7.625   1.940  2.3557 -0.3477  1.1570
  825MOL0     H11368  -0.091   7.652   1.770 -3.2480 -1.3996  0.8541
  825MOL0     H11369   0.026   7.830   1.919  0.3679 -0.8310  2.4146
  825MOL0     H11370   0.147   7.713   1.951 -2.3322 -2.4780  1.6003
  825MOL0     H11371   0.204   7.896   1.555  0.3430 -0.4103  1.0603
  825MOL0     H11372   0.020   7.307   2.035 -1.0134 -0.4005 -1.3036
  825MOL0     H11373   0.136   7.087   2.288  0.9756  2.0217  4.1722
  825MOL0     H11374   0.270   7.187   2.240  1.4594  0.4970 -2.3580
  825MOL0     H11375   0.095   7.253   2.247  2.1698  0.6412  0.3949
  826MOL0     O11376   6.009   8.270   1.068  0.1808 -0.4052 -1.0376
  826MOL0     C11377   6.022   8.387   1.099 -0.6301 -0.3584 -0.8030
  826MOL0     O11378   5.954   8.495   1.048 -0.5513 -0.0113 -0.6442
  826MOL0     C11379   5.826   8.482   0.998  0.3418  0.2920 -1.0574
  826MOL0     C11380   5.725   8.562   1.050  0.3565  0.1826  0.1593
  826MOL0     C11381   5.596   8.567   0.983 -0.0025 -0.6121  0.7287
  826MOL0     C11382   5.565   8.474   0.886  0.0169 -0.1747  0.5372
  826MOL0     O11383   5.448   8.456   0.816 -0.2413  0.4476  0.4674
  826MOL0     C11384   5.346   8.550   0.820 -0.4802 -0.6363  0.4351
  826MOL0     C11385   5.230   8.489   0.748  0.0346 -0.3543 -1.0870
  826MOL0     C11386   5.104   8.580   0.740 -0.1089  0.1965  0.2802
  826MOL0     C11387   4.977   8.509   0.696  0.4993 -0.5259 -0.3416
  826MOL0     C11388   4.851   8.594   0.733 -0.7899  0.1055 -0.2895
  826MOL0     C11389   4.814   8.552   0.881  0.2486  0.0638  0.4689
  826MOL0     C11390   4.733   8.670   0.947 -0.4000  0.0911  0.0035
  826MOL0     C11391   4.709   8.643   1.096  0.5720  0.4615 -0.8394
  826MOL0     N11392   4.816   8.690   1.181 -0.1432 -0.5601  0.5101
  826MOL0     C11393   4.828   8.677   1.324  0.3567 -0.6348  0.9081
  826MOL0     C11394   4.935   8.740   1.372  0.2080 -0.5951  0.2940
  826MOL0     C11395   4.987   8.739   1.510  0.0901 -0.3389  0.0007
  826MOL0     C11396   5.120   8.818   1.535  0.0673  0.2265 -0.2925
  826MOL0     C11397   5.100   8.970   1.539 -0.2609  0.1504 -0.0508
  826MOL0     C11398   5.235   9.039   1.571 -0.5220 -0.3461  0.0650
  826MOL0     O11399   5.285   9.013   1.707  0.0276 -0.1006  0.5523
  826MOL0     C11400   5.413   9.036   1.736 -0.2257  0.2923  0.6483
  826MOL0     C11401   5.467   8.995   1.862 -0.5763  0.1510  0.1598
  826MOL0     C11402   5.605   8.994   1.891  1.0601  0.1363  0.5642
  826MOL0     C11403   5.696   9.040   1.791  0.1150 -0.2603 -0.1567
  826MOL0     C11404   5.838   9.037   1.814  0.1602 -1.2427 -0.1671
  826MOL0     O11405   5.878   8.941   1.901 -0.2233  0.1239 -0.3681
  826MOL0     C11406   6.012   8.908   1.916 -1.3375  0.0171  0.2598
  826MOL0     C11407   6.095   8.888   1.799 -0.9836  0.1304 -0.4622
  826MOL0     C11408   6.234   8.858   1.812  0.1320 -0.3748 -0.1618
  826MOL0     C11409   6.295   8.850   1.943 -2.0815 -0.4602  0.0156
  826MOL0     O11410   6.430   8.810   1.947 -0.0791  0.1647  0.4260
  826MOL0     C11411   6.521   8.893   2.017 -1.9176 -0.3179 -0.5225
  826MOL0     C11412   6.658   8.920   1.939  0.1770 -0.5688 -0.3806
  826MOL0     C11413   6.771   8.961   2.038  0.6154  0.0640 -0.0172
  826MOL0     C11414   6.823   9.097   1.990  0.2150  1.5913 -0.0785
  826MOL0     C11415   6.928   9.166   2.084 -0.5558 -0.3029 -0.1840
  826MOL0     C11416   6.941   9.319   2.053  0.2425 -0.3659  0.2639
  826MOL0     C11417   7.062   9.388   2.116 -0.2116  0.4440  0.3493
  826MOL0     C11418   7.045   9.540   2.097  0.8962  0.0811  0.7801
  826MOL0    Cl11419   6.994   9.595   1.931  0.0480  0.3913 -0.2190
  826MOL0     C11420   6.221   8.887   2.054 -0.5423 -0.1359 -0.5933
  826MOL0     C11421   6.080   8.901   2.043  0.6887  0.1285 -0.4362
  826MOL0     O11422   5.905   9.113   1.752  0.0747  0.5409  0.7757
  826MOL0     C11423   5.642   9.084   1.664  0.1388  0.0484  0.9259
  826MOL0     C11424   5.503   9.088   1.638 -0.0969 -0.9444  0.0971
  826MOL0     N11425   4.983   8.809   1.262  0.3233  0.2322 -0.0201
  826MOL0     N11426   4.913   8.785   1.154 -0.4229  0.1792  1.0906
  826MOL0     C11427   5.664   8.391   0.845  1.0344 -0.0724 -0.0010
  826MOL0     C11428   5.793   8.391   0.896  0.1111 -0.3165  0.4959
  826MOL0     C11429   6.126   8.414   1.206 -0.5049 -0.0511 -0.8792
  826MOL0     C11430   6.178   8.544   1.222  0.1914  0.7807 -0.3897
  826MOL0     C11431   6.268   8.578   1.319 -0.6127  0.1064 -0.3718
  826MOL0     C11432   6.315   8.482   1.413 -0.2805  0.3479  0.6355
  826MOL0     O11433   6.389   8.518   1.523 -0.3252  0.4203 -0.1390
  826MOL0     C11434   6.519   8.576   1.497 -0.1016 -0.4439 -0.3579
  826MOL0     C11435   6.631   8.519   1.581  0.0080 -0.0159 -0.1564
  826MOL0     C11436   6.611   8.571   1.726  0.0904  0.0867  0.2120
  826MOL0     C11437   6.729   8.531   1.809 -0.5221  0.1304 -0.0026
  826MOL0     C11438   6.716   8.544   1.956 -0.1877 -0.3589  0.6586
  826MOL0     C11439   6.696   8.531   2.070  0.3110  0.8788  0.2205
  826MOL0     C11440   6.257   8.354   1.404  0.4533 -0.8943 -0.4971
  826MOL0     C11441   6.165   8.322   1.302 -0.9467  0.8780 -0.1269
  826MOL0     C11442   6.131   8.173   1.291  0.0705 -0.5421  0.3993
  826MOL0     H11443   5.757   8.635   1.124 -0.1855  1.0599 -0.4502
  826MOL0     H11444   5.520   8.632   1.026 -0.0741 -1.3433  1.7412
  826MOL0     H11445   5.297   8.561   0.917 -0.1769 -0.2755  0.5480
  826MOL0     H11446   5.374   8.643   0.771  0.6089 -1.2119 -0.0615
  826MOL0     H11447   5.217   8.390   0.793  2.6907 -0.4295 -0.3281
  826MOL0     H11448   5.270   8.466   0.649  2.0417 -4.1105  0.3837
  826MOL0     H11449   5.130   8.650   0.661  2.1082  0.4043  1.1135
  826MOL0     H11450   5.089   8.627   0.837  3.4108  0.9198  0.6280
  826MOL0     H11451   4.981   8.505   0.587 -0.0906 -0.0167 -0.3883
  826MOL0     H11452   4.963   8.414   0.750  0.5116  0.3742  1.3307
  826MOL0     H11453   4.881   8.700   0.730  2.2714 -0.6613  0.0593
  826MOL0     H11454   4.773   8.589   0.657  0.0348 -1.7177 -1.0804
  826MOL0     H11455   4.763   8.456   0.878  1.1097 -0.3926 -1.7261
  826MOL0     H11456   4.905   8.547   0.942  2.2155  4.3846 -1.6723
  826MOL0     H11457   4.639   8.665   0.892 -0.3069  1.6899 -0.3242
  826MOL0     H11458   4.787   8.763   0.927 -0.8386  0.2687 -0.3777
  826MOL0     H11459   4.609   8.679   1.124  1.2175  0.8222  1.1828
  826MOL0     H11460   4.701   8.535   1.112  0.4761  0.8717  2.5500
  826MOL0     H11461   4.774   8.606   1.386 -1.6170 -1.0189 -1.1016
  826MOL0     H11462   4.907   8.772   1.577  0.1712 -1.0144  0.4388
  826MOL0     H11463   5.027   8.641   1.540  0.3893  0.0234  0.8084
  826MOL0     H11464   5.144   8.783   1.636 -4.7783 -0.3069  0.9650
  826MOL0     H11465   5.189   8.796   1.454 -0.8518  2.3935 -1.7542
  826MOL0     H11466   5.035   9.016   1.614  0.5300 -1.1646  1.5082
  826MOL0     H11467   5.065   8.999   1.440 -0.9970 -0.5396 -0.0022
  826MOL0     H11468   5.229   9.146   1.552 -1.3623 -0.6205 -1.2986
  826MOL0     H11469   5.309   8.996   1.503 -0.3814 -2.0043  1.2063
  826MOL0     H11470   5.392   8.967   1.936 -1.2037 -1.4144 -1.0036
  826MOL0     H11471   5.633   8.971   1.993  0.6675 -0.1372  0.6119
  826MOL0     H11472   6.063   8.886   1.695  2.1847 -2.1695 -1.5637
  826MOL0     H11473   6.281   8.831   1.719 -0.6347  0.9341 -0.9757
  826MOL0     H11474   6.473   8.981   2.059 -0.2385 -1.0482  3.4270
  826MOL0     H11475   6.556   8.831   2.100 -0.3784 -1.0454 -1.6624
  826MOL0     H11476   6.696   8.832   1.886 -1.3571 -2.2205  1.1276
  826MOL0     H11477   6.633   9.002   1.871 -2.0814  0.6599  1.7522
  826MOL0     H11478   6.728   8.979   2.137  3.3716  1.3625  1.0718
  826MOL0     H11479   6.851   8.888   2.055 -3.4758 -4.5686  1.7148
  826MOL0     H11480   6.741   9.167   1.972  1.1380  2.0059 -3.2468
  826MOL0     H11481   6.873   9.090   1.893  0.2251  0.6158 -0.0120
  826MOL0     H11482   7.015   9.102   2.071 -1.7912 -1.8659 -1.1072
  826MOL0     H11483   6.890   9.162   2.187 -1.8720  2.2553 -0.4872
  826MOL0     H11484   6.947   9.330   1.945  1.4654  1.8097  0.5044
  826MOL0     H11485   6.846   9.361   2.089  0.1416 -0.7115  0.4135
  826MOL0     H11486   7.160   9.367   2.072 -0.5673  1.1333 -0.8257
  826MOL0     H11487   7.056   9.367   2.223  1.0464 -1.6607  0.0758
  826MOL0     H11488   6.969   9.574   2.167 -1.1749 -3.6167  0.6167
  826MOL0     H11489   7.143   9.584   2.118  0.6894  1.5715 -1.1203
  826MOL0     H11490   6.282   8.889   2.144 -1.0231 -0.0333 -0.2707
  826MOL0     H11491   6.016   8.916   2.129 -0.7891  2.7244 -1.8502
  826MOL0     H11492   5.713   9.104   1.585 -0.8127 -2.0279 -0.5523
  826MOL0     H11493   5.474   9.131   1.543 -0.7163 -0.6424  0.4175
  826MOL0     H11494   5.631   8.323   0.767  0.8231 -0.4240  0.3907
  826MOL0     H11495   5.866   8.326   0.849  1.0484  0.9767  0.0712
  826MOL0     H11496   6.155   8.632   1.163  1.6727  0.3329 -1.7127
  826MOL0     H11497   6.304   8.679   1.338 -0.1410 -0.4130  1.8203
  826MOL0     H11498   6.500   8.678   1.530 -0.9013 -1.0535  1.1930
  826MOL0     H11499   6.555   8.587   1.394 -0.6031  1.4180 -0.3617
  826MOL0     H11500   6.729   8.552   1.545  0.5514 -0.2710  1.0264
  826MOL0     H11501   6.629   8.410   1.578  2.4502 -0.2745  2.4849
  826MOL0     H11502   6.521   8.526   1.770 -1.4650  1.2758 -1.5992
  826MOL0     H11503   6.595   8.679   1.734 -3.7092 -0.1826 -1.4444
  826MOL0     H11504   6.755   8.426   1.794  0.8783  0.4626 -0.0487
  826MOL0     H11505   6.820   8.584   1.781  0.9766 -1.8757  0.8725
  826MOL0     H11506   6.671   8.521   2.174 -2.1782 -0.9795 -0.4605
  826MOL0     H11507   6.280   8.281   1.480  3.0956  2.2726  2.0880
  826MOL0     H11508   6.174   8.108   1.368 -2.0429 -0.2890  1.8703
  826MOL0     H11509   6.025   8.157   1.308  0.7418 -2.5178  3.4787
  826MOL0     H11510   6.161   8.131   1.194 -1.1607  2.5853 -1.4892
  827MOL0     O11511   0.076   6.103   7.895 -0.0901  0.3033 -0.8305
  827MOL0     C11512  -0.033   6.082   7.955 -0.5993 -0.3795  0.0187
  827MOL0     O11513  -0.051   5.982   8.037 -0.1307  0.2692  0.4724
  827MOL0     C11514   0.041   5.878   8.058 -0.4085 -1.1431  0.2432
  827MOL0     C11515   0.179   5.894   8.076  0.7508  0.0231 -0.4281
  827MOL0     C11516   0.268   5.796   8.122 -0.0912  0.7504 -0.4506
  827MOL0     C11517   0.221   5.671   8.157  0.0774  0.0100 -0.5704
  827MOL0     O11518   0.295   5.560   8.202  1.1041  0.6396  0.2512
  827MOL0     C11519   0.435   5.562   8.213 -0.5458 -0.1405 -0.1060
  827MOL0     C11520   0.471   5.421   8.248 -0.9950  0.7107  0.1546
  827MOL0     C11521   0.606   5.405   8.296 -0.2624 -0.2648 -1.3848
  827MOL0     C11522   0.644   5.450   8.443  0.2800 -0.2680  0.0887
  827MOL0     C11523   0.550   5.414   8.563 -0.3375 -0.3824 -0.3063
  827MOL0     C11524   0.431   5.517   8.579  1.0095 -0.6946 -0.0977
  827MOL0     C11525   0.378   5.482   8.718 -0.2106 -0.3927  1.0500
  827MOL0     C11526   0.244   5.529   8.758  0.7058 -0.5648  0.0263
  827MOL0     N11527   0.228   5.674   8.736  0.1454 -0.3466 -0.2136
  827MOL0     C11528   0.202   5.731   8.614 -0.0532 -0.5918  0.7248
  827MOL0     C11529   0.197   5.858   8.640 -0.4527 -0.8829  1.0462
  827MOL0     C11530   0.177   5.964   8.527  0.2628  0.6177  0.5033
  827MOL0     C11531   0.032   5.942   8.471 -0.3640  0.3342 -0.2368
  827MOL0     C11532  -0.007   6.085   8.418 -1.0757 -0.5706 -0.3074
  827MOL0     C11533  -0.073   6.168   8.533 -0.1166  0.0905  0.3439
  827MOL0     O11534  -0.122   6.294   8.483 -0.1288  0.5411 -0.1440
  827MOL0     C11535  -0.247   6.307   8.429 -0.4919  0.9781 -0.1795
  827MOL0     C11536  -0.249   6.424   8.351  0.4774  0.1390 -0.1375
  827MOL0     C11537  -0.370   6.457   8.283 -0.7489 -0.2960 -0.7815
  827MOL0     C11538  -0.479   6.367   8.278 -0.9733 -0.5092 -0.0332
  827MOL0     C11539  -0.596   6.400   8.192  1.3293  0.1552  0.2900
  827MOL0     O11540  -0.622   6.524   8.151  0.5817  0.2278 -0.5438
  827MOL0     C11541  -0.726   6.552   8.056  0.0842  0.1185  0.1166
  827MOL0     C11542  -0.737   6.480   7.932 -0.5186 -0.6804 -0.3461
  827MOL0     C11543  -0.840   6.506   7.845  0.2291  0.1735  0.2851
  827MOL0     C11544  -0.942   6.596   7.878  0.5767  0.1475  0.5789
  827MOL0     O11545  -1.046   6.613   7.789 -0.5523 -0.0316 -0.1847
  827MOL0     C11546  -1.166   6.677   7.828 -0.1123 -0.0718 -1.1185
  827MOL0     C11547  -1.286   6.659   7.733  0.1635  0.6888 -0.1093
  827MOL0     C11548  -1.249   6.685   7.586 -0.8783 -0.1661  0.3991
  827MOL0     C11549  -1.242   6.836   7.534 -0.3537 -0.2268 -0.2635
  827MOL0     C11550  -1.108   6.899   7.583 -0.0435 -0.6728  0.3877
  827MOL0     C11551  -1.086   7.029   7.512 -0.3688 -0.0843  0.2800
  827MOL0     C11552  -1.000   7.134   7.570  0.2775 -0.0040 -0.2160
  827MOL0     C11553  -0.952   7.254   7.480  1.4715 -0.3677 -0.2059
  827MOL0    Cl11554  -0.804   7.325   7.537 -0.0924 -0.1923 -0.4559
  827MOL0     C11555  -0.929   6.664   7.999 -0.1891 -1.5345  0.4465
  827MOL0     C11556  -0.827   6.649   8.090 -0.6644  0.2992 -0.1266
  827MOL0     O11557  -0.662   6.305   8.161 -0.7191 -0.4268  0.7922
  827MOL0     C11558  -0.466   6.252   8.356 -0.4986  0.6121 -0.7894
  827MOL0     C11559  -0.353   6.222   8.440 -0.4559  0.0072  0.6318
  827MOL0     N11560   0.231   5.881   8.770  0.4225  0.0673  0.0266
  827MOL0     N11561   0.241   5.771   8.836  0.3013 -0.4772 -0.8512
  827MOL0     C11562   0.079   5.661   8.155  0.0572 -0.1670 -0.3159
  827MOL0     C11563  -0.007   5.763   8.106 -0.4541  0.1562  0.1779
  827MOL0     C11564  -0.141   6.179   7.918 -0.6531 -0.5645 -0.6543
  827MOL0     C11565  -0.099   6.274   7.814 -0.1753 -0.4065  0.0909
  827MOL0     C11566  -0.184   6.368   7.772  0.7498 -0.7546 -0.7392
  827MOL0     C11567  -0.314   6.371   7.817  0.9708  0.2193  0.8804
  827MOL0     O11568  -0.410   6.459   7.774  0.2794  0.7239 -0.2637
  827MOL0     C11569  -0.376   6.551   7.671 -0.1358  0.5124 -0.8612
  827MOL0     C11570  -0.499   6.634   7.635  0.4053  0.4617 -0.6707
  827MOL0     C11571  -0.541   6.737   7.746 -0.0079 -0.5108  0.2911
  827MOL0     C11572  -0.661   6.815   7.702 -0.3114  0.1870  0.1622
  827MOL0     C11573  -0.624   6.913   7.604  0.4157 -0.3837  0.6379
  827MOL0     C11574  -0.579   6.991   7.515  0.1104  0.6554  0.0366
  827MOL0     C11575  -0.356   6.287   7.920 -1.0490  0.3106 -0.2948
  827MOL0     C11576  -0.273   6.192   7.974 -0.1635  0.0076  0.4598
  827MOL0     C11577  -0.334   6.106   8.086 -1.0750 -0.3244 -0.4715
  827MOL0     H11578   0.208   5.997   8.058  0.7984  0.1060  0.1080
  827MOL0     H11579   0.370   5.829   8.141 -0.2084  1.4698 -1.0136
  827MOL0     H11580   0.493   5.601   8.129 -1.5570  2.7391  0.4041
  827MOL0     H11581   0.459   5.619   8.304 -4.4763 -1.0274  1.6922
  827MOL0     H11582   0.451   5.354   8.163 -1.3881 -0.3603  1.0626
  827MOL0     H11583   0.416   5.378   8.332  2.0880 -0.3687  1.7681
  827MOL0     H11584   0.668   5.464   8.228  0.9999  0.7903  0.5748
  827MOL0     H11585   0.631   5.298   8.300  2.0775  0.2475  0.1843
  827MOL0     H11586   0.746   5.416   8.463 -0.0273 -1.9193 -0.9083
  827MOL0     H11587   0.660   5.557   8.435  1.5121 -0.3553  1.1305
  827MOL0     H11588   0.530   5.306   8.560  2.6337 -1.0784  1.3596
  827MOL0     H11589   0.610   5.427   8.653 -0.3579  3.2522 -0.6640
  827MOL0     H11590   0.469   5.619   8.565 -1.4389  0.1187 -1.5434
  827MOL0     H11591   0.358   5.491   8.501  1.9700 -2.3031 -0.5101
  827MOL0     H11592   0.461   5.517   8.781  1.3016  2.6186 -2.2642
  827MOL0     H11593   0.372   5.374   8.733 -0.2398 -0.2776  1.9554
  827MOL0     H11594   0.173   5.467   8.703 -1.7863 -0.9805  3.4140
  827MOL0     H11595   0.234   5.504   8.863 -0.9374  0.5592  0.1835
  827MOL0     H11596   0.179   5.684   8.519  0.8517  1.0111 -0.3408
  827MOL0     H11597   0.200   6.062   8.568 -0.2383  0.6598  0.6960
  827MOL0     H11598   0.247   5.938   8.447 -0.6738  1.6762 -0.7144
  827MOL0     H11599   0.049   5.869   8.391  0.7533 -1.8727  1.8521
  827MOL0     H11600  -0.033   5.902   8.550  0.8824  2.5911  2.0834
  827MOL0     H11601  -0.094   6.077   8.352 -3.7207  1.5177  2.6282
  827MOL0     H11602   0.076   6.131   8.364 -0.0866 -0.4156  1.2787
  827MOL0     H11603   0.006   6.205   8.599 -1.6631  0.1894  2.2286
  827MOL0     H11604  -0.144   6.114   8.596  0.8662 -1.5637  0.0853
  827MOL0     H11605  -0.166   6.494   8.351 -1.3000  2.3988 -1.2995
  827MOL0     H11606  -0.373   6.552   8.231  0.8176  0.7556  0.9415
  827MOL0     H11607  -0.671   6.399   7.903 -1.9755 -2.3605  0.8105
  827MOL0     H11608  -0.849   6.462   7.746 -1.5396  1.0632 -0.0060
  827MOL0     H11609  -1.197   6.630   7.922  0.2927  0.2685 -0.8057
  827MOL0     H11610  -1.153   6.785   7.838 -0.9377  0.1028 -1.8208
  827MOL0     H11611  -1.320   6.556   7.723 -1.1624  1.2168 -1.5833
  827MOL0     H11612  -1.376   6.714   7.764 -1.4696 -0.9361 -1.6751
  827MOL0     H11613  -1.153   6.638   7.561 -0.8981  0.4783 -0.9298
  827MOL0     H11614  -1.325   6.639   7.522 -0.2614  2.1825 -2.2159
  827MOL0     H11615  -1.330   6.894   7.562 -0.8744 -0.9599 -0.3515
  827MOL0     H11616  -1.241   6.845   7.425 -3.0794  0.6594 -0.2830
  827MOL0     H11617  -1.033   6.822   7.561  0.8551  0.4806 -0.8425
  827MOL0     H11618  -1.101   6.917   7.691  1.7885  0.7385  0.0943
  827MOL0     H11619  -1.047   6.991   7.417  0.2786  0.2535  0.4070
  827MOL0     H11620  -1.181   7.083   7.499  1.0534  2.6322  0.4484
  827MOL0     H11621  -0.909   7.081   7.599  0.2832 -0.2823 -0.7128
  827MOL0     H11622  -1.047   7.183   7.655  1.1143 -0.8713  0.7739
  827MOL0     H11623  -0.925   7.217   7.381  0.7150  2.4052 -1.5603
  827MOL0     H11624  -1.023   7.337   7.478  1.5233 -0.2599  1.2597
  827MOL0     H11625  -0.996   6.745   8.025  0.9595 -0.7050  0.8959
  827MOL0     H11626  -0.822   6.707   8.181  1.9955  1.2261 -0.7826
  827MOL0     H11627  -0.543   6.175   8.359  0.2780 -0.1407  1.1387
  827MOL0     H11628  -0.365   6.134   8.502 -2.8665 -1.9479 -2.2924
  827MOL0     H11629   0.038   5.565   8.186  3.6666 -1.2494  1.7582
  827MOL0     H11630  -0.114   5.744   8.102 -0.2094 -1.3537  0.3516
  827MOL0     H11631  -0.003   6.277   7.763  1.3274  1.1944  2.7759
  827MOL0     H11632  -0.153   6.431   7.689 -5.3184 -0.6837 -3.4890
  827MOL0     H11633  -0.345   6.487   7.588  0.1094 -3.0000  1.7052
  827MOL0     H11634  -0.295   6.620   7.695  1.3565 -1.3046 -0.4469
  827MOL0     H11635  -0.574   6.562   7.599  0.7228  0.4438 -1.3088
  827MOL0     H11636  -0.472   6.695   7.548  1.7938 -3.5756 -3.3576
  827MOL0     H11637  -0.463   6.813   7.753 -1.0644  0.8546 -1.8698
  827MOL0     H11638  -0.551   6.681   7.840 -0.4531 -2.8976 -1.0734
  827MOL0     H11639  -0.729   6.742   7.657  0.8438 -0.8666  0.0619
  827MOL0     H11640  -0.715   6.864   7.783  0.4695  3.9607 -1.3698
  827MOL0     H11641  -0.553   7.060   7.437  2.7796 -0.2526  0.0252
  827MOL0     H11642  -0.455   6.302   7.960 -1.4010 -1.6833 -0.3169
  827MOL0     H11643  -0.440   6.131   8.084 -0.4140  2.8640 -2.4112
  827MOL0     H11644  -0.324   6.001   8.056 -1.4035  0.3412 -3.2584
  827MOL0     H11645  -0.277   6.126   8.177  0.6646 -1.9101 -1.1342
  828MOL0     O11646   8.669   8.801  11.013 -0.2267 -0.4974  1.0671
  828MOL0     C11647   8.632   8.915  11.037  0.5731 -0.3114  0.9586
  828MOL0     O11648   8.679   9.031  10.972 -0.3958  0.3114 -0.6606
  828MOL0     C11649   8.748   9.017  10.857 -0.4962  0.3979  0.0173
  828MOL0     C11650   8.709   8.942  10.745 -0.8356  0.9266  0.4736
  828MOL0     C11651   8.788   8.947  10.622 -0.1790 -0.2771 -0.7909
  828MOL0     C11652   8.893   9.032  10.605 -0.3152 -1.0141  0.3088
  828MOL0     O11653   8.971   9.018  10.491 -0.4450 -0.6537  0.2711
  828MOL0     C11654   9.092   9.099  10.474 -0.0110 -0.3292 -0.4068
  828MOL0     C11655   9.161   9.058  10.342 -0.0266 -0.1765 -0.9164
  828MOL0     C11656   9.073   9.007  10.238  0.3500  0.2392  0.4645
  828MOL0     C11657   9.152   8.972  10.112  0.2208  0.2661  0.0455
  828MOL0     C11658   9.061   8.936   9.994 -0.7819  0.5697 -0.0775
  828MOL0     C11659   9.129   8.874   9.877 -0.6243  0.4922 -0.2953
  828MOL0     C11660   9.022   8.826   9.786  1.0596  1.4244  0.1796
  828MOL0     C11661   8.949   8.698   9.842  0.4001  0.1889 -0.8861
  828MOL0     N11662   8.871   8.627   9.744  0.2520  0.3255  0.1843
  828MOL0     C11663   8.818   8.676   9.627 -1.0399 -0.7120 -1.0878
  828MOL0     C11664   8.720   8.597   9.578  0.4075 -0.3491 -0.1245
  828MOL0     C11665   8.634   8.610   9.468  0.6780  0.0886  0.4509
  828MOL0     C11666   8.482   8.582   9.507 -0.2339 -0.8328 -0.2510
  828MOL0     C11667   8.396   8.584   9.379  0.3032 -0.1848  0.0180
  828MOL0     C11668   8.256   8.526   9.408 -0.4827  0.7730 -0.0723
  828MOL0     O11669   8.189   8.524   9.284 -1.1848 -0.0601  0.1882
  828MOL0     C11670   8.054   8.538   9.302  0.4539 -0.2178 -0.3288
  828MOL0     C11671   8.016   8.671   9.351 -0.4205 -0.1168  0.3910
  828MOL0     C11672   7.877   8.705   9.369  0.1775  0.7943 -0.5822
  828MOL0     C11673   7.782   8.620   9.325  0.7758 -0.6385 -0.4159
  828MOL0     C11674   7.635   8.652   9.339 -0.7459 -0.7232  0.6818
  828MOL0     O11675   7.601   8.775   9.394  0.7897 -0.2339  0.0487
  828MOL0     C11676   7.469   8.814   9.403 -0.0167 -0.1480  0.1386
  828MOL0     C11677   7.359   8.782   9.326 -1.2217 -0.2334  0.4340
  828MOL0     C11678   7.231   8.840   9.355 -0.4886  0.3425 -0.0503
  828MOL0     C11679   7.216   8.908   9.472  0.4603 -0.2330  0.0539
  828MOL0     O11680   7.096   8.964   9.514  0.9666 -0.6085 -0.1821
  828MOL0     C11681   7.024   8.891   9.616  0.7157  0.0012  0.9456
  828MOL0     C11682   7.015   8.959   9.752  0.0361 -0.3078  0.7925
  828MOL0     C11683   6.942   9.093   9.744  0.1893  0.4150  0.0190
  828MOL0     C11684   6.948   9.174   9.880 -0.6341 -0.5658 -0.9416
  828MOL0     C11685   6.940   9.325   9.865  0.2030 -0.7351 -0.3081
  828MOL0     C11686   6.939   9.404   9.997 -0.8215  0.2748  0.2252
  828MOL0     C11687   7.019   9.536   9.968  0.6637  0.1959 -0.3218
  828MOL0     C11688   7.036   9.623  10.095  0.1427 -0.1301  0.7700
  828MOL0    Cl11689   7.200   9.694  10.104 -0.0334 -0.3260  0.5837
  828MOL0     C11690   7.321   8.949   9.545 -0.4680  0.2604 -1.3439
  828MOL0     C11691   7.451   8.901   9.516 -0.1141 -0.3409  0.0518
  828MOL0     O11692   7.558   8.572   9.298  0.4980  0.1472  0.2900
  828MOL0     C11693   7.825   8.498   9.263  0.0410 -0.0347 -0.3801
  828MOL0     C11694   7.953   8.459   9.256 -0.8155  0.2620  0.2008
  828MOL0     N11695   8.696   8.502   9.679  0.1134 -0.6341 -0.8224
  828MOL0     N11696   8.786   8.522   9.780 -0.1735 -0.1338  0.8503
  828MOL0     C11697   8.921   9.116  10.712 -0.0304 -0.6332 -0.1870
  828MOL0     C11698   8.853   9.107  10.836 -0.3159  0.2242 -0.2778
  828MOL0     C11699   8.518   8.928  11.141 -0.0302  0.7847  0.1520
  828MOL0     C11700   8.468   9.056  11.164  0.1271  0.1746  0.3578
  828MOL0     C11701   8.366   9.079  11.264 -0.2880 -0.4443  0.9707
  828MOL0     C11702   8.313   8.974  11.336 -0.5898  0.1153  0.0561
  828MOL0     O11703   8.203   8.971  11.418 -0.1384 -0.4281  0.0248
  828MOL0     C11704   8.112   9.077  11.390 -0.3025  0.4902 -0.1878
  828MOL0     C11705   7.983   9.056  11.476 -0.4280 -0.4519 -0.4839
  828MOL0     C11706   8.035   9.044  11.620  0.5977  0.6218  0.4302
  828MOL0     C11707   7.923   9.073  11.729  0.6318 -0.7266  0.2501
  828MOL0     C11708   7.869   9.211  11.716 -0.2173 -0.4444  0.3461
  828MOL0     C11709   7.830   9.325  11.711 -0.1042 -0.0999  0.5690
  828MOL0     C11710   8.389   8.861  11.329  0.4094  0.3166 -0.3670
  828MOL0     C11711   8.485   8.829  11.237  0.2071 -0.3661 -0.1410
  828MOL0     C11712   8.570   8.703  11.257  0.2825  0.4092 -0.1987
  828MOL0     H11713   8.637   8.860  10.745  1.9534 -1.7506  1.5659
  828MOL0     H11714   8.762   8.877  10.543  2.6114  1.1480 -3.1874
  828MOL0     H11715   9.055   9.202  10.474 -0.0649 -0.3150  1.5695
  828MOL0     H11716   9.165   9.094  10.556  1.5528  0.7534 -1.6836
  828MOL0     H11717   9.228   8.974  10.363  0.2104  0.6229  1.7910
  828MOL0     H11718   9.224   9.140  10.307 -0.8559 -0.5924 -3.6982
  828MOL0     H11719   8.990   9.075  10.218 -0.1546 -0.2065  1.0086
  828MOL0     H11720   9.015   8.919  10.266 -0.8026  0.2983 -1.5147
  828MOL0     H11721   9.210   9.061  10.088 -1.0869  1.1657  0.1466
  828MOL0     H11722   9.215   8.889  10.147  0.5589  0.7000  0.4630
  828MOL0     H11723   8.992   8.862  10.035 -0.3963 -1.0264 -2.1221
  828MOL0     H11724   9.008   9.027   9.962  1.2930  1.6019 -0.7657
  828MOL0     H11725   9.193   8.953   9.837 -1.3257  1.1519 -0.1435
  828MOL0     H11726   9.195   8.798   9.920  1.6370  2.4908  0.0279
  828MOL0     H11727   9.060   8.802   9.686 -1.0464  0.1656 -0.4037
  828MOL0     H11728   8.948   8.904   9.768  0.9419  1.3292  0.2525
  828MOL0     H11729   9.028   8.636   9.887 -1.3098  0.8114  3.5167
  828MOL0     H11730   8.878   8.721   9.922  0.0391 -1.7062 -0.6168
  828MOL0     H11731   8.861   8.761   9.575  0.0267 -1.3559 -1.2940
  828MOL0     H11732   8.644   8.707   9.419  0.2183 -0.2180 -0.2606
  828MOL0     H11733   8.669   8.542   9.390 -1.4426 -0.1096 -0.4030
  828MOL0     H11734   8.471   8.482   9.549  0.6785 -1.4032 -1.3221
  828MOL0     H11735   8.452   8.661   9.576  2.5240  1.9093 -1.9387
  828MOL0     H11736   8.448   8.519   9.308  2.1069 -0.6604  1.6641
  828MOL0     H11737   8.384   8.689   9.352 -1.9154  0.0989  1.8590
  828MOL0     H11738   8.215   8.583   9.492 -1.4477  0.7885 -0.5438
  828MOL0     H11739   8.274   8.424   9.443 -0.0486  0.3919 -1.3347
  828MOL0     H11740   8.100   8.738   9.359 -0.4492  0.3881 -2.4767
  828MOL0     H11741   7.851   8.800   9.415  1.6083  0.6452  0.6355
  828MOL0     H11742   7.369   8.734   9.229  0.9987  1.3148 -0.1886
  828MOL0     H11743   7.147   8.811   9.293  0.9282 -2.2208 -0.9063
  828MOL0     H11744   6.924   8.875   9.574  2.4855 -2.9226 -2.8211
  828MOL0     H11745   7.067   8.790   9.623  3.3695  0.8467 -1.1702
  828MOL0     H11746   6.965   8.898   9.828  0.3770 -0.5791  0.7991
  828MOL0     H11747   7.116   8.977   9.789 -0.3131  1.5089  0.9441
  828MOL0     H11748   6.988   9.157   9.667  1.1624 -1.1935 -0.8068
  828MOL0     H11749   6.840   9.073   9.711  1.0477  0.9443 -3.3350
  828MOL0     H11750   7.040   9.153   9.935 -1.8084 -2.5218  0.4008
  828MOL0     H11751   6.869   9.150   9.952 -2.0847  2.9935 -1.1123
  828MOL0     H11752   6.853   9.363   9.810 -0.2608  1.6398  1.8757
  828MOL0     H11753   7.029   9.349   9.805 -1.3507  0.8040 -2.1181
  828MOL0     H11754   6.840   9.436  10.031 -1.4800 -0.7012 -0.7172
  828MOL0     H11755   6.999   9.351  10.071  2.0502  0.9548 -1.4260
  828MOL0     H11756   6.980   9.596   9.886  0.5988 -3.0059 -2.8374
  828MOL0     H11757   7.119   9.501   9.939  0.5044 -0.4075 -0.1497
  828MOL0     H11758   6.962   9.703  10.092  0.4817  0.2762  2.3719
  828MOL0     H11759   7.031   9.555  10.180  0.5067 -2.4896 -1.0099
  828MOL0     H11760   7.309   8.997   9.642  0.0785 -1.5164 -0.3635
  828MOL0     H11761   7.537   8.920   9.579 -0.7833 -1.7269  1.4456
  828MOL0     H11762   7.748   8.439   9.216  1.0172 -1.0754 -0.7171
  828MOL0     H11763   7.972   8.376   9.189  1.6296 -0.3574  1.5360
  828MOL0     H11764   9.006   9.183  10.697 -0.4178 -0.4578 -1.7749
  828MOL0     H11765   8.900   9.156  10.920  0.1405  0.3759 -0.6212
  828MOL0     H11766   8.515   9.140  11.114 -0.5233  1.3825  1.6820
  828MOL0     H11767   8.320   9.176  11.280 -1.5642 -1.2720  2.6251
  828MOL0     H11768   8.089   9.082  11.284 -1.6932 -1.2472 -0.0065
  828MOL0     H11769   8.155   9.171  11.427 -1.3321  0.0645  2.3251
  828MOL0     H11770   7.937   8.959  11.455 -1.0079 -0.1884 -0.4351
  828MOL0     H11771   7.919   9.144  11.471 -1.4293 -1.0692  0.8879
  828MOL0     H11772   8.109   9.124  11.636  0.7521  0.9391 -1.6196
  828MOL0     H11773   8.089   8.950  11.638  0.1828  0.1300 -0.8365
  828MOL0     H11774   7.843   9.002  11.707 -0.0602  0.1389 -0.0750
  828MOL0     H11775   7.961   9.069  11.832  0.0590 -0.9324  0.4540
  828MOL0     H11776   7.794   9.425  11.701  1.3524  0.3466 -0.4819
  828MOL0     H11777   8.356   8.793  11.407 -0.4447 -1.2159 -1.9876
  828MOL0     H11778   8.547   8.622  11.186 -4.8224  1.5290 -0.2334
  828MOL0     H11779   8.678   8.719  11.258  0.2333  1.0989  2.8387
  828MOL0     H11780   8.538   8.665  11.354 -1.1192  2.2708  0.1097
  829MOL0     O11781   7.765   5.244   8.526 -0.0466 -0.2284  0.6945
  829MOL0     C11782   7.811   5.190   8.629  0.0796  0.8294 -0.2139
  829MOL0     O11783   7.733   5.125   8.722  0.4202  0.1455 -0.2536
  829MOL0     C11784   7.602   5.120   8.698  0.8262 -0.1596 -1.3097
  829MOL0     C11785   7.511   5.216   8.747 -1.0207  0.6402  0.2384
  829MOL0     C11786   7.372   5.197   8.737 -0.5732 -0.7171  0.5530
  829MOL0     C11787   7.316   5.090   8.659  0.5999 -0.8324 -0.9627
  829MOL0     O11788   7.179   5.079   8.642 -0.4572 -0.1692  0.5763
  829MOL0     C11789   7.085   5.146   8.710 -0.6420  0.1622  0.3448
  829MOL0     C11790   6.944   5.086   8.692 -0.0043  0.5872  0.2282
  829MOL0     C11791   6.828   5.151   8.770  0.0053  0.0693  0.5688
  829MOL0     C11792   6.822   5.112   8.915 -0.7775  0.3478 -0.2624
  829MOL0     C11793   6.695   5.175   8.988  0.1402  0.1420 -0.5257
  829MOL0     C11794   6.562   5.111   8.935  0.5254  0.4248 -0.6873
  829MOL0     C11795   6.421   5.164   8.983  0.3427  0.1357  0.9597
  829MOL0     C11796   6.380   5.126   9.126 -0.2312 -0.2245 -0.0604
  829MOL0     N11797   6.267   5.039   9.119 -0.6719  0.4193  0.4256
  829MOL0     C11798   6.285   4.918   9.058 -0.0526  0.9100 -0.5723
  829MOL0     C11799   6.155   4.868   9.047 -0.7019 -0.1342 -0.5967
  829MOL0     C11800   6.120   4.749   8.971  0.0565 -0.6796  0.1190
  829MOL0     C11801   6.144   4.782   8.818  1.0851  0.1748  0.1358
  829MOL0     C11802   6.080   4.682   8.720  0.6014  0.3305  0.0475
  829MOL0     C11803   6.121   4.538   8.756 -0.0914  0.1600  0.7643
  829MOL0     O11804   6.062   4.442   8.656 -0.6172 -0.6417  0.3933
  829MOL0     C11805   6.156   4.372   8.582 -0.7138  0.3262  0.7370
  829MOL0     C11806   6.132   4.243   8.543 -0.4589 -1.0322  0.6936
  829MOL0     C11807   6.232   4.164   8.477  0.8653 -0.3960  0.4692
  829MOL0     C11808   6.350   4.229   8.433  0.0318  0.4521 -0.5677
  829MOL0     C11809   6.454   4.152   8.353  0.2576 -0.3163 -0.5227
  829MOL0     O11810   6.568   4.216   8.334  0.0704 -0.1419  0.4126
  829MOL0     C11811   6.671   4.184   8.236  0.0373 -0.1472 -1.4732
  829MOL0     C11812   6.661   4.110   8.112 -1.5775  0.2868 -0.3696
  829MOL0     C11813   6.768   4.098   8.019  0.3007  1.3177  0.0895
  829MOL0     C11814   6.886   4.164   8.035 -0.2333  0.2736  0.3549
  829MOL0     O11815   6.977   4.162   7.930  0.3735  0.3879 -0.2555
  829MOL0     C11816   7.109   4.227   7.957  0.5760  0.5716  0.7940
  829MOL0     C11817   7.195   4.158   8.060 -0.0690 -0.0178  0.2238
  829MOL0     C11818   7.338   4.222   8.069  0.6278  0.2268  0.8341
  829MOL0     C11819   7.331   4.365   8.106  0.5245 -0.3936 -0.2061
  829MOL0     C11820   7.465   4.429   8.117  0.4606  0.0790 -0.2382
  829MOL0     C11821   7.445   4.577   8.146  0.8034  0.5125  0.0765
  829MOL0     C11822   7.573   4.656   8.146 -0.5662 -0.2983  0.5263
  829MOL0     C11823   7.552   4.794   8.207  0.3816 -0.1051  0.7662
  829MOL0    Cl11824   7.493   4.762   8.374 -0.7210 -0.3731  0.1065
  829MOL0     C11825   6.908   4.233   8.157 -0.0573  0.4033 -0.2591
  829MOL0     C11826   6.791   4.253   8.250  0.0417 -1.0000 -0.1169
  829MOL0     O11827   6.428   4.044   8.304  0.4971  0.7508  0.0583
  829MOL0     C11828   6.367   4.366   8.470 -0.5656  0.1583 -0.1837
  829MOL0     C11829   6.271   4.432   8.538 -0.7367  0.5699 -0.6646
  829MOL0     N11830   6.069   4.947   9.107 -0.1524 -0.9361 -0.7308
  829MOL0     N11831   6.133   5.056   9.147 -1.0146 -0.3515  0.7749
  829MOL0     C11832   7.402   4.993   8.609  0.1003 -0.4639 -0.4067
  829MOL0     C11833   7.543   5.013   8.623 -0.1024  0.2297 -0.3196
  829MOL0     C11834   7.965   5.172   8.633  0.6129  0.0206  0.7182
  829MOL0     C11835   8.014   5.050   8.691  0.0173 -0.4200 -0.2645
  829MOL0     C11836   8.151   5.018   8.690 -0.0763  0.4108  0.3750
  829MOL0     C11837   8.249   5.107   8.650 -0.3714 -0.9954  0.0461
  829MOL0     O11838   8.380   5.077   8.660 -0.2563  0.7323 -0.2238
  829MOL0     C11839   8.434   5.000   8.552 -0.1411  1.0562  0.3845
  829MOL0     C11840   8.562   4.928   8.606 -0.1487 -0.2597  1.4073
  829MOL0     C11841   8.688   5.022   8.603  0.0917 -0.1312 -0.4475
  829MOL0     C11842   8.826   4.967   8.651  0.2038 -0.2302  0.5853
  829MOL0     C11843   8.809   4.901   8.778  0.8032  0.4856  0.0325
  829MOL0     C11844   8.788   4.828   8.875  0.5249 -0.4483  0.6107
  829MOL0     C11845   8.201   5.224   8.597 -0.3479 -0.4796  0.6159
  829MOL0     C11846   8.065   5.260   8.588 -0.0262 -0.4818  0.1918
  829MOL0     C11847   8.023   5.389   8.511  0.2441  0.2542 -0.3236
  829MOL0     H11848   7.541   5.302   8.807  0.4545 -0.0674  0.5604
  829MOL0     H11849   7.318   5.281   8.780 -1.4010 -0.7792 -0.3182
  829MOL0     H11850   7.114   5.156   8.815 -0.6428  2.2325  0.2004
  829MOL0     H11851   7.073   5.251   8.680 -1.8144  0.1095  0.6023
  829MOL0     H11852   6.945   4.981   8.720 -0.3344  0.8719  1.3872
  829MOL0     H11853   6.905   5.090   8.590 -1.2703 -0.4421  0.6524
  829MOL0     H11854   6.733   5.152   8.716  1.6859 -1.0168 -2.6605
  829MOL0     H11855   6.851   5.258   8.766 -0.6102  0.1809 -1.7290
  829MOL0     H11856   6.823   5.003   8.922  1.5896  0.4419  3.2368
  829MOL0     H11857   6.911   5.147   8.967  0.3555 -2.7229  0.0771
  829MOL0     H11858   6.717   5.169   9.095  2.7953  1.9310 -0.8566
  829MOL0     H11859   6.694   5.284   8.973 -1.6397  0.0310 -1.4730
  829MOL0     H11860   6.569   5.115   8.826 -0.1847  1.6163 -0.7060
  829MOL0     H11861   6.560   5.005   8.961 -1.5929 -0.4602 -3.8583
  829MOL0     H11862   6.342   5.129   8.916  2.6845 -2.4841 -0.6655
  829MOL0     H11863   6.432   5.272   8.972 -2.1120  0.3068 -0.7764
  829MOL0     H11864   6.461   5.076   9.180 -1.8542  0.7334  3.5482
  829MOL0     H11865   6.353   5.218   9.178 -0.3140 -0.3196  0.0655
  829MOL0     H11866   6.378   4.876   9.021  0.0271  0.4225  0.1421
  829MOL0     H11867   6.198   4.674   8.985  0.2946 -0.6252 -0.8553
  829MOL0     H11868   6.017   4.717   8.993 -0.6716  0.1269 -1.8404
  829MOL0     H11869   6.094   4.876   8.794  1.0593  0.2720  0.5618
  829MOL0     H11870   6.252   4.784   8.803  0.7326  0.3761 -3.0752
  829MOL0     H11871   6.093   4.706   8.614 -0.6596  1.3796  0.1089
  829MOL0     H11872   5.972   4.688   8.734  0.4264  1.7775 -1.5966
  829MOL0     H11873   6.073   4.506   8.849 -0.7707  1.1301  0.7635
  829MOL0     H11874   6.230   4.534   8.768 -0.1966  0.8885  2.0696
  829MOL0     H11875   6.035   4.196   8.559 -2.3161  0.4921 -4.2714
  829MOL0     H11876   6.204   4.068   8.436 -1.4550  0.8318 -1.0643
  829MOL0     H11877   6.564   4.066   8.088 -1.1978 -0.8682  0.1178
  829MOL0     H11878   6.749   4.026   7.940  0.7899  0.2098  0.9471
  829MOL0     H11879   7.168   4.231   7.865  0.5653 -4.0609  0.3541
  829MOL0     H11880   7.079   4.328   7.985 -2.5256 -0.1613  0.4993
  829MOL0     H11881   7.150   4.158   8.159 -4.9734  0.2530 -1.7434
  829MOL0     H11882   7.218   4.054   8.033  0.6532  0.4387 -0.9951
  829MOL0     H11883   7.403   4.165   8.136  0.4277 -2.0306 -0.8080
  829MOL0     H11884   7.383   4.218   7.970 -1.4793  3.1810 -0.4039
  829MOL0     H11885   7.279   4.380   8.201 -1.1346  1.4401 -1.3329
  829MOL0     H11886   7.271   4.422   8.035  0.6931  1.3213  0.9540
  829MOL0     H11887   7.518   4.415   8.023  0.3620  2.5021 -0.7121
  829MOL0     H11888   7.516   4.372   8.196  1.1722 -0.4440 -1.0461
  829MOL0     H11889   7.389   4.632   8.069  1.7301  0.0923 -0.9337
  829MOL0     H11890   7.383   4.589   8.235 -1.0580  1.5981 -1.2809
  829MOL0     H11891   7.626   4.671   8.051  1.5436  1.8651  1.9199
  829MOL0     H11892   7.643   4.605   8.213 -1.0973 -2.5952 -0.5538
  829MOL0     H11893   7.644   4.853   8.209  2.4304 -3.0966  2.0213
  829MOL0     H11894   7.480   4.844   8.142  1.7093 -0.2025 -0.8298
  829MOL0     H11895   6.993   4.299   8.171 -0.0284  1.6174 -4.5381
  829MOL0     H11896   6.823   4.309   8.338  1.8623  1.7221 -2.3380
  829MOL0     H11897   6.456   4.423   8.441 -1.2389  0.8900 -0.8608
  829MOL0     H11898   6.288   4.536   8.562  1.7052  0.0112  0.3720
  829MOL0     H11899   7.361   4.903   8.563 -0.9780 -0.8498  1.2446
  829MOL0     H11900   7.611   4.942   8.576  2.1119  2.4751 -0.7354
  829MOL0     H11901   7.949   4.973   8.729  2.0213 -2.2749 -0.3989
  829MOL0     H11902   8.177   4.924   8.737  1.7030  0.3359 -0.6408
  829MOL0     H11903   8.463   5.070   8.473  2.1814 -1.5357 -1.2420
  829MOL0     H11904   8.370   4.920   8.514  1.6814 -0.4265  0.3154
  829MOL0     H11905   8.583   4.842   8.541  2.6839  2.0806 -1.0834
  829MOL0     H11906   8.539   4.886   8.704  0.0218 -0.9399  1.1588
  829MOL0     H11907   8.679   5.104   8.675  1.1443  1.5091 -2.0767
  829MOL0     H11908   8.705   5.069   8.505  2.9776  0.5524  0.2904
  829MOL0     H11909   8.853   4.892   8.576 -0.4267  1.1018 -1.0440
  829MOL0     H11910   8.905   5.041   8.660 -0.9257  1.1126 -0.1780
  829MOL0     H11911   8.773   4.744   8.940 -3.6090 -0.8132 -0.5374
  829MOL0     H11912   8.279   5.297   8.580 -0.4432 -0.5185 -0.0285
  829MOL0     H11913   8.002   5.473   8.579 -2.0133 -0.1426 -0.4255
  829MOL0     H11914   8.105   5.419   8.445  0.5663  0.5801  0.2243
  829MOL0     H11915   7.942   5.363   8.441  0.3810  0.2355 -0.4745
  830MOL0     O11916   6.740   6.448   5.952 -0.2183 -0.4722 -0.0631
  830MOL0     C11917   6.649   6.389   6.005  0.6541 -0.2498  0.0312
  830MOL0     O11918   6.658   6.319   6.123 -0.6209 -0.1823  0.3757
  830MOL0     C11919   6.781   6.301   6.188  0.3615 -0.0039 -0.5977
  830MOL0     C11920   6.902   6.382   6.182 -1.2840  0.1889  0.9926
  830MOL0     C11921   7.017   6.350   6.261  0.1308  0.4982 -0.1707
  830MOL0     C11922   7.025   6.238   6.331 -0.0232  0.2729 -0.2125
  830MOL0     O11923   7.130   6.208   6.419 -0.7284 -0.2035  0.4935
  830MOL0     C11924   7.150   6.082   6.479  1.1933  0.2843  0.2585
  830MOL0     C11925   7.111   6.080   6.626 -0.3422  0.8074 -0.1005
  830MOL0     C11926   7.191   6.191   6.706  0.9072 -0.2347 -0.1482
  830MOL0     C11927   7.321   6.153   6.773 -0.1246  0.0844  0.4997
  830MOL0     C11928   7.355   6.261   6.878 -0.2284  0.2688  0.0853
  830MOL0     C11929   7.487   6.213   6.935  0.1158  0.9942  0.3226
  830MOL0     C11930   7.545   6.293   7.049 -0.3525 -0.2407 -1.2218
  830MOL0     C11931   7.685   6.240   7.085 -0.0904 -0.7620 -0.4187
  830MOL0     N11932   7.744   6.319   7.191  0.4249 -0.4627  0.0685
  830MOL0     C11933   7.872   6.357   7.191 -0.8864  0.2187 -0.1333
  830MOL0     C11934   7.899   6.409   7.314 -0.7316  0.1598  0.2023
  830MOL0     C11935   8.035   6.469   7.353  0.4971  0.1691 -0.5907
  830MOL0     C11936   8.116   6.367   7.440  0.1884  0.3515  0.3229
  830MOL0     C11937   8.191   6.425   7.565 -0.4043  0.2616 -0.0905
  830MOL0     C11938   8.310   6.515   7.518 -0.3656 -0.4027  0.7745
  830MOL0     O11939   8.384   6.547   7.635  0.1971 -0.3722 -0.3405
  830MOL0     C11940   8.470   6.457   7.692 -0.6781  0.2418  0.1005
  830MOL0     C11941   8.558   6.374   7.615  0.8446 -0.3535 -0.5859
  830MOL0     C11942   8.646   6.291   7.674 -1.0078  1.1386 -0.1466
  830MOL0     C11943   8.668   6.287   7.813  0.0888 -0.2860  0.2423
  830MOL0     C11944   8.772   6.199   7.878  0.4870  0.0851  0.0316
  830MOL0     O11945   8.785   6.211   8.014 -0.4346 -0.1079  0.9877
  830MOL0     C11946   8.890   6.142   8.072  0.1320 -0.2486  0.2298
  830MOL0     C11947   8.867   6.067   8.188 -0.6259  0.4196  0.8814
  830MOL0     C11948   8.966   5.981   8.235  0.8180  0.4158  0.0449
  830MOL0     C11949   9.099   5.998   8.197  0.3930 -0.2921 -0.7249
  830MOL0     O11950   9.211   5.929   8.243 -0.6214 -0.2267 -0.5498
  830MOL0     C11951   9.202   5.842   8.358  0.1015  0.2769 -0.2026
  830MOL0     C11952   9.325   5.754   8.381  0.2323  0.4934  0.5117
  830MOL0     C11953   9.442   5.839   8.401 -0.1500 -0.0556 -1.1468
  830MOL0     C11954   9.560   5.771   8.463  0.5364 -0.6148 -0.6388
  830MOL0     C11955   9.686   5.860   8.494  0.4713 -0.3886 -0.0744
  830MOL0     C11956   9.805   5.792   8.577 -0.2874  1.0752  0.2155
  830MOL0     C11957   9.898   5.900   8.623  0.0366  0.6314 -1.3195
  830MOL0     C11958  10.016   5.831   8.691 -0.3860  0.2685 -0.8025
  830MOL0    Cl11959   9.960   5.745   8.843  0.1071  0.6808 -0.1590
  830MOL0     C11960   9.126   6.097   8.096 -0.3132 -0.4855 -0.4469
  830MOL0     C11961   9.018   6.162   8.035 -0.0516  0.9846 -0.5561
  830MOL0     O11962   8.814   6.103   7.806 -0.0590 -0.0696 -0.4394
  830MOL0     C11963   8.590   6.376   7.893 -1.1587 -0.0698 -0.2829
  830MOL0     C11964   8.486   6.456   7.835  0.2654  0.6373  0.2740
  830MOL0     N11965   7.782   6.405   7.388 -0.0322  0.3189 -0.4337
  830MOL0     N11966   7.693   6.346   7.315 -0.4351 -0.6229  0.3806
  830MOL0     C11967   6.913   6.151   6.332 -0.3983  0.8265 -0.0289
  830MOL0     C11968   6.798   6.181   6.255 -0.4502  0.2385 -0.8236
  830MOL0     C11969   6.520   6.384   5.927 -0.9587 -0.9334  0.5536
  830MOL0     C11970   6.413   6.304   5.965 -0.5935  0.4279  0.1663
  830MOL0     C11971   6.287   6.316   5.909 -0.2127 -0.1196  0.3039
  830MOL0     C11972   6.263   6.398   5.795  0.0144 -0.4379 -0.3541
  830MOL0     O11973   6.151   6.416   5.721  0.5626  0.1662 -0.3742
  830MOL0     C11974   6.023   6.361   5.755 -0.0407  0.0850 -0.0402
  830MOL0     C11975   5.930   6.404   5.644 -0.1856  0.1177  1.0562
  830MOL0     C11976   5.790   6.352   5.657  0.9041 -0.3914 -1.2784
  830MOL0     C11977   5.683   6.430   5.579  0.6375 -0.0245 -1.2253
  830MOL0     C11978   5.544   6.378   5.604 -0.3414  0.0142  1.3282
  830MOL0     C11979   5.432   6.333   5.632 -0.4383 -0.0904 -0.1579
  830MOL0     C11980   6.366   6.482   5.759  0.3756 -0.6786 -0.2253
  830MOL0     C11981   6.487   6.475   5.815 -0.0040  0.5991  0.2761
  830MOL0     C11982   6.574   6.583   5.749 -0.0650  0.7145  0.1898
  830MOL0     H11983   6.904   6.473   6.124  2.3570 -0.0091  0.6103
  830MOL0     H11984   7.106   6.409   6.279 -0.5051  1.3602  0.2077
  830MOL0     H11985   7.096   5.999   6.433  0.4998 -1.1432  3.4057
  830MOL0     H11986   7.256   6.061   6.465  0.7771 -0.2826 -2.9012
  830MOL0     H11987   7.130   5.981   6.668 -1.0455 -0.2251 -2.1202
  830MOL0     H11988   7.004   6.102   6.635 -0.4563 -0.4690  4.1317
  830MOL0     H11989   7.122   6.218   6.786 -0.1593  1.4227 -1.5637
  830MOL0     H11990   7.200   6.286   6.652 -1.6548  0.9797  1.3981
  830MOL0     H11991   7.307   6.057   6.823 -0.6429  1.4110  3.0877
  830MOL0     H11992   7.392   6.146   6.690 -0.2010 -2.4825  0.5865
  830MOL0     H11993   7.355   6.359   6.829  1.8674  0.0597 -0.4303
  830MOL0     H11994   7.283   6.271   6.959 -0.6440  0.5230 -0.3068
  830MOL0     H11995   7.485   6.109   6.970 -0.3236  0.9759  0.2402
  830MOL0     H11996   7.560   6.209   6.854 -2.5058  0.1350 -2.1105
  830MOL0     H11997   7.478   6.290   7.135 -0.3452  0.0365 -1.2056
  830MOL0     H11998   7.549   6.400   7.027 -1.9710 -0.0210 -0.5580
  830MOL0     H11999   7.683   6.135   7.117  1.8299 -0.8466 -0.4456
  830MOL0     H12000   7.744   6.241   6.993  0.8278  2.5035  0.0898
  830MOL0     H12001   7.932   6.354   7.100  2.2545 -0.2672  1.8086
  830MOL0     H12002   8.087   6.492   7.260  1.8665  0.6061  0.2511
  830MOL0     H12003   8.015   6.566   7.399 -1.3278 -0.1384 -0.6889
  830MOL0     H12004   8.050   6.292   7.486  0.1814  0.4041  0.3999
  830MOL0     H12005   8.191   6.313   7.382 -0.3539 -0.4829  0.3781
  830MOL0     H12006   8.216   6.345   7.634  0.2831  0.4545 -0.1037
  830MOL0     H12007   8.113   6.478   7.620 -0.6282 -0.0610 -0.1001
  830MOL0     H12008   8.265   6.604   7.472  1.8291  2.2388  3.3185
  830MOL0     H12009   8.372   6.466   7.442  2.6906  3.6113  0.3291
  830MOL0     H12010   8.547   6.380   7.508 -1.0622  0.4106 -0.3881
  830MOL0     H12011   8.703   6.227   7.607 -1.6715  2.9809 -2.6118
  830MOL0     H12012   8.765   6.038   8.211 -0.6583 -1.0390 -0.8755
  830MOL0     H12013   8.928   5.914   8.311  3.4586 -0.4654  0.6985
  830MOL0     H12014   9.171   5.888   8.452  0.3315 -0.5814  0.3042
  830MOL0     H12015   9.117   5.779   8.330 -0.6188  1.5338 -0.9102
  830MOL0     H12016   9.302   5.689   8.465 -1.0101  0.4488  0.1604
  830MOL0     H12017   9.333   5.694   8.290 -6.0980  0.6061 -0.6145
  830MOL0     H12018   9.453   5.889   8.304 -2.6025  1.3613 -0.7737
  830MOL0     H12019   9.413   5.922   8.466  3.4706  1.3612 -1.0995
  830MOL0     H12020   9.599   5.692   8.398  1.7977  0.7707 -1.6407
  830MOL0     H12021   9.530   5.732   8.560 -0.4484  2.4372  0.4152
  830MOL0     H12022   9.650   5.942   8.557  1.1385 -1.3519  1.6476
  830MOL0     H12023   9.723   5.896   8.398  2.4565 -0.7929  0.4834
  830MOL0     H12024   9.761   5.743   8.664  1.2160  0.7363  0.8104
  830MOL0     H12025   9.850   5.710   8.521 -1.8167 -1.8501  2.9580
  830MOL0     H12026   9.850   5.968   8.693 -1.0168 -0.8795 -0.5041
  830MOL0     H12027   9.936   5.967   8.545 -0.5673 -0.1524 -2.3182
  830MOL0     H12028  10.061   5.750   8.633  1.8705  1.9824 -1.6290
  830MOL0     H12029  10.089   5.904   8.728  1.0093 -1.6360  0.3856
  830MOL0     H12030   9.223   6.118   8.053 -0.2219 -0.9196 -0.4654
  830MOL0     H12031   9.024   6.206   7.936 -0.0734  1.4488 -0.3531
  830MOL0     H12032   8.611   6.392   7.998 -0.5928  0.9110 -0.5379
  830MOL0     H12033   8.423   6.513   7.903  1.2470  0.0632  1.7236
  830MOL0     H12034   6.908   6.050   6.369 -0.8980  0.4009 -1.2006
  830MOL0     H12035   6.710   6.118   6.256 -0.0310 -0.3561 -0.0249
  830MOL0     H12036   6.432   6.231   6.043 -1.3664 -1.1461 -1.0502
  830MOL0     H12037   6.201   6.265   5.953 -0.3550  2.0620  2.8221
  830MOL0     H12038   5.988   6.395   5.853 -0.1688 -4.8017  1.9069
  830MOL0     H12039   6.034   6.254   5.774  0.9309  0.1419 -0.1953
  830MOL0     H12040   5.974   6.382   5.546 -2.8212 -1.9776  0.2085
  830MOL0     H12041   5.920   6.512   5.656 -1.8333 -0.1329  2.4147
  830MOL0     H12042   5.767   6.356   5.764  1.8860  2.6073 -1.0799
  830MOL0     H12043   5.786   6.246   5.631 -0.0724 -0.3572 -1.2871
  830MOL0     H12044   5.686   6.536   5.604 -2.3126 -0.4304  1.4586
  830MOL0     H12045   5.706   6.424   5.472  0.0132  1.4751 -1.4636
  830MOL0     H12046   5.340   6.285   5.660  0.2041 -1.7062 -0.7286
  830MOL0     H12047   6.350   6.550   5.677 -1.0570  1.4973  1.7387
  830MOL0     H12048   6.680   6.561   5.763  0.3741  1.6139 -1.4124
  830MOL0     H12049   6.558   6.598   5.642 -2.9322  2.1402  0.7191
  830MOL0     H12050   6.557   6.684   5.787  1.7603  1.5726 -1.1135
  831MOL0     O12051   1.445   7.925   9.663 -0.0148 -0.6438  0.2186
  831MOL0     C12052   1.421   7.899   9.545 -0.0417  0.3214 -0.7467
  831MOL0     O12053   1.505   7.824   9.465  0.2788  0.2852  0.1775
  831MOL0     C12054   1.637   7.803   9.488 -0.6556  0.3821 -0.4522
  831MOL0     C12055   1.719   7.744   9.383  0.7279 -0.5938  0.0970
  831MOL0     C12056   1.856   7.701   9.412  0.0934 -0.1483 -0.7589
  831MOL0     C12057   1.909   7.726   9.533  0.4727 -0.0216 -0.8026
  831MOL0     O12058   2.049   7.705   9.562 -0.0720  0.3596  0.0466
  831MOL0     C12059   2.123   7.637   9.453  0.3221 -1.0989  0.3794
  831MOL0     C12060   2.260   7.618   9.522 -0.4764  0.2101  0.1449
  831MOL0     C12061   2.350   7.738   9.524  0.3700 -0.1840  0.1733
  831MOL0     C12062   2.481   7.696   9.596 -0.2582 -0.3148 -0.3929
  831MOL0     C12063   2.605   7.781   9.575 -0.2950 -0.9085 -0.8389
  831MOL0     C12064   2.590   7.897   9.680 -0.7905 -0.0900 -0.2238
  831MOL0     C12065   2.687   8.009   9.668 -0.4071 -0.0874  0.9466
  831MOL0     C12066   2.689   8.093   9.537 -0.8689 -0.0988 -0.4042
  831MOL0     N12067   2.736   8.017   9.420 -0.3567  0.3069 -0.7192
  831MOL0     C12068   2.860   7.958   9.392  0.4508  0.0825 -0.3669
  831MOL0     C12069   2.853   7.919   9.267 -0.0015  0.1135  0.1828
  831MOL0     C12070   2.971   7.888   9.179  0.1026 -0.7899 -0.1838
  831MOL0     C12071   3.071   8.004   9.131 -0.1766  0.2320  0.3883
  831MOL0     C12072   2.998   8.099   9.026  0.2092 -0.5329  1.0587
  831MOL0     C12073   3.090   8.225   9.013  0.1028 -0.6474 -0.1717
  831MOL0     O12074   3.198   8.180   8.937  0.5039  0.3574 -0.3031
  831MOL0     C12075   3.319   8.215   9.001  0.2251  0.2989  0.1766
  831MOL0     C12076   3.360   8.228   9.132  0.5248  0.5686 -1.2660
  831MOL0     C12077   3.486   8.271   9.179 -0.0315 -0.6621  0.2131
  831MOL0     C12078   3.581   8.300   9.080  0.3478 -0.2154 -0.0479
  831MOL0     C12079   3.719   8.323   9.125 -0.0498 -0.7973  0.3141
  831MOL0     O12080   3.733   8.360   9.255  0.5382 -0.5933 -0.0723
  831MOL0     C12081   3.853   8.397   9.301  0.3089 -0.4562 -0.0068
  831MOL0     C12082   3.832   8.491   9.396 -0.0742  0.0992  0.6021
  831MOL0     C12083   3.941   8.546   9.458  0.9560  0.1297 -0.1333
  831MOL0     C12084   4.073   8.518   9.421 -0.7579 -0.0928  0.7779
  831MOL0     O12085   4.184   8.566   9.489  0.3482  0.3402 -0.1667
  831MOL0     C12086   4.187   8.686   9.564  0.3271 -0.2095 -1.0821
  831MOL0     C12087   4.328   8.724   9.614 -0.1461 -0.4067  0.7629
  831MOL0     C12088   4.417   8.730   9.494 -0.4123 -1.1860  0.6635
  831MOL0     C12089   4.550   8.793   9.513  0.4268  0.3661  1.3262
  831MOL0     C12090   4.547   8.938   9.545  0.1162 -0.8900  0.2073
  831MOL0     C12091   4.666   9.024   9.486 -0.8114 -0.6409  0.4904
  831MOL0     C12092   4.671   9.028   9.331  0.0344  0.4463  0.0696
  831MOL0     C12093   4.752   9.147   9.284  0.4522  1.1155 -1.1387
  831MOL0    Cl12094   4.908   9.161   9.371 -0.4693  0.0270  0.0189
  831MOL0     C12095   4.094   8.421   9.328  0.0386  0.4046 -0.8102
  831MOL0     C12096   3.982   8.356   9.263  0.6015  0.1071  0.5408
  831MOL0     O12097   3.803   8.322   9.036 -0.3206 -0.7649  0.4224
  831MOL0     C12098   3.548   8.280   8.943 -0.5584 -0.2236 -0.1470
  831MOL0     C12099   3.417   8.232   8.907 -1.2841  0.5176  0.0158
  831MOL0     N12100   2.730   7.956   9.210  0.9279 -0.0941  0.0302
  831MOL0     N12101   2.655   8.004   9.303 -0.2312 -0.4403 -0.7441
  831MOL0     C12102   1.826   7.749   9.640 -0.0428  0.6720  0.0805
  831MOL0     C12103   1.695   7.793   9.616 -0.1494  0.4428  0.3887
  831MOL0     C12104   1.291   7.927   9.484  0.2809 -0.3584  0.1086
  831MOL0     C12105   1.299   7.949   9.344  0.8423  0.4112 -0.8760
  831MOL0     C12106   1.183   7.989   9.272  0.3692 -0.3343 -0.1736
  831MOL0     C12107   1.056   7.977   9.330 -0.1483  0.2604 -0.1031
  831MOL0     O12108   0.944   8.009   9.248 -0.5961 -0.6006  0.2158
  831MOL0     C12109   0.814   7.963   9.287  0.5021 -0.1707 -0.5282
  831MOL0     C12110   0.722   8.011   9.181 -0.2556  0.7122 -0.4203
  831MOL0     C12111   0.576   7.960   9.212  0.1023 -1.2021  0.1612
  831MOL0     C12112   0.505   8.040   9.318  0.7453  0.2296  0.1609
  831MOL0     C12113   0.362   8.001   9.328  0.0332  0.2537  0.3480
  831MOL0     C12114   0.247   7.982   9.370 -0.9139 -0.5832 -1.2177
  831MOL0     C12115   1.048   7.944   9.464  0.8956  0.0284 -0.1419
  831MOL0     C12116   1.163   7.922   9.547  0.1299 -0.3972  0.8769
  831MOL0     C12117   1.151   7.894   9.692 -0.5095  0.1212  1.0941
  831MOL0     H12118   1.684   7.732   9.281  0.9034  1.0323 -0.1670
  831MOL0     H12119   1.911   7.670   9.324  2.2290 -0.6702  0.6738
  831MOL0     H12120   2.083   7.536   9.438  0.8107 -1.3996  1.0270
  831MOL0     H12121   2.140   7.702   9.367 -1.5080  1.7657  2.0019
  831MOL0     H12122   2.310   7.537   9.469  2.5103  0.8435  1.7940
  831MOL0     H12123   2.243   7.573   9.620 -3.6620 -0.5275 -0.6064
  831MOL0     H12124   2.307   7.821   9.581 -0.1607  0.3801 -1.0160
  831MOL0     H12125   2.373   7.768   9.422 -1.3834 -0.2950 -0.2804
  831MOL0     H12126   2.458   7.682   9.702 -3.1104 -1.1543 -1.0214
  831MOL0     H12127   2.509   7.595   9.566  1.7453 -0.0214  0.3028
  831MOL0     H12128   2.696   7.723   9.593  2.8851  4.1434  1.5652
  831MOL0     H12129   2.612   7.807   9.469  0.0279  0.0676 -0.5827
  831MOL0     H12130   2.490   7.940   9.695 -0.7646 -0.2024  0.2793
  831MOL0     H12131   2.617   7.846   9.773  0.8389 -0.3189 -0.7922
  831MOL0     H12132   2.789   7.971   9.676 -1.1284 -2.0319  1.3036
  831MOL0     H12133   2.670   8.078   9.751 -1.6934  1.7067 -0.7117
  831MOL0     H12134   2.586   8.120   9.513 -0.6704  0.6410 -0.4793
  831MOL0     H12135   2.753   8.179   9.559 -0.0339 -0.5546 -1.0164
  831MOL0     H12136   2.953   7.960   9.448 -0.0748 -2.3858  0.7283
  831MOL0     H12137   3.018   7.807   9.235 -0.2992 -0.4541  0.6445
  831MOL0     H12138   2.927   7.858   9.084 -2.7778  0.7207  0.5686
  831MOL0     H12139   3.099   8.055   9.224 -1.3432  1.0530  0.3023
  831MOL0     H12140   3.163   7.955   9.095  0.5568  0.2223  2.1681
  831MOL0     H12141   2.905   8.134   9.071 -0.4661  1.9660 -1.9478
  831MOL0     H12142   2.985   8.048   8.930  4.1563 -2.9409  1.5585
  831MOL0     H12143   3.114   8.272   9.109  0.9011  2.0941 -1.6032
  831MOL0     H12144   3.043   8.303   8.952  2.8265 -0.0436 -1.6599
  831MOL0     H12145   3.289   8.196   9.207  1.1464 -0.5913 -1.1391
  831MOL0     H12146   3.503   8.296   9.283  2.4942  1.4111 -0.5729
  831MOL0     H12147   3.733   8.509   9.436 -0.1657 -0.3481  0.5795
  831MOL0     H12148   3.916   8.611   9.541  2.3594 -1.0098  1.2439
  831MOL0     H12149   4.132   8.768   9.515  2.5629  1.2446 -1.3039
  831MOL0     H12150   4.128   8.660   9.653  1.6322  2.8568  0.8400
  831MOL0     H12151   4.312   8.824   9.655 -2.9152  1.7629 -4.5800
  831MOL0     H12152   4.368   8.651   9.684  0.7397 -1.9375 -1.2529
  831MOL0     H12153   4.435   8.631   9.450 -1.9922 -0.3745 -2.0561
  831MOL0     H12154   4.372   8.797   9.420 -0.0282 -2.8292 -1.1647
  831MOL0     H12155   4.606   8.785   9.420 -1.6225  2.3537 -0.1813
  831MOL0     H12156   4.613   8.736   9.582  3.8273  0.2982 -1.5557
  831MOL0     H12157   4.564   8.939   9.653  1.4257 -0.3467  0.0065
  831MOL0     H12158   4.455   8.993   9.523  1.9677  1.6123 -1.8885
  831MOL0     H12159   4.659   9.126   9.525  2.5174 -0.8781  2.0704
  831MOL0     H12160   4.758   8.978   9.522 -1.6574 -1.8697  1.1555
  831MOL0     H12161   4.568   9.040   9.299 -0.0701  1.2791  0.6762
  831MOL0     H12162   4.710   8.935   9.289  1.9861  1.3509 -0.2432
  831MOL0     H12163   4.762   9.152   9.175 -0.3374 -1.8889 -1.4210
  831MOL0     H12164   4.698   9.234   9.323 -0.1747  0.2536 -0.0147
  831MOL0     H12165   4.190   8.377   9.300 -0.1044 -0.1993 -0.3737
  831MOL0     H12166   3.995   8.271   9.197 -0.5451  0.9507 -0.8300
  831MOL0     H12167   3.626   8.292   8.869  0.0500  2.3929  0.8276
  831MOL0     H12168   3.388   8.212   8.804  1.7015 -0.9471 -0.6426
  831MOL0     H12169   1.862   7.757   9.742  0.7812 -5.4472  0.6521
  831MOL0     H12170   1.637   7.825   9.703 -2.9317  1.1830 -1.6005
  831MOL0     H12171   1.386   7.944   9.280 -1.2247 -1.4304 -3.7608
  831MOL0     H12172   1.189   8.020   9.168  0.4744  0.0175 -0.0623
  831MOL0     H12173   0.783   8.005   9.383 -0.7227 -0.8195 -0.6090
  831MOL0     H12174   0.805   7.854   9.299  0.1175  0.0428  1.3132
  831MOL0     H12175   0.750   7.951   9.094  0.2723 -1.6078  1.2475
  831MOL0     H12176   0.738   8.119   9.180  2.5222  0.3737 -0.1431
  831MOL0     H12177   0.561   7.853   9.228 -0.0246 -1.0001  1.5475
  831MOL0     H12178   0.526   7.980   9.117  1.8095 -2.3492 -1.0165
  831MOL0     H12179   0.564   8.020   9.407  0.8161 -2.2970 -0.3734
  831MOL0     H12180   0.506   8.147   9.296 -1.9112  0.6107  1.4940
  831MOL0     H12181   0.148   7.968   9.410 -0.0153 -1.5175  0.8188
  831MOL0     H12182   0.949   7.924   9.504  0.0741 -1.5109 -2.7422
  831MOL0     H12183   1.221   7.950   9.755 -0.5244  1.0827  0.2659
  831MOL0     H12184   1.053   7.924   9.730 -1.2248 -1.5663  0.6881
  831MOL0     H12185   1.173   7.787   9.697  1.6222  0.3436 -1.5550
  832MOL0     O12186   6.006   6.410  11.066  0.1559 -0.2993  0.3233
  832MOL0     C12187   5.957   6.465  11.159  0.0396 -0.1575  0.3911
  832MOL0     O12188   6.017   6.490  11.284  0.0371 -0.0085  1.2186
  832MOL0     C12189   6.149   6.454  11.315  0.3951 -0.4601  0.3052
  832MOL0     C12190   6.195   6.327  11.284  0.4421 -0.3831  1.1651
  832MOL0     C12191   6.330   6.304  11.296  0.1966 -0.5173 -0.6631
  832MOL0     C12192   6.416   6.398  11.357  0.8269  0.0361  0.0178
  832MOL0     O12193   6.545   6.375  11.383 -0.7950  0.5616  0.9399
  832MOL0     C12194   6.591   6.250  11.448  1.1562 -0.7080  0.9656
  832MOL0     C12195   6.706   6.190  11.369 -0.0743 -0.7859  0.4711
  832MOL0     C12196   6.842   6.264  11.398 -0.2469  0.3248 -1.0364
  832MOL0     C12197   6.920   6.204  11.528 -0.0133 -0.1823  0.9110
  832MOL0     C12198   7.073   6.243  11.539 -0.9383  0.0479  0.8403
  832MOL0     C12199   7.145   6.174  11.658  0.6683 -0.6967 -0.0409
  832MOL0     C12200   7.228   6.283  11.738 -0.1765 -0.2849 -0.4391
  832MOL0     C12201   7.312   6.221  11.851  0.7135  0.3379 -1.0527
  832MOL0     N12202   7.422   6.138  11.798  0.9115 -0.4429 -1.0476
  832MOL0     C12203   7.527   6.191  11.729 -0.2465 -0.1756  0.3438
  832MOL0     C12204   7.582   6.081  11.680 -0.1306  0.4896  0.8806
  832MOL0     C12205   7.692   6.078  11.582 -1.3565  0.6543  0.2356
  832MOL0     C12206   7.801   5.976  11.622 -0.4008  0.0647 -1.0703
  832MOL0     C12207   7.782   5.843  11.547  0.4440 -0.0661  0.0372
  832MOL0     C12208   7.884   5.741  11.577 -0.1065 -0.2817  0.0068
  832MOL0     O12209   8.004   5.763  11.506  0.6693  0.1427  0.2488
  832MOL0     C12210   8.114   5.794  11.572 -0.3733 -0.1966 -0.2140
  832MOL0     C12211   8.224   5.744  11.505 -0.0628 -0.4306 -0.0085
  832MOL0     C12212   8.351   5.756  11.555 -0.3951  0.0958 -0.2090
  832MOL0     C12213   8.378   5.820  11.677 -0.1706  0.7490  0.4807
  832MOL0     C12214   8.507   5.822  11.734 -0.9821 -0.7843  0.3679
  832MOL0     O12215   8.527   5.894  11.848  0.2370  0.8047  0.0578
  832MOL0     C12216   8.651   5.918  11.899  0.2411 -0.2596  0.3663
  832MOL0     C12217   8.763   5.981  11.833  0.2747  0.2022  0.1791
  832MOL0     C12218   8.898   5.971  11.892  0.0821 -0.0393 -0.1665
  832MOL0     C12219   8.908   5.918  12.021 -0.7309 -0.3978 -0.6900
  832MOL0     O12220   9.037   5.903  12.091 -0.5463  0.2264 -0.1451
  832MOL0     C12221   9.078   6.011  12.178  0.4167 -0.5879 -0.9538
  832MOL0     C12222   9.215   5.988  12.236 -0.5583  0.9943 -0.9396
  832MOL0     C12223   9.219   5.897  12.358 -0.1178  0.3258  0.0152
  832MOL0     C12224   9.359   5.852  12.391  0.3802 -0.4386 -0.4155
  832MOL0     C12225   9.379   5.824  12.533 -0.6587  0.0318 -1.0606
  832MOL0     C12226   9.357   5.949  12.615 -0.0162 -0.6182 -0.5555
  832MOL0     C12227   9.396   5.932  12.762  0.1201 -0.7227 -0.1874
  832MOL0     C12228   9.351   6.054  12.849  0.5755 -0.5384  0.2652
  832MOL0    Cl12229   9.187   6.052  12.890 -0.4022  0.2479  0.1560
  832MOL0     C12230   8.798   5.859  12.082  0.4112  0.6181 -0.1739
  832MOL0     C12231   8.675   5.859  12.019 -0.7496 -0.3048  0.6346
  832MOL0     O12232   8.590   5.750  11.675 -0.7313  0.0827  0.2874
  832MOL0     C12233   8.264   5.861  11.743 -0.2077  0.3318 -0.2354
  832MOL0     C12234   8.138   5.850  11.693  0.6994 -0.4110 -0.1983
  832MOL0     N12235   7.518   5.962  11.713 -0.1722 -0.7378  0.2526
  832MOL0     N12236   7.424   6.003  11.793 -0.7760 -0.3410  0.1433
  832MOL0     C12237   6.367   6.520  11.390  0.9621 -0.0292  0.2719
  832MOL0     C12238   6.233   6.551  11.370  0.4652  0.4888  0.3681
  832MOL0     C12239   5.806   6.501  11.140 -0.4330 -0.4323  0.8136
  832MOL0     C12240   5.740   6.538  11.258 -0.6026 -1.1114  0.0780
  832MOL0     C12241   5.609   6.590  11.246  0.3658  0.1666  0.1375
  832MOL0     C12242   5.546   6.609  11.124  0.2882 -0.3759 -0.9304
  832MOL0     O12243   5.421   6.658  11.133  0.1369 -0.2966 -0.6880
  832MOL0     C12244   5.324   6.591  11.053  0.2613  0.0851 -0.7528
  832MOL0     C12245   5.191   6.664  11.061  0.7540  0.6846 -0.4400
  832MOL0     C12246   5.121   6.647  11.188 -0.6196 -0.1225 -0.5334
  832MOL0     C12247   4.984   6.575  11.181 -0.0486 -0.5795  0.5996
  832MOL0     C12248   4.906   6.581  11.306 -0.0227  0.0352 -0.0015
  832MOL0     C12249   4.855   6.585  11.414  0.1542 -0.4894 -0.7066
  832MOL0     C12250   5.627   6.596  11.014  0.5749  0.0513  0.1002
  832MOL0     C12251   5.750   6.541  11.016 -0.1978 -0.0328  0.1856
  832MOL0     C12252   5.819   6.516  10.884 -0.3854 -0.0897 -0.2923
  832MOL0     H12253   6.128   6.261  11.229  0.7612 -0.8695  1.3499
  832MOL0     H12254   6.387   6.223  11.251  2.0433  2.4036 -4.1732
  832MOL0     H12255   6.625   6.251  11.552  0.4420  0.3445  1.2011
  832MOL0     H12256   6.504   6.185  11.458  1.2598 -0.8265  1.0942
  832MOL0     H12257   6.684   6.215  11.265  3.4717  1.3096  0.0527
  832MOL0     H12258   6.727   6.084  11.382 -0.1735 -0.7964  0.5590
  832MOL0     H12259   6.814   6.368  11.417  1.2474  0.5556  0.1348
  832MOL0     H12260   6.902   6.275  11.307  1.5188  0.9733  0.1517
  832MOL0     H12261   6.869   6.232  11.620 -0.4419  1.8365  0.1211
  832MOL0     H12262   6.917   6.095  11.523  0.8513 -0.1586 -1.0099
  832MOL0     H12263   7.138   6.216  11.455  0.3920  2.0792  1.1476
  832MOL0     H12264   7.080   6.352  11.545 -0.0787  0.0703 -0.1103
  832MOL0     H12265   7.089   6.127  11.739  2.0527  2.8373  3.2748
  832MOL0     H12266   7.205   6.096  11.611 -2.1098 -3.4698  0.6904
  832MOL0     H12267   7.163   6.365  11.771  0.6584 -0.2078  1.1092
  832MOL0     H12268   7.297   6.333  11.670  1.8228  2.0395  3.0251
  832MOL0     H12269   7.368   6.296  11.909  0.8984 -0.3868 -0.2742
  832MOL0     H12270   7.237   6.170  11.911 -0.5334  2.6713 -0.5134
  832MOL0     H12271   7.561   6.294  11.734  0.3158 -0.3886  1.1625
  832MOL0     H12272   7.660   6.082  11.477  0.3216  2.3231 -0.2718
  832MOL0     H12273   7.733   6.178  11.598 -0.7580  0.7400 -1.5126
  832MOL0     H12274   7.899   6.020  11.599  1.1193 -2.1813  0.5770
  832MOL0     H12275   7.801   5.978  11.732  2.7021  0.3270 -0.9684
  832MOL0     H12276   7.790   5.852  11.438 -1.7090 -0.5273 -0.2026
  832MOL0     H12277   7.682   5.811  11.576  0.2918  1.9202  1.9822
  832MOL0     H12278   7.862   5.642  11.535  5.0234 -1.6926 -0.0066
  832MOL0     H12279   7.905   5.720  11.682 -0.9949 -1.1098  0.0389
  832MOL0     H12280   8.208   5.672  11.425 -0.2808 -1.4006  0.8866
  832MOL0     H12281   8.428   5.705  11.497  1.1944 -1.0675  2.7017
  832MOL0     H12282   8.761   6.030  11.736 -0.6848  1.4277  0.7962
  832MOL0     H12283   8.990   6.009  11.849  1.4859 -1.3032  1.5505
  832MOL0     H12284   9.081   6.110  12.131 -1.6658  0.1557  0.3373
  832MOL0     H12285   9.003   6.031  12.255 -0.1972 -0.5260 -1.5684
  832MOL0     H12286   9.275   5.936  12.160 -2.5785 -1.6697 -0.8186
  832MOL0     H12287   9.267   6.083  12.253 -0.7604  1.0625 -0.7095
  832MOL0     H12288   9.165   5.948  12.439 -0.6651 -0.5329  0.2098
  832MOL0     H12289   9.152   5.812  12.346 -1.1098  0.7938  1.8762
  832MOL0     H12290   9.430   5.930  12.363 -0.9688  0.2949 -1.8910
  832MOL0     H12291   9.386   5.765  12.330 -2.3270 -0.3309 -1.9017
  832MOL0     H12292   9.483   5.795  12.550 -0.6945 -1.3498 -2.9549
  832MOL0     H12293   9.321   5.737  12.564 -1.0648  0.2544 -1.1844
  832MOL0     H12294   9.420   6.030  12.576 -1.0862  0.2025 -0.6440
  832MOL0     H12295   9.254   5.986  12.619 -0.0338 -0.5758 -1.2208
  832MOL0     H12296   9.502   5.907  12.773 -0.6631 -3.3863  2.7735
  832MOL0     H12297   9.336   5.848  12.797 -2.5305 -0.4795 -3.5689
  832MOL0     H12298   9.400   6.050  12.947 -0.2662 -2.4957  0.6449
  832MOL0     H12299   9.380   6.150  12.804  0.9482  1.1100  3.6729
  832MOL0     H12300   8.792   5.812  12.180 -1.9451  2.1383  0.4996
  832MOL0     H12301   8.602   5.795  12.067 -1.0578 -0.6905 -0.3306
  832MOL0     H12302   8.278   5.903  11.842 -0.0734 -1.6003  0.5929
  832MOL0     H12303   8.053   5.876  11.756  0.6985 -3.5144  1.2853
  832MOL0     H12304   6.428   6.585  11.452 -0.5272  1.6651  0.0204
  832MOL0     H12305   6.197   6.644  11.414  0.6001  1.6569 -1.8385
  832MOL0     H12306   5.782   6.531  11.358 -0.5268 -0.3252  0.1054
  832MOL0     H12307   5.553   6.610  11.336 -0.0584 -1.7444  0.3488
  832MOL0     H12308   5.327   6.485  11.082  2.2674  0.1113 -0.7564
  832MOL0     H12309   5.352   6.587  10.947 -0.8977 -1.1441 -1.0367
  832MOL0     H12310   5.127   6.629  10.980  2.1494  1.0685 -1.7602
  832MOL0     H12311   5.210   6.769  11.036  1.1454  1.1798  1.7183
  832MOL0     H12312   5.116   6.750  11.227  0.4588 -0.9370  2.0085
  832MOL0     H12313   5.183   6.593  11.260 -2.2042 -0.8171  0.3653
  832MOL0     H12314   4.935   6.624  11.097 -0.8452 -0.0562  1.3596
  832MOL0     H12315   4.996   6.466  11.172 -0.2198 -0.5837  0.4190
  832MOL0     H12316   4.810   6.588  11.511 -0.0532 -1.5878 -0.7519
  832MOL0     H12317   5.583   6.635  10.923  0.6234 -0.9535 -0.3646
  832MOL0     H12318   5.759   6.564  10.806  0.8434  1.1021 -0.5267
  832MOL0     H12319   5.912   6.572  10.891 -0.9180  0.9562 -1.2173
  832MOL0     H12320   5.836   6.409  10.865  1.5322  0.2003 -0.3333
  833MOL0     O12321   5.773   1.348   0.516  0.1308 -1.0149  0.3089
  833MOL0     C12322   5.750   1.362   0.397 -0.2876 -0.1664 -0.3042
  833MOL0     O12323   5.844   1.355   0.304 -1.1802 -0.0067 -0.3631
  833MOL0     C12324   5.973   1.368   0.337 -0.1026  0.3027  0.1619
  833MOL0     C12325   6.061   1.258   0.327  0.5270 -0.4842 -0.1499
  833MOL0     C12326   6.197   1.263   0.348  0.5192 -0.4997 -0.5094
  833MOL0     C12327   6.262   1.383   0.385 -0.1820  0.3745 -0.0109
  833MOL0     O12328   6.396   1.377   0.421 -0.3060 -0.5457 -0.2894
  833MOL0     C12329   6.475   1.473   0.343 -0.6110 -0.0813  0.2357
  833MOL0     C12330   6.623   1.464   0.390 -0.1781 -0.2557  0.1960
  833MOL0     C12331   6.719   1.539   0.296 -0.1926  0.5560  0.5027
  833MOL0     C12332   6.856   1.469   0.317 -0.4784 -0.5290  1.2525
  833MOL0     C12333   6.970   1.543   0.242  0.0088 -0.0276  0.8271
  833MOL0     C12334   7.105   1.462   0.223  0.0590 -0.3150  1.6882
  833MOL0     C12335   7.230   1.541   0.232 -0.2028  0.8102  0.5456
  833MOL0     C12336   7.349   1.472   0.291  0.0537  0.3605 -0.4254
  833MOL0     N12337   7.390   1.364   0.208  0.7588  0.7284  0.0484
  833MOL0     C12338   7.485   1.356   0.115 -0.1623 -0.6607 -0.4840
  833MOL0     C12339   7.485   1.229   0.077  0.1815  0.8635 -0.5633
  833MOL0     C12340   7.572   1.173  -0.033  0.5172 -0.0273 -0.2300
  833MOL0     C12341   7.667   1.059   0.001  0.8573 -0.5834 -0.3712
  833MOL0     C12342   7.779   1.102   0.104  0.5814 -0.5325  0.2761
  833MOL0     C12343   7.876   0.982   0.108 -0.0516 -0.0571 -0.3453
  833MOL0     O12344   7.980   0.993   0.202 -0.2094  0.0409  1.3180
  833MOL0     C12345   8.091   1.054   0.152  0.0681  0.1423  0.0150
  833MOL0     C12346   8.191   1.094   0.247  0.1525 -0.2171  0.9970
  833MOL0     C12347   8.303   1.165   0.213 -0.2164 -0.1109 -0.8301
  833MOL0     C12348   8.310   1.221   0.088 -0.1899  0.0882 -0.1757
  833MOL0     C12349   8.425   1.309   0.055  0.1920  1.1489 -0.2737
  833MOL0     O12350   8.501   1.267  -0.047  0.1670 -0.2385 -0.1733
  833MOL0     C12351   8.608   1.339  -0.065 -0.0486  0.4272 -0.4632
  833MOL0     C12352   8.727   1.273  -0.061 -0.3286  0.5461  0.7809
  833MOL0     C12353   8.853   1.344  -0.072  0.7162  0.3104 -0.4341
  833MOL0     C12354   8.857   1.485  -0.078  0.1963  0.1821  0.8092
  833MOL0     O12355   8.977   1.547  -0.092 -0.0450  0.1282  0.2990
  833MOL0     C12356   8.997   1.691  -0.076 -0.1263 -0.0875 -0.4940
  833MOL0     C12357   9.145   1.724  -0.055 -0.7412 -0.4988 -0.5713
  833MOL0     C12358   9.219   1.782  -0.178  0.4667 -0.5705  0.2090
  833MOL0     C12359   9.372   1.758  -0.185  0.0500 -0.4735 -0.9894
  833MOL0     C12360   9.446   1.795  -0.317  0.3731 -0.1128 -0.1874
  833MOL0     C12361   9.600   1.781  -0.327 -0.2279  0.1675 -0.6238
  833MOL0     C12362   9.634   1.640  -0.282 -0.6664  0.4153  0.6481
  833MOL0     C12363   9.737   1.579  -0.378  0.7618 -0.3997 -0.1877
  833MOL0    Cl12364   9.837   1.457  -0.306 -0.7948 -0.2523  0.3119
  833MOL0     C12365   8.736   1.546  -0.089 -0.0101  0.7994 -0.0256
  833MOL0     C12366   8.616   1.478  -0.077  0.0456 -0.7988  0.1173
  833MOL0     O12367   8.446   1.401   0.135  0.2111  0.1837  0.9162
  833MOL0     C12368   8.216   1.183  -0.010 -0.8604  0.0536 -0.0535
  833MOL0     C12369   8.111   1.101   0.017 -1.2435  0.2052 -0.5815
  833MOL0     N12370   7.392   1.154   0.149 -0.8478  0.2828  0.3036
  833MOL0     N12371   7.335   1.238   0.224 -0.4293 -0.1550 -0.4667
  833MOL0     C12372   6.178   1.493   0.403  0.3244  0.2221  0.4916
  833MOL0     C12373   6.036   1.492   0.379  0.1694 -0.4474  0.7916
  833MOL0     C12374   5.609   1.358   0.370  0.2270 -0.7052 -0.6090
  833MOL0     C12375   5.513   1.321   0.474  0.0929 -0.4223 -0.3142
  833MOL0     C12376   5.372   1.336   0.458  0.0708 -0.8816 -0.3652
  833MOL0     C12377   5.319   1.378   0.337 -1.0057 -0.0077 -0.3816
  833MOL0     O12378   5.181   1.402   0.310 -0.2330  0.2509  0.3020
  833MOL0     C12379   5.071   1.380   0.408 -1.0658  0.3725 -0.3629
  833MOL0     C12380   4.938   1.380   0.350 -0.0288  1.6706 -0.1496
  833MOL0     C12381   4.836   1.397   0.467  0.7193  0.2058  0.5074
  833MOL0     C12382   4.690   1.393   0.408  0.1033 -0.2769 -0.1012
  833MOL0     C12383   4.664   1.497   0.308  0.6269 -0.0867 -0.6980
  833MOL0     C12384   4.643   1.581   0.227 -0.8336  0.0768 -0.2404
  833MOL0     C12385   5.413   1.415   0.233 -0.1428 -0.1771  0.3575
  833MOL0     C12386   5.557   1.421   0.250  0.9759 -0.1761  0.1435
  833MOL0     C12387   5.642   1.463   0.125  0.4982 -0.6093 -0.2425
  833MOL0     H12388   6.011   1.163   0.315 -2.0752  0.2779  3.0019
  833MOL0     H12389   6.253   1.171   0.341  0.1454 -0.7758  0.0367
  833MOL0     H12390   6.464   1.449   0.237 -1.3290 -0.5222  0.3998
  833MOL0     H12391   6.433   1.574   0.352  1.7679  0.9287  0.7278
  833MOL0     H12392   6.653   1.361   0.413 -0.3374 -0.5428 -0.8203
  833MOL0     H12393   6.624   1.539   0.469 -1.0127  0.8712 -0.8252
  833MOL0     H12394   6.735   1.642   0.332  0.8293  1.6217 -2.6749
  833MOL0     H12395   6.690   1.546   0.191  1.5305  1.1134  0.0220
  833MOL0     H12396   6.872   1.465   0.425 -1.4818 -1.7787  1.3846
  833MOL0     H12397   6.844   1.372   0.268  2.2678 -0.4971  0.3457
  833MOL0     H12398   6.933   1.572   0.143 -0.4242  3.4962  1.8916
  833MOL0     H12399   6.995   1.632   0.300 -3.3304  1.4449  0.2219
  833MOL0     H12400   7.109   1.385   0.302  0.5502 -0.7175  1.2836
  833MOL0     H12401   7.099   1.410   0.127  3.5676  0.8008  0.7177
  833MOL0     H12402   7.226   1.626   0.300  0.7436  1.0802  0.2812
  833MOL0     H12403   7.260   1.563   0.129 -2.3006 -0.6020 -0.4292
  833MOL0     H12404   7.425   1.549   0.309 -3.9457  5.1316 -1.9178
  833MOL0     H12405   7.323   1.426   0.387  0.9531  1.3933  0.3378
  833MOL0     H12406   7.547   1.430   0.065 -2.3937 -1.4814 -4.8947
  833MOL0     H12407   7.511   1.149  -0.121 -0.7911 -0.7943  0.8426
  833MOL0     H12408   7.634   1.256  -0.067  0.5495 -0.3055 -0.8624
  833MOL0     H12409   7.605   0.980   0.043 -2.3880  0.9395 -1.9926
  833MOL0     H12410   7.713   1.042  -0.097  0.3367  2.6600 -1.2720
  833MOL0     H12411   7.742   1.129   0.203 -0.4813  4.1709 -1.1282
  833MOL0     H12412   7.834   1.184   0.056  0.1782 -1.0119 -1.0644
  833MOL0     H12413   7.894   0.945   0.007 -0.2218 -3.1879  0.6598
  833MOL0     H12414   7.814   0.897   0.138  1.7488 -1.6246 -0.9429
  833MOL0     H12415   8.163   1.057   0.345  0.1550 -1.1851  0.6420
  833MOL0     H12416   8.360   1.196   0.300 -3.2465 -0.5081  1.4613
  833MOL0     H12417   8.739   1.165  -0.060 -1.3754  0.4113  0.1436
  833MOL0     H12418   8.949   1.296  -0.062  0.4523 -0.2416 -0.4910
  833MOL0     H12419   8.952   1.751  -0.157 -3.2713 -1.5417  0.0282
  833MOL0     H12420   8.960   1.729   0.020  1.3465  2.0603 -0.6829
  833MOL0     H12421   9.156   1.805   0.018 -1.4548 -0.9900  0.1018
  833MOL0     H12422   9.186   1.635  -0.008 -0.2306  0.6392  1.2132
  833MOL0     H12423   9.180   1.729  -0.265  0.0826 -1.9527  1.1997
  833MOL0     H12424   9.196   1.889  -0.190  2.2833 -0.2190 -0.4378
  833MOL0     H12425   9.399   1.654  -0.160  4.4163  0.7046  0.1167
  833MOL0     H12426   9.401   1.817  -0.097 -0.7242  0.7903 -1.5588
  833MOL0     H12427   9.416   1.893  -0.355 -4.4003 -1.4469 -0.5700
  833MOL0     H12428   9.416   1.721  -0.391 -1.7911 -0.7475  1.1999
  833MOL0     H12429   9.619   1.802  -0.433  0.0620 -0.5492 -0.7186
  833MOL0     H12430   9.649   1.849  -0.257 -4.6555  1.0982  1.9728
  833MOL0     H12431   9.551   1.569  -0.279  2.1793 -3.2059  2.9176
  833MOL0     H12432   9.670   1.639  -0.179  0.6941  0.3892  0.1989
  833MOL0     H12433   9.681   1.544  -0.465 -2.6787 -2.8404  2.6804
  833MOL0     H12434   9.799   1.666  -0.399 -1.0263  0.7451 -0.9567
  833MOL0     H12435   8.730   1.653  -0.106 -2.7964  1.0267  1.6426
  833MOL0     H12436   8.526   1.539  -0.082  1.5289  1.5393  0.1698
  833MOL0     H12437   8.237   1.211  -0.113 -2.0101 -2.6000 -1.1026
  833MOL0     H12438   8.048   1.088  -0.070 -0.4067 -2.4881 -0.8694
  833MOL0     H12439   6.215   1.591   0.430 -0.5234  1.4161 -2.2871
  833MOL0     H12440   5.976   1.582   0.386  2.1827  1.6105 -3.8958
  833MOL0     H12441   5.548   1.278   0.568  0.1114 -1.7104 -0.9018
  833MOL0     H12442   5.306   1.300   0.536  1.7058 -2.4098  0.3637
  833MOL0     H12443   5.082   1.461   0.481  4.7571  0.6503 -1.1248
  833MOL0     H12444   5.093   1.287   0.459 -1.1275 -0.0935 -1.1625
  833MOL0     H12445   4.905   1.289   0.297 -3.3285  0.7635  3.0561
  833MOL0     H12446   4.930   1.468   0.285  0.4339  1.0458 -1.0796
  833MOL0     H12447   4.848   1.494   0.517  0.7750 -0.3210  1.5497
  833MOL0     H12448   4.854   1.317   0.539  1.6871  0.7998  0.9530
  833MOL0     H12449   4.682   1.297   0.358 -2.3819  0.2186 -0.7762
  833MOL0     H12450   4.618   1.406   0.489 -1.1536 -0.5771 -1.1424
  833MOL0     H12451   4.626   1.658   0.155 -0.7420 -0.8681 -1.2883
  833MOL0     H12452   5.373   1.454   0.140  3.1553 -2.6018 -2.3675
  833MOL0     H12453   5.577   1.526   0.063 -0.0367  0.5530  1.4133
  833MOL0     H12454   5.731   1.522   0.150 -0.2715 -0.2274  1.8302
  833MOL0     H12455   5.671   1.377   0.064 -2.6283 -1.3473 -0.9153
  834MOL0     O12456   6.842   2.951   1.462 -0.1255  0.3542  0.1230
  834MOL0     C12457   6.858   3.063   1.408 -0.4738 -0.7471  0.0830
  834MOL0     O12458   6.961   3.091   1.326 -0.1519  0.0431  0.4355
  834MOL0     C12459   7.055   2.996   1.298  0.2144  0.3548  0.0919
  834MOL0     C12460   7.183   3.014   1.346 -0.8112 -0.1726 -0.0712
  834MOL0     C12461   7.269   2.899   1.350  0.5389  0.2411  0.6587
  834MOL0     C12462   7.244   2.787   1.279  0.0830  0.9899 -0.0638
  834MOL0     O12463   7.344   2.686   1.283  0.3508  0.3805 -0.0067
  834MOL0     C12464   7.318   2.551   1.250  0.3521  1.7677  0.0880
  834MOL0     C12465   7.343   2.525   1.101 -0.5764 -0.1437 -0.5179
  834MOL0     C12466   7.339   2.380   1.066 -0.5487 -1.4874 -0.0796
  834MOL0     C12467   7.469   2.298   1.063  0.4596 -0.7220 -1.0964
  834MOL0     C12468   7.486   2.215   0.934 -0.7069 -0.7056 -0.3867
  834MOL0     C12469   7.386   2.103   0.915 -0.4151 -0.2722 -0.4971
  834MOL0     C12470   7.448   1.994   0.835  0.8221  0.0221 -0.6688
  834MOL0     C12471   7.353   1.877   0.823  0.2601 -1.1188  0.0440
  834MOL0     N12472   7.414   1.778   0.731  0.3162 -0.5646 -0.4271
  834MOL0     C12473   7.507   1.677   0.771  0.5565 -0.3695  0.2725
  834MOL0     C12474   7.516   1.604   0.662  0.3294 -0.0047 -0.4034
  834MOL0     C12475   7.592   1.479   0.632  0.8544  0.9357 -0.3885
  834MOL0     C12476   7.744   1.493   0.647  0.2268  1.0223 -0.1864
  834MOL0     C12477   7.813   1.358   0.639  0.2957  0.8876 -0.7332
  834MOL0     C12478   7.776   1.267   0.524 -0.1624  1.0944  0.5085
  834MOL0     O12479   7.761   1.327   0.391  0.5214 -0.2321  1.1498
  834MOL0     C12480   7.848   1.423   0.343 -0.2997 -0.4095 -0.2371
  834MOL0     C12481   7.987   1.406   0.337 -0.7219  0.1367  0.3645
  834MOL0     C12482   8.065   1.509   0.271 -0.1515  0.0579  0.1615
  834MOL0     C12483   8.003   1.630   0.240  0.1511 -0.1120 -0.5353
  834MOL0     C12484   8.087   1.736   0.180 -0.4002  0.6091  0.3364
  834MOL0     O12485   8.216   1.725   0.206 -0.3574 -0.3911  0.0517
  834MOL0     C12486   8.317   1.812   0.181 -0.4853 -0.2107 -0.4424
  834MOL0     C12487   8.429   1.774   0.256  0.4673  0.8302  0.3656
  834MOL0     C12488   8.553   1.834   0.227  0.4875  0.5403  0.8312
  834MOL0     C12489   8.567   1.922   0.120 -0.3210 -0.5135  0.2981
  834MOL0     O12490   8.688   1.974   0.103  0.4173  0.5234 -0.3306
  834MOL0     C12491   8.722   2.041  -0.021  0.5190 -0.5746  0.0352
  834MOL0     C12492   8.865   2.094  -0.020  0.6830  0.1329 -0.2841
  834MOL0     C12493   8.898   2.146  -0.162  0.2506 -0.4362  0.6517
  834MOL0     C12494   9.042   2.187  -0.171 -0.7262 -0.4280 -0.1139
  834MOL0     C12495   9.095   2.277  -0.285  0.1557 -0.0995 -0.2628
  834MOL0     C12496   9.240   2.324  -0.257 -0.2318  0.0591 -0.2728
  834MOL0     C12497   9.325   2.195  -0.249  0.0738  0.0759  0.3363
  834MOL0     C12498   9.476   2.244  -0.270  1.0973  0.1891  0.5056
  834MOL0    Cl12499   9.508   2.266  -0.442  0.0979 -0.1956  0.1737
  834MOL0     C12500   8.451   1.969   0.053  0.3521  0.0700  0.0504
  834MOL0     C12501   8.328   1.916   0.091  1.0518 -0.6048 -0.5201
  834MOL0     O12502   8.033   1.825   0.117  0.3163 -0.8316 -0.6904
  834MOL0     C12503   7.867   1.647   0.262 -0.5092  0.1960 -0.6852
  834MOL0     C12504   7.793   1.543   0.311 -0.5216  0.1857 -0.7351
  834MOL0     N12505   7.456   1.669   0.552  0.2306  0.4305 -0.8487
  834MOL0     N12506   7.377   1.763   0.598  0.2966  0.5824  0.1119
  834MOL0     C12507   7.125   2.779   1.208  0.2676 -0.0084  0.1983
  834MOL0     C12508   7.023   2.881   1.215 -0.0281 -0.5376 -0.0247
  834MOL0     C12509   6.757   3.174   1.418 -0.2414  0.0076  0.0327
  834MOL0     C12510   6.798   3.301   1.384  0.2529  0.3049  0.2858
  834MOL0     C12511   6.716   3.416   1.416  0.1537  0.2086  0.4268
  834MOL0     C12512   6.590   3.409   1.478 -0.3284  0.1794  0.8521
  834MOL0     O12513   6.510   3.507   1.526 -0.2193 -0.2574  0.9479
  834MOL0     C12514   6.573   3.641   1.526 -0.4112  1.1263 -0.1958
  834MOL0     C12515   6.472   3.732   1.600 -0.1690 -0.3389 -0.2730
  834MOL0     C12516   6.326   3.717   1.555  0.4917 -0.5225  0.3985
  834MOL0     C12517   6.242   3.813   1.642  0.0204 -0.3435 -0.1073
  834MOL0     C12518   6.098   3.815   1.605  0.4156  0.1336 -0.4820
  834MOL0     C12519   5.974   3.812   1.592 -0.2596 -0.6051  0.1223
  834MOL0     C12520   6.555   3.280   1.498  0.3964 -0.6721 -0.2071
  834MOL0     C12521   6.628   3.164   1.477  0.6286 -0.2190 -1.1846
  834MOL0     C12522   6.558   3.032   1.493 -0.1443 -0.2197  0.0901
  834MOL0     H12523   7.222   3.105   1.392 -0.1988 -2.4211  4.4715
  834MOL0     H12524   7.357   2.901   1.414 -0.2327 -0.3494  1.7693
  834MOL0     H12525   7.371   2.480   1.314 -1.2095  0.0659 -0.4115
  834MOL0     H12526   7.211   2.541   1.272  0.0685 -2.0187 -2.0726
  834MOL0     H12527   7.437   2.579   1.088 -0.2719 -0.0567  1.7225
  834MOL0     H12528   7.262   2.583   1.056 -0.8249  1.7609  2.1349
  834MOL0     H12529   7.289   2.373   0.969  0.7426 -1.2610 -0.7809
  834MOL0     H12530   7.286   2.315   1.137  2.1497 -3.0851  0.6157
  834MOL0     H12531   7.549   2.373   1.063 -0.6093  0.4628 -0.7936
  834MOL0     H12532   7.472   2.246   1.159 -0.0620  0.4483 -0.4184
  834MOL0     H12533   7.486   2.286   0.851 -3.0316  0.9208  0.8871
  834MOL0     H12534   7.584   2.167   0.947 -0.9534 -0.8066  1.4346
  834MOL0     H12535   7.370   2.054   1.011 -1.2780 -0.2023 -0.5959
  834MOL0     H12536   7.303   2.151   0.863  1.0809  2.0212 -0.9327
  834MOL0     H12537   7.543   1.962   0.879  1.2945  1.3216 -0.7083
  834MOL0     H12538   7.468   2.032   0.734 -1.0220  0.7682 -0.7958
  834MOL0     H12539   7.311   1.843   0.918  1.2003  2.6238  2.0130
  834MOL0     H12540   7.265   1.922   0.777  0.8177  1.9335  1.6841
  834MOL0     H12541   7.542   1.658   0.872  2.8619  0.2139 -0.3606
  834MOL0     H12542   7.551   1.400   0.696  3.1584 -0.3364 -0.3628
  834MOL0     H12543   7.579   1.447   0.528  0.8689 -0.1708 -0.0587
  834MOL0     H12544   7.777   1.555   0.563 -0.8269 -0.9954 -2.2009
  834MOL0     H12545   7.761   1.553   0.737  0.4708  2.7294 -1.3180
  834MOL0     H12546   7.782   1.315   0.735 -0.2979 -0.6350 -1.5680
  834MOL0     H12547   7.920   1.379   0.641  0.4011  0.4076 -1.1897
  834MOL0     H12548   7.688   1.209   0.553  1.6473 -1.8798  0.5587
  834MOL0     H12549   7.848   1.184   0.523 -1.2576  0.1164  0.3729
  834MOL0     H12550   8.032   1.312   0.366  2.5924  0.8669 -1.7709
  834MOL0     H12551   8.169   1.498   0.244 -0.9062 -2.1161 -2.2647
  834MOL0     H12552   8.419   1.684   0.316 -0.1396  0.2898 -0.5364
  834MOL0     H12553   8.649   1.804   0.267  0.6596 -1.1869 -0.7305
  834MOL0     H12554   8.718   1.964  -0.098 -0.4282  0.7066 -1.2514
  834MOL0     H12555   8.650   2.120  -0.042  0.5713 -0.8032 -1.0229
  834MOL0     H12556   8.874   2.171   0.057  0.2290 -1.3798  1.3417
  834MOL0     H12557   8.935   2.012   0.003  2.6577  0.8993 -3.0292
  834MOL0     H12558   8.868   2.067  -0.231  1.1456  1.3032 -1.8558
  834MOL0     H12559   8.837   2.235  -0.179  0.9938  0.6141  3.0251
  834MOL0     H12560   9.093   2.091  -0.173  2.8771  1.2837 -3.3500
  834MOL0     H12561   9.068   2.242  -0.079 -3.1271  1.6282 -0.5521
  834MOL0     H12562   9.032   2.363  -0.310  0.0255 -0.6300 -1.8926
  834MOL0     H12563   9.094   2.219  -0.378 -0.1663 -0.4442 -0.0481
  834MOL0     H12564   9.268   2.382  -0.346  1.0444  2.2910  1.4698
  834MOL0     H12565   9.252   2.383  -0.166 -0.1717 -0.1996 -0.1125
  834MOL0     H12566   9.305   2.132  -0.337 -0.3171  0.9868 -0.2444
  834MOL0     H12567   9.312   2.149  -0.151  0.7345 -0.5203  0.1556
  834MOL0     H12568   9.494   2.338  -0.216  0.4268  1.0521 -0.7309
  834MOL0     H12569   9.544   2.167  -0.234  0.0546 -0.8951  0.2015
  834MOL0     H12570   8.461   2.053  -0.015  2.8998  0.9389  1.3614
  834MOL0     H12571   8.248   1.939   0.022  1.3820 -0.3750 -0.8334
  834MOL0     H12572   7.832   1.744   0.227  0.9976  0.5436 -1.3190
  834MOL0     H12573   7.686   1.552   0.326 -0.2640  0.0796  1.3969
  834MOL0     H12574   7.108   2.695   1.142  2.5009  0.2608 -0.8001
  834MOL0     H12575   6.922   2.864   1.179 -0.4576 -0.0989  0.9442
  834MOL0     H12576   6.897   3.319   1.344  0.6717  0.4040  1.3240
  834MOL0     H12577   6.746   3.516   1.388 -1.4165  0.5879  0.0214
  834MOL0     H12578   6.587   3.668   1.421  0.9086  1.0233 -0.0558
  834MOL0     H12579   6.672   3.653   1.571 -1.1627  0.8714  1.6529
  834MOL0     H12580   6.506   3.836   1.591 -0.3162 -0.4265 -2.3215
  834MOL0     H12581   6.470   3.696   1.703 -1.9865 -0.4911 -0.3177
  834MOL0     H12582   6.286   3.617   1.573  0.3881 -0.3523  1.1295
  834MOL0     H12583   6.313   3.740   1.449 -1.4123  0.1568  0.7535
  834MOL0     H12584   6.240   3.764   1.739 -0.8525  1.9887  1.1376
  834MOL0     H12585   6.277   3.917   1.648  0.0075 -0.4403  3.1665
  834MOL0     H12586   5.869   3.795   1.586 -0.7590  1.7749  1.0891
  834MOL0     H12587   6.459   3.281   1.549  1.9417  0.0352  2.9649
  834MOL0     H12588   6.601   2.984   1.582 -0.0777  0.8388  0.6501
  834MOL0     H12589   6.450   3.037   1.510  0.3142  1.0348  3.3791
  834MOL0     H12590   6.577   2.976   1.402 -0.3344 -0.4364  0.1833
  835MOL0     O12591   4.321   8.696  10.695 -0.0543 -0.3181  0.1164
  835MOL0     C12592   4.412   8.669  10.616 -0.0594  0.8646  0.4471
  835MOL0     O12593   4.380   8.636  10.489 -0.3031 -0.4736  0.1649
  835MOL0     C12594   4.278   8.712  10.424  1.0441  0.2667 -0.1507
  835MOL0     C12595   4.316   8.834  10.375 -0.4315  0.1190 -0.4796
  835MOL0     C12596   4.217   8.921  10.327 -0.0445 -0.6826  0.3789
  835MOL0     C12597   4.087   8.879  10.319  0.5755 -0.4446 -0.0026
  835MOL0     O12598   3.987   8.960  10.264 -0.3879  0.2942 -0.3773
  835MOL0     C12599   4.019   9.100  10.239 -0.7751  0.1450  0.8793
  835MOL0     C12600   4.007   9.175  10.377 -0.1458 -0.2477  0.2311
  835MOL0     C12601   3.943   9.317  10.354 -0.7433 -0.3261 -0.2265
  835MOL0     C12602   4.066   9.407  10.322 -0.3094 -1.0225  0.5392
  835MOL0     C12603   4.013   9.539  10.252 -0.8210  0.1455  0.4547
  835MOL0     C12604   3.919   9.633  10.330 -0.7632 -0.4675 -0.5152
  835MOL0     C12605   3.877   9.752  10.242  0.3292  0.4707 -0.3237
  835MOL0     C12606   3.812   9.862  10.326  0.3707 -0.1018  0.6178
  835MOL0     N12607   3.771   9.982  10.253 -0.5939  0.6467 -0.8429
  835MOL0     C12608   3.645  10.029  10.254  0.4713  0.3232 -0.0060
  835MOL0     C12609   3.661  10.139  10.179  0.1996 -0.1497  0.1900
  835MOL0     C12610   3.542  10.220  10.146  0.3860  0.2341  0.2211
  835MOL0     C12611   3.489  10.307  10.271 -0.0947  0.0565 -0.2837
  835MOL0     C12612   3.583  10.422  10.314  0.4155 -0.3340  0.1030
  835MOL0     C12613   3.500  10.533  10.382 -0.5680 -0.2390 -0.5347
  835MOL0     O12614   3.440  10.628  10.292 -0.4952  0.0672 -0.1468
  835MOL0     C12615   3.356  10.721  10.345 -0.3819  0.4384  0.0082
  835MOL0     C12616   3.343  10.745  10.481 -0.4904 -0.1917 -0.2271
  835MOL0     C12617   3.239  10.815  10.542 -0.7200 -0.1406 -0.3710
  835MOL0     C12618   3.149  10.866  10.457 -0.1526 -1.7646 -0.2466
  835MOL0     C12619   3.039  10.943  10.514  0.0343  0.0218  0.1947
  835MOL0     O12620   2.921  10.943  10.439  0.1402 -0.2166 -0.8125
  835MOL0     C12621   2.812  11.020  10.483  0.3873 -0.0178 -0.3545
  835MOL0     C12622   2.690  10.952  10.466 -0.5344  0.5158  0.2838
  835MOL0     C12623   2.575  11.020  10.525  0.4694 -0.6053 -0.1451
  835MOL0     C12624   2.580  11.146  10.585  0.4018  0.2781  0.3034
  835MOL0     O12625   2.456  11.181  10.642 -0.6913 -0.3893 -0.9583
  835MOL0     C12626   2.438  11.323  10.678 -0.0676 -0.3015 -0.6633
  835MOL0     C12627   2.306  11.345  10.738 -0.1594 -0.4989  0.4751
  835MOL0     C12628   2.276  11.263  10.865  0.4652 -0.4409  0.4211
  835MOL0     C12629   2.152  11.328  10.928 -0.1938  0.9600  0.5192
  835MOL0     C12630   2.133  11.274  11.070 -0.4994  0.4531 -0.2443
  835MOL0     C12631   2.087  11.125  11.058 -0.4790 -0.2759  0.7720
  835MOL0     C12632   2.018  11.069  11.179  0.0265  0.2038 -0.3344
  835MOL0     C12633   1.913  10.969  11.162  0.8782  0.1287  0.0619
  835MOL0    Cl12634   1.858  10.934  11.333  0.4456 -0.6126  0.2797
  835MOL0     C12635   2.692  11.218  10.583 -0.2790 -0.5782 -0.4237
  835MOL0     C12636   2.811  11.157  10.533  0.0509  0.3966  0.0944
  835MOL0     O12637   3.054  10.991  10.621  0.0866  0.3991 -0.5901
  835MOL0     C12638   3.166  10.864  10.322  0.4655 -0.4845 -0.1270
  835MOL0     C12639   3.270  10.789  10.268  1.4594 -0.0320 -0.1223
  835MOL0     N12640   3.789  10.151  10.137  0.4571 -0.2286  0.1583
  835MOL0     N12641   3.857  10.055  10.185 -0.1061  0.4067  0.4145
  835MOL0     C12642   4.054   8.751  10.352  0.2516  0.2508  0.0279
  835MOL0     C12643   4.147   8.667  10.412 -1.3056 -0.8607 -0.3813
  835MOL0     C12644   4.543   8.648  10.681 -0.1013 -0.4696 -0.0043
  835MOL0     C12645   4.642   8.592  10.603 -0.0720 -0.2740 -0.8809
  835MOL0     C12646   4.768   8.542  10.659  0.2837 -0.4926  0.3486
  835MOL0     C12647   4.789   8.568  10.798 -0.0402  0.6221  0.1380
  835MOL0     O12648   4.893   8.517  10.862 -0.0127  0.6665 -0.5410
  835MOL0     C12649   4.988   8.430  10.802  0.3153 -0.0575  1.5788
  835MOL0     C12650   5.078   8.379  10.914  0.2105  0.8265  0.0985
  835MOL0     C12651   5.162   8.488  10.983 -0.2444  0.4918 -0.5795
  835MOL0     C12652   5.243   8.418  11.098 -0.8102  0.1805  1.5403
  835MOL0     C12653   5.143   8.378  11.203 -0.0029 -0.7043  0.1900
  835MOL0     C12654   5.055   8.371  11.281 -0.9137  0.6321 -0.2228
  835MOL0     C12655   4.696   8.636  10.870  0.3434  0.5309  0.3111
  835MOL0     C12656   4.575   8.680  10.814 -0.6354  0.0236 -0.1985
  835MOL0     C12657   4.487   8.759  10.911 -0.0742 -0.5050  0.4505
  835MOL0     H12658   4.408   8.885  10.401 -0.9866  1.5155 -1.1558
  835MOL0     H12659   4.255   9.018  10.297 -1.8910  0.6416  2.0413
  835MOL0     H12660   4.111   9.124  10.185  0.2940 -1.0557  2.0991
  835MOL0     H12661   3.936   9.134  10.178  0.2546  0.1351 -0.5665
  835MOL0     H12662   4.103   9.178  10.430  0.3137 -2.3339 -0.3621
  835MOL0     H12663   3.932   9.116  10.432 -3.5158  3.0733 -0.4352
  835MOL0     H12664   3.888   9.360  10.438  4.1483 -0.3949  3.4217
  835MOL0     H12665   3.868   9.313  10.274 -1.2161  1.4501  0.0829
  835MOL0     H12666   4.128   9.434  10.408  0.5495  2.0034 -0.8993
  835MOL0     H12667   4.133   9.365  10.246 -3.0552  0.7827 -3.2491
  835MOL0     H12668   4.101   9.587  10.208 -0.5624 -0.1645  0.6344
  835MOL0     H12669   3.950   9.501  10.172 -2.1669 -1.3930  2.1524
  835MOL0     H12670   3.833   9.578  10.369 -0.1487 -2.4785 -1.8498
  835MOL0     H12671   3.980   9.672  10.412  0.7878  0.1813 -1.8994
  835MOL0     H12672   3.805   9.711  10.170  1.8196  2.4408 -3.1168
  835MOL0     H12673   3.957   9.794  10.180 -2.3264  2.4000 -2.6934
  835MOL0     H12674   3.719   9.830  10.375 -0.3117 -1.4298 -1.4398
  835MOL0     H12675   3.876   9.884  10.412  0.8764 -2.7943  1.0337
  835MOL0     H12676   3.552   9.986  10.291 -0.3614  1.4804 -0.6827
  835MOL0     H12677   3.569  10.286  10.062 -0.9570 -0.9978 -1.2176
  835MOL0     H12678   3.463  10.158  10.103  0.9568 -1.5309  1.6047
  835MOL0     H12679   3.397  10.355  10.236 -0.7461  2.1902  3.7797
  835MOL0     H12680   3.450  10.242  10.351  0.6650 -0.4288 -0.3009
  835MOL0     H12681   3.627  10.476  10.230 -0.3345  1.1820  0.6438
  835MOL0     H12682   3.662  10.396  10.385  0.8460 -1.5190 -0.7607
  835MOL0     H12683   3.568  10.590  10.445 -0.5273  0.2417 -0.9992
  835MOL0     H12684   3.421  10.487  10.442 -0.2772  2.3893  2.0985
  835MOL0     H12685   3.422  10.707  10.546 -1.2249 -2.9657 -0.8404
  835MOL0     H12686   3.223  10.814  10.649 -1.2753 -2.3572 -0.4337
  835MOL0     H12687   2.689  10.848  10.437  1.5897 -0.1572  2.3806
  835MOL0     H12688   2.485  10.960  10.533  0.0473  0.2495  3.2754
  835MOL0     H12689   2.512  11.348  10.754 -0.2616 -0.8420 -0.2913
  835MOL0     H12690   2.457  11.383  10.589  0.0293 -1.1652 -1.2380
  835MOL0     H12691   2.317  11.450  10.767  0.9778 -0.5390  0.2456
  835MOL0     H12692   2.220  11.334  10.671  0.1678 -1.0798  0.1436
  835MOL0     H12693   2.278  11.155  10.851 -0.3716 -0.2587 -1.4897
  835MOL0     H12694   2.355  11.287  10.937 -1.7376  1.7095  2.3153
  835MOL0     H12695   2.072  11.301  10.858  0.5751 -0.0822  0.0038
  835MOL0     H12696   2.163  11.437  10.929  1.4736  0.8518 -0.9353
  835MOL0     H12697   2.055  11.335  11.117 -2.4152 -0.7836 -1.6664
  835MOL0     H12698   2.223  11.273  11.131 -1.7646  2.0059  1.7658
  835MOL0     H12699   2.015  11.115  10.976  0.1045  0.7381  0.1164
  835MOL0     H12700   2.168  11.065  11.016 -1.6450  0.1711 -2.4403
  835MOL0     H12701   1.973  11.148  11.239 -2.3918  0.0503 -1.8261
  835MOL0     H12702   2.083  11.025  11.256  0.4533  0.5954 -0.4689
  835MOL0     H12703   1.824  11.010  11.113 -1.7106 -2.9796  1.7240
  835MOL0     H12704   1.944  10.879  11.109 -1.7266 -1.7996  1.5460
  835MOL0     H12705   2.683  11.318  10.624 -0.5616 -1.2005  1.0905
  835MOL0     H12706   2.904  11.213  10.536 -1.0662  2.3528 -0.6775
  835MOL0     H12707   3.103  10.923  10.255  2.0652  1.8270  0.2779
  835MOL0     H12708   3.254  10.763  10.163 -3.4209  0.0210  0.3861
  835MOL0     H12709   3.948   8.729  10.346  0.2481  0.3549 -0.2965
  835MOL0     H12710   4.119   8.571  10.455 -1.5716  0.0148  1.5127
  835MOL0     H12711   4.631   8.576  10.496  1.9000  0.1098 -1.1857
  835MOL0     H12712   4.838   8.490  10.593 -1.0523 -1.6253 -0.2160
  835MOL0     H12713   5.039   8.494  10.729 -1.0796 -0.9378 -0.2538
  835MOL0     H12714   4.943   8.349  10.744 -4.1641  4.1541 -1.6010
  835MOL0     H12715   5.145   8.311  10.861 -3.6663 -2.1698 -1.3768
  835MOL0     H12716   5.019   8.320  10.984 -1.3421  0.6700 -1.2944
  835MOL0     H12717   5.096   8.568  11.017  1.0819  1.6282 -0.6097
  835MOL0     H12718   5.237   8.523  10.911  1.7099 -1.4678  0.3590
  835MOL0     H12719   5.287   8.323  11.066  0.7280  0.5756  2.3810
  835MOL0     H12720   5.322   8.487  11.131 -0.6147  1.6539 -1.5915
  835MOL0     H12721   4.981   8.363  11.358 -1.8400 -1.0261 -1.2344
  835MOL0     H12722   4.722   8.672  10.969  0.0960  3.1489 -0.5019
  835MOL0     H12723   4.416   8.691  10.958 -0.5018  0.1773  0.8043
  835MOL0     H12724   4.552   8.812  10.982  1.3132 -0.2709 -0.9348
  835MOL0     H12725   4.434   8.831  10.849  0.1219 -1.3193 -0.6961
  836MOL0     O12726   3.406   6.444   1.245  0.3627  0.8946  0.1277
  836MOL0     C12727   3.298   6.474   1.186 -0.6234 -0.2207 -0.1317
  836MOL0     O12728   3.293   6.567   1.084 -0.3563  0.8244  0.2191
  836MOL0     C12729   3.407   6.616   1.025 -0.8178 -0.0504  0.5931
  836MOL0     C12730   3.523   6.522   1.004 -0.3439 -0.4219 -0.0868
  836MOL0     C12731   3.653   6.571   0.958 -0.3478  0.2961 -0.3508
  836MOL0     C12732   3.660   6.707   0.920  0.2627 -0.1279  0.0720
  836MOL0     O12733   3.781   6.759   0.902 -0.4309 -0.5426  0.2449
  836MOL0     C12734   3.803   6.899   0.935  0.0088  0.2191 -0.3687
  836MOL0     C12735   3.945   6.924   0.991  0.1893  0.6430  0.0357
  836MOL0     C12736   3.961   6.878   1.133  0.5210  0.6100  0.3861
  836MOL0     C12737   3.976   6.725   1.150  0.3824 -0.8972 -1.2803
  836MOL0     C12738   4.107   6.668   1.101  0.3556 -0.7307 -0.3085
  836MOL0     C12739   4.111   6.513   1.128  0.6794 -0.5101 -0.7171
  836MOL0     C12740   4.189   6.443   1.018 -0.3901 -1.0792 -0.5121
  836MOL0     C12741   4.197   6.292   1.061  0.0625  0.3092  0.7529
  836MOL0     N12742   4.288   6.244   1.171  0.2394  0.4934 -0.1636
  836MOL0     C12743   4.411   6.290   1.219 -0.4300 -0.1622  0.6257
  836MOL0     C12744   4.445   6.213   1.327  0.1207  0.6708 -0.2326
  836MOL0     C12745   4.568   6.209   1.408  0.6135  0.0089 -1.7390
  836MOL0     C12746   4.676   6.305   1.356 -0.7576 -0.5464 -0.5839
  836MOL0     C12747   4.795   6.280   1.442  0.3347 -1.3598  0.7007
  836MOL0     C12748   4.915   6.342   1.376 -0.4889  0.0245  0.2273
  836MOL0     O12749   4.967   6.442   1.456  0.5737 -0.1070 -0.0538
  836MOL0     C12750   5.054   6.415   1.562  0.3477  0.0055  0.5583
  836MOL0     C12751   5.100   6.287   1.619  0.4495 -0.3403 -0.2586
  836MOL0     C12752   5.203   6.282   1.715  0.5262 -0.6219 -0.0978
  836MOL0     C12753   5.258   6.402   1.762 -0.2482  0.4150 -0.0706
  836MOL0     C12754   5.369   6.409   1.860 -0.9301  0.4492  0.1653
  836MOL0     O12755   5.447   6.514   1.855 -0.6591  0.4431 -0.1962
  836MOL0     C12756   5.567   6.513   1.912 -0.2060 -0.4136  0.1508
  836MOL0     C12757   5.621   6.633   1.947 -0.1860  0.0212 -0.5255
  836MOL0     C12758   5.756   6.640   1.996 -0.5309  0.4414  0.2063
  836MOL0     C12759   5.839   6.534   1.995  0.9100  0.3539  0.3418
  836MOL0     O12760   5.965   6.534   2.045 -1.1054 -1.0057  0.4389
  836MOL0     C12761   6.026   6.664   2.076  0.7843 -0.5106  0.6041
  836MOL0     C12762   6.164   6.659   2.123 -1.1501 -0.2014 -0.0216
  836MOL0     C12763   6.199   6.781   2.206 -0.5442  0.4761 -0.6231
  836MOL0     C12764   6.347   6.801   2.209  0.4844  0.0086  0.7653
  836MOL0     C12765   6.391   6.931   2.275  0.1374 -0.3675  0.2580
  836MOL0     C12766   6.545   6.938   2.256  0.1308  0.0115  0.2140
  836MOL0     C12767   6.609   7.059   2.334  0.7034 -0.1028  0.1910
  836MOL0     C12768   6.765   7.054   2.349 -0.4874 -0.1768  0.7414
  836MOL0    Cl12769   6.818   6.893   2.415 -0.5516  0.0220 -0.1978
  836MOL0     C12770   5.789   6.412   1.955  0.1515  0.1946 -0.3621
  836MOL0     C12771   5.654   6.401   1.908  0.0315  0.2621  0.0408
  836MOL0     O12772   5.382   6.316   1.934  1.0707  0.3277 -0.0699
  836MOL0     C12773   5.218   6.524   1.718  0.3790 -0.6651  0.2295
  836MOL0     C12774   5.127   6.531   1.617  0.2500 -0.6181  0.5950
  836MOL0     N12775   4.331   6.134   1.361  0.2914 -0.4258 -0.2323
  836MOL0     N12776   4.244   6.145   1.261 -0.4544  0.8681  0.2425
  836MOL0     C12777   3.542   6.789   0.928  0.8931 -0.1484  0.0974
  836MOL0     C12778   3.416   6.741   0.972 -0.0413 -0.4426 -0.5114
  836MOL0     C12779   3.172   6.410   1.233  0.4375  0.7743 -0.1256
  836MOL0     C12780   3.080   6.357   1.135 -0.3799  0.0149 -0.1317
  836MOL0     C12781   2.965   6.302   1.184  0.8577 -0.8477  0.6099
  836MOL0     C12782   2.935   6.295   1.317 -0.2550  0.2396 -0.2133
  836MOL0     O12783   2.811   6.241   1.344  0.6909  0.0108 -0.0405
  836MOL0     C12784   2.737   6.288   1.457 -0.4399 -0.4904 -0.3742
  836MOL0     C12785   2.592   6.256   1.409  0.2043 -0.4983  0.4735
  836MOL0     C12786   2.572   6.104   1.400  0.1714 -0.2851 -0.2627
  836MOL0     C12787   2.495   6.075   1.268 -0.5698 -0.4588 -0.4270
  836MOL0     C12788   2.351   6.095   1.281 -0.5106  0.2600  0.1329
  836MOL0     C12789   2.230   6.111   1.301  0.2878 -0.2110  0.9435
  836MOL0     C12790   3.018   6.362   1.414  0.2935  0.5873  0.2128
  836MOL0     C12791   3.135   6.414   1.371  0.8738  0.2031 -0.1928
  836MOL0     C12792   3.219   6.488   1.470 -0.6000  0.4811 -0.7279
  836MOL0     H12793   3.517   6.416   1.024  2.8541 -0.8544 -0.8224
  836MOL0     H12794   3.740   6.506   0.951 -0.5230  0.0526 -0.2409
  836MOL0     H12795   3.776   6.961   0.850  4.3043  4.6248  0.9982
  836MOL0     H12796   3.734   6.928   1.015  1.4276  0.0699  0.9734
  836MOL0     H12797   3.965   7.031   0.981  2.1504  0.1469 -2.5396
  836MOL0     H12798   4.020   6.871   0.932 -1.6645 -0.6934 -1.2608
  836MOL0     H12799   3.870   6.912   1.184 -0.1992 -3.5765  2.3860
  836MOL0     H12800   4.042   6.932   1.183 -1.2260  0.1704  4.0482
  836MOL0     H12801   3.975   6.705   1.258  0.4620 -2.8223 -1.6121
  836MOL0     H12802   3.895   6.663   1.112 -0.6736 -1.4561  1.6177
  836MOL0     H12803   4.111   6.677   0.992 -1.5132  3.1462 -0.2174
  836MOL0     H12804   4.193   6.723   1.141 -1.6481  1.5260  1.1575
  836MOL0     H12805   4.158   6.500   1.226  2.4265  0.0447 -1.4524
  836MOL0     H12806   4.011   6.471   1.143  0.4043  1.0239  2.7725
  836MOL0     H12807   4.285   6.495   1.016 -1.1122  0.5360 -4.9391
  836MOL0     H12808   4.153   6.457   0.916  1.0340  0.0227 -0.8982
  836MOL0     H12809   4.092   6.267   1.083  0.2230  0.6405  1.9860
  836MOL0     H12810   4.229   6.244   0.968  0.0344  1.7685 -0.0341
  836MOL0     H12811   4.479   6.366   1.179 -0.7844 -0.8752 -1.4933
  836MOL0     H12812   4.536   6.238   1.509 -0.0954 -1.4945 -1.5004
  836MOL0     H12813   4.601   6.105   1.411 -1.6310 -0.7379 -0.6198
  836MOL0     H12814   4.707   6.279   1.254  0.3461 -1.3912 -0.0587
  836MOL0     H12815   4.648   6.410   1.366 -1.3556 -0.9375  5.4894
  836MOL0     H12816   4.812   6.174   1.462 -1.4995 -1.3959  2.4248
  836MOL0     H12817   4.774   6.339   1.532  0.9428 -1.1362  0.6986
  836MOL0     H12818   4.888   6.389   1.280 -0.9778 -1.3516 -0.3367
  836MOL0     H12819   4.984   6.259   1.360  1.3008  0.9622  2.6303
  836MOL0     H12820   5.047   6.205   1.573 -2.0011  1.4428 -0.8105
  836MOL0     H12821   5.234   6.182   1.745  0.6349 -0.8553 -0.9609
  836MOL0     H12822   5.572   6.729   1.936 -0.6108 -0.0438  0.6115
  836MOL0     H12823   5.787   6.740   2.026 -2.7019  1.2156  0.0645
  836MOL0     H12824   6.023   6.728   1.987 -1.4522 -0.2528  0.8012
  836MOL0     H12825   5.966   6.712   2.154 -1.4805 -2.0633 -0.0949
  836MOL0     H12826   6.177   6.563   2.173 -3.2667 -1.2258 -1.2667
  836MOL0     H12827   6.231   6.651   2.036 -2.6912  2.3271 -1.5678
  836MOL0     H12828   6.151   6.869   2.162 -0.7427 -0.6377 -2.8004
  836MOL0     H12829   6.176   6.769   2.312 -1.8462  4.6331 -0.2873
  836MOL0     H12830   6.381   6.808   2.105  2.6362  1.4327  1.4949
  836MOL0     H12831   6.398   6.716   2.255  0.1136 -0.4583  0.3241
  836MOL0     H12832   6.365   6.926   2.381  0.2949 -1.3787  0.2646
  836MOL0     H12833   6.334   7.012   2.230 -0.0312 -0.4330  0.3515
  836MOL0     H12834   6.587   6.841   2.283 -0.2443 -0.4492 -0.8361
  836MOL0     H12835   6.569   6.964   2.153 -0.4266  0.5094  0.2028
  836MOL0     H12836   6.562   7.063   2.433 -0.2659  3.1654 -0.2861
  836MOL0     H12837   6.575   7.149   2.282  0.5018 -0.2255  0.1113
  836MOL0     H12838   6.801   7.068   2.247 -0.9791  1.8937  0.8082
  836MOL0     H12839   6.804   7.145   2.396 -0.8026  1.1090 -1.3542
  836MOL0     H12840   5.854   6.327   1.971  1.2874  1.0494 -0.3403
  836MOL0     H12841   5.634   6.300   1.876  0.6603  0.8166 -2.3414
  836MOL0     H12842   5.278   6.611   1.743  1.9855 -1.6844  0.1475
  836MOL0     H12843   5.109   6.630   1.575 -0.4825 -1.1736 -0.4755
  836MOL0     H12844   3.540   6.891   0.890 -1.6703 -0.3733 -0.5515
  836MOL0     H12845   3.333   6.811   0.977 -0.0399 -0.4380 -0.5462
  836MOL0     H12846   3.092   6.365   1.027 -2.5486 -0.0716 -0.4208
  836MOL0     H12847   2.898   6.256   1.112 -0.9043 -0.2235  1.7861
  836MOL0     H12848   2.750   6.395   1.478 -2.1570 -0.5250  1.1279
  836MOL0     H12849   2.761   6.237   1.551  1.1643 -1.9900 -1.5327
  836MOL0     H12850   2.579   6.300   1.310 -0.7953 -0.5346  0.5760
  836MOL0     H12851   2.522   6.297   1.483  1.6340  0.5156  1.3175
  836MOL0     H12852   2.514   6.056   1.479  1.0613 -1.2350 -0.1444
  836MOL0     H12853   2.658   6.035   1.404 -1.6456 -2.6395  0.3879
  836MOL0     H12854   2.536   6.130   1.182 -1.3197  0.3902 -0.2569
  836MOL0     H12855   2.504   5.967   1.255 -1.5729 -0.5600 -0.3596
  836MOL0     H12856   2.124   6.120   1.298  0.3395  0.2696  0.2535
  836MOL0     H12857   2.989   6.367   1.518  0.5039 -0.1422  0.3063
  836MOL0     H12858   3.289   6.407   1.496 -2.3113 -0.9669 -0.4585
  836MOL0     H12859   3.262   6.581   1.433  1.4773  0.5675  1.5964
  836MOL0     H12860   3.166   6.516   1.562  1.1098  0.3154  0.3640
  837MOL0     O12861   7.896   6.363   9.183 -0.8929 -0.6772 -0.0568
  837MOL0     C12862   7.841   6.294   9.264 -0.1540 -0.0498 -0.8571
  837MOL0     O12863   7.910   6.231   9.370  0.2987 -0.2694  0.4903
  837MOL0     C12864   8.029   6.269   9.408  1.0877  0.3473  0.3753
  837MOL0     C12865   8.137   6.279   9.322 -0.0007 -0.1367  0.0819
  837MOL0     C12866   8.271   6.280   9.370  0.0849  0.2280 -0.6186
  837MOL0     C12867   8.298   6.304   9.504 -0.2122 -0.6977 -0.7957
  837MOL0     O12868   8.428   6.317   9.546 -0.2556  0.0543 -0.7330
  837MOL0     C12869   8.461   6.417   9.645 -0.1801  0.4503 -0.2905
  837MOL0     C12870   8.544   6.373   9.764 -0.4124  0.8502 -0.3430
  837MOL0     C12871   8.625   6.473   9.830 -0.5261 -0.6405  0.8261
  837MOL0     C12872   8.647   6.448   9.987  0.0400  0.1332 -0.4611
  837MOL0     C12873   8.733   6.559  10.042 -0.6496  0.1734  0.0568
  837MOL0     C12874   8.721   6.560  10.197  0.4716 -0.0687  0.1825
  837MOL0     C12875   8.855   6.568  10.259 -0.6512 -0.3349  0.4008
  837MOL0     C12876   8.849   6.562  10.412  0.4004  0.2423  0.2188
  837MOL0     N12877   8.976   6.595  10.471 -0.0736  0.0049 -0.0652
  837MOL0     C12878   9.095   6.538  10.437  0.8589  0.1373  0.3901
  837MOL0     C12879   9.191   6.627  10.484  0.1646  1.0875  0.1430
  837MOL0     C12880   9.343   6.596  10.458  0.6066 -0.1402  0.0240
  837MOL0     C12881   9.403   6.539  10.586 -0.0448 -0.1015  0.4782
  837MOL0     C12882   9.469   6.399  10.554 -0.2167  0.2746  0.0044
  837MOL0     C12883   9.598   6.411  10.475 -0.0512 -0.1982  0.2544
  837MOL0     O12884   9.696   6.492  10.550  0.1517  1.3198 -0.1486
  837MOL0     C12885   9.797   6.553  10.474  0.1077 -0.4419 -0.9917
  837MOL0     C12886   9.889   6.489  10.391  0.0355  0.0590  0.4480
  837MOL0     C12887   9.976   6.571  10.314  0.4587 -0.3518  0.3231
  837MOL0     C12888   9.989   6.712  10.337  0.2549 -0.1266  0.2619
  837MOL0     C12889  10.089   6.791  10.256 -0.3218  0.0953  0.4736
  837MOL0     O12890  10.134   6.730  10.144  0.2463  0.1246  0.1599
  837MOL0     C12891  10.249   6.780  10.082  0.7086 -0.5905 -1.1619
  837MOL0     C12892  10.370   6.790  10.153  0.2707 -0.0559 -0.4852
  837MOL0     C12893  10.478   6.829  10.078 -0.4670  0.1892 -0.0719
  837MOL0     C12894  10.461   6.880   9.948  0.0100  0.4205 -0.1827
  837MOL0     O12895  10.572   6.920   9.881 -0.5464 -0.1614  0.3314
  837MOL0     C12896  10.572   7.049   9.817  0.5406  0.2682  0.6517
  837MOL0     C12897  10.586   7.016   9.674  0.8716  0.1374 -0.0156
  837MOL0     C12898  10.733   6.961   9.634 -0.8317 -0.8136  0.0395
  837MOL0     C12899  10.732   6.932   9.489  0.8817 -0.3411 -0.2451
  837MOL0     C12900  10.865   6.879   9.432 -1.4126 -0.3108 -0.1813
  837MOL0     C12901  10.901   6.726   9.465  0.2908 -1.2173  0.2853
  837MOL0     C12902  11.025   6.674   9.386  0.6295 -0.2921  0.0481
  837MOL0     C12903  11.050   6.537   9.463 -0.0134 -0.3558 -0.2366
  837MOL0    Cl12904  11.191   6.447   9.398 -0.1219  0.1516  0.0953
  837MOL0     C12905  10.336   6.905   9.899 -0.0753  0.6790 -1.0308
  837MOL0     C12906  10.229   6.841   9.958  0.5093 -1.0388  0.0423
  837MOL0     O12907  10.108   6.912  10.286 -0.0796  0.3221  0.8315
  837MOL0     C12908   9.901   6.770  10.428 -0.5882  0.0116  0.8883
  837MOL0     C12909   9.811   6.688  10.494  0.6120  0.2814 -0.1279
  837MOL0     N12910   9.125   6.721  10.564  1.2220  0.7207 -0.4463
  837MOL0     N12911   9.002   6.705  10.551 -0.1838  0.4652 -0.4492
  837MOL0     C12912   8.188   6.297   9.593 -0.2935  0.0643  0.1446
  837MOL0     C12913   8.058   6.276   9.549 -0.1695  0.9371  0.1936
  837MOL0     C12914   7.696   6.273   9.250 -0.6271  0.5577  1.1005
  837MOL0     C12915   7.634   6.349   9.151 -0.2021 -0.1427  0.3079
  837MOL0     C12916   7.494   6.353   9.139  0.7234  0.3037 -0.0389
  837MOL0     C12917   7.415   6.270   9.227  0.2521  0.7835  0.0273
  837MOL0     O12918   7.277   6.256   9.231 -0.6160  0.4803 -0.3754
  837MOL0     C12919   7.201   6.363   9.172  0.1042 -1.1103 -0.2703
  837MOL0     C12920   7.080   6.385   9.261  0.7582  0.1462  0.6521
  837MOL0     C12921   7.103   6.431   9.403 -0.2734 -0.3967  0.1955
  837MOL0     C12922   6.991   6.513   9.466  0.5268  0.1474  0.0304
  837MOL0     C12923   6.867   6.437   9.480 -0.1000 -0.6603 -0.3023
  837MOL0     C12924   6.770   6.371   9.468 -0.3610  0.9846 -0.5569
  837MOL0     C12925   7.480   6.181   9.319 -0.4376  0.3658  1.3850
  837MOL0     C12926   7.620   6.190   9.330  0.2502  0.2259  0.7530
  837MOL0     C12927   7.677   6.077   9.429 -0.0442  0.4182  0.0055
  837MOL0     H12928   8.114   6.284   9.216  1.6170 -0.3237 -0.2943
  837MOL0     H12929   8.361   6.277   9.310  0.1726 -0.6643 -0.4635
  837MOL0     H12930   8.515   6.490   9.583 -0.0668  0.8976  0.3199
  837MOL0     H12931   8.374   6.475   9.675 -2.1482 -1.4578 -1.9772
  837MOL0     H12932   8.620   6.302   9.730  0.4345  2.7908 -2.8638
  837MOL0     H12933   8.472   6.328   9.833  2.7328  0.2061  2.8640
  837MOL0     H12934   8.572   6.568   9.819 -0.4854 -0.6884  0.1874
  837MOL0     H12935   8.717   6.475   9.772 -0.2989  0.5257  1.1952
  837MOL0     H12936   8.547   6.456  10.030  1.7649  1.1630  3.9729
  837MOL0     H12937   8.700   6.354  10.005  2.4912  1.3024 -1.1093
  837MOL0     H12938   8.835   6.556  10.004 -0.9644  2.4247 -1.1366
  837MOL0     H12939   8.691   6.654  10.007 -2.7664 -0.8897 -0.4448
  837MOL0     H12940   8.665   6.645  10.236  0.8305  0.1766  0.1732
  837MOL0     H12941   8.665   6.472  10.231  0.7555  0.5848  2.4763
  837MOL0     H12942   8.908   6.658  10.226 -0.2906  0.0575  1.9466
  837MOL0     H12943   8.918   6.486  10.223 -0.0865 -0.4455  1.5945
  837MOL0     H12944   8.771   6.629  10.448 -0.9311 -1.0785 -0.0859
  837MOL0     H12945   8.837   6.456  10.439 -1.3781  0.8064  1.8997
  837MOL0     H12946   9.114   6.449  10.379  4.5621  1.6605 -1.0441
  837MOL0     H12947   9.351   6.529  10.371 -0.5083  0.8919 -0.9110
  837MOL0     H12948   9.388   6.689  10.423 -0.8580 -0.0787 -1.8965
  837MOL0     H12949   9.474   6.608  10.631 -0.5955 -0.8275  2.5430
  837MOL0     H12950   9.323   6.519  10.658  0.2009  1.2370  1.1580
  837MOL0     H12951   9.408   6.333  10.491  0.9667  0.5529 -1.5130
  837MOL0     H12952   9.478   6.340  10.645 -0.0228  1.5891  0.8649
  837MOL0     H12953   9.589   6.452  10.374  2.6713 -2.0491 -0.8726
  837MOL0     H12954   9.650   6.315  10.467  0.9017  0.4408 -1.9493
  837MOL0     H12955   9.878   6.381  10.390 -1.4263  0.1929 -0.3495
  837MOL0     H12956  10.044   6.517  10.250 -2.2753 -2.9578 -0.6209
  837MOL0     H12957  10.382   6.742  10.250  1.3379  1.3699  0.1228
  837MOL0     H12958  10.573   6.843  10.129 -1.0523  0.5685  0.9356
  837MOL0     H12959  10.479   7.104   9.836 -3.0518 -3.8971 -2.6197
  837MOL0     H12960  10.656   7.109   9.850 -0.0694  1.8810 -0.5723
  837MOL0     H12961  10.511   6.938   9.659  1.6225 -1.1781  2.5413
  837MOL0     H12962  10.571   7.106   9.612  0.5175  0.1564  0.0984
  837MOL0     H12963  10.805   7.040   9.657 -1.3688 -0.9821  2.6127
  837MOL0     H12964  10.761   6.875   9.695  1.5001  0.3290  0.7057
  837MOL0     H12965  10.703   7.021   9.433  1.6322  0.4043  0.5436
  837MOL0     H12966  10.648   6.866   9.463  0.6947 -0.1102 -0.2223
  837MOL0     H12967  10.949   6.944   9.459 -3.2115  0.7117  3.5902
  837MOL0     H12968  10.866   6.877   9.323  0.9909  1.9705 -0.3045
  837MOL0     H12969  10.914   6.714   9.573 -0.8586  0.2491  0.6197
  837MOL0     H12970  10.813   6.667   9.437  1.0475 -1.4519 -1.7428
  837MOL0     H12971  11.116   6.733   9.400  1.3107 -1.1172 -0.7430
  837MOL0     H12972  11.006   6.663   9.279 -0.1608 -0.8109  0.2334
  837MOL0     H12973  11.062   6.554   9.570 -0.4699  0.8194 -0.3618
  837MOL0     H12974  10.957   6.481   9.449 -0.2322  0.1646 -0.8972
  837MOL0     H12975  10.323   6.953   9.802 -0.6028 -0.9373 -1.8031
  837MOL0     H12976  10.130   6.857   9.916  0.4416  1.0238  0.8720
  837MOL0     H12977   9.913   6.877  10.446  4.8338 -0.3266  0.9192
  837MOL0     H12978   9.746   6.742  10.561  1.9955  0.5028  1.0775
  837MOL0     H12979   8.202   6.308   9.700 -0.6708 -0.6756  0.2725
  837MOL0     H12980   7.976   6.265   9.619 -1.0970  2.7485 -0.5319
  837MOL0     H12981   7.683   6.419   9.083 -1.4083 -1.8905 -2.5782
  837MOL0     H12982   7.448   6.426   9.073 -0.0490 -0.3420 -0.2307
  837MOL0     H12983   7.153   6.315   9.086 -3.3890 -0.3445  1.0902
  837MOL0     H12984   7.251   6.456   9.144  0.9761 -1.2142  0.8799
  837MOL0     H12985   7.021   6.293   9.260 -1.1895  1.2940 -2.0511
  837MOL0     H12986   7.024   6.467   9.215  3.6539  1.4487 -0.8244
  837MOL0     H12987   7.193   6.492   9.400 -0.5725  0.0134 -0.6148
  837MOL0     H12988   7.134   6.349   9.469  1.0575 -1.4902 -1.6610
  837MOL0     H12989   7.025   6.540   9.567 -1.9502 -1.9380  1.5622
  837MOL0     H12990   6.976   6.605   9.409 -2.3141  0.2658  0.8114
  837MOL0     H12991   6.676   6.319   9.464 -1.5003  2.7838  1.0666
  837MOL0     H12992   7.438   6.115   9.394 -3.5827  3.4365  2.5614
  837MOL0     H12993   7.769   6.043   9.380  0.7319  0.0160  1.6661
  837MOL0     H12994   7.708   6.126   9.522  2.0844 -0.4332 -0.1981
  837MOL0     H12995   7.616   5.990   9.453  2.8216 -2.2476 -1.6231
  838MOL0     O12996   3.849   9.673   2.788  0.4945  0.5433 -0.0096
  838MOL0     C12997   3.878   9.633   2.895 -0.0786 -0.5222 -0.1477
  838MOL0     O12998   3.986   9.676   2.966  0.0416 -0.5757 -0.3224
  838MOL0     C12999   4.079   9.744   2.903 -0.8603  0.0562 -0.4151
  838MOL0     C13000   4.160   9.674   2.806  1.5680 -0.1601 -0.2798
  838MOL0     C13001   4.257   9.736   2.735 -0.0474  0.0231 -0.1825
  838MOL0     C13002   4.292   9.866   2.769  0.7487 -1.3076  0.4014
  838MOL0     O13003   4.367   9.936   2.684  0.4973  0.0097 -0.4037
  838MOL0     C13004   4.504   9.914   2.712 -0.2286  0.3660 -0.4706
  838MOL0     C13005   4.591   9.983   2.618  0.1407  0.1099  0.0621
  838MOL0     C13006   4.737   9.961   2.677 -0.4060  0.1970  0.1147
  838MOL0     C13007   4.839  10.044   2.598 -0.4268 -0.6364 -0.0659
  838MOL0     C13008   4.969  10.011   2.651 -0.0256  0.9252 -0.0937
  838MOL0     C13009   5.079  10.104   2.581  0.8094 -0.6047  0.3912
  838MOL0     C13010   5.222  10.063   2.606 -0.3372 -0.0769  0.0977
  838MOL0     C13011   5.323  10.163   2.564  0.4334 -0.1433 -0.4306
  838MOL0     N13012   5.453  10.106   2.602  0.0613  0.5016 -1.3080
  838MOL0     C13013   5.531  10.151   2.706 -0.1336  0.5871 -0.3966
  838MOL0     C13014   5.636  10.065   2.701  0.1018 -0.6947  0.4063
  838MOL0     C13015   5.761  10.065   2.786  0.0266  0.0306  0.6345
  838MOL0     C13016   5.871  10.165   2.741 -0.6333 -0.0600 -0.3900
  838MOL0     C13017   5.971  10.206   2.850 -0.5870  0.2303  0.1811
  838MOL0     C13018   6.088  10.288   2.782  0.3925  0.3590 -1.1079
  838MOL0     O13019   6.034  10.423   2.798 -0.5155 -0.7076  0.4136
  838MOL0     C13020   6.117  10.512   2.745  0.0790  0.5341  0.3900
  838MOL0     C13021   6.136  10.628   2.813 -0.1237  0.3379  0.2684
  838MOL0     C13022   6.216  10.723   2.760 -0.0982 -0.1756 -0.0392
  838MOL0     C13023   6.280  10.712   2.638  0.5145  0.2299  0.5664
  838MOL0     C13024   6.360  10.824   2.571  0.3974  0.3313  0.6664
  838MOL0     O13025   6.406  10.801   2.441  0.1939  0.5697  0.2607
  838MOL0     C13026   6.475  10.910   2.388  0.3251  0.4954 -0.0564
  838MOL0     C13027   6.412  11.000   2.300 -0.3536  0.1653  0.0347
  838MOL0     C13028   6.485  11.096   2.231  0.0292  0.2775  0.0337
  838MOL0     C13029   6.624  11.102   2.258 -0.3049  0.2320 -0.1640
  838MOL0     O13030   6.698  11.194   2.188  0.0587 -0.0200  0.0051
  838MOL0     C13031   6.647  11.263   2.075 -0.1335 -0.0445  0.4129
  838MOL0     C13032   6.750  11.366   2.040 -0.1994  0.2536  0.0926
  838MOL0     C13033   6.878  11.290   2.007 -0.2682 -0.9179  0.6616
  838MOL0     C13034   6.986  11.391   1.965 -0.0183 -0.6709  0.5350
  838MOL0     C13035   7.122  11.320   1.928 -0.2668 -1.1016  0.4886
  838MOL0     C13036   7.232  11.426   1.899 -0.0946  0.6671  0.6957
  838MOL0     C13037   7.257  11.527   2.005  0.6844 -0.3066 -0.1467
  838MOL0     C13038   7.404  11.555   2.040 -0.4236  0.0388  0.2904
  838MOL0    Cl13039   7.489  11.619   1.895  0.4846  0.1784 -0.2831
  838MOL0     C13040   6.688  11.017   2.355  0.6505 -0.3549  0.5538
  838MOL0     C13041   6.607  10.923   2.416  0.1750  0.1715 -0.1864
  838MOL0     O13042   6.377  10.923   2.631  0.8263 -0.8878  0.4686
  838MOL0     C13043   6.264  10.596   2.564  0.7914  0.2298 -0.6956
  838MOL0     C13044   6.175  10.501   2.620 -0.7162 -0.3656  0.6465
  838MOL0     N13045   5.617   9.973   2.600  0.0792  0.1805  0.2243
  838MOL0     N13046   5.507   9.995   2.540  0.1559  0.5877  0.3036
  838MOL0     C13047   4.228   9.937   2.882 -0.5935  0.6208  0.5809
  838MOL0     C13048   4.118   9.867   2.948  0.1338 -0.9177  0.1038
  838MOL0     C13049   3.781   9.542   2.958 -0.0841 -0.0901  0.3514
  838MOL0     C13050   3.670   9.517   2.876  0.8130 -0.8278 -0.6553
  838MOL0     C13051   3.570   9.432   2.926 -0.6007  0.8816  0.8513
  838MOL0     C13052   3.583   9.378   3.054  0.3587  0.0898 -0.2964
  838MOL0     O13053   3.497   9.283   3.105  0.6036  0.5567  1.4348
  838MOL0     C13054   3.362   9.329   3.133 -0.3980 -0.2125 -0.6559
  838MOL0     C13055   3.307   9.254   3.251 -0.9344  0.5544 -1.4138
  838MOL0     C13056   3.186   9.325   3.318 -0.7449  0.0139  0.9777
  838MOL0     C13057   3.062   9.316   3.245  0.3306 -0.0564 -0.4890
  838MOL0     C13058   3.058   9.394   3.115  0.5486 -1.2491  0.4113
  838MOL0     C13059   3.050   9.452   3.009  0.1517 -0.3538 -0.4998
  838MOL0     C13060   3.695   9.405   3.141 -0.0391  0.7022  0.4818
  838MOL0     C13061   3.794   9.484   3.083  0.5215  0.5970 -1.1516
  838MOL0     C13062   3.919   9.494   3.159 -0.3220  0.9186 -0.7920
  838MOL0     H13063   4.140   9.572   2.777  0.1622 -0.8170  2.5558
  838MOL0     H13064   4.308   9.701   2.646  1.8885 -0.5574  1.1040
  838MOL0     H13065   4.517   9.953   2.813 -1.8927 -0.2168 -0.0069
  838MOL0     H13066   4.537   9.810   2.705 -0.2274  0.4386 -1.7476
  838MOL0     H13067   4.558  10.087   2.628 -1.1927 -0.4509  2.1850
  838MOL0     H13068   4.584   9.953   2.513  1.4339 -1.0591  0.2799
  838MOL0     H13069   4.755   9.853   2.672 -5.7063 -0.8662 -2.2877
  838MOL0     H13070   4.750   9.993   2.781 -1.6409  0.0898  0.3114
  838MOL0     H13071   4.838  10.018   2.491 -3.9700 -3.1198  0.3712
  838MOL0     H13072   4.806  10.148   2.607  0.9879 -0.1783  0.0384
  838MOL0     H13073   4.976  10.036   2.757  0.8559 -0.6035  0.2353
  838MOL0     H13074   4.988   9.904   2.644 -0.6741  0.7115  1.1504
  838MOL0     H13075   5.067  10.094   2.473  0.9093  0.4152  0.2806
  838MOL0     H13076   5.053  10.206   2.611 -3.4685 -1.1077 -0.9542
  838MOL0     H13077   5.234   9.971   2.548 -1.0001  0.2637 -0.5962
  838MOL0     H13078   5.235  10.041   2.712  0.6487 -1.1633 -0.2185
  838MOL0     H13079   5.322  10.179   2.456  2.1186  2.2094 -0.1620
  838MOL0     H13080   5.307  10.260   2.612  0.6937 -0.8152  1.0734
  838MOL0     H13081   5.509  10.238   2.768  0.2200 -0.2521  0.9372
  838MOL0     H13082   5.738  10.086   2.890  3.3246  0.0042  1.4878
  838MOL0     H13083   5.800   9.963   2.778  0.9229  0.4554 -0.8810
  838MOL0     H13084   5.921  10.122   2.654 -1.7610  0.0675 -1.1252
  838MOL0     H13085   5.818  10.255   2.708  0.3977  1.5405  2.0725
  838MOL0     H13086   6.013  10.110   2.881 -1.3337  0.2942  1.5151
  838MOL0     H13087   5.935  10.257   2.941  1.0007  0.0993  0.9095
  838MOL0     H13088   6.100  10.251   2.679  0.0712 -1.9133 -0.3812
  838MOL0     H13089   6.187  10.266   2.823  0.4152 -2.6736 -2.4909
  838MOL0     H13090   6.080  10.631   2.906 -1.4283  1.3770 -0.5223
  838MOL0     H13091   6.242  10.818   2.805 -2.8650  0.1234  1.1276
  838MOL0     H13092   6.311  10.979   2.266  1.2412  0.3088 -6.0120
  838MOL0     H13093   6.435  11.166   2.165  2.2003  1.9442  0.0499
  838MOL0     H13094   6.632  11.195   1.991 -3.2363 -1.7120  2.1143
  838MOL0     H13095   6.557  11.319   2.104 -0.2546 -0.2570  0.4517
  838MOL0     H13096   6.712  11.431   1.961  0.4686 -0.1743 -0.5864
  838MOL0     H13097   6.753  11.416   2.137 -2.0867 -2.1276  1.5108
  838MOL0     H13098   6.914  11.242   2.098 -1.8673 -3.7485 -0.0787
  838MOL0     H13099   6.873  11.214   1.928 -0.1775  2.2961 -2.7281
  838MOL0     H13100   6.993  11.464   2.047  3.4873  0.6235 -0.7458
  838MOL0     H13101   6.959  11.447   1.876  1.7371  0.0755  0.4296
  838MOL0     H13102   7.108  11.257   1.840  0.8595  0.4681 -0.8790
  838MOL0     H13103   7.147  11.253   2.010  2.6219 -2.3991 -1.2951
  838MOL0     H13104   7.326  11.382   1.863 -0.3107  0.1307  0.7845
  838MOL0     H13105   7.189  11.481   1.815 -3.8246  1.8804  3.1669
  838MOL0     H13106   7.208  11.493   2.097 -0.6843 -1.8637 -1.3898
  838MOL0     H13107   7.218  11.618   1.958  0.5296 -1.1890 -1.8103
  838MOL0     H13108   7.415  11.623   2.125 -1.0615  0.3261  0.1504
  838MOL0     H13109   7.453  11.463   2.075  1.3927 -0.3825 -2.9687
  838MOL0     H13110   6.796  11.014   2.360  0.7079 -1.3099 -0.6039
  838MOL0     H13111   6.634  10.846   2.488  0.0279 -0.1856 -0.5050
  838MOL0     H13112   6.311  10.583   2.468  2.8133  3.4087 -0.2848
  838MOL0     H13113   6.156  10.412   2.562  0.7675  0.0718 -0.5681
  838MOL0     H13114   4.257  10.037   2.910 -0.1706  0.3234  1.2395
  838MOL0     H13115   4.074   9.910   3.038  3.5291  3.0977  0.1401
  838MOL0     H13116   3.650   9.559   2.778  0.6980 -2.0218 -1.1696
  838MOL0     H13117   3.489   9.393   2.866 -0.4739  0.7901  0.7398
  838MOL0     H13118   3.296   9.310   3.048 -1.3397 -1.3503  0.2937
  838MOL0     H13119   3.353   9.436   3.151  0.5059 -0.4130  1.3380
  838MOL0     H13120   3.391   9.245   3.320 -0.7351  0.8902 -1.6079
  838MOL0     H13121   3.281   9.151   3.223  0.1347 -0.4831  1.1541
  838MOL0     H13122   3.205   9.431   3.336 -1.7347  0.1707  1.1353
  838MOL0     H13123   3.174   9.268   3.411  2.4913 -0.9167  0.9690
  838MOL0     H13124   3.042   9.212   3.218  4.3554 -0.6032 -2.0864
  838MOL0     H13125   2.983   9.363   3.305  1.0733 -1.0357  1.3417
  838MOL0     H13126   3.044   9.509   2.919 -5.5226 -2.3997 -1.9138
  838MOL0     H13127   3.706   9.347   3.232  0.8471  1.4027  0.8345
  838MOL0     H13128   3.909   9.454   3.260  1.5989  2.2907  0.0059
  838MOL0     H13129   3.999   9.444   3.105 -1.8788 -1.1426 -1.2967
  838MOL0     H13130   3.943   9.596   3.191  0.9473 -0.9101  5.3880
  839MOL0     O13131   2.657   8.934   3.885  0.1480 -0.0151 -0.1722
  839MOL0     C13132   2.625   8.822   3.912  0.3742  0.8281  0.1348
  839MOL0     O13133   2.557   8.739   3.828 -0.6002 -0.3919 -0.0867
  839MOL0     C13134   2.538   8.788   3.702  0.1651 -0.5353  0.0007
  839MOL0     C13135   2.639   8.777   3.607  0.4610 -0.3228  0.0668
  839MOL0     C13136   2.608   8.812   3.477  0.5422 -0.3996  0.2304
  839MOL0     C13137   2.480   8.840   3.430  0.5131  0.6161 -0.2410
  839MOL0     O13138   2.453   8.851   3.300 -0.2525  0.5086  0.1070
  839MOL0     C13139   2.433   8.731   3.228 -0.0133  0.7792 -0.0423
  839MOL0     C13140   2.284   8.707   3.216 -0.0546  0.7212  0.3549
  839MOL0     C13141   2.229   8.787   3.097  0.1613 -0.2219  0.4785
  839MOL0     C13142   2.207   8.941   3.134 -0.1363  1.1880 -0.0134
  839MOL0     C13143   2.154   9.015   3.008 -1.3096 -0.1227  0.3078
  839MOL0     C13144   2.272   9.033   2.907  0.1891 -0.1044  0.2822
  839MOL0     C13145   2.395   9.119   2.964  0.1338  0.8862  0.9121
  839MOL0     C13146   2.495   9.140   2.847 -0.4724 -0.1765  0.1393
  839MOL0     N13147   2.596   9.039   2.830  0.1176  0.7654 -0.0684
  839MOL0     C13148   2.595   8.917   2.899  0.1152  0.7297 -0.5936
  839MOL0     C13149   2.714   8.863   2.877 -0.5942  0.6769 -0.0322
  839MOL0     C13150   2.763   8.725   2.926  0.7664 -0.2592  0.4281
  839MOL0     C13151   2.900   8.731   2.975 -0.5780 -0.0757  0.2340
  839MOL0     C13152   2.906   8.730   3.129 -0.4588  0.2325  0.0183
  839MOL0     C13153   2.834   8.855   3.189 -0.9681 -0.3916  0.3940
  839MOL0     O13154   2.875   8.987   3.146 -1.0595 -0.0166 -0.1178
  839MOL0     C13155   2.793   9.098   3.167  0.4560 -0.9132  0.3401
  839MOL0     C13156   2.687   9.104   3.266 -0.3699 -0.3594 -0.2479
  839MOL0     C13157   2.597   9.207   3.282  0.0565 -0.5493  0.5564
  839MOL0     C13158   2.622   9.319   3.201 -0.0753 -0.4928 -0.3609
  839MOL0     C13159   2.544   9.442   3.207 -0.0622  0.7714 -0.6008
  839MOL0     O13160   2.421   9.416   3.252 -0.2109  0.1629  0.0237
  839MOL0     C13161   2.328   9.515   3.235 -0.3862  0.6128  0.1246
  839MOL0     C13162   2.263   9.558   3.352  0.8258  0.3257  0.1963
  839MOL0     C13163   2.147   9.636   3.337  0.1663 -0.0196 -0.0478
  839MOL0     C13164   2.094   9.670   3.210 -0.2190  0.2699  0.6247
  839MOL0     O13165   1.987   9.759   3.209  0.2341  0.3452  0.4581
  839MOL0     C13166   1.947   9.813   3.334 -0.5362 -0.4309 -0.1666
  839MOL0     C13167   1.859   9.939   3.318  0.3238  0.4238  0.5977
  839MOL0     C13168   1.827  10.004   3.448  0.3177 -0.9112 -0.2807
  839MOL0     C13169   1.742  10.133   3.434 -0.1357 -0.2358  0.4072
  839MOL0     C13170   1.729  10.228   3.555  0.8795  0.8391 -0.0579
  839MOL0     C13171   1.585  10.246   3.612  0.4711 -1.1759  0.0833
  839MOL0     C13172   1.522  10.114   3.642 -0.2784 -0.9444 -0.1573
  839MOL0     C13173   1.380  10.118   3.686  0.1990 -0.0192  0.1179
  839MOL0    Cl13174   1.327   9.951   3.730  0.3559 -0.0187  0.4894
  839MOL0     C13175   2.166   9.628   3.093  0.4246  0.1223  0.8186
  839MOL0     C13176   2.279   9.556   3.107  0.0304  1.0819  0.4502
  839MOL0     O13177   2.582   9.552   3.156  0.5774  0.1061 -0.0918
  839MOL0     C13178   2.722   9.307   3.101 -0.6620 -0.1766 -0.1562
  839MOL0     C13179   2.803   9.194   3.073 -0.7810 -0.9024 -0.1476
  839MOL0     N13180   2.785   8.966   2.811 -0.3870  0.3102 -0.0381
  839MOL0     N13181   2.717   9.061   2.781  0.8194 -0.3116  0.1648
  839MOL0     C13182   2.380   8.847   3.520  0.5864 -0.1666  0.1833
  839MOL0     C13183   2.415   8.825   3.655  1.0325  0.5529  0.8242
  839MOL0     C13184   2.650   8.764   4.045 -0.4110  0.5685  1.0236
  839MOL0     C13185   2.568   8.656   4.101 -0.0531  0.2910  0.1895
  839MOL0     C13186   2.585   8.608   4.230 -0.1106  0.7279  0.0853
  839MOL0     C13187   2.686   8.653   4.303 -0.1349  0.4307  0.0771
  839MOL0     O13188   2.699   8.591   4.424  0.0117  0.1880 -0.8577
  839MOL0     C13189   2.721   8.675   4.541 -0.0458 -0.2124 -0.3308
  839MOL0     C13190   2.708   8.590   4.665 -0.5657 -0.0997 -0.2300
  839MOL0     C13191   2.557   8.546   4.696  0.1548 -0.0012  0.1075
  839MOL0     C13192   2.538   8.481   4.834 -0.1515  0.2686 -0.5610
  839MOL0     C13193   2.551   8.587   4.939  0.2240  0.0690  0.2825
  839MOL0     C13194   2.566   8.666   5.025 -0.0845  0.4604 -0.1471
  839MOL0     C13195   2.760   8.765   4.255 -0.2207 -0.0868 -0.2012
  839MOL0     C13196   2.754   8.816   4.128 -0.1615  0.0887  0.5717
  839MOL0     C13197   2.851   8.924   4.095 -0.3839  0.2100  0.2641
  839MOL0     H13198   2.741   8.742   3.617  1.7180  1.6512 -3.8117
  839MOL0     H13199   2.688   8.805   3.404 -1.7361  2.4722 -2.9041
  839MOL0     H13200   2.471   8.743   3.127 -0.4607 -1.0955 -0.4768
  839MOL0     H13201   2.487   8.657   3.288 -2.5709  0.3151  1.9135
  839MOL0     H13202   2.218   8.738   3.298 -1.8740 -2.0831  0.1259
  839MOL0     H13203   2.268   8.601   3.192 -1.7265  0.6264  1.6641
  839MOL0     H13204   2.135   8.733   3.080 -1.1763  2.0570  0.2959
  839MOL0     H13205   2.291   8.777   3.007 -1.0900  1.4771 -0.6247
  839MOL0     H13206   2.130   8.941   3.212  0.0908  1.0189  0.2095
  839MOL0     H13207   2.291   8.990   3.182  0.5611 -0.1428  0.1696
  839MOL0     H13208   2.079   8.958   2.952  0.2894 -3.2049  1.0804
  839MOL0     H13209   2.120   9.111   3.045 -1.3194  1.6032 -3.6534
  839MOL0     H13210   2.310   8.938   2.868 -0.3658 -0.1408 -0.1774
  839MOL0     H13211   2.236   9.085   2.818  0.1901  2.9831  1.9358
  839MOL0     H13212   2.445   9.063   3.044 -0.3152  0.3511  0.8244
  839MOL0     H13213   2.344   9.209   2.999 -1.9269  1.8936 -3.8804
  839MOL0     H13214   2.445   9.149   2.750 -1.4406  1.0089  0.7182
  839MOL0     H13215   2.549   9.231   2.875  2.1834 -1.9181  1.0462
  839MOL0     H13216   2.503   8.886   2.947  0.2143  3.3543  1.5356
  839MOL0     H13217   2.696   8.682   3.001 -0.9008 -0.2737 -0.9889
  839MOL0     H13218   2.763   8.652   2.844  0.6854 -0.6762  0.7979
  839MOL0     H13219   2.952   8.652   2.920 -3.0510 -0.7911 -1.2276
  839MOL0     H13220   2.937   8.826   2.935 -1.2385 -0.7590 -2.2138
  839MOL0     H13221   3.011   8.718   3.157 -0.4091  0.9926  0.1795
  839MOL0     H13222   2.852   8.645   3.173 -0.3059  0.5371  0.8126
  839MOL0     H13223   2.847   8.850   3.298  4.1952  0.5900  0.0840
  839MOL0     H13224   2.728   8.853   3.163 -0.6050  1.2418 -1.3789
  839MOL0     H13225   2.673   9.018   3.331  1.4386  0.1662  0.9284
  839MOL0     H13226   2.521   9.204   3.360  0.4055 -0.5507  0.9026
  839MOL0     H13227   2.293   9.539   3.454  0.8021  0.7754  0.2900
  839MOL0     H13228   2.116   9.659   3.438  0.2610 -1.3388  0.2911
  839MOL0     H13229   1.891   9.733   3.382 -1.7094 -0.2945 -1.2441
  839MOL0     H13230   2.032   9.845   3.394 -1.3448 -0.0642  0.8145
  839MOL0     H13231   1.925  10.004   3.261  1.0659 -0.6305  0.2097
  839MOL0     H13232   1.767   9.920   3.262 -0.0503 -1.1260  1.6588
  839MOL0     H13233   1.778   9.940   3.521 -2.7476  1.5831  0.0490
  839MOL0     H13234   1.921  10.037   3.494 -0.3719 -0.0427  0.5418
  839MOL0     H13235   1.646  10.102   3.392  0.6088  0.4724 -1.9788
  839MOL0     H13236   1.789  10.192   3.354 -2.6439  0.2822 -0.7940
  839MOL0     H13237   1.778  10.325   3.541  2.5207  0.3002  1.4786
  839MOL0     H13238   1.782  10.183   3.640 -2.4838 -0.4145  1.5354
  839MOL0     H13239   1.599  10.311   3.699  1.5745  0.4329 -1.2169
  839MOL0     H13240   1.525  10.306   3.543 -0.6799 -2.5630 -0.1688
  839MOL0     H13241   1.584  10.069   3.720 -3.3180 -1.8732  1.9323
  839MOL0     H13242   1.520  10.054   3.551  0.3078 -2.2935  0.6878
  839MOL0     H13243   1.366  10.188   3.768 -0.6340  0.0436 -0.0625
  839MOL0     H13244   1.318  10.154   3.603  2.3403 -2.6831 -2.9123
  839MOL0     H13245   2.130   9.644   2.992  2.4703  0.8167  0.1532
  839MOL0     H13246   2.330   9.529   3.016 -0.4926  1.5021  0.0237
  839MOL0     H13247   2.733   9.391   3.034  0.5467 -0.3036 -0.1474
  839MOL0     H13248   2.866   9.181   2.986  0.0856  0.3672  0.2505
  839MOL0     H13249   2.280   8.866   3.483  1.2522  0.5880 -1.2982
  839MOL0     H13250   2.334   8.827   3.727 -0.2966  0.5822 -0.6231
  839MOL0     H13251   2.501   8.597   4.040  0.7422  3.0362 -3.7578
  839MOL0     H13252   2.529   8.527   4.276  0.2954 -0.2606 -1.1063
  839MOL0     H13253   2.646   8.755   4.545 -3.2501 -2.7348 -3.3275
  839MOL0     H13254   2.819   8.722   4.539 -0.7397  1.3487  0.6743
  839MOL0     H13255   2.738   8.656   4.747  0.3016 -2.3276  1.3568
  839MOL0     H13256   2.778   8.506   4.670 -3.3558 -2.5254  2.8070
  839MOL0     H13257   2.513   8.482   4.619 -2.4611  0.3505  1.1865
  839MOL0     H13258   2.487   8.629   4.680 -0.5568 -0.7239 -0.6230
  839MOL0     H13259   2.439   8.441   4.858 -0.9988  2.1784 -0.6870
  839MOL0     H13260   2.613   8.401   4.843  0.2908  0.7228 -0.1806
  839MOL0     H13261   2.573   8.745   5.097 -1.1401  0.3328  0.1093
  839MOL0     H13262   2.840   8.800   4.321  1.8183 -0.3679 -2.3814
  839MOL0     H13263   2.925   8.941   4.174 -2.5617  0.9102  2.2934
  839MOL0     H13264   2.892   8.898   3.998 -2.5289 -1.5593 -0.2558
  839MOL0     H13265   2.789   9.014   4.089  3.0841  2.6499 -3.4692
  840MOL0     O13266   2.269   6.223   0.886  0.0535  0.1688  0.3058
  840MOL0     C13267   2.376   6.252   0.938  0.2509  0.1514 -0.2744
  840MOL0     O13268   2.483   6.166   0.947 -0.0141 -0.2845  1.4982
  840MOL0     C13269   2.491   6.057   0.859 -0.4074 -0.5195 -1.0567
  840MOL0     C13270   2.538   5.946   0.918  0.6449  0.2129 -0.1740
  840MOL0     C13271   2.543   5.827   0.846  0.7688 -0.6840  0.1235
  840MOL0     C13272   2.497   5.819   0.717 -0.5240  0.0848  0.4991
  840MOL0     O13273   2.479   5.704   0.645 -0.6123  0.3103  0.5225
  840MOL0     C13274   2.592   5.605   0.654 -0.1307 -1.4864 -0.7293
  840MOL0     C13275   2.564   5.507   0.543  0.8737  1.0909 -0.3915
  840MOL0     C13276   2.669   5.389   0.552 -0.0197  0.0261 -0.1377
  840MOL0     C13277   2.650   5.269   0.453 -0.6351  0.1941 -0.3158
  840MOL0     C13278   2.779   5.178   0.461  0.6682  0.5619 -0.2686
  840MOL0     C13279   2.773   5.039   0.389 -0.2750  0.5461 -0.4803
  840MOL0     C13280   2.897   4.947   0.410 -0.3745 -0.0685  0.1996
  840MOL0     C13281   2.888   4.814   0.334 -0.4341  0.4185 -0.3484
  840MOL0     N13282   2.796   4.718   0.393  0.0454  0.1531 -0.2628
  840MOL0     C13283   2.690   4.661   0.332 -0.5613  0.3455 -0.5554
  840MOL0     C13284   2.621   4.606   0.436 -0.7469 -0.5403  0.3500
  840MOL0     C13285   2.492   4.528   0.410  0.1495 -0.1245  0.1038
  840MOL0     C13286   2.440   4.448   0.531  0.3085 -0.4359  0.0605
  840MOL0     C13287   2.393   4.546   0.633 -0.3425 -0.1731 -0.2003
  840MOL0     C13288   2.318   4.483   0.740 -0.2317  0.4773 -0.0232
  840MOL0     O13289   2.187   4.475   0.694  0.5548  0.0241 -0.4399
  840MOL0     C13290   2.085   4.491   0.792  0.1864  0.1420 -0.2214
  840MOL0     C13291   1.972   4.409   0.782  0.3606 -0.1744 -0.8767
  840MOL0     C13292   1.865   4.424   0.871 -0.1430 -0.3990  0.9207
  840MOL0     C13293   1.867   4.534   0.964  0.2129  1.4510  0.2336
  840MOL0     C13294   1.736   4.579   1.022  0.1055  0.2748 -1.0289
  840MOL0     O13295   1.633   4.497   0.989  0.0160  0.7840  0.0712
  840MOL0     C13296   1.512   4.511   1.046 -0.2823 -0.6256 -0.5951
  840MOL0     C13297   1.402   4.451   0.976  0.1428 -0.0542  0.1689
  840MOL0     C13298   1.271   4.465   1.034 -0.0202 -0.4467  0.3662
  840MOL0     C13299   1.237   4.534   1.148 -0.7184 -0.8421  0.6130
  840MOL0     O13300   1.121   4.522   1.213  0.2873  0.5833 -0.0986
  840MOL0     C13301   1.052   4.400   1.193 -0.1440 -0.1378  0.1313
  840MOL0     C13302   0.936   4.417   1.296 -0.9579  0.1653 -0.1200
  840MOL0     C13303   0.842   4.302   1.284 -0.1136 -0.2892 -0.4116
  840MOL0     C13304   0.718   4.332   1.371  0.3516 -0.3047 -0.8697
  840MOL0     C13305   0.610   4.226   1.360 -0.0659  0.1388 -0.0102
  840MOL0     C13306   0.499   4.274   1.457  0.0951 -0.3026  0.1985
  840MOL0     C13307   0.379   4.188   1.463  0.7454 -0.4675 -0.5924
  840MOL0     C13308   0.296   4.207   1.592  0.2559  0.7576  0.2265
  840MOL0    Cl13309   0.159   4.078   1.606 -0.0141 -0.0453  0.3919
  840MOL0     C13310   1.343   4.609   1.196  0.8083 -0.5715 -0.5329
  840MOL0     C13311   1.471   4.593   1.160  0.7750 -0.0555  1.2048
  840MOL0     O13312   1.733   4.674   1.102 -0.1756 -0.4159  0.2240
  840MOL0     C13313   1.980   4.600   0.973 -0.4876  0.5341 -0.2366
  840MOL0     C13314   2.093   4.584   0.898 -0.5058 -0.0194  0.8345
  840MOL0     N13315   2.671   4.642   0.555  0.6472  0.7412  0.1928
  840MOL0     N13316   2.783   4.704   0.529  0.0567  1.0592  0.2797
  840MOL0     C13317   2.446   5.940   0.655 -0.1401 -0.0319  1.1850
  840MOL0     C13318   2.444   6.056   0.722 -0.3476 -1.0807  0.2787
  840MOL0     C13319   2.397   6.393   0.991  0.5902 -0.3749  0.6396
  840MOL0     C13320   2.526   6.438   1.027  0.0832  0.1284 -1.0383
  840MOL0     C13321   2.548   6.564   1.095  0.3366 -0.2057 -1.2382
  840MOL0     C13322   2.440   6.642   1.138 -0.1944 -0.4908  0.2523
  840MOL0     O13323   2.451   6.764   1.196  0.2518 -0.2019  0.1017
  840MOL0     C13324   2.574   6.792   1.267 -0.0217 -0.3698  0.4520
  840MOL0     C13325   2.549   6.917   1.360  0.5746  0.7601  0.3503
  840MOL0     C13326   2.403   6.917   1.424  0.7853  0.3287 -0.6936
  840MOL0     C13327   2.298   6.991   1.342 -0.6855 -0.4312 -0.3525
  840MOL0     C13328   2.169   6.989   1.415  0.3181  0.5562 -0.0128
  840MOL0     C13329   2.074   7.006   1.492  1.3453  0.2323  0.5434
  840MOL0     C13330   2.315   6.603   1.095 -0.3646 -1.0680  0.1680
  840MOL0     C13331   2.294   6.488   1.022  0.4760  0.0661 -0.0140
  840MOL0     C13332   2.147   6.468   0.980  0.3491 -0.2401  0.3071
  840MOL0     H13333   2.561   5.948   1.024 -1.0040  1.1245  0.1961
  840MOL0     H13334   2.571   5.741   0.906  1.3074 -0.7683 -0.2392
  840MOL0     H13335   2.686   5.646   0.618  0.2789 -0.2624  1.5670
  840MOL0     H13336   2.598   5.558   0.753  0.1597  2.2092  1.2090
  840MOL0     H13337   2.568   5.554   0.444  0.5489 -0.1678 -1.0265
  840MOL0     H13338   2.465   5.462   0.560  1.2758  0.0517 -0.7291
  840MOL0     H13339   2.646   5.358   0.655 -0.4599  1.2164  0.1375
  840MOL0     H13340   2.773   5.421   0.553  0.4337 -0.9257  4.1708
  840MOL0     H13341   2.561   5.207   0.470 -0.5268 -0.7564 -2.8100
  840MOL0     H13342   2.631   5.309   0.353  0.2732  3.4882  0.6763
  840MOL0     H13343   2.852   5.239   0.408 -2.0467  1.8866 -2.7769
  840MOL0     H13344   2.809   5.170   0.566  0.2645  1.2971 -0.0893
  840MOL0     H13345   2.685   4.986   0.428 -0.6865  1.0229 -0.7582
  840MOL0     H13346   2.767   5.051   0.281  2.2428 -1.9043 -1.0186
  840MOL0     H13347   2.912   4.936   0.518  2.0075 -0.1966 -0.0923
  840MOL0     H13348   2.990   5.000   0.387 -0.7214  2.0378  3.0871
  840MOL0     H13349   2.875   4.830   0.227  0.5097  3.4958 -0.0922
  840MOL0     H13350   2.989   4.773   0.345 -0.0028  1.2265 -1.1674
  840MOL0     H13351   2.660   4.655   0.228  2.9168  2.3486 -1.8501
  840MOL0     H13352   2.421   4.593   0.358  0.3042  0.6325  0.8311
  840MOL0     H13353   2.528   4.462   0.330 -0.8253 -0.0022 -0.4520
  840MOL0     H13354   2.355   4.391   0.493 -0.7577  1.9491 -1.3890
  840MOL0     H13355   2.525   4.389   0.568 -0.8602  0.3602  4.5818
  840MOL0     H13356   2.330   4.625   0.590  2.8550  2.2746 -0.8426
  840MOL0     H13357   2.477   4.593   0.685  0.5084  0.1557 -1.7910
  840MOL0     H13358   2.331   4.539   0.833 -0.1724  0.3653  0.0361
  840MOL0     H13359   2.350   4.383   0.772  1.1539  0.4723 -1.3113
  840MOL0     H13360   1.948   4.336   0.705 -3.7536  0.3627 -0.3424
  840MOL0     H13361   1.775   4.364   0.863  0.9548 -2.1907  1.4304
  840MOL0     H13362   1.414   4.392   0.886  3.2290 -0.2815  0.5986
  840MOL0     H13363   1.186   4.418   0.985 -1.4851  1.8500  0.5246
  840MOL0     H13364   1.001   4.386   1.097 -2.4113 -0.3277  1.3000
  840MOL0     H13365   1.109   4.309   1.212  2.7188  1.2320 -1.2921
  840MOL0     H13366   0.991   4.415   1.391  0.1306 -2.9748 -0.6976
  840MOL0     H13367   0.883   4.510   1.272  2.4699  2.2429 -0.2643
  840MOL0     H13368   0.810   4.283   1.182 -1.3351  1.0408 -0.3163
  840MOL0     H13369   0.888   4.209   1.320  0.4104  0.1975  0.2172
  840MOL0     H13370   0.679   4.430   1.342  2.3161  1.2334  1.3202
  840MOL0     H13371   0.744   4.332   1.477  2.1343 -2.5949 -1.2321
  840MOL0     H13372   0.643   4.126   1.391 -2.4232 -0.4101  1.0266
  840MOL0     H13373   0.563   4.218   1.262 -1.6784  2.0222  0.5403
  840MOL0     H13374   0.538   4.286   1.558  1.2798 -1.3694 -0.1177
  840MOL0     H13375   0.467   4.374   1.425 -0.5286 -0.7065 -0.4679
  840MOL0     H13376   0.412   4.084   1.468  1.8224 -0.1314 -0.4070
  840MOL0     H13377   0.318   4.207   1.374 -0.3675 -3.4540 -0.5753
  840MOL0     H13378   0.371   4.198   1.671  0.2161  3.5040  0.6744
  840MOL0     H13379   0.249   4.306   1.595 -1.7015  0.0811 -3.1493
  840MOL0     H13380   1.337   4.676   1.282  3.1455 -0.5082 -0.3561
  840MOL0     H13381   1.545   4.647   1.217  0.7816 -1.8085  2.9483
  840MOL0     H13382   1.968   4.688   1.036  2.6650 -1.0785  2.9929
  840MOL0     H13383   2.179   4.648   0.912 -0.2713  0.5077 -2.3361
  840MOL0     H13384   2.400   5.935   0.557 -0.6308  1.7213  1.2834
  840MOL0     H13385   2.409   6.149   0.678  1.8461 -0.5880 -0.5939
  840MOL0     H13386   2.613   6.378   1.003  0.1403  0.9277 -3.0029
  840MOL0     H13387   2.649   6.596   1.117 -0.8452  2.4765  0.9821
  840MOL0     H13388   2.656   6.818   1.200  2.6752 -3.2515  2.3276
  840MOL0     H13389   2.598   6.704   1.328 -1.4202 -2.5818 -1.9964
  840MOL0     H13390   2.555   7.005   1.296 -1.9610 -0.7955 -2.2770
  840MOL0     H13391   2.625   6.919   1.438 -1.3301 -2.3374  2.5464
  840MOL0     H13392   2.403   6.959   1.526 -1.4348  0.0586 -0.5371
  840MOL0     H13393   2.370   6.814   1.436 -1.2328  0.9693 -0.2245
  840MOL0     H13394   2.335   7.094   1.334  1.5457 -0.7799  3.1466
  840MOL0     H13395   2.273   6.939   1.249  1.7193  0.2503 -1.4529
  840MOL0     H13396   1.978   7.016   1.539  1.3276 -0.7160  0.7350
  840MOL0     H13397   2.228   6.657   1.132  0.3952 -0.8780  1.7228
  840MOL0     H13398   2.088   6.553   1.015  1.2630  0.8970 -0.8189
  840MOL0     H13399   2.143   6.456   0.872 -1.2452  2.6598 -0.0509
  840MOL0     H13400   2.100   6.379   1.023 -0.7276 -0.8852 -2.0352
  841MOL0     O13401   1.235   0.576   0.725  0.1528 -0.0274  0.6679
  841MOL0     C13402   1.323   0.653   0.708 -0.4828  0.1059  0.2807
  841MOL0     O13403   1.308   0.776   0.643 -0.0625 -0.0911  0.1071
  841MOL0     C13404   1.181   0.820   0.623 -0.6083 -0.1524  0.2251
  841MOL0     C13405   1.114   0.902   0.711 -0.5910  0.4399  0.5124
  841MOL0     C13406   0.984   0.941   0.697  0.7833  0.0600  0.4046
  841MOL0     C13407   0.916   0.885   0.589  0.5344 -0.9840  0.2256
  841MOL0     O13408   0.780   0.892   0.558 -1.0711  0.3793 -0.5549
  841MOL0     C13409   0.687   0.934   0.663  0.0509  0.4401 -0.6680
  841MOL0     C13410   0.552   0.952   0.593  0.8766 -0.4765  0.2428
  841MOL0     C13411   0.553   1.057   0.482 -0.3158 -1.0376 -0.3222
  841MOL0     C13412   0.423   1.063   0.418  0.7902  0.5922 -0.1236
  841MOL0     C13413   0.411   1.159   0.309  0.7833 -0.6511 -0.3378
  841MOL0     C13414   0.263   1.152   0.245  0.2196  0.1717 -0.4728
  841MOL0     C13415   0.237   1.011   0.183 -0.0077  0.3658  0.2276
  841MOL0     C13416   0.141   1.011   0.054  0.6926  0.2949  0.8864
  841MOL0     N13417   0.008   1.066   0.060  0.4531  0.6930 -0.2532
  841MOL0     C13418  -0.098   0.991   0.010 -0.1800 -1.2736 -0.5352
  841MOL0     C13419  -0.211   1.043   0.067 -0.3866 -0.5178 -1.1326
  841MOL0     C13420  -0.349   0.990   0.065 -0.1895  0.4818 -0.3902
  841MOL0     C13421  -0.363   0.858   0.148  0.2697 -0.3918 -0.2162
  841MOL0     C13422  -0.274   0.860   0.275  1.0790 -0.4426  0.1978
  841MOL0     C13423  -0.292   0.732   0.356 -0.4762 -0.2424 -0.1588
  841MOL0     O13424  -0.250   0.614   0.282  0.1243  0.4373  0.2071
  841MOL0     C13425  -0.112   0.603   0.263  0.0665  0.3711  0.0426
  841MOL0     C13426  -0.054   0.584   0.138 -0.2579  0.4227 -0.5637
  841MOL0     C13427   0.086   0.585   0.113  0.4767  0.5602  0.4036
  841MOL0     C13428   0.175   0.589   0.217  0.6652 -0.0453  0.4316
  841MOL0     C13429   0.319   0.610   0.199 -0.1394  0.2918  0.2384
  841MOL0     O13430   0.355   0.669   0.083 -0.3501 -0.3406  0.6659
  841MOL0     C13431   0.491   0.696   0.061 -0.1354 -0.1505  0.4310
  841MOL0     C13432   0.555   0.641  -0.047 -0.3576  0.7283  0.5068
  841MOL0     C13433   0.693   0.652  -0.068 -0.1370 -0.0682 -0.4235
  841MOL0     C13434   0.762   0.738   0.020 -0.1383 -0.0216  0.6838
  841MOL0     O13435   0.888   0.782  -0.002 -0.5360 -0.2562  0.1588
  841MOL0     C13436   0.989   0.683  -0.026  0.2688  0.0864 -0.6444
  841MOL0     C13437   1.058   0.637   0.100  0.4608 -0.7973 -0.0594
  841MOL0     C13438   1.168   0.539   0.051 -0.0927  0.7571  0.0638
  841MOL0     C13439   1.265   0.506   0.172  0.8599  0.1232  0.0785
  841MOL0     C13440   1.216   0.419   0.289  0.5311 -0.5755  0.2929
  841MOL0     C13441   1.213   0.269   0.257 -0.2972 -0.0604  0.6012
  841MOL0     C13442   1.175   0.176   0.380 -0.3310  1.2217 -0.0640
  841MOL0     C13443   1.118   0.034   0.358 -0.3520 -0.8611 -0.5697
  841MOL0    Cl13444   1.248  -0.070   0.306 -0.5288 -0.0398  0.0683
  841MOL0     C13445   0.697   0.799   0.132 -0.4946  0.2309  0.3804
  841MOL0     C13446   0.559   0.783   0.150 -0.0824 -0.1900 -0.3079
  841MOL0     O13447   0.405   0.578   0.287 -0.3197  0.1153  0.1870
  841MOL0     C13448   0.122   0.596   0.344  0.2766 -0.8634  0.0496
  841MOL0     C13449  -0.016   0.612   0.375 -0.7019 -0.6206  0.3203
  841MOL0     N13450  -0.162   1.154   0.148 -0.1016  0.3638 -0.0139
  841MOL0     N13451  -0.030   1.166   0.146 -0.3402 -0.1476 -0.0922
  841MOL0     C13452   0.980   0.814   0.492  0.3487  0.6095 -0.6657
  841MOL0     C13453   1.119   0.784   0.511 -0.3216 -0.4988  0.1967
  841MOL0     C13454   1.462   0.614   0.753 -0.1568 -1.1030 -0.5063
  841MOL0     C13455   1.531   0.722   0.827  0.4019  0.8506 -0.4249
  841MOL0     C13456   1.660   0.701   0.860  0.3513  0.5642 -0.2234
  841MOL0     C13457   1.722   0.574   0.857  0.5473 -1.2024 -0.1960
  841MOL0     O13458   1.857   0.559   0.889 -0.0138  0.2373  0.1232
  841MOL0     C13459   1.941   0.673   0.923  0.7372  0.0301  0.9284
  841MOL0     C13460   2.078   0.605   0.927  0.2439  0.4033  0.5711
  841MOL0     C13461   2.181   0.710   0.939  1.0323  0.9844 -0.3511
  841MOL0     C13462   2.315   0.668   0.880 -0.2383  0.5875 -0.4655
  841MOL0     C13463   2.325   0.696   0.740  0.7647  0.3292  0.2832
  841MOL0     C13464   2.331   0.710   0.614  0.1360 -0.1187 -0.6735
  841MOL0     C13465   1.646   0.471   0.808 -0.0630 -0.1793  0.5142
  841MOL0     C13466   1.516   0.494   0.759  0.4369  2.1383  0.3594
  841MOL0     C13467   1.457   0.362   0.695  0.3418  0.8224  0.0642
  841MOL0     H13468   1.167   0.933   0.800 -1.1727 -0.4360  1.1831
  841MOL0     H13469   0.935   1.013   0.762  2.7146  0.8473  1.0553
  841MOL0     H13470   0.674   0.849   0.731 -0.7921 -0.2562 -1.6760
  841MOL0     H13471   0.701   1.022   0.727 -2.1418 -0.2824  0.9413
  841MOL0     H13472   0.476   0.984   0.665 -1.0653 -0.2642 -1.7920
  841MOL0     H13473   0.521   0.856   0.551  2.9892 -1.1848  0.1949
  841MOL0     H13474   0.619   1.030   0.399  0.5231 -0.8620  0.2765
  841MOL0     H13475   0.590   1.156   0.508 -3.9586  0.4013 -0.0946
  841MOL0     H13476   0.399   0.961   0.388  1.3080  0.6634 -0.8086
  841MOL0     H13477   0.343   1.088   0.488  0.2933  0.1729 -0.5351
  841MOL0     H13478   0.424   1.263   0.341 -3.0412 -0.0437 -0.2480
  841MOL0     H13479   0.478   1.137   0.226 -0.9703 -1.1815 -1.6892
  841MOL0     H13480   0.188   1.173   0.321 -0.6316 -3.7295 -0.0253
  841MOL0     H13481   0.242   1.220   0.162  0.2710  0.8830  0.0931
  841MOL0     H13482   0.202   0.953   0.268  0.3483 -0.3512 -0.1046
  841MOL0     H13483   0.329   0.956   0.161 -1.5065 -2.0080 -0.4304
  841MOL0     H13484   0.202   1.065  -0.019  0.8025 -1.4088 -0.3601
  841MOL0     H13485   0.126   0.911   0.012 -0.6683  0.1511  1.6567
  841MOL0     H13486  -0.081   0.897  -0.042  2.4358 -1.8511  1.1200
  841MOL0     H13487  -0.415   1.068   0.103  1.1153  1.3409  0.1653
  841MOL0     H13488  -0.365   0.964  -0.040 -0.1393 -1.0507 -0.0549
  841MOL0     H13489  -0.470   0.846   0.169 -0.3306  1.2362 -1.9794
  841MOL0     H13490  -0.324   0.771   0.095  0.3059 -0.6341  0.2131
  841MOL0     H13491  -0.304   0.945   0.337  1.0812 -2.3938  3.0486
  841MOL0     H13492  -0.169   0.872   0.246  0.6585 -0.2568 -1.3144
  841MOL0     H13493  -0.394   0.726   0.395 -0.1981 -0.9958  0.4708
  841MOL0     H13494  -0.228   0.746   0.443  0.4635 -1.2683 -0.6577
  841MOL0     H13495  -0.127   0.554   0.063  1.8238 -1.0390 -2.1102
  841MOL0     H13496   0.117   0.571   0.010 -0.2069  0.9520  0.1348
  841MOL0     H13497   0.508   0.583  -0.125 -1.3093  0.3967  1.3022
  841MOL0     H13498   0.740   0.614  -0.158 -0.1948  0.3099 -0.6192
  841MOL0     H13499   0.944   0.596  -0.073 -1.9656  0.5144  0.5025
  841MOL0     H13500   1.056   0.736  -0.093  0.9633  0.1436  0.0832
  841MOL0     H13501   1.088   0.734   0.139 -2.0493  0.9519 -2.1077
  841MOL0     H13502   0.986   0.586   0.163 -0.3179 -3.3670 -2.7771
  841MOL0     H13503   1.109   0.451   0.025 -4.6267  2.9791  1.7776
  841MOL0     H13504   1.221   0.574  -0.037 -0.1585  0.7832  0.0341
  841MOL0     H13505   1.299   0.602   0.212 -0.3177  0.6423 -0.1042
  841MOL0     H13506   1.359   0.463   0.137  2.1471  2.9374 -0.2203
  841MOL0     H13507   1.120   0.460   0.320  1.6964  2.5905  0.1089
  841MOL0     H13508   1.282   0.426   0.376 -0.8592  1.8061  1.2481
  841MOL0     H13509   1.133   0.249   0.186 -0.2419  0.3524  0.4190
  841MOL0     H13510   1.307   0.230   0.218 -0.4407 -0.3719  0.5666
  841MOL0     H13511   1.098   0.224   0.441 -0.2438  1.3406 -0.0469
  841MOL0     H13512   1.262   0.162   0.445  2.3610  0.4537 -3.4943
  841MOL0     H13513   1.092   0.001   0.459 -0.4942  0.5427 -0.1322
  841MOL0     H13514   1.027   0.037   0.297 -0.4821 -2.9018 -0.5508
  841MOL0     H13515   0.741   0.876   0.195  0.2732  1.6356 -1.7353
  841MOL0     H13516   0.504   0.827   0.232 -1.1336 -0.0856 -1.0519
  841MOL0     H13517   0.191   0.615   0.426 -0.3746 -0.5702  0.5499
  841MOL0     H13518  -0.041   0.632   0.478 -0.8491 -0.2776  0.2179
  841MOL0     H13519   0.920   0.780   0.408 -3.3491  2.7577  0.8521
  841MOL0     H13520   1.169   0.728   0.432  1.8714  2.1579 -0.4739
  841MOL0     H13521   1.482   0.818   0.838  0.4301  0.7427  0.6809
  841MOL0     H13522   1.726   0.777   0.900  1.0116  0.1140 -0.4424
  841MOL0     H13523   1.925   0.701   1.027  1.3913 -2.0558  1.6323
  841MOL0     H13524   1.936   0.766   0.865 -3.1641  0.0598  1.0554
  841MOL0     H13525   2.075   0.547   0.834 -0.7795 -0.3317  1.0335
  841MOL0     H13526   2.074   0.543   1.017 -0.3579 -0.0087  0.2678
  841MOL0     H13527   2.206   0.740   1.041 -1.1982  0.4164  0.4246
  841MOL0     H13528   2.148   0.800   0.887 -1.5441  0.5311  0.3863
  841MOL0     H13529   2.391   0.731   0.929 -1.0841  1.2718 -0.0119
  841MOL0     H13530   2.338   0.563   0.898 -0.2509  0.5949 -0.4047
  841MOL0     H13531   2.335   0.750   0.515 -3.9154  0.7063 -0.6780
  841MOL0     H13532   1.695   0.375   0.806  0.6833  0.1959 -1.2479
  841MOL0     H13533   1.531   0.291   0.657  0.6120  0.5189  1.1228
  841MOL0     H13534   1.388   0.311   0.764  0.4736 -1.4573 -1.3787
  841MOL0     H13535   1.396   0.379   0.606 -0.9959  1.3620  1.0512
  842MOL0     O13536   0.753   5.589   9.873  0.8754  0.4519  0.3887
  842MOL0     C13537   0.731   5.588   9.745 -0.2766 -0.6132 -0.2333
  842MOL0     O13538   0.806   5.528   9.645  0.0287 -1.1231 -0.5850
  842MOL0     C13539   0.929   5.483   9.699  0.4314 -0.6210  1.2260
  842MOL0     C13540   1.047   5.552   9.685 -0.1055  0.4409  0.4329
  842MOL0     C13541   1.162   5.532   9.757 -0.5922  0.1447  0.0469
  842MOL0     C13542   1.159   5.412   9.831  0.2881  0.1717 -0.3308
  842MOL0     O13543   1.260   5.365   9.915 -0.2109 -0.4216  0.8218
  842MOL0     C13544   1.386   5.437   9.910  0.3112  0.0466  0.2119
  842MOL0     C13545   1.477   5.353   9.993 -1.0404  0.0161  0.3877
  842MOL0     C13546   1.613   5.424   9.990  1.0168  0.0788  0.3024
  842MOL0     C13547   1.730   5.341  10.049  0.2240  0.2449  0.0005
  842MOL0     C13548   1.844   5.434  10.068  0.4250 -0.1390 -0.4346
  842MOL0     C13549   1.964   5.362  10.138  0.1589 -0.7902 -0.1134
  842MOL0     C13550   2.078   5.460  10.144  0.8076 -0.2704  0.2637
  842MOL0     C13551   2.202   5.405  10.213  0.3168  0.5726  0.1734
  842MOL0     N13552   2.290   5.522  10.237 -0.2452 -0.4068 -0.3689
  842MOL0     C13553   2.359   5.587  10.143 -0.8903  0.0284 -0.7655
  842MOL0     C13554   2.449   5.660  10.215 -0.3426  0.6303 -0.1823
  842MOL0     C13555   2.550   5.757  10.173 -0.0748 -0.0508  0.8491
  842MOL0     C13556   2.597   5.700  10.034 -0.0096 -0.2535 -0.2244
  842MOL0     C13557   2.711   5.783   9.980 -0.4032  0.5043 -0.4149
  842MOL0     C13558   2.804   5.705   9.879  0.5106 -0.0777  0.4399
  842MOL0     O13559   2.908   5.771   9.807 -0.5058 -0.1403 -0.0723
  842MOL0     C13560   2.976   5.873   9.862  0.2085  0.6039 -0.3746
  842MOL0     C13561   2.918   5.996   9.878 -0.0410 -0.5313 -0.1482
  842MOL0     C13562   2.988   6.106   9.932 -0.5732  1.0201  0.0783
  842MOL0     C13563   3.116   6.079   9.978 -0.5546  0.3028  0.5792
  842MOL0     C13564   3.191   6.187  10.046 -0.1922  0.9307 -0.8992
  842MOL0     O13565   3.287   6.163  10.132  0.8701 -0.8458  0.1226
  842MOL0     C13566   3.340   6.267  10.201 -0.4380 -0.3866 -1.0869
  842MOL0     C13567   3.274   6.363  10.281 -1.0742 -0.1460  0.6745
  842MOL0     C13568   3.351   6.463  10.344  0.7066  0.0117  0.6615
  842MOL0     C13569   3.487   6.472  10.333 -0.5937 -0.5757 -0.0838
  842MOL0     O13570   3.570   6.555  10.412 -0.0593  0.1986 -0.1351
  842MOL0     C13571   3.511   6.597  10.544  0.1398  0.4045  0.3674
  842MOL0     C13572   3.619   6.655  10.635  0.3001  0.2972 -0.3175
  842MOL0     C13573   3.700   6.546  10.711  0.3546 -1.0104  0.5146
  842MOL0     C13574   3.805   6.606  10.803  0.1768  0.2825  0.7187
  842MOL0     C13575   3.895   6.499  10.868  0.4038 -1.0092  0.5466
  842MOL0     C13576   4.024   6.574  10.918  0.7664 -0.0818 -0.5167
  842MOL0     C13577   4.004   6.642  11.051 -0.5475  0.2765  0.5524
  842MOL0     C13578   4.005   6.536  11.169  0.8455 -0.1990  0.3898
  842MOL0    Cl13579   4.181   6.516  11.200  0.3007 -0.3007  0.1980
  842MOL0     C13580   3.554   6.388  10.245  0.0345 -0.0208  0.2525
  842MOL0     C13581   3.479   6.286  10.186 -0.6730 -0.4728 -0.4754
  842MOL0     O13582   3.154   6.300  10.017 -0.1467  0.0032 -1.0384
  842MOL0     C13583   3.180   5.952   9.973 -0.7024  0.7693 -0.6087
  842MOL0     C13584   3.115   5.851   9.903  0.2932 -0.3896  0.0786
  842MOL0     N13585   2.421   5.665  10.347 -0.0492 -0.1004  0.2306
  842MOL0     N13586   2.328   5.570  10.364  1.2776 -0.1701  0.3133
  842MOL0     C13587   1.047   5.332   9.835  0.0245 -0.2512  0.0602
  842MOL0     C13588   0.934   5.364   9.767  0.4720 -0.8355  0.1694
  842MOL0     C13589   0.599   5.642   9.707 -0.1953 -0.1694 -0.2330
  842MOL0     C13590   0.538   5.576   9.604  0.6689  1.2915  0.5522
  842MOL0     C13591   0.402   5.605   9.558 -1.1794 -0.0099 -0.9530
  842MOL0     C13592   0.334   5.709   9.607  0.1027 -0.2501 -0.4852
  842MOL0     O13593   0.209   5.734   9.553 -0.5368  0.5455  0.1420
  842MOL0     C13594   0.125   5.848   9.603 -0.3376  0.0516 -0.3153
  842MOL0     C13595   0.024   5.822   9.712 -0.4054  0.7762  0.6352
  842MOL0     C13596  -0.060   5.942   9.737  0.2877 -0.1479 -0.2337
  842MOL0     C13597   0.011   6.058   9.815 -0.1238 -0.2199  0.0018
  842MOL0     C13598   0.098   6.012   9.918  0.4201 -0.7750  0.4924
  842MOL0     C13599   0.172   6.004  10.015 -0.2875  0.1696  0.6345
  842MOL0     C13600   0.390   5.781   9.723  0.1524  1.2218  1.0423
  842MOL0     C13601   0.521   5.750   9.767 -0.0116  0.0955  0.4368
  842MOL0     C13602   0.578   5.853   9.859 -1.0514 -0.6809 -0.1923
  842MOL0     H13603   1.053   5.637   9.618 -0.2977 -0.8834 -1.3285
  842MOL0     H13604   1.248   5.597   9.757 -0.5869  0.1754 -1.4277
  842MOL0     H13605   1.408   5.446   9.803 -1.7062  1.9648 -0.1327
  842MOL0     H13606   1.369   5.541   9.941 -0.9866  0.4384 -1.6280
  842MOL0     H13607   1.489   5.258   9.940 -1.2820  1.2757 -2.0783
  842MOL0     H13608   1.442   5.344  10.096  0.5118 -4.1641  0.7578
  842MOL0     H13609   1.605   5.520  10.041  3.5628  1.2913 -1.3883
  842MOL0     H13610   1.645   5.454   9.890  0.3707  0.7904  0.2982
  842MOL0     H13611   1.697   5.293  10.142  1.5063  0.8457  0.7934
  842MOL0     H13612   1.759   5.256   9.986  1.0085  0.0432  0.6063
  842MOL0     H13613   1.874   5.470   9.969  0.4140  0.8485 -0.0895
  842MOL0     H13614   1.827   5.518  10.136  1.0615 -2.0762  2.2630
  842MOL0     H13615   1.933   5.345  10.241  0.9498  2.5384  0.7963
  842MOL0     H13616   2.005   5.274  10.087 -0.4514 -1.5704  0.7063
  842MOL0     H13617   2.041   5.545  10.202  0.8583 -0.3945  0.4786
  842MOL0     H13618   2.098   5.496  10.043 -0.8870  0.0497  0.0033
  842MOL0     H13619   2.173   5.370  10.313 -0.2958 -0.6818 -0.4186
  842MOL0     H13620   2.246   5.316  10.167 -0.3369 -0.0960  0.8103
  842MOL0     H13621   2.347   5.558  10.039 -2.5554 -1.3622 -0.2375
  842MOL0     H13622   2.509   5.855  10.148  3.2231  0.2344 -5.6952
  842MOL0     H13623   2.632   5.767  10.245  2.0829  1.3312 -1.6335
  842MOL0     H13624   2.621   5.594  10.046  0.2151  0.0479  2.5327
  842MOL0     H13625   2.514   5.696   9.963 -1.5920  0.5248  1.5146
  842MOL0     H13626   2.775   5.826  10.058  1.3333  1.2183 -2.1691
  842MOL0     H13627   2.666   5.866   9.925  1.4867  2.0831  0.2856
  842MOL0     H13628   2.735   5.660   9.808  0.9861 -0.8445  0.4568
  842MOL0     H13629   2.851   5.628   9.941 -0.7052 -1.7146 -0.6081
  842MOL0     H13630   2.823   6.010   9.828  0.5219  1.1013 -0.8480
  842MOL0     H13631   2.946   6.206   9.938 -0.4774  0.9821  3.1368
  842MOL0     H13632   3.168   6.349  10.302 -0.4837 -1.1856  3.4339
  842MOL0     H13633   3.303   6.525  10.419 -0.4335 -0.1157  0.0487
  842MOL0     H13634   3.419   6.656  10.537 -0.3165 -0.5185 -2.1351
  842MOL0     H13635   3.478   6.502  10.586 -5.4522  1.0206 -1.7726
  842MOL0     H13636   3.683   6.731  10.589  0.0065  0.9407  0.2976
  842MOL0     H13637   3.563   6.704  10.716  3.5153  0.6043  1.9224
  842MOL0     H13638   3.634   6.481  10.771 -1.6403 -2.9402 -3.4128
  842MOL0     H13639   3.750   6.485  10.636  1.9515 -0.6464  1.2400
  842MOL0     H13640   3.747   6.666  10.873 -1.4190 -0.5675  0.1730
  842MOL0     H13641   3.862   6.674  10.739 -0.3966 -0.6743 -0.8656
  842MOL0     H13642   3.921   6.433  10.785 -1.7483  0.7311 -1.6595
  842MOL0     H13643   3.837   6.445  10.944 -2.1578  1.7974  0.7750
  842MOL0     H13644   4.112   6.510  10.925  2.4291  2.2894  2.4755
  842MOL0     H13645   4.050   6.650  10.844 -0.4594 -0.3338 -1.2587
  842MOL0     H13646   3.911   6.700  11.044 -1.2699 -1.0129 -1.3551
  842MOL0     H13647   4.083   6.717  11.065  1.6942 -1.4886 -1.8631
  842MOL0     H13648   3.969   6.586  11.259  1.6718  0.1939  0.5139
  842MOL0     H13649   3.938   6.453  11.146 -1.4564  0.8263  2.8330
  842MOL0     H13650   3.662   6.387  10.230 -0.3772 -1.4005 -3.9549
  842MOL0     H13651   3.529   6.214  10.121 -3.1792 -0.5059 -2.5478
  842MOL0     H13652   3.274   5.943  10.027 -1.1977  0.2717  0.1975
  842MOL0     H13653   3.158   5.755   9.878  0.8073  0.4177 -2.4229
  842MOL0     H13654   1.041   5.250   9.906 -2.4709 -0.6499 -0.5126
  842MOL0     H13655   0.840   5.318   9.793 -1.2848  2.6579  0.5568
  842MOL0     H13656   0.590   5.501   9.546  1.5254  1.8422  0.5888
  842MOL0     H13657   0.363   5.537   9.483 -0.9766 -0.9440 -0.2274
  842MOL0     H13658   0.070   5.883   9.516  0.5815  2.3665 -0.0348
  842MOL0     H13659   0.186   5.931   9.640 -0.2945 -0.5262  0.9672
  842MOL0     H13660   0.083   5.787   9.797  2.7473 -0.8049 -1.9785
  842MOL0     H13661  -0.031   5.737   9.672 -1.8218  2.0451 -0.2167
  842MOL0     H13662  -0.147   5.911   9.796 -1.5159  3.3747 -0.7661
  842MOL0     H13663  -0.097   5.990   9.646 -0.6348  2.8308  1.5723
  842MOL0     H13664   0.072   6.120   9.749 -0.0691  1.0594  1.2104
  842MOL0     H13665  -0.070   6.120   9.854  3.0885  1.6696  4.5391
  842MOL0     H13666   0.245   5.991  10.093 -0.1766  1.0170  0.6872
  842MOL0     H13667   0.341   5.867   9.767 -1.7393  0.1534  1.1261
  842MOL0     H13668   0.500   5.892   9.925  0.0419 -0.4322  1.0016
  842MOL0     H13669   0.659   5.810   9.919  2.6448  0.9619 -3.5642
  842MOL0     H13670   0.635   5.936   9.817  1.0035 -1.4343  0.9690
  843MOL0     O13671   1.484   4.014   1.939  0.0368 -0.4883 -0.8223
  843MOL0     C13672   1.485   3.961   1.822  0.3420 -0.3110 -0.4845
  843MOL0     O13673   1.591   3.940   1.751  0.1429  0.1509 -0.3230
  843MOL0     C13674   1.722   3.957   1.790  0.2980 -0.6304  0.2018
  843MOL0     C13675   1.815   3.863   1.743 -0.3676 -0.1048  0.6831
  843MOL0     C13676   1.947   3.894   1.764  1.2634  1.1904 -0.1616
  843MOL0     C13677   1.996   4.010   1.825  0.2931 -0.0660 -0.1609
  843MOL0     O13678   2.126   4.049   1.834  0.3968  0.9979 -0.5463
  843MOL0     C13679   2.169   4.143   1.737  0.2354 -0.6372  0.2501
  843MOL0     C13680   2.323   4.113   1.709 -0.4598 -0.5458 -0.3606
  843MOL0     C13681   2.357   3.982   1.637  0.1518  0.3407  0.7928
  843MOL0     C13682   2.382   3.872   1.751  0.5986 -0.0152  0.2289
  843MOL0     C13683   2.418   3.741   1.685 -0.4473 -0.5641 -0.1514
  843MOL0     C13684   2.403   3.633   1.793  0.5362 -0.1750 -0.0560
  843MOL0     C13685   2.412   3.492   1.741  0.2573 -0.4049 -0.9434
  843MOL0     C13686   2.562   3.468   1.699 -0.7172  0.0590 -0.3765
  843MOL0     N13687   2.584   3.348   1.632 -0.0623  0.2416 -0.4832
  843MOL0     C13688   2.707   3.315   1.578  0.4240  0.4927 -0.0849
  843MOL0     C13689   2.693   3.210   1.503  0.3072  0.0611 -0.9662
  843MOL0     C13690   2.793   3.146   1.419 -0.1473  0.4280 -0.0123
  843MOL0     C13691   2.869   3.041   1.494 -0.5904 -0.0959  0.4188
  843MOL0     C13692   2.980   2.965   1.421 -0.5920 -0.0186 -0.6992
  843MOL0     C13693   3.006   2.828   1.485 -1.1904  0.0809 -0.5103
  843MOL0     O13694   3.046   2.840   1.630 -0.4270  0.6653  0.7632
  843MOL0     C13695   3.181   2.868   1.649  0.2430 -0.2961  0.3772
  843MOL0     C13696   3.211   2.998   1.673 -1.0220  0.0318  0.0650
  843MOL0     C13697   3.345   3.044   1.690  0.2591  0.4605 -0.6520
  843MOL0     C13698   3.447   2.951   1.691 -0.4864  1.0972 -0.1999
  843MOL0     C13699   3.592   2.985   1.701 -0.2674 -0.3248 -0.2813
  843MOL0     O13700   3.622   3.121   1.711 -0.3972 -0.5332  0.4365
  843MOL0     C13701   3.752   3.169   1.742 -0.5837  0.1818 -0.4743
  843MOL0     C13702   3.758   3.244   1.860  0.7379  0.1622  0.7474
  843MOL0     C13703   3.877   3.302   1.891  0.0823 -0.1021  0.4090
  843MOL0     C13704   4.000   3.263   1.832 -0.1318  1.0776  0.0497
  843MOL0     O13705   4.130   3.290   1.880  0.5530  0.0755 -1.3252
  843MOL0     C13706   4.135   3.337   2.017 -1.3755 -0.8193 -0.3509
  843MOL0     C13707   4.270   3.297   2.080  0.8386 -0.1546  1.0389
  843MOL0     C13708   4.366   3.401   2.024 -0.0797  0.9294  0.4088
  843MOL0     C13709   4.493   3.393   2.104 -0.4106  0.2881  0.1897
  843MOL0     C13710   4.596   3.477   2.040 -0.2545  0.0475  0.4688
  843MOL0     C13711   4.720   3.509   2.134  1.0871  0.4691 -0.3329
  843MOL0     C13712   4.833   3.570   2.043  1.0552 -0.5616 -0.2264
  843MOL0     C13713   4.873   3.510   1.906 -0.5021 -0.1314  0.3349
  843MOL0    Cl13714   5.000   3.615   1.845 -0.1990  0.4185  0.3851
  843MOL0     C13715   3.993   3.182   1.711  0.3036 -0.3389 -0.4362
  843MOL0     C13716   3.865   3.144   1.667 -0.7392  0.1141 -0.4033
  843MOL0     O13717   3.668   2.892   1.736  1.0458 -0.1197 -0.2123
  843MOL0     C13718   3.410   2.817   1.657 -1.1165 -0.6996 -0.4798
  843MOL0     C13719   3.282   2.776   1.634  0.4877 -0.8601  0.8522
  843MOL0     N13720   2.556   3.179   1.509  0.3877 -0.2497  0.5736
  843MOL0     N13721   2.494   3.262   1.589  0.1881  0.6674  0.3685
  843MOL0     C13722   1.901   4.100   1.869 -0.1237 -0.2828  0.5345
  843MOL0     C13723   1.768   4.077   1.856 -0.6951  0.4976 -0.3962
  843MOL0     C13724   1.355   3.906   1.777 -0.1540 -0.8095  0.5675
  843MOL0     C13725   1.368   3.784   1.698 -0.1527 -0.3570 -0.6980
  843MOL0     C13726   1.250   3.713   1.664 -0.2460  0.0593  0.5000
  843MOL0     C13727   1.126   3.756   1.700  0.4917 -0.0664 -0.5849
  843MOL0     O13728   1.015   3.672   1.684 -0.7239  0.0100  0.7301
  843MOL0     C13729   0.889   3.722   1.676 -0.5398  0.6361 -0.1027
  843MOL0     C13730   0.797   3.615   1.617  0.3788 -0.1351  0.1921
  843MOL0     C13731   0.657   3.663   1.616 -0.3242  0.7885  0.2374
  843MOL0     C13732   0.634   3.746   1.483  0.7298  0.4031 -0.0136
  843MOL0     C13733   0.489   3.776   1.480 -0.5993 -0.9035 -0.2917
  843MOL0     C13734   0.369   3.793   1.494 -0.2891 -0.4196  0.3220
  843MOL0     C13735   1.110   3.885   1.767  0.3896  0.0774  0.2709
  843MOL0     C13736   1.226   3.955   1.813 -0.4341  0.3560  0.2709
  843MOL0     C13737   1.202   4.089   1.887  0.0906  0.3112  0.0180
  843MOL0     H13738   1.780   3.774   1.691 -1.7399  0.3818  0.7289
  843MOL0     H13739   2.016   3.821   1.723 -0.8541 -1.6558  1.0024
  843MOL0     H13740   2.121   4.121   1.642  2.3696  2.4256 -1.7101
  843MOL0     H13741   2.143   4.246   1.762  2.0243 -1.0264  4.6560
  843MOL0     H13742   2.376   4.107   1.804 -3.7312  2.6148  1.9578
  843MOL0     H13743   2.368   4.189   1.645 -2.1213 -1.8720 -3.3063
  843MOL0     H13744   2.444   3.981   1.570  1.9327 -0.9089  3.0029
  843MOL0     H13745   2.271   3.942   1.583 -0.3248 -3.2566  3.8099
  843MOL0     H13746   2.459   3.895   1.826 -0.9406 -0.1292  1.9082
  843MOL0     H13747   2.291   3.856   1.810  0.4802 -0.2815 -0.0254
  843MOL0     H13748   2.356   3.727   1.596 -0.2385 -2.0772 -0.0811
  843MOL0     H13749   2.521   3.751   1.650  0.0330  5.4687  1.7629
  843MOL0     H13750   2.486   3.649   1.863 -0.1435  1.1932  0.4747
  843MOL0     H13751   2.308   3.634   1.847  0.5928  0.3660  0.0473
  843MOL0     H13752   2.344   3.485   1.655 -1.7443  1.8638  0.3152
  843MOL0     H13753   2.373   3.428   1.820 -0.1507  0.1345 -0.6988
  843MOL0     H13754   2.588   3.543   1.624 -0.2850 -3.1113 -3.6215
  843MOL0     H13755   2.614   3.495   1.792 -3.5353 -1.2328  1.7286
  843MOL0     H13756   2.792   3.380   1.599  1.6724 -0.1147 -2.8041
  843MOL0     H13757   2.751   3.112   1.324  0.8423  1.3069 -0.7856
  843MOL0     H13758   2.872   3.218   1.395  0.1931 -0.3327 -1.3467
  843MOL0     H13759   2.921   3.084   1.580  2.3250 -1.9249 -0.3122
  843MOL0     H13760   2.787   2.976   1.528 -1.9692  2.3936  2.1910
  843MOL0     H13761   3.069   3.027   1.408  1.0505 -1.9227  0.9224
  843MOL0     H13762   2.955   2.945   1.316  0.8417 -3.4335 -0.5081
  843MOL0     H13763   3.077   2.778   1.419 -3.9413  1.1590 -4.7467
  843MOL0     H13764   2.919   2.763   1.491  0.0887 -1.5653  1.3382
  843MOL0     H13765   3.126   3.065   1.665 -0.5770  0.6675  0.4889
  843MOL0     H13766   3.368   3.149   1.711  1.4451 -0.1738  1.6247
  843MOL0     H13767   3.661   3.261   1.904 -0.3500 -2.1197 -0.6161
  843MOL0     H13768   3.882   3.377   1.970  0.8627  0.6097 -0.2943
  843MOL0     H13769   4.124   3.446   2.012  0.7903 -0.6129 -3.6741
  843MOL0     H13770   4.057   3.291   2.078  0.8682 -3.1854  0.9391
  843MOL0     H13771   4.264   3.293   2.190  1.9143  0.5187  1.1363
  843MOL0     H13772   4.307   3.197   2.057  2.4152  0.5026  0.6066
  843MOL0     H13773   4.377   3.372   1.920 -3.3632 -0.7166  0.3783
  843MOL0     H13774   4.343   3.508   2.029 -0.1417  0.9168  0.3962
  843MOL0     H13775   4.532   3.291   2.112  1.0639  0.6452 -1.7805
  843MOL0     H13776   4.468   3.429   2.205  0.8782  1.3432  0.1559
  843MOL0     H13777   4.558   3.573   2.005 -1.4106 -1.1812 -1.8684
  843MOL0     H13778   4.634   3.423   1.953  1.6770  3.1028 -0.7189
  843MOL0     H13779   4.685   3.584   2.206  0.4015  0.7614 -0.9578
  843MOL0     H13780   4.752   3.417   2.184  1.1084  1.0350  0.7292
  843MOL0     H13781   4.926   3.571   2.102  1.1392 -0.7043 -0.3560
  843MOL0     H13782   4.811   3.676   2.027  0.0754 -0.3939  1.8293
  843MOL0     H13783   4.905   3.406   1.918  1.0100  0.2422 -0.1814
  843MOL0     H13784   4.790   3.520   1.836  0.0566 -0.5576 -0.4130
  843MOL0     H13785   4.075   3.137   1.657  1.6665 -1.9679  2.7321
  843MOL0     H13786   3.857   3.092   1.572 -0.2437 -0.0670 -0.3504
  843MOL0     H13787   3.497   2.752   1.647 -0.4960  0.3066 -1.8538
  843MOL0     H13788   3.249   2.673   1.618  0.3719 -0.5932 -0.7893
  843MOL0     H13789   1.932   4.197   1.908 -0.4698 -0.2115  0.6324
  843MOL0     H13790   1.697   4.154   1.887  0.2503  1.7971 -1.3283
  843MOL0     H13791   1.467   3.742   1.682  0.0361 -0.8289  1.4128
  843MOL0     H13792   1.253   3.616   1.617  0.6838 -1.2510  3.0516
  843MOL0     H13793   0.878   3.810   1.612  2.1299  2.5125  1.8231
  843MOL0     H13794   0.859   3.745   1.779  0.3372  3.2144 -0.3522
  843MOL0     H13795   0.816   3.534   1.688  0.1850  0.1693  0.5972
  843MOL0     H13796   0.844   3.587   1.522 -1.9559  1.7547 -1.6747
  843MOL0     H13797   0.644   3.714   1.712 -3.5015 -3.2237  2.2799
  843MOL0     H13798   0.584   3.581   1.619  1.0648 -0.4554  2.1830
  843MOL0     H13799   0.692   3.837   1.501 -1.0572  1.1415  2.6493
  843MOL0     H13800   0.668   3.691   1.395 -0.0937 -1.5147  0.7959
  843MOL0     H13801   0.263   3.813   1.494 -0.6686 -1.4663 -3.5847
  843MOL0     H13802   1.014   3.931   1.790 -0.6555 -1.5943 -0.5188
  843MOL0     H13803   1.094   4.096   1.905  0.2347  1.5581  0.4688
  843MOL0     H13804   1.257   4.092   1.982 -0.8083  1.3944  0.5281
  843MOL0     H13805   1.234   4.165   1.816  1.2036 -0.7476 -0.6521
  844MOL0     O13806  11.129   3.606   4.354 -0.8525  0.4552  0.8125
  844MOL0     C13807  11.101   3.505   4.293 -0.2221 -0.4486  0.1061
  844MOL0     O13808  11.172   3.446   4.190  0.2929  0.0106 -0.1316
  844MOL0     C13809  11.290   3.506   4.151 -0.3672  0.4750 -0.5871
  844MOL0     C13810  11.407   3.448   4.195 -0.4347  0.0619 -0.4643
  844MOL0     C13811  11.535   3.501   4.166 -0.6003  0.1883  0.7059
  844MOL0     C13812  11.541   3.624   4.091  0.4374  1.7063  0.1152
  844MOL0     O13813  11.671   3.663   4.064 -0.0725  0.3944 -0.7392
  844MOL0     C13814  11.700   3.745   3.945 -0.0643  0.1472 -0.6104
  844MOL0     C13815  11.851   3.770   3.955  0.8430 -0.3221  0.3953
  844MOL0     C13816  11.923   3.637   3.916 -0.6042  1.0309 -0.5629
  844MOL0     C13817  12.075   3.642   3.926 -0.4488 -0.2799 -0.7516
  844MOL0     C13818  12.125   3.509   3.876 -0.6239 -0.3056 -0.7297
  844MOL0     C13819  12.272   3.481   3.929 -0.1896  0.9114  1.1753
  844MOL0     C13820  12.317   3.341   3.930  0.0042  0.0963  0.0969
  844MOL0     C13821  12.455   3.331   3.988  0.5718  0.5830 -0.0309
  844MOL0     N13822  12.526   3.202   3.967 -0.3950  0.5429 -0.4291
  844MOL0     C13823  12.519   3.127   3.858 -0.2459 -0.7804 -0.5042
  844MOL0     C13824  12.632   3.048   3.851 -0.0904 -0.1126 -0.2005
  844MOL0     C13825  12.658   2.953   3.741 -0.5193 -0.3766 -0.5694
  844MOL0     C13826  12.811   2.919   3.738 -0.2173  0.1151  1.0855
  844MOL0     C13827  12.817   2.773   3.694 -0.0880  0.0814 -0.2793
  844MOL0     C13828  12.966   2.716   3.676  1.2873  0.7866 -0.4766
  844MOL0     O13829  13.032   2.809   3.594 -0.0832 -0.5085  0.3263
  844MOL0     C13830  13.162   2.781   3.567 -0.0230  1.4183  0.2273
  844MOL0     C13831  13.208   2.653   3.548  0.3913 -0.0538 -0.2687
  844MOL0     C13832  13.349   2.634   3.530 -0.0554  0.4696  0.2382
  844MOL0     C13833  13.448   2.735   3.538  0.5740  0.3168  0.6874
  844MOL0     C13834  13.587   2.697   3.517 -0.3529  0.6575 -0.0360
  844MOL0     O13835  13.622   2.564   3.504 -0.6202  0.5146  0.4911
  844MOL0     C13836  13.754   2.531   3.483  0.0045  0.1336 -0.5516
  844MOL0     C13837  13.823   2.478   3.590 -0.3719 -0.2289 -0.0666
  844MOL0     C13838  13.960   2.458   3.584 -0.3069  0.4921  0.1639
  844MOL0     C13839  14.031   2.475   3.466 -0.1517  0.4490 -0.5139
  844MOL0     O13840  14.160   2.442   3.464 -0.0530  0.7965  0.0582
  844MOL0     C13841  14.257   2.508   3.379  0.6550 -0.0778 -0.6609
  844MOL0     C13842  14.388   2.449   3.415  0.0338  0.2692 -0.1775
  844MOL0     C13843  14.444   2.463   3.558 -0.3772 -0.2904 -0.5703
  844MOL0     C13844  14.599   2.445   3.560  0.2737  0.4553 -0.5720
  844MOL0     C13845  14.647   2.301   3.542  0.3655  0.2406 -0.1946
  844MOL0     C13846  14.796   2.271   3.533  0.7683  0.3570  0.0515
  844MOL0     C13847  14.878   2.293   3.656 -0.3412 -0.3143  0.0923
  844MOL0     C13848  15.030   2.283   3.632  0.0922 -0.0180 -0.7179
  844MOL0    Cl13849  15.090   2.379   3.489 -0.2900  0.1384 -0.0762
  844MOL0     C13850  13.972   2.538   3.363 -0.0891 -0.8024 -0.6766
  844MOL0     C13851  13.832   2.568   3.372  0.6090  0.3107 -0.1325
  844MOL0     O13852  13.664   2.795   3.516  0.0850  0.9475 -0.5032
  844MOL0     C13853  13.401   2.863   3.561  1.2480 -0.3723  0.5267
  844MOL0     C13854  13.257   2.882   3.574  0.8551  0.2914 -0.7408
  844MOL0     N13855  12.697   3.076   3.968  0.5091  1.4367 -0.5540
  844MOL0     N13856  12.626   3.151   4.045 -1.1408 -0.0124  1.5858
  844MOL0     C13857  11.427   3.679   4.048  0.1022  0.4416  0.0751
  844MOL0     C13858  11.303   3.614   4.064 -0.2214 -0.9960 -0.2262
  844MOL0     C13859  10.991   3.425   4.345 -0.3917 -0.0039 -0.9615
  844MOL0     C13860  11.016   3.292   4.374 -0.5451  0.3442  0.2212
  844MOL0     C13861  10.914   3.208   4.419  0.5337  0.1064  0.3267
  844MOL0     C13862  10.787   3.257   4.447  1.1963 -0.0821  0.3284
  844MOL0     O13863  10.677   3.171   4.488  0.5356 -0.0699  0.7061
  844MOL0     C13864  10.704   3.029   4.506  0.3381  0.3049 -0.4154
  844MOL0     C13865  10.601   2.966   4.603 -0.0997 -0.0824 -0.3977
  844MOL0     C13866  10.624   2.812   4.615 -0.6227  0.5182  0.5535
  844MOL0     C13867  10.557   2.772   4.742  0.2893  0.0701 -1.1632
  844MOL0     C13868  10.531   2.625   4.730  1.1511 -0.5255  0.5448
  844MOL0     C13869  10.512   2.508   4.700  0.6383  0.8992 -0.0062
  844MOL0     C13870  10.769   3.395   4.428  0.5924 -0.1857 -0.0786
  844MOL0     C13871  10.869   3.480   4.382 -0.1703  0.2043  0.2897
  844MOL0     C13872  10.837   3.630   4.369  0.3704 -0.4029 -0.0163
  844MOL0     H13873  11.400   3.353   4.246 -0.4233 -0.9009 -2.1880
  844MOL0     H13874  11.620   3.436   4.183 -1.2628 -0.5925  1.1368
  844MOL0     H13875  11.673   3.685   3.857 -2.1093  0.6646 -0.3837
  844MOL0     H13876  11.625   3.823   3.957  0.3909  0.4926  0.0742
  844MOL0     H13877  11.875   3.803   4.056 -1.1280  0.1863  0.7317
  844MOL0     H13878  11.872   3.854   3.889 -0.1015  2.0765  2.9830
  844MOL0     H13879  11.892   3.613   3.814  0.0131  1.7783 -0.9369
  844MOL0     H13880  11.893   3.554   3.981 -3.2101  1.0639 -1.6236
  844MOL0     H13881  12.117   3.723   3.867  1.1972 -0.6844 -0.1920
  844MOL0     H13882  12.095   3.650   4.033 -1.8089 -2.9237 -0.1889
  844MOL0     H13883  12.057   3.431   3.910  1.9410 -2.6786 -0.7405
  844MOL0     H13884  12.119   3.514   3.766 -2.1606 -0.9328 -0.6977
  844MOL0     H13885  12.342   3.541   3.869  1.4054  0.2571  2.3289
  844MOL0     H13886  12.270   3.517   4.032 -4.7912  0.3974  1.4639
  844MOL0     H13887  12.329   3.320   3.824  0.8294  1.8242 -0.1957
  844MOL0     H13888  12.250   3.276   3.988  2.1583 -0.6020  1.9557
  844MOL0     H13889  12.512   3.407   3.934 -1.0812  1.9294  0.0298
  844MOL0     H13890  12.447   3.356   4.095  2.9995 -1.7386  0.8063
  844MOL0     H13891  12.442   3.131   3.782  1.2000  0.4624 -1.9848
  844MOL0     H13892  12.589   2.872   3.768 -0.3249  0.8386  4.6896
  844MOL0     H13893  12.635   3.007   3.649 -2.3881 -3.2274 -1.9301
  844MOL0     H13894  12.847   2.987   3.661  0.0275 -1.0579  0.1514
  844MOL0     H13895  12.856   2.931   3.837 -2.4252 -0.6991  2.2710
  844MOL0     H13896  12.762   2.771   3.599  1.0496 -0.9677 -0.9342
  844MOL0     H13897  12.773   2.703   3.766 -0.7340 -2.8136 -3.2598
  844MOL0     H13898  12.965   2.614   3.637 -0.7599 -0.7602  3.1334
  844MOL0     H13899  13.020   2.699   3.770  1.9028  1.1851 -0.7538
  844MOL0     H13900  13.134   2.576   3.529  0.9997 -0.3270 -1.6386
  844MOL0     H13901  13.379   2.533   3.502  0.5675  1.3999 -2.7391
  844MOL0     H13902  13.760   2.459   3.677 -2.8618  6.2323  0.0926
  844MOL0     H13903  13.994   2.402   3.671  1.0260  1.3790  0.2454
  844MOL0     H13904  14.245   2.492   3.272 -0.1453  1.1901 -0.7726
  844MOL0     H13905  14.261   2.615   3.399 -0.8426  0.0173 -0.7650
  844MOL0     H13906  14.382   2.342   3.394  1.4891  0.6278 -2.8451
  844MOL0     H13907  14.462   2.489   3.345  1.1267  2.3607  2.0113
  844MOL0     H13908  14.406   2.561   3.588  0.3710  0.2669 -1.3816
  844MOL0     H13909  14.406   2.386   3.626  1.0193 -0.2262  0.3180
  844MOL0     H13910  14.634   2.482   3.657 -1.5538  1.5595 -0.2718
  844MOL0     H13911  14.649   2.514   3.492  0.3487 -1.0126 -2.0375
  844MOL0     H13912  14.592   2.236   3.472  2.1016 -0.7205 -0.7163
  844MOL0     H13913  14.623   2.253   3.637 -2.1521 -2.1714 -1.8519
  844MOL0     H13914  14.808   2.165   3.506 -1.5739 -0.1740  0.8923
  844MOL0     H13915  14.831   2.337   3.454 -1.5880  0.5544 -0.9165
  844MOL0     H13916  14.836   2.221   3.726  1.3111 -1.6868 -0.2727
  844MOL0     H13917  14.867   2.396   3.693  1.1455 -1.4501  4.2112
  844MOL0     H13918  15.081   2.323   3.721 -0.0654  0.9546 -1.0553
  844MOL0     H13919  15.048   2.175   3.620 -0.7270 -0.6681  2.7183
  844MOL0     H13920  14.036   2.560   3.278 -1.1120 -2.5086 -1.9329
  844MOL0     H13921  13.783   2.618   3.290 -1.0607  0.6994  1.0440
  844MOL0     H13922  13.457   2.956   3.562  2.3562 -1.0189  2.4867
  844MOL0     H13923  13.223   2.985   3.582  2.3767  0.6967  1.5597
  844MOL0     H13924  11.439   3.770   3.989  4.8035 -0.5703 -0.9164
  844MOL0     H13925  11.203   3.645   4.036  0.1597  2.2435  1.5674
  844MOL0     H13926  11.110   3.248   4.345  0.1774  1.1479  1.2666
  844MOL0     H13927  10.937   3.102   4.418  0.1739 -0.0091  1.9948
  844MOL0     H13928  10.802   3.014   4.551  0.3750  1.4119 -0.0846
  844MOL0     H13929  10.696   2.975   4.411 -0.6301 -1.2806  0.5320
  844MOL0     H13930  10.508   3.003   4.559  0.3463 -0.0597 -1.3590
  844MOL0     H13931  10.614   3.014   4.700  0.9918 -0.9181 -0.1091
  844MOL0     H13932  10.730   2.786   4.622 -0.3493  1.4502  0.0308
  844MOL0     H13933  10.579   2.755   4.533 -0.0011  0.5025  0.2172
  844MOL0     H13934  10.624   2.821   4.812  1.0964  1.5261 -2.8932
  844MOL0     H13935  10.460   2.821   4.751  0.1745 -0.1537 -1.1766
  844MOL0     H13936  10.475   2.408   4.710 -1.4204  1.5590 -0.4937
  844MOL0     H13937  10.675   3.444   4.451  1.2998  1.5563 -0.7218
  844MOL0     H13938  10.892   3.695   4.438  0.8358  0.0221 -0.7771
  844MOL0     H13939  10.862   3.661   4.268  0.1640  2.0964  0.6423
  844MOL0     H13940  10.730   3.641   4.384  0.6800  1.1507  1.2680
  845MOL0     O13941   5.573   5.420  11.187  0.2460  1.0893  0.1170
  845MOL0     C13942   5.527   5.315  11.210  0.9018  0.2801 -0.8183
  845MOL0     O13943   5.398   5.297  11.251  0.5225 -0.0993  0.6828
  845MOL0     C13944   5.317   5.410  11.263  1.2456 -0.4841 -0.2831
  845MOL0     C13945   5.324   5.474  11.388  0.0899 -0.2062 -0.6276
  845MOL0     C13946   5.241   5.583  11.422 -0.2798 -0.2714 -0.2519
  845MOL0     C13947   5.154   5.640  11.329  0.0220  0.2682 -0.1248
  845MOL0     O13948   5.072   5.739  11.374  0.4218 -0.2790  0.4855
  845MOL0     C13949   5.142   5.847  11.440  0.3539  0.2416 -1.3805
  845MOL0     C13950   5.081   5.847  11.583 -0.4954 -0.4023  0.4672
  845MOL0     C13951   5.157   5.949  11.672  1.0881 -0.2322  0.1427
  845MOL0     C13952   5.302   5.900  11.685  0.5478 -0.5195  1.2992
  845MOL0     C13953   5.371   5.973  11.796 -0.1645  0.5672 -0.2435
  845MOL0     C13954   5.519   5.935  11.793 -0.1490  0.3433  0.2882
  845MOL0     C13955   5.618   6.033  11.863  0.2907  0.2394  0.0793
  845MOL0     C13956   5.745   5.966  11.910  0.2243  0.3036 -0.3702
  845MOL0     N13957   5.855   6.070  11.931 -0.2156  0.4063  0.1236
  845MOL0     C13958   5.924   6.145  11.837  0.3192  0.5912 -0.7760
  845MOL0     C13959   6.007   6.222  11.903  0.5819 -0.6386 -0.0261
  845MOL0     C13960   6.110   6.316  11.840  0.6859  0.9803  0.1537
  845MOL0     C13961   6.207   6.234  11.759  0.4245 -0.8950  0.2432
  845MOL0     C13962   6.307   6.319  11.676  0.7727 -0.0915  0.8204
  845MOL0     C13963   6.405   6.422  11.750  1.1130  0.9453 -0.1202
  845MOL0     O13964   6.477   6.346  11.850 -0.0950  0.7149  0.1875
  845MOL0     C13965   6.601   6.394  11.892 -0.4776  0.3241  0.0115
  845MOL0     C13966   6.672   6.314  11.989 -0.3243 -0.7133  0.1105
  845MOL0     C13967   6.798   6.347  12.027 -0.5294  0.3868  0.4879
  845MOL0     C13968   6.868   6.448  11.964 -0.9231  0.6329 -0.5571
  845MOL0     C13969   7.011   6.464  11.995  0.6744 -0.1621  0.2720
  845MOL0     O13970   7.076   6.583  11.972 -0.3916 -0.0564  0.2694
  845MOL0     C13971   7.216   6.574  11.948 -0.0393 -0.2753 -0.4807
  845MOL0     C13972   7.309   6.542  12.050 -0.2366 -1.0477  0.2311
  845MOL0     C13973   7.443   6.572  12.032 -0.3139  0.4055 -0.0291
  845MOL0     C13974   7.501   6.615  11.903  0.1108 -0.6145 -1.0337
  845MOL0     O13975   7.638   6.645  11.874  0.3687  0.0379 -0.1473
  845MOL0     C13976   7.726   6.660  11.977  0.4354 -0.5445  0.0092
  845MOL0     C13977   7.833   6.550  11.995  1.3053  0.1197  0.6763
  845MOL0     C13978   7.765   6.416  11.996  1.1020  0.0163 -0.0570
  845MOL0     C13979   7.876   6.313  12.029 -1.1251 -0.9610 -1.0608
  845MOL0     C13980   7.848   6.163  12.002  0.0889  0.6468  0.0621
  845MOL0     C13981   7.754   6.100  12.112 -0.8144 -0.2435  0.8668
  845MOL0     C13982   7.721   5.958  12.065  0.2779 -0.0045  0.0018
  845MOL0     C13983   7.629   5.880  12.148  0.2001 -0.9123 -0.5894
  845MOL0    Cl13984   7.668   5.714  12.089  0.0440  0.3269  0.2306
  845MOL0     C13985   7.411   6.648  11.802  1.2367  0.4746 -0.2918
  845MOL0     C13986   7.274   6.610  11.822 -0.6718 -1.1899 -0.4537
  845MOL0     O13987   7.061   6.368  12.048  0.5824 -0.4840  0.4395
  845MOL0     C13988   6.804   6.529  11.867 -0.1281 -0.3387 -0.4732
  845MOL0     C13989   6.672   6.503  11.832 -0.1460  0.0045  0.2356
  845MOL0     N13990   5.985   6.205  12.041 -0.4200  0.3532 -0.1824
  845MOL0     N13991   5.897   6.112  12.053  1.1715 -0.4788 -0.1315
  845MOL0     C13992   5.137   5.573  11.205 -0.1912 -0.0086 -0.7719
  845MOL0     C13993   5.217   5.456  11.178  0.1337  0.8331 -0.7497
  845MOL0     C13994   5.609   5.188  11.204 -0.8832  0.6236 -0.5068
  845MOL0     C13995   5.570   5.081  11.284 -0.0596  0.5278 -0.4080
  845MOL0     C13996   5.635   4.959  11.286  0.2711 -0.5970  0.6648
  845MOL0     C13997   5.744   4.931  11.194  0.7401 -1.0458  0.7428
  845MOL0     O13998   5.797   4.808  11.174 -0.0904 -0.3561 -0.1693
  845MOL0     C13999   5.727   4.718  11.091  1.6074  0.3452 -0.3820
  845MOL0     C14000   5.806   4.679  10.973 -0.2949  0.2211  0.2678
  845MOL0     C14001   5.736   4.570  10.882 -0.1444  1.2506 -0.3035
  845MOL0     C14002   5.808   4.554  10.748  0.0505  0.0638  0.2224
  845MOL0     C14003   5.752   4.440  10.683 -0.0970 -0.6805  0.7783
  845MOL0     C14004   5.684   4.359  10.614 -0.6913 -0.8068 -0.2728
  845MOL0     C14005   5.785   5.048  11.110 -0.1720 -0.4218  0.2807
  845MOL0     C14006   5.716   5.168  11.109 -0.0294 -0.8114 -0.4144
  845MOL0     C14007   5.770   5.273  11.015  1.0026  0.1329 -0.2663
  845MOL0     H14008   5.385   5.429  11.465 -1.3466 -0.4271  0.4107
  845MOL0     H14009   5.250   5.619  11.524 -3.4345 -2.5944  1.0153
  845MOL0     H14010   5.251   5.835  11.435  0.0878 -2.6717 -2.2980
  845MOL0     H14011   5.118   5.943  11.394 -1.6947  1.3860  1.7228
  845MOL0     H14012   5.095   5.745  11.619  0.2115 -1.6826 -3.0356
  845MOL0     H14013   4.972   5.860  11.589 -0.7416 -1.6756 -0.7014
  845MOL0     H14014   5.109   5.951  11.771  1.6663  1.3012  0.4157
  845MOL0     H14015   5.153   6.051  11.635  1.8695  0.8530  2.8273
  845MOL0     H14016   5.303   5.793  11.704 -0.1780 -0.5894  0.9625
  845MOL0     H14017   5.353   5.911  11.588 -1.0357  0.7150  0.5444
  845MOL0     H14018   5.354   6.081  11.799  1.0723  0.7532  1.0458
  845MOL0     H14019   5.333   5.928  11.888 -3.6173  1.5229 -1.0659
  845MOL0     H14020   5.527   5.835  11.835  1.4374  0.3064 -0.0381
  845MOL0     H14021   5.539   5.934  11.685  1.2420  1.3696  0.5117
  845MOL0     H14022   5.575   6.075  11.955  1.0661 -2.1354  1.6040
  845MOL0     H14023   5.638   6.123  11.803  0.3623  2.6602  3.4371
  845MOL0     H14024   5.716   5.919  12.004 -2.4777  0.7394 -0.9000
  845MOL0     H14025   5.778   5.886  11.843 -2.2122 -4.8665  3.8510
  845MOL0     H14026   5.915   6.152  11.729  2.4292  0.2025 -1.0059
  845MOL0     H14027   6.063   6.387  11.770  0.1319 -0.3099 -0.8135
  845MOL0     H14028   6.168   6.361  11.921 -0.8628 -1.3447  2.7231
  845MOL0     H14029   6.275   6.165  11.809  2.2493  1.3056  0.9237
  845MOL0     H14030   6.143   6.168  11.698  1.6866 -1.7980 -0.1359
  845MOL0     H14031   6.256   6.369  11.593  2.7971  0.8826  0.1047
  845MOL0     H14032   6.372   6.243  11.633 -0.0609 -0.5175  0.2818
  845MOL0     H14033   6.343   6.486  11.814 -0.8662 -1.8352  0.9215
  845MOL0     H14034   6.460   6.475  11.671  1.0951  4.2634  1.8800
  845MOL0     H14035   6.631   6.224  12.035  1.5659 -1.0578  1.2479
  845MOL0     H14036   6.838   6.286  12.107 -2.4686 -0.7372  0.6538
  845MOL0     H14037   7.276   6.495  12.142 -1.1337  2.4578  1.8587
  845MOL0     H14038   7.512   6.559  12.115 -0.1771  0.2547 -0.1655
  845MOL0     H14039   7.782   6.753  11.963  2.3708 -1.8288 -1.3994
  845MOL0     H14040   7.674   6.688  12.069  1.9370  0.9497  0.4570
  845MOL0     H14041   7.905   6.555  11.912  2.6124 -0.7009  1.7313
  845MOL0     H14042   7.891   6.574  12.084  3.5522 -0.4079 -0.5724
  845MOL0     H14043   7.690   6.421  12.075  2.3853 -0.8868  1.2750
  845MOL0     H14044   7.720   6.404  11.897 -2.3488 -2.8424  1.6303
  845MOL0     H14045   7.897   6.316  12.136  1.7507  0.4545 -1.5868
  845MOL0     H14046   7.964   6.351  11.977 -0.7097  0.4667  0.5896
  845MOL0     H14047   7.940   6.104  12.012  0.1803  0.7344 -0.2360
  845MOL0     H14048   7.804   6.138  11.904 -1.8096 -2.1916  1.4875
  845MOL0     H14049   7.810   6.087  12.205 -0.1887 -1.8775  0.3042
  845MOL0     H14050   7.661   6.157  12.116  0.2661  1.5189  2.1792
  845MOL0     H14051   7.817   5.907  12.054  0.6102 -0.5354  3.9364
  845MOL0     H14052   7.669   5.971  11.969  0.1641  2.8241  0.3610
  845MOL0     H14053   7.654   5.886  12.254  2.6891 -0.4817 -1.1281
  845MOL0     H14054   7.525   5.911  12.136  0.3566 -0.3464 -0.5560
  845MOL0     H14055   7.437   6.691  11.706  1.3341  1.8960  0.3377
  845MOL0     H14056   7.201   6.625  11.744 -3.6639  0.2741  2.4049
  845MOL0     H14057   6.849   6.618  11.823 -1.8290  0.2100 -1.2185
  845MOL0     H14058   6.636   6.561  11.748 -2.2426 -2.6389 -0.8521
  845MOL0     H14059   5.056   5.617  11.146 -1.4508 -0.7414  0.3501
  845MOL0     H14060   5.201   5.395  11.089  2.3117  0.3369 -0.8752
  845MOL0     H14061   5.484   5.091  11.348 -0.1913 -2.5077  0.0377
  845MOL0     H14062   5.601   4.872  11.343  0.7996 -2.5854 -1.8506
  845MOL0     H14063   5.626   4.751  11.067  2.2936  1.4210 -2.0759
  845MOL0     H14064   5.723   4.626  11.149  0.2487  1.2013  0.9312
  845MOL0     H14065   5.904   4.650  11.013 -0.5295  1.7071  2.0500
  845MOL0     H14066   5.834   4.757  10.901  0.5377 -0.0894  0.2379
  845MOL0     H14067   5.633   4.602  10.865 -1.0146  0.3244  2.5038
  845MOL0     H14068   5.743   4.475  10.936 -0.8671  0.5994 -1.3252
  845MOL0     H14069   5.793   4.640  10.682  0.3752  0.0562  0.1375
  845MOL0     H14070   5.916   4.553  10.765  0.0586 -3.4490  0.6510
  845MOL0     H14071   5.631   4.292  10.551 -0.7581  0.7327 -1.9301
  845MOL0     H14072   5.863   5.027  11.038 -3.0376 -0.1744 -3.2235
  845MOL0     H14073   5.698   5.294  10.936 -0.1402  1.2452  1.0089
  845MOL0     H14074   5.792   5.363  11.073 -0.3958  1.3851 -1.6025
  845MOL0     H14075   5.858   5.232  10.965  0.6285  1.8447 -2.4545
  846MOL0     O14076   0.032   5.385   6.374 -0.3299  0.0368 -0.3015
  846MOL0     C14077  -0.023   5.280   6.338  0.8297 -0.1834  0.4055
  846MOL0     O14078  -0.106   5.211   6.409 -0.3328  0.6176 -0.8036
  846MOL0     C14079  -0.153   5.252   6.529 -0.0952  1.0092 -0.0032
  846MOL0     C14080  -0.100   5.220   6.658  0.3406  0.1637  0.6957
  846MOL0     C14081  -0.165   5.247   6.781  0.6257  0.0944  0.7373
  846MOL0     C14082  -0.298   5.304   6.775  0.4234 -0.4301  0.3942
  846MOL0     O14083  -0.384   5.339   6.889 -0.1273  0.6090  0.6259
  846MOL0     C14084  -0.366   5.254   7.008  0.0173  0.2031  0.0856
  846MOL0     C14085  -0.471   5.261   7.115  0.4995  0.8269  0.1340
  846MOL0     C14086  -0.425   5.200   7.245  0.3239  0.1752 -1.3107
  846MOL0     C14087  -0.551   5.143   7.322 -0.6314  0.1897  0.2837
  846MOL0     C14088  -0.521   5.113   7.468 -0.1096 -0.0647  0.4852
  846MOL0     C14089  -0.542   5.240   7.550 -0.3447 -0.2378 -0.2243
  846MOL0     C14090  -0.688   5.285   7.560 -0.2516 -0.7124 -0.2520
  846MOL0     C14091  -0.710   5.434   7.536 -0.9372  0.1459 -0.4269
  846MOL0     N14092  -0.638   5.514   7.639 -0.2865  0.3393  0.3488
  846MOL0     C14093  -0.555   5.622   7.614  0.1595  0.1270  0.3234
  846MOL0     C14094  -0.530   5.671   7.736 -0.3786  0.4735  0.9922
  846MOL0     C14095  -0.441   5.784   7.765  0.1877  0.2212  1.0053
  846MOL0     C14096  -0.335   5.820   7.660 -0.5185 -0.3135 -0.7211
  846MOL0     C14097  -0.235   5.927   7.700  0.2994 -0.0045  0.5897
  846MOL0     C14098  -0.109   5.937   7.606 -0.7647  0.0156 -0.0659
  846MOL0     O14099  -0.143   5.953   7.475 -0.0389  0.6904  0.5339
  846MOL0     C14100  -0.053   5.992   7.371 -0.2688  0.3118  0.0178
  846MOL0     C14101  -0.076   5.940   7.242  0.2744 -0.1777  0.1704
  846MOL0     C14102   0.014   5.969   7.138 -0.2560 -0.4837  0.1599
  846MOL0     C14103   0.121   6.060   7.158 -0.1203 -0.6868  0.0320
  846MOL0     C14104   0.210   6.100   7.049  1.1029 -0.4233  0.5519
  846MOL0     O14105   0.174   6.059   6.928  0.8618 -0.5949  0.0933
  846MOL0     C14106   0.257   6.094   6.820  0.8402 -0.4461 -0.3942
  846MOL0     C14107   0.339   5.998   6.774 -0.0999 -0.5750  0.3870
  846MOL0     C14108   0.411   6.016   6.655  0.1564 -0.4637 -0.6040
  846MOL0     C14109   0.412   6.140   6.594  0.2720 -0.6812  0.3981
  846MOL0     O14110   0.495   6.151   6.493  0.0702  0.0316  0.2897
  846MOL0     C14111   0.444   6.217   6.373 -0.5138  0.5917  0.2071
  846MOL0     C14112   0.558   6.222   6.268  0.0081  0.5494 -1.3812
  846MOL0     C14113   0.607   6.090   6.217  0.2309  0.9007 -0.2773
  846MOL0     C14114   0.522   6.037   6.096 -0.5196 -0.2336 -0.0721
  846MOL0     C14115   0.548   5.887   6.080  0.1243 -0.0955  0.9953
  846MOL0     C14116   0.505   5.835   5.940  0.2464 -0.3617  0.0643
  846MOL0     C14117   0.613   5.850   5.826  0.4198  0.9242 -0.8742
  846MOL0     C14118   0.566   5.825   5.688 -0.3793 -0.0189  0.2550
  846MOL0    Cl14119   0.511   5.649   5.662  0.0686  0.0681 -0.1384
  846MOL0     C14120   0.336   6.245   6.648 -0.8109 -0.7491 -0.0845
  846MOL0     C14121   0.246   6.216   6.756 -0.7877 -0.0556  0.2482
  846MOL0     O14122   0.301   6.180   7.065 -0.2676  0.2040 -0.5049
  846MOL0     C14123   0.154   6.081   7.294  0.4494 -0.4499 -0.3297
  846MOL0     C14124   0.065   6.055   7.403  0.3808  0.7528  0.7033
  846MOL0     N14125  -0.590   5.590   7.828  0.4236  0.0241 -0.4393
  846MOL0     N14126  -0.654   5.496   7.772 -0.4086  0.1598 -0.2540
  846MOL0     C14127  -0.345   5.343   6.650 -0.2662 -0.1725  0.2105
  846MOL0     C14128  -0.279   5.312   6.530  0.5883 -0.3458 -0.3085
  846MOL0     C14129   0.000   5.245   6.197 -0.4107 -0.0811 -0.8013
  846MOL0     C14130  -0.102   5.256   6.110  0.1554  0.0764  0.7050
  846MOL0     C14131  -0.075   5.242   5.977 -0.0045  0.0078  1.0751
  846MOL0     C14132   0.044   5.196   5.929 -1.1127  0.6526  0.3851
  846MOL0     O14133   0.066   5.178   5.797  0.4578 -0.0457  0.2257
  846MOL0     C14134   0.179   5.111   5.744  0.1337 -0.5853  0.1834
  846MOL0     C14135   0.155   5.093   5.592 -0.4832  0.5232  0.5635
  846MOL0     C14136   0.276   5.057   5.499 -0.1838  0.0847  0.6998
  846MOL0     C14137   0.232   5.072   5.353 -0.3369 -0.5499  0.3830
  846MOL0     C14138   0.122   4.987   5.306 -0.3680  0.0129  1.2320
  846MOL0     C14139   0.028   4.913   5.275 -0.2229 -1.2095 -0.0922
  846MOL0     C14140   0.148   5.188   6.022  0.5874  0.2505  0.0856
  846MOL0     C14141   0.130   5.212   6.152  0.1382  0.1660  0.9608
  846MOL0     C14142   0.246   5.184   6.249 -0.1353  0.8304 -0.3739
  846MOL0     H14143  -0.008   5.162   6.666  0.5710  0.3659 -0.3999
  846MOL0     H14144  -0.124   5.221   6.878  0.8250  1.7396  1.1227
  846MOL0     H14145  -0.363   5.148   6.981  2.3483  0.6778 -1.8367
  846MOL0     H14146  -0.270   5.282   7.053  0.6283  0.0036 -1.0506
  846MOL0     H14147  -0.558   5.202   7.084 -0.3875  0.0674  3.6403
  846MOL0     H14148  -0.500   5.366   7.120  2.3731  1.6227 -2.9547
  846MOL0     H14149  -0.378   5.281   7.301  0.8756 -1.0792  0.1374
  846MOL0     H14150  -0.350   5.121   7.230 -1.0071 -1.0619 -1.7071
  846MOL0     H14151  -0.632   5.216   7.309  0.6278  1.7568  1.0279
  846MOL0     H14152  -0.581   5.046   7.280 -0.2490 -0.4080  1.3445
  846MOL0     H14153  -0.585   5.033   7.504 -0.0883 -0.8352 -1.0789
  846MOL0     H14154  -0.419   5.076   7.475 -0.2336 -0.8806 -1.3358
  846MOL0     H14155  -0.502   5.232   7.652  0.2631  3.0785 -0.0888
  846MOL0     H14156  -0.482   5.320   7.505  0.7875 -0.3544  1.0253
  846MOL0     H14157  -0.730   5.281   7.661  0.2478  1.6308  0.1105
  846MOL0     H14158  -0.762   5.237   7.494 -0.6968  0.8708 -0.9486
  846MOL0     H14159  -0.686   5.462   7.433  1.6506  3.2770  0.8682
  846MOL0     H14160  -0.816   5.455   7.548 -0.6822  0.1709  2.4324
  846MOL0     H14161  -0.525   5.662   7.518 -1.6048 -2.2648 -1.3702
  846MOL0     H14162  -0.503   5.872   7.786  1.3616  1.2752  0.2049
  846MOL0     H14163  -0.390   5.753   7.856  1.1780 -0.7309  0.1656
  846MOL0     H14164  -0.279   5.729   7.639 -2.1706 -1.6785  0.5220
  846MOL0     H14165  -0.372   5.838   7.559  0.8727 -0.4962 -1.2839
  846MOL0     H14166  -0.200   5.901   7.800 -1.5877 -2.2099  0.7623
  846MOL0     H14167  -0.289   6.021   7.712  0.4114  0.3237 -1.1282
  846MOL0     H14168  -0.040   5.852   7.611 -1.5424 -0.6926 -0.9724
  846MOL0     H14169  -0.058   6.021   7.653 -0.2888 -2.1506  3.7208
  846MOL0     H14170  -0.156   5.869   7.222 -0.5007  0.8381 -0.5000
  846MOL0     H14171   0.002   5.929   7.038 -4.3202 -0.5286  0.4863
  846MOL0     H14172   0.348   5.904   6.827 -1.3494 -0.3268  1.0730
  846MOL0     H14173   0.468   5.941   6.600  2.1949  1.8402 -1.8548
  846MOL0     H14174   0.350   6.171   6.341  0.2856 -1.0273  0.0641
  846MOL0     H14175   0.428   6.318   6.412  1.2789  2.1639 -2.7629
  846MOL0     H14176   0.525   6.282   6.183 -2.1148  1.0898 -0.2466
  846MOL0     H14177   0.642   6.278   6.310 -0.5190 -0.3645  1.0620
  846MOL0     H14178   0.708   6.110   6.180  0.9848  0.1087  1.2531
  846MOL0     H14179   0.617   6.020   6.301 -2.0817  0.0030 -0.6791
  846MOL0     H14180   0.546   6.093   6.004 -2.4870 -1.5332 -1.4677
  846MOL0     H14181   0.414   6.049   6.110 -0.8991 -1.9745 -1.2362
  846MOL0     H14182   0.486   5.839   6.157  0.6015 -1.1768  0.7170
  846MOL0     H14183   0.649   5.851   6.097 -0.1593 -0.8061  1.2107
  846MOL0     H14184   0.464   5.734   5.942  0.7211 -0.5512  0.7315
  846MOL0     H14185   0.420   5.892   5.901  0.1698  1.1044  2.1938
  846MOL0     H14186   0.707   5.795   5.833 -0.0885  0.2389  1.2766
  846MOL0     H14187   0.633   5.957   5.835 -0.8997  1.4796 -3.5338
  846MOL0     H14188   0.479   5.885   5.661 -0.6871 -0.6655 -0.2058
  846MOL0     H14189   0.647   5.839   5.616 -0.7306 -0.2130 -0.1877
  846MOL0     H14190   0.349   6.345   6.608 -0.2557 -1.5024 -1.9045
  846MOL0     H14191   0.188   6.289   6.810 -0.2890  1.8522 -1.6718
  846MOL0     H14192   0.244   6.139   7.313  1.1542 -1.6310  0.0023
  846MOL0     H14193   0.090   6.075   7.506 -0.1637 -1.5072  1.3374
  846MOL0     H14194  -0.444   5.386   6.645  0.0596  0.4759 -1.6524
  846MOL0     H14195  -0.323   5.333   6.433  0.3040 -0.3292 -0.1759
  846MOL0     H14196  -0.200   5.281   6.150 -0.4992 -1.1442 -0.0728
  846MOL0     H14197  -0.149   5.267   5.902  2.3547  3.0118 -0.4640
  846MOL0     H14198   0.176   5.013   5.793 -2.5641 -0.7989 -0.2602
  846MOL0     H14199   0.265   5.173   5.770 -0.8950  1.3135 -0.7077
  846MOL0     H14200   0.117   5.182   5.541 -0.3963 -0.2240 -0.8735
  846MOL0     H14201   0.078   5.017   5.576  1.1971 -1.6297  2.1247
  846MOL0     H14202   0.310   4.955   5.517  1.1536  0.4040  0.1643
  846MOL0     H14203   0.363   5.122   5.516 -0.4567  2.2001 -4.2227
  846MOL0     H14204   0.204   5.176   5.334 -4.0886 -1.8320 -2.2842
  846MOL0     H14205   0.321   5.070   5.289 -0.0778  1.2468  0.6129
  846MOL0     H14206  -0.057   4.848   5.265 -0.5863 -0.4937 -2.4308
  846MOL0     H14207   0.247   5.178   5.979  0.4471  2.7609 -0.9815
  846MOL0     H14208   0.302   5.277   6.260  1.4351  0.2418 -2.8026
  846MOL0     H14209   0.197   5.156   6.343 -0.9414 -1.8730 -1.4999
  846MOL0     H14210   0.316   5.105   6.221  2.4361  1.8064  2.6932
  847MOL0     O14211  11.117   2.504   6.701  0.5237 -0.8015  0.3160
  847MOL0     C14212  11.012   2.558   6.683 -1.3310  0.7339  0.7294
  847MOL0     O14213  10.957   2.649   6.769 -0.1632  0.3292  0.3166
  847MOL0     C14214  10.994   2.645   6.898 -0.0901 -0.4956 -0.2342
  847MOL0     C14215  11.120   2.695   6.942  1.2806  0.6526  0.6547
  847MOL0     C14216  11.155   2.694   7.078 -0.2518 -0.0746 -0.3170
  847MOL0     C14217  11.077   2.612   7.168  0.3509  0.2078 -0.0459
  847MOL0     O14218  11.124   2.570   7.290 -0.0563 -0.6459  0.8025
  847MOL0     C14219  11.253   2.611   7.332  0.0784 -0.7465  0.1089
  847MOL0     C14220  11.273   2.582   7.478  0.1183 -0.3511  0.2939
  847MOL0     C14221  11.425   2.600   7.515 -0.7400 -0.2160  0.1755
  847MOL0     C14222  11.428   2.579   7.669  0.3486  0.3524 -1.1962
  847MOL0     C14223  11.574   2.576   7.730 -0.0052 -0.0346 -0.1279
  847MOL0     C14224  11.557   2.564   7.879 -0.1500 -0.5265 -0.2090
  847MOL0     C14225  11.693   2.544   7.957  0.3599  0.4415  0.7464
  847MOL0     C14226  11.682   2.579   8.101  0.4515  0.2694 -0.2400
  847MOL0     N14227  11.782   2.513   8.184  0.2048  0.0879  0.4977
  847MOL0     C14228  11.801   2.381   8.208 -0.5491  0.3013  0.1793
  847MOL0     C14229  11.894   2.367   8.295 -1.2382  0.5172 -0.9101
  847MOL0     C14230  11.948   2.245   8.351  0.8885  0.7751  0.7651
  847MOL0     C14231  11.870   2.176   8.464 -0.2170 -0.1563  1.2475
  847MOL0     C14232  11.840   2.269   8.585 -0.3153 -0.0938  0.1115
  847MOL0     C14233  11.953   2.286   8.679 -0.2363  1.1416 -0.0589
  847MOL0     O14234  12.065   2.346   8.631 -0.8675 -0.0017  0.9474
  847MOL0     C14235  12.169   2.354   8.717 -0.2522  0.2498  0.5967
  847MOL0     C14236  12.178   2.358   8.858  0.3146 -0.5386  0.1115
  847MOL0     C14237  12.291   2.371   8.931 -0.1613 -0.5096 -0.2845
  847MOL0     C14238  12.416   2.360   8.864 -0.1342 -0.1992 -1.4101
  847MOL0     C14239  12.542   2.365   8.943 -0.4538  0.7823  0.4422
  847MOL0     O14240  12.520   2.355   9.077  0.1190  0.3763  0.1773
  847MOL0     C14241  12.621   2.320   9.154 -0.3223 -0.6022  0.4065
  847MOL0     C14242  12.655   2.390   9.275 -0.5740  0.2803 -0.5249
  847MOL0     C14243  12.769   2.346   9.344 -0.0605  0.5988 -0.6759
  847MOL0     C14244  12.834   2.231   9.321  0.4683  0.2363  0.1459
  847MOL0     O14245  12.931   2.205   9.413 -0.1481 -0.1161  0.5475
  847MOL0     C14246  12.962   2.065   9.438 -0.2231 -0.5945  0.1306
  847MOL0     C14247  13.090   2.066   9.524 -0.4282  0.4621  0.7466
  847MOL0     C14248  13.152   1.935   9.564  0.3213 -0.8262 -0.0559
  847MOL0     C14249  13.257   1.951   9.674 -0.1655 -0.1665  0.0631
  847MOL0     C14250  13.279   1.821   9.746 -0.5901  0.3696 -0.6559
  847MOL0     C14251  13.368   1.825   9.865  0.0153 -0.4134  0.2031
  847MOL0     C14252  13.426   1.697   9.895 -0.0631  0.9350  0.4868
  847MOL0     C14253  13.329   1.571   9.917 -0.2012 -0.3642 -0.0928
  847MOL0    Cl14254  13.195   1.626  10.021 -0.0107  0.1509 -0.0690
  847MOL0     C14255  12.797   2.153   9.211  0.4336  0.8594 -0.5158
  847MOL0     C14256  12.695   2.199   9.126  0.1425 -0.1818 -0.3746
  847MOL0     O14257  12.650   2.357   8.886  0.0423 -0.5402  1.0007
  847MOL0     C14258  12.413   2.356   8.722 -0.2929 -0.3454  0.0052
  847MOL0     C14259  12.295   2.350   8.651  0.8791 -0.7613 -0.1614
  847MOL0     N14260  11.948   2.490   8.319 -0.0884 -0.3214 -0.4763
  847MOL0     N14261  11.892   2.577   8.245 -1.0387  0.7637 -0.8653
  847MOL0     C14262  10.945   2.573   7.128  0.2999  0.3206  0.5092
  847MOL0     C14263  10.896   2.600   6.996 -0.1878 -1.4497  0.0898
  847MOL0     C14264  10.928   2.527   6.558  0.2648 -0.2995 -0.4216
  847MOL0     C14265  10.804   2.582   6.552  0.4643  0.4550  1.5262
  847MOL0     C14266  10.714   2.548   6.451 -0.7038 -0.3194  0.3000
  847MOL0     C14267  10.747   2.445   6.359 -0.2901 -0.2696 -0.0683
  847MOL0     O14268  10.649   2.407   6.279  0.4393  0.3923  0.3954
  847MOL0     C14269  10.682   2.308   6.178 -1.0501  0.0979  0.9149
  847MOL0     C14270  10.561   2.283   6.097 -0.5077 -0.9538  0.1143
  847MOL0     C14271  10.434   2.244   6.181 -0.8232 -0.3449 -0.3755
  847MOL0     C14272  10.319   2.193   6.095 -0.0754 -0.9677  0.0981
  847MOL0     C14273  10.349   2.076   6.016  0.0720 -0.0887 -0.2015
  847MOL0     C14274  10.385   1.988   5.936  0.5066 -0.0283  0.1200
  847MOL0     C14275  10.875   2.394   6.359 -0.2905 -0.1243 -0.6173
  847MOL0     C14276  10.964   2.439   6.457 -0.5068 -0.5247  0.5716
  847MOL0     C14277  11.097   2.381   6.440 -0.1982 -0.2332  0.0626
  847MOL0     H14278  11.193   2.729   6.870 -0.4135  2.9063 -0.1291
  847MOL0     H14279  11.253   2.737   7.099  1.9182 -3.5139 -2.4618
  847MOL0     H14280  11.332   2.566   7.271  0.6960  1.6943 -1.0121
  847MOL0     H14281  11.264   2.718   7.309 -0.0749 -1.2045 -2.4185
  847MOL0     H14282  11.245   2.479   7.501 -1.2559 -0.4110 -1.3554
  847MOL0     H14283  11.220   2.659   7.534  0.3070 -2.0527  2.9926
  847MOL0     H14284  11.473   2.692   7.482 -1.2072  0.0165  0.1243
  847MOL0     H14285  11.485   2.517   7.477  1.1355  1.9293 -1.8027
  847MOL0     H14286  11.381   2.655   7.731  2.9268 -0.3853  1.9424
  847MOL0     H14287  11.374   2.486   7.692 -1.4429  0.6052 -3.9323
  847MOL0     H14288  11.632   2.492   7.690  1.1274  0.9543 -0.6351
  847MOL0     H14289  11.623   2.671   7.706  2.5470 -0.7309  1.8406
  847MOL0     H14290  11.502   2.649   7.921 -0.7019 -2.3181  3.0023
  847MOL0     H14291  11.492   2.478   7.894 -5.1378  2.5909 -1.3935
  847MOL0     H14292  11.767   2.607   7.906 -1.2289 -0.2255 -2.6149
  847MOL0     H14293  11.707   2.436   7.950 -3.2424 -0.0896 -0.2493
  847MOL0     H14294  11.700   2.686   8.106 -0.1066  0.3185  1.0473
  847MOL0     H14295  11.587   2.545   8.142 -0.8818 -1.4017 -4.2245
  847MOL0     H14296  11.736   2.298   8.180  2.5639 -2.1473 -0.3936
  847MOL0     H14297  11.955   2.164   8.279 -0.5343  1.4678 -0.1998
  847MOL0     H14298  12.050   2.267   8.384  1.0694  1.1111  0.0005
  847MOL0     H14299  11.774   2.143   8.423 -1.0848  1.8769  1.5157
  847MOL0     H14300  11.922   2.090   8.506  4.5244  2.1651  0.8406
  847MOL0     H14301  11.755   2.232   8.643  1.1208  1.0929  3.1828
  847MOL0     H14302  11.802   2.364   8.547  0.2168  0.5583  1.1731
  847MOL0     H14303  11.986   2.195   8.730  3.5563  1.1921 -2.0172
  847MOL0     H14304  11.924   2.364   8.751  2.6031  3.3919 -1.1385
  847MOL0     H14305  12.086   2.358   8.915  0.9656 -1.0518  1.1892
  847MOL0     H14306  12.281   2.386   9.038 -2.7138 -1.7434 -0.2907
  847MOL0     H14307  12.612   2.487   9.300  0.2087  1.0021 -1.8470
  847MOL0     H14308  12.812   2.402   9.426 -3.0995  2.1040  0.0231
  847MOL0     H14309  12.878   2.025   9.494 -2.2360  1.6702 -1.0726
  847MOL0     H14310  12.983   2.016   9.342  0.7172  1.5818 -0.8600
  847MOL0     H14311  13.167   2.126   9.474 -2.9362  2.6769 -0.7290
  847MOL0     H14312  13.074   2.119   9.618  0.1525 -4.4132  3.9284
  847MOL0     H14313  13.062   1.880   9.593 -0.9328  1.1523  0.0441
  847MOL0     H14314  13.195   1.888   9.475  1.7965  0.3961 -0.0344
  847MOL0     H14315  13.210   2.019   9.747  0.4066  0.1363  0.1536
  847MOL0     H14316  13.346   1.998   9.630 -0.7659  0.6601 -0.2947
  847MOL0     H14317  13.324   1.747   9.680  0.6520 -0.1397  0.7013
  847MOL0     H14318  13.184   1.775   9.777 -0.5976 -0.0658 -1.3156
  847MOL0     H14319  13.453   1.890   9.844 -0.5039 -0.2707 -1.6235
  847MOL0     H14320  13.321   1.864   9.956 -2.7841 -2.1444 -0.3827
  847MOL0     H14321  13.475   1.717   9.990 -0.4973  0.7591  0.7512
  847MOL0     H14322  13.510   1.676   9.828 -0.4827  2.0814 -0.4284
  847MOL0     H14323  13.290   1.524   9.827 -2.4908 -0.5176  0.9103
  847MOL0     H14324  13.390   1.492   9.964 -0.6263 -0.2215  0.7204
  847MOL0     H14325  12.843   2.055   9.212 -0.3968  0.4065  1.9608
  847MOL0     H14326  12.668   2.143   9.037 -0.8861  0.3000 -0.3754
  847MOL0     H14327  12.504   2.347   8.663  0.1906  1.6280  0.3791
  847MOL0     H14328  12.303   2.349   8.543  0.0417 -0.6280 -0.2284
  847MOL0     H14329  10.881   2.520   7.197  0.1147 -1.4356 -0.9496
  847MOL0     H14330  10.789   2.588   6.979 -0.6838  0.1667  1.7990
  847MOL0     H14331  10.778   2.653   6.630  2.4301  0.1773  2.4878
  847MOL0     H14332  10.615   2.590   6.435 -1.9509 -3.9032 -2.6390
  847MOL0     H14333  10.709   2.211   6.221 -2.8657 -0.7188  0.3087
  847MOL0     H14334  10.761   2.341   6.111 -1.6341 -0.1610  0.0929
  847MOL0     H14335  10.579   2.206   6.022  0.0140  0.8002 -1.6692
  847MOL0     H14336  10.546   2.378   6.044  3.1936  0.9741  2.0948
  847MOL0     H14337  10.409   2.329   6.245  0.8096  1.8925 -2.5102
  847MOL0     H14338  10.460   2.158   6.242  0.1574 -0.1376 -0.4884
  847MOL0     H14339  10.242   2.167   6.168 -0.7736 -2.8931 -1.2481
  847MOL0     H14340  10.303   2.279   6.028  1.5807  0.6578  1.6908
  847MOL0     H14341  10.407   1.912   5.863  0.6853 -2.7522  2.7790
  847MOL0     H14342  10.905   2.327   6.279  0.9149 -0.4942  0.1111
  847MOL0     H14343  11.181   2.449   6.457 -1.2368  0.3013  4.0896
  847MOL0     H14344  11.107   2.320   6.530 -4.8403 -1.4048  0.0384
  847MOL0     H14345  11.110   2.301   6.367 -0.6408 -1.6732  1.5107
  848MOL0     O14346   4.856   7.217   6.197  0.6733  0.3821  0.0926
  848MOL0     C14347   4.858   7.100   6.155  0.1033  0.5875 -0.3143
  848MOL0     O14348   4.744   7.029   6.124 -0.4858 -0.2035  0.1199
  848MOL0     C14349   4.622   7.086   6.147  0.0218 -0.0077  0.7172
  848MOL0     C14350   4.531   7.134   6.046  0.5189  0.1189  0.1412
  848MOL0     C14351   4.405   7.183   6.074  1.2947 -0.9506 -0.0996
  848MOL0     C14352   4.343   7.168   6.206 -0.4053 -0.2067  1.0435
  848MOL0     O14353   4.207   7.200   6.230 -0.1353 -0.5450  0.2639
  848MOL0     C14354   4.147   7.313   6.163  0.1620  1.2691  0.2698
  848MOL0     C14355   4.033   7.262   6.062 -0.2570 -0.4475  0.6664
  848MOL0     C14356   4.045   7.329   5.925  0.7008  0.7231  0.1830
  848MOL0     C14357   3.931   7.282   5.826  0.1033  0.1438  0.4081
  848MOL0     C14358   3.787   7.322   5.862 -0.7333 -0.4772 -0.1029
  848MOL0     C14359   3.685   7.253   5.766  0.2715 -0.5473 -0.1750
  848MOL0     C14360   3.533   7.265   5.798 -0.9121  0.5717  0.0781
  848MOL0     C14361   3.462   7.129   5.792 -0.5166  0.1845 -0.1574
  848MOL0     N14362   3.342   7.142   5.859  0.4611  0.1087 -0.8230
  848MOL0     C14363   3.323   7.152   5.995 -0.8956  0.3886  0.0164
  848MOL0     C14364   3.195   7.121   6.019  1.3040  0.7937 -0.2992
  848MOL0     C14365   3.112   7.099   6.144  0.4041  1.4861 -0.2489
  848MOL0     C14366   3.205   7.040   6.253  0.3246 -0.4086 -0.2224
  848MOL0     C14367   3.138   7.018   6.386  0.4149  0.2836 -0.1878
  848MOL0     C14368   3.063   6.891   6.397 -0.3025 -0.3669 -0.3308
  848MOL0     O14369   3.138   6.783   6.364 -0.2265 -0.3845 -0.5881
  848MOL0     C14370   3.191   6.709   6.459 -0.4064 -0.6161  0.6441
  848MOL0     C14371   3.251   6.759   6.575 -1.3173  0.9065  0.2618
  848MOL0     C14372   3.302   6.676   6.667 -0.3747 -0.3896 -0.2972
  848MOL0     C14373   3.307   6.538   6.649  0.4432 -0.6863 -0.5176
  848MOL0     C14374   3.357   6.449   6.750 -0.8252 -0.3603 -0.4034
  848MOL0     O14375   3.337   6.312   6.732 -0.2281 -0.0816 -1.2308
  848MOL0     C14376   3.387   6.232   6.835 -1.0536  0.2414  0.2037
  848MOL0     C14377   3.499   6.155   6.799 -0.3094 -0.0268 -0.2740
  848MOL0     C14378   3.553   6.073   6.906  0.6251  0.3126  0.1718
  848MOL0     C14379   3.482   6.054   7.033 -0.9886 -1.0022  0.1624
  848MOL0     O14380   3.543   5.974   7.130 -0.4377  0.6532  0.4444
  848MOL0     C14381   3.562   6.023   7.268 -0.7470  1.0846 -0.1758
  848MOL0     C14382   3.712   6.009   7.313 -0.2157 -0.3449  0.5641
  848MOL0     C14383   3.796   6.118   7.239 -0.4185 -0.0059  0.4271
  848MOL0     C14384   3.939   6.094   7.240 -0.1248  0.6407 -0.4599
  848MOL0     C14385   4.019   6.221   7.186  1.1278 -0.1890  0.3495
  848MOL0     C14386   4.171   6.182   7.178  0.5726 -0.4504 -0.1991
  848MOL0     C14387   4.258   6.318   7.202  0.5237 -0.0197 -0.5875
  848MOL0     C14388   4.391   6.285   7.253 -0.2489 -0.0957  0.0853
  848MOL0    Cl14389   4.502   6.429   7.270  0.1778 -0.0838 -0.2860
  848MOL0     C14390   3.367   6.135   7.058 -0.3843 -0.5514  0.8581
  848MOL0     C14391   3.317   6.218   6.955 -0.3445 -0.5602  0.8601
  848MOL0     O14392   3.405   6.503   6.849 -0.1498  0.2325 -0.7247
  848MOL0     C14393   3.246   6.488   6.527 -0.2802  0.8321 -0.1670
  848MOL0     C14394   3.194   6.572   6.436  0.1100  0.3095 -0.0765
  848MOL0     N14395   3.129   7.096   5.894  0.8760 -0.6996  0.1611
  848MOL0     N14396   3.223   7.100   5.802  0.2920 -0.1314 -0.3213
  848MOL0     C14397   4.426   7.120   6.297  0.4155  0.0500 -0.5735
  848MOL0     C14398   4.558   7.078   6.267  0.3184 -0.7757  0.4837
  848MOL0     C14399   4.991   7.032   6.157  0.7606 -0.3904 -0.0832
  848MOL0     C14400   5.102   7.103   6.115 -0.9375 -0.1805  0.7218
  848MOL0     C14401   5.238   7.041   6.117 -0.1396  0.2173  0.0486
  848MOL0     C14402   5.257   6.912   6.161  0.3730  0.3628 -0.3677
  848MOL0     O14403   5.378   6.853   6.184 -0.3172  0.9856  0.1838
  848MOL0     C14404   5.496   6.932   6.215 -0.0360  0.1847  0.1108
  848MOL0     C14405   5.569   6.975   6.085  0.5640 -0.1272  0.5421
  848MOL0     C14406   5.692   7.062   6.114  0.0394 -0.2265  0.7441
  848MOL0     C14407   5.828   6.990   6.125  0.7110 -0.4066  0.2931
  848MOL0     C14408   5.927   7.079   6.179 -0.1702  0.4455 -0.2295
  848MOL0     C14409   6.018   7.153   6.224  0.6136  0.0835 -0.2642
  848MOL0     C14410   5.143   6.843   6.205 -0.0202 -0.5739  0.0948
  848MOL0     C14411   5.017   6.899   6.206 -0.3025 -0.7711 -0.1136
  848MOL0     C14412   4.910   6.817   6.265  0.1134  0.1710  0.6023
  848MOL0     H14413   4.560   7.121   5.942 -2.1157  0.5981 -0.7168
  848MOL0     H14414   4.337   7.204   5.992 -2.3616 -2.0979  2.3868
  848MOL0     H14415   4.102   7.379   6.238 -2.8683 -1.3058  0.9406
  848MOL0     H14416   4.213   7.367   6.095 -0.8005 -0.2346 -1.9825
  848MOL0     H14417   3.941   7.297   6.111  0.3621  1.8253  0.2775
  848MOL0     H14418   4.040   7.153   6.062 -1.3547 -0.5284  0.2397
  848MOL0     H14419   4.139   7.297   5.880 -0.9006 -2.0951 -1.4900
  848MOL0     H14420   4.042   7.438   5.934 -0.6928  0.7479 -0.2645
  848MOL0     H14421   3.959   7.327   5.731  0.1107  1.6446  1.0796
  848MOL0     H14422   3.931   7.173   5.825 -1.9993  0.0620  2.1750
  848MOL0     H14423   3.768   7.292   5.965 -0.6659  1.3968  0.4962
  848MOL0     H14424   3.769   7.430   5.852  0.2198 -0.4750 -2.4907
  848MOL0     H14425   3.698   7.287   5.663  2.7243  0.5299  0.4211
  848MOL0     H14426   3.704   7.145   5.769 -2.4268 -1.1095  2.6730
  848MOL0     H14427   3.490   7.340   5.731  2.9087  3.7082  0.7890
  848MOL0     H14428   3.518   7.318   5.892 -0.2554  0.9570 -0.0284
  848MOL0     H14429   3.449   7.095   5.689 -4.1140  4.3862 -1.4425
  848MOL0     H14430   3.527   7.065   5.852 -2.0168 -1.2131  0.0234
  848MOL0     H14431   3.400   7.175   6.068 -1.5888  1.2179  0.5037
  848MOL0     H14432   3.051   7.184   6.177  0.7273  1.4400  0.4908
  848MOL0     H14433   3.038   7.024   6.116  1.3875  0.4721 -0.1702
  848MOL0     H14434   3.259   6.951   6.220  2.8434  1.3251 -1.1384
  848MOL0     H14435   3.280   7.119   6.262 -2.1739  2.2635 -1.4932
  848MOL0     H14436   3.076   7.105   6.411  0.7453  0.6616 -0.6652
  848MOL0     H14437   3.220   7.013   6.458  0.8526 -1.9811 -0.7800
  848MOL0     H14438   2.978   6.892   6.329  0.6385 -3.7751 -1.7712
  848MOL0     H14439   3.036   6.888   6.503 -1.8860 -0.3958 -0.7062
  848MOL0     H14440   3.288   6.859   6.595  2.2276  0.0175 -0.9716
  848MOL0     H14441   3.345   6.730   6.751  2.5832  1.3180 -2.7177
  848MOL0     H14442   3.548   6.167   6.703 -1.1934  2.1551 -0.5098
  848MOL0     H14443   3.653   6.031   6.893  0.3241 -0.2771 -0.3040
  848MOL0     H14444   3.520   6.124   7.278  0.2435  1.3914  1.1366
  848MOL0     H14445   3.510   5.966   7.345  0.7581  1.0553  0.8642
  848MOL0     H14446   3.723   6.021   7.421 -0.8614  1.1222  0.4993
  848MOL0     H14447   3.751   5.908   7.298 -2.2464 -0.9156 -1.4404
  848MOL0     H14448   3.755   6.138   7.140  0.4668  0.7768  0.2071
  848MOL0     H14449   3.779   6.210   7.296 -1.2550 -0.4844  0.9743
  848MOL0     H14450   3.970   6.008   7.181  1.6912  1.9286 -1.4560
  848MOL0     H14451   3.966   6.064   7.342 -0.2956 -1.9632 -1.0929
  848MOL0     H14452   4.014   6.304   7.257  1.8913  2.0120 -2.0194
  848MOL0     H14453   3.980   6.248   7.087 -1.1099 -0.0559  1.2054
  848MOL0     H14454   4.182   6.120   7.267 -1.4270  0.4187  0.6991
  848MOL0     H14455   4.198   6.114   7.097  0.6635 -1.9505  1.0527
  848MOL0     H14456   4.213   6.393   7.268  1.4917  0.4668 -0.4597
  848MOL0     H14457   4.273   6.367   7.106  1.8978  4.0898  1.4887
  848MOL0     H14458   4.396   6.241   7.353  4.8403  1.4738  0.7611
  848MOL0     H14459   4.429   6.206   7.188  4.2788  0.5080  1.6635
  848MOL0     H14460   3.321   6.135   7.156 -0.2853 -1.7505  0.9227
  848MOL0     H14461   3.226   6.277   6.964 -0.1392  0.5613 -2.6243
  848MOL0     H14462   3.261   6.386   6.493 -0.9429  0.8379 -0.4959
  848MOL0     H14463   3.163   6.532   6.341 -0.6951  2.8093 -0.9578
  848MOL0     H14464   4.376   7.122   6.393 -3.5222  0.4265 -2.4262
  848MOL0     H14465   4.600   7.013   6.343 -3.1582 -2.7319  0.9102
  848MOL0     H14466   5.088   7.200   6.069  1.9665  0.3528  0.7373
  848MOL0     H14467   5.317   7.111   6.092 -2.4500  2.6301 -1.0035
  848MOL0     H14468   5.571   6.864   6.255 -0.5894  0.5920  1.9321
  848MOL0     H14469   5.476   7.013   6.286  1.4207  1.7389 -1.1620
  848MOL0     H14470   5.511   7.042   6.021 -0.8215 -1.4086  0.4106
  848MOL0     H14471   5.585   6.879   6.036 -1.6291 -1.2369  1.8286
  848MOL0     H14472   5.669   7.113   6.208  0.8000  0.0471  0.7942
  848MOL0     H14473   5.694   7.132   6.030  1.0255 -0.3474  0.6522
  848MOL0     H14474   5.819   6.902   6.190 -0.2216 -1.5649 -1.3262
  848MOL0     H14475   5.870   6.967   6.027  1.0715  1.8977 -0.1417
  848MOL0     H14476   6.102   7.214   6.248  0.1707  1.1512 -1.3395
  848MOL0     H14477   5.155   6.743   6.246 -3.0687 -2.3519 -2.8474
  848MOL0     H14478   4.839   6.789   6.187 -0.5802  2.0075  0.5273
  848MOL0     H14479   4.948   6.722   6.304  1.5095  0.5303  0.1498
  848MOL0     H14480   4.858   6.871   6.345  2.3769  0.2121  2.1447
  849MOL0     O14481   0.044   0.468   8.078  0.3119 -0.1494  0.7717
  849MOL0     C14482   0.037   0.493   7.959  0.0822  0.3319  0.6325
  849MOL0     O14483   0.139   0.520   7.886  0.1106 -0.5851  0.9069
  849MOL0     C14484   0.261   0.542   7.946  0.1448  0.7743 -0.3379
  849MOL0     C14485   0.289   0.600   8.072 -0.5306 -0.8036 -0.6861
  849MOL0     C14486   0.418   0.595   8.126  0.4109  0.5268 -0.2112
  849MOL0     C14487   0.522   0.535   8.052 -0.5445  0.2220 -0.1638
  849MOL0     O14488   0.647   0.543   8.118  0.6537  0.1605  0.1355
  849MOL0     C14489   0.768   0.521   8.049 -0.0634  1.1142 -0.1403
  849MOL0     C14490   0.875   0.483   8.148  0.1952  0.1978  0.3179
  849MOL0     C14491   1.000   0.468   8.069 -0.3036 -0.1530  0.0764
  849MOL0     C14492   1.129   0.409   8.135  0.0526 -0.2969 -0.2492
  849MOL0     C14493   1.255   0.435   8.048 -0.3956 -0.6985  0.1613
  849MOL0     C14494   1.381   0.382   8.122 -0.0092 -0.7410 -0.1603
  849MOL0     C14495   1.502   0.364   8.034 -1.1426  0.5229  0.2586
  849MOL0     C14496   1.627   0.374   8.113  0.4364  0.5137  0.1929
  849MOL0     N14497   1.656   0.257   8.201 -0.0735  0.0198  0.3289
  849MOL0     C14498   1.767   0.234   8.269  0.2934 -0.2217  0.6077
  849MOL0     C14499   1.758   0.118   8.341  1.0012  0.0090  0.7209
  849MOL0     C14500   1.869   0.052   8.407 -0.2198 -0.1437 -0.6195
  849MOL0     C14501   1.954   0.146   8.494 -0.7750  0.5304 -0.6039
  849MOL0     C14502   2.060   0.055   8.568 -0.0516 -0.5729 -0.2553
  849MOL0     C14503   2.142   0.136   8.658 -0.0898  0.1287 -0.6090
  849MOL0     O14504   2.223   0.236   8.590  0.7438 -0.2561 -0.3180
  849MOL0     C14505   2.333   0.181   8.543 -1.1336  0.1384 -0.0912
  849MOL0     C14506   2.346   0.171   8.402 -0.3008 -0.1464 -0.1520
  849MOL0     C14507   2.461   0.119   8.345  0.4551  0.2644  0.3593
  849MOL0     C14508   2.562   0.060   8.425  0.5713 -1.2706  0.8062
  849MOL0     C14509   2.680  -0.003   8.366 -0.4378  0.4123  0.0934
  849MOL0     O14510   2.719  -0.108   8.437  0.5044  0.0392  0.0524
  849MOL0     C14511   2.830  -0.183   8.409  0.0032  0.5641  1.1723
  849MOL0     C14512   2.947  -0.116   8.398 -0.0104 -0.1533 -0.5202
  849MOL0     C14513   3.073  -0.184   8.402  0.2986  0.7028 -0.0210
  849MOL0     C14514   3.079  -0.321   8.375 -0.8435  0.7806  0.6944
  849MOL0     O14515   3.200  -0.380   8.345  0.1471  0.0447 -0.2471
  849MOL0     C14516   3.214  -0.525   8.343 -1.0916  0.5072  1.1429
  849MOL0     C14517   3.341  -0.584   8.274 -0.1340  0.4566 -0.3138
  849MOL0     C14518   3.467  -0.546   8.344 -1.0127  0.2034  0.2830
  849MOL0     C14519   3.500  -0.400   8.370  0.2395 -0.0683  0.6156
  849MOL0     C14520   3.652  -0.381   8.359  0.5418 -0.9862  0.0006
  849MOL0     C14521   3.734  -0.449   8.475  0.2245 -0.1093  0.0626
  849MOL0     C14522   3.885  -0.423   8.459 -0.5420 -0.1787  1.1068
  849MOL0     C14523   3.936  -0.457   8.317 -0.0006  0.0255 -0.4105
  849MOL0    Cl14524   3.892  -0.623   8.277 -0.3795 -0.0474 -0.1407
  849MOL0     C14525   2.957  -0.384   8.396 -0.3316 -0.5464 -0.4974
  849MOL0     C14526   2.833  -0.316   8.417 -0.0881  0.3438  0.2354
  849MOL0     O14527   2.719   0.029   8.252 -0.3966  0.0462 -0.4891
  849MOL0     C14528   2.551   0.072   8.567  0.8099  0.6173  1.2321
  849MOL0     C14529   2.446   0.144   8.616  0.1104 -0.3846 -0.7402
  849MOL0     N14530   1.622   0.077   8.321 -0.2244  0.4916 -1.1390
  849MOL0     N14531   1.563   0.165   8.247 -0.0416  0.3787  0.0854
  849MOL0     C14532   0.499   0.470   7.933 -0.3597  0.7303 -0.3717
  849MOL0     C14533   0.371   0.482   7.881 -0.0867 -0.4939  0.0104
  849MOL0     C14534  -0.103   0.486   7.896  0.2143  0.9700  0.5326
  849MOL0     C14535  -0.116   0.392   7.784 -0.0938  0.3224  0.5891
  849MOL0     C14536  -0.242   0.378   7.732 -0.5026  0.9328  0.5849
  849MOL0     C14537  -0.352   0.447   7.785 -0.3811  0.3475 -0.7716
  849MOL0     O14538  -0.475   0.433   7.726  0.1420 -0.3297  0.1835
  849MOL0     C14539  -0.589   0.518   7.757 -0.1462  0.5448  0.2986
  849MOL0     C14540  -0.706   0.474   7.660 -0.3409 -0.0177 -0.9601
  849MOL0     C14541  -0.660   0.511   7.520 -0.8863 -0.3834  0.3137
  849MOL0     C14542  -0.773   0.486   7.421 -0.0146  0.1017  0.2362
  849MOL0     C14543  -0.878   0.588   7.434 -0.4694  0.1376  0.2936
  849MOL0     C14544  -0.938   0.692   7.462  0.4693 -0.0681  0.2306
  849MOL0     C14545  -0.339   0.517   7.900 -0.7075  0.7212  0.3451
  849MOL0     C14546  -0.218   0.547   7.958  0.2602  0.1833 -0.0664
  849MOL0     C14547  -0.208   0.634   8.079  0.4079 -0.6488 -0.3966
  849MOL0     H14548   0.205   0.647   8.123  0.7502 -1.8190  2.6167
  849MOL0     H14549   0.436   0.633   8.225 -0.8788  0.9557 -0.1176
  849MOL0     H14550   0.762   0.435   7.982  2.9628  0.2075  0.5690
  849MOL0     H14551   0.799   0.615   8.003 -0.6404  1.3664 -0.0203
  849MOL0     H14552   0.849   0.393   8.204  2.2584  0.3991  1.6936
  849MOL0     H14553   0.882   0.560   8.226 -2.1755 -0.5146  1.3264
  849MOL0     H14554   1.023   0.565   8.023 -0.7845  0.4295  1.0343
  849MOL0     H14555   0.984   0.405   7.981  0.4721 -2.2312  1.3492
  849MOL0     H14556   1.148   0.457   8.232 -2.3652 -0.4107  0.3342
  849MOL0     H14557   1.103   0.303   8.133 -1.8099  0.1359 -1.6326
  849MOL0     H14558   1.241   0.389   7.949 -2.8279 -0.5324  0.3640
  849MOL0     H14559   1.263   0.543   8.031  3.5368 -1.0134 -1.0077
  849MOL0     H14560   1.399   0.449   8.206  1.1105 -0.3699 -0.6769
  849MOL0     H14561   1.357   0.278   8.147  0.0611 -0.9543 -0.9392
  849MOL0     H14562   1.510   0.446   7.962 -0.7851 -1.4659 -2.0747
  849MOL0     H14563   1.502   0.271   7.978  0.2512  1.3131 -1.1315
  849MOL0     H14564   1.707   0.385   8.039  0.5761  1.5721  0.4789
  849MOL0     H14565   1.622   0.472   8.161  1.3274  1.2076 -1.0734
  849MOL0     H14566   1.848   0.305   8.263  1.0605 -0.9543  1.8108
  849MOL0     H14567   1.840  -0.032   8.471  1.3672 -0.9518 -0.9169
  849MOL0     H14568   1.931   0.008   8.328  2.9633 -0.3327  1.7956
  849MOL0     H14569   2.006   0.222   8.436 -0.4041  1.1074  0.4594
  849MOL0     H14570   1.893   0.201   8.566 -0.2224  0.0275  0.2632
  849MOL0     H14571   2.118  -0.004   8.496 -0.0034  0.3766 -1.0106
  849MOL0     H14572   2.018  -0.022   8.634  0.0617  0.5747  1.2165
  849MOL0     H14573   2.195   0.059   8.716 -2.0754  0.0054  1.1963
  849MOL0     H14574   2.074   0.194   8.722  0.9071  0.7712 -0.1013
  849MOL0     H14575   2.260   0.222   8.359  0.1671  0.7417 -0.0609
  849MOL0     H14576   2.459   0.114   8.236 -3.1006  0.2760  0.2769
  849MOL0     H14577   2.946  -0.009   8.419 -0.7684 -0.3057  0.2411
  849MOL0     H14578   3.162  -0.123   8.415  1.1074 -0.5444  0.3594
  849MOL0     H14579   3.227  -0.549   8.449  0.9029  1.6496  1.2086
  849MOL0     H14580   3.125  -0.577   8.305  1.5534 -1.1912 -3.5546
  849MOL0     H14581   3.331  -0.693   8.282  0.5400  0.4790  1.2666
  849MOL0     H14582   3.337  -0.568   8.166 -0.7164 -0.0831 -0.3815
  849MOL0     H14583   3.470  -0.594   8.442 -1.3465  0.4188  0.3972
  849MOL0     H14584   3.541  -0.596   8.281 -0.9826 -1.0364  1.2659
  849MOL0     H14585   3.472  -0.372   8.472 -1.4231 -0.6213  0.3352
  849MOL0     H14586   3.450  -0.331   8.301  1.0929  0.8237  0.8715
  849MOL0     H14587   3.679  -0.275   8.359  2.5552 -1.4674  0.5201
  849MOL0     H14588   3.678  -0.417   8.259 -0.8723 -0.6346 -0.5226
  849MOL0     H14589   3.705  -0.418   8.576  0.8629  2.1892 -0.4020
  849MOL0     H14590   3.709  -0.555   8.470  1.1590 -0.3441  0.2031
  849MOL0     H14591   3.938  -0.486   8.531  0.0476 -0.0117  0.8287
  849MOL0     H14592   3.912  -0.319   8.482 -1.0247  0.3287 -0.4719
  849MOL0     H14593   3.899  -0.385   8.243  3.0055  2.3110  0.0881
  849MOL0     H14594   4.046  -0.453   8.315  0.0785 -1.5801 -0.2703
  849MOL0     H14595   2.953  -0.493   8.404  1.0389 -0.5064  1.5883
  849MOL0     H14596   2.749  -0.374   8.454  0.8930 -0.4161  1.3653
  849MOL0     H14597   2.633   0.045   8.633  1.6867 -1.7088 -0.6532
  849MOL0     H14598   2.442   0.172   8.721  0.9622 -1.5967 -0.3607
  849MOL0     H14599   0.576   0.420   7.876 -2.2123 -2.7670 -0.0961
  849MOL0     H14600   0.358   0.436   7.783 -0.9860 -1.7507  0.7044
  849MOL0     H14601  -0.040   0.343   7.726  1.3298 -3.4293  5.0238
  849MOL0     H14602  -0.268   0.321   7.644 -3.2867 -1.6298  2.8360
  849MOL0     H14603  -0.568   0.624   7.738  1.7941  0.1613  0.0950
  849MOL0     H14604  -0.620   0.513   7.862 -0.3415  4.3697  0.5639
  849MOL0     H14605  -0.797   0.527   7.688 -1.1358 -1.3990 -0.8628
  849MOL0     H14606  -0.733   0.368   7.671 -1.7653  0.3083 -1.1601
  849MOL0     H14607  -0.586   0.434   7.496 -1.5678 -0.6657 -1.0059
  849MOL0     H14608  -0.615   0.610   7.524  1.9192 -1.5866  1.8197
  849MOL0     H14609  -0.729   0.497   7.322 -0.2548 -1.0165 -0.0127
  849MOL0     H14610  -0.817   0.386   7.435 -1.4682  1.0210  3.0871
  849MOL0     H14611  -0.993   0.782   7.480  0.1151  0.0957 -1.5690
  849MOL0     H14612  -0.432   0.552   7.943 -0.9903  1.0380 -0.4913
  849MOL0     H14613  -0.185   0.569   8.164 -0.0215 -3.3489 -2.2201
  849MOL0     H14614  -0.144   0.723   8.085 -0.9401  0.2539  3.2531
  849MOL0     H14615  -0.306   0.679   8.097  0.2215 -0.8851 -0.8025
  850MOL0     O14616   0.991   3.663   0.376  0.3017  0.1547 -0.3203
  850MOL0     C14617   1.042   3.546   0.367  0.0849  0.2303  0.0767
  850MOL0     O14618   1.161   3.522   0.319 -0.2347  0.5922 -0.1643
  850MOL0     C14619   1.247   3.622   0.280  0.1937 -0.5623  0.0164
  850MOL0     C14620   1.345   3.653   0.377  0.2919  0.2886  0.7486
  850MOL0     C14621   1.427   3.765   0.362  0.5936 -1.1463 -0.0098
  850MOL0     C14622   1.409   3.849   0.251  0.3001 -0.3365 -0.4431
  850MOL0     O14623   1.472   3.975   0.231 -0.4244 -0.0319  0.1781
  850MOL0     C14624   1.516   4.058   0.343  0.1313  0.0308 -0.3590
  850MOL0     C14625   1.569   4.193   0.288  0.6080 -0.5090 -0.6940
  850MOL0     C14626   1.716   4.190   0.227  0.8046 -0.2201  0.0637
  850MOL0     C14627   1.813   4.261   0.324  0.2262 -1.0195  0.1317
  850MOL0     C14628   1.963   4.269   0.269  0.6765 -1.0582  0.3328
  850MOL0     C14629   1.980   4.365   0.155  0.1797 -0.1611 -0.1777
  850MOL0     C14630   2.118   4.406   0.114 -0.5450 -0.2463 -0.0067
  850MOL0     C14631   2.220   4.288   0.068  1.3103 -0.0052  0.0391
  850MOL0     N14632   2.343   4.355   0.026  0.7336 -0.7083  0.2733
  850MOL0     C14633   2.460   4.339   0.086  0.2487  0.2116 -0.7982
  850MOL0     C14634   2.546   4.407   0.012 -0.8026  0.9292  0.5509
  850MOL0     C14635   2.693   4.435   0.040  0.2612 -0.2477 -0.4724
  850MOL0     C14636   2.782   4.321  -0.011  0.7062 -0.2245  0.9332
  850MOL0     C14637   2.928   4.306   0.033 -0.3736 -0.0316  0.6481
  850MOL0     C14638   3.009   4.444   0.017 -0.4306 -0.0318 -0.1212
  850MOL0     O14639   3.014   4.477  -0.123 -0.5464 -0.1037 -1.1609
  850MOL0     C14640   3.103   4.575  -0.164  0.5189  0.5315  0.1931
  850MOL0     C14641   3.214   4.629  -0.081 -0.0687  0.3589 -0.2491
  850MOL0     C14642   3.306   4.717  -0.135  0.4743 -0.6958 -1.0250
  850MOL0     C14643   3.280   4.764  -0.262  1.0456 -0.2233 -0.2364
  850MOL0     C14644   3.358   4.877  -0.311 -0.2649  0.2908  0.0026
  850MOL0     O14645   3.477   4.909  -0.247  0.3955 -0.1297 -0.3994
  850MOL0     C14646   3.568   4.981  -0.311  1.0302 -0.8406 -0.1064
  850MOL0     C14647   3.651   5.058  -0.228  0.5045 -0.7534 -0.5465
  850MOL0     C14648   3.751   5.138  -0.287 -0.3367  0.3355 -0.5103
  850MOL0     C14649   3.781   5.135  -0.424 -0.3338  1.0262 -0.1713
  850MOL0     O14650   3.880   5.206  -0.489 -0.0637 -0.3410  0.3165
  850MOL0     C14651   4.006   5.196  -0.421 -0.2837 -0.1228 -0.1895
  850MOL0     C14652   4.129   5.241  -0.504 -0.3332 -0.0517 -0.4148
  850MOL0     C14653   4.261   5.183  -0.459 -0.6174  0.4213  0.1935
  850MOL0     C14654   4.385   5.227  -0.543 -0.6777  0.8134 -0.4234
  850MOL0     C14655   4.510   5.155  -0.522 -0.1337 -0.7891  0.3231
  850MOL0     C14656   4.552   5.159  -0.379  0.0332  0.1785  0.0111
  850MOL0     C14657   4.699   5.126  -0.354 -0.4653 -0.6001 -0.0374
  850MOL0     C14658   4.806   5.230  -0.396  0.9275  0.5103  0.1481
  850MOL0    Cl14659   4.786   5.377  -0.301  0.0284  0.0320 -0.0130
  850MOL0     C14660   3.695   5.048  -0.499 -0.2620 -0.0373  0.1890
  850MOL0     C14661   3.595   4.968  -0.451 -0.2555 -0.7601 -0.5433
  850MOL0     O14662   3.305   4.948  -0.400 -0.2439 -0.2537 -0.5892
  850MOL0     C14663   3.175   4.707  -0.338 -0.2341 -0.6897 -0.1826
  850MOL0     C14664   3.096   4.606  -0.298  0.0291 -0.0260 -0.1673
  850MOL0     N14665   2.478   4.466  -0.088  0.3097  0.2581  0.2369
  850MOL0     N14666   2.350   4.438  -0.076 -0.4773  0.1654  0.0806
  850MOL0     C14667   1.310   3.820   0.154  0.6665  0.5284 -0.0729
  850MOL0     C14668   1.242   3.695   0.162  0.0257 -1.0184  0.1708
  850MOL0     C14669   0.938   3.439   0.392 -0.2569 -0.8063 -0.2687
  850MOL0     C14670   0.805   3.466   0.351  0.5044 -1.1715  0.2607
  850MOL0     C14671   0.702   3.369   0.369  0.8572 -0.2135 -0.4684
  850MOL0     C14672   0.726   3.241   0.422 -0.5030 -0.5160 -0.8544
  850MOL0     O14673   0.623   3.146   0.423  0.0228  0.1911  0.4384
  850MOL0     C14674   0.616   3.066   0.546 -0.2369 -0.5457 -0.0311
  850MOL0     C14675   0.495   2.975   0.553  0.4526 -0.2651 -0.1416
  850MOL0     C14676   0.357   3.036   0.518 -0.4745 -0.3387 -0.6643
  850MOL0     C14677   0.252   2.991   0.614  0.1116 -0.4863 -0.1067
  850MOL0     C14678   0.129   3.077   0.593 -0.1643 -0.2632 -1.0571
  850MOL0     C14679   0.015   3.134   0.587 -0.4361 -0.2725  0.3908
  850MOL0     C14680   0.864   3.215   0.460  0.4760 -0.2287  0.2232
  850MOL0     C14681   0.974   3.309   0.438  0.5533  0.8996  0.3512
  850MOL0     C14682   1.113   3.268   0.460  0.3209 -0.3796 -0.3304
  850MOL0     H14683   1.356   3.576   0.452  0.1127 -1.4857 -0.9773
  850MOL0     H14684   1.496   3.796   0.440  1.4424  1.6155 -1.7401
  850MOL0     H14685   1.440   4.061   0.422  0.0953 -1.8049 -0.2883
  850MOL0     H14686   1.599   3.999   0.383  1.8271  1.0273 -2.2428
  850MOL0     H14687   1.567   4.267   0.369 -2.8631 -0.9623 -0.2119
  850MOL0     H14688   1.492   4.222   0.216 -0.9149 -1.6035  0.4210
  850MOL0     H14689   1.720   4.247   0.134 -0.4885  1.8670  1.2147
  850MOL0     H14690   1.746   4.089   0.201  1.8865  0.9624 -3.9259
  850MOL0     H14691   1.768   4.357   0.351  0.5223 -0.3534 -1.5780
  850MOL0     H14692   1.813   4.215   0.423  3.1534  1.0435  1.2521
  850MOL0     H14693   2.029   4.311   0.346  1.4852 -0.7719 -0.5016
  850MOL0     H14694   2.004   4.170   0.249  1.1667 -0.7546 -0.2050
  850MOL0     H14695   1.934   4.316   0.068 -1.2375 -1.4267  1.2355
  850MOL0     H14696   1.930   4.460   0.174  2.1759  0.8177  0.3631
  850MOL0     H14697   2.157   4.455   0.203  1.4304 -1.1221 -0.3286
  850MOL0     H14698   2.109   4.473   0.028  3.2018  1.6092  0.8142
  850MOL0     H14699   2.230   4.209   0.142 -2.0298 -0.5501  0.0902
  850MOL0     H14700   2.168   4.236  -0.013  2.2492  1.7210 -1.7695
  850MOL0     H14701   2.481   4.287   0.179  1.6528 -0.8781 -1.6799
  850MOL0     H14702   2.721   4.519  -0.024 -1.8836  1.6512  0.9678
  850MOL0     H14703   2.714   4.453   0.145  0.5927 -3.1450  0.0414
  850MOL0     H14704   2.739   4.226   0.022  3.2532 -1.5209  0.7395
  850MOL0     H14705   2.778   4.329  -0.120  1.4078 -2.5348  0.7048
  850MOL0     H14706   2.969   4.216  -0.015  0.0443 -0.9324  2.6238
  850MOL0     H14707   2.934   4.281   0.139  3.3657  1.1551  0.8835
  850MOL0     H14708   3.103   4.419   0.068 -0.6898 -3.1617 -0.9435
  850MOL0     H14709   2.964   4.532   0.065  1.2803  2.5648 -2.9217
  850MOL0     H14710   3.221   4.586   0.019  0.4404 -0.2491 -0.5388
  850MOL0     H14711   3.390   4.753  -0.077  0.1510 -2.4084  0.5929
  850MOL0     H14712   3.632   5.075  -0.122  0.0812  4.1580 -1.1645
  850MOL0     H14713   3.796   5.213  -0.223 -0.1880  0.6546 -0.9779
  850MOL0     H14714   4.005   5.271  -0.341 -4.6105  1.9016 -1.8742
  850MOL0     H14715   4.030   5.092  -0.394  2.1455  0.8123  1.6235
  850MOL0     H14716   4.106   5.215  -0.607  1.6106 -0.7037 -0.7311
  850MOL0     H14717   4.133   5.350  -0.494 -1.5824 -0.1732  2.4813
  850MOL0     H14718   4.285   5.212  -0.357  0.5494  2.7076 -0.6717
  850MOL0     H14719   4.269   5.074  -0.459 -3.7272 -0.0908 -3.8911
  850MOL0     H14720   4.416   5.330  -0.523  0.1888  0.2955  1.0327
  850MOL0     H14721   4.361   5.220  -0.650  1.7746  1.0362 -1.0447
  850MOL0     H14722   4.583   5.214  -0.578 -1.2792  3.9775  3.2557
  850MOL0     H14723   4.492   5.049  -0.545  1.5799 -0.8109 -1.1140
  850MOL0     H14724   4.532   5.256  -0.333  1.9650  2.0257 -2.7194
  850MOL0     H14725   4.494   5.083  -0.327  0.3199  2.1017  3.4386
  850MOL0     H14726   4.736   5.040  -0.411 -3.3605 -0.7405 -1.9394
  850MOL0     H14727   4.704   5.077  -0.257  1.3704 -1.0863 -0.3481
  850MOL0     H14728   4.910   5.199  -0.382  2.0869  3.0250 -2.1182
  850MOL0     H14729   4.809   5.259  -0.501  3.6424 -1.5299 -0.4454
  850MOL0     H14730   3.711   5.048  -0.607 -3.9440 -3.5140 -0.5936
  850MOL0     H14731   3.532   4.911  -0.518 -1.7242 -0.3890  0.4609
  850MOL0     H14732   3.165   4.753  -0.436 -0.4125 -1.5148 -0.5630
  850MOL0     H14733   3.026   4.561  -0.368  0.3683 -3.3176  1.4426
  850MOL0     H14734   1.300   3.883   0.066  4.4167  0.1824 -0.9573
  850MOL0     H14735   1.168   3.676   0.086 -0.2806 -1.1809  0.5094
  850MOL0     H14736   0.777   3.561   0.307 -1.0533 -1.0223  1.4611
  850MOL0     H14737   0.602   3.405   0.348  1.3876  2.8427  1.5787
  850MOL0     H14738   0.626   3.135   0.630 -0.3628 -0.4008 -0.1351
  850MOL0     H14739   0.699   2.994   0.549  1.3913  1.2800  0.6049
  850MOL0     H14740   0.482   2.946   0.657  1.4606  2.8451  0.9671
  850MOL0     H14741   0.522   2.888   0.493  1.5384 -2.1711  2.8751
  850MOL0     H14742   0.329   3.010   0.415 -0.2328  2.1113 -1.4242
  850MOL0     H14743   0.374   3.144   0.528  2.3012 -0.8377  1.2364
  850MOL0     H14744   0.225   2.886   0.605 -0.2428 -0.3167 -1.1678
  850MOL0     H14745   0.296   3.009   0.713  0.0188 -2.0881  0.2400
  850MOL0     H14746  -0.084   3.170   0.572 -0.1786  1.5820  2.5735
  850MOL0     H14747   0.884   3.112   0.490  1.5443  0.0056  0.3662
  850MOL0     H14748   1.119   3.235   0.564  0.1152  0.6870  0.0324
  850MOL0     H14749   1.140   3.178   0.406  0.4529  0.3991 -1.6032
  850MOL0     H14750   1.200   3.335   0.448  0.6793 -0.7309  0.2303
  851MOL0     O14751   3.452   4.520   5.330  1.3110  0.7921  0.3935
  851MOL0     C14752   3.455   4.398   5.304 -0.0505 -0.4829  0.7061
  851MOL0     O14753   3.569   4.332   5.281  0.0504  0.2193  0.0986
  851MOL0     C14754   3.674   4.408   5.234 -1.4527  0.5832 -0.5280
  851MOL0     C14755   3.738   4.489   5.330 -0.1519  0.5458  0.3061
  851MOL0     C14756   3.855   4.556   5.285 -0.3675  0.0604 -0.0001
  851MOL0     C14757   3.918   4.545   5.160  0.9810  0.1219 -0.1034
  851MOL0     O14758   4.033   4.617   5.134  0.0495  0.2542  0.0251
  851MOL0     C14759   4.066   4.650   4.994 -0.9692 -0.4395 -0.7825
  851MOL0     C14760   4.206   4.703   4.978  1.2937  0.1709 -0.0649
  851MOL0     C14761   4.264   4.714   4.834  0.1609 -0.5792 -0.1415
  851MOL0     C14762   4.406   4.754   4.830  0.4394  1.3815 -0.0797
  851MOL0     C14763   4.437   4.806   4.695 -0.1924 -0.8906  0.6268
  851MOL0     C14764   4.591   4.813   4.686 -0.1934 -0.4303  0.1854
  851MOL0     C14765   4.627   4.897   4.556 -0.2517  0.2217  0.2230
  851MOL0     C14766   4.777   4.885   4.509  0.2491  0.3880  0.1813
  851MOL0     N14767   4.812   4.985   4.419  0.2020 -0.9521 -0.2040
  851MOL0     C14768   4.884   5.101   4.436  1.3071  0.0253 -0.0357
  851MOL0     C14769   4.874   5.173   4.323  0.4157  0.5695  0.6683
  851MOL0     C14770   4.944   5.297   4.285 -0.2623  0.0881 -0.3754
  851MOL0     C14771   4.975   5.317   4.131  0.1762 -0.0734  0.9632
  851MOL0     C14772   5.068   5.224   4.043 -0.2851 -0.5350  0.4688
  851MOL0     C14773   5.209   5.210   4.106  0.4349 -0.0042 -0.4935
  851MOL0     O14774   5.234   5.189   4.246 -0.4720 -0.2884 -0.5601
  851MOL0     C14775   5.195   5.066   4.309  0.8377  0.1178  0.9852
  851MOL0     C14776   5.222   5.057   4.441 -0.6537 -0.1756 -0.5886
  851MOL0     C14777   5.196   4.948   4.517  0.6394 -0.0448 -0.5770
  851MOL0     C14778   5.140   4.840   4.445  0.5176 -0.1493 -0.6727
  851MOL0     C14779   5.084   4.721   4.523 -0.9879 -0.2611 -0.5867
  851MOL0     O14780   5.103   4.720   4.654  0.3900  0.1921  1.1848
  851MOL0     C14781   5.018   4.633   4.713 -0.3888  0.0028 -0.1172
  851MOL0     C14782   4.903   4.677   4.781  0.1330  0.6759 -0.0029
  851MOL0     C14783   4.839   4.584   4.863  0.4229  0.3176  0.5962
  851MOL0     C14784   4.861   4.447   4.864  0.0016 -0.5537  0.3879
  851MOL0     O14785   4.784   4.365   4.939  1.1433  0.0594 -0.0941
  851MOL0     C14786   4.816   4.228   4.968  0.8308 -0.5308  0.0144
  851MOL0     C14787   4.732   4.198   5.098  0.2716 -0.8176  0.2676
  851MOL0     C14788   4.588   4.168   5.073  0.4902 -0.5337  0.1228
  851MOL0     C14789   4.519   4.125   5.204 -0.6966  0.0191  0.5429
  851MOL0     C14790   4.367   4.136   5.193  0.3503  0.9755 -0.7550
  851MOL0     C14791   4.293   4.157   5.326 -0.1552 -0.5487 -1.0319
  851MOL0     C14792   4.345   4.259   5.427 -0.9916  0.0216 -0.7682
  851MOL0     C14793   4.349   4.408   5.374  0.6120  0.5891  0.2584
  851MOL0    Cl14794   4.403   4.542   5.496 -0.1323  0.3302  0.3250
  851MOL0     C14795   4.974   4.401   4.783  0.3966 -0.1982  0.2319
  851MOL0     C14796   5.047   4.491   4.708  0.2414 -0.4914 -0.4928
  851MOL0     O14797   5.019   4.638   4.456 -0.2245  0.7058  0.5268
  851MOL0     C14798   5.109   4.852   4.305  0.0178 -0.0701 -0.1983
  851MOL0     C14799   5.149   4.962   4.233 -0.0082  0.7804 -0.7356
  851MOL0     N14800   4.805   5.092   4.231  0.1666 -0.6756 -0.0008
  851MOL0     N14801   4.786   4.976   4.284  0.2367 -0.5409 -1.0249
  851MOL0     C14802   3.848   4.463   5.070  0.3341 -0.1555  0.1962
  851MOL0     C14803   3.735   4.393   5.107 -0.0838  0.2928  0.6718
  851MOL0     C14804   3.330   4.326   5.303  0.4786  0.6496  0.3907
  851MOL0     C14805   3.212   4.397   5.355  0.3940  0.5631 -0.5146
  851MOL0     C14806   3.091   4.323   5.357 -0.6846 -1.2544  0.0016
  851MOL0     C14807   3.080   4.202   5.293 -0.2002  0.3798 -0.6415
  851MOL0     O14808   2.963   4.138   5.287 -0.1441  0.4217 -0.0966
  851MOL0     C14809   2.869   4.155   5.395  0.5741 -0.1599 -0.1060
  851MOL0     C14810   2.752   4.050   5.391  0.5492 -0.0647  0.2318
  851MOL0     C14811   2.789   3.902   5.391 -0.2792 -0.3530  0.2973
  851MOL0     C14812   2.803   3.847   5.531  0.0944  0.1905  0.1525
  851MOL0     C14813   2.858   3.709   5.516 -0.2173  0.3218  0.1886
  851MOL0     C14814   2.895   3.588   5.502  0.3394 -1.1419 -0.4263
  851MOL0     C14815   3.187   4.136   5.234 -0.6411 -0.8535  0.4330
  851MOL0     C14816   3.313   4.204   5.236 -0.1840 -0.5259 -0.1698
  851MOL0     C14817   3.428   4.128   5.166  0.0082  0.0125  0.0386
  851MOL0     H14818   3.704   4.495   5.433 -0.0670  3.5402  0.2432
  851MOL0     H14819   3.906   4.617   5.359  0.4138  0.6481 -1.0016
  851MOL0     H14820   4.057   4.556   4.939 -0.7195 -1.9577  1.6173
  851MOL0     H14821   3.990   4.717   4.954  0.2451  2.7209  1.7754
  851MOL0     H14822   4.278   4.649   5.040  0.2820  0.0220  1.0109
  851MOL0     H14823   4.193   4.803   5.021  0.5586 -1.1161  3.0250
  851MOL0     H14824   4.219   4.802   4.787 -1.2909 -1.4372 -0.3801
  851MOL0     H14825   4.250   4.624   4.774  0.0068  0.5097 -1.7887
  851MOL0     H14826   4.416   4.833   4.905 -0.5429  1.0222  0.4478
  851MOL0     H14827   4.472   4.672   4.859 -0.7600  0.1786 -0.6554
  851MOL0     H14828   4.404   4.737   4.616  0.9447 -2.2626  1.3019
  851MOL0     H14829   4.391   4.902   4.670  2.9404  0.9213  1.3147
  851MOL0     H14830   4.640   4.860   4.771  3.1949  1.5259 -2.5935
  851MOL0     H14831   4.624   4.710   4.668 -2.6357 -1.1961 -0.2666
  851MOL0     H14832   4.598   5.001   4.570  2.6075  0.6998  4.6521
  851MOL0     H14833   4.577   4.849   4.471 -0.3508 -0.9849  0.9321
  851MOL0     H14834   4.842   4.901   4.595  1.3314  0.0157 -0.5463
  851MOL0     H14835   4.793   4.784   4.469 -3.5054 -0.6971  1.0235
  851MOL0     H14836   4.942   5.126   4.525 -3.1523  1.1866  2.9115
  851MOL0     H14837   4.881   5.378   4.322  1.6535  0.5729  2.2020
  851MOL0     H14838   5.040   5.319   4.334  1.0725  4.7996 -4.2959
  851MOL0     H14839   4.877   5.321   4.082  0.0675  0.8349  1.2325
  851MOL0     H14840   5.023   5.415   4.122 -1.0267  0.3322 -2.1468
  851MOL0     H14841   5.085   5.275   3.948 -0.4132 -0.3977  0.5192
  851MOL0     H14842   5.018   5.128   4.030 -0.2533 -0.2403 -2.5689
  851MOL0     H14843   5.269   5.299   4.084 -0.0220  0.5632  0.4678
  851MOL0     H14844   5.256   5.127   4.053  0.9056 -1.8491  2.5545
  851MOL0     H14845   5.266   5.146   4.487 -2.3139  0.1376  0.4934
  851MOL0     H14846   5.205   4.954   4.625  1.1840  2.9791 -0.7036
  851MOL0     H14847   4.891   4.784   4.795 -0.1363  0.7059 -0.4326
  851MOL0     H14848   4.757   4.616   4.927  2.0172  1.5724  2.1183
  851MOL0     H14849   4.786   4.167   4.883 -3.5558  2.2537 -0.7735
  851MOL0     H14850   4.921   4.220   4.997  0.6146  2.8427  2.3797
  851MOL0     H14851   4.783   4.110   5.139  0.6663 -1.3195 -1.2360
  851MOL0     H14852   4.737   4.283   5.168 -2.3146 -0.5302  0.1998
  851MOL0     H14853   4.536   4.254   5.030 -0.4670 -1.9679 -1.7365
  851MOL0     H14854   4.574   4.085   5.003 -0.2480  0.5343 -1.0432
  851MOL0     H14855   4.564   4.190   5.280  3.7831 -0.7713 -1.0771
  851MOL0     H14856   4.551   4.023   5.227  0.1765  0.5854  2.0249
  851MOL0     H14857   4.338   4.042   5.145  2.1682  1.4177 -2.8456
  851MOL0     H14858   4.335   4.216   5.125 -0.3739  1.1473 -0.2278
  851MOL0     H14859   4.188   4.182   5.308 -0.0777 -0.4697 -1.3781
  851MOL0     H14860   4.287   4.060   5.377 -1.3284 -0.9329 -1.8660
  851MOL0     H14861   4.444   4.237   5.468 -1.7663  0.7714  1.6266
  851MOL0     H14862   4.280   4.255   5.514  0.1531 -3.4421  0.0913
  851MOL0     H14863   4.408   4.419   5.282 -0.2434  2.5773 -0.0830
  851MOL0     H14864   4.245   4.431   5.352  0.0982  0.9534  2.7244
  851MOL0     H14865   5.022   4.303   4.791  1.8525  0.6242  2.7123
  851MOL0     H14866   5.139   4.456   4.661 -1.2720 -3.1038 -1.7297
  851MOL0     H14867   5.056   4.782   4.241 -2.5779  2.1958 -0.7084
  851MOL0     H14868   5.143   4.966   4.125 -0.5574 -0.3180 -0.7619
  851MOL0     H14869   3.878   4.453   4.966  0.9286 -2.4114  0.5259
  851MOL0     H14870   3.694   4.329   5.030  0.2181  1.0350 -0.1157
  851MOL0     H14871   3.220   4.497   5.398  2.4173 -0.6255  2.1879
  851MOL0     H14872   3.013   4.380   5.407  0.5309  2.4294 -1.9115
  851MOL0     H14873   2.830   4.256   5.383 -2.4025 -0.9891  1.5348
  851MOL0     H14874   2.908   4.140   5.495 -1.4733  3.3143  1.3957
  851MOL0     H14875   2.693   4.070   5.301  0.6318  1.1564  0.4382
  851MOL0     H14876   2.684   4.065   5.476 -2.7733 -1.3506 -2.0193
  851MOL0     H14877   2.888   3.898   5.343 -0.0423 -1.3216  0.8251
  851MOL0     H14878   2.711   3.860   5.327  0.4282  0.8258 -1.4050
  851MOL0     H14879   2.875   3.907   5.588  2.7313  0.6655 -3.3703
  851MOL0     H14880   2.703   3.844   5.576  0.4143  2.1657  1.1133
  851MOL0     H14881   2.911   3.486   5.476 -2.7233 -0.9981 -3.5205
  851MOL0     H14882   3.174   4.042   5.181  1.1940  0.2275 -2.1267
  851MOL0     H14883   3.494   4.082   5.241  0.4277 -0.4142 -0.5806
  851MOL0     H14884   3.388   4.046   5.106 -2.7145  1.6930 -0.6028
  851MOL0     H14885   3.477   4.192   5.093 -0.6851  0.2349 -0.2372
  852MOL0     O14886  10.382   5.901  10.778 -0.2325  0.5477 -0.1106
  852MOL0     C14887  10.442   6.003  10.816  0.0255 -0.3692 -0.2621
  852MOL0     O14888  10.553   6.054  10.753  0.4214 -0.2734  0.6775
  852MOL0     C14889  10.574   6.038  10.616 -0.1750  0.3120 -0.5742
  852MOL0     C14890  10.693   6.085  10.573 -0.1568  0.0528  0.5881
  852MOL0     C14891  10.716   6.097  10.428 -0.1245 -0.8232 -0.0138
  852MOL0     C14892  10.631   6.042  10.329 -0.0613  0.0717  0.0818
  852MOL0     O14893  10.662   6.053  10.193 -0.5467 -0.5012  0.2606
  852MOL0     C14894  10.564   6.008  10.096 -0.8215 -0.5167 -0.5200
  852MOL0     C14895  10.459   6.110  10.057  0.3482 -0.5277 -0.1382
  852MOL0     C14896  10.538   6.226   9.983 -0.1676  0.0855  0.0181
  852MOL0     C14897  10.458   6.354   9.993 -0.4877 -0.1986 -0.1164
  852MOL0     C14898  10.518   6.477   9.917  1.0890  0.3184 -0.6586
  852MOL0     C14899  10.427   6.540   9.804  0.6160  0.0233 -0.2432
  852MOL0     C14900  10.509   6.622   9.711  0.2798 -0.5125  0.6482
  852MOL0     C14901  10.566   6.541   9.586  0.1066  0.0976  0.3656
  852MOL0     N14902  10.653   6.435   9.633 -1.3818 -0.2428  0.4799
  852MOL0     C14903  10.787   6.450   9.691 -0.3305  0.3598 -0.2502
  852MOL0     C14904  10.838   6.325   9.682 -0.0884  0.4728 -1.0194
  852MOL0     C14905  10.977   6.281   9.718  0.2199  0.6979  0.0457
  852MOL0     C14906  10.976   6.188   9.843 -0.7059  0.2714  0.1490
  852MOL0     C14907  10.954   6.262   9.977  0.0566 -0.4625  0.3507
  852MOL0     C14908  10.966   6.161  10.091 -0.3826  0.4701 -0.6969
  852MOL0     O14909  11.102   6.120  10.124 -0.0073 -0.2499  0.5419
  852MOL0     C14910  11.185   6.202  10.190 -0.0169  0.2564 -0.3479
  852MOL0     C14911  11.318   6.153  10.211 -1.2655 -0.0525 -0.5607
  852MOL0     C14912  11.415   6.223  10.285 -0.5188  0.3791 -0.1878
  852MOL0     C14913  11.383   6.346  10.344 -0.0047  0.4951  0.7847
  852MOL0     C14914  11.495   6.423  10.406 -0.0598 -0.2406 -0.9797
  852MOL0     O14915  11.602   6.347  10.451  0.1201 -0.1653  0.3344
  852MOL0     C14916  11.711   6.407  10.516  0.4504 -1.5388  0.1881
  852MOL0     C14917  11.843   6.369  10.492  0.4846  0.4235  0.3154
  852MOL0     C14918  11.951   6.434  10.561  0.4644  0.1435 -0.2293
  852MOL0     C14919  11.924   6.532  10.651  0.3527  0.3219 -0.9351
  852MOL0     O14920  12.039   6.593  10.705  0.3130  0.3669 -0.2800
  852MOL0     C14921  12.031   6.668  10.833 -0.2566  0.3070 -0.3543
  852MOL0     C14922  12.168   6.734  10.864 -1.0917 -0.1681 -0.1215
  852MOL0     C14923  12.290   6.652  10.819 -0.1628 -0.5775 -0.2242
  852MOL0     C14924  12.423   6.688  10.874  0.0419 -0.1597  0.5433
  852MOL0     C14925  12.552   6.657  10.784  0.6949  0.4500 -0.7662
  852MOL0     C14926  12.690   6.698  10.838  0.3170 -0.9676  0.0749
  852MOL0     C14927  12.790   6.724  10.722 -0.6382  0.4084  1.0959
  852MOL0     C14928  12.904   6.798  10.775  0.3835 -0.6336 -0.0960
  852MOL0    Cl14929  13.014   6.681  10.854  0.1564 -0.0852 -0.2692
  852MOL0     C14930  11.793   6.573  10.671  0.0327 -0.2339  0.0872
  852MOL0     C14931  11.690   6.506  10.611  0.5663 -0.7080  0.6989
  852MOL0     O14932  11.480   6.545  10.412 -0.0325 -0.1035 -0.1400
  852MOL0     C14933  11.252   6.395  10.318 -0.6593 -0.0017  0.5833
  852MOL0     C14934  11.153   6.323  10.251  1.1118 -0.5610  0.2856
  852MOL0     N14935  10.760   6.242   9.609  0.3049 -0.0416 -1.1438
  852MOL0     N14936  10.654   6.311   9.569 -0.0936 -0.2818 -1.0138
  852MOL0     C14937  10.508   6.001  10.383 -0.2614  0.0930  0.0786
  852MOL0     C14938  10.476   5.997  10.522  0.8532 -0.4399 -0.8204
  852MOL0     C14939  10.412   6.049  10.952 -0.1342 -0.1050  0.4247
  852MOL0     C14940  10.513   6.098  11.032  0.0832 -0.1353  0.3716
  852MOL0     C14941  10.491   6.139  11.162  0.4103 -0.4459  0.1140
  852MOL0     C14942  10.363   6.144  11.215  0.7956 -0.9577 -1.0501
  852MOL0     O14943  10.360   6.194  11.344  0.2473 -0.4302  0.8880
  852MOL0     C14944  10.239   6.198  11.417  0.1925 -0.8169 -0.3150
  852MOL0     C14945  10.221   6.064  11.489  0.1669  0.2296  0.4325
  852MOL0     C14946  10.336   6.020  11.580 -0.1890  0.1990  0.2020
  852MOL0     C14947  10.349   5.866  11.579 -0.4866  0.7364 -0.2424
  852MOL0     C14948  10.472   5.818  11.652  1.3056  0.5792  0.3389
  852MOL0     C14949  10.569   5.782  11.709 -0.3500 -0.5354 -0.5790
  852MOL0     C14950  10.252   6.098  11.137 -0.3052 -1.2351  0.6683
  852MOL0     C14951  10.277   6.039  11.007  0.9625 -0.8567 -0.3269
  852MOL0     C14952  10.156   5.985  10.931  1.1743  0.3354 -0.6087
  852MOL0     H14953  10.774   6.122  10.635 -0.4335 -1.0742  1.6438
  852MOL0     H14954  10.815   6.134  10.402 -0.2806  0.1342  0.6879
  852MOL0     H14955  10.610   5.975  10.003 -0.6207 -0.2070 -0.5342
  852MOL0     H14956  10.522   5.912  10.127 -2.8561  1.5648  4.1825
  852MOL0     H14957  10.412   6.131  10.153  0.2654  0.9089 -0.4680
  852MOL0     H14958  10.382   6.069   9.992  0.7203  0.1596 -1.0388
  852MOL0     H14959  10.563   6.194   9.881 -0.2059  0.7011 -0.1891
  852MOL0     H14960  10.636   6.249  10.024  0.6253 -1.5494 -0.8432
  852MOL0     H14961  10.362   6.332   9.945  0.0082 -1.7625 -0.4606
  852MOL0     H14962  10.447   6.375  10.099 -0.6894  1.6149 -0.4599
  852MOL0     H14963  10.543   6.559   9.986  1.6200 -0.7826  0.5057
  852MOL0     H14964  10.609   6.435   9.875  2.7362  2.8845  0.0958
  852MOL0     H14965  10.388   6.452   9.752  1.0570  1.2424 -2.7934
  852MOL0     H14966  10.344   6.595   9.848  1.3504  1.0862 -0.1277
  852MOL0     H14967  10.594   6.662   9.766 -0.2203  3.7628 -1.2485
  852MOL0     H14968  10.447   6.699   9.664  4.0147  0.7921 -2.7256
  852MOL0     H14969  10.480   6.505   9.529  0.4698 -1.2031  0.6063
  852MOL0     H14970  10.616   6.614   9.522  2.7714 -1.4148  0.5895
  852MOL0     H14971  10.828   6.542   9.732 -1.0975  0.7815 -0.3951
  852MOL0     H14972  11.005   6.226   9.628 -3.3811 -0.6491 -0.4269
  852MOL0     H14973  11.060   6.352   9.714  1.6150 -0.8982 -4.3689
  852MOL0     H14974  10.908   6.102   9.845  1.1535 -1.2632  1.6834
  852MOL0     H14975  11.072   6.140   9.861 -2.5464 -2.6798  3.2672
  852MOL0     H14976  10.863   6.322   9.976  0.7424  0.8009 -3.6614
  852MOL0     H14977  11.034   6.335   9.993  1.0870 -1.8274  1.7673
  852MOL0     H14978  10.909   6.071  10.063 -0.3751  1.0208 -2.5743
  852MOL0     H14979  10.914   6.196  10.181  0.7548  0.3746  0.0139
  852MOL0     H14980  11.328   6.051  10.173  0.0528  0.6598 -2.2668
  852MOL0     H14981  11.516   6.183  10.291 -0.7300  0.0564  1.5790
  852MOL0     H14982  11.881   6.300  10.417  1.9940  0.3578  1.0915
  852MOL0     H14983  12.046   6.383  10.545  1.6978  0.9130  3.5188
  852MOL0     H14984  11.949   6.740  10.835 -3.0761 -2.7132  0.1109
  852MOL0     H14985  12.016   6.589  10.907  0.4245 -0.1277 -0.6765
  852MOL0     H14986  12.163   6.825  10.804  1.3140 -0.1405 -0.3544
  852MOL0     H14987  12.172   6.765  10.969 -3.4544 -0.6173  0.1782
  852MOL0     H14988  12.275   6.544  10.830  0.0304 -0.8624 -2.3083
  852MOL0     H14989  12.303   6.656  10.710  1.0997  0.6963 -0.0546
  852MOL0     H14990  12.430   6.650  10.976 -2.2628 -2.0232  0.0787
  852MOL0     H14991  12.433   6.795  10.895 -2.2683  0.7818 -2.5120
  852MOL0     H14992  12.549   6.690  10.680 -1.6250  0.2466 -0.8118
  852MOL0     H14993  12.540   6.549  10.775 -0.4618  0.7377 -4.1134
  852MOL0     H14994  12.683   6.794  10.891  2.3786  1.3759 -3.4756
  852MOL0     H14995  12.723   6.624  10.911 -2.9499 -1.5019  1.2175
  852MOL0     H14996  12.748   6.792  10.647  0.0249  0.3768  0.6894
  852MOL0     H14997  12.839   6.637  10.678  0.8788  1.1418  1.2892
  852MOL0     H14998  12.963   6.840  10.693 -1.1183  3.4711  0.6687
  852MOL0     H14999  12.873   6.876  10.846 -1.6160 -0.5848 -0.9551
  852MOL0     H15000  11.771   6.660  10.732 -2.2784 -0.2066 -0.6756
  852MOL0     H15001  11.593   6.552  10.628 -0.3008 -2.4270  0.6468
  852MOL0     H15002  11.242   6.496  10.356 -0.3960  0.3072 -0.1429
  852MOL0     H15003  11.050   6.360  10.248  0.7364 -1.4945  1.2358
  852MOL0     H15004  10.433   5.960  10.316  1.2652 -2.0430 -0.4364
  852MOL0     H15005  10.373   5.976  10.550  0.4693  1.5298 -0.6177
  852MOL0     H15006  10.614   6.112  10.994  0.1241 -0.2355  0.4444
  852MOL0     H15007  10.572   6.169  11.228  1.2315 -1.1142 -0.5742
  852MOL0     H15008  10.154   6.220  11.351  2.4974  1.0165 -2.9271
  852MOL0     H15009  10.241   6.280  11.489 -1.1359 -2.1079  1.2726
  852MOL0     H15010  10.212   5.984  11.415  2.1686 -0.8075  1.2423
  852MOL0     H15011  10.127   6.077  11.544  0.2682  1.0591  0.4195
  852MOL0     H15012  10.330   6.062  11.682  0.4349  1.1775 -0.1513
  852MOL0     H15013  10.431   6.062  11.547 -0.0982 -1.0126 -1.1217
  852MOL0     H15014  10.266   5.810  11.623  0.0715 -0.2449 -0.4213
  852MOL0     H15015  10.364   5.849  11.472 -0.0062 -4.7287  0.4128
  852MOL0     H15016  10.668   5.771  11.748 -0.3675 -0.4036 -0.4967
  852MOL0     H15017  10.153   6.110  11.178  0.3007  0.9295  1.6602
  852MOL0     H15018  10.061   6.018  10.976 -1.7394 -0.9360 -5.1743
  852MOL0     H15019  10.158   5.998  10.823 -2.3315 -3.0859 -1.3201
  852MOL0     H15020  10.152   5.878  10.953 -0.0087  0.2033 -1.3575
  853MOL0     O15021   5.160   5.369   8.123 -0.0203 -0.3895 -0.3108
  853MOL0     C15022   5.155   5.258   8.174  1.0255 -0.0261 -0.6766
  853MOL0     O15023   5.262   5.180   8.216  0.6778 -0.0986  0.0184
  853MOL0     C15024   5.383   5.243   8.218 -0.2723  0.5043 -0.5003
  853MOL0     C15025   5.487   5.201   8.125  1.9468  0.6762  0.6360
  853MOL0     C15026   5.616   5.246   8.135 -0.4229 -0.6608  0.5854
  853MOL0     C15027   5.662   5.325   8.239 -0.6003  0.4934 -0.4958
  853MOL0     O15028   5.783   5.389   8.245 -0.5329 -0.1167 -0.7711
  853MOL0     C15029   5.884   5.348   8.154 -0.3144  0.2596  0.0211
  853MOL0     C15030   6.014   5.418   8.183  0.2968  0.4576  1.0082
  853MOL0     C15031   6.055   5.433   8.333  0.0895  0.9444 -0.2794
  853MOL0     C15032   6.207   5.464   8.340  0.3581 -0.5591  0.3185
  853MOL0     C15033   6.246   5.581   8.254  0.9184  0.5201 -0.1258
  853MOL0     C15034   6.382   5.632   8.293 -0.0044  0.2085 -0.5152
  853MOL0     C15035   6.501   5.539   8.320 -0.0372  0.4907  0.5448
  853MOL0     C15036   6.532   5.456   8.194 -0.8014 -0.5222 -0.7833
  853MOL0     N15037   6.663   5.391   8.204 -0.7382 -0.7233  0.5453
  853MOL0     C15038   6.782   5.446   8.182  0.2845  0.0773  0.5367
  853MOL0     C15039   6.872   5.342   8.177  0.8247 -0.6736 -0.5511
  853MOL0     C15040   7.016   5.356   8.165  0.3512  0.1380 -0.0704
  853MOL0     C15041   7.095   5.346   8.298  0.1297  0.2694  0.5030
  853MOL0     C15042   7.143   5.478   8.366  0.8851  0.4075  0.0377
  853MOL0     C15043   7.027   5.558   8.422  0.1158 -0.3097 -0.0603
  853MOL0     O15044   6.945   5.470   8.504 -0.0409 -0.5302  0.2684
  853MOL0     C15045   6.819   5.504   8.541 -0.5471 -0.2141  0.1574
  853MOL0     C15046   6.771   5.628   8.549  0.2521 -0.1143 -0.0077
  853MOL0     C15047   6.650   5.663   8.612 -0.4651 -0.6179  0.6680
  853MOL0     C15048   6.563   5.564   8.653  0.1750  0.6720  0.1338
  853MOL0     C15049   6.427   5.601   8.698  0.4774 -0.1417  0.3922
  853MOL0     O15050   6.384   5.733   8.683  0.8914  0.0718  0.2016
  853MOL0     C15051   6.263   5.773   8.725  0.5407 -0.1516 -0.5466
  853MOL0     C15052   6.194   5.866   8.655  0.0179 -0.2715  0.2252
  853MOL0     C15053   6.075   5.922   8.707 -0.5320 -0.2285  0.4034
  853MOL0     C15054   6.018   5.888   8.831 -0.2743  0.7899  0.7905
  853MOL0     O15055   5.913   5.941   8.895  0.0363  0.3745 -0.0437
  853MOL0     C15056   5.800   5.974   8.808 -0.4740  0.2355  0.3321
  853MOL0     C15057   5.668   6.020   8.888 -0.7454  0.7016  0.3669
  853MOL0     C15058   5.551   6.051   8.793 -0.2191  0.3693 -0.5244
  853MOL0     C15059   5.434   6.127   8.851 -0.4703 -0.2739  1.0225
  853MOL0     C15060   5.300   6.088   8.780 -0.4430  0.0404  0.3521
  853MOL0     C15061   5.177   6.146   8.845  0.0065 -0.2308  0.6108
  853MOL0     C15062   5.045   6.102   8.786  0.2110  0.2968 -0.0912
  853MOL0     C15063   4.985   6.204   8.701  0.4708 -0.1897  0.6519
  853MOL0    Cl15064   4.940   6.340   8.810  0.0536 -0.3505  0.1015
  853MOL0     C15065   6.082   5.788   8.898  0.5977  0.0633  0.3234
  853MOL0     C15066   6.200   5.735   8.848  0.8325 -0.0433 -0.5686
  853MOL0     O15067   6.365   5.513   8.759  0.1990  0.0006 -0.5881
  853MOL0     C15068   6.608   5.426   8.645  0.1867 -0.9133  0.1883
  853MOL0     C15069   6.732   5.401   8.587 -1.0443 -0.4182  0.4314
  853MOL0     N15070   6.795   5.225   8.182 -0.0602 -0.1681 -0.1336
  853MOL0     N15071   6.674   5.256   8.200  0.0860 -0.0523  0.3560
  853MOL0     C15072   5.570   5.369   8.336 -0.5424 -0.5433 -0.0477
  853MOL0     C15073   5.437   5.321   8.325  0.3706 -0.8550  0.1555
  853MOL0     C15074   5.023   5.188   8.183  0.6691  0.7738  0.0868
  853MOL0     C15075   5.017   5.089   8.278 -0.0211 -0.2129 -0.3141
  853MOL0     C15076   4.894   5.031   8.316  0.7679  0.8125  0.2187
  853MOL0     C15077   4.781   5.067   8.241  0.6386  1.7759  0.1406
  853MOL0     O15078   4.651   5.029   8.273  0.2017  1.1153  0.2555
  853MOL0     C15079   4.614   5.043   8.416 -0.3585  0.9160 -0.0108
  853MOL0     C15080   4.479   4.980   8.427  0.0061  0.5598 -0.3258
  853MOL0     C15081   4.368   5.075   8.379 -1.3413 -0.4910 -0.1698
  853MOL0     C15082   4.384   5.111   8.227 -0.3169 -0.7391  0.0235
  853MOL0     C15083   4.278   5.199   8.184 -0.3069  0.3624 -0.1309
  853MOL0     C15084   4.182   5.247   8.125  0.1354  0.9915 -0.0104
  853MOL0     C15085   4.788   5.167   8.143  0.2051  0.2346 -0.1256
  853MOL0     C15086   4.905   5.227   8.114 -0.2303 -0.4274  1.1819
  853MOL0     C15087   4.909   5.332   8.005 -0.2113 -1.0684  0.4464
  853MOL0     H15088   5.459   5.139   8.041  2.1608  3.2326 -1.4679
  853MOL0     H15089   5.685   5.226   8.053  2.8361  3.9898  1.7641
  853MOL0     H15090   5.901   5.240   8.148  2.7473  0.4808  2.2184
  853MOL0     H15091   5.852   5.378   8.054 -3.6068 -0.3301  0.7845
  853MOL0     H15092   5.994   5.515   8.136  2.8659  0.3730 -0.4032
  853MOL0     H15093   6.081   5.357   8.121 -3.3403 -2.2105 -0.6650
  853MOL0     H15094   6.016   5.346   8.386 -0.4837  0.4153 -1.5584
  853MOL0     H15095   5.995   5.516   8.373 -3.3382 -1.0048 -0.9675
  853MOL0     H15096   6.229   5.493   8.443 -1.6122  2.7646 -0.0600
  853MOL0     H15097   6.262   5.378   8.299  2.2326  0.3606  0.7550
  853MOL0     H15098   6.257   5.550   8.150  1.1779 -2.0419  0.6015
  853MOL0     H15099   6.167   5.656   8.265  1.4051  1.0147  0.0602
  853MOL0     H15100   6.418   5.695   8.212 -0.0037 -0.4797 -1.0607
  853MOL0     H15101   6.384   5.683   8.390  0.3163  1.5284 -1.1939
  853MOL0     H15102   6.498   5.472   8.406  0.0944 -0.9709 -0.5428
  853MOL0     H15103   6.589   5.601   8.333  0.3491 -0.1416  1.0102
  853MOL0     H15104   6.456   5.379   8.178 -2.0471  0.3727  0.5467
  853MOL0     H15105   6.525   5.517   8.104 -3.1423  1.0863  0.3902
  853MOL0     H15106   6.809   5.551   8.183  1.9287 -0.3101  2.0266
  853MOL0     H15107   7.065   5.281   8.102  2.1947  2.3434 -1.4286
  853MOL0     H15108   7.034   5.458   8.129 -3.0151  1.3857  1.3806
  853MOL0     H15109   7.060   5.268   8.366  0.5584 -2.5429 -2.2783
  853MOL0     H15110   7.192   5.308   8.266 -1.0575 -1.5080 -1.2315
  853MOL0     H15111   7.184   5.544   8.288 -2.8279  0.9177 -1.7212
  853MOL0     H15112   7.212   5.448   8.445 -0.2422 -0.7376  0.6152
  853MOL0     H15113   6.969   5.611   8.346  2.7464  0.5227 -1.6333
  853MOL0     H15114   7.074   5.624   8.497 -0.0655 -2.7023  2.3249
  853MOL0     H15115   6.832   5.710   8.513  1.6027 -0.6994  0.8512
  853MOL0     H15116   6.613   5.765   8.609 -0.8048 -0.7446 -2.1802
  853MOL0     H15117   6.222   5.896   8.555 -3.5879 -1.7893 -1.4089
  853MOL0     H15118   6.037   5.996   8.637  0.5558  1.8977  1.9372
  853MOL0     H15119   5.817   6.049   8.730 -2.3385 -1.2545 -1.6394
  853MOL0     H15120   5.788   5.878   8.757  4.1839 -0.3335 -0.1839
  853MOL0     H15121   5.635   5.940   8.956  0.4136  0.0246  0.1555
  853MOL0     H15122   5.693   6.104   8.954 -0.1591  2.0012 -1.4445
  853MOL0     H15123   5.600   6.124   8.727  3.1254 -0.2502  1.0933
  853MOL0     H15124   5.515   5.960   8.744 -0.0230  0.2955 -0.5350
  853MOL0     H15125   5.450   6.232   8.829 -0.6385 -0.0177  2.0858
  853MOL0     H15126   5.441   6.109   8.959 -1.0562  1.3202  1.3534
  853MOL0     H15127   5.298   5.979   8.782 -0.6157 -0.0319 -1.7653
  853MOL0     H15128   5.307   6.116   8.674  1.2565 -3.2453 -0.5508
  853MOL0     H15129   5.186   6.126   8.952 -0.4081  0.5730  0.8079
  853MOL0     H15130   5.192   6.254   8.836  1.6553 -0.4764  0.0696
  853MOL0     H15131   4.989   6.077   8.876  0.1123  1.3607  0.1565
  853MOL0     H15132   5.065   6.009   8.731  0.7816  0.3297  0.0504
  853MOL0     H15133   5.047   6.242   8.619 -0.6349  0.9374  0.3041
  853MOL0     H15134   4.898   6.150   8.663 -0.4181  1.4127  0.3133
  853MOL0     H15135   6.036   5.747   8.987  1.2452  0.4015  0.8284
  853MOL0     H15136   6.248   5.659   8.909  2.0217  0.7610 -0.4637
  853MOL0     H15137   6.534   5.348   8.663 -0.7420 -0.3051 -0.8503
  853MOL0     H15138   6.755   5.296   8.569 -3.2458 -1.1355  1.4441
  853MOL0     H15139   5.594   5.431   8.422  0.9545 -1.3210  0.1358
  853MOL0     H15140   5.365   5.352   8.400 -0.2289 -1.6878 -0.0700
  853MOL0     H15141   5.107   5.052   8.326 -0.1516 -0.0951  0.0237
  853MOL0     H15142   4.896   4.953   8.392  1.4389  0.8313  0.2245
  853MOL0     H15143   4.619   5.139   8.469 -0.0662  0.2225  1.2689
  853MOL0     H15144   4.682   4.984   8.479 -0.8510  1.8758  1.4928
  853MOL0     H15145   4.454   4.960   8.532  1.9791  2.1629  0.5025
  853MOL0     H15146   4.485   4.886   8.371 -1.3284  0.0909  0.2715
  853MOL0     H15147   4.365   5.168   8.438 -0.4474 -0.0769 -0.7617
  853MOL0     H15148   4.280   5.013   8.399 -0.5000 -0.9512  2.5852
  853MOL0     H15149   4.471   5.175   8.207 -1.0235  0.3540  0.3417
  853MOL0     H15150   4.384   5.019   8.167 -0.8171 -2.6327  2.7535
  853MOL0     H15151   4.101   5.308   8.091 -0.4124  0.5018  0.4119
  853MOL0     H15152   4.700   5.181   8.082  0.5928 -0.1337 -0.7825
  853MOL0     H15153   5.003   5.340   7.950 -0.3657  2.7661  0.4539
  853MOL0     H15154   4.827   5.301   7.941  1.0929  0.2846 -2.0248
  853MOL0     H15155   4.872   5.433   8.026  1.6482  0.5139 -3.0388
  854MOL0     O15156   6.174   1.742   9.669 -0.0577 -0.0394 -0.0455
  854MOL0     C15157   6.159   1.625   9.627  0.9907  0.0383 -0.3049
  854MOL0     O15158   6.229   1.522   9.680  0.3624 -0.6484  0.7581
  854MOL0     C15159   6.319   1.551   9.778  0.4440 -0.1675 -0.3981
  854MOL0     C15160   6.297   1.509   9.908 -0.1237  0.6184  0.2435
  854MOL0     C15161   6.392   1.534  10.006  0.4254 -0.7164 -1.1049
  854MOL0     C15162   6.513   1.595   9.974  0.4187 -0.2925 -0.9054
  854MOL0     O15163   6.599   1.622  10.080 -0.1530 -0.2711 -0.5599
  854MOL0     C15164   6.699   1.719  10.075 -0.2428 -1.1045  0.3261
  854MOL0     C15165   6.795   1.738  10.193  0.2478 -0.6485 -0.8051
  854MOL0     C15166   6.897   1.853  10.166 -0.4555  0.6052  0.1638
  854MOL0     C15167   6.987   1.893  10.294 -0.4175 -0.0300 -1.1772
  854MOL0     C15168   7.041   1.760  10.357  1.0033 -0.5775  1.4025
  854MOL0     C15169   7.137   1.794  10.468  0.1467  0.5365  0.7365
  854MOL0     C15170   7.259   1.876  10.442 -0.5969 -0.1516 -0.0098
  854MOL0     C15171   7.376   1.796  10.383  0.5835 -0.0032  0.0809
  854MOL0     N15172   7.470   1.887  10.327  0.2363  0.2274 -0.1244
  854MOL0     C15173   7.482   1.938  10.197  0.4343  0.1224 -1.0534
  854MOL0     C15174   7.577   2.035  10.203 -0.9902 -0.0661 -0.7902
  854MOL0     C15175   7.624   2.135  10.097  0.2385 -0.2137  0.5563
  854MOL0     C15176   7.763   2.118  10.044 -0.5871 -0.3469 -1.0758
  854MOL0     C15177   7.774   2.187   9.909 -0.6231  0.5005  0.1788
  854MOL0     C15178   7.907   2.202   9.836 -0.3932  0.6378 -0.1151
  854MOL0     O15179   8.009   2.260   9.924  0.3495  0.6757  0.6848
  854MOL0     C15180   8.139   2.226   9.888  0.8022  0.4002 -0.1105
  854MOL0     C15181   8.184   2.197   9.757  0.1113  0.2390  1.1414
  854MOL0     C15182   8.320   2.189   9.729 -0.0894  0.1383  0.4610
  854MOL0     C15183   8.415   2.205   9.828  0.2685 -0.2789 -0.0440
  854MOL0     C15184   8.555   2.206   9.783 -1.1263  0.2981  0.3453
  854MOL0     O15185   8.589   2.194   9.647  0.4961  0.1974  0.0529
  854MOL0     C15186   8.704   2.246   9.606 -0.0954 -1.0890  0.1291
  854MOL0     C15187   8.803   2.180   9.539 -0.2106  0.0148 -0.1143
  854MOL0     C15188   8.926   2.242   9.513 -0.1982 -0.3678 -0.4350
  854MOL0     C15189   8.959   2.369   9.555 -0.2167 -0.4680  0.5662
  854MOL0     O15190   9.086   2.422   9.553 -0.1554 -0.2856  0.6344
  854MOL0     C15191   9.190   2.332   9.540 -0.0378  0.4206 -0.5221
  854MOL0     C15192   9.320   2.398   9.531 -0.1500 -0.6191 -0.2498
  854MOL0     C15193   9.431   2.294   9.528  0.1008  0.4128  0.9734
  854MOL0     C15194   9.570   2.373   9.517 -0.2532 -0.2093  0.4098
  854MOL0     C15195   9.698   2.282   9.502 -0.6409  0.6066 -0.0173
  854MOL0     C15196   9.744   2.185   9.609 -0.0862  0.5359  0.3212
  854MOL0     C15197   9.886   2.139   9.607 -0.3895  0.2159  0.4148
  854MOL0     C15198   9.916   2.009   9.690  0.3734 -0.4705 -0.4035
  854MOL0    Cl15199   9.873   1.863   9.588  0.1185  0.6257  0.4900
  854MOL0     C15200   8.856   2.442   9.609 -0.1736  0.2394  0.1000
  854MOL0     C15201   8.737   2.382   9.643 -0.6384 -0.3539 -0.3009
  854MOL0     O15202   8.643   2.208   9.870 -0.2441  0.4346 -0.2823
  854MOL0     C15203   8.372   2.226   9.958 -0.0731 -0.4159 -0.0542
  854MOL0     C15204   8.233   2.235   9.987 -0.0622  0.2719  0.7420
  854MOL0     N15205   7.638   2.028  10.326  0.5537 -0.2545 -0.6581
  854MOL0     N15206   7.561   1.954  10.401 -0.0552 -0.5562 -0.3017
  854MOL0     C15207   6.540   1.639   9.839 -0.2485  0.2499 -0.2371
  854MOL0     C15208   6.444   1.602   9.746  0.5944 -0.9932  0.4118
  854MOL0     C15209   6.074   1.593   9.504  0.9845 -0.8271  0.6218
  854MOL0     C15210   6.083   1.460   9.445  0.2056 -0.5329 -0.7854
  854MOL0     C15211   6.030   1.427   9.329  0.3391 -0.4790  0.1692
  854MOL0     C15212   5.953   1.517   9.253  0.3103 -0.2716 -0.1460
  854MOL0     O15213   5.903   1.510   9.124  1.3819  0.6984 -0.2489
  854MOL0     C15214   5.927   1.383   9.058  0.6526 -0.1453 -0.4827
  854MOL0     C15215   6.033   1.397   8.952 -0.0687  0.0170 -0.0328
  854MOL0     C15216   6.175   1.434   9.023 -0.9484  0.2634 -0.1860
  854MOL0     C15217   6.279   1.441   8.916  0.4999  0.9091 -0.1410
  854MOL0     C15218   6.268   1.542   8.811  0.8097  0.2573  0.3820
  854MOL0     C15219   6.275   1.611   8.706 -0.0404  0.9949 -0.8646
  854MOL0     C15220   5.918   1.639   9.318 -1.0825  0.4892  0.1938
  854MOL0     C15221   5.981   1.675   9.442  0.2009 -0.4009 -0.4642
  854MOL0     C15222   5.939   1.813   9.506 -0.4521 -0.0179 -0.1185
  854MOL0     H15223   6.205   1.461   9.941  0.2804  1.3448  2.6635
  854MOL0     H15224   6.383   1.505  10.111 -0.8209 -0.8614 -1.2376
  854MOL0     H15225   6.767   1.700   9.991 -0.1781 -0.6992  0.2829
  854MOL0     H15226   6.649   1.816  10.066  0.5014 -0.8780 -1.9654
  854MOL0     H15227   6.845   1.642  10.212  0.2635 -0.3410  0.8192
  854MOL0     H15228   6.742   1.763  10.285  2.5130 -1.2295  0.7252
  854MOL0     H15229   6.844   1.945  10.139 -0.2622  1.1197  1.4779
  854MOL0     H15230   6.972   1.840  10.087  0.0408  2.5050  0.2742
  854MOL0     H15231   7.064   1.967  10.270 -2.3898  1.0749 -4.9558
  854MOL0     H15232   6.913   1.942  10.357  0.5215 -1.7589  1.4480
  854MOL0     H15233   6.964   1.690  10.389  0.3453 -0.0647  0.9590
  854MOL0     H15234   7.102   1.716  10.277 -0.1765  0.7557 -0.3135
  854MOL0     H15235   7.080   1.852  10.541  1.9444  2.1415  0.9502
  854MOL0     H15236   7.169   1.702  10.517 -0.8985 -0.1763  0.1257
  854MOL0     H15237   7.300   1.922  10.532 -0.4817 -0.0442 -0.1162
  854MOL0     H15238   7.235   1.958  10.374  1.5977  0.6122  0.0750
  854MOL0     H15239   7.422   1.734  10.461 -1.3390 -2.0770 -0.3041
  854MOL0     H15240   7.351   1.731  10.298  0.4805 -2.4076  1.8474
  854MOL0     H15241   7.417   1.916  10.113 -1.3328 -0.1656  0.3504
  854MOL0     H15242   7.564   2.113  10.008 -0.5534 -1.3406  1.3418
  854MOL0     H15243   7.599   2.236  10.130 -0.7117 -1.1132  2.8231
  854MOL0     H15244   7.839   2.176  10.097  3.1592 -2.7258 -3.3247
  854MOL0     H15245   7.789   2.012  10.040 -2.4803 -1.1879  3.4356
  854MOL0     H15246   7.724   2.282   9.930 -0.0061  0.5703  1.3696
  854MOL0     H15247   7.707   2.129   9.844 -2.0592 -0.2417  2.2132
  854MOL0     H15248   7.888   2.264   9.747 -0.8506 -1.1875 -1.3482
  854MOL0     H15249   7.949   2.109   9.798  1.6823  1.5519 -0.1813
  854MOL0     H15250   8.112   2.188   9.677  0.9847  0.7153  0.2835
  854MOL0     H15251   8.354   2.165   9.629 -0.2553  1.2425  0.1342
  854MOL0     H15252   8.798   2.075   9.513  0.7353 -0.1381  0.2708
  854MOL0     H15253   9.000   2.175   9.470 -2.3962 -4.9607  2.1796
  854MOL0     H15254   9.184   2.261   9.623  3.2259 -1.1221 -1.4515
  854MOL0     H15255   9.180   2.269   9.451  0.1339 -2.1846  1.2138
  854MOL0     H15256   9.332   2.461   9.443 -1.3115 -1.3375 -0.9437
  854MOL0     H15257   9.324   2.464   9.618  0.7481  1.7438 -2.0010
  854MOL0     H15258   9.438   2.234   9.620  0.0071 -0.2674  0.5447
  854MOL0     H15259   9.413   2.227   9.444 -0.5401 -1.3087  2.4210
  854MOL0     H15260   9.578   2.417   9.617  0.9886 -0.6844  0.5312
  854MOL0     H15261   9.554   2.456   9.447  0.3017 -2.5587 -2.7147
  854MOL0     H15262   9.774   2.358   9.480  0.0972  0.4272  1.7751
  854MOL0     H15263   9.686   2.233   9.405  1.6329  1.1599 -0.6461
  854MOL0     H15264   9.715   2.229   9.705 -0.8294 -1.6321  1.1496
  854MOL0     H15265   9.672   2.103   9.599 -0.1112  0.4259  1.3173
  854MOL0     H15266   9.938   2.219   9.661  2.6091  0.4327 -2.4537
  854MOL0     H15267   9.932   2.131   9.508  1.3056  3.7882  0.7664
  854MOL0     H15268  10.019   2.006   9.726  1.0071  1.3864 -1.9052
  854MOL0     H15269   9.847   2.005   9.775 -0.7831  2.9747 -1.0306
  854MOL0     H15270   8.897   2.533   9.652 -0.4771 -0.7030  2.5408
  854MOL0     H15271   8.678   2.446   9.708  1.7723 -0.9216  2.6757
  854MOL0     H15272   8.443   2.235  10.039 -2.1123  1.0629  1.6649
  854MOL0     H15273   8.209   2.249  10.092 -0.9497 -1.0790  0.7408
  854MOL0     H15274   6.628   1.694   9.809  0.1941  0.6430  1.6456
  854MOL0     H15275   6.457   1.636   9.643  0.1621 -4.1027 -0.7919
  854MOL0     H15276   6.147   1.389   9.495 -2.4709 -0.6033  2.9050
  854MOL0     H15277   6.066   1.331   9.293 -1.6197 -1.5020  0.7835
  854MOL0     H15278   5.830   1.355   9.016  1.0077  0.5392 -1.8006
  854MOL0     H15279   5.949   1.299   9.124  3.9387  1.1473  0.2783
  854MOL0     H15280   6.008   1.487   8.895 -0.1193  0.6328  0.9422
  854MOL0     H15281   6.038   1.302   8.898  1.2287  0.2715 -0.4186
  854MOL0     H15282   6.209   1.372   9.106  1.0554  1.0284 -0.3773
  854MOL0     H15283   6.161   1.535   9.063  0.9147  1.9528 -3.4512
  854MOL0     H15284   6.372   1.455   8.973 -0.6413 -1.5913  2.6242
  854MOL0     H15285   6.287   1.342   8.870  0.0289  0.7530  0.1076
  854MOL0     H15286   6.271   1.645   8.605 -2.2605  2.9345 -0.2007
  854MOL0     H15287   5.852   1.697   9.255  2.4043 -1.6309 -6.2619
  854MOL0     H15288   5.858   1.872   9.460 -0.1245  2.4662  2.2101
  854MOL0     H15289   5.904   1.781   9.605 -1.2166  0.0252 -0.3678
  854MOL0     H15290   6.027   1.878   9.499  0.7935 -1.7884 -2.0483
  855MOL0     O15291   1.547   7.778   6.976 -0.7881 -0.6481 -0.1380
  855MOL0     C15292   1.503   7.666   6.960  0.4544  0.0858  0.3461
  855MOL0     O15293   1.554   7.572   6.877  0.4391 -0.2393 -0.9106
  855MOL0     C15294   1.638   7.621   6.779 -0.3794 -1.4331  0.1317
  855MOL0     C15295   1.596   7.703   6.672 -1.1742  0.1738 -0.6620
  855MOL0     C15296   1.687   7.752   6.578 -0.2042  0.5584  1.0054
  855MOL0     C15297   1.817   7.714   6.574  0.4392  0.5949 -0.4515
  855MOL0     O15298   1.902   7.758   6.480 -0.5299 -0.8019  0.4537
  855MOL0     C15299   2.044   7.743   6.494  0.0699 -0.0476 -0.4519
  855MOL0     C15300   2.081   7.613   6.427  1.2072 -0.3560  0.6443
  855MOL0     C15301   2.226   7.582   6.447  0.8467 -0.7718  0.4629
  855MOL0     C15302   2.321   7.642   6.344  0.3729  0.1230  0.6359
  855MOL0     C15303   2.474   7.608   6.372  0.3373 -0.7583  0.2430
  855MOL0     C15304   2.521   7.464   6.377 -0.3563 -0.0173 -0.3376
  855MOL0     C15305   2.666   7.459   6.401 -0.8937  1.1345 -1.1372
  855MOL0     C15306   2.757   7.507   6.279  0.2083  0.2814 -0.0075
  855MOL0     N15307   2.894   7.469   6.308 -0.6700  0.2212 -0.0666
  855MOL0     C15308   2.984   7.572   6.300 -0.0192 -0.4728 -0.8560
  855MOL0     C15309   3.102   7.524   6.332  0.7972 -0.3722  0.2959
  855MOL0     C15310   3.229   7.604   6.370 -0.0784  0.3281  0.3186
  855MOL0     C15311   3.333   7.596   6.244 -0.0296 -0.6385  0.8393
  855MOL0     C15312   3.439   7.487   6.281  0.5543 -0.0011  0.3278
  855MOL0     C15313   3.500   7.452   6.142  1.2232  0.0917 -0.2666
  855MOL0     O15314   3.570   7.568   6.088  0.4196  0.6023 -0.2126
  855MOL0     C15315   3.688   7.607   6.136 -0.1059  0.9764 -0.1279
  855MOL0     C15316   3.721   7.727   6.072  0.3157  0.2722 -0.6302
  855MOL0     C15317   3.846   7.771   6.104  0.0024 -0.4631  0.7169
  855MOL0     C15318   3.935   7.724   6.195 -1.2586 -0.4152 -0.1594
  855MOL0     C15319   4.063   7.792   6.217 -0.5252  0.0285  0.1685
  855MOL0     O15320   4.088   7.919   6.164  0.1855  0.9591  0.3819
  855MOL0     C15321   4.211   7.964   6.117  0.3777  0.4894 -0.1398
  855MOL0     C15322   4.209   8.082   6.049  0.4503  0.2634 -0.7120
  855MOL0     C15323   4.325   8.140   5.998 -0.4155  0.2175  1.6245
  855MOL0     C15324   4.454   8.070   6.007  0.8056  0.4716  0.5504
  855MOL0     O15325   4.558   8.139   5.946 -0.0887 -0.6573 -0.1830
  855MOL0     C15326   4.685   8.130   6.014  0.4180  0.2840 -0.4300
  855MOL0     C15327   4.771   8.229   5.932 -0.4786 -0.9569 -0.3198
  855MOL0     C15328   4.809   8.146   5.805 -0.1989 -0.4901  0.1270
  855MOL0     C15329   4.953   8.099   5.805 -0.1705  0.7299 -0.5858
  855MOL0     C15330   4.980   8.002   5.694  0.2621 -0.4659  1.2608
  855MOL0     C15331   5.131   7.962   5.677 -0.4374  0.0298 -0.4778
  855MOL0     C15332   5.141   7.856   5.572 -0.3219 -0.3334 -0.0816
  855MOL0     C15333   5.266   7.770   5.567 -0.8025 -0.5125  1.0307
  855MOL0    Cl15334   5.409   7.871   5.544  0.3257  0.2747 -0.0530
  855MOL0     C15335   4.458   7.955   6.093  0.3506  0.1651 -0.0125
  855MOL0     C15336   4.340   7.902   6.132 -1.2876 -0.8510 -0.8115
  855MOL0     O15337   4.144   7.724   6.279  0.1217  0.1438  0.0295
  855MOL0     C15338   3.899   7.600   6.257 -0.5920 -0.0639 -0.1182
  855MOL0     C15339   3.772   7.547   6.225 -0.4806 -0.6255 -0.3320
  855MOL0     N15340   3.079   7.387   6.374 -0.0502 -0.1022 -0.1188
  855MOL0     N15341   2.955   7.359   6.358  0.5568 -1.0230 -0.2500
  855MOL0     C15342   1.862   7.617   6.671 -0.3499 -0.4025  0.6189
  855MOL0     C15343   1.777   7.577   6.777  0.7997 -0.9600  0.1782
  855MOL0     C15344   1.381   7.614   7.037 -0.5030 -0.6378 -0.1038
  855MOL0     C15345   1.380   7.588   7.177 -0.5100  0.3396  0.8255
  855MOL0     C15346   1.269   7.533   7.244  0.8405  0.3369 -0.1178
  855MOL0     C15347   1.154   7.532   7.175  0.6672 -0.8301  0.5079
  855MOL0     O15348   1.050   7.470   7.221  0.3527  0.7554 -1.0436
  855MOL0     C15349   1.012   7.472   7.354  0.9079  0.5013  0.0611
  855MOL0     C15350   0.856   7.475   7.350 -0.4552  0.2525  0.1862
  855MOL0     C15351   0.801   7.484   7.494 -0.0610 -0.6531  0.4162
  855MOL0     C15352   0.644   7.488   7.489 -0.4129  1.2265  0.2952
  855MOL0     C15353   0.591   7.622   7.461 -0.4285  0.4471 -0.0447
  855MOL0     C15354   0.536   7.731   7.460  0.5503  0.5313 -0.0278
  855MOL0     C15355   1.147   7.570   7.041 -0.0459 -0.4137  0.4438
  855MOL0     C15356   1.256   7.618   6.970  0.1296  0.6393 -0.1487
  855MOL0     C15357   1.233   7.661   6.830 -0.6859 -0.1414 -0.1244
  855MOL0     H15358   1.493   7.736   6.662 -0.8613  2.2468  1.9658
  855MOL0     H15359   1.656   7.814   6.494 -0.8679 -0.1793  0.7006
  855MOL0     H15360   2.095   7.825   6.443 -2.7243  1.8865 -0.3738
  855MOL0     H15361   2.082   7.744   6.597 -3.0460  3.3742  0.9018
  855MOL0     H15362   2.051   7.613   6.322 -2.5959 -0.4319  1.5666
  855MOL0     H15363   2.027   7.533   6.479  1.9297  0.2720  2.4488
  855MOL0     H15364   2.235   7.473   6.443 -0.2807 -0.8700  0.5098
  855MOL0     H15365   2.263   7.623   6.541  1.4771 -0.8037  0.2377
  855MOL0     H15366   2.286   7.616   6.243  0.0899  1.8024  0.2795
  855MOL0     H15367   2.303   7.749   6.355 -1.0211 -0.2811  3.2103
  855MOL0     H15368   2.528   7.666   6.296  0.4937 -1.2692 -0.0351
  855MOL0     H15369   2.508   7.639   6.472  2.2550 -1.8417 -0.0364
  855MOL0     H15370   2.473   7.414   6.461  2.5700 -0.0603  1.4172
  855MOL0     H15371   2.507   7.411   6.282  1.1953 -0.9391 -0.0741
  855MOL0     H15372   2.686   7.354   6.422 -4.3382  0.4918 -0.5096
  855MOL0     H15373   2.684   7.517   6.492 -1.5648 -0.9896  0.4428
  855MOL0     H15374   2.726   7.451   6.191 -0.8812  0.8524 -0.0037
  855MOL0     H15375   2.734   7.613   6.266  2.0816  0.7964  0.4976
  855MOL0     H15376   2.956   7.677   6.298 -1.8750 -0.9096  0.1234
  855MOL0     H15377   3.205   7.705   6.404  0.4897  0.0513  1.5899
  855MOL0     H15378   3.269   7.552   6.457 -1.3239  0.1059  0.7831
  855MOL0     H15379   3.278   7.587   6.149 -0.2758 -0.4221  0.9565
  855MOL0     H15380   3.389   7.689   6.228  0.5914 -1.4813 -2.5871
  855MOL0     H15381   3.386   7.404   6.328 -1.0144  1.6370  1.5944
  855MOL0     H15382   3.511   7.525   6.355  0.9936  0.2742 -0.2266
  855MOL0     H15383   3.424   7.415   6.074  1.0472 -0.2938  0.1372
  855MOL0     H15384   3.574   7.372   6.151  0.6049 -0.5663 -0.9235
  855MOL0     H15385   3.652   7.775   6.004 -1.6216  1.9726  2.3004
  855MOL0     H15386   3.879   7.859   6.050  2.9121 -0.5490  2.1669
  855MOL0     H15387   4.106   8.113   6.032 -0.5630 -3.6338 -2.8177
  855MOL0     H15388   4.325   8.237   5.951  0.4756  0.1185  1.4044
  855MOL0     H15389   4.660   8.173   6.111 -1.3384  0.7475 -1.0395
  855MOL0     H15390   4.742   8.037   6.022 -0.6408 -0.2222  2.5616
  855MOL0     H15391   4.732   8.327   5.901  1.5234  0.1372  0.4917
  855MOL0     H15392   4.860   8.264   5.985 -1.9214 -0.2358  1.7462
  855MOL0     H15393   4.750   8.055   5.793  0.0068 -0.3151 -3.1021
  855MOL0     H15394   4.792   8.204   5.714 -0.2069  1.3687  1.2590
  855MOL0     H15395   4.973   8.047   5.899  1.8988  0.4926 -1.0999
  855MOL0     H15396   5.011   8.191   5.799 -0.1454  0.7497 -0.0411
  855MOL0     H15397   4.952   8.053   5.601 -0.7672 -4.5942 -0.9517
  855MOL0     H15398   4.917   7.913   5.695  2.7897 -2.3727  0.2890
  855MOL0     H15399   5.187   8.049   5.639  0.6552 -1.1486 -1.6978
  855MOL0     H15400   5.169   7.925   5.772 -2.1200 -1.3297 -0.2901
  855MOL0     H15401   5.123   7.918   5.483 -0.2348 -0.9159 -0.5164
  855MOL0     H15402   5.057   7.786   5.574  2.5442 -4.2983 -2.8888
  855MOL0     H15403   5.282   7.696   5.645  1.5010 -4.6922 -2.9174
  855MOL0     H15404   5.253   7.711   5.476 -0.4268  1.1594 -0.1560
  855MOL0     H15405   4.547   7.897   6.112 -0.3040 -1.1658 -0.8435
  855MOL0     H15406   4.350   7.799   6.166  1.1084 -0.2993  0.4288
  855MOL0     H15407   3.953   7.536   6.326 -0.5692 -0.5903 -0.6157
  855MOL0     H15408   3.738   7.457   6.275  0.3597 -1.6135 -1.4713
  855MOL0     H15409   1.964   7.582   6.683 -0.3744 -0.3522  0.9932
  855MOL0     H15410   1.805   7.506   6.854  0.8495  1.4872  2.5499
  855MOL0     H15411   1.471   7.607   7.232 -1.2001  1.3304  1.6699
  855MOL0     H15412   1.266   7.499   7.347 -3.5722  1.3744  0.3093
  855MOL0     H15413   1.055   7.549   7.419 -0.9834  0.6728  1.1770
  855MOL0     H15414   1.036   7.376   7.400 -1.4023  0.7804  2.0315
  855MOL0     H15415   0.819   7.385   7.299 -0.1862 -0.8826  1.8861
  855MOL0     H15416   0.820   7.565   7.301  2.8075  0.4596 -2.1488
  855MOL0     H15417   0.846   7.575   7.535  1.1192 -0.5525 -1.0182
  855MOL0     H15418   0.833   7.391   7.542  2.3187 -1.6633 -2.7468
  855MOL0     H15419   0.607   7.428   7.406 -1.3534 -2.0540  2.8600
  855MOL0     H15420   0.610   7.441   7.582 -0.3308  0.5971  0.0106
  855MOL0     H15421   0.489   7.827   7.468 -2.5118 -0.9965  2.0345
  855MOL0     H15422   1.050   7.563   6.993 -0.7738 -0.7946  1.9175
  855MOL0     H15423   1.299   7.745   6.811 -0.3441 -0.1992  0.7742
  855MOL0     H15424   1.254   7.572   6.769 -1.7655 -1.4888  1.3538
  855MOL0     H15425   1.132   7.691   6.798 -1.0411 -0.0404  1.0493
  856MOL0     O15426   0.939   4.909   9.961  0.5829 -0.3963 -0.3975
  856MOL0     C15427   0.891   4.984  10.046  0.6291  0.4107 -0.1503
  856MOL0     O15428   0.938   5.008  10.180  0.8753 -0.2102  0.3723
  856MOL0     C15429   1.066   4.971  10.194 -0.1845  0.2662 -0.9594
  856MOL0     C15430   1.165   5.059  10.159 -0.2780 -0.3926  0.4374
  856MOL0     C15431   1.304   5.028  10.177  1.3386 -0.2280 -0.2605
  856MOL0     C15432   1.338   4.911  10.240  0.1327  0.0148 -0.7029
  856MOL0     O15433   1.476   4.891  10.272  0.1013 -0.1430 -0.0764
  856MOL0     C15434   1.505   4.798  10.382  0.3182 -0.2425  0.2093
  856MOL0     C15435   1.660   4.787  10.383  0.1285 -0.5988  0.0100
  856MOL0     C15436   1.701   4.740  10.522 -0.0808 -0.0472  0.4440
  856MOL0     C15437   1.663   4.584  10.535 -0.3381  0.1875 -0.2733
  856MOL0     C15438   1.721   4.524  10.666  0.3072  0.2251 -0.2000
  856MOL0     C15439   1.869   4.496  10.635 -0.0207 -0.0111 -0.3963
  856MOL0     C15440   1.921   4.419  10.762  0.5128  0.5504  0.3487
  856MOL0     C15441   2.045   4.335  10.726 -0.3667 -0.1048 -0.0243
  856MOL0     N15442   2.149   4.425  10.677  0.0818 -0.0336 -0.6740
  856MOL0     C15443   2.175   4.457  10.547  0.5692 -0.4742  0.4714
  856MOL0     C15444   2.289   4.528  10.551 -0.0859 -0.0402 -0.5615
  856MOL0     C15445   2.365   4.598  10.432  0.2000 -0.2774  1.0120
  856MOL0     C15446   2.307   4.742  10.413  0.2301 -0.0460  0.9122
  856MOL0     C15447   2.361   4.802  10.280  0.3116  0.1389 -0.2029
  856MOL0     C15448   2.497   4.859  10.297 -0.2053  0.4475 -0.3395
  856MOL0     O15449   2.593   4.751  10.286  0.1821  0.4781  0.2538
  856MOL0     C15450   2.723   4.766  10.242 -0.3979 -0.4049 -0.0629
  856MOL0     C15451   2.783   4.898  10.238  0.9948 -0.4899 -0.3949
  856MOL0     C15452   2.912   4.907  10.201 -0.6416  0.5259  0.2002
  856MOL0     C15453   2.992   4.797  10.174  0.5083  0.7961 -0.3888
  856MOL0     C15454   3.137   4.806  10.146  0.7807 -0.0773 -0.3359
  856MOL0     O15455   3.176   4.918  10.082 -0.1372 -0.1404  0.0538
  856MOL0     C15456   3.308   4.931  10.055  0.1472 -0.3204 -0.0579
  856MOL0     C15457   3.385   4.988  10.163 -0.0828 -0.3435  1.5486
  856MOL0     C15458   3.517   5.029  10.127  0.4803  0.1871  0.7037
  856MOL0     C15459   3.572   5.006   9.998 -0.4026  1.0101 -0.7279
  856MOL0     O15460   3.707   5.028   9.961  0.9740  0.9943 -0.7655
  856MOL0     C15461   3.792   5.097  10.053  0.0465  0.2354  0.4105
  856MOL0     C15462   3.918   5.149   9.985 -0.3100  0.3816 -0.3961
  856MOL0     C15463   3.985   5.242  10.082 -0.4070 -0.4649  0.1617
  856MOL0     C15464   4.059   5.200  10.210  1.1425  0.0471 -0.3231
  856MOL0     C15465   4.153   5.313  10.259  0.1698 -0.2105 -0.1127
  856MOL0     C15466   4.083   5.429  10.313 -0.2977 -0.7080 -0.4046
  856MOL0     C15467   4.008   5.413  10.443 -0.1204  0.5875 -0.9503
  856MOL0     C15468   3.940   5.542  10.506 -0.0020 -0.4605  0.8862
  856MOL0    Cl15469   3.858   5.510  10.663 -0.1882  0.2379 -0.1133
  856MOL0     C15470   3.498   4.937   9.903 -0.2737  0.0003 -1.1961
  856MOL0     C15471   3.367   4.896   9.930 -0.2840  0.2582 -0.6158
  856MOL0     O15472   3.205   4.712  10.169 -0.1953  0.0460  0.0483
  856MOL0     C15473   2.935   4.670  10.175  0.1435  0.6193  0.1053
  856MOL0     C15474   2.804   4.656  10.217  0.4893 -0.3689  0.4212
  856MOL0     N15475   2.336   4.522  10.679  0.1611 -0.4301  0.5464
  856MOL0     N15476   2.247   4.475  10.754  0.3403  0.5323  0.4948
  856MOL0     C15477   1.230   4.822  10.280 -0.0379 -0.8670  0.0741
  856MOL0     C15478   1.095   4.850  10.255  0.2951 -0.3921 -0.0541
  856MOL0     C15479   0.759   5.056  10.011 -0.6893  0.5323 -0.2072
  856MOL0     C15480   0.727   5.175  10.078 -0.5157  0.9498 -0.5947
  856MOL0     C15481   0.615   5.245  10.065  0.7345 -0.3408  0.5248
  856MOL0     C15482   0.512   5.203   9.972 -0.2893  0.0278 -1.0099
  856MOL0     O15483   0.390   5.269   9.949 -0.7846  1.0733  0.0207
  856MOL0     C15484   0.377   5.403   9.982  0.6602  0.0671 -0.2901
  856MOL0     C15485   0.262   5.463   9.887  0.1536  0.0511  0.2511
  856MOL0     C15486   0.137   5.386   9.930 -0.6114  1.0460  0.3330
  856MOL0     C15487   0.021   5.456   9.865 -0.6365 -0.3544 -0.1127
  856MOL0     C15488  -0.105   5.386   9.890 -0.2566 -0.0706 -0.3565
  856MOL0     C15489  -0.224   5.362   9.887 -0.1508  0.5957  0.1974
  856MOL0     C15490   0.535   5.084   9.904 -1.4271  0.3449  0.7139
  856MOL0     C15491   0.659   5.010   9.919  0.6976 -0.3064  0.1260
  856MOL0     C15492   0.688   4.897   9.817 -0.3351  1.0111  0.2694
  856MOL0     H15493   1.146   5.155  10.112 -0.2613 -0.7648 -0.3511
  856MOL0     H15494   1.381   5.100  10.149  0.1261  1.1681 -0.1349
  856MOL0     H15495   1.473   4.839  10.478  3.8162 -1.7154  2.2066
  856MOL0     H15496   1.457   4.701  10.362 -2.5387  0.7643  1.6179
  856MOL0     H15497   1.686   4.889  10.356 -0.4661 -0.6392 -0.7383
  856MOL0     H15498   1.699   4.725  10.302 -0.5825  0.0756 -0.8622
  856MOL0     H15499   1.648   4.797  10.598  0.2479  1.0040 -0.1041
  856MOL0     H15500   1.808   4.750  10.537  0.3967 -1.2465 -1.7340
  856MOL0     H15501   1.553   4.578  10.532 -0.6890  1.2429  4.0873
  856MOL0     H15502   1.705   4.526  10.452 -1.6797  0.8168 -1.4440
  856MOL0     H15503   1.714   4.592  10.751 -2.1697  0.6946 -0.6975
  856MOL0     H15504   1.675   4.429  10.695  2.0589 -0.2093  1.3859
  856MOL0     H15505   1.876   4.431  10.546  1.1237 -1.4016  0.6554
  856MOL0     H15506   1.933   4.581  10.609  1.1741 -1.3867 -2.2632
  856MOL0     H15507   1.846   4.350  10.803 -0.9745  1.4126 -0.8373
  856MOL0     H15508   1.948   4.482  10.848  1.8205 -1.1323  1.2504
  856MOL0     H15509   2.076   4.288  10.820 -0.5405  1.1778  0.7044
  856MOL0     H15510   2.020   4.250  10.662 -1.1857  0.5317 -0.5750
  856MOL0     H15511   2.116   4.432  10.459  0.7414  0.6173  0.0312
  856MOL0     H15512   2.470   4.605  10.461 -0.0317  0.3319  1.7465
  856MOL0     H15513   2.345   4.536  10.345 -2.2042  0.1784  1.1603
  856MOL0     H15514   2.198   4.745  10.421  0.2232  1.6947  0.5290
  856MOL0     H15515   2.342   4.805  10.495  0.7877 -0.4209  0.9714
  856MOL0     H15516   2.292   4.883  10.253 -1.1596 -0.2213  2.2305
  856MOL0     H15517   2.351   4.728  10.200  0.1080  0.7987 -0.7954
  856MOL0     H15518   2.509   4.909  10.394 -0.5918 -0.3051  0.1067
  856MOL0     H15519   2.502   4.920  10.207 -1.6750 -0.3480 -0.9918
  856MOL0     H15520   2.732   4.990  10.266  1.3606 -0.0726 -1.0843
  856MOL0     H15521   2.957   5.005  10.197  1.0266 -0.2119  0.1553
  856MOL0     H15522   3.325   5.010  10.250 -2.1848 -1.2109  0.4048
  856MOL0     H15523   3.576   5.077  10.205 -2.4309 -0.8592  3.7857
  856MOL0     H15524   3.731   5.181  10.087  0.5816  0.0936  1.8312
  856MOL0     H15525   3.800   5.035  10.143 -3.6048  1.7014  1.9396
  856MOL0     H15526   3.991   5.068   9.970 -1.0697 -0.1502 -1.3747
  856MOL0     H15527   3.898   5.205   9.893 -0.8052  3.5554  1.5217
  856MOL0     H15528   4.059   5.286  10.014 -0.4871 -0.7738 -0.1263
  856MOL0     H15529   3.912   5.315  10.118  0.9856 -1.0547  5.0239
  856MOL0     H15530   4.123   5.115  10.183  1.5464  0.3941 -0.4786
  856MOL0     H15531   3.986   5.164  10.282 -0.1769 -1.8473 -2.4829
  856MOL0     H15532   4.210   5.348  10.172  0.7156 -3.3830 -1.1531
  856MOL0     H15533   4.221   5.268  10.331 -1.5798  0.0258  1.7624
  856MOL0     H15534   4.162   5.505  10.321 -1.8425  1.3474 -3.0819
  856MOL0     H15535   4.014   5.469  10.238  1.2051  0.6305 -1.1336
  856MOL0     H15536   4.087   5.393  10.517 -0.3692  0.8028 -0.6207
  856MOL0     H15537   3.941   5.327  10.438  2.7791 -2.0982  1.7351
  856MOL0     H15538   4.025   5.608  10.525  0.6387 -1.7171  2.7224
  856MOL0     H15539   3.879   5.600  10.436 -1.1132 -2.1056  0.4474
  856MOL0     H15540   3.543   4.912   9.807  2.2650  3.1547 -0.9701
  856MOL0     H15541   3.326   4.829   9.855  0.0632 -0.7692  0.0803
  856MOL0     H15542   3.000   4.586  10.151  0.3234  0.8414 -0.1889
  856MOL0     H15543   2.756   4.559  10.214  0.0659 -0.1902  1.2424
  856MOL0     H15544   1.246   4.723  10.320  0.7512 -0.5892  0.4740
  856MOL0     H15545   1.026   4.779  10.301 -0.7670  2.4075  3.1590
  856MOL0     H15546   0.803   5.198  10.152  0.2572  0.0903 -1.1091
  856MOL0     H15547   0.609   5.342  10.114 -0.1368  0.4656 -1.0938
  856MOL0     H15548   0.471   5.458   9.972  1.5185  0.3085  5.4652
  856MOL0     H15549   0.348   5.424  10.085  0.3305  0.1646 -0.4014
  856MOL0     H15550   0.279   5.434   9.783 -0.3526  0.1235  0.1446
  856MOL0     H15551   0.251   5.571   9.904 -2.0154  0.3118 -2.1418
  856MOL0     H15552   0.131   5.396  10.039 -0.1565  0.3419  0.4259
  856MOL0     H15553   0.153   5.282   9.899  1.6422  1.9501 -1.8880
  856MOL0     H15554   0.011   5.559   9.903  5.0164  0.4506  0.0083
  856MOL0     H15555   0.044   5.469   9.759  1.2656  1.7717  0.4878
  856MOL0     H15556  -0.329   5.340   9.897  0.3096 -0.5817  3.7330
  856MOL0     H15557   0.473   5.046   9.823  1.8682 -1.8933 -1.0316
  856MOL0     H15558   0.707   4.801   9.867  1.8439  1.4158  0.2872
  856MOL0     H15559   0.603   4.884   9.749  1.6494 -2.5517 -1.8316
  856MOL0     H15560   0.770   4.931   9.754 -0.8583  0.3051 -0.8289
  857MOL0     O15561   8.771   0.260   9.616  0.0924  0.3340  0.2498
  857MOL0     C15562   8.771   0.366   9.560 -0.3639  0.3550  0.1801
  857MOL0     O15563   8.868   0.418   9.488  0.2588  0.1233 -0.5505
  857MOL0     C15564   8.985   0.353   9.456 -0.2829  0.2131 -0.4352
  857MOL0     C15565   8.989   0.208   9.444  0.4499 -0.9706 -0.4195
  857MOL0     C15566   9.102   0.146   9.395  0.9761  0.1420  1.2410
  857MOL0     C15567   9.210   0.211   9.364 -0.6652 -0.5990  0.1711
  857MOL0     O15568   9.313   0.130   9.325 -0.3700 -0.5501 -0.2652
  857MOL0     C15569   9.447   0.164   9.345 -0.3028  0.1361 -0.0622
  857MOL0     C15570   9.549   0.049   9.300  0.1625  0.3453  0.4367
  857MOL0     C15571   9.562   0.035   9.152  0.1228 -0.0029 -0.5734
  857MOL0     C15572   9.625  -0.096   9.104 -0.1924 -0.0781  0.5332
  857MOL0     C15573   9.773  -0.117   9.140  0.7736  0.4783  0.1287
  857MOL0     C15574   9.882  -0.058   9.042  0.3121  0.4212  0.2539
  857MOL0     C15575  10.028  -0.080   9.094  0.5230 -0.5620  0.2868
  857MOL0     C15576  10.123   0.016   9.016 -0.4181  0.1418 -0.2816
  857MOL0     N15577  10.267  -0.006   9.044  0.7960  0.7986 -0.2101
  857MOL0     C15578  10.334   0.098   9.103 -0.7259  0.0416  0.4944
  857MOL0     C15579  10.457   0.043   9.128 -0.2829 -0.5473 -0.1661
  857MOL0     C15580  10.563   0.135   9.179  0.5041 -0.5624 -0.0552
  857MOL0     C15581  10.692   0.181   9.102 -0.3113  1.1652  0.6219
  857MOL0     C15582  10.779   0.062   9.069  0.6612 -0.0195 -0.5513
  857MOL0     C15583  10.925   0.098   9.034 -0.0131 -0.7597  0.4102
  857MOL0     O15584  10.988   0.148   9.147 -0.2989  0.1974  0.5393
  857MOL0     C15585  11.123   0.138   9.135 -0.4024 -0.2220 -0.3831
  857MOL0     C15586  11.191   0.021   9.146 -0.0850 -0.4339  0.3937
  857MOL0     C15587  11.326   0.016   9.126  0.7081  0.9551  0.1652
  857MOL0     C15588  11.401   0.135   9.122  0.0224 -1.0871 -1.0149
  857MOL0     C15589  11.546   0.136   9.118  0.4526  0.7460  0.3859
  857MOL0     O15590  11.606   0.026   9.169 -0.5253  0.4157 -0.0323
  857MOL0     C15591  11.741   0.022   9.164  1.2413 -0.4960  1.3948
  857MOL0     C15592  11.826   0.022   9.265 -0.6728  0.7481  0.2979
  857MOL0     C15593  11.961   0.001   9.255 -0.3960  0.3891 -0.9403
  857MOL0     C15594  12.025  -0.015   9.133 -0.2475  0.4809 -0.4078
  857MOL0     O15595  12.158  -0.068   9.127 -0.3088  0.8209 -0.5138
  857MOL0     C15596  12.184  -0.156   9.010 -0.1572  0.5769 -0.2926
  857MOL0     C15597  12.333  -0.183   8.989 -0.7416 -0.1213 -0.3226
  857MOL0     C15598  12.419  -0.065   8.949 -0.2544  0.6879 -0.5712
  857MOL0     C15599  12.550  -0.114   8.884  0.2798 -1.2856  0.4714
  857MOL0     C15600  12.637   0.011   8.842  0.2857  0.2509 -0.9158
  857MOL0     C15601  12.748  -0.013   8.746  0.4950 -0.8543  0.0812
  857MOL0     C15602  12.856  -0.105   8.797  0.4422  1.0795  0.0576
  857MOL0     C15603  12.957  -0.134   8.676 -0.1417  0.0843 -0.6755
  857MOL0    Cl15604  13.107  -0.202   8.749  0.2154 -0.1291  0.5082
  857MOL0     C15605  11.945   0.005   9.021  0.1219 -0.1808  0.0245
  857MOL0     C15606  11.801   0.025   9.029 -0.2098  0.3844  0.4383
  857MOL0     O15607  11.602   0.233   9.067  0.0493 -0.0987 -0.6787
  857MOL0     C15608  11.324   0.256   9.102  0.0815 -0.4230 -0.7499
  857MOL0     C15609  11.189   0.254   9.103  0.9369 -0.3969  0.2590
  857MOL0     N15610  10.466  -0.086   9.084  0.2462 -0.3712 -0.4420
  857MOL0     N15611  10.346  -0.114   9.044  0.2366  0.5050  0.5424
  857MOL0     C15612   9.221   0.345   9.387  0.4680 -0.7750  0.1258
  857MOL0     C15613   9.106   0.415   9.421 -0.9327 -0.2558  0.0592
  857MOL0     C15614   8.641   0.435   9.563  0.1523 -0.1832 -0.3899
  857MOL0     C15615   8.556   0.419   9.675 -0.3529 -0.0467  0.5856
  857MOL0     C15616   8.434   0.488   9.684  0.3552  0.1181  0.2365
  857MOL0     C15617   8.385   0.571   9.577 -0.1814  0.2529 -0.3297
  857MOL0     O15618   8.263   0.637   9.571  0.0927 -0.4599 -0.1012
  857MOL0     C15619   8.167   0.635   9.676  0.2400  1.0976  0.2773
  857MOL0     C15620   8.039   0.706   9.619 -0.3139 -0.2834 -0.4017
  857MOL0     C15621   7.929   0.700   9.734 -0.3933  0.0141  0.3505
  857MOL0     C15622   7.791   0.756   9.678 -0.7573 -0.1250  0.4119
  857MOL0     C15623   7.804   0.885   9.625 -0.3147  0.4674 -1.0300
  857MOL0     C15624   7.832   0.991   9.586 -0.1240 -0.6675 -0.0268
  857MOL0     C15625   8.466   0.581   9.471  0.2876  0.1853 -0.3711
  857MOL0     C15626   8.587   0.508   9.455  0.6061 -0.3683 -1.2316
  857MOL0     C15627   8.654   0.532   9.325 -0.3882  0.3490 -0.4789
  857MOL0     H15628   8.903   0.151   9.477  1.8762 -1.6541  2.4247
  857MOL0     H15629   9.092   0.038   9.388 -2.1067  0.2115  3.0414
  857MOL0     H15630   9.476   0.253   9.289  2.7906  0.4998  1.8580
  857MOL0     H15631   9.470   0.176   9.451  1.2016 -2.1353 -0.0566
  857MOL0     H15632   9.514  -0.048   9.336 -0.3803  1.0431  1.8312
  857MOL0     H15633   9.647   0.064   9.347  0.6422 -0.4642 -0.2600
  857MOL0     H15634   9.623   0.119   9.115  1.5931 -0.7156  0.1439
  857MOL0     H15635   9.459   0.033   9.115 -0.4606  0.2139  0.9910
  857MOL0     H15636   9.574  -0.179   9.155  0.9636 -0.6590  0.7580
  857MOL0     H15637   9.595  -0.105   8.999 -1.6141 -0.0639  0.9166
  857MOL0     H15638   9.787  -0.074   9.240  0.9113  3.4736 -1.0809
  857MOL0     H15639   9.794  -0.224   9.151 -2.3861 -0.2757 -0.2983
  857MOL0     H15640   9.868  -0.099   8.941 -2.4504 -0.9391  1.0949
  857MOL0     H15641   9.851   0.045   9.023  0.4953 -0.2188 -4.8825
  857MOL0     H15642  10.053  -0.186   9.082 -0.4746 -0.9660  1.6004
  857MOL0     H15643  10.040  -0.054   9.199  0.4992 -3.2473  1.0272
  857MOL0     H15644  10.109   0.003   8.908  1.2451 -0.1897 -0.4781
  857MOL0     H15645  10.085   0.115   9.041  0.5454  0.8903 -1.6386
  857MOL0     H15646  10.298   0.194   9.137 -3.3624 -1.2397  1.5467
  857MOL0     H15647  10.507   0.225   9.208 -3.6447 -2.1807 -2.2668
  857MOL0     H15648  10.592   0.084   9.271 -3.0035 -1.6999  0.5888
  857MOL0     H15649  10.658   0.234   9.013  0.5704  1.3774  0.4027
  857MOL0     H15650  10.747   0.257   9.159  0.3590  2.8525 -2.1206
  857MOL0     H15651  10.719   0.026   8.985 -3.6480  3.5403  0.5528
  857MOL0     H15652  10.778  -0.010   9.151  1.4239  0.3845 -0.1801
  857MOL0     H15653  10.936   0.167   8.950 -2.4361 -2.7452 -1.7429
  857MOL0     H15654  10.976   0.006   9.001 -1.0573 -1.9459  1.9728
  857MOL0     H15655  11.131  -0.068   9.164  0.7557 -0.7493  1.7670
  857MOL0     H15656  11.378  -0.078   9.140 -1.9739 -0.9692 -1.9236
  857MOL0     H15657  11.773   0.017   9.359  1.3456 -3.0018  1.4474
  857MOL0     H15658  12.017  -0.024   9.344 -0.1015 -0.7887 -1.4459
  857MOL0     H15659  12.137  -0.250   9.041  2.2762  0.1646  2.5456
  857MOL0     H15660  12.133  -0.121   8.919 -0.4927  0.6146 -0.0933
  857MOL0     H15661  12.375  -0.238   9.073 -0.3211  1.5065  0.5875
  857MOL0     H15662  12.340  -0.247   8.901  1.5297 -2.7553  1.6150
  857MOL0     H15663  12.372   0.012   8.889 -1.2773  1.5760  1.2978
  857MOL0     H15664  12.451  -0.025   9.046  0.4983 -4.4953  1.6648
  857MOL0     H15665  12.528  -0.171   8.793  0.5906  0.1486 -0.5398
  857MOL0     H15666  12.614  -0.172   8.950  4.4090 -2.1596 -3.7744
  857MOL0     H15667  12.672   0.070   8.927  0.2863  1.2584 -1.5963
  857MOL0     H15668  12.556   0.059   8.787 -1.3275 -1.3991 -0.1049
  857MOL0     H15669  12.708  -0.068   8.661  0.4923  0.1142 -0.5638
  857MOL0     H15670  12.788   0.087   8.727 -0.0428 -0.4263  1.0925
  857MOL0     H15671  12.823  -0.198   8.845  1.0881  0.3335 -0.9112
  857MOL0     H15672  12.910  -0.038   8.865  0.6344  2.2380 -1.2035
  857MOL0     H15673  12.915  -0.199   8.599 -2.3485  1.3285 -0.6269
  857MOL0     H15674  12.975  -0.032   8.639  0.8832  0.3021  0.3810
  857MOL0     H15675  11.987  -0.001   8.921 -0.9483 -3.9969 -0.3443
  857MOL0     H15676  11.738   0.020   8.941 -0.9419 -1.3907  1.0278
  857MOL0     H15677  11.376   0.350   9.089 -0.7841  0.2618  0.5863
  857MOL0     H15678  11.131   0.344   9.087  1.0509 -0.2837  0.4770
  857MOL0     H15679   9.315   0.397   9.371 -0.3572  0.1557 -1.9149
  857MOL0     H15680   9.110   0.523   9.423  0.3618 -0.2744 -0.6313
  857MOL0     H15681   8.589   0.356   9.757  1.9456  0.7059  0.3235
  857MOL0     H15682   8.375   0.486   9.775  1.0631  0.2138  0.7137
  857MOL0     H15683   8.216   0.671   9.767 -1.2240 -1.0594  2.0267
  857MOL0     H15684   8.140   0.529   9.687  0.1228  1.2602  1.7410
  857MOL0     H15685   8.013   0.657   9.525  1.3077  0.9160 -1.5328
  857MOL0     H15686   8.064   0.810   9.596  1.9514 -0.9028 -1.0212
  857MOL0     H15687   7.969   0.760   9.816 -0.0294  0.3787 -0.0973
  857MOL0     H15688   7.918   0.592   9.747  1.1924 -0.6618 -2.9593
  857MOL0     H15689   7.759   0.692   9.596  0.1876  1.5436 -1.3281
  857MOL0     H15690   7.713   0.768   9.754  0.9435  1.4407  2.0193
  857MOL0     H15691   7.852   1.087   9.543  1.7396 -1.4601 -1.0236
  857MOL0     H15692   8.425   0.631   9.384 -1.3802 -1.3299 -0.5103
  857MOL0     H15693   8.750   0.580   9.346  3.1005 -4.9703 -2.3953
  857MOL0     H15694   8.683   0.445   9.266  0.3180  0.8561 -0.9060
  857MOL0     H15695   8.594   0.595   9.258 -0.9306 -0.6576 -0.9483
  858MOL0     O15696   5.444   4.500   4.066  0.1154 -0.1981 -0.0650
  858MOL0     C15697   5.326   4.462   4.083 -0.6391  0.9158  0.1271
  858MOL0     O15698   5.279   4.430   4.213 -0.5821  0.3448  0.0263
  858MOL0     C15699   5.347   4.485   4.311 -0.2371  0.3615 -1.0412
  858MOL0     C15700   5.400   4.404   4.405 -0.2249  0.6657 -0.0820
  858MOL0     C15701   5.487   4.441   4.510 -0.7395 -0.5264  0.0883
  858MOL0     C15702   5.511   4.574   4.535  0.7581  0.7854 -0.0895
  858MOL0     O15703   5.567   4.634   4.646  0.0155  0.3586 -0.3543
  858MOL0     C15704   5.554   4.555   4.771 -0.0463  0.1227 -0.8168
  858MOL0     C15705   5.499   4.649   4.876  0.5205 -0.2283 -0.2958
  858MOL0     C15706   5.600   4.764   4.899 -0.1374  0.1322  0.0827
  858MOL0     C15707   5.690   4.719   5.013  0.4684  0.8414 -0.2415
  858MOL0     C15708   5.819   4.799   5.020  0.5582  0.0196 -0.0449
  858MOL0     C15709   5.921   4.736   5.117  0.6222  0.3629 -0.5721
  858MOL0     C15710   5.856   4.737   5.257  0.8588 -0.5200  0.4883
  858MOL0     C15711   5.862   4.863   5.334 -0.5456  0.5149 -0.3923
  858MOL0     N15712   5.998   4.908   5.364  0.2187 -0.1400 -0.2808
  858MOL0     C15713   6.077   4.993   5.285 -0.1731  0.0228 -0.0550
  858MOL0     C15714   6.184   5.014   5.355  0.1480  0.6463 -0.0412
  858MOL0     C15715   6.301   5.095   5.314  0.1472 -0.1586  0.5046
  858MOL0     C15716   6.422   5.008   5.268 -0.6774  0.3154  0.1692
  858MOL0     C15717   6.526   5.102   5.202  0.2246  0.3674 -0.7909
  858MOL0     C15718   6.611   5.013   5.111  0.2699  0.5103  0.2436
  858MOL0     O15719   6.702   4.936   5.189  0.3323  0.1023  0.1892
  858MOL0     C15720   6.821   4.993   5.224  0.6566  1.3611  0.1941
  858MOL0     C15721   6.866   5.122   5.202 -0.0076  0.1054 -0.1429
  858MOL0     C15722   6.996   5.154   5.242  0.3799  0.3549  1.1386
  858MOL0     C15723   7.082   5.065   5.309  0.4844  1.2417 -0.4677
  858MOL0     C15724   7.215   5.095   5.352  0.3149 -0.1380  0.6271
  858MOL0     O15725   7.289   5.173   5.277 -0.1130 -0.5232 -0.1643
  858MOL0     C15726   7.395   5.259   5.315  0.3213 -0.4388 -0.6958
  858MOL0     C15727   7.470   5.313   5.218 -0.0473  0.5834 -0.4502
  858MOL0     C15728   7.566   5.406   5.237 -0.1955 -0.2473  0.0285
  858MOL0     C15729   7.601   5.463   5.367  0.1497 -0.5861 -1.0619
  858MOL0     O15730   7.695   5.566   5.374 -0.1047  0.5174  0.2324
  858MOL0     C15731   7.752   5.598   5.495  0.4505 -0.4992 -0.0727
  858MOL0     C15732   7.855   5.488   5.535  0.4303  0.7301  0.3135
  858MOL0     C15733   7.943   5.521   5.661 -0.7455 -0.2836 -0.3978
  858MOL0     C15734   8.034   5.656   5.654  0.5949 -0.2794 -0.0835
  858MOL0     C15735   8.128   5.676   5.774  0.2676 -0.2696  0.8607
  858MOL0     C15736   8.046   5.701   5.898  0.1278  0.8252 -0.6868
  858MOL0     C15737   8.123   5.721   6.032 -0.0489  0.2192 -0.6783
  858MOL0     C15738   8.015   5.737   6.141 -0.4188  0.9852 -0.2459
  858MOL0    Cl15739   8.077   5.774   6.303 -0.2224 -0.0497 -0.2297
  858MOL0     C15740   7.523   5.403   5.470  0.0186  0.4393 -0.1189
  858MOL0     C15741   7.422   5.304   5.446 -0.3608 -0.1490 -0.2922
  858MOL0     O15742   7.253   5.037   5.454  0.2528 -0.1501  0.4316
  858MOL0     C15743   7.026   4.940   5.342 -0.6106  0.3017  0.2882
  858MOL0     C15744   6.899   4.902   5.295  0.3278  0.0483 -0.1277
  858MOL0     N15745   6.171   4.949   5.482 -0.2115 -0.0821 -0.5109
  858MOL0     N15746   6.067   4.882   5.479 -0.2761  0.2177 -0.1270
  858MOL0     C15747   5.455   4.664   4.446  0.1649 -0.4154  1.4191
  858MOL0     C15748   5.378   4.619   4.332  0.1026 -0.3503  0.2154
  858MOL0     C15749   5.234   4.446   3.963  0.0164 -1.0718 -0.4696
  858MOL0     C15750   5.294   4.449   3.833 -0.0957  0.2262 -0.2669
  858MOL0     C15751   5.218   4.457   3.713  0.5074 -0.1731 -0.0156
  858MOL0     C15752   5.083   4.455   3.724 -0.6894  0.0695 -0.5832
  858MOL0     O15753   5.024   4.452   3.607  0.5056 -0.1045  1.0456
  858MOL0     C15754   4.885   4.451   3.600  0.1222  1.0091 -0.5474
  858MOL0     C15755   4.839   4.458   3.461  0.1614  0.6515  0.0110
  858MOL0     C15756   4.685   4.467   3.432  0.2051 -0.0839  0.1960
  858MOL0     C15757   4.597   4.537   3.530 -0.0840 -0.2746 -0.1180
  858MOL0     C15758   4.453   4.527   3.496 -0.6269  0.2663 -0.9168
  858MOL0     C15759   4.331   4.530   3.487 -0.0736 -0.5748  0.1908
  858MOL0     C15760   5.022   4.451   3.851 -0.0369 -0.6206 -0.3897
  858MOL0     C15761   5.095   4.440   3.974  0.5912  1.3938  0.0553
  858MOL0     C15762   5.017   4.424   4.103  0.8805  0.4952 -0.1158
  858MOL0     H15763   5.398   4.298   4.381 -2.6999  0.2854  1.4235
  858MOL0     H15764   5.532   4.369   4.579  1.2818  1.9689  1.5716
  858MOL0     H15765   5.482   4.472   4.770 -0.7803  0.7165  0.3331
  858MOL0     H15766   5.648   4.518   4.812 -0.4747  0.5239  0.6080
  858MOL0     H15767   5.495   4.595   4.971  0.8553  0.5195  0.1541
  858MOL0     H15768   5.403   4.694   4.848  2.0388  2.2449 -1.8776
  858MOL0     H15769   5.565   4.864   4.928  1.4105  1.4901 -2.4120
  858MOL0     H15770   5.656   4.787   4.808 -0.6490  0.0391 -0.2579
  858MOL0     H15771   5.631   4.741   5.102 -0.0145  2.0595 -0.8321
  858MOL0     H15772   5.705   4.611   5.012  2.0550  1.0290 -0.8542
  858MOL0     H15773   5.871   4.791   4.924  2.6791 -0.7692  1.0945
  858MOL0     H15774   5.788   4.899   5.051 -0.0293 -0.5584  1.2872
  858MOL0     H15775   5.933   4.632   5.085  1.7096  0.7978 -1.6271
  858MOL0     H15776   6.023   4.774   5.113  0.4749  0.7783 -0.4664
  858MOL0     H15777   5.906   4.661   5.318 -1.1520 -0.3060  2.5537
  858MOL0     H15778   5.755   4.697   5.256  0.6541 -0.0864 -1.8064
  858MOL0     H15779   5.798   4.943   5.297 -1.5162 -0.0057  0.1377
  858MOL0     H15780   5.823   4.842   5.433  0.1591 -0.0633 -0.2246
  858MOL0     H15781   6.061   5.018   5.180  0.4586 -1.4862 -0.5430
  858MOL0     H15782   6.257   5.157   5.236 -3.0384 -3.6946 -0.8006
  858MOL0     H15783   6.332   5.174   5.383  3.1580  1.1807 -2.1611
  858MOL0     H15784   6.460   4.950   5.352  1.7881  1.2526 -0.2069
  858MOL0     H15785   6.389   4.937   5.192  2.0909  0.5302 -1.3402
  858MOL0     H15786   6.591   5.138   5.282  1.0567 -0.1481 -1.2234
  858MOL0     H15787   6.469   5.181   5.151 -1.4806 -0.3813 -0.0966
  858MOL0     H15788   6.675   5.071   5.044  0.8917 -1.3255 -0.8424
  858MOL0     H15789   6.547   4.944   5.056  2.4329  0.5250 -2.5233
  858MOL0     H15790   6.802   5.196   5.154 -1.1571  0.0105  1.1886
  858MOL0     H15791   7.039   5.253   5.232  1.8108 -0.0547  2.8004
  858MOL0     H15792   7.462   5.283   5.114  1.3132 -0.9128 -0.1632
  858MOL0     H15793   7.630   5.442   5.157  1.5081  1.3577  1.9875
  858MOL0     H15794   7.797   5.697   5.486 -0.6444  0.0789  0.5347
  858MOL0     H15795   7.669   5.617   5.564  0.7653  0.1916  0.1248
  858MOL0     H15796   7.806   5.391   5.549 -0.3826  0.7472 -2.0386
  858MOL0     H15797   7.918   5.479   5.446 -1.5963 -1.1836 -1.0343
  858MOL0     H15798   7.878   5.537   5.748  1.0015  0.4488  0.8316
  858MOL0     H15799   8.006   5.434   5.684 -3.8585 -2.7170 -0.4089
  858MOL0     H15800   7.968   5.743   5.650  2.2365  1.1987  2.3421
  858MOL0     H15801   8.102   5.637   5.570  2.1247  0.0266  1.0416
  858MOL0     H15802   8.189   5.765   5.759  1.9423 -1.6020 -0.6640
  858MOL0     H15803   8.194   5.589   5.781  2.3390  1.1257 -0.5403
  858MOL0     H15804   7.974   5.782   5.886  1.4166  2.0770 -0.2865
  858MOL0     H15805   7.987   5.610   5.912 -1.4410  1.9373  0.2411
  858MOL0     H15806   8.192   5.807   6.032 -0.0916  0.2663  0.1292
  858MOL0     H15807   8.187   5.635   6.053  1.1692  1.5796  1.6563
  858MOL0     H15808   7.944   5.815   6.111  0.5956  1.7863 -0.6093
  858MOL0     H15809   7.945   5.652   6.146 -2.5982  2.7600  1.1843
  858MOL0     H15810   7.559   5.424   5.570  0.0681  1.1610 -0.2780
  858MOL0     H15811   7.366   5.260   5.527 -0.9447 -0.9226 -1.0960
  858MOL0     H15812   7.076   4.875   5.413  0.7404  0.6842 -0.2814
  858MOL0     H15813   6.867   4.799   5.309 -0.9518 -0.1500 -3.6045
  858MOL0     H15814   5.468   4.771   4.461 -1.7536  0.2946 -1.2105
  858MOL0     H15815   5.354   4.682   4.248  2.6773  1.5417  0.7749
  858MOL0     H15816   5.402   4.443   3.822 -0.0475  1.3157 -0.5691
  858MOL0     H15817   5.261   4.443   3.615 -3.1423  1.6941 -2.0908
  858MOL0     H15818   4.832   4.538   3.641 -0.0507  0.3150  0.7580
  858MOL0     H15819   4.845   4.358   3.640  1.1566  1.6072  2.0239
  858MOL0     H15820   4.880   4.384   3.390 -3.1131  1.2938 -2.8310
  858MOL0     H15821   4.877   4.547   3.410 -0.9461  0.1481 -1.8056
  858MOL0     H15822   4.655   4.362   3.432  0.6758 -0.2246 -0.5076
  858MOL0     H15823   4.671   4.521   3.338 -0.6308  0.4602  0.6239
  858MOL0     H15824   4.611   4.483   3.624 -1.6874 -0.3238  0.1084
  858MOL0     H15825   4.630   4.639   3.556  1.9587 -0.5120 -1.5404
  858MOL0     H15826   4.224   4.524   3.481 -0.0900  0.6639 -1.3580
  858MOL0     H15827   4.913   4.447   3.853 -0.0735  0.2096  1.2168
  858MOL0     H15828   5.048   4.327   4.143 -3.2068 -1.6469 -1.5840
  858MOL0     H15829   5.049   4.508   4.166  0.9472  1.7667 -1.7973
  858MOL0     H15830   4.910   4.431   4.083  0.8799 -0.4733 -0.5059
  859MOL0     O15831   2.379   6.480   0.410 -1.0966 -0.1754  0.4436
  859MOL0     C15832   2.370   6.467   0.533  0.4170 -0.1721 -0.0849
  859MOL0     O15833   2.280   6.401   0.601 -0.3692  0.6045  0.2675
  859MOL0     C15834   2.162   6.367   0.538 -0.2509  0.3068 -0.7500
  859MOL0     C15835   2.128   6.239   0.545  0.1747  0.3583  1.1187
  859MOL0     C15836   2.008   6.193   0.488  0.1098  0.3320  0.4527
  859MOL0     C15837   1.924   6.286   0.425 -0.1808 -0.1019  0.3705
  859MOL0     O15838   1.799   6.265   0.368 -0.1776 -0.5339 -0.5414
  859MOL0     C15839   1.753   6.135   0.339 -0.7034  1.1618  0.2438
  859MOL0     C15840   1.849   6.052   0.246  0.2716  0.9857  0.3485
  859MOL0     C15841   1.776   5.995   0.124 -1.0511  0.3592  0.8534
  859MOL0     C15842   1.886   5.906   0.051 -0.1131 -0.2775  0.1506
  859MOL0     C15843   1.816   5.841  -0.074  0.4920 -0.2993  0.0675
  859MOL0     C15844   1.710   5.730  -0.027 -0.0252  0.1460 -0.1119
  859MOL0     C15845   1.664   5.652  -0.144  0.0677  0.2720 -0.4706
  859MOL0     C15846   1.621   5.726  -0.269 -0.3088  1.2309 -0.2638
  859MOL0     N15847   1.498   5.810  -0.239  0.8703 -0.3409 -0.3388
  859MOL0     C15848   1.379   5.780  -0.172  0.2910 -0.5332 -0.3935
  859MOL0     C15849   1.301   5.895  -0.157  0.1205  0.2426  0.7454
  859MOL0     C15850   1.168   5.918  -0.091 -0.0669  0.0478 -0.4360
  859MOL0     C15851   1.050   5.832  -0.148  0.2910  0.5960 -0.0384
  859MOL0     C15852   0.917   5.908  -0.155 -0.5834  0.2445 -0.2628
  859MOL0     C15853   0.822   5.839  -0.231 -0.6431  0.2495  0.3729
  859MOL0     O15854   0.746   5.753  -0.156 -0.3747  0.6256  0.7133
  859MOL0     C15855   0.611   5.762  -0.150  0.2020  0.5582 -0.1861
  859MOL0     C15856   0.541   5.727  -0.032 -0.0949 -0.7576 -0.7990
  859MOL0     C15857   0.406   5.749  -0.015 -0.7235 -0.6566 -0.5789
  859MOL0     C15858   0.325   5.806  -0.116 -0.0898  0.6701 -0.3095
  859MOL0     C15859   0.184   5.836  -0.105  0.4742  0.3084 -0.3162
  859MOL0     O15860   0.115   5.880  -0.202  0.4092  0.6421 -0.4604
  859MOL0     C15861  -0.025   5.877  -0.203  0.0834 -0.2052 -0.8046
  859MOL0     C15862  -0.114   5.879  -0.087 -1.0490 -0.7578 -0.1554
  859MOL0     C15863  -0.244   5.876  -0.110  0.5417 -0.6732  0.2825
  859MOL0     C15864  -0.302   5.895  -0.236 -0.5712 -1.1291  0.2051
  859MOL0     O15865  -0.441   5.877  -0.243  0.7647 -0.7401 -0.0305
  859MOL0     C15866  -0.502   5.888  -0.376  0.6660  0.3830 -0.1001
  859MOL0     C15867  -0.654   5.873  -0.364  0.6828 -0.1404 -0.4556
  859MOL0     C15868  -0.706   5.726  -0.330  0.8688 -0.0478 -0.1231
  859MOL0     C15869  -0.698   5.627  -0.445 -0.2251  0.1957 -0.1444
  859MOL0     C15870  -0.810   5.661  -0.545 -0.1077 -0.2389 -0.3683
  859MOL0     C15871  -0.817   5.576  -0.669 -0.0115  0.9737 -0.4986
  859MOL0     C15872  -0.893   5.642  -0.790 -0.3095  0.2331  0.4630
  859MOL0     C15873  -0.895   5.529  -0.892  0.0842  0.0155  0.2543
  859MOL0    Cl15874  -0.901   5.594  -1.058 -0.5921 -0.3341  0.0504
  859MOL0     C15875  -0.216   5.905  -0.350  0.2791  0.0510  0.1530
  859MOL0     C15876  -0.082   5.888  -0.328 -0.0630  0.2888 -0.3735
  859MOL0     O15877   0.141   5.819   0.010 -0.6069  0.6454  0.0578
  859MOL0     C15878   0.389   5.830  -0.237 -0.5235  0.1839  0.0749
  859MOL0     C15879   0.534   5.805  -0.253  0.5648  0.2499 -0.1349
  859MOL0     N15880   1.372   6.001  -0.213 -0.2641  0.4548  0.6570
  859MOL0     N15881   1.482   5.944  -0.267 -0.5765  0.0395  0.0035
  859MOL0     C15882   1.957   6.425   0.422 -0.1973  0.4566 -0.2387
  859MOL0     C15883   2.085   6.457   0.482  0.7669 -0.1460  0.0930
  859MOL0     C15884   2.483   6.522   0.610  0.8985  0.3804  0.0663
  859MOL0     C15885   2.470   6.637   0.686  0.3954 -0.2041 -0.2409
  859MOL0     C15886   2.582   6.685   0.751  0.4862 -0.3665 -0.3228
  859MOL0     C15887   2.704   6.637   0.736  0.3750  0.7398 -0.7321
  859MOL0     O15888   2.800   6.704   0.793 -0.4780  0.2173 -0.7362
  859MOL0     C15889   2.908   6.626   0.855 -0.3284  0.3442  1.1847
  859MOL0     C15890   2.984   6.716   0.951 -0.0470 -0.4211 -0.0933
  859MOL0     C15891   2.919   6.735   1.086  0.6028 -0.5067 -0.4444
  859MOL0     C15892   3.016   6.823   1.176  0.4097 -0.2894 -0.7712
  859MOL0     C15893   2.959   6.867   1.308  0.9713 -0.4273  0.2026
  859MOL0     C15894   2.925   6.905   1.419  0.1371 -0.6010  0.0717
  859MOL0     C15895   2.720   6.535   0.655  0.1562 -0.0859  0.8264
  859MOL0     C15896   2.619   6.475   0.585  0.5510 -0.0728 -0.1574
  859MOL0     C15897   2.648   6.357   0.481  0.6790 -0.0965 -0.1197
  859MOL0     H15898   2.187   6.155   0.579  1.3763  0.5081 -0.4711
  859MOL0     H15899   1.982   6.088   0.489  0.5073  0.1724  3.7483
  859MOL0     H15900   1.727   6.080   0.430  1.0449 -0.0589  0.0523
  859MOL0     H15901   1.663   6.155   0.280 -0.8431  1.3898  0.5301
  859MOL0     H15902   1.888   5.972   0.310 -0.7709  0.6355  0.5661
  859MOL0     H15903   1.929   6.116   0.206 -0.1878  0.0353 -2.3458
  859MOL0     H15904   1.742   6.078   0.061  1.6448  0.7925 -0.2104
  859MOL0     H15905   1.693   5.934   0.159 -0.3306 -1.8547 -1.0073
  859MOL0     H15906   1.970   5.971   0.023 -0.9565  0.3691 -0.9533
  859MOL0     H15907   1.923   5.822   0.111 -1.7265 -2.0561 -1.2571
  859MOL0     H15908   1.771   5.920  -0.134 -1.1824 -0.5128  1.0010
  859MOL0     H15909   1.898   5.794  -0.130 -0.1926 -0.5780 -0.7237
  859MOL0     H15910   1.770   5.666   0.037  2.6002  0.4765 -2.0933
  859MOL0     H15911   1.627   5.778   0.026  1.2023 -0.9918  3.0189
  859MOL0     H15912   1.581   5.590  -0.109  0.9533 -0.8263 -0.2479
  859MOL0     H15913   1.736   5.579  -0.181 -0.7358 -0.5565 -0.4384
  859MOL0     H15914   1.699   5.791  -0.309  1.6650  0.3956  2.0185
  859MOL0     H15915   1.599   5.654  -0.349  0.2323 -0.1283  0.7850
  859MOL0     H15916   1.358   5.678  -0.141  2.9475 -1.9805 -2.8264
  859MOL0     H15917   1.178   5.887   0.014  1.7232 -3.2658 -1.4451
  859MOL0     H15918   1.145   6.024  -0.099  0.1433  0.2991  1.6964
  859MOL0     H15919   1.077   5.775  -0.237 -2.6769  0.7584 -1.1489
  859MOL0     H15920   1.034   5.764  -0.064 -0.5928  0.6686 -0.1393
  859MOL0     H15921   0.940   5.999  -0.211  1.0146 -1.6826 -2.9650
  859MOL0     H15922   0.875   5.940  -0.059  1.6607  1.0756  0.5026
  859MOL0     H15923   0.866   5.782  -0.313 -0.9547 -1.1729  1.1618
  859MOL0     H15924   0.763   5.920  -0.274 -2.0834 -0.3232  1.2194
  859MOL0     H15925   0.601   5.690   0.051  1.0415  0.5431 -1.0007
  859MOL0     H15926   0.364   5.719   0.081  0.9876 -0.4932  0.2594
  859MOL0     H15927  -0.076   5.871   0.014  0.2733  1.3102 -0.4142
  859MOL0     H15928  -0.314   5.853  -0.030 -0.8422  0.2373 -0.6183
  859MOL0     H15929  -0.487   5.985  -0.423  2.0643 -0.2944 -1.1244
  859MOL0     H15930  -0.463   5.812  -0.445  2.1101  1.1281 -0.1405
  859MOL0     H15931  -0.683   5.937  -0.281 -0.3807 -0.8483 -0.2576
  859MOL0     H15932  -0.696   5.906  -0.459  1.7748 -0.6389 -1.1388
  859MOL0     H15933  -0.640   5.703  -0.245  1.7445  1.6427 -0.2896
  859MOL0     H15934  -0.807   5.734  -0.289  1.1786  0.1606  0.6225
  859MOL0     H15935  -0.720   5.533  -0.392 -1.7823  2.3671  3.3761
  859MOL0     H15936  -0.602   5.610  -0.496 -0.5983  0.2503 -0.8726
  859MOL0     H15937  -0.795   5.764  -0.577  0.6135 -0.6882 -1.5267
  859MOL0     H15938  -0.911   5.653  -0.504 -0.7318 -1.5534 -2.0470
  859MOL0     H15939  -0.713   5.556  -0.696  0.4774  0.5978  1.4974
  859MOL0     H15940  -0.856   5.478  -0.640  1.3243 -0.2501 -2.6333
  859MOL0     H15941  -0.836   5.725  -0.832 -0.8486  1.1777  1.5428
  859MOL0     H15942  -0.998   5.670  -0.773 -1.1025  0.5188 -3.9352
  859MOL0     H15943  -0.805   5.469  -0.878 -0.7098 -1.2790  0.0308
  859MOL0     H15944  -0.985   5.467  -0.884  0.6502 -0.7148  1.1032
  859MOL0     H15945  -0.264   5.912  -0.447  0.1650 -1.3927  0.0753
  859MOL0     H15946  -0.023   5.885  -0.419 -0.1318  0.1434 -0.4126
  859MOL0     H15947   0.340   5.871  -0.324 -0.4840 -1.4797 -0.7726
  859MOL0     H15948   0.578   5.816  -0.352 -0.9778 -2.0678 -1.1823
  859MOL0     H15949   1.900   6.497   0.365  1.8413  1.9732 -0.4811
  859MOL0     H15950   2.102   6.564   0.495 -0.5089  0.2651 -1.3949
  859MOL0     H15951   2.375   6.690   0.692 -0.0661 -1.0180 -0.3348
  859MOL0     H15952   2.554   6.768   0.815 -0.1479 -0.7161 -0.1420
  859MOL0     H15953   2.972   6.602   0.770 -0.2330 -2.7061  2.0203
  859MOL0     H15954   2.875   6.535   0.905 -0.4435 -1.1222 -1.3786
  859MOL0     H15955   2.990   6.817   0.908 -4.0968  0.8420  1.8373
  859MOL0     H15956   3.085   6.675   0.959  1.0275  1.4032 -2.7869
  859MOL0     H15957   2.891   6.640   1.133  0.1615 -1.4882 -2.5842
  859MOL0     H15958   2.827   6.793   1.074  0.0659 -1.4544 -1.0289
  859MOL0     H15959   3.114   6.775   1.188  0.8191  1.0196  2.0709
  859MOL0     H15960   3.028   6.908   1.109  0.4665  1.4332  1.3309
  859MOL0     H15961   2.896   6.944   1.515 -0.4070 -2.1616  0.5735
  859MOL0     H15962   2.812   6.478   0.647 -0.9859 -2.1756  1.7840
  859MOL0     H15963   2.737   6.301   0.508  0.7204  0.4812  1.0189
  859MOL0     H15964   2.562   6.290   0.479 -0.5382  1.4131 -1.0408
  859MOL0     H15965   2.666   6.400   0.382  1.8062  0.7310  0.4214
  860MOL0     O15966   1.762   8.655   1.206 -0.5892  0.4328  0.7019
  860MOL0     C15967   1.744   8.703   1.094 -0.0189  0.5214  0.5248
  860MOL0     O15968   1.628   8.774   1.062  0.5604 -0.1710 -0.0347
  860MOL0     C15969   1.537   8.797   1.166  0.6244 -0.0335  0.4256
  860MOL0     C15970   1.450   8.695   1.205 -0.1377 -0.3562 -0.4678
  860MOL0     C15971   1.357   8.722   1.298  0.2243  0.0152 -0.6869
  860MOL0     C15972   1.360   8.833   1.375  0.3769 -0.1489  0.1900
  860MOL0     O15973   1.270   8.861   1.475 -0.0802  0.6064  0.6820
  860MOL0     C15974   1.188   8.761   1.538 -0.6269 -0.9359  0.4231
  860MOL0     C15975   1.056   8.818   1.579  0.3335 -0.0492  0.2080
  860MOL0     C15976   0.982   8.894   1.463 -0.3009 -0.6156  0.8448
  860MOL0     C15977   0.838   8.918   1.520  0.5373  0.4394 -0.3979
  860MOL0     C15978   0.727   8.960   1.423 -0.5117  0.1879  0.0755
  860MOL0     C15979   0.588   8.904   1.441  0.4176 -0.1282 -0.5889
  860MOL0     C15980   0.514   8.998   1.555  0.1531 -0.3246 -0.0636
  860MOL0     C15981   0.512   8.931   1.693 -0.4513 -0.9758  0.7257
  860MOL0     N15982   0.444   8.799   1.698  0.4676  0.5615  0.0004
  860MOL0     C15983   0.486   8.684   1.757  0.4023  0.1127  0.0142
  860MOL0     C15984   0.388   8.597   1.747  0.1978 -0.2255 -0.8503
  860MOL0     C15985   0.398   8.457   1.808  0.1106  0.0133  0.1375
  860MOL0     C15986   0.371   8.471   1.964 -0.2015  0.1478 -0.1221
  860MOL0     C15987   0.502   8.469   2.052  0.5631  0.0853  0.5537
  860MOL0     C15988   0.570   8.332   2.055 -1.0285 -0.2873  0.3952
  860MOL0     O15989   0.500   8.230   2.113  0.4210  0.0640 -0.2016
  860MOL0     C15990   0.496   8.231   2.253 -0.2588  0.3913 -0.3015
  860MOL0     C15991   0.609   8.230   2.331 -0.4823  0.6897 -0.2278
  860MOL0     C15992   0.581   8.233   2.472 -0.5016  0.2658  0.3723
  860MOL0     C15993   0.449   8.244   2.529  0.2583 -0.6761  0.4547
  860MOL0     C15994   0.429   8.274   2.668 -0.0454  0.2848 -0.9820
  860MOL0     O15995   0.544   8.289   2.749 -0.1569  0.1262 -0.3155
  860MOL0     C15996   0.543   8.317   2.880  0.2389  0.4603  0.2426
  860MOL0     C15997   0.469   8.422   2.942  0.1632  0.5292  0.5724
  860MOL0     C15998   0.489   8.465   3.073  0.6360  0.9390 -0.6121
  860MOL0     C15999   0.584   8.406   3.149 -0.3303 -0.2229  0.8782
  860MOL0     O16000   0.609   8.465   3.268 -0.3205  0.8937  0.0930
  860MOL0     C16001   0.543   8.398   3.382  0.1804  0.5502  0.1409
  860MOL0     C16002   0.398   8.451   3.394  0.4614 -0.4695 -1.3856
  860MOL0     C16003   0.322   8.370   3.507  0.1827  0.4636 -0.4313
  860MOL0     C16004   0.166   8.388   3.504  0.3689 -0.9711  0.5650
  860MOL0     C16005   0.085   8.286   3.571  0.0744  0.0570  0.0148
  860MOL0     C16006   0.007   8.317   3.692  0.7727 -0.4122 -0.7284
  860MOL0     C16007  -0.047   8.194   3.777  0.4662  0.0812 -0.3365
  860MOL0     C16008  -0.185   8.142   3.734  0.1484 -0.2945  0.5776
  860MOL0    Cl16009  -0.174   8.102   3.564 -0.0903 -0.5291  0.0678
  860MOL0     C16010   0.660   8.302   3.099 -0.2032 -0.5401 -0.2639
  860MOL0     C16011   0.645   8.265   2.962 -0.1138 -0.0907 -0.9605
  860MOL0     O16012   0.316   8.300   2.696 -0.2820  0.4601 -0.2318
  860MOL0     C16013   0.343   8.248   2.444  0.1736  0.2278  0.8487
  860MOL0     C16014   0.368   8.248   2.302  0.5280  0.2855  0.2973
  860MOL0     N16015   0.282   8.659   1.681  0.4214 -1.6167  0.1477
  860MOL0     N16016   0.320   8.781   1.642 -0.0102 -0.2855 -0.1860
  860MOL0     C16017   1.444   8.935   1.342  0.2277 -0.7647  0.2940
  860MOL0     C16018   1.533   8.917   1.236  0.4016 -0.0869 -0.1057
  860MOL0     C16019   1.841   8.669   0.978  0.7057 -0.1321 -1.0592
  860MOL0     C16020   1.968   8.616   1.003  0.3358  0.2637 -0.4521
  860MOL0     C16021   2.064   8.590   0.910  0.2456  0.3511 -0.1488
  860MOL0     C16022   2.030   8.622   0.782 -0.2685 -0.1069 -0.2163
  860MOL0     O16023   2.130   8.604   0.686  0.1378  0.1846 -0.2011
  860MOL0     C16024   2.120   8.494   0.593  0.5138  0.6866 -0.0191
  860MOL0     C16025   2.211   8.509   0.473  0.3480 -0.0789  0.0362
  860MOL0     C16026   2.357   8.468   0.499 -0.4483  0.6530 -1.0065
  860MOL0     C16027   2.438   8.512   0.380 -0.8261  0.8456  0.7841
  860MOL0     C16028   2.574   8.468   0.402  0.7273 -0.0082  1.6699
  860MOL0     C16029   2.686   8.443   0.431  0.9849  0.6740  0.0224
  860MOL0     C16030   1.908   8.669   0.751 -0.0353  0.4926 -0.6745
  860MOL0     C16031   1.807   8.696   0.842 -0.2189 -0.1244  0.1574
  860MOL0     C16032   1.661   8.739   0.790  0.2926 -0.1733 -0.9219
  860MOL0     H16033   1.452   8.604   1.146 -0.1269 -0.8546  0.2806
  860MOL0     H16034   1.283   8.643   1.309  1.0960 -0.4941  2.7257
  860MOL0     H16035   1.160   8.677   1.475  2.0274 -0.0329 -2.1819
  860MOL0     H16036   1.232   8.718   1.629  0.6107 -4.4092 -1.6066
  860MOL0     H16037   1.068   8.878   1.670  0.9005 -1.6539  1.2203
  860MOL0     H16038   0.995   8.732   1.606  0.2486  0.4549  1.7466
  860MOL0     H16039   0.984   8.835   1.371 -2.5997  0.1627  0.2451
  860MOL0     H16040   1.026   8.988   1.428 -2.4771  0.5406  1.0774
  860MOL0     H16041   0.802   8.829   1.573 -0.2970  1.2359  0.3902
  860MOL0     H16042   0.852   8.991   1.600 -0.5873 -0.7003  0.8795
  860MOL0     H16043   0.733   9.069   1.423  1.0514  0.1690 -1.9085
  860MOL0     H16044   0.763   8.919   1.328  0.6634 -2.4486  1.5602
  860MOL0     H16045   0.532   8.911   1.347  0.0868 -0.1590 -0.3959
  860MOL0     H16046   0.598   8.798   1.465  0.6875  0.0202 -0.0318
  860MOL0     H16047   0.413   9.011   1.515  0.2567 -0.9013 -0.5406
  860MOL0     H16048   0.561   9.096   1.566 -2.0300  0.5582  2.0928
  860MOL0     H16049   0.615   8.911   1.724 -0.7579 -0.6830  1.9902
  860MOL0     H16050   0.465   9.004   1.760 -0.6209  1.9104 -2.2893
  860MOL0     H16051   0.584   8.664   1.801 -0.1606 -1.9921  0.4204
  860MOL0     H16052   0.324   8.396   1.755 -0.2086 -0.3867  1.0204
  860MOL0     H16053   0.497   8.416   1.788 -0.6971 -2.1038  0.2051
  860MOL0     H16054   0.316   8.563   1.982 -3.0857 -1.9460  2.8995
  860MOL0     H16055   0.305   8.387   1.989  0.1996 -0.1825 -0.1652
  860MOL0     H16056   0.462   8.486   2.152 -4.5161 -3.5243 -0.4742
  860MOL0     H16057   0.566   8.553   2.023 -2.0068  1.9102 -0.1633
  860MOL0     H16058   0.670   8.347   2.099  0.1557 -1.6406 -1.6710
  860MOL0     H16059   0.603   8.299   1.956  1.9070 -2.7042  1.9910
  860MOL0     H16060   0.710   8.212   2.295  0.0840  1.5462  0.8699
  860MOL0     H16061   0.666   8.214   2.536 -1.1892 -5.0163  0.1434
  860MOL0     H16062   0.405   8.467   2.867  2.9540 -0.5981 -2.8008
  860MOL0     H16063   0.451   8.560   3.108  0.2492  0.1666  1.1861
  860MOL0     H16064   0.550   8.290   3.365  5.1639  0.6751 -0.1389
  860MOL0     H16065   0.602   8.440   3.465  0.3608  3.6497 -1.4074
  860MOL0     H16066   0.412   8.559   3.411  1.6273 -0.7851 -0.1578
  860MOL0     H16067   0.341   8.443   3.302 -0.6558  1.6903 -0.9616
  860MOL0     H16068   0.340   8.263   3.491  1.5498  0.5160  0.6127
  860MOL0     H16069   0.355   8.399   3.607  0.0001  1.1493 -0.5603
  860MOL0     H16070   0.146   8.394   3.397  0.3885 -2.3287  0.4739
  860MOL0     H16071   0.128   8.483   3.545 -2.4165 -1.0392 -1.5357
  860MOL0     H16072   0.143   8.195   3.588  0.8671  0.3158 -1.2195
  860MOL0     H16073   0.011   8.250   3.499  1.5056 -1.8666 -0.6019
  860MOL0     H16074   0.063   8.368   3.771  1.4347 -2.4623  0.2160
  860MOL0     H16075  -0.077   8.385   3.674 -2.2194 -3.3930  0.6724
  860MOL0     H16076  -0.045   8.217   3.884 -0.1336  1.3687 -0.5796
  860MOL0     H16077   0.025   8.113   3.765  2.0016  1.4622 -0.9070
  860MOL0     H16078  -0.201   8.057   3.801  1.0595 -0.7113  0.2846
  860MOL0     H16079  -0.253   8.226   3.747  1.4734  0.9796 -0.3448
  860MOL0     H16080   0.739   8.267   3.165 -1.0295 -0.9697  0.5389
  860MOL0     H16081   0.711   8.192   2.916  0.6570 -1.0779  1.5821
  860MOL0     H16082   0.240   8.260   2.474  0.0654 -1.8210  1.4335
  860MOL0     H16083   0.285   8.255   2.233  0.8093 -0.9463 -0.1864
  860MOL0     H16084   1.451   9.030   1.393  0.5178  1.0425 -2.8621
  860MOL0     H16085   1.598   9.001   1.215 -0.1928  1.2308  2.9213
  860MOL0     H16086   1.989   8.597   1.108 -2.4898  0.5215  0.2326
  860MOL0     H16087   2.167   8.569   0.938 -0.8891 -1.3517  3.3274
  860MOL0     H16088   2.018   8.485   0.554 -0.0081 -1.0608  1.5872
  860MOL0     H16089   2.142   8.402   0.647  0.2982  1.8057  2.0985
  860MOL0     H16090   2.204   8.614   0.445 -2.4760  0.3943  2.1221
  860MOL0     H16091   2.170   8.444   0.394 -0.9504 -0.9320  1.3616
  860MOL0     H16092   2.364   8.361   0.519  0.1046  1.0028  0.8037
  860MOL0     H16093   2.393   8.510   0.593 -3.3078 -1.1622  1.0909
  860MOL0     H16094   2.407   8.452   0.293  1.3402 -0.0866  0.5884
  860MOL0     H16095   2.426   8.616   0.349 -1.4529  0.6492  0.3380
  860MOL0     H16096   2.781   8.406   0.464 -0.9934 -3.1213  2.1315
  860MOL0     H16097   1.886   8.699   0.649 -0.4632  1.7695 -0.2135
  860MOL0     H16098   1.587   8.673   0.837  1.0983 -1.5337 -1.5101
  860MOL0     H16099   1.643   8.846   0.809 -1.1733 -0.2972 -1.4830
  860MOL0     H16100   1.642   8.718   0.685 -0.3752  1.1351 -1.0902
  861MOL0     O16101   8.456   6.879   1.848  0.1402 -0.6756 -0.2528
  861MOL0     C16102   8.512   6.801   1.920  0.4460 -0.5419 -1.0257
  861MOL0     O16103   8.627   6.828   1.974  0.0044 -0.7283 -0.3773
  861MOL0     C16104   8.699   6.947   1.955  0.6538 -0.1326 -0.1641
  861MOL0     C16105   8.638   7.074   1.940 -0.1081  0.6617 -0.3692
  861MOL0     C16106   8.723   7.189   1.935 -0.4920 -0.3305 -0.8107
  861MOL0     C16107   8.867   7.169   1.934 -0.3001 -0.6165 -0.4977
  861MOL0     O16108   8.942   7.286   1.915 -0.4245 -0.3336  0.0817
  861MOL0     C16109   9.074   7.291   1.971 -0.8462  0.0420  0.1523
  861MOL0     C16110   9.089   7.286   2.127  0.8613  0.4827  0.9479
  861MOL0     C16111   9.234   7.299   2.164  1.0590  0.0405 -0.5562
  861MOL0     C16112   9.232   7.307   2.322 -0.3398 -0.6827 -0.3077
  861MOL0     C16113   9.360   7.297   2.401 -0.0547  0.0046 -0.0360
  861MOL0     C16114   9.455   7.412   2.360  0.1131 -0.5707 -0.1355
  861MOL0     C16115   9.575   7.416   2.453 -0.4237 -0.2402  0.0227
  861MOL0     C16116   9.659   7.288   2.442  0.0410  0.7488 -0.0504
  861MOL0     N16117   9.793   7.296   2.509 -0.2224  0.2396  0.4160
  861MOL0     C16118   9.895   7.381   2.470 -0.2112 -0.5867  0.0357
  861MOL0     C16119  10.001   7.343   2.542 -0.4556 -0.0312  0.1253
  861MOL0     C16120  10.141   7.401   2.555  0.8323  0.1241  0.5294
  861MOL0     C16121  10.202   7.435   2.414  0.5393  0.1595 -0.1509
  861MOL0     C16122  10.353   7.476   2.442  0.6144 -0.1753 -0.8464
  861MOL0     C16123  10.421   7.533   2.323  0.4516  0.2526  0.0659
  861MOL0     O16124  10.441   7.435   2.214 -0.3230  0.2266 -0.7784
  861MOL0     C16125  10.533   7.331   2.230 -0.1216 -0.9424 -0.0426
  861MOL0     C16126  10.637   7.336   2.322 -0.2753  0.3524 -0.4380
  861MOL0     C16127  10.717   7.220   2.336 -0.3987  0.4242 -0.8915
  861MOL0     C16128  10.695   7.107   2.258 -0.7142 -0.0746  0.1696
  861MOL0     C16129  10.765   6.980   2.268 -0.4485 -0.2101 -0.6637
  861MOL0     O16130  10.733   6.882   2.185 -1.3115 -0.2681  0.6280
  861MOL0     C16131  10.795   6.765   2.183 -0.3220  0.3311  0.3758
  861MOL0     C16132  10.891   6.732   2.090 -0.9044 -0.4627  0.2090
  861MOL0     C16133  10.951   6.603   2.087  0.4063  0.4330 -0.5365
  861MOL0     C16134  10.909   6.502   2.175 -0.3746 -0.4373  0.1181
  861MOL0     O16135  10.967   6.379   2.178 -0.6507  0.1746  0.2509
  861MOL0     C16136  11.099   6.363   2.114  0.8970  0.1049 -0.1158
  861MOL0     C16137  11.162   6.225   2.164 -0.7727 -0.3902 -0.9649
  861MOL0     C16138  11.250   6.252   2.293 -0.1355  0.6106 -0.6780
  861MOL0     C16139  11.328   6.129   2.335 -1.0151  0.1489 -0.0023
  861MOL0     C16140  11.461   6.161   2.400  0.1679  0.7140 -0.3502
  861MOL0     C16141  11.463   6.272   2.515  0.1099  0.1496  0.2319
  861MOL0     C16142  11.383   6.232   2.645  0.4561 -0.7448  0.0208
  861MOL0     C16143  11.418   6.329   2.753 -0.2005  0.2264  0.7114
  861MOL0    Cl16144  11.315   6.265   2.878  0.2661 -0.1824 -0.2239
  861MOL0     C16145  10.807   6.540   2.265  0.4013  0.7117  0.1051
  861MOL0     C16146  10.748   6.661   2.264  1.0409  0.5754 -0.6339
  861MOL0     O16147  10.863   6.974   2.355 -0.2420  0.4491  0.6381
  861MOL0     C16148  10.587   7.119   2.167  0.5096  0.0305  0.0865
  861MOL0     C16149  10.498   7.222   2.158 -0.2889 -0.9740  0.4495
  861MOL0     N16150   9.965   7.242   2.635  1.0281 -0.7211  0.3287
  861MOL0     N16151   9.842   7.213   2.598 -0.0716  0.0213  0.0151
  861MOL0     C16152   8.923   7.045   1.945 -0.9832  0.2401  0.5957
  861MOL0     C16153   8.842   6.934   1.962 -0.5892 -0.6251 -0.5437
  861MOL0     C16154   8.454   6.667   1.955 -0.5346 -0.3253 -0.3497
  861MOL0     C16155   8.538   6.566   2.014  0.2556  0.1769  0.5754
  861MOL0     C16156   8.501   6.431   2.044  0.5548 -0.6420  0.1623
  861MOL0     C16157   8.374   6.392   2.022 -0.1717 -0.3996  0.4109
  861MOL0     O16158   8.352   6.257   2.032 -0.3670  0.3519 -0.0593
  861MOL0     C16159   8.217   6.203   2.007 -0.2569  0.8944  0.4086
  861MOL0     C16160   8.118   6.234   2.110 -0.2930 -0.8657  0.4833
  861MOL0     C16161   7.967   6.228   2.045 -0.9993 -0.0991 -0.8538
  861MOL0     C16162   7.865   6.249   2.156  0.1483 -0.7055  0.4266
  861MOL0     C16163   7.724   6.227   2.105 -0.0877 -0.0444 -0.2048
  861MOL0     C16164   7.610   6.196   2.075  0.8524  0.3459  0.5282
  861MOL0     C16165   8.280   6.494   1.982 -0.0079  0.3184  0.8567
  861MOL0     C16166   8.318   6.623   1.952  0.3970  0.2370 -0.7818
  861MOL0     C16167   8.205   6.717   1.902  0.5454  0.2805  0.0210
  861MOL0     H16168   8.530   7.086   1.933 -0.4943 -2.4427 -1.1993
  861MOL0     H16169   8.687   7.291   1.925  1.2567  0.4234  0.1754
  861MOL0     H16170   9.129   7.216   1.915 -2.0547  0.5675 -1.8759
  861MOL0     H16171   9.113   7.389   1.941  0.5894 -0.0109  1.6969
  861MOL0     H16172   9.037   7.198   2.166 -2.8077  2.2374  0.4811
  861MOL0     H16173   9.027   7.361   2.177 -2.9810 -1.2880 -0.7122
  861MOL0     H16174   9.274   7.389   2.116  0.0073  1.7508  1.5767
  861MOL0     H16175   9.295   7.214   2.135  0.5870  0.3294 -2.5714
  861MOL0     H16176   9.184   7.400   2.353  3.0587  1.4470 -0.9811
  861MOL0     H16177   9.166   7.225   2.356 -1.1524 -0.6349 -1.7119
  861MOL0     H16178   9.337   7.304   2.508 -1.9326  1.3543 -0.4727
  861MOL0     H16179   9.402   7.200   2.376 -0.8969 -1.2297  2.9268
  861MOL0     H16180   9.476   7.411   2.253 -0.7602  0.8674 -0.3509
  861MOL0     H16181   9.400   7.506   2.377  0.8356 -0.0543 -0.5927
  861MOL0     H16182   9.528   7.424   2.551 -1.0792 -1.5910 -0.1552
  861MOL0     H16183   9.646   7.497   2.433 -1.2390  0.2148 -1.1870
  861MOL0     H16184   9.604   7.202   2.483  1.1559  0.1173  0.1550
  861MOL0     H16185   9.679   7.255   2.340 -0.6070 -2.8011  0.8431
  861MOL0     H16186   9.884   7.461   2.398 -0.8437 -0.4671  0.2557
  861MOL0     H16187  10.132   7.493   2.615  0.4290  0.7098 -0.4025
  861MOL0     H16188  10.200   7.333   2.617 -1.2305  0.6915  3.3288
  861MOL0     H16189  10.194   7.354   2.341 -0.4197  0.1970 -0.0968
  861MOL0     H16190  10.139   7.512   2.370 -1.5637 -2.0253 -1.2142
  861MOL0     H16191  10.406   7.390   2.483  0.1149 -1.9747 -3.6959
  861MOL0     H16192  10.344   7.555   2.517  0.5080  0.3308 -1.3779
  861MOL0     H16193  10.511   7.585   2.356 -0.5756  1.9410  0.3103
  861MOL0     H16194  10.358   7.610   2.278  2.9852  1.4029 -1.7717
  861MOL0     H16195  10.656   7.417   2.391 -1.8894 -0.7100  1.3343
  861MOL0     H16196  10.798   7.229   2.408  0.8059 -0.3498 -2.1024
  861MOL0     H16197  10.905   6.816   2.022 -2.3183  0.8661  1.4813
  861MOL0     H16198  11.013   6.577   2.001 -1.6277 -2.9145 -1.1954
  861MOL0     H16199  11.087   6.360   2.006  1.3551  1.9940 -0.2612
  861MOL0     H16200  11.164   6.448   2.137 -0.2696  0.8919  0.4264
  861MOL0     H16201  11.081   6.153   2.179  1.7592 -3.2829 -0.1388
  861MOL0     H16202  11.221   6.180   2.083  1.3120 -3.1530  1.8682
  861MOL0     H16203  11.321   6.331   2.268  0.2017  0.6476  0.3340
  861MOL0     H16204  11.188   6.281   2.378 -2.4582  0.9565 -2.3948
  861MOL0     H16205  11.356   6.071   2.247 -0.5549 -0.2275  0.3894
  861MOL0     H16206  11.276   6.060   2.402 -0.0551 -0.9783 -0.3790
  861MOL0     H16207  11.538   6.180   2.324  0.2813 -0.6165 -0.6041
  861MOL0     H16208  11.499   6.072   2.452 -0.2684 -0.1969 -1.5291
  861MOL0     H16209  11.564   6.300   2.546  0.4056 -3.2196  2.8336
  861MOL0     H16210  11.413   6.360   2.474 -0.6168  0.9081  2.5747
  861MOL0     H16211  11.410   6.134   2.684 -0.0812  0.3685  3.5621
  861MOL0     H16212  11.275   6.237   2.631 -0.1787 -4.2669  2.4337
  861MOL0     H16213  11.526   6.333   2.772  0.0642  0.0542 -0.6277
  861MOL0     H16214  11.372   6.423   2.721 -3.1397 -1.5399 -0.7230
  861MOL0     H16215  10.782   6.460   2.333  1.9166 -0.8290 -1.0545
  861MOL0     H16216  10.661   6.680   2.326 -0.5499 -1.0920 -2.2430
  861MOL0     H16217  10.559   7.033   2.108  0.2618 -0.6942  1.2189
  861MOL0     H16218  10.427   7.235   2.077 -0.1293  0.1533  0.4722
  861MOL0     H16219   9.031   7.036   1.935 -1.0372 -0.1324  0.3028
  861MOL0     H16220   8.884   6.834   1.961 -2.3807 -1.4269  0.0831
  861MOL0     H16221   8.645   6.578   2.027  0.3880  0.0698 -0.3554
  861MOL0     H16222   8.579   6.359   2.067  2.4528  1.0261 -0.7930
  861MOL0     H16223   8.216   6.093   2.000 -1.4081  0.9862 -3.3987
  861MOL0     H16224   8.186   6.237   1.908  1.2335  0.8875 -0.0799
  861MOL0     H16225   8.131   6.336   2.147  1.3191 -1.5345  1.8444
  861MOL0     H16226   8.119   6.165   2.195  1.2335 -2.4905 -0.7896
  861MOL0     H16227   7.956   6.127   2.004  0.8257  0.2081 -2.2459
  861MOL0     H16228   7.975   6.298   1.961 -1.5462  2.9732  1.5198
  861MOL0     H16229   7.889   6.199   2.251  0.8942  0.9447  1.1496
  861MOL0     H16230   7.862   6.351   2.195 -0.1517 -1.2220  1.8210
  861MOL0     H16231   7.511   6.169   2.046 -0.0120  1.6433  2.0929
  861MOL0     H16232   8.180   6.460   1.960 -0.8376  1.8617  2.0370
  861MOL0     H16233   8.204   6.723   1.793  1.8124  0.5804  0.0113
  861MOL0     H16234   8.108   6.673   1.929  0.1410 -1.6260 -3.8483
  861MOL0     H16235   8.220   6.818   1.941  0.8364  0.5595 -0.8007
  862MOL0     O16236   7.060   6.907   3.992  0.6243 -0.3204  0.4991
  862MOL0     C16237   7.014   6.957   3.887 -0.5128 -0.0848  0.3899
  862MOL0     O16238   7.086   7.044   3.804 -0.2549  0.0198 -0.0019
  862MOL0     C16239   7.205   7.087   3.853  0.6088 -0.4628  0.4550
  862MOL0     C16240   7.328   7.036   3.817  0.8719 -0.7214  0.4312
  862MOL0     C16241   7.447   7.090   3.865 -0.4007  0.1852 -0.0268
  862MOL0     C16242   7.441   7.193   3.954 -0.2153 -0.0765  0.1819
  862MOL0     O16243   7.555   7.245   4.008 -0.2607  0.7348  0.2924
  862MOL0     C16244   7.661   7.153   4.029 -0.6912 -0.8692 -0.2856
  862MOL0     C16245   7.776   7.222   4.102  0.8813 -0.8693 -0.4451
  862MOL0     C16246   7.827   7.349   4.025 -0.3821 -0.2455 -0.0630
  862MOL0     C16247   7.892   7.442   4.123 -0.5106 -0.4720 -0.6410
  862MOL0     C16248   7.915   7.574   4.057 -0.2719  0.6221  0.1274
  862MOL0     C16249   7.983   7.668   4.159  0.1460 -0.3582  0.5737
  862MOL0     C16250   8.136   7.671   4.148  1.0202 -0.1156 -0.1315
  862MOL0     C16251   8.212   7.759   4.252 -0.0584 -0.4355  0.4430
  862MOL0     N16252   8.351   7.727   4.270  0.8865  1.0397  1.0961
  862MOL0     C16253   8.425   7.715   4.379 -0.0141  0.5682  0.5654
  862MOL0     C16254   8.546   7.671   4.344  0.2628  0.7404 -0.2224
  862MOL0     C16255   8.655   7.640   4.455  0.1461  0.1677 -0.5314
  862MOL0     C16256   8.802   7.671   4.423 -1.2078  0.1742 -0.9925
  862MOL0     C16257   8.883   7.710   4.555  0.4804  0.3403  0.6138
  862MOL0     C16258   9.027   7.724   4.517  0.0006 -0.6932  0.3465
  862MOL0     O16259   9.103   7.776   4.630 -0.1440  0.4932  0.9938
  862MOL0     C16260   9.228   7.732   4.626  0.1629 -0.0210  0.2383
  862MOL0     C16261   9.318   7.740   4.510 -0.1986 -0.7198 -0.6397
  862MOL0     C16262   9.447   7.690   4.534  1.3224 -0.9918  1.2850
  862MOL0     C16263   9.484   7.613   4.644  0.4246  0.3312 -0.4951
  862MOL0     C16264   9.621   7.554   4.667 -0.1671  0.0241 -0.1140
  862MOL0     O16265   9.632   7.439   4.740  0.6037  0.3589  0.9162
  862MOL0     C16266   9.762   7.381   4.753  0.2579 -0.2589 -0.0240
  862MOL0     C16267   9.869   7.455   4.809  0.3512  0.5748  0.5024
  862MOL0     C16268  10.000   7.397   4.822  0.6737 -0.8469 -0.3061
  862MOL0     C16269  10.013   7.261   4.789 -0.1351 -0.0242  1.1464
  862MOL0     O16270  10.140   7.219   4.784  0.0328  0.1043  0.1393
  862MOL0     C16271  10.170   7.083   4.841 -0.3208 -0.3200  0.6349
  862MOL0     C16272  10.318   7.030   4.828  0.4405 -0.4791 -0.1732
  862MOL0     C16273  10.392   7.118   4.935  0.1122  0.7985  0.1225
  862MOL0     C16274  10.523   7.048   4.986  0.1068 -0.1100 -0.2215
  862MOL0     C16275  10.643   7.138   4.954  0.7128 -0.0524 -0.4829
  862MOL0     C16276  10.771   7.062   4.938 -0.5843  0.9602  0.3515
  862MOL0     C16277  10.821   7.006   5.074  0.5573 -0.5259  0.8190
  862MOL0     C16278  10.958   6.939   5.096  0.2988 -0.0084  0.1140
  862MOL0    Cl16279  10.953   6.776   5.002 -0.1036  0.0077 -0.6522
  862MOL0     C16280   9.902   7.179   4.753  0.7803 -0.5708  0.1140
  862MOL0     C16281   9.774   7.246   4.745 -1.4554  0.6833 -0.8160
  862MOL0     O16282   9.712   7.600   4.599  0.2527 -0.3870  0.6834
  862MOL0     C16283   9.388   7.603   4.757 -0.7630 -0.3226  1.0973
  862MOL0     C16284   9.271   7.678   4.741 -0.8450  0.4267 -0.2064
  862MOL0     N16285   8.554   7.664   4.207 -0.4670  0.6352 -0.5594
  862MOL0     N16286   8.438   7.705   4.167  0.3621 -0.0195  0.1824
  862MOL0     C16287   7.316   7.258   3.987  0.0423  0.1955  0.1254
  862MOL0     C16288   7.199   7.202   3.946  0.3558  0.2175  0.1017
  862MOL0     C16289   6.873   6.930   3.856  0.3286  0.4029  0.4812
  862MOL0     C16290   6.818   6.814   3.906  0.0943 -0.1129  0.3220
  862MOL0     C16291   6.683   6.782   3.881 -0.0496  0.3052  0.1605
  862MOL0     C16292   6.595   6.873   3.816 -0.1567  0.8001 -0.2528
  862MOL0     O16293   6.460   6.826   3.798 -0.2814  0.2232 -0.1144
  862MOL0     C16294   6.364   6.915   3.741  0.3382  0.5843  0.1722
  862MOL0     C16295   6.222   6.887   3.791  0.0206 -0.8963 -0.5377
  862MOL0     C16296   6.184   6.741   3.799  0.0421 -0.1594 -0.5714
  862MOL0     C16297   6.035   6.712   3.811  0.4570 -0.0765  0.0358
  862MOL0     C16298   6.025   6.572   3.840  0.4940 -0.5141 -0.3589
  862MOL0     C16299   6.015   6.465   3.888  0.4812  0.4239 -0.4404
  862MOL0     C16300   6.648   6.984   3.758  0.1314 -0.7767  0.0242
  862MOL0     C16301   6.783   7.014   3.779  0.2911  0.3761  0.1731
  862MOL0     C16302   6.826   7.139   3.713 -0.6200  0.2197 -0.1171
  862MOL0     H16303   7.334   6.951   3.750  2.6535  1.0467 -1.8251
  862MOL0     H16304   7.536   7.054   3.814 -0.3524  1.0780 -0.5980
  862MOL0     H16305   7.636   7.066   4.090  0.1820  1.0618  3.0387
  862MOL0     H16306   7.703   7.120   3.933  1.8209  1.7120 -0.1808
  862MOL0     H16307   7.854   7.146   4.115  2.5667  0.9196  0.4734
  862MOL0     H16308   7.738   7.246   4.202  1.0371 -1.0539 -0.3422
  862MOL0     H16309   7.748   7.402   3.971 -0.8078 -3.6457 -3.2075
  862MOL0     H16310   7.897   7.317   3.947  1.7658  0.4410  1.4926
  862MOL0     H16311   7.838   7.443   4.218 -0.4974  1.7185 -0.6052
  862MOL0     H16312   7.990   7.397   4.144 -1.3234 -1.8121  0.4641
  862MOL0     H16313   7.963   7.574   3.958 -0.3049  0.3064  0.1099
  862MOL0     H16314   7.811   7.605   4.047 -1.2239 -2.5957 -1.2509
  862MOL0     H16315   7.958   7.772   4.136 -0.6492 -1.2796 -3.3548
  862MOL0     H16316   7.961   7.635   4.261  1.0207 -2.1072  0.2282
  862MOL0     H16317   8.171   7.701   4.049  1.9448  2.1195  0.8119
  862MOL0     H16318   8.168   7.568   4.168  0.5585  0.2373  2.8679
  862MOL0     H16319   8.208   7.864   4.221 -1.3483 -0.9869 -1.4472
  862MOL0     H16320   8.157   7.761   4.347 -0.2554  0.3326  0.3188
  862MOL0     H16321   8.400   7.756   4.476 -0.5874  1.7189 -0.0458
  862MOL0     H16322   8.612   7.694   4.541 -2.5857 -0.6421 -1.2720
  862MOL0     H16323   8.643   7.534   4.479  1.0940  0.5276  1.8210
  862MOL0     H16324   8.839   7.583   4.370 -0.7857  1.8395 -3.6294
  862MOL0     H16325   8.803   7.757   4.355  0.2800  1.1705  0.2342
  862MOL0     H16326   8.883   7.627   4.626  0.8092  0.1371  0.3793
  862MOL0     H16327   8.830   7.794   4.602 -1.5026  0.1294 -1.0742
  862MOL0     H16328   9.034   7.806   4.445 -0.3562 -1.5343 -0.6672
  862MOL0     H16329   9.059   7.634   4.463 -2.4193  0.7300 -3.9323
  862MOL0     H16330   9.294   7.793   4.419 -0.1685 -1.6111 -1.1809
  862MOL0     H16331   9.515   7.684   4.450  1.6583  0.1979  1.4552
  862MOL0     H16332   9.858   7.557   4.846 -0.4802  0.6859 -0.0248
  862MOL0     H16333  10.072   7.455   4.879 -0.2659 -1.2793  1.3896
  862MOL0     H16334  10.131   7.071   4.943 -0.5194  2.6774  0.9876
  862MOL0     H16335  10.122   7.011   4.773  0.9768  0.2835 -0.9871
  862MOL0     H16336  10.323   6.927   4.863 -1.8565 -0.8861 -0.8887
  862MOL0     H16337  10.352   7.038   4.724  1.3448 -0.3129  0.1283
  862MOL0     H16338  10.418   7.219   4.902 -1.0013  0.9831 -0.2126
  862MOL0     H16339  10.330   7.121   5.025 -0.0780 -1.1537  0.1051
  862MOL0     H16340  10.530   6.944   4.954 -1.2569 -0.5110  0.7145
  862MOL0     H16341  10.527   7.033   5.094  0.9203 -2.3717 -0.5185
  862MOL0     H16342  10.652   7.209   5.037 -0.0787 -2.1451  1.4970
  862MOL0     H16343  10.618   7.192   4.862 -3.6091  0.0750  0.5509
  862MOL0     H16344  10.748   6.976   4.874 -2.1461  2.2609 -0.9414
  862MOL0     H16345  10.848   7.122   4.890  1.6444 -0.8872  1.4196
  862MOL0     H16346  10.754   6.926   5.106 -0.5659  1.2215  3.1564
  862MOL0     H16347  10.822   7.091   5.143 -0.8477  1.3084 -1.2760
  862MOL0     H16348  11.032   7.010   5.057  0.8901 -0.4924  0.3348
  862MOL0     H16349  10.977   6.918   5.202 -0.7041 -2.5277 -0.1373
  862MOL0     H16350   9.918   7.072   4.746 -2.9511 -1.1949 -0.5452
  862MOL0     H16351   9.687   7.193   4.708 -2.8265  1.4205  1.1474
  862MOL0     H16352   9.420   7.553   4.849  0.1473  0.9351  1.4887
  862MOL0     H16353   9.213   7.687   4.832 -0.0735  2.9119  0.1138
  862MOL0     H16354   7.314   7.345   4.052  5.1363  0.4092  0.4433
  862MOL0     H16355   7.111   7.258   3.975  1.8781  2.3276  0.9367
  862MOL0     H16356   6.875   6.733   3.950  1.1394 -0.5496 -1.6798
  862MOL0     H16357   6.630   6.697   3.923 -1.8201  2.6351  3.0675
  862MOL0     H16358   6.365   6.895   3.633  1.3842  0.2647  0.2300
  862MOL0     H16359   6.390   7.020   3.755  2.7857 -0.3632  4.2527
  862MOL0     H16360   6.154   6.951   3.734  1.8094  2.5352  0.8663
  862MOL0     H16361   6.216   6.922   3.894  0.1129  1.6400 -1.3248
  862MOL0     H16362   6.232   6.704   3.891 -3.0371 -0.0075  1.2234
  862MOL0     H16363   6.235   6.697   3.713 -2.2307  2.1379 -3.2675
  862MOL0     H16364   5.997   6.761   3.901  0.1198  0.9148 -0.6290
  862MOL0     H16365   5.975   6.743   3.725 -0.3358  2.8738  1.5191
  862MOL0     H16366   6.000   6.362   3.913  1.4340  0.3793 -0.0022
  862MOL0     H16367   6.587   7.059   3.709 -0.8305 -1.3173  0.3701
  862MOL0     H16368   6.890   7.192   3.784  2.1705 -2.6365 -0.3185
  862MOL0     H16369   6.884   7.121   3.622 -0.6539  2.3447 -0.6131
  862MOL0     H16370   6.745   7.206   3.682 -0.7508  0.4586  0.7240
  863MOL0     O16371   2.566  10.444   2.378  0.0571  0.1590  0.0974
  863MOL0     C16372   2.478  10.514   2.339  1.3212 -0.2851 -0.4786
  863MOL0     O16373   2.488  10.609   2.238  0.1534  0.0282 -0.4391
  863MOL0     C16374   2.606  10.624   2.173 -0.4965 -0.1314 -0.6684
  863MOL0     C16375   2.625  10.607   2.036  0.3385  0.6075  0.3287
  863MOL0     C16376   2.743  10.620   1.961 -0.2049  0.2199  0.3840
  863MOL0     C16377   2.863  10.618   2.040  0.2505 -0.1099  0.3405
  863MOL0     O16378   2.980  10.613   1.971  0.3121 -0.2260  0.1357
  863MOL0     C16379   3.108  10.660   2.026 -0.4666  0.0704 -1.0514
  863MOL0     C16380   3.184  10.558   2.110 -0.0986  0.3005  0.4329
  863MOL0     C16381   3.333  10.588   2.124  0.3929 -0.1580 -0.0904
  863MOL0     C16382   3.406  10.505   2.226 -0.1816 -0.1753 -0.5241
  863MOL0     C16383   3.554  10.558   2.247 -0.0950  0.1009  0.4837
  863MOL0     C16384   3.645  10.483   2.330 -0.2593 -0.2692 -1.0673
  863MOL0     C16385   3.646  10.339   2.313 -0.1671  0.1784  0.0811
  863MOL0     C16386   3.757  10.277   2.400 -0.4755 -1.1931 -0.3615
  863MOL0     N16387   3.874  10.249   2.317 -0.1332  0.2500  0.5915
  863MOL0     C16388   3.906  10.314   2.198  0.0265  0.4339  0.2818
  863MOL0     C16389   3.979  10.226   2.117  0.6095 -0.5597 -1.3923
  863MOL0     C16390   4.020  10.269   1.986 -0.4245 -0.4954 -0.4950
  863MOL0     C16391   4.136  10.380   1.987  0.3754 -0.2329 -0.2437
  863MOL0     C16392   4.257  10.330   2.064  0.3008  0.3940 -0.0633
  863MOL0     C16393   4.347  10.451   2.101 -0.7712  0.0352  0.2885
  863MOL0     O16394   4.383  10.529   1.980  0.2819  0.8520 -0.6361
  863MOL0     C16395   4.446  10.649   2.004  0.1754 -0.3589  0.7254
  863MOL0     C16396   4.495  10.719   1.895 -0.4902  0.5086  0.5426
  863MOL0     C16397   4.568  10.840   1.905 -0.1769 -0.5333  0.1145
  863MOL0     C16398   4.580  10.901   2.034 -0.0905 -0.9466  0.3569
  863MOL0     C16399   4.636  11.038   2.052 -0.3317  0.2731  1.2876
  863MOL0     O16400   4.702  11.096   1.946 -0.5461 -0.0383 -0.8372
  863MOL0     C16401   4.771  11.218   1.974 -0.4716  1.3023  0.1000
  863MOL0     C16402   4.911  11.211   1.998 -0.6208 -0.5598 -0.2491
  863MOL0     C16403   4.973  11.329   2.027  0.4548 -0.5271  0.7290
  863MOL0     C16404   4.914  11.451   2.008 -0.9314  0.9764  0.2103
  863MOL0     O16405   4.978  11.566   2.009  0.6285  1.4347 -0.3675
  863MOL0     C16406   5.097  11.578   2.085 -0.4599  0.5332 -0.2632
  863MOL0     C16407   5.136  11.720   2.097 -0.1104  0.8154 -0.9160
  863MOL0     C16408   5.252  11.744   2.195  0.0855  0.0883 -0.1287
  863MOL0     C16409   5.368  11.646   2.165  0.5106 -0.0822  0.3055
  863MOL0     C16410   5.494  11.654   2.246  0.4139 -0.2211 -0.8202
  863MOL0     C16411   5.585  11.528   2.247 -0.0401  0.3385 -0.2180
  863MOL0     C16412   5.714  11.553   2.328 -0.0088 -0.2527  1.3078
  863MOL0     C16413   5.705  11.552   2.484  0.3651  1.3709  0.7825
  863MOL0    Cl16414   5.872  11.593   2.551  0.0929  0.2726  0.0483
  863MOL0     C16415   4.783  11.456   1.971 -0.8711  0.0968 -0.2466
  863MOL0     C16416   4.707  11.341   1.963  0.6563 -0.8060 -0.3450
  863MOL0     O16417   4.631  11.087   2.167  0.3036 -0.3847 -0.3817
  863MOL0     C16418   4.541  10.826   2.145 -0.9127  1.1786 -0.7894
  863MOL0     C16419   4.470  10.703   2.130 -1.3696 -0.6935 -0.3422
  863MOL0     N16420   4.000  10.117   2.198  0.0418 -0.1280 -1.0064
  863MOL0     N16421   3.940  10.129   2.312  0.2903 -0.7045  0.4495
  863MOL0     C16422   2.856  10.640   2.184  0.0107  0.6914  0.5520
  863MOL0     C16423   2.727  10.652   2.243 -0.5537 -0.1625 -0.0334
  863MOL0     C16424   2.347  10.486   2.383 -0.6517  0.2375  0.1471
  863MOL0     C16425   2.251  10.585   2.355  0.0160  0.2006  0.3831
  863MOL0     C16426   2.114  10.556   2.388 -0.2609  0.2677  0.6605
  863MOL0     C16427   2.079  10.449   2.460  0.4195  0.2176  0.0923
  863MOL0     O16428   1.951  10.429   2.503  0.3033  0.6638  0.7199
  863MOL0     C16429   1.926  10.466   2.640  0.3187 -0.6700  0.2602
  863MOL0     C16430   1.783  10.412   2.680  0.4253 -1.5183  0.0517
  863MOL0     C16431   1.771  10.260   2.685  0.7198 -0.6088  0.2250
  863MOL0     C16432   1.631  10.218   2.715  0.2425  0.6969 -0.1278
  863MOL0     C16433   1.622  10.078   2.693 -0.1216  0.2797 -0.5457
  863MOL0     C16434   1.604   9.957   2.699  0.4190  0.8089 -0.0814
  863MOL0     C16435   2.171  10.358   2.498 -0.8568 -0.0025 -0.4004
  863MOL0     C16436   2.307  10.373   2.462  0.0985  0.6797  0.2947
  863MOL0     C16437   2.398  10.254   2.489 -0.0361 -0.1034 -0.1922
  863MOL0     H16438   2.541  10.589   1.971  0.3993  0.2071  0.3610
  863MOL0     H16439   2.737  10.619   1.853  0.5764  0.4328  0.3352
  863MOL0     H16440   3.169  10.695   1.942 -0.2278  1.2846 -0.4023
  863MOL0     H16441   3.102  10.745   2.095 -1.6094 -0.0535 -0.9745
  863MOL0     H16442   3.182  10.462   2.057  1.4676 -2.3130  4.5851
  863MOL0     H16443   3.146  10.552   2.212 -0.1374  0.4979  0.4286
  863MOL0     H16444   3.342  10.693   2.152 -2.7124 -0.4790  2.7824
  863MOL0     H16445   3.379  10.565   2.027  2.5991 -1.7658  1.2252
  863MOL0     H16446   3.349  10.509   2.319 -0.5065 -1.6531 -0.6356
  863MOL0     H16447   3.416  10.403   2.186 -1.6258 -0.4717 -0.1868
  863MOL0     H16448   3.596  10.567   2.147 -3.8685  1.1452 -1.1965
  863MOL0     H16449   3.549  10.661   2.285 -0.5827  0.4891 -0.5952
  863MOL0     H16450   3.745  10.526   2.331 -0.1656 -0.4821 -0.3662
  863MOL0     H16451   3.608  10.509   2.430  0.8323 -2.4844 -0.0124
  863MOL0     H16452   3.660  10.314   2.207  2.1210  4.2791 -0.7765
  863MOL0     H16453   3.550  10.300   2.347 -0.0287 -1.1593 -0.9665
  863MOL0     H16454   3.771  10.339   2.489  1.9871 -0.4760 -1.1664
  863MOL0     H16455   3.727  10.176   2.430  2.0896 -2.4019 -1.6018
  863MOL0     H16456   3.873  10.415   2.172  1.2966  0.6107 -0.7466
  863MOL0     H16457   4.049  10.187   1.919 -0.0719  0.0814 -1.0571
  863MOL0     H16458   3.934  10.315   1.937 -0.0262  2.9884  1.7516
  863MOL0     H16459   4.157  10.394   1.880  0.9575  1.4664  0.0647
  863MOL0     H16460   4.108  10.476   2.030  4.6671  0.4106  1.5905
  863MOL0     H16461   4.316  10.265   1.998  0.7983  0.6827  0.0897
  863MOL0     H16462   4.234  10.278   2.157 -2.4762 -1.7062 -1.7677
  863MOL0     H16463   4.436  10.423   2.158 -1.4139  0.5651  1.6092
  863MOL0     H16464   4.294  10.524   2.164 -2.3470 -0.9477  0.1611
  863MOL0     H16465   4.488  10.682   1.793 -1.8618 -0.2206  0.8812
  863MOL0     H16466   4.608  10.894   1.820 -0.0501 -1.8168 -0.6673
  863MOL0     H16467   4.973  11.122   2.008  3.5147  1.5121 -3.8812
  863MOL0     H16468   5.081  11.324   2.041  0.7848 -1.5137 -1.7065
  863MOL0     H16469   5.090  11.518   2.176  2.0358 -0.6706 -0.7863
  863MOL0     H16470   5.175  11.535   2.021 -0.8382  0.1782 -0.4916
  863MOL0     H16471   5.177  11.739   1.997  1.9617 -2.5258 -0.8522
  863MOL0     H16472   5.049  11.785   2.111 -0.0316  0.4958  1.6215
  863MOL0     H16473   5.277  11.850   2.189  1.4818 -0.0767  1.9001
  863MOL0     H16474   5.224  11.729   2.300  2.4196 -1.2780  0.3636
  863MOL0     H16475   5.394  11.662   2.060 -4.8392  1.1136 -1.1604
  863MOL0     H16476   5.330  11.543   2.170  1.9406 -0.8509 -2.5970
  863MOL0     H16477   5.463  11.674   2.349  1.8604  2.3709 -0.8041
  863MOL0     H16478   5.554  11.740   2.215  1.8125 -2.0588 -3.5565
  863MOL0     H16479   5.539  11.432   2.269 -0.0791  0.2611 -0.6260
  863MOL0     H16480   5.605  11.506   2.141 -3.2487  0.0382 -0.8449
  863MOL0     H16481   5.760  11.649   2.302 -0.5055 -0.4598 -0.4781
  863MOL0     H16482   5.794  11.488   2.294  0.1588  2.0296 -3.3835
  863MOL0     H16483   5.636  11.618   2.537 -0.0096  1.9333 -0.3765
  863MOL0     H16484   5.683  11.448   2.510 -2.6895  1.7670  0.1561
  863MOL0     H16485   4.747  11.552   1.937  1.6509  0.9968 -0.5542
  863MOL0     H16486   4.604  11.353   1.930 -0.4857  2.6626  3.5632
  863MOL0     H16487   4.570  10.867   2.242  0.5235  1.8998 -1.4935
  863MOL0     H16488   4.433  10.660   2.222  1.3146  3.5546  3.1505
  863MOL0     H16489   2.951  10.653   2.235 -0.4467  0.2165  1.5757
  863MOL0     H16490   2.715  10.660   2.350 -2.4348 -0.4963 -0.1896
  863MOL0     H16491   2.273  10.679   2.304  0.1074 -0.4692 -0.8442
  863MOL0     H16492   2.037  10.627   2.358 -0.0564 -0.4237 -1.7846
  863MOL0     H16493   1.940  10.573   2.655 -2.6265  0.0478 -1.2681
  863MOL0     H16494   1.993  10.411   2.707 -2.6538 -1.2744  2.9930
  863MOL0     H16495   1.715  10.450   2.604  0.9819  2.8977  1.4888
  863MOL0     H16496   1.758  10.462   2.775  4.4547  0.9486  0.0646
  863MOL0     H16497   1.834  10.218   2.765  2.8659 -1.3659 -1.7628
  863MOL0     H16498   1.810  10.224   2.590  2.9884  0.5806  0.6222
  863MOL0     H16499   1.605  10.227   2.821  0.8913 -1.7331  0.3104
  863MOL0     H16500   1.561  10.279   2.657  2.0207  4.0595  1.0013
  863MOL0     H16501   1.609   9.850   2.702  2.2842  0.8793  0.3602
  863MOL0     H16502   2.144  10.268   2.552 -2.1157  0.5617 -0.0564
  863MOL0     H16503   2.337  10.165   2.509 -0.1057  0.1291  0.6498
  863MOL0     H16504   2.449  10.232   2.395  0.5976 -1.8000  0.5087
  863MOL0     H16505   2.469  10.278   2.569 -1.0625  3.7824 -0.2791
  864MOL0     O16506   0.540   8.349  10.750  0.6294 -0.1882  0.4066
  864MOL0     C16507   0.491   8.432  10.831  1.0738  0.0589 -0.3566
  864MOL0     O16508   0.559   8.538  10.882  0.4305  0.7158  0.3562
  864MOL0     C16509   0.688   8.560  10.855  0.8695 -0.3097  0.4165
  864MOL0     C16510   0.727   8.600  10.729  0.0066 -0.4691 -0.0625
  864MOL0     C16511   0.860   8.613  10.704  0.2515  0.9725  0.0032
  864MOL0     C16512   0.954   8.609  10.812  0.4922 -0.6028 -0.8517
  864MOL0     O16513   1.083   8.622  10.801 -0.2705  0.4719  0.5802
  864MOL0     C16514   1.129   8.700  10.683  0.2661  0.3907 -0.8314
  864MOL0     C16515   1.270   8.727  10.690 -0.0653  0.3186  0.3415
  864MOL0     C16516   1.306   8.816  10.574 -0.3765  0.6486  0.4827
  864MOL0     C16517   1.463   8.826  10.578  0.3824  0.1667 -0.2982
  864MOL0     C16518   1.506   8.931  10.478  0.4095  0.4945 -0.1214
  864MOL0     C16519   1.650   8.944  10.433  0.5402  0.8552  1.2429
  864MOL0     C16520   1.650   8.951  10.276  0.4731 -0.3207 -0.6804
  864MOL0     C16521   1.630   8.817  10.193 -0.1475  0.1117  0.0711
  864MOL0     N16522   1.758   8.752  10.177  0.3474 -0.8822 -0.0941
  864MOL0     C16523   1.862   8.790  10.097  0.7740 -0.5419  0.5655
  864MOL0     C16524   1.939   8.685  10.066 -0.4083  0.5458 -0.3134
  864MOL0     C16525   2.061   8.698   9.968  0.2869 -0.0511 -1.4975
  864MOL0     C16526   2.122   8.567   9.920  0.5228 -0.8262 -0.6105
  864MOL0     C16527   2.255   8.590   9.839  0.4061  0.3737 -1.0478
  864MOL0     C16528   2.276   8.507   9.718 -0.1489  0.2266  0.3230
  864MOL0     O16529   2.402   8.536   9.671  0.1192 -0.1444  0.0215
  864MOL0     C16530   2.454   8.476   9.556  0.0267  0.5182 -0.2283
  864MOL0     C16531   2.592   8.495   9.532 -0.3441 -0.6053  0.1945
  864MOL0     C16532   2.653   8.455   9.415 -0.0603  0.3624  0.0348
  864MOL0     C16533   2.570   8.406   9.316 -0.3028  0.2408  1.3136
  864MOL0     C16534   2.624   8.373   9.177 -0.1015 -0.6236 -0.6177
  864MOL0     O16535   2.530   8.344   9.085 -0.2556  0.2078  0.1704
  864MOL0     C16536   2.582   8.313   8.959 -0.6896  0.4197 -0.6628
  864MOL0     C16537   2.562   8.404   8.854 -0.5685 -0.5402 -0.3845
  864MOL0     C16538   2.619   8.371   8.725 -1.0408 -0.3027 -0.3868
  864MOL0     C16539   2.677   8.243   8.703  0.8121  0.0967 -0.1584
  864MOL0     O16540   2.716   8.220   8.570 -0.8151 -0.7309  0.3958
  864MOL0     C16541   2.800   8.117   8.530 -0.7593  0.1229 -0.6514
  864MOL0     C16542   2.946   8.154   8.574  0.7096 -0.1706  0.5848
  864MOL0     C16543   3.057   8.071   8.500 -0.3205  0.1755 -0.5486
  864MOL0     C16544   3.188   8.107   8.586 -0.2024 -0.1478  0.6544
  864MOL0     C16545   3.316   8.048   8.532 -0.1269 -0.1930  0.0923
  864MOL0     C16546   3.368   8.111   8.398  0.8866 -0.5114  0.0983
  864MOL0     C16547   3.413   8.255   8.401 -0.3040 -0.1872  0.7167
  864MOL0     C16548   3.505   8.309   8.515  0.0516 -0.3047  0.0013
  864MOL0    Cl16549   3.616   8.194   8.578 -0.1422  0.5079 -0.0857
  864MOL0     C16550   2.689   8.157   8.809 -0.6133 -0.7844 -0.3978
  864MOL0     C16551   2.651   8.187   8.937 -0.6003 -0.4890 -0.0853
  864MOL0     O16552   2.743   8.380   9.159  0.3281  0.3593  0.5114
  864MOL0     C16553   2.439   8.370   9.342 -1.0391 -1.1157 -0.5624
  864MOL0     C16554   2.381   8.407   9.461  0.1721  0.2254 -0.3257
  864MOL0     N16555   1.881   8.572  10.127  0.0342 -0.0180  0.0543
  864MOL0     N16556   1.773   8.619  10.193 -0.1396 -0.1044  0.1152
  864MOL0     C16557   0.912   8.573  10.944  0.4205 -0.5724  0.1394
  864MOL0     C16558   0.781   8.550  10.960  0.1925  0.1816 -0.4832
  864MOL0     C16559   0.351   8.420  10.883  0.9322 -0.0901  0.2689
  864MOL0     C16560   0.304   8.526  10.970 -0.3614 -0.3067  1.7979
  864MOL0     C16561   0.167   8.543  11.012 -0.5549  0.4591  0.1547
  864MOL0     C16562   0.078   8.439  10.985  0.2025  0.1726  0.3935
  864MOL0     O16563  -0.056   8.421  11.016  0.3915  0.2788 -0.1787
  864MOL0     C16564  -0.119   8.515  11.093  0.2993 -0.2385  0.0050
  864MOL0     C16565  -0.255   8.484  11.135  0.9058  0.5992 -0.4499
  864MOL0     C16566  -0.288   8.554  11.272 -0.2868 -0.5849  0.2858
  864MOL0     C16567  -0.406   8.481  11.335 -1.0035  0.0525  1.0204
  864MOL0     C16568  -0.442   8.549  11.459 -0.0042 -0.7617  0.4419
  864MOL0     C16569  -0.477   8.615  11.554 -0.6728  0.7068 -0.0413
  864MOL0     C16570   0.128   8.325  10.903 -0.2684 -0.0345 -0.6820
  864MOL0     C16571   0.259   8.315  10.846 -0.9677 -0.3054  0.4050
  864MOL0     C16572   0.296   8.196  10.770  0.5303 -0.3998 -0.2988
  864MOL0     H16573   0.645   8.608  10.658  1.2735 -3.5547 -2.0598
  864MOL0     H16574   0.898   8.646  10.608 -1.6242 -0.7947 -1.4337
  864MOL0     H16575   1.116   8.641  10.592  2.3931 -0.4664 -0.6374
  864MOL0     H16576   1.071   8.791  10.665  2.1464  1.5998 -1.0982
  864MOL0     H16577   1.325   8.634  10.679 -0.0978  0.0732  1.9392
  864MOL0     H16578   1.293   8.786  10.780 -1.2996  2.1831 -0.4920
  864MOL0     H16579   1.254   8.912  10.581 -1.6754  0.1881 -1.9409
  864MOL0     H16580   1.277   8.762  10.484 -0.0643  0.2336  0.6313
  864MOL0     H16581   1.509   8.861  10.671 -0.0224  2.2885 -0.8318
  864MOL0     H16582   1.515   8.732  10.556  1.7861  1.0270 -0.7673
  864MOL0     H16583   1.440   8.922  10.391  1.1994 -0.9071 -0.6136
  864MOL0     H16584   1.482   9.030  10.519  1.3529  1.3447 -1.5241
  864MOL0     H16585   1.699   9.028  10.483 -0.2496  1.0562  1.6993
  864MOL0     H16586   1.708   8.853  10.449  1.4882 -0.2839 -5.5206
  864MOL0     H16587   1.740   9.001  10.241 -0.3667  2.9956  1.4577
  864MOL0     H16588   1.567   9.015  10.245 -0.7734 -1.2803  0.5002
  864MOL0     H16589   1.559   8.750  10.243  1.3576 -1.4193  0.2323
  864MOL0     H16590   1.587   8.840  10.095 -1.2809  0.9189  0.7348
  864MOL0     H16591   1.882   8.892  10.066 -1.5865 -0.4826 -1.0958
  864MOL0     H16592   2.039   8.772   9.891  1.1067  1.6226 -0.1908
  864MOL0     H16593   2.142   8.753  10.016 -2.0553  1.0915  1.4634
  864MOL0     H16594   2.142   8.503  10.006 -0.5290 -0.3116  0.0225
  864MOL0     H16595   2.051   8.517   9.853 -2.4858  1.4868  0.6528
  864MOL0     H16596   2.346   8.567   9.895 -1.4314  1.3287  2.6063
  864MOL0     H16597   2.245   8.693   9.804  0.7744  0.3245 -1.3006
  864MOL0     H16598   2.193   8.525   9.648  0.0364  1.7217  0.4661
  864MOL0     H16599   2.266   8.400   9.739 -2.8812  0.3826  0.1958
  864MOL0     H16600   2.651   8.529   9.616  0.8453 -1.6957 -0.1727
  864MOL0     H16601   2.760   8.470   9.406  0.3346 -2.9769 -2.7884
  864MOL0     H16602   2.494   8.487   8.864  0.5474  0.3616 -0.0309
  864MOL0     H16603   2.631   8.449   8.651  2.0865 -1.3065 -1.1346
  864MOL0     H16604   2.776   8.019   8.571  0.9243 -0.5019 -1.0963
  864MOL0     H16605   2.803   8.108   8.421 -1.1753  0.9323 -0.7378
  864MOL0     H16606   2.955   8.257   8.538 -2.4262 -0.5710 -1.7912
  864MOL0     H16607   2.953   8.147   8.683  0.7961  3.3639  0.9107
  864MOL0     H16608   3.046   7.963   8.514  2.1155  0.2040  2.3170
  864MOL0     H16609   3.065   8.098   8.394  1.9766  0.2406 -0.4031
  864MOL0     H16610   3.172   8.057   8.682  4.1497  2.5527  3.0745
  864MOL0     H16611   3.199   8.213   8.609  2.2899 -0.7924  2.9561
  864MOL0     H16612   3.307   7.941   8.517  2.3411 -0.0911 -3.5246
  864MOL0     H16613   3.394   8.057   8.609 -0.3110 -0.6734  0.3352
  864MOL0     H16614   3.457   8.058   8.362 -0.2295 -2.1525 -0.3830
  864MOL0     H16615   3.287   8.087   8.329 -0.1187  1.4750  0.5002
  864MOL0     H16616   3.329   8.324   8.388 -0.2588  0.1877  2.1822
  864MOL0     H16617   3.462   8.274   8.306  0.8615  3.3458  1.8815
  864MOL0     H16618   3.564   8.396   8.484 -0.3671  0.4552  1.2984
  864MOL0     H16619   3.451   8.332   8.607  0.5633  1.3709 -0.0738
  864MOL0     H16620   2.736   8.059   8.806  0.3833 -0.3232 -0.2502
  864MOL0     H16621   2.664   8.110   9.013 -2.4158  1.1718  2.0510
  864MOL0     H16622   2.374   8.331   9.265 -1.6935  0.5561 -0.9195
  864MOL0     H16623   2.277   8.378   9.473  0.7008 -2.0724 -0.7468
  864MOL0     H16624   0.989   8.570  11.020 -0.0454 -3.4094  0.5740
  864MOL0     H16625   0.747   8.527  11.060 -1.0561 -1.9150 -1.3257
  864MOL0     H16626   0.369   8.611  10.988  0.8101 -0.7419 -0.0099
  864MOL0     H16627   0.125   8.619  11.077 -0.5304  0.0072  0.7053
  864MOL0     H16628  -0.115   8.612  11.041 -0.7248 -1.8675 -3.3383
  864MOL0     H16629  -0.059   8.525  11.185  0.5826  0.4125 -0.2381
  864MOL0     H16630  -0.256   8.376  11.150  1.0683  0.4547 -1.4130
  864MOL0     H16631  -0.331   8.510  11.061  1.5441 -2.3694 -2.3320
  864MOL0     H16632  -0.314   8.657  11.249 -2.0601 -0.9326  0.5514
  864MOL0     H16633  -0.198   8.558  11.333 -0.6231 -0.6960  0.8069
  864MOL0     H16634  -0.491   8.473  11.266 -1.3358 -3.0423  1.6479
  864MOL0     H16635  -0.389   8.375  11.356 -0.2177 -0.5312 -2.0467
  864MOL0     H16636  -0.504   8.662  11.647 -0.5047 -0.7580  0.7808
  864MOL0     H16637   0.062   8.241  10.882 -1.8929  1.5718 -2.5017
  864MOL0     H16638   0.214   8.124  10.782 -1.1098  1.2205 -1.2979
  864MOL0     H16639   0.291   8.227  10.665 -0.4819  2.2167  0.4487
  864MOL0     H16640   0.393   8.156  10.800  1.6770  2.1667 -0.3173
  865MOL0     O16641   1.059   7.772  10.334 -0.0759  0.0820 -0.3496
  865MOL0     C16642   0.965   7.838  10.281  0.0272 -0.5042  0.0756
  865MOL0     O16643   0.986   7.930  10.183 -0.5204 -0.1466  0.5435
  865MOL0     C16644   1.115   7.987  10.167  0.0509  0.1673  0.6139
  865MOL0     C16645   1.177   8.044  10.277 -0.0494  0.4968  0.5428
  865MOL0     C16646   1.298   8.096  10.272  0.2917  0.3692  0.0269
  865MOL0     C16647   1.354   8.127  10.141  0.1155  0.5887  0.6944
  865MOL0     O16648   1.474   8.187  10.117  0.0955 -0.0684 -0.1522
  865MOL0     C16649   1.558   8.188  10.229 -0.5622 -0.4072  0.6138
  865MOL0     C16650   1.697   8.227  10.182 -0.0334  0.1204  0.1495
  865MOL0     C16651   1.747   8.129  10.065  0.7782  0.6016  0.5445
  865MOL0     C16652   1.863   8.188   9.985  0.8921 -0.3850 -0.3198
  865MOL0     C16653   1.900   8.117   9.853 -0.3564  0.4554 -0.4254
  865MOL0     C16654   2.027   8.180   9.805  0.2383 -0.4350 -0.2112
  865MOL0     C16655   2.060   8.142   9.662 -0.5487  0.8339  0.3193
  865MOL0     C16656   1.948   8.176   9.559 -0.1218  0.3139  0.0964
  865MOL0     N16657   2.015   8.164   9.429  0.0875 -0.4254 -0.3769
  865MOL0     C16658   1.999   8.051   9.350  0.0768 -0.4095 -1.0119
  865MOL0     C16659   2.060   8.079   9.228 -0.4278 -0.3508  0.1288
  865MOL0     C16660   2.074   8.007   9.098  0.4370 -0.5685  0.1986
  865MOL0     C16661   2.182   7.904   9.083  0.1081  0.6816 -0.1739
  865MOL0     C16662   2.313   7.970   9.117  0.3323  0.4603  0.3278
  865MOL0     C16663   2.435   7.883   9.076 -0.3755  0.1954 -0.9417
  865MOL0     O16664   2.431   7.859   8.940 -0.0583  0.6333  0.2590
  865MOL0     C16665   2.540   7.818   8.870  0.6239 -0.0102 -0.0633
  865MOL0     C16666   2.649   7.756   8.937  0.6149  1.2951 -0.4496
  865MOL0     C16667   2.763   7.703   8.866 -0.4957 -0.6571  0.2097
  865MOL0     C16668   2.764   7.723   8.720 -0.4892  0.1447 -0.9025
  865MOL0     C16669   2.878   7.686   8.639  0.4301  0.1625 -0.0963
  865MOL0     O16670   2.887   7.735   8.510 -0.5823  0.2631  0.9887
  865MOL0     C16671   2.977   7.681   8.416  0.1492 -0.7401  0.1591
  865MOL0     C16672   3.054   7.570   8.423  0.9286  0.0954  0.2287
  865MOL0     C16673   3.127   7.519   8.311 -0.1270 -0.3262  0.4852
  865MOL0     C16674   3.121   7.579   8.187  0.0293 -0.0556 -0.0857
  865MOL0     O16675   3.211   7.529   8.092  0.7991 -0.4542 -0.4470
  865MOL0     C16676   3.231   7.627   7.989 -0.2457 -0.7990 -0.1714
  865MOL0     C16677   3.334   7.579   7.896  0.8658  0.4386  0.5942
  865MOL0     C16678   3.271   7.465   7.809 -0.4566  0.0722 -0.3125
  865MOL0     C16679   3.378   7.390   7.722  0.5816 -1.0034  0.1169
  865MOL0     C16680   3.338   7.261   7.667 -0.1859  0.0721  0.4060
  865MOL0     C16681   3.226   7.285   7.569 -0.4101  0.2060 -0.0259
  865MOL0     C16682   3.197   7.157   7.475 -0.8272 -0.5691 -0.3385
  865MOL0     C16683   3.057   7.163   7.423 -0.1101 -0.9519  0.0556
  865MOL0    Cl16684   2.943   7.131   7.558 -0.3380  0.1648 -1.0287
  865MOL0     C16685   3.042   7.699   8.182 -0.6208  0.4878  0.8064
  865MOL0     C16686   2.975   7.748   8.293  1.4449  0.2574 -0.9581
  865MOL0     O16687   2.947   7.600   8.692  0.4001  0.3183 -0.2839
  865MOL0     C16688   2.662   7.789   8.660  0.5648  0.1917 -0.6453
  865MOL0     C16689   2.552   7.824   8.732 -0.7238 -0.7697 -0.5393
  865MOL0     N16690   2.115   8.207   9.245  0.2412 -0.2465 -0.3707
  865MOL0     N16691   2.099   8.248   9.365  0.3987  0.4621  0.4036
  865MOL0     C16692   1.283   8.089  10.025  1.1754  0.2924  0.4155
  865MOL0     C16693   1.160   8.017  10.040  0.2315  0.6585 -0.2649
  865MOL0     C16694   0.816   7.801  10.286  0.0027 -0.3644 -0.0581
  865MOL0     C16695   0.724   7.873  10.202 -0.0733 -0.3032  0.4510
  865MOL0     C16696   0.583   7.841  10.202  0.0484  0.1151  0.2711
  865MOL0     C16697   0.531   7.739  10.290 -0.5306  0.0809 -0.5533
  865MOL0     O16698   0.398   7.715  10.287  0.3985  0.0728 -0.3837
  865MOL0     C16699   0.352   7.624  10.394 -0.8973 -0.4721 -0.8698
  865MOL0     C16700   0.201   7.589  10.369 -0.2967 -0.3049  0.2064
  865MOL0     C16701   0.170   7.462  10.451  0.2281 -0.2294  0.4682
  865MOL0     C16702   0.039   7.399  10.426 -0.2207 -0.1297  0.0688
  865MOL0     C16703  -0.080   7.450  10.492 -0.4233  0.3607  0.0999
  865MOL0     C16704  -0.176   7.508  10.535  0.1059  0.1678 -0.2813
  865MOL0     C16705   0.627   7.679  10.375  0.1872  0.5712 -0.1434
  865MOL0     C16706   0.760   7.709  10.380 -0.2574 -0.2069 -0.7257
  865MOL0     C16707   0.852   7.632  10.468  0.3805  0.7496  0.3609
  865MOL0     H16708   1.126   8.031  10.372 -3.0968 -0.1939 -1.0766
  865MOL0     H16709   1.335   8.131  10.368  3.3731 -2.6118  0.1307
  865MOL0     H16710   1.537   8.255  10.313  1.8773  0.8170  0.3446
  865MOL0     H16711   1.552   8.085  10.264 -2.2106 -0.6696 -0.3095
  865MOL0     H16712   1.766   8.217  10.265 -1.8611  3.7855  2.3591
  865MOL0     H16713   1.705   8.332  10.156 -1.4324  0.6568  1.6708
  865MOL0     H16714   1.663   8.102  10.000  0.5064  1.8130  0.3677
  865MOL0     H16715   1.797   8.037  10.097 -0.4228  0.2893  1.6430
  865MOL0     H16716   1.820   8.286   9.961  1.8200  0.0536 -0.2428
  865MOL0     H16717   1.947   8.202  10.054 -0.2985  1.4133  0.8578
  865MOL0     H16718   1.922   8.014   9.881  3.3182  0.6946 -1.9407
  865MOL0     H16719   1.818   8.116   9.780 -0.5038 -2.3359 -0.3230
  865MOL0     H16720   2.015   8.289   9.809 -2.3420 -0.6518  0.0306
  865MOL0     H16721   2.106   8.147   9.872 -0.9228  0.2045  1.5336
  865MOL0     H16722   2.083   8.035   9.658 -0.6174  0.7997  0.7556
  865MOL0     H16723   2.156   8.190   9.640  0.2734 -1.3155 -1.0499
  865MOL0     H16724   1.867   8.104   9.554  0.7670 -0.6612 -0.6506
  865MOL0     H16725   1.914   8.280   9.568  1.3463  1.0569 -2.0261
  865MOL0     H16726   1.936   7.971   9.388 -1.2706  0.5198 -1.2067
  865MOL0     H16727   1.981   7.950   9.089  0.7886 -1.3725  1.3582
  865MOL0     H16728   2.073   8.081   9.018 -2.7152 -2.9787 -2.2557
  865MOL0     H16729   2.153   7.822   9.149 -1.2880  2.6439  1.8164
  865MOL0     H16730   2.180   7.853   8.986  0.3777 -1.9842  1.1526
  865MOL0     H16731   2.317   7.987   9.225  1.2578  1.9727  0.0881
  865MOL0     H16732   2.319   8.062   9.059 -0.9089  0.2105 -0.2188
  865MOL0     H16733   2.432   7.789   9.131  0.7719  0.2734 -0.7385
  865MOL0     H16734   2.527   7.938   9.098 -0.8673  0.1446  1.4545
  865MOL0     H16735   2.653   7.742   9.044 -0.4972 -0.8823 -0.6346
  865MOL0     H16736   2.843   7.650   8.917 -1.5514 -2.4346  0.1354
  865MOL0     H16737   3.051   7.510   8.514 -0.5941  3.0540  2.2949
  865MOL0     H16738   3.190   7.433   8.332  0.2524 -1.3462 -3.9187
  865MOL0     H16739   3.139   7.641   7.932  0.0777 -1.5295 -0.8988
  865MOL0     H16740   3.260   7.727   8.022 -2.4095  0.4496 -1.7987
  865MOL0     H16741   3.378   7.653   7.829 -0.4732  0.6915 -0.0390
  865MOL0     H16742   3.417   7.553   7.962  1.0154 -1.2038 -0.1842
  865MOL0     H16743   3.220   7.404   7.884 -0.9465  1.3049  0.3878
  865MOL0     H16744   3.203   7.500   7.731 -0.9407 -2.2312 -0.9982
  865MOL0     H16745   3.467   7.359   7.777  0.3631 -0.5554  0.7374
  865MOL0     H16746   3.407   7.464   7.647 -1.7720  0.0951  0.2103
  865MOL0     H16747   3.300   7.200   7.749 -1.4750 -1.5387 -1.2831
  865MOL0     H16748   3.416   7.205   7.616 -0.8514 -0.6907  0.2002
  865MOL0     H16749   3.138   7.320   7.622 -1.5786 -2.2198 -0.2207
  865MOL0     H16750   3.263   7.354   7.493  0.3916 -3.4892 -3.3077
  865MOL0     H16751   3.212   7.076   7.546  3.8457  0.7997  0.5515
  865MOL0     H16752   3.263   7.151   7.389  0.5151  0.8038  0.5378
  865MOL0     H16753   3.017   7.258   7.386 -3.2472 -1.6872  1.2480
  865MOL0     H16754   3.052   7.093   7.339  1.3644 -0.3508 -0.5704
  865MOL0     H16755   3.024   7.758   8.093 -2.0170 -0.3580  0.4965
  865MOL0     H16756   2.902   7.826   8.274  0.2931  0.4063  3.1923
  865MOL0     H16757   2.659   7.806   8.553 -0.6779  2.8713 -0.2679
  865MOL0     H16758   2.481   7.883   8.675 -0.7654 -0.8377 -0.5582
  865MOL0     H16759   1.325   8.111   9.927 -0.0562  1.4451  0.1161
  865MOL0     H16760   1.106   7.978   9.954  0.7502 -2.7311  0.7604
  865MOL0     H16761   0.745   7.958  10.137 -0.4600  1.6288  2.6896
  865MOL0     H16762   0.515   7.899  10.140 -0.3423  0.3167  0.8790
  865MOL0     H16763   0.357   7.675  10.491 -4.4479  0.3317 -1.0005
  865MOL0     H16764   0.418   7.536  10.392  0.1629  0.0778  2.5658
  865MOL0     H16765   0.181   7.571  10.263 -0.0997  1.2469 -0.1227
  865MOL0     H16766   0.140   7.674  10.402  0.8937 -0.3483  2.8231
  865MOL0     H16767   0.178   7.471  10.560  3.1149 -1.3821  0.4427
  865MOL0     H16768   0.240   7.382  10.425 -1.6281 -2.0378  0.7162
  865MOL0     H16769   0.014   7.402  10.320  0.2884  2.9438 -0.0658
  865MOL0     H16770   0.044   7.300  10.472  3.0920  0.4428  1.2054
  865MOL0     H16771  -0.251   7.573  10.576 -1.2172 -0.5974 -1.3938
  865MOL0     H16772   0.601   7.602  10.448  1.9869  0.4282  0.3867
  865MOL0     H16773   0.920   7.572  10.407  1.9465  1.7759  1.0365
  865MOL0     H16774   0.918   7.707  10.512 -0.5537  1.0724  1.2469
  865MOL0     H16775   0.798   7.581  10.549 -0.8167  1.9099  0.3306
  866MOL0     O16776   7.352   1.198   9.582  0.1685  0.5701 -0.3143
  866MOL0     C16777   7.301   1.294   9.634 -0.4284 -0.2692 -0.0902
  866MOL0     O16778   7.381   1.382   9.699  0.2448 -0.2609  0.0991
  866MOL0     C16779   7.515   1.369   9.692 -0.9609 -0.4710  1.1854
  866MOL0     C16780   7.594   1.335   9.581  0.4620 -0.7512  0.7711
  866MOL0     C16781   7.732   1.333   9.580 -0.0533  0.1332  0.9078
  866MOL0     C16782   7.810   1.355   9.692 -0.6953 -1.2938 -0.2596
  866MOL0     O16783   7.946   1.356   9.672  0.2260  0.4044  0.1194
  866MOL0     C16784   8.029   1.349   9.777  0.8997  0.3640 -0.0661
  866MOL0     C16785   8.032   1.211   9.849 -0.4634 -0.3894 -0.4825
  866MOL0     C16786   8.112   1.115   9.752 -1.2162  0.7322 -0.1776
  866MOL0     C16787   8.267   1.124   9.750 -0.6132  0.3332 -0.5794
  866MOL0     C16788   8.312   1.023   9.641  0.2315 -0.0275 -0.2546
  866MOL0     C16789   8.455   1.055   9.605 -0.0173 -0.5447 -0.5554
  866MOL0     C16790   8.514   0.971   9.497  0.4439  0.8285  0.6099
  866MOL0     C16791   8.469   0.998   9.350 -0.3556  0.1719  0.2547
  866MOL0     N16792   8.544   0.931   9.255 -0.4930  0.7018  0.9147
  866MOL0     C16793   8.502   0.884   9.127 -0.4506  0.4359  0.6722
  866MOL0     C16794   8.615   0.834   9.064  0.2701  0.3064 -0.1012
  866MOL0     C16795   8.616   0.796   8.920  0.5743 -0.4313  0.3136
  866MOL0     C16796   8.739   0.693   8.903 -0.5597 -0.4527  0.8863
  866MOL0     C16797   8.731   0.639   8.757  0.5641  0.2755 -0.7598
  866MOL0     C16798   8.865   0.574   8.705  0.0338  0.3173 -0.8660
  866MOL0     O16799   8.951   0.684   8.672 -0.6102  0.3668  0.0905
  866MOL0     C16800   9.077   0.645   8.632 -0.5465 -0.2790 -0.7286
  866MOL0     C16801   9.118   0.521   8.600  0.0762  0.1212 -0.1470
  866MOL0     C16802   9.248   0.503   8.548  0.9679 -0.2053 -0.2524
  866MOL0     C16803   9.339   0.606   8.524  0.2961  0.6212 -0.4830
  866MOL0     C16804   9.479   0.586   8.473  0.2378 -0.3960 -0.9815
  866MOL0     O16805   9.554   0.684   8.455 -0.3010  0.0082 -0.8553
  866MOL0     C16806   9.676   0.659   8.409 -0.1406 -0.5243  0.2120
  866MOL0     C16807   9.777   0.636   8.503  0.5227  0.7147 -0.8891
  866MOL0     C16808   9.900   0.596   8.465 -0.0564  0.0991  0.0846
  866MOL0     C16809   9.937   0.590   8.331 -0.1618  1.0747  0.0173
  866MOL0     O16810  10.054   0.556   8.276  0.6030 -0.1351  0.1381
  866MOL0     C16811  10.172   0.581   8.353  0.0342 -1.4883 -0.3271
  866MOL0     C16812  10.286   0.527   8.267 -0.3056 -0.1942 -0.8401
  866MOL0     C16813  10.423   0.585   8.306  0.0356  0.1895 -0.0422
  866MOL0     C16814  10.499   0.497   8.406  0.5433 -0.8018 -0.0333
  866MOL0     C16815  10.656   0.520   8.408 -0.8163 -0.9341  0.4173
  866MOL0     C16816  10.695   0.660   8.464  0.7802  0.1937 -1.1167
  866MOL0     C16817  10.664   0.673   8.610  1.0744  0.4971  0.5067
  866MOL0     C16818  10.766   0.758   8.676 -0.3167 -0.8120 -0.1607
  866MOL0    Cl16819  10.727   0.760   8.850  0.0160 -0.1185  0.1824
  866MOL0     C16820   9.839   0.622   8.233 -0.8286 -0.5765 -0.2835
  866MOL0     C16821   9.721   0.671   8.279 -0.4880  0.0705 -0.6316
  866MOL0     O16822   9.515   0.477   8.463 -0.3940  0.7212 -0.4436
  866MOL0     C16823   9.289   0.738   8.539 -0.4812  0.3135  0.1193
  866MOL0     C16824   9.166   0.753   8.604  0.0237 -0.6404  0.3350
  866MOL0     N16825   8.718   0.840   9.159 -0.3765 -0.0330 -0.8704
  866MOL0     N16826   8.673   0.896   9.266  0.2390 -0.3836 -0.1997
  866MOL0     C16827   7.739   1.399   9.805  0.3645 -1.4391 -0.2404
  866MOL0     C16828   7.594   1.398   9.807  0.5329  0.0750  0.1994
  866MOL0     C16829   7.159   1.320   9.609  0.2823 -0.1010 -0.2797
  866MOL0     C16830   7.070   1.209   9.606 -0.2591  0.0046 -1.2018
  866MOL0     C16831   6.933   1.226   9.577  0.0799 -0.6881  0.0484
  866MOL0     C16832   6.879   1.354   9.559 -0.7576 -0.0601  0.4554
  866MOL0     O16833   6.746   1.376   9.526  0.4054  0.4724  0.1693
  866MOL0     C16834   6.658   1.263   9.516 -1.0932  0.3018 -0.0264
  866MOL0     C16835   6.526   1.289   9.447 -0.0782  0.7807 -0.4299
  866MOL0     C16836   6.460   1.150   9.438 -0.1208  0.7072 -0.3374
  866MOL0     C16837   6.356   1.140   9.327 -0.2199  0.1040 -0.2572
  866MOL0     C16838   6.413   1.152   9.190  0.2749  0.2248  0.5677
  866MOL0     C16839   6.472   1.153   9.074  0.5434 -0.3895 -0.0440
  866MOL0     C16840   6.965   1.463   9.563  0.3265  0.9270 -0.5483
  866MOL0     C16841   7.100   1.440   9.584 -0.3212 -0.4852 -0.0004
  866MOL0     C16842   7.187   1.564   9.591  0.1419 -0.0008  0.3709
  866MOL0     H16843   7.548   1.319   9.484  0.5042 -0.2591  0.6665
  866MOL0     H16844   7.779   1.309   9.486 -1.6268  2.9505 -0.7320
  866MOL0     H16845   8.131   1.375   9.748  2.1952 -1.7816  2.2064
  866MOL0     H16846   7.991   1.423   9.848 -2.8787 -1.2342 -0.1871
  866MOL0     H16847   7.936   1.169   9.879 -0.6600 -0.8553 -1.7281
  866MOL0     H16848   8.084   1.228   9.944 -1.8670  0.9763  0.0947
  866MOL0     H16849   8.076   1.127   9.649 -0.1461  2.9514 -0.3610
  866MOL0     H16850   8.091   1.013   9.783  2.7073 -0.1467  0.1238
  866MOL0     H16851   8.301   1.225   9.721  3.2959 -0.2381  1.2946
  866MOL0     H16852   8.314   1.097   9.845  0.4233  0.1591 -1.1239
  866MOL0     H16853   8.285   0.921   9.671 -1.9789  0.7634  0.6339
  866MOL0     H16854   8.245   1.040   9.556 -0.2164 -1.0310 -0.1199
  866MOL0     H16855   8.470   1.159   9.573  3.0810 -0.2115  1.5200
  866MOL0     H16856   8.510   1.050   9.699  0.8808  1.4911 -0.9233
  866MOL0     H16857   8.496   0.864   9.510  4.4331 -0.4294 -2.0570
  866MOL0     H16858   8.622   0.991   9.503  0.8639 -0.4838 -1.6245
  866MOL0     H16859   8.365   0.966   9.349 -0.9870  1.9936  1.5495
  866MOL0     H16860   8.467   1.106   9.331  1.9994  0.8750  3.2136
  866MOL0     H16861   8.406   0.888   9.076  0.7894 -2.4044 -2.2443
  866MOL0     H16862   8.523   0.747   8.888  2.1611 -2.8212 -0.9975
  866MOL0     H16863   8.629   0.890   8.866 -0.0991  0.4931  1.7094
  866MOL0     H16864   8.836   0.744   8.912 -0.3520 -0.4411 -0.9472
  866MOL0     H16865   8.724   0.614   8.977  0.3582  0.9525  2.6691
  866MOL0     H16866   8.708   0.717   8.684  2.7708 -0.4401 -2.3283
  866MOL0     H16867   8.656   0.560   8.751  1.3408 -0.7429  1.8108
  866MOL0     H16868   8.841   0.515   8.615  0.2892  1.5952 -1.8072
  866MOL0     H16869   8.907   0.505   8.778 -1.2781  1.2230  0.8164
  866MOL0     H16870   9.054   0.433   8.604  0.8485 -0.4497 -0.0617
  866MOL0     H16871   9.264   0.403   8.508 -0.7378 -0.3832 -0.5571
  866MOL0     H16872   9.740   0.643   8.605 -2.2393  0.7422 -1.8034
  866MOL0     H16873   9.974   0.561   8.536  0.0724 -0.4005 -0.2921
  866MOL0     H16874  10.173   0.690   8.364 -1.0887 -1.1568 -2.8499
  866MOL0     H16875  10.174   0.532   8.451  0.9333 -1.7844 -0.4910
  866MOL0     H16876  10.288   0.418   8.273  1.8510 -0.1061  1.6267
  866MOL0     H16877  10.259   0.567   8.169 -4.8035  1.2961  0.7308
  866MOL0     H16878  10.493   0.590   8.221  1.3231  2.6918  1.0504
  866MOL0     H16879  10.409   0.687   8.343 -2.2165  0.2400 -0.8543
  866MOL0     H16880  10.474   0.395   8.377  0.1884 -1.4476  2.3183
  866MOL0     H16881  10.456   0.513   8.505 -2.2740  4.0311 -1.6977
  866MOL0     H16882  10.689   0.516   8.303  2.0830 -2.3508  1.2953
  866MOL0     H16883  10.711   0.442   8.461  0.9558  0.4005  0.6247
  866MOL0     H16884  10.800   0.679   8.440  1.1382 -0.1019  0.1613
  866MOL0     H16885  10.637   0.740   8.416 -0.2862  0.6099  0.7884
  866MOL0     H16886  10.654   0.578   8.662  3.5733 -0.4334 -0.5270
  866MOL0     H16887  10.567   0.722   8.626  0.8517  1.4340 -2.9286
  866MOL0     H16888  10.869   0.720   8.673 -0.3749 -1.2055  1.6641
  866MOL0     H16889  10.763   0.862   8.640  4.2082  1.4508  4.5759
  866MOL0     H16890   9.872   0.619   8.129  1.8973 -3.3748  0.5320
  866MOL0     H16891   9.647   0.716   8.213 -1.2324  1.2723  0.9326
  866MOL0     H16892   9.361   0.816   8.517 -1.2050  1.2825  1.0544
  866MOL0     H16893   9.123   0.850   8.622 -1.0729 -1.2606  1.1183
  866MOL0     H16894   7.777   1.426   9.903  0.1261 -0.1214 -0.4940
  866MOL0     H16895   7.549   1.440   9.896 -0.6227 -0.8546  0.0654
  866MOL0     H16896   7.107   1.109   9.627 -0.5981 -0.4218 -2.5091
  866MOL0     H16897   6.872   1.137   9.578 -1.4259  0.3044  1.1604
  866MOL0     H16898   6.636   1.232   9.619  0.7777  2.8996  1.2846
  866MOL0     H16899   6.701   1.180   9.460 -0.3395 -0.3001  1.3718
  866MOL0     H16900   6.549   1.314   9.343  0.8756 -2.4866 -1.1493
  866MOL0     H16901   6.459   1.360   9.496 -1.7867 -0.6686 -0.5395
  866MOL0     H16902   6.424   1.122   9.537 -1.1645  1.1846 -0.5664
  866MOL0     H16903   6.533   1.070   9.425 -1.3647 -0.1964 -2.3058
  866MOL0     H16904   6.319   1.037   9.325  0.7982 -0.2695 -0.6220
  866MOL0     H16905   6.285   1.223   9.331  0.8531  1.0053  1.3434
  866MOL0     H16906   6.522   1.162   8.980  0.2476  4.1321  0.0058
  866MOL0     H16907   6.915   1.559   9.566  0.2339  0.8523  1.1282
  866MOL0     H16908   7.246   1.576   9.682 -0.1171 -1.5636  0.7767
  866MOL0     H16909   7.254   1.567   9.505  0.7079 -2.6760  0.6214
  866MOL0     H16910   7.110   1.641   9.583  1.5705  1.4834  0.4247
  867MOL0     O16911   4.428   2.627   1.938 -0.9495 -0.4659 -0.3300
  867MOL0     C16912   4.344   2.692   1.998 -0.2521  1.2255  0.1458
  867MOL0     O16913   4.359   2.810   2.054 -0.3217 -0.1559 -0.2777
  867MOL0     C16914   4.478   2.869   2.041  0.2713  0.0074 -0.1487
  867MOL0     C16915   4.588   2.844   2.132  0.1871  0.3949 -0.5207
  867MOL0     C16916   4.712   2.921   2.119  0.0530  0.4929  0.0863
  867MOL0     C16917   4.719   3.019   2.029 -1.0978 -1.0310  0.4153
  867MOL0     O16918   4.818   3.114   2.008 -0.4654  0.3168 -0.1796
  867MOL0     C16919   4.938   3.082   2.074  0.1635  0.0730 -0.0670
  867MOL0     C16920   5.041   3.180   2.046 -0.3247  0.1124 -0.4418
  867MOL0     C16921   5.048   3.297   2.152 -0.5089  0.3134  0.4673
  867MOL0     C16922   5.107   3.248   2.286 -0.1525  0.2834  0.2763
  867MOL0     C16923   5.137   3.368   2.386  0.0783  0.1322  0.0319
  867MOL0     C16924   5.016   3.413   2.458  0.4102  0.3053  0.3613
  867MOL0     C16925   5.041   3.538   2.544  0.6301 -0.4033  0.4553
  867MOL0     C16926   5.115   3.514   2.679  0.7441  0.5473 -0.2507
  867MOL0     N16927   5.255   3.512   2.674 -0.5931  0.3415 -0.4004
  867MOL0     C16928   5.324   3.629   2.683 -0.3778 -1.0498 -0.0183
  867MOL0     C16929   5.449   3.581   2.710  0.0099 -0.7225 -0.2024
  867MOL0     C16930   5.569   3.673   2.750 -0.3112 -0.6357 -0.1748
  867MOL0     C16931   5.710   3.636   2.697  0.4653 -0.6541 -0.7232
  867MOL0     C16932   5.755   3.516   2.778  0.2316  0.3237  1.3049
  867MOL0     C16933   5.908   3.497   2.761  0.4769  0.5268  1.2665
  867MOL0     O16934   5.966   3.616   2.816 -0.5251  0.3918  0.7116
  867MOL0     C16935   6.102   3.625   2.822 -0.4562  0.3760  0.6796
  867MOL0     C16936   6.148   3.756   2.838 -0.3364  0.2593  0.1621
  867MOL0     C16937   6.285   3.785   2.829 -0.5895 -0.4663 -0.0939
  867MOL0     C16938   6.373   3.674   2.805 -0.3357  0.2428  0.0961
  867MOL0     C16939   6.522   3.698   2.804  0.5274 -0.7946 -0.0219
  867MOL0     O16940   6.568   3.828   2.819  0.1811 -0.9213 -0.5394
  867MOL0     C16941   6.697   3.855   2.861 -0.4792  0.1170 -0.4249
  867MOL0     C16942   6.728   3.939   2.966 -0.0918  1.5155  0.5384
  867MOL0     C16943   6.858   3.964   2.994 -0.4281 -0.2019 -0.9717
  867MOL0     C16944   6.972   3.900   2.930 -0.2190  0.2811  0.4307
  867MOL0     O16945   7.099   3.943   2.942 -0.0412  0.3976  0.8164
  867MOL0     C16946   7.157   3.977   3.065  0.4580 -0.0730 -0.0188
  867MOL0     C16947   7.305   3.947   3.083  0.2194  0.6143  0.7529
  867MOL0     C16948   7.384   4.042   3.007 -0.4108 -0.5944 -0.2401
  867MOL0     C16949   7.539   4.033   3.030  0.6484  0.3534 -0.0476
  867MOL0     C16950   7.627   4.104   2.927  0.7371  1.0100 -0.5451
  867MOL0     C16951   7.768   4.075   2.958  0.4419 -0.6956  0.8389
  867MOL0     C16952   7.874   4.128   2.858  0.5762 -0.4291 -0.5747
  867MOL0     C16953   8.008   4.060   2.862 -0.7404 -0.5861 -0.2249
  867MOL0    Cl16954   8.071   4.032   3.021  0.1295  0.0373 -0.1434
  867MOL0     C16955   6.940   3.821   2.819 -0.1610  1.1379 -0.1573
  867MOL0     C16956   6.800   3.804   2.787 -1.0575  0.1153  0.2618
  867MOL0     O16957   6.590   3.601   2.773  1.0595 -0.0338 -0.1901
  867MOL0     C16958   6.323   3.542   2.793  0.3075 -0.1631 -0.3458
  867MOL0     C16959   6.194   3.519   2.817  1.0851 -0.3991  1.2687
  867MOL0     N16960   5.448   3.448   2.706 -0.3838 -0.7719  0.5029
  867MOL0     N16961   5.334   3.402   2.684  0.2154  0.2043 -0.0749
  867MOL0     C16962   4.617   3.031   1.934 -0.0787  0.5272  0.5287
  867MOL0     C16963   4.498   2.956   1.941 -0.8076 -0.8014 -0.1111
  867MOL0     C16964   4.210   2.629   2.008 -0.1047 -0.0107 -0.2093
  867MOL0     C16965   4.103   2.722   1.979 -0.9010  0.2802  0.5000
  867MOL0     C16966   3.973   2.686   1.971 -0.2479 -0.0720  0.1597
  867MOL0     C16967   3.943   2.551   1.985  0.2477  0.2244  0.0975
  867MOL0     O16968   3.821   2.495   1.992  0.9956 -0.0562 -0.0152
  867MOL0     C16969   3.723   2.584   2.040  0.6515 -0.8339 -0.2356
  867MOL0     C16970   3.596   2.513   2.105 -0.4803  0.2492 -0.0512
  867MOL0     C16971   3.508   2.449   1.996  0.2678  1.3163  0.9532
  867MOL0     C16972   3.434   2.561   1.916  0.4482  0.5216 -0.0785
  867MOL0     C16973   3.312   2.513   1.847 -0.1455 -0.1968 -0.0090
  867MOL0     C16974   3.204   2.478   1.797  0.3359  0.2047 -0.9846
  867MOL0     C16975   4.043   2.453   2.005 -0.0465  0.2331 -0.8077
  867MOL0     C16976   4.178   2.496   2.021 -0.1138 -0.3045 -0.4435
  867MOL0     C16977   4.279   2.402   2.065  0.3334  0.1761  0.1494
  867MOL0     H16978   4.566   2.773   2.211  0.0196 -0.3186 -1.2037
  867MOL0     H16979   4.777   2.911   2.205 -3.5469 -1.0548  2.8955
  867MOL0     H16980   4.924   3.079   2.183 -0.4442  1.1766 -0.0959
  867MOL0     H16981   4.976   2.986   2.038  0.6614  1.3781 -3.3772
  867MOL0     H16982   5.029   3.229   1.949 -0.4734  1.3535  0.1918
  867MOL0     H16983   5.133   3.120   2.052  0.3184  1.2560  2.6841
  867MOL0     H16984   4.944   3.329   2.154 -0.9713 -0.9149 -1.3942
  867MOL0     H16985   5.110   3.373   2.103 -1.8928  0.4386 -1.1911
  867MOL0     H16986   5.040   3.173   2.329 -0.4199 -0.1371 -0.8530
  867MOL0     H16987   5.199   3.192   2.266  1.3993  2.7837 -0.1315
  867MOL0     H16988   5.213   3.333   2.456 -0.9320 -1.1975  0.5065
  867MOL0     H16989   5.180   3.450   2.328  1.1250  2.3151  3.6258
  867MOL0     H16990   4.946   3.456   2.386 -0.7603  0.0882  1.3316
  867MOL0     H16991   4.963   3.334   2.512 -1.4803 -0.0883 -1.8979
  867MOL0     H16992   4.944   3.577   2.576  0.4643 -2.3069  2.5003
  867MOL0     H16993   5.087   3.622   2.489 -0.4008 -1.8120 -2.8089
  867MOL0     H16994   5.074   3.588   2.748 -1.3563 -1.7115  1.1093
  867MOL0     H16995   5.090   3.421   2.731  3.2043  1.2168  2.3835
  867MOL0     H16996   5.280   3.728   2.686 -1.8097 -1.6366 -0.9174
  867MOL0     H16997   5.541   3.775   2.721  1.1475  0.3401  1.6097
  867MOL0     H16998   5.570   3.669   2.859  0.1329  0.4942 -0.1205
  867MOL0     H16999   5.714   3.618   2.589  0.2169 -0.3304 -0.7880
  867MOL0     H17000   5.772   3.725   2.712 -0.7691  0.4568 -1.9085
  867MOL0     H17001   5.722   3.418   2.741  0.1937  1.2970 -1.4576
  867MOL0     H17002   5.744   3.531   2.886 -0.0299 -1.6019  1.5887
  867MOL0     H17003   5.952   3.478   2.662  3.7975  0.4658  2.6497
  867MOL0     H17004   5.936   3.416   2.828 -0.4188  0.0816  1.1165
  867MOL0     H17005   6.074   3.835   2.833  1.1145  1.6030 -1.3682
  867MOL0     H17006   6.311   3.891   2.830 -3.1978  0.2402 -1.1519
  867MOL0     H17007   6.646   3.981   3.023 -2.4147 -0.2017 -1.3361
  867MOL0     H17008   6.872   4.031   3.079 -1.4884 -0.5841 -0.4845
  867MOL0     H17009   7.131   4.083   3.069 -2.8594 -0.5919 -3.2133
  867MOL0     H17010   7.102   3.922   3.142 -3.7193  1.2088 -1.8091
  867MOL0     H17011   7.332   3.948   3.189 -1.4780 -1.7362  1.2748
  867MOL0     H17012   7.323   3.845   3.048 -3.1961  0.4820 -1.0847
  867MOL0     H17013   7.376   4.028   2.899  1.4807 -2.0653 -0.2332
  867MOL0     H17014   7.359   4.146   3.030 -1.8990 -1.1082  0.6022
  867MOL0     H17015   7.568   3.927   3.026  3.0202  0.8453  1.6499
  867MOL0     H17016   7.569   4.069   3.129  0.2229  1.5974 -0.3481
  867MOL0     H17017   7.598   4.210   2.929 -1.9000  0.3583  0.3646
  867MOL0     H17018   7.604   4.058   2.831 -0.3959  0.0114  0.1798
  867MOL0     H17019   7.786   4.129   3.052  0.7883  2.6275 -0.9683
  867MOL0     H17020   7.790   3.968   2.959  0.7318 -0.6505 -0.0577
  867MOL0     H17021   7.892   4.235   2.873 -1.0847 -0.2732  0.5286
  867MOL0     H17022   7.828   4.127   2.759  0.0502  2.7615 -0.4881
  867MOL0     H17023   8.020   3.965   2.810  1.7149 -0.7831  0.5944
  867MOL0     H17024   8.082   4.124   2.815 -1.7211 -0.2401 -1.3415
  867MOL0     H17025   7.022   3.787   2.757  0.9146  1.3187  1.1397
  867MOL0     H17026   6.779   3.756   2.692 -2.7155  2.4568 -0.6494
  867MOL0     H17027   6.392   3.459   2.787  1.2169  0.6650 -2.3398
  867MOL0     H17028   6.160   3.416   2.805  1.7079 -0.4144 -0.7678
  867MOL0     H17029   4.606   3.122   1.876 -0.3028  0.1447 -0.0419
  867MOL0     H17030   4.421   2.961   1.864  0.8274  0.0950 -1.7779
  867MOL0     H17031   4.125   2.823   1.946  0.4129 -0.5353 -1.3191
  867MOL0     H17032   3.895   2.759   1.955  0.2835  0.8591  1.6618
  867MOL0     H17033   3.686   2.658   1.969  3.5640  0.0168 -0.9835
  867MOL0     H17034   3.766   2.637   2.126  0.9652  0.0043 -0.9036
  867MOL0     H17035   3.539   2.591   2.157  1.3289 -0.0258  2.5057
  867MOL0     H17036   3.626   2.440   2.180 -2.5181  0.1436  0.7150
  867MOL0     H17037   3.433   2.388   2.048 -3.2223  2.5646 -2.1407
  867MOL0     H17038   3.554   2.378   1.927  1.9101 -0.3040  3.5916
  867MOL0     H17039   3.413   2.646   1.982 -1.8650 -0.4326  0.5224
  867MOL0     H17040   3.503   2.590   1.837  0.1781  1.5531  0.0415
  867MOL0     H17041   3.118   2.436   1.749  1.3272  0.1549 -2.7990
  867MOL0     H17042   4.017   2.348   2.011  2.0780 -0.2913  0.0222
  867MOL0     H17043   4.372   2.451   2.095  0.5565 -1.0397  1.5244
  867MOL0     H17044   4.245   2.339   2.147 -1.2107  0.6555 -0.0743
  867MOL0     H17045   4.293   2.332   1.982  1.7273 -1.8242  1.9710
  868MOL0     O17046   5.998   6.617   4.964  0.1120  0.4251 -0.1671
  868MOL0     C17047   6.043   6.513   5.015 -0.7722 -0.0755  0.1852
  868MOL0     O17048   6.173   6.477   5.022  0.1522 -0.5205 -0.4910
  868MOL0     C17049   6.274   6.530   4.945  0.0487  0.0435  0.4010
  868MOL0     C17050   6.250   6.593   4.821 -0.9725  0.5586  1.4549
  868MOL0     C17051   6.354   6.670   4.770  0.1910  0.0249  0.5103
  868MOL0     C17052   6.477   6.684   4.833  0.2720 -0.7240 -0.6359
  868MOL0     O17053   6.573   6.754   4.765  0.2505  0.5133  0.6484
  868MOL0     C17054   6.683   6.818   4.838  0.5058  0.3645  0.7152
  868MOL0     C17055   6.778   6.877   4.745 -0.7127  0.1971  0.5019
  868MOL0     C17056   6.726   6.981   4.640  0.8393  0.0685 -0.1533
  868MOL0     C17057   6.647   7.098   4.701 -0.5108 -0.2198  0.4696
  868MOL0     C17058   6.734   7.210   4.761 -0.2245  0.2699  0.8213
  868MOL0     C17059   6.743   7.334   4.666 -0.1487  0.0949 -0.2019
  868MOL0     C17060   6.876   7.408   4.681 -0.9700 -0.1644 -0.2868
  868MOL0     C17061   6.890   7.540   4.605 -0.1332 -0.0825  0.3274
  868MOL0     N17062   7.002   7.615   4.664  0.0608  0.7530  0.2516
  868MOL0     C17063   7.011   7.672   4.790  0.9349 -1.2177  0.4094
  868MOL0     C17064   7.143   7.707   4.800  0.3006 -0.1210 -0.5398
  868MOL0     C17065   7.201   7.776   4.919 -0.9167 -0.7294 -0.3219
  868MOL0     C17066   7.339   7.723   4.967 -1.2668  0.1035  0.0886
  868MOL0     C17067   7.454   7.792   4.897 -0.1116 -0.4109 -0.3827
  868MOL0     C17068   7.588   7.741   4.948 -0.8808  0.4354  0.2982
  868MOL0     O17069   7.697   7.839   4.940 -0.3746  0.0435  0.3956
  868MOL0     C17070   7.798   7.807   5.020 -0.6554 -1.0300  0.3299
  868MOL0     C17071   7.865   7.680   5.012  0.8612  0.5266 -0.4424
  868MOL0     C17072   7.973   7.648   5.099 -0.0331 -0.1112  0.4274
  868MOL0     C17073   8.025   7.753   5.177 -1.2736 -0.0336 -0.0309
  868MOL0     C17074   8.142   7.728   5.264  1.0901  0.3944 -0.4283
  868MOL0     O17075   8.203   7.613   5.233  0.4677  0.6289  0.1924
  868MOL0     C17076   8.289   7.569   5.325  0.8415  1.8389  0.0216
  868MOL0     C17077   8.258   7.451   5.388  0.8425  0.1724 -0.3314
  868MOL0     C17078   8.352   7.381   5.468  0.8609 -1.1697  0.0700
  868MOL0     C17079   8.484   7.434   5.480  0.1022  0.4602 -0.2178
  868MOL0     O17080   8.587   7.364   5.539 -0.2126  0.5818 -0.2885
  868MOL0     C17081   8.579   7.221   5.526 -0.5932 -0.0443  0.6383
  868MOL0     C17082   8.696   7.159   5.444  0.2561 -0.5310 -0.5652
  868MOL0     C17083   8.831   7.179   5.517  0.1616 -0.9411  0.3552
  868MOL0     C17084   8.947   7.095   5.460 -0.6264 -0.2982  1.5883
  868MOL0     C17085   9.091   7.147   5.511 -0.4358 -0.4507 -0.3525
  868MOL0     C17086   9.145   7.270   5.421 -0.4792 -0.3636  0.3078
  868MOL0     C17087   9.285   7.301   5.472 -1.0501  0.4383 -0.3017
  868MOL0     C17088   9.391   7.366   5.382 -0.6012 -1.0346  0.1256
  868MOL0    Cl17089   9.544   7.312   5.452  0.1525  0.1753  0.0016
  868MOL0     C17090   8.509   7.556   5.413 -0.8563  0.6236  0.3002
  868MOL0     C17091   8.414   7.616   5.337  0.4532 -0.3923  0.6039
  868MOL0     O17092   8.162   7.789   5.366 -0.7834 -0.1353 -0.1364
  868MOL0     C17093   7.962   7.878   5.183 -0.3814 -0.2748 -0.6040
  868MOL0     C17094   7.848   7.901   5.108  0.3313 -0.8522 -0.1861
  868MOL0     N17095   7.204   7.693   4.675 -0.7531  0.0308  0.0010
  868MOL0     N17096   7.119   7.635   4.592  0.4567 -0.1635 -0.0204
  868MOL0     C17097   6.501   6.624   4.963  0.4050  0.7886  1.4539
  868MOL0     C17098   6.394   6.544   5.011  0.5828  0.1841  0.4553
  868MOL0     C17099   5.946   6.427   5.087  0.0423  0.4980  0.5422
  868MOL0     C17100   5.817   6.415   5.027 -0.0032  0.4328  0.4082
  868MOL0     C17101   5.722   6.333   5.081 -0.2650  0.4379 -0.1339
  868MOL0     C17102   5.761   6.248   5.192 -0.0883 -0.4302  0.4008
  868MOL0     O17103   5.665   6.168   5.256 -1.0340 -0.3795  0.0409
  868MOL0     C17104   5.632   6.041   5.195  0.5257 -0.5311  0.4690
  868MOL0     C17105   5.531   5.962   5.279  0.9019 -0.6070 -0.3840
  868MOL0     C17106   5.409   6.054   5.319 -0.4980  0.3101  0.3284
  868MOL0     C17107   5.289   5.968   5.376 -0.5582 -0.8394 -0.8490
  868MOL0     C17108   5.183   6.070   5.400 -0.2041 -0.2296  0.0342
  868MOL0     C17109   5.101   6.157   5.421 -0.0269 -0.0662  0.1694
  868MOL0     C17110   5.887   6.253   5.245  1.2093  0.6333  0.4450
  868MOL0     C17111   5.983   6.333   5.193 -0.1518  0.1638 -0.0833
  868MOL0     C17112   6.118   6.320   5.260 -0.5139 -0.4258 -0.3070
  868MOL0     H17113   6.154   6.571   4.776 -1.1761  2.1050  1.0684
  868MOL0     H17114   6.336   6.700   4.667 -1.4587 -0.7661  0.5232
  868MOL0     H17115   6.647   6.903   4.896 -1.5409  2.9925 -3.8651
  868MOL0     H17116   6.728   6.745   4.907 -3.1984 -0.7930  2.1563
  868MOL0     H17117   6.825   6.804   4.678  1.7398  0.7750  1.4735
  868MOL0     H17118   6.861   6.912   4.808 -0.6203 -2.4375  2.0011
  868MOL0     H17119   6.657   6.931   4.571  0.1809  1.7816 -0.7771
  868MOL0     H17120   6.814   7.032   4.601  1.1112  0.6800  1.2235
  868MOL0     H17121   6.574   7.146   4.635  1.1362  2.7510  0.6492
  868MOL0     H17122   6.590   7.045   4.778 -1.4673 -1.3397 -0.9538
  868MOL0     H17123   6.689   7.238   4.856 -0.8942  2.9660 -0.2123
  868MOL0     H17124   6.834   7.166   4.774  0.4056  1.2863 -0.3423
  868MOL0     H17125   6.739   7.299   4.563 -0.4001  0.3883 -0.2944
  868MOL0     H17126   6.663   7.406   4.688 -1.3939 -1.0751 -0.7609
  868MOL0     H17127   6.956   7.339   4.654  2.3645  2.0635  2.8860
  868MOL0     H17128   6.891   7.427   4.788  1.8476 -0.1991 -0.5865
  868MOL0     H17129   6.893   7.539   4.496  0.4870  0.8130  0.3267
  868MOL0     H17130   6.806   7.606   4.628 -1.0077  0.2238 -3.1600
  868MOL0     H17131   6.946   7.687   4.875  1.2341 -0.0231  0.4453
  868MOL0     H17132   7.208   7.884   4.900 -2.3580 -0.4917  0.3735
  868MOL0     H17133   7.132   7.764   5.003 -2.9664  0.0821 -1.7911
  868MOL0     H17134   7.353   7.751   5.072  2.4755 -1.8954  0.3070
  868MOL0     H17135   7.351   7.615   4.956 -1.7244 -0.0562  1.0461
  868MOL0     H17136   7.438   7.898   4.919 -0.8287 -0.7346  0.7642
  868MOL0     H17137   7.450   7.791   4.788  0.2002  0.8022 -0.4134
  868MOL0     H17138   7.615   7.652   4.891  2.2765 -0.2032  2.5065
  868MOL0     H17139   7.582   7.694   5.047 -2.2859 -1.5833 -0.6747
  868MOL0     H17140   7.832   7.605   4.940 -2.2855  2.8081 -1.5862
  868MOL0     H17141   8.015   7.548   5.103  2.0316  0.5284 -2.5390
  868MOL0     H17142   8.163   7.406   5.362  1.4158 -1.2282 -0.1050
  868MOL0     H17143   8.315   7.300   5.530 -0.0602  2.1113  4.3548
  868MOL0     H17144   8.583   7.176   5.626  3.9897  2.2213  1.7323
  868MOL0     H17145   8.489   7.185   5.475 -0.7289  0.3003  0.6367
  868MOL0     H17146   8.658   7.056   5.443 -3.2043  0.4507  2.6002
  868MOL0     H17147   8.699   7.200   5.343  0.4060 -1.3647 -0.9025
  868MOL0     H17148   8.852   7.286   5.516 -2.4441 -0.2101  3.9462
  868MOL0     H17149   8.816   7.145   5.620 -2.1555  0.3526  0.5060
  868MOL0     H17150   8.957   7.096   5.351  0.1285 -1.0380  1.6390
  868MOL0     H17151   8.929   6.991   5.488 -0.1978 -0.0852  2.7062
  868MOL0     H17152   9.161   7.063   5.513 -0.8443 -0.8146  1.9228
  868MOL0     H17153   9.083   7.177   5.616 -0.5004  0.6750 -0.6644
  868MOL0     H17154   9.152   7.236   5.317 -2.2505  1.0445 -0.3317
  868MOL0     H17155   9.089   7.364   5.424  0.7551  0.6766 -3.1698
  868MOL0     H17156   9.334   7.210   5.508 -0.6053  0.0220 -1.8416
  868MOL0     H17157   9.273   7.358   5.564 -1.0468  0.0535 -0.0594
  868MOL0     H17158   9.384   7.345   5.275 -2.2974 -0.4064  0.0769
  868MOL0     H17159   9.380   7.475   5.379  0.7605 -0.8863 -2.3560
  868MOL0     H17160   8.615   7.578   5.419 -1.0888  1.4181  2.6917
  868MOL0     H17161   8.442   7.702   5.277  1.0488 -2.0933 -1.6928
  868MOL0     H17162   7.993   7.950   5.258  0.9052 -0.9593 -0.4538
  868MOL0     H17163   7.808   8.001   5.102 -0.3089 -1.1832 -3.5175
  868MOL0     H17164   6.594   6.626   5.019 -0.6133 -0.8924  3.3486
  868MOL0     H17165   6.399   6.496   5.108  0.8853 -2.0646 -0.5939
  868MOL0     H17166   5.788   6.484   4.948 -3.3184 -0.6383  0.5467
  868MOL0     H17167   5.622   6.299   5.054 -0.1119 -1.5589  1.5169
  868MOL0     H17168   5.732   5.997   5.181  2.4850  3.6834 -0.4085
  868MOL0     H17169   5.599   6.049   5.091  1.4947  0.0382  0.1880
  868MOL0     H17170   5.581   5.926   5.369  1.0681  2.2803  0.8001
  868MOL0     H17171   5.498   5.878   5.218  1.8474 -0.8098 -0.6335
  868MOL0     H17172   5.374   6.114   5.234 -1.9853 -0.4572  0.3716
  868MOL0     H17173   5.443   6.120   5.399  0.3514  0.0629  0.1907
  868MOL0     H17174   5.271   5.891   5.300 -0.0394 -0.0679 -1.7712
  868MOL0     H17175   5.318   5.924   5.472  0.2929 -0.1311 -0.7702
  868MOL0     H17176   5.019   6.220   5.448 -1.6312 -1.6640 -0.7676
  868MOL0     H17177   5.908   6.187   5.329  0.9484 -0.1132 -0.0764
  868MOL0     H17178   6.162   6.420   5.269  0.5960 -0.7456 -1.8630
  868MOL0     H17179   6.114   6.267   5.356 -0.2424 -1.0526 -0.6361
  868MOL0     H17180   6.183   6.266   5.190  0.0143 -0.3686  0.1272
  869MOL0     O17181   5.624   0.649   5.381 -0.3079  0.6294 -0.3222
  869MOL0     C17182   5.720   0.585   5.327  0.3536  0.8871 -0.7636
  869MOL0     O17183   5.810   0.635   5.242  0.0655 -0.2964 -1.0850
  869MOL0     C17184   5.900   0.552   5.190 -0.7088  0.0838 -0.3771
  869MOL0     C17185   5.874   0.477   5.073  0.7260 -0.4919 -0.1505
  869MOL0     C17186   5.960   0.386   5.025  0.3723  0.5137  0.1447
  869MOL0     C17187   6.078   0.359   5.100  0.2278  0.6447 -0.3011
  869MOL0     O17188   6.172   0.258   5.071 -0.0791  1.0554  0.1789
  869MOL0     C17189   6.130   0.157   4.983  0.4493 -0.5914  0.2990
  869MOL0     C17190   6.209   0.026   5.039  0.0424  0.1558 -0.7077
  869MOL0     C17191   6.135  -0.014   5.167 -0.1919 -0.4955  0.5235
  869MOL0     C17192   6.189  -0.150   5.232 -0.2236  0.4754  0.3914
  869MOL0     C17193   6.100  -0.188   5.344  1.7540  0.7306 -0.7091
  869MOL0     C17194   6.106  -0.076   5.450  0.7662  0.2313  0.0345
  869MOL0     C17195   6.053  -0.131   5.587 -0.4424 -0.0310 -0.0466
  869MOL0     C17196   5.907  -0.169   5.568 -0.0995 -0.0962  0.5608
  869MOL0     N17197   5.851  -0.229   5.680  0.1676 -0.3725  0.3370
  869MOL0     C17198   5.854  -0.359   5.701  0.4404  0.6318  0.2631
  869MOL0     C17199   5.795  -0.383   5.824  0.4003  0.2793 -1.4590
  869MOL0     C17200   5.801  -0.515   5.905  0.2327  0.4424  0.7410
  869MOL0     C17201   5.940  -0.538   5.955 -0.5099  0.3888  0.2711
  869MOL0     C17202   6.032  -0.618   5.862  0.0077 -0.9839 -0.0205
  869MOL0     C17203   6.165  -0.629   5.936  0.7694 -0.1262 -0.2142
  869MOL0     O17204   6.258  -0.665   5.840  0.3200 -1.1589  0.0888
  869MOL0     C17205   6.381  -0.705   5.891  0.4332 -0.4532  0.4195
  869MOL0     C17206   6.438  -0.679   6.018 -0.5290  0.0928  0.5597
  869MOL0     C17207   6.559  -0.743   6.053 -0.0570  0.0920 -0.3516
  869MOL0     C17208   6.620  -0.843   5.969 -0.1411  0.1499 -0.4924
  869MOL0     C17209   6.740  -0.922   6.016  0.4372  0.4113  0.3409
  869MOL0     O17210   6.814  -0.989   5.929  0.1357 -0.4465 -0.8816
  869MOL0     C17211   6.929  -1.042   5.979 -0.3353  0.0272  0.3784
  869MOL0     C17212   6.963  -1.179   5.971 -0.5922  0.1281  0.9885
  869MOL0     C17213   7.088  -1.215   6.025  0.2015 -0.4919 -0.4521
  869MOL0     C17214   7.172  -1.123   6.081  0.8112  0.2382  0.3383
  869MOL0     O17215   7.283  -1.172   6.121 -0.4411 -0.1700 -0.7753
  869MOL0     C17216   7.394  -1.097   6.143 -0.8410  0.0523  0.2544
  869MOL0     C17217   7.448  -0.996   6.035  0.8577  0.4211 -0.8375
  869MOL0     C17218   7.452  -1.041   5.885 -1.0162 -0.7846  0.3027
  869MOL0     C17219   7.510  -0.934   5.804  0.5422 -0.3696  0.2652
  869MOL0     C17220   7.470  -0.949   5.657  0.6978  0.0690 -0.5746
  869MOL0     C17221   7.509  -0.821   5.575 -0.5463  0.0740 -0.5454
  869MOL0     C17222   7.665  -0.790   5.559 -0.0281 -0.1213 -0.1862
  869MOL0     C17223   7.693  -0.703   5.434 -0.6441  0.0490 -0.5160
  869MOL0    Cl17224   7.861  -0.639   5.413  0.3023  0.2456  0.2189
  869MOL0     C17225   7.139  -0.989   6.079 -1.0693  0.3212  0.2227
  869MOL0     C17226   7.023  -0.945   6.012  0.1615  0.4735 -0.1546
  869MOL0     O17227   6.764  -0.916   6.131  0.0005  0.0148 -0.4629
  869MOL0     C17228   6.572  -0.860   5.840 -0.3893  0.2696 -0.1685
  869MOL0     C17229   6.455  -0.789   5.803 -0.5741  0.7358  0.3192
  869MOL0     N17230   5.755  -0.253   5.868 -0.3945 -0.4490  0.6975
  869MOL0     N17231   5.789  -0.161   5.785  0.4417 -0.6045 -0.0927
  869MOL0     C17232   6.109   0.436   5.214  0.3188 -0.3064  0.4710
  869MOL0     C17233   6.020   0.537   5.263 -0.1632 -0.5671  0.6556
  869MOL0     C17234   5.705   0.435   5.341 -0.3709  0.9621 -0.1078
  869MOL0     C17235   5.786   0.362   5.420 -0.3013 -0.3054  0.5539
  869MOL0     C17236   5.777   0.219   5.424 -0.1921 -0.5439 -0.4766
  869MOL0     C17237   5.682   0.148   5.345 -0.0605 -0.0370 -0.1396
  869MOL0     O17238   5.683   0.006   5.337  0.0600  0.0285 -0.7301
  869MOL0     C17239   5.607  -0.073   5.241  0.1868  0.2067 -0.3909
  869MOL0     C17240   5.619  -0.224   5.259 -0.0009 -0.0386  0.3123
  869MOL0     C17241   5.574  -0.267   5.403  0.6397  0.4372 -0.7128
  869MOL0     C17242   5.590  -0.417   5.436  0.1918 -0.0188  0.0923
  869MOL0     C17243   5.509  -0.504   5.349 -0.4819 -0.6034  1.6477
  869MOL0     C17244   5.445  -0.589   5.287 -0.6461 -1.1891 -0.1750
  869MOL0     C17245   5.604   0.221   5.256 -0.4548 -1.1419 -0.1274
  869MOL0     C17246   5.611   0.363   5.264  0.3477  0.3301 -0.6415
  869MOL0     C17247   5.521   0.436   5.172 -0.3734  0.0004  0.9187
  869MOL0     H17248   5.787   0.502   5.013  1.7023  1.8130 -0.6990
  869MOL0     H17249   5.914   0.333   4.942 -0.9935  0.6298  0.7985
  869MOL0     H17250   6.026   0.127   5.002  0.4864 -1.6273 -0.9908
  869MOL0     H17251   6.169   0.170   4.881 -0.6620  1.4213  0.0893
  869MOL0     H17252   6.312   0.054   5.065 -0.0396  0.4757 -0.7200
  869MOL0     H17253   6.212  -0.050   4.961  1.5579  1.0506 -1.5829
  869MOL0     H17254   6.029  -0.030   5.147 -0.5858 -0.9631  2.6824
  869MOL0     H17255   6.142   0.070   5.237 -0.5441  1.0393 -1.2166
  869MOL0     H17256   6.184  -0.229   5.157 -0.3351  0.1171  0.7758
  869MOL0     H17257   6.293  -0.156   5.264 -0.4287 -0.1944  0.9401
  869MOL0     H17258   6.000  -0.199   5.301  2.7792 -0.5389 -2.9489
  869MOL0     H17259   6.130  -0.285   5.386  0.4589  1.0643  1.0933
  869MOL0     H17260   6.208  -0.037   5.459 -0.7625  4.3531  2.2309
  869MOL0     H17261   6.048   0.011   5.420 -2.3029 -0.0216  4.3390
  869MOL0     H17262   6.066  -0.056   5.665 -1.3051  1.6308 -1.4341
  869MOL0     H17263   6.115  -0.212   5.627  0.6504  1.0205  0.4461
  869MOL0     H17264   5.839  -0.090   5.535 -2.1467 -1.7869  0.5028
  869MOL0     H17265   5.903  -0.240   5.485  0.3484 -0.0506  0.4985
  869MOL0     H17266   5.902  -0.432   5.638 -0.6330  2.0436 -2.3243
  869MOL0     H17267   5.737  -0.516   5.994  1.6978  1.4272  1.8465
  869MOL0     H17268   5.755  -0.595   5.845 -2.4045 -0.2854  3.4995
  869MOL0     H17269   5.981  -0.437   5.964 -1.4921  0.9671 -1.2970
  869MOL0     H17270   5.943  -0.575   6.058  2.2535 -1.6276 -0.3852
  869MOL0     H17271   6.049  -0.567   5.767 -2.4294  0.6102  0.3129
  869MOL0     H17272   5.996  -0.721   5.851 -1.3646 -0.4444 -0.8631
  869MOL0     H17273   6.155  -0.700   6.018 -1.6542  1.2000  0.7455
  869MOL0     H17274   6.188  -0.530   5.976 -3.3294  1.3578 -1.0184
  869MOL0     H17275   6.386  -0.616   6.089 -0.3641  1.4385 -0.4817
  869MOL0     H17276   6.599  -0.721   6.152  0.1511 -1.7608  0.0089
  869MOL0     H17277   6.908  -1.259   5.923  2.2365 -0.7863 -1.0112
  869MOL0     H17278   7.117  -1.319   6.038 -1.0100 -1.0717 -2.0258
  869MOL0     H17279   7.379  -1.064   6.246  0.3516  0.3856  0.3436
  869MOL0     H17280   7.480  -1.164   6.153  0.2951  1.5544  1.0859
  869MOL0     H17281   7.379  -0.911   6.039  1.6633  1.0211  0.8724
  869MOL0     H17282   7.543  -0.959   6.074  0.8933  0.8637 -1.3329
  869MOL0     H17283   7.507  -1.136   5.882 -2.1114 -1.4188 -0.2022
  869MOL0     H17284   7.355  -1.063   5.839 -0.5850  0.1328 -1.1193
  869MOL0     H17285   7.619  -0.936   5.814  0.3790 -1.0262  2.2749
  869MOL0     H17286   7.476  -0.839   5.846  1.2874  0.1820 -0.3548
  869MOL0     H17287   7.362  -0.965   5.655  0.7497 -1.2002  2.2856
  869MOL0     H17288   7.513  -1.042   5.618 -0.7043  0.1257 -2.3266
  869MOL0     H17289   7.470  -0.815   5.473  0.4897  0.5092 -0.9314
  869MOL0     H17290   7.459  -0.738   5.625  1.4007  0.9566  0.0424
  869MOL0     H17291   7.730  -0.878   5.550  1.7646  1.3485 -3.0616
  869MOL0     H17292   7.705  -0.730   5.642  3.3602  1.1069 -2.4749
  869MOL0     H17293   7.676  -0.781   5.360 -2.4791  0.9440 -1.1015
  869MOL0     H17294   7.631  -0.613   5.437  0.7595  1.0390  0.0374
  869MOL0     H17295   7.192  -0.911   6.132 -0.8338  0.8208 -0.7281
  869MOL0     H17296   6.985  -0.844   6.023 -0.8563  0.2824 -1.7651
  869MOL0     H17297   6.617  -0.927   5.767  2.5519 -0.4486  2.0960
  869MOL0     H17298   6.398  -0.797   5.711 -1.6491  5.0127  0.4061
  869MOL0     H17299   6.192   0.413   5.280 -0.8978 -2.1508  1.4405
  869MOL0     H17300   6.043   0.603   5.347  0.7328  1.5228 -1.1134
  869MOL0     H17301   5.853   0.402   5.496 -1.3920  0.1700  1.3050
  869MOL0     H17302   5.844   0.160   5.485 -0.3247 -0.2929 -0.0843
  869MOL0     H17303   5.632  -0.050   5.137  2.0369 -3.3341 -0.8992
  869MOL0     H17304   5.501  -0.054   5.257 -0.1072 -0.9678 -0.8539
  869MOL0     H17305   5.720  -0.256   5.232  0.2298  0.9308 -0.0189
  869MOL0     H17306   5.553  -0.273   5.187 -1.6174  2.9216 -0.3844
  869MOL0     H17307   5.467  -0.248   5.404  0.9009  2.3470  1.9616
  869MOL0     H17308   5.628  -0.204   5.474  0.0552 -1.0895  1.1759
  869MOL0     H17309   5.695  -0.445   5.426 -0.0449 -0.9579  0.1189
  869MOL0     H17310   5.564  -0.432   5.541  0.7979 -0.3860  0.1972
  869MOL0     H17311   5.385  -0.667   5.244 -0.9669 -0.7038 -0.6091
  869MOL0     H17312   5.542   0.167   5.186 -1.2017  1.1934 -1.3516
  869MOL0     H17313   5.433   0.481   5.219  0.4008  3.6178 -0.7251
  869MOL0     H17314   5.564   0.521   5.118 -2.2470  1.4341  1.5436
  869MOL0     H17315   5.486   0.361   5.101  0.2535  0.5014  0.0671
  870MOL0     O17316   9.741   1.187   0.324  0.4093 -0.1081 -0.2937
  870MOL0     C17317   9.709   1.281   0.247  0.7031  0.1077  0.4390
  870MOL0     O17318   9.765   1.312   0.130 -0.6917 -0.4315  0.7948
  870MOL0     C17319   9.874   1.242   0.081 -0.4784  0.5437  0.2659
  870MOL0     C17320   9.978   1.193   0.161  0.0264 -1.0036 -0.6960
  870MOL0     C17321  10.080   1.123   0.096  0.4559  0.7021  0.7909
  870MOL0     C17322  10.077   1.103  -0.043 -0.2391  0.4970  0.2226
  870MOL0     O17323  10.185   1.028  -0.099 -0.2428  0.8153 -0.3748
  870MOL0     C17324  10.167   0.985  -0.239  0.1314 -0.5552 -0.0079
  870MOL0     C17325  10.283   0.894  -0.275 -0.3804  0.2588  0.3041
  870MOL0     C17326  10.422   0.955  -0.292  0.0730 -0.1202 -0.2849
  870MOL0     C17327  10.533   0.857  -0.292  0.5609 -0.2258 -0.9461
  870MOL0     C17328  10.664   0.933  -0.285 -0.2890  0.4391  1.3774
  870MOL0     C17329  10.791   0.839  -0.269  0.1773 -0.7789  0.2501
  870MOL0     C17330  10.828   0.788  -0.406 -0.1295  0.4446 -0.1335
  870MOL0     C17331  10.910   0.657  -0.395  0.1732  0.0493 -0.3899
  870MOL0     N17332  11.036   0.671  -0.317  0.2933 -0.2009 -0.4452
  870MOL0     C17333  11.165   0.663  -0.367  0.0591 -0.6547  0.8788
  870MOL0     C17334  11.245   0.681  -0.262 -0.3855 -0.1121 -0.3955
  870MOL0     C17335  11.390   0.654  -0.276 -1.0059 -0.6342 -0.1083
  870MOL0     C17336  11.438   0.507  -0.278  0.3880 -0.2116 -0.4594
  870MOL0     C17337  11.592   0.503  -0.275 -0.3097 -0.5513 -0.2462
  870MOL0     C17338  11.657   0.558  -0.393  0.9829  0.6808  0.8970
  870MOL0     O17339  11.800   0.560  -0.378 -0.0909 -1.0139 -0.0397
  870MOL0     C17340  11.879   0.461  -0.440  0.4407 -0.0155 -0.1977
  870MOL0     C17341  12.014   0.488  -0.441  0.1719 -0.7921 -0.1013
  870MOL0     C17342  12.094   0.394  -0.501  0.1522 -0.1254 -0.5087
  870MOL0     C17343  12.047   0.268  -0.548 -0.2412  0.0856 -0.3684
  870MOL0     C17344  12.146   0.173  -0.602 -0.3362 -1.1111 -1.3561
  870MOL0     O17345  12.105   0.052  -0.663  0.2154 -0.3302  0.2382
  870MOL0     C17346  12.175  -0.025  -0.752 -1.2705  0.5210 -0.6286
  870MOL0     C17347  12.117  -0.144  -0.778  0.8947  0.5867 -0.1442
  870MOL0     C17348  12.164  -0.233  -0.869 -0.1442 -0.1923  0.5673
  870MOL0     C17349  12.289  -0.212  -0.931 -0.5467  0.0721 -0.5660
  870MOL0     O17350  12.367  -0.293  -1.013  0.0184 -0.2764 -0.7587
  870MOL0     C17351  12.292  -0.385  -1.086 -0.2608 -0.6738 -0.0378
  870MOL0     C17352  12.382  -0.448  -1.194  0.1862  0.2977  0.2620
  870MOL0     C17353  12.305  -0.520  -1.308  0.5639  0.4177 -0.3789
  870MOL0     C17354  12.200  -0.432  -1.375  0.0112  0.1613 -0.0941
  870MOL0     C17355  12.164  -0.497  -1.509  0.1690  1.0793 -0.2906
  870MOL0     C17356  12.104  -0.640  -1.495  0.2698  0.1654  0.8347
  870MOL0     C17357  12.065  -0.720  -1.631  0.1720 -0.0672  0.2582
  870MOL0     C17358  11.969  -0.844  -1.617  0.3175 -0.3983 -1.2387
  870MOL0    Cl17359  12.071  -0.968  -1.529 -0.3852  0.4342 -0.5620
  870MOL0     C17360  12.351  -0.083  -0.904 -0.5245  0.0618 -0.2471
  870MOL0     C17361  12.299   0.006  -0.811 -0.0478 -0.6119 -0.2082
  870MOL0     O17362  12.261   0.211  -0.592  0.4171  0.5722  0.1116
  870MOL0     C17363  11.909   0.239  -0.539 -0.3173  0.0374  0.7444
  870MOL0     C17364  11.830   0.343  -0.491  1.1746 -0.8985  0.2537
  870MOL0     N17365  11.171   0.705  -0.148  0.0326  1.2940 -0.1687
  870MOL0     N17366  11.049   0.698  -0.176 -0.7367 -0.0400  0.2437
  870MOL0     C17367   9.970   1.151  -0.118  0.1737 -0.2857  0.0729
  870MOL0     C17368   9.871   1.219  -0.057  0.5544  0.0637 -0.1586
  870MOL0     C17369   9.588   1.360   0.282  0.7700 -0.5900  0.4460
  870MOL0     C17370   9.531   1.346   0.410 -0.4943  0.1478 -0.0373
  870MOL0     C17371   9.418   1.420   0.455 -0.4294  0.6903 -0.7991
  870MOL0     C17372   9.341   1.493   0.369 -0.4391  0.2943 -0.2389
  870MOL0     O17373   9.232   1.557   0.425  0.2972  0.6095 -0.4408
  870MOL0     C17374   9.135   1.598   0.325 -0.6089 -0.9694 -0.6100
  870MOL0     C17375   9.004   1.620   0.403 -0.4224 -0.5502  0.1626
  870MOL0     C17376   8.885   1.639   0.311  0.6630  0.3400 -0.4463
  870MOL0     C17377   8.755   1.576   0.375  0.4630 -0.2484 -0.0761
  870MOL0     C17378   8.708   1.645   0.494  0.4578  0.7716  0.7285
  870MOL0     C17379   8.693   1.704   0.597 -0.0456 -0.1988 -0.0996
  870MOL0     C17380   9.400   1.523   0.248 -0.5106 -0.3131 -0.7011
  870MOL0     C17381   9.527   1.465   0.204  0.0590 -0.2302 -0.1009
  870MOL0     C17382   9.576   1.512   0.064  0.3193 -0.8053  0.0728
  870MOL0     H17383   9.989   1.212   0.268 -2.4427  2.0056 -0.8282
  870MOL0     H17384  10.164   1.092   0.157 -0.2373 -1.8896  0.5804
  870MOL0     H17385  10.075   0.926  -0.234  1.0467 -2.1806 -1.2922
  870MOL0     H17386  10.160   1.072  -0.305 -0.4729 -0.6784 -0.1202
  870MOL0     H17387  10.261   0.842  -0.369  3.8649 -0.8826 -0.2706
  870MOL0     H17388  10.296   0.819  -0.196 -0.2194 -2.1409 -1.8733
  870MOL0     H17389  10.437   1.026  -0.210  1.8087 -1.3188  0.4873
  870MOL0     H17390  10.421   1.003  -0.390 -0.8549  0.2146 -0.1172
  870MOL0     H17391  10.514   0.789  -0.208 -0.3144  0.2593 -0.7319
  870MOL0     H17392  10.541   0.791  -0.379  1.6333 -0.0057 -1.0205
  870MOL0     H17393  10.670   0.992  -0.377 -0.8504 -2.0519 -0.3535
  870MOL0     H17394  10.672   1.000  -0.198 -2.8255 -0.5391  2.4723
  870MOL0     H17395  10.876   0.889  -0.221 -0.5848  2.7258 -1.6836
  870MOL0     H17396  10.759   0.752  -0.210  2.4456 -1.1060  1.0884
  870MOL0     H17397  10.889   0.866  -0.451 -1.1478  0.7953 -0.9590
  870MOL0     H17398  10.737   0.781  -0.466 -1.1348  1.2144  1.2364
  870MOL0     H17399  10.853   0.581  -0.341  0.1055 -0.7038 -1.4902
  870MOL0     H17400  10.932   0.637  -0.500 -0.8994  2.5953 -1.1973
  870MOL0     H17401  11.183   0.643  -0.472  1.5251 -0.1082  1.0055
  870MOL0     H17402  11.405   0.705  -0.372  0.7127  0.6910  0.8219
  870MOL0     H17403  11.458   0.717  -0.220  1.5500 -1.9718 -1.4974
  870MOL0     H17404  11.394   0.459  -0.190  0.8950  0.6424  0.2859
  870MOL0     H17405  11.404   0.448  -0.364 -2.3291  0.3433  0.1535
  870MOL0     H17406  11.630   0.401  -0.265 -2.9762 -1.4864  1.6718
  870MOL0     H17407  11.638   0.545  -0.184  0.3960 -0.7537 -0.5034
  870MOL0     H17408  11.630   0.660  -0.421 -0.4407 -0.4972 -2.7059
  870MOL0     H17409  11.618   0.507  -0.482 -0.3378  1.2384  1.1345
  870MOL0     H17410  12.067   0.577  -0.407 -2.4826  1.1735 -0.8252
  870MOL0     H17411  12.196   0.431  -0.504 -0.1247  0.8662  1.2733
  870MOL0     H17412  12.030  -0.167  -0.716  0.5211  1.4107 -0.3535
  870MOL0     H17413  12.105  -0.321  -0.895 -1.4517  1.1471 -1.2364
  870MOL0     H17414  12.249  -0.469  -1.029 -2.9189 -1.8602 -3.4446
  870MOL0     H17415  12.205  -0.334  -1.128 -1.2596 -0.2153  2.4364
  870MOL0     H17416  12.448  -0.372  -1.236  0.1172 -1.0844 -2.6163
  870MOL0     H17417  12.442  -0.523  -1.143 -2.3475 -1.4828  0.8311
  870MOL0     H17418  12.376  -0.554  -1.385  0.0054 -1.8867  0.0653
  870MOL0     H17419  12.258  -0.613  -1.275  3.0887 -0.4568  0.9890
  870MOL0     H17420  12.254  -0.344  -1.412  2.5870 -1.9967 -1.9339
  870MOL0     H17421  12.107  -0.425  -1.319  0.6509  3.1635  0.7744
  870MOL0     H17422  12.254  -0.500  -1.571  0.3759 -2.2276 -0.0516
  870MOL0     H17423  12.088  -0.435  -1.557  1.5403  2.6534 -0.5026
  870MOL0     H17424  12.188  -0.706  -1.474  1.3468  1.0123 -0.6109
  870MOL0     H17425  12.022  -0.642  -1.423  0.2078 -0.6611  0.7558
  870MOL0     H17426  12.155  -0.767  -1.671 -1.5064 -0.2943 -3.7271
  870MOL0     H17427  12.029  -0.654  -1.710  0.0381 -0.5399 -0.0811
  870MOL0     H17428  11.878  -0.820  -1.563 -0.6009 -4.2219 -0.8012
  870MOL0     H17429  11.941  -0.876  -1.718 -3.1076  0.0650 -0.5412
  870MOL0     H17430  12.452  -0.070  -0.939  0.7523 -4.1808  1.2091
  870MOL0     H17431  12.336   0.105  -0.784 -0.6892 -0.8249  1.6052
  870MOL0     H17432  11.879   0.137  -0.559 -2.4834  0.2905  2.3642
  870MOL0     H17433  11.726   0.312  -0.484  0.3164  1.4397 -1.2788
  870MOL0     H17434   9.953   1.138  -0.225 -0.2660  0.4583  0.0436
  870MOL0     H17435   9.789   1.262  -0.115  1.0757 -0.5749 -1.3869
  870MOL0     H17436   9.578   1.272   0.474 -0.5410 -1.1600 -1.4418
  870MOL0     H17437   9.383   1.412   0.557  1.1741  0.4727 -0.2382
  870MOL0     H17438   9.116   1.525   0.246 -0.9049 -0.6826 -0.8067
  870MOL0     H17439   9.163   1.688   0.271 -4.1403 -0.8613 -2.5805
  870MOL0     H17440   9.013   1.713   0.461 -2.1530  0.2702 -0.8026
  870MOL0     H17441   8.999   1.534   0.471  1.3949 -1.4047 -0.7252
  870MOL0     H17442   8.902   1.583   0.218  1.3248  0.7883 -0.5996
  870MOL0     H17443   8.868   1.744   0.287  2.4010  1.2019  1.7589
  870MOL0     H17444   8.668   1.594   0.311  1.1052 -0.5892 -1.0756
  870MOL0     H17445   8.765   1.467   0.383  1.0325 -0.1635  0.4363
  870MOL0     H17446   8.663   1.768   0.677 -0.5055  3.1464 -2.7459
  870MOL0     H17447   9.353   1.605   0.194 -0.0696  1.2568  1.1772
  870MOL0     H17448   9.572   1.430  -0.008  0.6725 -1.6140  0.9551
  870MOL0     H17449   9.499   1.581   0.028 -1.6754 -1.9384  1.9323
  870MOL0     H17450   9.676   1.549   0.089  0.8515 -3.5721  2.5636
  871MOL0     O17451   9.841   2.989   4.129 -0.1267  0.4358  0.6105
  871MOL0     C17452   9.735   3.037   4.153  0.6363 -0.0121  0.1277
  871MOL0     O17453   9.713   3.177   4.140  1.1954  0.1749 -0.3048
  871MOL0     C17454   9.817   3.253   4.115  0.1355 -0.5419  0.2398
  871MOL0     C17455   9.931   3.257   4.199  0.2960  0.1333  0.7234
  871MOL0     C17456  10.048   3.321   4.168 -0.1294 -0.6981  0.4657
  871MOL0     C17457  10.046   3.406   4.048 -0.4818  0.4017  0.2364
  871MOL0     O17458  10.160   3.466   4.020  0.2537 -0.1211  0.7553
  871MOL0     C17459  10.190   3.471   3.877  0.4890 -0.7399 -0.7702
  871MOL0     C17460  10.329   3.518   3.873 -0.5584 -0.7564  0.2154
  871MOL0     C17461  10.390   3.497   3.732 -0.0873 -0.4345  1.2104
  871MOL0     C17462  10.377   3.621   3.635  0.3822 -0.5843 -0.2070
  871MOL0     C17463  10.488   3.625   3.531 -0.0693 -0.2999  0.4384
  871MOL0     C17464  10.508   3.501   3.445 -0.0937 -0.0226 -0.2105
  871MOL0     C17465  10.631   3.504   3.359 -0.3843  0.0189  0.2274
  871MOL0     C17466  10.761   3.521   3.432  0.0591 -0.7402 -0.0948
  871MOL0     N17467  10.879   3.514   3.345 -0.1943  0.6569 -0.4282
  871MOL0     C17468  10.899   3.412   3.251  0.6036 -0.2252  0.2964
  871MOL0     C17469  11.015   3.449   3.196 -0.9475 -0.1361  0.7716
  871MOL0     C17470  11.096   3.385   3.086  0.3881  0.2194 -1.0807
  871MOL0     C17471  11.110   3.231   3.107  0.9874 -0.0460  0.2237
  871MOL0     C17472  11.191   3.146   3.000  0.1949 -0.6691  0.0189
  871MOL0     C17473  11.341   3.172   3.009  0.3238 -0.8338  0.1215
  871MOL0     O17474  11.410   3.057   2.946 -0.1105 -0.3731  0.0324
  871MOL0     C17475  11.489   2.965   3.017 -0.2042 -0.1468  0.5362
  871MOL0     C17476  11.479   2.944   3.155 -0.0379 -0.0392  0.6654
  871MOL0     C17477  11.565   2.846   3.208  0.6484  0.1968 -1.7727
  871MOL0     C17478  11.636   2.763   3.125 -0.3908 -0.9255  0.1077
  871MOL0     C17479  11.718   2.654   3.178 -0.4666 -0.3249  0.7681
  871MOL0     O17480  11.674   2.578   3.288  0.1140 -0.8100 -0.1769
  871MOL0     C17481  11.735   2.464   3.330 -0.0660  0.0970 -0.4793
  871MOL0     C17482  11.865   2.468   3.382 -0.1706 -0.6670 -0.2118
  871MOL0     C17483  11.939   2.349   3.418  0.6144 -0.0071 -0.3298
  871MOL0     C17484  11.874   2.228   3.401  0.7808  0.3570 -0.2166
  871MOL0     O17485  11.926   2.106   3.427  0.2990 -0.4343  0.1682
  871MOL0     C17486  12.052   2.069   3.369  0.6753  0.4185  1.0141
  871MOL0     C17487  12.167   2.101   3.475 -1.0380 -0.1004  0.3341
  871MOL0     C17488  12.300   2.140   3.403 -0.2232 -0.1206 -0.8336
  871MOL0     C17489  12.416   2.155   3.503  0.6863 -0.6058  0.0902
  871MOL0     C17490  12.541   2.170   3.412  0.0726 -0.7489  0.1254
  871MOL0     C17491  12.676   2.133   3.484  0.5805  0.1490 -0.1383
  871MOL0     C17492  12.797   2.142   3.388 -0.6772 -0.1035 -0.2950
  871MOL0     C17493  12.915   2.130   3.472 -0.2670 -0.4363 -0.7168
  871MOL0    Cl17494  12.968   2.277   3.556 -0.1645 -0.0572  0.1893
  871MOL0     C17495  11.738   2.231   3.363  0.1844 -0.7871 -0.2399
  871MOL0     C17496  11.669   2.345   3.327  0.8970 -0.0349  0.3370
  871MOL0     O17497  11.828   2.640   3.126  0.6264  0.3924  0.2973
  871MOL0     C17498  11.659   2.800   2.986 -0.8213  1.3377 -1.2676
  871MOL0     C17499  11.581   2.901   2.930 -0.9341 -0.2570  0.2539
  871MOL0     N17500  11.052   3.577   3.241 -0.5906 -1.3056  0.5739
  871MOL0     N17501  10.968   3.614   3.331 -0.7632  0.5083 -0.1689
  871MOL0     C17502   9.924   3.417   3.969  1.0374 -0.2996 -0.6566
  871MOL0     C17503   9.810   3.345   4.004 -0.3155 -0.4001 -0.3048
  871MOL0     C17504   9.620   2.948   4.190  0.7222 -0.6326 -0.3410
  871MOL0     C17505   9.493   3.009   4.198 -0.2465 -0.7273 -0.2151
  871MOL0     C17506   9.388   2.941   4.246  0.8165  0.4879  0.2011
  871MOL0     C17507   9.398   2.816   4.301  0.0176 -0.1870  0.5200
  871MOL0     O17508   9.295   2.744   4.365 -0.8611  0.2971 -0.5015
  871MOL0     C17509   9.190   2.825   4.428 -0.8538 -0.8155 -0.6143
  871MOL0     C17510   9.084   2.732   4.501 -0.8363 -0.4155 -0.5755
  871MOL0     C17511   8.993   2.657   4.403 -0.3308  0.3387 -0.8177
  871MOL0     C17512   8.913   2.543   4.465  0.0635  0.3002  0.1914
  871MOL0     C17513   8.788   2.583   4.544  0.4264  0.5966  0.0838
  871MOL0     C17514   8.709   2.610   4.623 -0.1486 -0.5944  0.1496
  871MOL0     C17515   9.522   2.747   4.288 -0.5132  0.0578 -0.6599
  871MOL0     C17516   9.630   2.810   4.221 -0.1101  0.7999 -0.6724
  871MOL0     C17517   9.749   2.723   4.190 -0.1149  0.1351 -0.2098
  871MOL0     H17518   9.943   3.199   4.290  0.9743  0.7492  1.0341
  871MOL0     H17519  10.134   3.307   4.233 -0.3079  0.4982  0.9898
  871MOL0     H17520  10.200   3.369   3.839  2.6708 -1.1919  0.7830
  871MOL0     H17521  10.117   3.531   3.823 -2.9466 -1.0059  3.0872
  871MOL0     H17522  10.401   3.463   3.935  1.3844 -1.7979 -2.7097
  871MOL0     H17523  10.331   3.621   3.910  1.2677 -0.5785 -0.2606
  871MOL0     H17524  10.339   3.412   3.686 -2.8079  3.1201 -3.1932
  871MOL0     H17525  10.497   3.477   3.741  0.2939  0.6430 -0.6393
  871MOL0     H17526  10.281   3.618   3.582  0.2311 -4.9931 -0.0958
  871MOL0     H17527  10.370   3.711   3.696  1.6503  0.0683 -0.9886
  871MOL0     H17528  10.488   3.705   3.456  0.7371  0.2485  0.9990
  871MOL0     H17529  10.582   3.650   3.581  1.1214 -2.0303 -0.8285
  871MOL0     H17530  10.510   3.409   3.505 -0.5260  0.5739  0.7493
  871MOL0     H17531  10.419   3.498   3.382 -0.0172  0.6029 -0.3596
  871MOL0     H17532  10.630   3.584   3.284 -2.7137  1.1045  1.3363
  871MOL0     H17533  10.622   3.407   3.310  2.4604 -1.8504  2.9900
  871MOL0     H17534  10.760   3.614   3.489 -0.6194 -1.3440  0.9055
  871MOL0     H17535  10.776   3.447   3.511  2.8186 -3.0501 -2.5585
  871MOL0     H17536  10.836   3.327   3.224 -0.0463  0.1353  0.6366
  871MOL0     H17537  11.036   3.404   2.997 -0.5829  2.0452 -0.0743
  871MOL0     H17538  11.193   3.436   3.083 -0.5416  2.5205  2.3569
  871MOL0     H17539  11.133   3.210   3.212  1.5419  1.4108  0.4226
  871MOL0     H17540  11.008   3.195   3.089  0.3570  1.3497  0.8102
  871MOL0     H17541  11.146   3.160   2.901 -1.1620 -0.3629  0.6632
  871MOL0     H17542  11.188   3.038   3.014  2.6375 -0.9462 -1.0225
  871MOL0     H17543  11.380   3.189   3.109 -1.3602 -3.5901  1.3934
  871MOL0     H17544  11.353   3.263   2.949 -1.6087  0.2912  1.3260
  871MOL0     H17545  11.422   2.997   3.231 -1.0669 -1.0282  0.6197
  871MOL0     H17546  11.558   2.840   3.316 -0.3425  1.7079 -1.7231
  871MOL0     H17547  11.912   2.567   3.386  0.6335 -0.4925 -6.0192
  871MOL0     H17548  12.043   2.355   3.446  0.8041  1.2256 -1.2085
  871MOL0     H17549  12.074   1.963   3.349 -1.1085 -0.4945  3.4254
  871MOL0     H17550  12.081   2.129   3.282 -0.4252  1.4558  1.3496
  871MOL0     H17551  12.132   2.190   3.528  0.0729  1.4858 -1.4679
  871MOL0     H17552  12.180   2.013   3.539  0.0315 -1.8488 -2.1244
  871MOL0     H17553  12.322   2.058   3.334 -0.4542  0.5436 -1.7150
  871MOL0     H17554  12.284   2.238   3.357  0.9919  2.3642  3.4530
  871MOL0     H17555  12.415   2.057   3.551 -3.4658 -0.8225 -0.0590
  871MOL0     H17556  12.396   2.240   3.569  3.3788 -0.5771  0.9529
  871MOL0     H17557  12.543   2.261   3.352 -2.0197 -2.4230 -2.7164
  871MOL0     H17558  12.532   2.098   3.330 -3.9251 -1.3768  0.9018
  871MOL0     H17559  12.674   2.210   3.561 -2.7229  2.0018 -1.8064
  871MOL0     H17560  12.675   2.028   3.512 -2.1145  0.3202  0.6729
  871MOL0     H17561  12.822   2.221   3.317  1.8399 -0.7641 -0.2201
  871MOL0     H17562  12.804   2.049   3.330 -0.1561  0.3735 -1.0053
  871MOL0     H17563  12.893   2.059   3.552 -2.0476 -1.1479 -1.7800
  871MOL0     H17564  13.002   2.082   3.426 -1.6467 -3.2322 -0.6754
  871MOL0     H17565  11.683   2.137   3.358  0.1847 -0.7299 -3.1946
  871MOL0     H17566  11.569   2.334   3.287  0.1649  1.4767  1.6537
  871MOL0     H17567  11.723   2.747   2.916  0.3165  1.7031 -0.5150
  871MOL0     H17568  11.590   2.921   2.824  1.0784 -0.3014  0.3714
  871MOL0     H17569   9.914   3.483   3.883 -2.7041  0.1162 -0.0708
  871MOL0     H17570   9.729   3.340   3.933 -0.2499  1.4920 -0.5595
  871MOL0     H17571   9.483   3.110   4.159  0.5371 -0.5448  0.0236
  871MOL0     H17572   9.300   3.002   4.260 -0.5154 -0.7776 -2.0546
  871MOL0     H17573   9.141   2.893   4.357 -2.6303 -3.5034 -2.1269
  871MOL0     H17574   9.226   2.893   4.507  0.0607 -0.2867 -1.4636
  871MOL0     H17575   9.019   2.788   4.568  0.9916  0.8551  0.2136
  871MOL0     H17576   9.135   2.660   4.566 -1.9474 -0.6038  0.1190
  871MOL0     H17577   9.069   2.611   4.339  1.4996  2.6070 -0.4250
  871MOL0     H17578   8.925   2.715   4.341  1.5394  2.2221 -1.2528
  871MOL0     H17579   8.892   2.490   4.371  1.0420  0.4080 -0.0913
  871MOL0     H17580   8.977   2.480   4.527 -1.9943  0.0027  2.1787
  871MOL0     H17581   8.641   2.631   4.704  0.1788  3.1770 -0.3885
  871MOL0     H17582   9.522   2.643   4.318 -2.7884 -0.2643 -1.6118
  871MOL0     H17583   9.837   2.754   4.246 -1.9967 -0.3651  3.2905
  871MOL0     H17584   9.726   2.619   4.214 -3.1029  0.4902 -1.1218
  871MOL0     H17585   9.762   2.736   4.082  1.6487  0.9448  0.0658
  872MOL0     O17586   7.555   2.559   7.890 -0.3062  0.0496  0.6666
  872MOL0     C17587   7.545   2.448   7.951  0.3510  0.5119 -0.5652
  872MOL0     O17588   7.655   2.385   7.994 -0.3656  0.4302 -0.3558
  872MOL0     C17589   7.784   2.411   7.958  0.7248 -0.3538 -0.1278
  872MOL0     C17590   7.819   2.461   7.833  0.1969 -0.2599 -0.1347
  872MOL0     C17591   7.951   2.488   7.796 -0.0562 -1.2391 -0.2872
  872MOL0     C17592   8.049   2.456   7.890  0.2590  0.5068  0.0884
  872MOL0     O17593   8.179   2.471   7.860 -0.1073  0.1067 -0.1918
  872MOL0     C17594   8.208   2.604   7.817  0.4771 -0.2190 -0.5705
  872MOL0     C17595   8.363   2.639   7.824 -0.5070  0.7619  0.0411
  872MOL0     C17596   8.408   2.652   7.971 -0.5360 -0.7492 -0.3885
  872MOL0     C17597   8.561   2.687   7.992 -0.3465 -0.3009  0.0694
  872MOL0     C17598   8.602   2.706   8.135  0.2836  0.1241  0.4639
  872MOL0     C17599   8.745   2.712   8.149  0.2085 -0.1225 -0.1930
  872MOL0     C17600   8.784   2.729   8.291  0.1510  0.4999 -1.3668
  872MOL0     C17601   8.936   2.763   8.305  0.3344  0.1534  0.1640
  872MOL0     N17602   9.004   2.639   8.263 -0.5864  0.0207  0.5569
  872MOL0     C17603   9.064   2.601   8.138  0.3511  0.4023  0.6347
  872MOL0     C17604   9.105   2.470   8.161 -0.9013 -0.0999 -0.1010
  872MOL0     C17605   9.181   2.372   8.071  0.5435 -0.7354 -0.6780
  872MOL0     C17606   9.210   2.239   8.119  0.8132 -0.4123 -1.0241
  872MOL0     C17607   9.324   2.177   8.033 -0.1639  0.2809 -0.3858
  872MOL0     C17608   9.339   2.028   8.054 -0.1967  0.3108  0.1043
  872MOL0     O17609   9.420   2.003   8.175 -0.4448 -0.1011  0.1752
  872MOL0     C17610   9.550   1.959   8.153  0.6880  0.3133  0.0347
  872MOL0     C17611   9.576   1.827   8.130  0.2297  0.3172  0.5125
  872MOL0     C17612   9.709   1.790   8.106 -0.3165  0.9514 -0.3460
  872MOL0     C17613   9.820   1.873   8.138 -0.0311  0.0508  0.3822
  872MOL0     C17614   9.956   1.827   8.110 -1.4552  0.7119 -0.2688
  872MOL0     O17615  10.052   1.919   8.112 -0.5152  0.2973 -0.2230
  872MOL0     C17616  10.181   1.877   8.086  1.1058  0.0271 -0.2160
  872MOL0     C17617  10.271   1.881   8.191 -0.3449 -0.5269 -0.9748
  872MOL0     C17618  10.403   1.824   8.170 -0.3362  0.7298 -0.0985
  872MOL0     C17619  10.436   1.779   8.044  0.8324  0.7512  0.7301
  872MOL0     O17620  10.558   1.727   8.009  0.6111 -0.5726  0.6607
  872MOL0     C17621  10.668   1.771   8.093  0.1357 -0.3136  0.5485
  872MOL0     C17622  10.793   1.722   8.028 -0.4587 -0.4660 -0.5709
  872MOL0     C17623  10.824   1.574   8.058  0.0992  0.2493  1.1387
  872MOL0     C17624  10.933   1.524   7.959 -1.2541  0.0472 -0.2409
  872MOL0     C17625  10.997   1.386   8.011 -0.3306 -0.9650  0.5183
  872MOL0     C17626  11.061   1.317   7.899  1.7756 -0.8169  0.4771
  872MOL0     C17627  11.095   1.168   7.934  0.9651  0.4129  0.3722
  872MOL0     C17628  11.197   1.111   7.836  0.6172 -0.3263  0.7058
  872MOL0    Cl17629  11.190   0.941   7.855 -0.4003  1.0651 -0.5386
  872MOL0     C17630  10.348   1.785   7.939 -1.3601  1.5549 -0.5962
  872MOL0     C17631  10.224   1.830   7.960 -0.5994  0.1735  0.3586
  872MOL0     O17632   9.976   1.707   8.088 -0.5490 -0.3532 -0.3696
  872MOL0     C17633   9.796   2.004   8.170  0.3727  0.7711 -0.3197
  872MOL0     C17634   9.659   2.045   8.163  0.3650  0.1811 -0.6264
  872MOL0     N17635   9.066   2.437   8.287 -0.6105  0.2783  0.0093
  872MOL0     N17636   9.011   2.535   8.347  0.7756  0.1053  0.1983
  872MOL0     C17637   8.015   2.396   8.018 -1.3098 -0.0818  1.1112
  872MOL0     C17638   7.880   2.369   8.051  0.8534 -0.2910 -0.1772
  872MOL0     C17639   7.413   2.410   8.009  0.4988 -0.1818 -0.6715
  872MOL0     C17640   7.416   2.383   8.152  0.4934 -0.3377 -0.7818
  872MOL0     C17641   7.293   2.359   8.211  0.4860 -0.6282 -0.9179
  872MOL0     C17642   7.170   2.368   8.132 -0.0571 -0.5556  0.2857
  872MOL0     O17643   7.051   2.364   8.176  0.2607 -0.2879  0.1293
  872MOL0     C17644   7.012   2.312   8.306 -0.9076 -0.0166  0.9509
  872MOL0     C17645   6.896   2.222   8.289  0.1858  0.0068 -0.4355
  872MOL0     C17646   6.874   2.131   8.412  0.3007  0.6832  0.2195
  872MOL0     C17647   6.749   2.034   8.387  0.5409  0.0010 -0.1212
  872MOL0     C17648   6.628   2.123   8.376  0.6828 -0.5962 -0.8662
  872MOL0     C17649   6.514   2.166   8.371  0.9885 -0.3675 -0.6241
  872MOL0     C17650   7.175   2.398   7.997  0.7690 -1.2282  0.1677
  872MOL0     C17651   7.293   2.412   7.933  0.0285 -0.6333 -0.7157
  872MOL0     C17652   7.302   2.439   7.785  0.3995 -0.6684  0.2290
  872MOL0     H17653   7.739   2.472   7.761  0.9820 -0.4771 -1.0557
  872MOL0     H17654   7.966   2.525   7.695 -0.0272  2.5670  0.9305
  872MOL0     H17655   8.176   2.637   7.718 -0.2508  3.0416  0.6192
  872MOL0     H17656   8.154   2.673   7.883  0.7236  0.2567 -0.8665
  872MOL0     H17657   8.381   2.732   7.769  2.8091  0.8978  1.1409
  872MOL0     H17658   8.416   2.558   7.772 -1.7808 -1.5353  2.1007
  872MOL0     H17659   8.385   2.554   8.016  2.2865 -1.7025 -0.8326
  872MOL0     H17660   8.349   2.721   8.031 -0.3512 -1.4714  0.6473
  872MOL0     H17661   8.618   2.614   7.934 -0.5851  0.7493 -1.5567
  872MOL0     H17662   8.564   2.784   7.942 -2.2678 -0.8336 -1.2400
  872MOL0     H17663   8.552   2.798   8.168 -2.8959 -0.8955 -1.1636
  872MOL0     H17664   8.558   2.629   8.199 -3.0495  2.3147  1.0988
  872MOL0     H17665   8.791   2.623   8.105  0.4035 -0.4605  0.6754
  872MOL0     H17666   8.785   2.802   8.102  1.9726 -1.6427 -1.8077
  872MOL0     H17667   8.755   2.645   8.355 -1.3171  0.3621 -2.1714
  872MOL0     H17668   8.725   2.817   8.319 -0.5020  0.1279 -1.5297
  872MOL0     H17669   8.958   2.853   8.247 -4.0572  0.9470 -0.6514
  872MOL0     H17670   8.973   2.787   8.405  4.6777 -1.5184 -0.8255
  872MOL0     H17671   9.046   2.657   8.046  0.0522 -1.2832 -0.3784
  872MOL0     H17672   9.121   2.361   7.980 -0.1800 -2.4985 -0.0337
  872MOL0     H17673   9.280   2.410   8.044  0.9079  0.0588  1.5897
  872MOL0     H17674   9.239   2.243   8.225 -2.0147 -1.2223 -0.1279
  872MOL0     H17675   9.117   2.181   8.129 -0.8748  2.4463  1.5126
  872MOL0     H17676   9.417   2.224   8.066 -0.4845  0.2892  0.5251
  872MOL0     H17677   9.308   2.187   7.925 -4.3608 -2.0940 -0.2033
  872MOL0     H17678   9.381   1.985   7.963  0.1685  1.2797 -0.2006
  872MOL0     H17679   9.239   1.988   8.074  0.2324 -0.6068  0.4408
  872MOL0     H17680   9.501   1.750   8.114  0.9960  0.2676 -4.1219
  872MOL0     H17681   9.730   1.690   8.068  2.0175  1.5085 -0.6728
  872MOL0     H17682  10.245   1.918   8.290  0.5950 -2.0041 -0.1387
  872MOL0     H17683  10.468   1.799   8.253 -2.3118 -1.6737  0.8754
  872MOL0     H17684  10.669   1.880   8.089  0.7941 -0.2658  1.7469
  872MOL0     H17685  10.663   1.735   8.196  1.0680 -0.3616  0.5901
  872MOL0     H17686  10.790   1.748   7.922 -0.6716 -1.3940 -0.8016
  872MOL0     H17687  10.879   1.779   8.065  0.3819  1.6108 -4.9720
  872MOL0     H17688  10.851   1.564   8.164 -0.1916  1.2489  1.3161
  872MOL0     H17689  10.732   1.517   8.038 -1.1083  2.8574 -1.4096
  872MOL0     H17690  11.006   1.605   7.947 -3.8183  2.1909 -2.8928
  872MOL0     H17691  10.890   1.526   7.859 -2.4600  3.4489  0.2147
  872MOL0     H17692  10.918   1.322   8.050 -1.4996 -0.5739 -1.1080
  872MOL0     H17693  11.067   1.415   8.090  0.6395  0.8750 -0.9305
  872MOL0     H17694  10.986   1.316   7.819  1.6553 -0.2096  0.5746
  872MOL0     H17695  11.148   1.377   7.872  0.8251  1.5649  2.3118
  872MOL0     H17696  11.000   1.117   7.914  0.4190  0.5568  2.4076
  872MOL0     H17697  11.138   1.146   8.032  2.8943 -2.3321 -0.9554
  872MOL0     H17698  11.174   1.127   7.730  2.5626  2.0991  0.5512
  872MOL0     H17699  11.296   1.153   7.855  0.5879 -1.3237  3.5313
  872MOL0     H17700  10.364   1.753   7.837 -0.6927  2.0287 -0.6466
  872MOL0     H17701  10.161   1.836   7.872  0.6146  1.5931 -0.4708
  872MOL0     H17702   9.873   2.073   8.203 -2.0911  1.9269  3.7989
  872MOL0     H17703   9.640   2.148   8.193 -0.5772 -0.9706  3.1577
  872MOL0     H17704   8.093   2.376   8.090  0.8378 -0.0355 -1.0657
  872MOL0     H17705   7.845   2.338   8.149  1.4584 -1.1308 -0.2268
  872MOL0     H17706   7.506   2.373   8.212 -0.6433 -0.0014  1.0637
  872MOL0     H17707   7.301   2.339   8.317  1.3421 -2.9438 -1.3536
  872MOL0     H17708   6.978   2.386   8.379  0.4089  2.7972 -1.1214
  872MOL0     H17709   7.098   2.256   8.347 -0.7378 -0.2199  0.3302
  872MOL0     H17710   6.911   2.154   8.204 -2.6455 -3.1208  1.2960
  872MOL0     H17711   6.810   2.288   8.275 -1.1652 -1.7348 -0.6967
  872MOL0     H17712   6.855   2.190   8.502 -1.4898  1.8704 -0.8779
  872MOL0     H17713   6.962   2.070   8.434 -0.4848 -0.2684  0.7607
  872MOL0     H17714   6.749   1.987   8.288 -1.8563  2.9627 -1.7294
  872MOL0     H17715   6.746   1.968   8.473  4.9355  0.5047  0.6096
  872MOL0     H17716   6.417   2.212   8.367  0.3209 -1.5701  0.8025
  872MOL0     H17717   7.085   2.423   7.943  1.6339  1.6203 -0.1292
  872MOL0     H17718   7.298   2.547   7.765 -2.7078 -0.6584  0.5406
  872MOL0     H17719   7.393   2.403   7.735  2.0831  2.5626  0.6970
  872MOL0     H17720   7.218   2.396   7.731 -1.0273  0.8766  1.1273
  873MOL0     O17721   8.941   8.303   2.714  0.3144  0.1525 -0.2434
  873MOL0     C17722   8.881   8.378   2.796 -0.4132 -0.4416  0.5872
  873MOL0     O17723   8.931   8.424   2.915 -0.5838 -0.4604 -0.0407
  873MOL0     C17724   9.069   8.426   2.939 -0.0424  0.8640 -0.3429
  873MOL0     C17725   9.111   8.383   3.063 -0.4947  0.6314  0.4583
  873MOL0     C17726   9.248   8.363   3.088  0.9609  0.4748 -0.6797
  873MOL0     C17727   9.342   8.391   2.991 -0.0287  1.0134  0.4740
  873MOL0     O17728   9.467   8.385   3.040  0.0735  0.4698  0.0813
  873MOL0     C17729   9.577   8.370   2.955  0.4550  0.2411 -1.0875
  873MOL0     C17730   9.706   8.366   3.024 -0.1770 -0.2812 -0.6806
  873MOL0     C17731   9.720   8.237   3.112  0.2086  0.4227  0.3674
  873MOL0     C17732   9.858   8.237   3.177  0.6863 -0.3711 -0.5528
  873MOL0     C17733   9.873   8.340   3.295 -0.1669 -0.2051  0.0066
  873MOL0     C17734   9.951   8.293   3.425 -0.3125  0.0958 -0.3990
  873MOL0     C17735   9.926   8.405   3.534 -0.0777 -0.3701 -0.1134
  873MOL0     C17736  10.025   8.386   3.660  0.6273  0.5782  1.5329
  873MOL0     N17737  10.008   8.464   3.773  0.2285 -0.8477  0.1192
  873MOL0     C17738  10.029   8.431   3.903  0.0525  0.1764 -0.0773
  873MOL0     C17739  10.002   8.543   3.976  0.3391  0.1620 -0.4942
  873MOL0     C17740  10.011   8.548   4.128 -0.3645  0.0740 -0.7663
  873MOL0     C17741  10.131   8.625   4.195  0.3994  0.1077 -0.6626
  873MOL0     C17742  10.267   8.568   4.145 -0.0416 -0.9725  0.6431
  873MOL0     C17743  10.382   8.645   4.221  0.2068  0.0791  0.4674
  873MOL0     O17744  10.504   8.594   4.172 -0.5504 -0.1441 -0.5419
  873MOL0     C17745  10.626   8.648   4.211  0.6589  1.0382  0.2691
  873MOL0     C17746  10.648   8.765   4.297  0.2474 -0.1520 -0.4069
  873MOL0     C17747  10.778   8.788   4.338  0.5629 -0.5382 -0.1118
  873MOL0     C17748  10.880   8.705   4.302 -0.4325  0.4212  0.4841
  873MOL0     C17749  11.017   8.736   4.348 -0.3440 -0.2376 -0.4260
  873MOL0     O17750  11.113   8.640   4.338 -0.4701  0.2448  0.7705
  873MOL0     C17751  11.244   8.681   4.355  0.9621  1.1153 -0.0103
  873MOL0     C17752  11.322   8.627   4.463 -1.1482 -0.5597  0.6417
  873MOL0     C17753  11.455   8.656   4.468 -0.4229  0.5354 -0.0989
  873MOL0     C17754  11.512   8.736   4.376 -0.1229 -0.4026  0.0907
  873MOL0     O17755  11.644   8.754   4.384 -1.2343  0.0657 -0.5258
  873MOL0     C17756  11.719   8.783   4.265  0.6040  0.6188  0.5061
  873MOL0     C17757  11.863   8.773   4.308  0.0421 -0.2914 -0.2713
  873MOL0     C17758  11.957   8.818   4.196 -0.2517  0.2276 -0.4271
  873MOL0     C17759  12.054   8.703   4.150  0.7999  0.0688  0.0515
  873MOL0     C17760  12.141   8.748   4.034 -0.1182  0.3169 -0.5592
  873MOL0     C17761  12.254   8.830   4.077 -0.6815  0.5429 -0.7513
  873MOL0     C17762  12.324   8.874   3.950 -0.3936 -0.6447  0.6046
  873MOL0     C17763  12.474   8.909   3.983  0.6085 -0.2335 -0.3118
  873MOL0    Cl17764  12.559   8.798   4.094 -0.3175  0.1632 -0.3165
  873MOL0     C17765  11.435   8.805   4.279 -0.2656 -0.8741  0.5212
  873MOL0     C17766  11.298   8.776   4.261  0.0795 -0.5758  0.1762
  873MOL0     O17767  11.028   8.848   4.400 -0.7714 -0.0417 -0.2905
  873MOL0     C17768  10.856   8.593   4.232 -0.0846 -0.5027  0.7821
  873MOL0     C17769  10.733   8.567   4.180 -0.3605 -0.1358  0.1512
  873MOL0     N17770   9.965   8.639   3.895 -0.1715  0.0598 -0.3694
  873MOL0     N17771   9.963   8.590   3.776 -0.8912 -0.1704  0.5150
  873MOL0     C17772   9.301   8.436   2.872  0.0505  0.5052  0.3852
  873MOL0     C17773   9.165   8.452   2.840 -1.5019  0.3057  0.7108
  873MOL0     C17774   8.738   8.376   2.781  0.2208 -1.2744  0.1827
  873MOL0     C17775   8.676   8.259   2.738  0.4793 -0.3638 -0.4742
  873MOL0     C17776   8.538   8.261   2.708 -0.4984  0.5915 -0.2188
  873MOL0     C17777   8.463   8.375   2.707 -0.3168 -0.0236  0.7353
  873MOL0     O17778   8.336   8.386   2.668 -0.3588 -0.8736 -0.0177
  873MOL0     C17779   8.277   8.269   2.602  0.1470  1.1038 -0.0337
  873MOL0     C17780   8.195   8.174   2.692 -0.9477 -0.4970  0.8300
  873MOL0     C17781   8.045   8.220   2.689 -0.4968  0.7016 -0.0094
  873MOL0     C17782   7.975   8.178   2.812  0.2158  0.7298 -0.5766
  873MOL0     C17783   7.991   8.031   2.833  0.4728 -0.1945  0.6919
  873MOL0     C17784   8.018   7.911   2.845 -0.8181  0.4250  1.3068
  873MOL0     C17785   8.517   8.499   2.750  0.0946 -0.1439 -0.9860
  873MOL0     C17786   8.659   8.503   2.783 -0.0059  0.1976 -0.8224
  873MOL0     C17787   8.721   8.633   2.810 -0.1752 -0.3701 -0.4027
  873MOL0     H17788   9.042   8.340   3.135  1.7030 -0.5317  1.9614
  873MOL0     H17789   9.295   8.334   3.181 -1.4773  0.1027  0.5206
  873MOL0     H17790   9.578   8.274   2.902  1.2312 -0.5551  0.3121
  873MOL0     H17791   9.581   8.455   2.886  0.0833  0.5986 -0.6719
  873MOL0     H17792   9.724   8.450   3.092  1.4679 -0.9591 -0.2118
  873MOL0     H17793   9.783   8.363   2.946  1.7845 -2.5509  1.1461
  873MOL0     H17794   9.705   8.154   3.042 -0.2550  0.7615  0.0481
  873MOL0     H17795   9.637   8.236   3.183 -2.6145 -0.9336 -2.6559
  873MOL0     H17796   9.867   8.136   3.220 -0.5373 -0.5417 -0.6640
  873MOL0     H17797   9.939   8.256   3.106 -1.0003 -1.9702 -3.0641
  873MOL0     H17798   9.921   8.432   3.260 -2.5289  1.0490 -0.1711
  873MOL0     H17799   9.771   8.366   3.325 -1.0142 -1.9087 -1.2353
  873MOL0     H17800   9.922   8.188   3.436  1.9502 -0.6436 -0.8415
  873MOL0     H17801  10.060   8.291   3.416 -0.2890  1.7457 -0.7085
  873MOL0     H17802   9.826   8.407   3.578  0.7661  1.7613  1.8962
  873MOL0     H17803   9.935   8.509   3.500 -1.8329 -0.4145 -0.8555
  873MOL0     H17804  10.016   8.278   3.680  2.9193 -0.1858 -0.9496
  873MOL0     H17805  10.129   8.398   3.628  0.9092 -1.5907  1.4437
  873MOL0     H17806  10.061   8.336   3.944  1.0583  0.2687 -0.6252
  873MOL0     H17807   9.909   8.575   4.155 -1.3101 -3.2361 -0.5796
  873MOL0     H17808  10.012   8.451   4.179 -3.6856  1.0375  1.4431
  873MOL0     H17809  10.125   8.734   4.205  0.6326 -0.0597  1.6465
  873MOL0     H17810  10.134   8.590   4.298 -1.3469  0.3105 -0.5132
  873MOL0     H17811  10.267   8.586   4.037  0.6954 -0.5995  0.6944
  873MOL0     H17812  10.294   8.464   4.164  1.3912 -0.9555 -1.0424
  873MOL0     H17813  10.379   8.633   4.330  1.7902 -1.3434  0.4092
  873MOL0     H17814  10.358   8.749   4.194  1.0248 -0.4200 -2.5592
  873MOL0     H17815  10.562   8.819   4.334  1.2211  1.7394 -0.7842
  873MOL0     H17816  10.796   8.875   4.401  0.4588 -1.8445  1.8133
  873MOL0     H17817  11.287   8.551   4.533 -2.8032 -1.1343 -0.7202
  873MOL0     H17818  11.516   8.624   4.552 -4.0206  1.5294  3.1831
  873MOL0     H17819  11.709   8.703   4.191  1.6473 -0.5593  1.5944
  873MOL0     H17820  11.695   8.879   4.219  0.9904 -0.1588 -1.4139
  873MOL0     H17821  11.878   8.834   4.397  1.7534  2.2501 -2.1466
  873MOL0     H17822  11.882   8.666   4.322 -0.1626 -0.2640  0.2294
  873MOL0     H17823  11.901   8.859   4.111 -0.4685  1.4774  0.2861
  873MOL0     H17824  12.021   8.901   4.229  1.6417 -0.9172 -1.0553
  873MOL0     H17825  11.985   8.627   4.114 -1.9913  2.8903 -1.0539
  873MOL0     H17826  12.111   8.668   4.237 -0.9244 -2.5358  0.2245
  873MOL0     H17827  12.085   8.809   3.963  2.3039  2.3508 -0.8383
  873MOL0     H17828  12.173   8.655   3.987 -3.4505 -0.5259 -1.4728
  873MOL0     H17829  12.217   8.919   4.130  0.6244  1.8769 -1.9825
  873MOL0     H17830  12.315   8.779   4.152 -3.3858 -0.1594  1.1282
  873MOL0     H17831  12.268   8.960   3.910 -0.3472 -1.2300 -0.7898
  873MOL0     H17832  12.319   8.791   3.879  0.5929 -0.9206  0.8447
  873MOL0     H17833  12.531   8.911   3.889  2.9995 -2.2043  0.9655
  873MOL0     H17834  12.472   9.011   4.022 -2.7227 -0.0630 -0.6379
  873MOL0     H17835  11.458   8.875   4.199 -0.5001  0.5461  1.6539
  873MOL0     H17836  11.230   8.835   4.201 -0.0323  1.8398  2.4986
  873MOL0     H17837  10.940   8.526   4.211  1.1010  1.3746 -0.8397
  873MOL0     H17838  10.717   8.478   4.121  0.1236 -1.2268  1.6203
  873MOL0     H17839   9.363   8.446   2.783 -0.0638  0.5726  0.3125
  873MOL0     H17840   9.134   8.476   2.739 -0.1903  2.5697  0.7856
  873MOL0     H17841   8.726   8.164   2.728  0.6727 -0.6921  2.6200
  873MOL0     H17842   8.493   8.170   2.671 -1.5946  1.1629 -0.3122
  873MOL0     H17843   8.351   8.212   2.545 -0.1872  0.4828  0.1432
  873MOL0     H17844   8.206   8.293   2.523 -1.2544 -1.9561  0.1579
  873MOL0     H17845   8.222   8.192   2.797 -1.1931  0.8314  0.6894
  873MOL0     H17846   8.218   8.072   2.662  1.9806  0.2467  0.2339
  873MOL0     H17847   8.000   8.198   2.592 -1.0158 -0.1994  0.4293
  873MOL0     H17848   8.037   8.330   2.692 -0.5182  0.6751  1.2209
  873MOL0     H17849   8.012   8.229   2.901  0.3446  2.4828 -1.5911
  873MOL0     H17850   7.869   8.203   2.803  0.2755  0.5959 -1.9537
  873MOL0     H17851   8.054   7.811   2.833 -4.3116 -0.8785  0.2492
  873MOL0     H17852   8.454   8.588   2.750 -0.1484 -0.2822  0.4351
  873MOL0     H17853   8.817   8.652   2.761  0.1217 -0.7905  0.0028
  873MOL0     H17854   8.652   8.712   2.781  0.8117  0.6218 -0.1316
  873MOL0     H17855   8.727   8.641   2.919  0.5939 -1.9320 -0.2906
  874MOL0     O17856   7.079   9.347   6.861  0.3427  0.7806  0.6257
  874MOL0     C17857   6.996   9.259   6.859  1.1769 -0.4578  0.7330
  874MOL0     O17858   7.008   9.130   6.824  1.1524  0.2760  0.7018
  874MOL0     C17859   7.131   9.073   6.815 -0.2333  0.3397  0.4755
  874MOL0     C17860   7.161   8.943   6.864  0.8605 -0.1931  0.3452
  874MOL0     C17861   7.284   8.892   6.827 -0.1842  0.1432 -0.1990
  874MOL0     C17862   7.389   8.958   6.747  0.0999 -0.0126  0.3593
  874MOL0     O17863   7.503   8.884   6.725 -0.5441 -0.1178 -0.1560
  874MOL0     C17864   7.590   8.945   6.625  0.3666  0.7355  0.1234
  874MOL0     C17865   7.540   8.933   6.481  0.0011 -0.5027  0.0059
  874MOL0     C17866   7.658   8.919   6.381  0.3845  0.2390 -0.5781
  874MOL0     C17867   7.601   8.920   6.233 -0.0337 -0.1970  0.2371
  874MOL0     C17868   7.703   8.908   6.117 -0.3233  0.2485 -0.0347
  874MOL0     C17869   7.797   9.024   6.114 -0.1170 -0.1719 -0.3507
  874MOL0     C17870   7.871   9.043   5.974  0.3918  0.6506 -0.9456
  874MOL0     C17871   7.950   8.912   5.937 -0.4576 -0.6193 -0.5017
  874MOL0     N17872   7.991   8.911   5.794 -0.6759 -0.5871 -0.0258
  874MOL0     C17873   8.080   8.998   5.729  0.1784  0.3467 -0.7094
  874MOL0     C17874   8.114   8.933   5.617 -0.6312  0.1210  0.1051
  874MOL0     C17875   8.199   8.995   5.503 -0.5683  0.3395 -0.3244
  874MOL0     C17876   8.339   8.914   5.505  0.5485 -0.1767 -0.0692
  874MOL0     C17877   8.415   8.910   5.369  0.1866 -0.0089  0.3501
  874MOL0     C17878   8.473   9.048   5.325  0.3181  0.8695  0.2211
  874MOL0     O17879   8.584   9.023   5.239 -0.2502  0.7716 -0.3772
  874MOL0     C17880   8.709   8.992   5.287 -0.2289  0.5841 -0.3483
  874MOL0     C17881   8.754   9.001   5.421  0.5156  0.9091  0.2441
  874MOL0     C17882   8.888   8.982   5.450 -0.0430 -0.3087 -0.4020
  874MOL0     C17883   8.973   8.947   5.347 -0.6840  0.0297  0.7174
  874MOL0     C17884   9.113   8.922   5.387  0.0666 -0.1193  0.0149
  874MOL0     O17885   9.195   8.857   5.289 -0.0678  0.6297  0.8511
  874MOL0     C17886   9.327   8.828   5.324  0.1089 -0.4406 -0.3800
  874MOL0     C17887   9.435   8.841   5.242 -0.5863  0.3696 -0.1438
  874MOL0     C17888   9.569   8.825   5.282 -0.2626 -0.7314 -0.0507
  874MOL0     C17889   9.587   8.789   5.420 -0.5892 -0.7193  0.2024
  874MOL0     O17890   9.722   8.784   5.457 -0.4610 -0.3238  0.2332
  874MOL0     C17891   9.756   8.820   5.594 -0.6117 -0.0269 -0.4777
  874MOL0     C17892   9.872   8.720   5.626  0.1783  0.8387 -0.1774
  874MOL0     C17893   9.995   8.766   5.552 -0.1891  0.0070  0.9838
  874MOL0     C17894  10.119   8.724   5.631  0.3279  0.0610 -0.2911
  874MOL0     C17895  10.234   8.743   5.536 -0.0838 -0.2063  0.0695
  874MOL0     C17896  10.254   8.644   5.419 -0.4041 -0.4909  0.4858
  874MOL0     C17897  10.387   8.670   5.360  0.0504 -1.2359 -0.3891
  874MOL0     C17898  10.406   8.589   5.231 -0.3291  0.2764  0.0161
  874MOL0    Cl17899  10.563   8.641   5.162 -0.9436 -0.3841  0.2163
  874MOL0     C17900   9.485   8.760   5.505  0.4922 -0.7408 -0.8233
  874MOL0     C17901   9.349   8.774   5.457  0.1326  0.3425  0.1555
  874MOL0     O17902   9.150   8.967   5.494 -0.1534  0.0877  0.4596
  874MOL0     C17903   8.930   8.947   5.216 -0.2775  0.1382  0.0655
  874MOL0     C17904   8.799   8.978   5.186  0.4712 -0.0203  0.2205
  874MOL0     N17905   8.042   8.810   5.615 -1.1747  0.1121 -0.0920
  874MOL0     N17906   7.965   8.807   5.720  0.1659  0.0903 -0.2794
  874MOL0     C17907   7.351   9.088   6.702  0.6331 -0.1613 -0.2382
  874MOL0     C17908   7.227   9.143   6.734  0.9053 -0.1035  0.0519
  874MOL0     C17909   6.866   9.312   6.885  0.5310  1.2524 -0.3602
  874MOL0     C17910   6.816   9.424   6.808 -0.4470  0.3745  0.1833
  874MOL0     C17911   6.683   9.469   6.816 -0.6152  0.0145 -0.6014
  874MOL0     C17912   6.593   9.408   6.904 -0.4767  0.1125 -0.6830
  874MOL0     O17913   6.482   9.478   6.919 -0.2079 -0.2429 -0.5720
  874MOL0     C17914   6.386   9.438   7.022 -0.7059 -0.7860 -0.7943
  874MOL0     C17915   6.261   9.530   7.031 -0.3647  0.3131 -0.6792
  874MOL0     C17916   6.171   9.501   6.910  0.8146 -0.9523 -0.1378
  874MOL0     C17917   6.028   9.538   6.926 -0.0738  0.3197  0.7772
  874MOL0     C17918   5.987   9.668   6.961  0.2459 -0.3925 -0.9825
  874MOL0     C17919   5.940   9.779   6.996  0.2093 -0.3134 -0.4501
  874MOL0     C17920   6.646   9.303   6.983  1.2140  0.2612  0.0555
  874MOL0     C17921   6.771   9.246   6.971  0.5369 -0.7943 -0.3541
  874MOL0     C17922   6.800   9.139   7.064  0.4850 -0.0449 -0.4409
  874MOL0     H17923   7.102   8.876   6.926  0.4404  0.2107  0.3918
  874MOL0     H17924   7.320   8.797   6.864  1.7453  0.7775 -0.3285
  874MOL0     H17925   7.594   9.050   6.657  0.3629  0.6865  0.2854
  874MOL0     H17926   7.691   8.908   6.646 -0.4356 -0.3382  2.5496
  874MOL0     H17927   7.494   9.028   6.453  1.3975  0.1959 -0.0201
  874MOL0     H17928   7.471   8.850   6.466 -0.4814 -0.1586  0.2929
  874MOL0     H17929   7.707   8.826   6.412 -0.4478 -0.5276 -1.4948
  874MOL0     H17930   7.718   9.009   6.395 -1.7752  1.6012  0.5588
  874MOL0     H17931   7.537   8.832   6.221  2.2470 -1.6383 -2.8661
  874MOL0     H17932   7.537   9.008   6.225 -0.1464  0.0783  2.9980
  874MOL0     H17933   7.756   8.814   6.135 -0.7507  0.3190  1.7862
  874MOL0     H17934   7.645   8.906   6.024 -0.6847 -1.5595  0.1977
  874MOL0     H17935   7.740   9.117   6.126 -0.2242 -0.1799 -0.8053
  874MOL0     H17936   7.865   9.024   6.200 -0.2362  0.5120 -0.2495
  874MOL0     H17937   7.946   9.121   5.992  1.5748 -0.7296  0.3685
  874MOL0     H17938   7.800   9.074   5.896  0.2126  1.6849 -0.3863
  874MOL0     H17939   8.037   8.896   6.001 -1.5340  0.5032  1.3134
  874MOL0     H17940   7.884   8.831   5.971  1.6993 -1.8838  0.9933
  874MOL0     H17941   8.125   9.089   5.766  0.3692 -0.1603  0.3426
  874MOL0     H17942   8.144   8.994   5.409 -0.0759  2.1775 -0.6650
  874MOL0     H17943   8.222   9.097   5.533  4.1524 -0.9858  1.4636
  874MOL0     H17944   8.402   8.953   5.585 -3.1236  1.1032  2.4659
  874MOL0     H17945   8.323   8.810   5.534  4.5401 -0.6616  1.0073
  874MOL0     H17946   8.334   8.882   5.301 -2.4152  4.2918  1.2914
  874MOL0     H17947   8.496   8.837   5.379  0.8002  0.3143 -1.7309
  874MOL0     H17948   8.500   9.107   5.413 -1.3300  4.9332 -1.7590
  874MOL0     H17949   8.392   9.103   5.276 -1.5911  0.1692  2.3866
  874MOL0     H17950   8.693   9.018   5.509 -1.2596 -2.2855 -0.2259
  874MOL0     H17951   8.925   8.990   5.552  2.7600 -0.4590 -1.3172
  874MOL0     H17952   9.430   8.879   5.140 -1.7156  0.3586 -0.0975
  874MOL0     H17953   9.656   8.860   5.227 -0.5663  0.2127  0.0510
  874MOL0     H17954   9.781   8.926   5.605 -2.3452  0.2477  1.5658
  874MOL0     H17955   9.676   8.799   5.667 -0.4562  0.9868 -0.0015
  874MOL0     H17956   9.878   8.726   5.735 -3.9620 -1.0745  0.3219
  874MOL0     H17957   9.853   8.620   5.588 -0.5817  0.6615  0.6379
  874MOL0     H17958   9.993   8.725   5.451 -2.2107  3.4382 -0.5185
  874MOL0     H17959   9.984   8.875   5.548  0.5210  0.0522 -2.3376
  874MOL0     H17960  10.117   8.622   5.668  1.1938 -1.9851 -5.0622
  874MOL0     H17961  10.132   8.795   5.713  0.5430  0.2854 -0.5144
  874MOL0     H17962  10.324   8.734   5.598  2.6800  0.9235 -3.4560
  874MOL0     H17963  10.240   8.847   5.504  1.7109  0.0344  1.0367
  874MOL0     H17964  10.252   8.540   5.451  0.0174 -0.0966  1.9012
  874MOL0     H17965  10.173   8.665   5.349  0.1815 -0.6743 -0.2583
  874MOL0     H17966  10.459   8.645   5.438  0.1572  0.4587  0.0905
  874MOL0     H17967  10.388   8.777   5.337 -5.2056 -1.0196 -0.7539
  874MOL0     H17968  10.392   8.483   5.250 -2.5517  0.6987  1.0673
  874MOL0     H17969  10.330   8.613   5.156  2.8886  0.0023 -3.6478
  874MOL0     H17970   9.494   8.719   5.605 -2.3027 -0.3732 -0.3173
  874MOL0     H17971   9.265   8.744   5.519 -1.2832  1.7414 -1.0158
  874MOL0     H17972   9.008   8.932   5.143 -0.9066 -1.7006 -0.2718
  874MOL0     H17973   8.770   8.981   5.081  2.6801 -0.5261 -0.4660
  874MOL0     H17974   7.428   9.150   6.657  0.4959  0.0687 -0.1609
  874MOL0     H17975   7.218   9.239   6.683  1.7224  1.4812  2.7132
  874MOL0     H17976   6.867   9.473   6.725 -0.4455 -2.6049 -1.7183
  874MOL0     H17977   6.649   9.551   6.753 -2.7520  0.6821  1.2773
  874MOL0     H17978   6.436   9.451   7.119 -0.4533 -0.4901 -0.9600
  874MOL0     H17979   6.363   9.332   7.010 -1.5736 -0.2794 -5.1665
  874MOL0     H17980   6.294   9.634   7.039  1.8517 -0.4716  1.6941
  874MOL0     H17981   6.199   9.502   7.117  0.4951 -0.6266 -0.3489
  874MOL0     H17982   6.174   9.395   6.882 -5.3720 -0.8424 -2.7618
  874MOL0     H17983   6.209   9.556   6.824  1.4604  0.4438  0.9931
  874MOL0     H17984   5.981   9.528   6.828  1.6781  1.6801 -0.2674
  874MOL0     H17985   5.985   9.464   6.994 -0.9165 -0.8558 -0.9749
  874MOL0     H17986   5.884   9.861   7.035 -3.3143 -3.7187  2.5208
  874MOL0     H17987   6.585   9.264   7.064 -0.9721  2.2005 -0.5546
  874MOL0     H17988   6.746   9.144   7.159  0.7181 -0.4374 -0.2861
  874MOL0     H17989   6.756   9.051   7.016 -1.7218 -0.4694  2.0850
  874MOL0     H17990   6.902   9.131   7.102 -0.8332  2.5371  4.5320
  875MOL0     O17991   0.785   4.514   6.508 -0.6977  0.2398 -0.1879
  875MOL0     C17992   0.725   4.424   6.567 -0.3475 -0.0715  0.1944
  875MOL0     O17993   0.789   4.336   6.653  0.3984 -0.2973  0.6143
  875MOL0     C17994   0.892   4.255   6.608  0.1429  0.0784  0.1150
  875MOL0     C17995   0.921   4.218   6.480  0.7861  0.0568  0.1047
  875MOL0     C17996   1.036   4.140   6.449 -0.2348 -0.8934 -0.3798
  875MOL0     C17997   1.116   4.098   6.556  0.1274  0.4683  0.0500
  875MOL0     O17998   1.219   4.019   6.532 -0.1325 -0.4734  0.1438
  875MOL0     C17999   1.201   3.881   6.565  0.1118  0.2970 -0.5122
  875MOL0     C18000   1.275   3.814   6.683  0.7502 -0.1472  0.3321
  875MOL0     C18001   1.271   3.664   6.717 -0.1311 -0.7192  0.3403
  875MOL0     C18002   1.146   3.630   6.787  0.0466  0.1672 -0.0640
  875MOL0     C18003   1.132   3.473   6.790  0.6007 -0.0433  0.2829
  875MOL0     C18004   1.004   3.424   6.854 -0.6307  0.5426  0.2386
  875MOL0     C18005   0.991   3.265   6.858  0.6670 -0.8106 -0.3554
  875MOL0     C18006   0.868   3.225   6.940 -0.0643 -0.4098 -0.3547
  875MOL0     N18007   0.895   3.249   7.080  1.8866 -0.9148 -0.1319
  875MOL0     C18008   0.994   3.195   7.159  0.2087 -0.8125 -0.4306
  875MOL0     C18009   0.964   3.229   7.286  0.5304 -0.0683  0.2064
  875MOL0     C18010   1.038   3.176   7.416  0.3547 -0.4742  0.6680
  875MOL0     C18011   0.978   3.036   7.459 -0.0521 -0.0630 -0.1824
  875MOL0     C18012   1.099   2.961   7.508 -0.3819  0.5726  0.9148
  875MOL0     C18013   1.051   2.826   7.554  0.1305 -0.4627 -0.0803
  875MOL0     O18014   1.158   2.735   7.580 -0.1883  0.4163 -0.0107
  875MOL0     C18015   1.224   2.739   7.703  0.6698 -0.9471 -0.3384
  875MOL0     C18016   1.205   2.829   7.805 -0.1057 -0.0126  0.1534
  875MOL0     C18017   1.261   2.815   7.928 -0.3592  0.2976  0.0198
  875MOL0     C18018   1.343   2.708   7.951 -0.0057  0.2526  0.0635
  875MOL0     C18019   1.405   2.686   8.082  0.6580  0.1304 -0.4777
  875MOL0     O18020   1.434   2.801   8.148 -0.5270  0.2219  1.1784
  875MOL0     C18021   1.471   2.789   8.276 -0.8868  0.6768  0.5512
  875MOL0     C18022   1.380   2.786   8.380 -0.4687  0.3624  0.4842
  875MOL0     C18023   1.424   2.795   8.508  0.1070  0.1322 -0.2387
  875MOL0     C18024   1.556   2.791   8.541 -0.2968 -0.4375  0.3186
  875MOL0     O18025   1.596   2.816   8.669 -0.2292 -0.3461  0.5518
  875MOL0     C18026   1.547   2.709   8.756 -0.2562 -0.2177 -0.3207
  875MOL0     C18027   1.653   2.596   8.743 -0.0653  0.6578 -0.3837
  875MOL0     C18028   1.631   2.491   8.854  0.8055 -0.3438  0.4043
  875MOL0     C18029   1.756   2.475   8.937 -0.3877  0.8711 -0.9524
  875MOL0     C18030   1.715   2.375   9.042 -0.2086  0.2315 -0.2892
  875MOL0     C18031   1.831   2.298   9.112  0.3820  0.0310  0.5265
  875MOL0     C18032   1.901   2.401   9.204  0.6491 -0.2859 -0.0239
  875MOL0     C18033   2.004   2.332   9.288 -0.2024  0.2642  0.3280
  875MOL0    Cl18034   2.134   2.260   9.190 -0.2825 -0.3054  0.1196
  875MOL0     C18035   1.650   2.815   8.441 -0.3636  0.5906  0.4494
  875MOL0     C18036   1.613   2.800   8.299 -0.5125  0.8815 -0.3695
  875MOL0     O18037   1.416   2.570   8.117 -0.4730 -0.0286 -0.6334
  875MOL0     C18038   1.363   2.613   7.851 -0.2053  0.8340  0.3686
  875MOL0     C18039   1.306   2.628   7.727  0.2904 -0.1488 -0.0177
  875MOL0     N18040   0.856   3.314   7.284  0.5594  0.5666  0.3457
  875MOL0     N18041   0.805   3.317   7.163 -0.5811  0.5742  1.0282
  875MOL0     C18042   1.088   4.142   6.690 -0.7038  0.1849  0.4033
  875MOL0     C18043   0.980   4.211   6.713  0.0824  0.2077  0.4734
  875MOL0     C18044   0.582   4.434   6.553 -0.4475  0.1857  0.2556
  875MOL0     C18045   0.523   4.506   6.448  1.1478 -0.1817  0.4823
  875MOL0     C18046   0.383   4.513   6.424  0.2565 -0.8660  0.7013
  875MOL0     C18047   0.298   4.444   6.508  0.8241  0.1858 -0.1233
  875MOL0     O18048   0.167   4.431   6.485 -0.2418  0.1135 -0.0168
  875MOL0     C18049   0.105   4.486   6.370 -0.2849  0.2543 -0.0303
  875MOL0     C18050  -0.045   4.462   6.371  0.7761 -0.0853 -0.4384
  875MOL0     C18051  -0.088   4.313   6.379 -0.3785  0.3410  1.8191
  875MOL0     C18052  -0.073   4.238   6.245  0.1989  0.7673  0.2599
  875MOL0     C18053  -0.157   4.117   6.253  0.3488 -0.2126  0.7378
  875MOL0     C18054  -0.244   4.032   6.256  0.2741  0.3220 -0.6692
  875MOL0     C18055   0.348   4.376   6.616 -0.4740  0.1234 -0.4316
  875MOL0     C18056   0.487   4.385   6.648  0.5725 -0.8939 -1.0673
  875MOL0     C18057   0.534   4.311   6.768 -0.7105 -0.3673 -0.2285
  875MOL0     H18058   0.845   4.228   6.404  0.0787  2.1976  1.0005
  875MOL0     H18059   1.071   4.090   6.359  1.3836  0.5562 -0.6292
  875MOL0     H18060   1.096   3.859   6.586  0.5541  0.0888  1.7660
  875MOL0     H18061   1.224   3.816   6.481 -1.1094 -1.6244  0.5733
  875MOL0     H18062   1.253   3.877   6.769  0.9475  2.4487 -1.3860
  875MOL0     H18063   1.378   3.843   6.659  0.8165  0.9930  1.8881
  875MOL0     H18064   1.365   3.634   6.764  0.3310  0.0977 -0.0381
  875MOL0     H18065   1.264   3.611   6.621 -4.8484  0.4473 -0.2214
  875MOL0     H18066   1.138   3.677   6.885 -0.3605  0.0364 -0.0321
  875MOL0     H18067   1.060   3.672   6.733  0.7555  1.8839  0.0758
  875MOL0     H18068   1.122   3.437   6.687  2.4401  1.9376 -0.6705
  875MOL0     H18069   1.213   3.423   6.845  0.0569  0.5367  1.6589
  875MOL0     H18070   1.008   3.463   6.956 -0.0181  2.4628 -0.4688
  875MOL0     H18071   0.922   3.478   6.807 -1.9018 -0.5817  1.1097
  875MOL0     H18072   1.082   3.224   6.902  0.7822 -2.5430 -2.0976
  875MOL0     H18073   0.978   3.235   6.754  2.3778 -1.3661 -0.4441
  875MOL0     H18074   0.774   3.270   6.905 -0.8073 -2.0207 -0.5451
  875MOL0     H18075   0.866   3.116   6.929 -2.5239 -0.3307 -1.5480
  875MOL0     H18076   1.080   3.131   7.140  0.1955 -0.9083 -0.1710
  875MOL0     H18077   1.147   3.179   7.404  0.6575  0.8785  3.0928
  875MOL0     H18078   1.018   3.248   7.496 -0.0534 -0.1890  0.3128
  875MOL0     H18079   0.895   3.053   7.528  1.4836  2.2870  1.2408
  875MOL0     H18080   0.937   2.983   7.373 -0.0240 -0.8072  0.2499
  875MOL0     H18081   1.145   3.019   7.589 -2.1091  1.3157  1.4131
  875MOL0     H18082   1.175   2.943   7.432 -1.4490 -0.5627  0.0779
  875MOL0     H18083   0.991   2.789   7.470  1.0478  1.9659 -1.9396
  875MOL0     H18084   0.984   2.834   7.640  0.0479  0.8770 -0.2415
  875MOL0     H18085   1.141   2.917   7.802 -0.9278 -0.5062  2.1042
  875MOL0     H18086   1.236   2.892   8.000  0.9147 -0.9770  1.9461
  875MOL0     H18087   1.275   2.796   8.354 -0.8081 -0.4013  1.5241
  875MOL0     H18088   1.349   2.796   8.586 -0.3398  0.0559 -0.6570
  875MOL0     H18089   1.531   2.746   8.858  1.6132  1.3940 -0.5463
  875MOL0     H18090   1.445   2.680   8.733 -0.5020  0.7458 -0.4749
  875MOL0     H18091   1.651   2.546   8.646  0.3488  0.0157 -0.0643
  875MOL0     H18092   1.753   2.640   8.745  0.3120  0.1149 -3.4487
  875MOL0     H18093   1.551   2.532   8.916  2.3477  1.1874  1.4750
  875MOL0     H18094   1.602   2.395   8.809 -0.9751  0.5521 -0.4668
  875MOL0     H18095   1.785   2.568   8.988 -1.5831 -1.0733  3.8170
  875MOL0     H18096   1.837   2.423   8.885 -1.9645 -2.3183 -0.4502
  875MOL0     H18097   1.665   2.290   8.995  2.8382 -2.1302  0.4341
  875MOL0     H18098   1.638   2.418   9.107 -2.3331 -0.8170 -1.9778
  875MOL0     H18099   1.786   2.213   9.164 -3.5225 -0.5137 -3.1829
  875MOL0     H18100   1.903   2.251   9.043 -3.1124 -1.3092 -2.5388
  875MOL0     H18101   1.831   2.440   9.278 -0.6694 -1.6517 -0.4937
  875MOL0     H18102   1.940   2.492   9.157 -1.2325  1.4122  1.5168
  875MOL0     H18103   2.041   2.398   9.367 -1.5725  0.2596  1.0090
  875MOL0     H18104   1.957   2.249   9.341 -2.1294  0.3834 -1.0816
  875MOL0     H18105   1.755   2.832   8.464  0.1823 -2.3076  0.4288
  875MOL0     H18106   1.682   2.805   8.216 -1.5762  0.1978 -1.3346
  875MOL0     H18107   1.431   2.529   7.863  0.7744  1.2255 -1.9578
  875MOL0     H18108   1.328   2.554   7.650 -2.3556  0.5293 -1.5145
  875MOL0     H18109   1.143   4.110   6.778 -0.7202  2.8066  1.4483
  875MOL0     H18110   0.968   4.229   6.820  0.9304 -0.1867  0.6410
  875MOL0     H18111   0.595   4.551   6.380  0.2982 -0.0252 -0.3253
  875MOL0     H18112   0.354   4.566   6.333  2.5112 -1.1655 -0.2615
  875MOL0     H18113   0.136   4.438   6.277 -3.4562  0.8989 -1.5604
  875MOL0     H18114   0.122   4.594   6.366  1.4007  0.0763  1.2032
  875MOL0     H18115  -0.084   4.509   6.280  2.6565 -0.4429 -1.4819
  875MOL0     H18116  -0.086   4.508   6.462  0.1694 -1.9160  0.2604
  875MOL0     H18117  -0.191   4.304   6.412 -0.5599 -2.4389  0.7382
  875MOL0     H18118  -0.019   4.267   6.450 -0.2826 -1.5294  0.5905
  875MOL0     H18119  -0.109   4.288   6.154 -3.7426 -4.4929 -1.6031
  875MOL0     H18120   0.026   4.200   6.220  0.1544 -0.5709  1.9849
  875MOL0     H18121  -0.313   3.953   6.279  0.0279  1.3948  2.9817
  875MOL0     H18122   0.303   4.305   6.684 -1.7509 -0.7020 -2.0603
  875MOL0     H18123   0.612   4.367   6.822 -0.4456  0.1601 -1.1333
  875MOL0     H18124   0.454   4.304   6.842 -0.7964  1.3037 -0.1205
  875MOL0     H18125   0.586   4.221   6.733 -1.0765  0.3865 -2.9286
  876MOL0     O18126   9.536   7.956  11.313 -0.2803 -0.5389 -0.4943
  876MOL0     C18127   9.598   7.923  11.417  0.5783  0.2870  0.6565
  876MOL0     O18128   9.564   7.959  11.543  0.3638  0.5116 -0.3045
  876MOL0     C18129   9.475   8.058  11.574  0.8760  0.2063 -0.9279
  876MOL0     C18130   9.503   8.191  11.557 -0.2119 -0.1512 -0.8124
  876MOL0     C18131   9.422   8.288  11.611  0.3785  0.1604  0.0230
  876MOL0     C18132   9.298   8.255  11.653 -0.4956 -0.4653  0.0755
  876MOL0     O18133   9.196   8.343  11.681  0.6996  0.0764  0.3906
  876MOL0     C18134   9.206   8.484  11.642  0.5829  0.3546 -0.1240
  876MOL0     C18135   9.188   8.490  11.488 -0.6284  0.4031  0.2691
  876MOL0     C18136   9.183   8.627  11.445  0.0087  0.0575  0.0918
  876MOL0     C18137   9.181   8.640  11.292  0.0745  0.0331 -0.1270
  876MOL0     C18138   9.181   8.777  11.247  0.2397 -0.9498 -0.1560
  876MOL0     C18139   9.215   8.782  11.099 -0.5347 -0.3781  1.1226
  876MOL0     C18140   9.234   8.918  11.040 -0.1731  0.0036 -0.1411
  876MOL0     C18141   9.125   8.947  10.935 -0.1816  0.1352 -0.2519
  876MOL0     N18142   9.151   8.872  10.815  0.0870 -0.3546 -0.0378
  876MOL0     C18143   9.062   8.775  10.767 -0.3841  0.1627 -0.4072
  876MOL0     C18144   9.124   8.724  10.654  0.4070 -0.5795  0.6800
  876MOL0     C18145   9.058   8.622  10.565 -0.8851 -0.2555  0.3951
  876MOL0     C18146   8.913   8.636  10.543 -0.4578  1.2195  0.1780
  876MOL0     C18147   8.836   8.508  10.499 -0.4926 -0.1631 -1.0472
  876MOL0     C18148   8.704   8.543  10.422  0.4592 -0.0976 -0.5990
  876MOL0     O18149   8.637   8.654  10.480  0.1941  0.1858  0.4737
  876MOL0     C18150   8.548   8.614  10.577  0.5339 -0.0552  0.8052
  876MOL0     C18151   8.589   8.597  10.706  0.3558  0.0623 -0.5270
  876MOL0     C18152   8.492   8.580  10.812 -0.1850 -0.4706  0.0459
  876MOL0     C18153   8.353   8.570  10.782 -0.5959 -0.3653 -0.5388
  876MOL0     C18154   8.256   8.544  10.890 -0.6928 -1.1127  0.8755
  876MOL0     O18155   8.312   8.534  11.018  0.6604 -0.0148 -0.1589
  876MOL0     C18156   8.236   8.528  11.130 -0.7221 -0.1924  0.3806
  876MOL0     C18157   8.155   8.636  11.166 -0.5115  0.1957  0.0902
  876MOL0     C18158   8.071   8.632  11.276 -0.1275  0.3743 -0.2170
  876MOL0     C18159   8.078   8.525  11.364 -0.0505 -0.3368  0.5183
  876MOL0     O18160   8.008   8.507  11.480 -0.0698 -0.5252 -0.4943
  876MOL0     C18161   7.980   8.629  11.552  0.1544 -0.6095 -0.8060
  876MOL0     C18162   7.917   8.591  11.698 -0.1282 -0.1194  0.2913
  876MOL0     C18163   7.783   8.527  11.684  0.1991  0.3949 -0.2478
  876MOL0     C18164   7.671   8.622  11.724  0.2321  0.3930  0.6403
  876MOL0     C18165   7.534   8.549  11.705 -0.0167 -0.4570  0.4883
  876MOL0     C18166   7.421   8.642  11.752  0.0905  0.5416 -0.1828
  876MOL0     C18167   7.293   8.568  11.774 -0.5245 -0.0394 -0.2879
  876MOL0     C18168   7.173   8.663  11.815 -0.3891  0.1884  0.6441
  876MOL0    Cl18169   7.105   8.760  11.685 -0.0880 -0.7215  0.0520
  876MOL0     C18170   8.167   8.422  11.342 -0.1302  0.0663  0.6436
  876MOL0     C18171   8.238   8.420  11.219  0.2373  0.4646 -0.3140
  876MOL0     O18172   8.136   8.540  10.864  0.1052 -0.7441  0.1624
  876MOL0     C18173   8.317   8.572  10.649 -1.4049 -0.5628 -0.5855
  876MOL0     C18174   8.413   8.593  10.548  0.7212 -0.4375 -0.7461
  876MOL0     N18175   9.246   8.791  10.631 -0.5089  0.1673  0.1546
  876MOL0     N18176   9.255   8.886  10.721 -0.6203 -0.0725 -0.7394
  876MOL0     C18177   9.268   8.123  11.679 -0.0302  0.3207  0.1324
  876MOL0     C18178   9.357   8.020  11.644 -0.1454 -1.2094 -0.7121
  876MOL0     C18179   9.709   7.837  11.397 -0.4569 -0.9021  0.0861
  876MOL0     C18180   9.813   7.838  11.494  0.4227 -0.1284  0.1375
  876MOL0     C18181   9.928   7.764  11.487 -0.5087  0.3582  0.2207
  876MOL0     C18182   9.934   7.676  11.382 -0.2804 -0.0069  0.7614
  876MOL0     O18183  10.034   7.583  11.370  0.5747 -0.5234 -0.2862
  876MOL0     C18184  10.095   7.542  11.495  0.0849  0.4535  1.2729
  876MOL0     C18185  10.171   7.414  11.454 -0.4313 -0.8281 -0.5297
  876MOL0     C18186  10.295   7.441  11.353  0.2907  0.5950 -0.4074
  876MOL0     C18187  10.351   7.313  11.303  0.4109 -0.2902 -0.0901
  876MOL0     C18188  10.451   7.360  11.212 -0.8837 -0.3131  0.1288
  876MOL0     C18189  10.529   7.417  11.141  0.5856 -0.6944 -0.1749
  876MOL0     C18190   9.841   7.677  11.278  0.2083 -0.3898 -0.6336
  876MOL0     C18191   9.722   7.756  11.288 -0.1678  0.4806 -0.6188
  876MOL0     C18192   9.634   7.736  11.171  0.2772 -0.1262 -0.2203
  876MOL0     H18193   9.597   8.222  11.513  0.9678 -0.9557  1.0075
  876MOL0     H18194   9.460   8.388  11.596  1.8610 -0.3040  0.5010
  876MOL0     H18195   9.124   8.543  11.682  0.6984 -1.0299  2.3229
  876MOL0     H18196   9.308   8.522  11.655  2.0397 -3.1187 -0.4146
  876MOL0     H18197   9.098   8.440  11.450 -1.5501  2.7254 -0.7668
  876MOL0     H18198   9.271   8.439  11.438  0.4739  1.2787  1.1558
  876MOL0     H18199   9.270   8.676  11.488 -0.8151 -0.3963  2.4155
  876MOL0     H18200   9.088   8.670  11.478 -1.1726  0.9528 -3.9060
  876MOL0     H18201   9.271   8.594  11.251  0.7301  1.3424 -0.1999
  876MOL0     H18202   9.091   8.603  11.242  1.0155  0.6299 -2.3764
  876MOL0     H18203   9.081   8.812  11.275 -0.4719 -2.4559 -0.7053
  876MOL0     H18204   9.259   8.842  11.289  0.1359  0.5374 -2.1135
  876MOL0     H18205   9.307   8.725  11.081 -0.5135 -0.4183  1.3524
  876MOL0     H18206   9.137   8.726  11.046  1.6136 -1.5608 -0.9859
  876MOL0     H18207   9.337   8.923  11.005  0.5788 -1.2391  1.7484
  876MOL0     H18208   9.216   8.988  11.122 -2.9352  0.6983 -1.2259
  876MOL0     H18209   9.027   8.916  10.973 -0.2426  1.7802  1.0985
  876MOL0     H18210   9.128   9.055  10.917  2.1201 -0.1717 -2.3485
  876MOL0     H18211   8.972   8.731  10.810  0.3837 -1.5245 -0.4543
  876MOL0     H18212   9.104   8.628  10.466  0.0424  0.1229  0.8458
  876MOL0     H18213   9.078   8.523  10.606  1.1008  0.8749  2.3019
  876MOL0     H18214   8.861   8.677  10.630  2.3215  1.5356  1.8110
  876MOL0     H18215   8.901   8.715  10.469  2.5645  2.3127  0.7155
  876MOL0     H18216   8.816   8.451  10.590 -0.2108  0.4523 -0.5880
  876MOL0     H18217   8.891   8.447  10.427  1.5832  1.5732 -1.0500
  876MOL0     H18218   8.638   8.457  10.412  0.7012 -0.4723  0.8446
  876MOL0     H18219   8.729   8.567  10.318  1.4458 -1.8255 -0.7932
  876MOL0     H18220   8.687   8.608  10.751  0.4663  1.9350 -1.1446
  876MOL0     H18221   8.532   8.567  10.912  0.4909 -1.2678 -0.3218
  876MOL0     H18222   8.165   8.731  11.113  1.6589 -0.1979 -0.2806
  876MOL0     H18223   8.005   8.715  11.299  1.6895  1.7152  0.3151
  876MOL0     H18224   8.072   8.685  11.571 -0.2141 -0.2459 -0.0306
  876MOL0     H18225   7.909   8.701  11.510 -0.4865 -1.0630 -0.5166
  876MOL0     H18226   7.981   8.516  11.745  2.6589  0.7105 -1.8815
  876MOL0     H18227   7.916   8.681  11.760  3.7119  0.8641 -0.8048
  876MOL0     H18228   7.773   8.484  11.584  1.5778  1.6336 -0.9673
  876MOL0     H18229   7.780   8.448  11.759  2.2339 -0.5216 -1.0560
  876MOL0     H18230   7.691   8.713  11.667 -0.1833  0.7469  1.0567
  876MOL0     H18231   7.676   8.654  11.828 -1.4530  2.7002  0.0784
  876MOL0     H18232   7.527   8.452  11.755 -2.5254 -1.1491 -0.9895
  876MOL0     H18233   7.521   8.535  11.597 -0.7195  0.8106  0.3830
  876MOL0     H18234   7.435   8.707  11.839 -0.3658  0.8302 -0.3171
  876MOL0     H18235   7.396   8.703  11.664 -0.4290 -0.0728 -0.4661
  876MOL0     H18236   7.321   8.490  11.845  0.2916  0.6805  0.1977
  876MOL0     H18237   7.261   8.523  11.679  2.0425  1.7408 -2.1403
  876MOL0     H18238   7.091   8.614  11.868 -2.3387  1.8922 -0.6485
  876MOL0     H18239   7.219   8.731  11.887  1.9317 -0.5733 -0.0489
  876MOL0     H18240   8.162   8.338  11.410 -0.7669 -0.3936  0.0449
  876MOL0     H18241   8.280   8.326  11.185 -1.8399  0.6624 -3.9441
  876MOL0     H18242   8.215   8.538  10.637 -1.3725 -0.6338 -0.6537
  876MOL0     H18243   8.365   8.578  10.452 -2.8011 -2.6210  1.0966
  876MOL0     H18244   9.174   8.100  11.728 -0.5185 -1.5392 -1.5430
  876MOL0     H18245   9.331   7.915  11.654 -0.9036 -1.0164 -0.6041
  876MOL0     H18246   9.795   7.890  11.588 -0.1822  1.3746 -0.7845
  876MOL0     H18247   9.998   7.756  11.570 -1.0218  1.3093  0.7657
  876MOL0     H18248  10.044   7.535  11.591  4.0271 -3.8281  3.4721
  876MOL0     H18249  10.169   7.618  11.523 -1.2238  2.2015  0.1405
  876MOL0     H18250  10.096   7.340  11.424 -0.2793 -1.7602  1.2197
  876MOL0     H18251  10.216   7.369  11.543  3.6711  1.0541 -1.4223
  876MOL0     H18252  10.368   7.507  11.402  0.8648 -1.1285  1.1608
  876MOL0     H18253  10.253   7.492  11.265 -1.6758  1.2641  0.8426
  876MOL0     H18254  10.374   7.247  11.387 -2.2131 -1.4491 -0.1719
  876MOL0     H18255  10.276   7.261  11.243  0.7212 -1.4983  0.5279
  876MOL0     H18256  10.592   7.471  11.072 -1.1537  1.8966  0.1161
  876MOL0     H18257   9.856   7.608  11.195 -3.4817 -0.7087 -1.2432
  876MOL0     H18258   9.631   7.826  11.109 -1.3692 -1.2638 -1.9236
  876MOL0     H18259   9.665   7.643  11.122  1.0949 -1.1162  2.0547
  876MOL0     H18260   9.532   7.716  11.206  1.0237 -3.4466  0.4172
  877MOL0     O18261   7.544   2.183   4.285  0.4872  0.2881  0.0253
  877MOL0     C18262   7.511   2.063   4.261  0.7607  0.7709 -0.5664
  877MOL0     O18263   7.595   1.956   4.249 -0.2157  0.3969 -0.4009
  877MOL0     C18264   7.729   1.966   4.247 -0.4259 -0.2730  0.3309
  877MOL0     C18265   7.792   1.842   4.230  0.1588  0.9511 -0.4688
  877MOL0     C18266   7.926   1.827   4.223  0.6072  0.3748 -0.2168
  877MOL0     C18267   8.006   1.942   4.254  0.6028  0.8632  0.3989
  877MOL0     O18268   8.145   1.917   4.252 -0.2064  0.1984  0.2594
  877MOL0     C18269   8.236   2.023   4.299 -0.1783  0.3697 -0.1795
  877MOL0     C18270   8.373   1.958   4.305 -0.1003  0.7632  0.9164
  877MOL0     C18271   8.422   1.926   4.162 -0.4845  0.5869  0.0345
  877MOL0     C18272   8.551   1.839   4.174  0.3461  0.0210  0.3344
  877MOL0     C18273   8.677   1.926   4.187  0.1631 -0.3344 -0.1630
  877MOL0     C18274   8.811   1.878   4.135  0.1003 -0.6265  0.3474
  877MOL0     C18275   8.833   1.726   4.166  0.9784  0.3218 -0.3535
  877MOL0     C18276   8.971   1.670   4.146  0.9688 -0.1280 -0.1186
  877MOL0     N18277   8.968   1.522   4.148 -0.4777  0.1275 -0.2313
  877MOL0     C18278   9.036   1.453   4.252  1.2280  0.2452 -0.5045
  877MOL0     C18279   9.048   1.329   4.209  0.8325  0.4229 -0.0106
  877MOL0     C18280   9.101   1.204   4.284  0.8282  0.0382  0.9105
  877MOL0     C18281   9.245   1.225   4.337  0.1469 -0.1903 -0.6540
  877MOL0     C18282   9.294   1.112   4.426 -0.4222  1.3304 -0.7328
  877MOL0     C18283   9.254   0.969   4.372 -0.3717  0.3754  0.8627
  877MOL0     O18284   9.299   0.855   4.454  0.4826 -0.3438 -0.0030
  877MOL0     C18285   9.431   0.819   4.456 -0.1033 -0.2580 -0.3325
  877MOL0     C18286   9.467   0.740   4.562 -0.2416  0.7032 -0.2016
  877MOL0     C18287   9.596   0.724   4.594  0.1022  0.0814  1.0231
  877MOL0     C18288   9.703   0.765   4.515  0.4982  0.3620 -0.1351
  877MOL0     C18289   9.845   0.748   4.559  0.4996  0.6736  0.6142
  877MOL0     O18290   9.927   0.749   4.454  0.2128  0.4344  0.1389
  877MOL0     C18291  10.050   0.803   4.486  0.8084 -0.0614  0.1074
  877MOL0     C18292  10.077   0.937   4.452 -0.2249  0.1415  0.0610
  877MOL0     C18293  10.197   0.992   4.477 -0.3639 -0.2140 -0.8062
  877MOL0     C18294  10.294   0.920   4.551 -1.0759  0.7196 -0.1807
  877MOL0     O18295  10.423   0.980   4.567  0.5207  0.2828 -0.7100
  877MOL0     C18296  10.514   0.932   4.671  0.0958  0.3217  0.3115
  877MOL0     C18297  10.626   1.026   4.693 -1.4347  0.3462  0.4511
  877MOL0     C18298  10.742   0.953   4.761 -0.2979 -1.3820  0.6938
  877MOL0     C18299  10.869   1.035   4.781 -0.0844  0.0092 -0.6436
  877MOL0     C18300  10.967   0.966   4.882 -0.6945 -0.7353 -0.9350
  877MOL0     C18301  11.115   0.995   4.860  0.1392  0.1050  0.4509
  877MOL0     C18302  11.177   0.946   4.728 -0.6654  0.9163  0.0123
  877MOL0     C18303  11.157   0.800   4.697 -0.0383 -0.2872 -0.5672
  877MOL0    Cl18304  11.228   0.660   4.805 -0.5237  0.4311  0.0696
  877MOL0     C18305  10.269   0.787   4.585 -0.2484  0.1938 -0.3735
  877MOL0     C18306  10.145   0.738   4.558 -0.3125  0.2366 -0.2632
  877MOL0     O18307   9.876   0.742   4.681 -0.3607 -0.2133 -0.3359
  877MOL0     C18308   9.674   0.847   4.406  0.1583 -0.0715 -0.0818
  877MOL0     C18309   9.538   0.874   4.378  0.2247  0.3550 -0.0496
  877MOL0     N18310   8.999   1.322   4.078  0.2057 -0.5392 -0.2823
  877MOL0     N18311   8.955   1.435   4.045 -0.1008 -0.1405  0.0480
  877MOL0     C18312   7.950   2.064   4.280 -0.2646 -0.2254  0.7273
  877MOL0     C18313   7.812   2.079   4.272 -0.1178  0.1644 -0.0739
  877MOL0     C18314   7.364   2.026   4.261  0.6351  0.4554  0.9167
  877MOL0     C18315   7.327   1.890   4.289 -0.2639  0.2476  0.9389
  877MOL0     C18316   7.192   1.858   4.303  0.7865 -0.1459  0.5092
  877MOL0     C18317   7.089   1.951   4.296 -0.0457  0.6463 -0.6626
  877MOL0     O18318   6.956   1.899   4.295  0.2737  0.3991 -0.8912
  877MOL0     C18319   6.840   1.984   4.301 -0.0147  0.1913 -1.3180
  877MOL0     C18320   6.807   2.041   4.163  0.3751  0.9137 -0.2856
  877MOL0     C18321   6.864   1.946   4.052  0.1597 -0.7003 -0.3369
  877MOL0     C18322   6.833   1.995   3.905  0.0047  0.5242 -0.1826
  877MOL0     C18323   6.681   1.983   3.887 -0.2999  0.0518 -0.6354
  877MOL0     C18324   6.564   1.962   3.873 -0.0654  0.7606 -0.7433
  877MOL0     C18325   7.122   2.086   4.268 -0.5838 -0.8571 -0.3040
  877MOL0     C18326   7.257   2.123   4.246 -0.3402  0.8259 -0.0970
  877MOL0     C18327   7.281   2.276   4.258  0.5270  0.8606 -0.7581
  877MOL0     H18328   7.737   1.750   4.214  1.2057  0.2884 -0.3700
  877MOL0     H18329   7.983   1.736   4.202  2.1631  1.3068 -0.2326
  877MOL0     H18330   8.234   2.108   4.229 -1.8599  0.9373  0.5140
  877MOL0     H18331   8.216   2.060   4.400 -0.0566  0.1641 -0.0803
  877MOL0     H18332   8.368   1.863   4.360  0.0616 -0.9110 -1.7680
  877MOL0     H18333   8.447   2.019   4.359  1.6804 -1.0542  0.6718
  877MOL0     H18334   8.452   2.020   4.116  1.5869 -0.7747 -1.5841
  877MOL0     H18335   8.345   1.870   4.108  2.5297 -3.3651 -0.6704
  877MOL0     H18336   8.552   1.770   4.260 -0.9047 -1.4130 -0.7440
  877MOL0     H18337   8.574   1.784   4.082  1.4447 -4.4393  2.9353
  877MOL0     H18338   8.661   2.023   4.140 -3.7305 -2.0801 -2.9719
  877MOL0     H18339   8.703   1.951   4.291 -0.8814 -0.7773  0.2245
  877MOL0     H18340   8.824   1.889   4.027  0.2651 -0.0602  0.4183
  877MOL0     H18341   8.896   1.929   4.180  0.5793 -1.9734  1.0148
  877MOL0     H18342   8.762   1.663   4.111  0.7916  0.9635 -0.8578
  877MOL0     H18343   8.812   1.722   4.274 -0.4198 -0.5189 -0.6287
  877MOL0     H18344   9.011   1.697   4.048  2.8714  0.4248  0.7710
  877MOL0     H18345   9.029   1.707   4.231 -0.1034  0.9114  0.1866
  877MOL0     H18346   9.062   1.491   4.350 -2.9464 -2.3780  1.9202
  877MOL0     H18347   9.027   1.179   4.360 -1.1170 -1.1138 -1.2255
  877MOL0     H18348   9.099   1.120   4.213 -0.0505 -0.4896  1.5436
  877MOL0     H18349   9.317   1.242   4.257 -0.4174  2.9192 -0.6478
  877MOL0     H18350   9.260   1.318   4.393  0.8348 -0.6559 -0.0384
  877MOL0     H18351   9.267   1.137   4.529 -0.2842 -0.9414 -0.0874
  877MOL0     H18352   9.403   1.118   4.419 -0.3820  2.0043  0.2145
  877MOL0     H18353   9.294   0.957   4.271  1.4737 -3.9347  1.9112
  877MOL0     H18354   9.145   0.969   4.363 -0.2323  0.4956 -1.3192
  877MOL0     H18355   9.401   0.699   4.637 -0.6589  0.6686 -0.5836
  877MOL0     H18356   9.614   0.654   4.674  1.5275  0.6402  1.2299
  877MOL0     H18357  10.006   0.982   4.383  0.1500 -0.3373 -0.6535
  877MOL0     H18358  10.222   1.089   4.437 -0.7238 -0.2686 -1.1704
  877MOL0     H18359  10.461   0.917   4.765  0.7431 -1.8415  0.3849
  877MOL0     H18360  10.545   0.830   4.645 -1.5771 -0.1433  0.0212
  877MOL0     H18361  10.657   1.054   4.592 -0.5379  2.0970  1.1639
  877MOL0     H18362  10.602   1.120   4.743 -0.7336  0.1239  1.2273
  877MOL0     H18363  10.706   0.946   4.864  0.6346 -1.5573  1.0099
  877MOL0     H18364  10.767   0.858   4.713  0.5537 -0.6837 -0.2853
  877MOL0     H18365  10.855   1.141   4.802  0.3834 -0.4559  2.6104
  877MOL0     H18366  10.924   1.025   4.688 -0.0931  1.2687 -0.7974
  877MOL0     H18367  10.953   0.858   4.881 -1.1455 -1.0390  4.9526
  877MOL0     H18368  10.941   0.995   4.984  0.0557  0.4677 -1.0627
  877MOL0     H18369  11.140   1.102   4.860  0.7262 -0.0070  1.9549
  877MOL0     H18370  11.172   0.946   4.939  2.4817  2.0141  0.0594
  877MOL0     H18371  11.285   0.956   4.740 -0.8309 -0.3152  3.6855
  877MOL0     H18372  11.133   0.994   4.640 -2.7343 -0.6135  0.1429
  877MOL0     H18373  11.050   0.775   4.690  0.5584 -3.5053  0.2142
  877MOL0     H18374  11.190   0.781   4.594 -0.9409  0.4538 -1.0146
  877MOL0     H18375  10.338   0.731   4.646  0.0137 -0.3134 -1.1243
  877MOL0     H18376  10.127   0.639   4.598  0.4876  0.7573  1.5281
  877MOL0     H18377   9.748   0.899   4.346 -0.0237 -0.4049 -0.6101
  877MOL0     H18378   9.522   0.943   4.296  0.7051  1.1358  0.4986
  877MOL0     H18379   8.014   2.147   4.307 -0.1312 -0.0611 -0.0559
  877MOL0     H18380   7.775   2.176   4.304 -1.0944 -0.5485  1.0661
  877MOL0     H18381   7.406   1.816   4.298  1.2523  1.6968  0.0058
  877MOL0     H18382   7.159   1.755   4.309  1.1972 -0.3380 -0.4309
  877MOL0     H18383   6.858   2.063   4.375  1.1927 -1.8545  0.7235
  877MOL0     H18384   6.749   1.932   4.331  1.0708 -0.9661  0.1312
  877MOL0     H18385   6.860   2.137   4.168 -1.1968  1.7468  3.4227
  877MOL0     H18386   6.702   2.069   4.160 -0.0335 -0.4370  0.4041
  877MOL0     H18387   6.851   1.838   4.061  0.8779 -0.9018 -1.4780
  877MOL0     H18388   6.973   1.943   4.053  0.4340  2.0429 -3.5902
  877MOL0     H18389   6.865   2.100   3.908  1.9479  0.0191  4.1437
  877MOL0     H18390   6.899   1.943   3.835  1.4207  1.6399  0.2691
  877MOL0     H18391   6.457   1.956   3.868 -0.0259 -0.9972 -0.3669
  877MOL0     H18392   7.040   2.156   4.254 -2.3806 -3.1435 -2.3261
  877MOL0     H18393   7.186   2.330   4.267  1.0552  2.3674 -3.2859
  877MOL0     H18394   7.346   2.292   4.344 -0.8904  0.6013  0.4109
  877MOL0     H18395   7.334   2.300   4.165 -1.2305  0.1431 -2.0188
  878MOL0     O18396   9.114   2.240   5.934 -0.7832 -0.2095 -0.0192
  878MOL0     C18397   9.023   2.292   5.997  0.2429  0.2204  0.1173
  878MOL0     O18398   9.000   2.430   5.999 -0.7359  0.1864  0.2610
  878MOL0     C18399   9.084   2.504   5.925  0.5896 -0.5891  0.0408
  878MOL0     C18400   9.047   2.543   5.790 -0.7089  0.4363 -0.5855
  878MOL0     C18401   9.138   2.620   5.714  0.1995 -0.9317 -0.2504
  878MOL0     C18402   9.267   2.659   5.763  0.2428  0.0278 -0.6325
  878MOL0     O18403   9.366   2.696   5.684 -0.4912  0.1238  0.5541
  878MOL0     C18404   9.503   2.708   5.725  0.1668  0.7738 -0.1675
  878MOL0     C18405   9.576   2.724   5.590  0.1819  0.4325  0.4524
  878MOL0     C18406   9.728   2.742   5.600  0.0871 -1.0069  0.1404
  878MOL0     C18407   9.805   2.764   5.464 -0.2984  0.1228 -0.6263
  878MOL0     C18408   9.950   2.803   5.482 -0.5991 -0.0095 -0.8349
  878MOL0     C18409  10.016   2.854   5.352 -0.6208  0.6286 -0.3046
  878MOL0     C18410  10.176   2.852   5.356  0.3419 -0.7166 -0.6000
  878MOL0     C18411  10.240   2.953   5.451 -1.4281  0.5916  0.0900
  878MOL0     N18412  10.329   2.898   5.559  0.2099 -0.2154 -0.4192
  878MOL0     C18413  10.428   2.802   5.530 -0.6199 -0.0767 -0.1295
  878MOL0     C18414  10.462   2.743   5.644 -0.6387 -0.4803 -0.7579
  878MOL0     C18415  10.568   2.638   5.655 -0.0477 -0.4136  0.4259
  878MOL0     C18416  10.705   2.687   5.682  0.1686  0.3635 -0.0595
  878MOL0     C18417  10.720   2.719   5.827  0.7299 -0.4614  0.3466
  878MOL0     C18418  10.778   2.602   5.906 -0.0417  1.0068  0.7268
  878MOL0     O18419  10.794   2.636   6.040 -0.4088  0.1489  0.5110
  878MOL0     C18420  10.902   2.707   6.079 -0.8092  0.4325  0.3311
  878MOL0     C18421  10.905   2.721   6.220  0.4237 -0.1070  0.7349
  878MOL0     C18422  11.017   2.788   6.278 -0.0990 -0.2957 -0.2611
  878MOL0     C18423  11.117   2.845   6.194 -0.2717  0.8641  0.0109
  878MOL0     C18424  11.233   2.909   6.260 -0.6132  0.0195  0.5347
  878MOL0     O18425  11.339   2.932   6.185 -0.3573 -1.1623  0.4870
  878MOL0     C18426  11.465   2.971   6.234  0.6762  0.3628 -0.1223
  878MOL0     C18427  11.567   2.885   6.186 -0.0754  0.6400  0.5154
  878MOL0     C18428  11.700   2.916   6.217 -0.6330 -0.3082  0.3314
  878MOL0     C18429  11.735   3.026   6.286  0.5976 -0.2748 -0.3131
  878MOL0     O18430  11.865   3.033   6.323  0.9035  0.2833  0.3369
  878MOL0     C18431  11.899   3.104   6.438 -0.2716 -0.3764 -0.1123
  878MOL0     C18432  11.883   3.017   6.566  0.6353 -0.0712 -0.0392
  878MOL0     C18433  11.930   3.086   6.694  0.4916  0.1009 -0.6907
  878MOL0     C18434  11.941   2.976   6.803  0.2885 -0.0014  0.5117
  878MOL0     C18435  11.890   3.023   6.946  0.5865 -0.4245 -0.0317
  878MOL0     C18436  11.914   2.929   7.069  0.3922  0.0352 -0.5001
  878MOL0     C18437  12.054   2.882   7.111 -0.5776 -0.8251 -0.4217
  878MOL0     C18438  12.068   2.764   7.215 -0.1183 -0.3698  1.2392
  878MOL0    Cl18439  12.032   2.618   7.113 -0.4769 -0.1309 -0.1396
  878MOL0     C18440  11.632   3.114   6.344  0.9600  0.1999  0.3148
  878MOL0     C18441  11.497   3.083   6.307  0.4445 -1.3755 -0.3399
  878MOL0     O18442  11.223   2.941   6.374  0.0647 -0.4735  0.1937
  878MOL0     C18443  11.110   2.834   6.057 -0.6420 -0.1160 -0.1974
  878MOL0     C18444  11.009   2.761   5.998  0.9505  1.1687  0.5611
  878MOL0     N18445  10.376   2.793   5.744 -0.4456  0.2508  0.8679
  878MOL0     N18446  10.295   2.875   5.686 -0.3156 -0.1086 -0.6109
  878MOL0     C18447   9.295   2.621   5.896  0.1562  0.1946  0.2768
  878MOL0     C18448   9.203   2.546   5.974 -0.6181  0.1958 -0.2884
  878MOL0     C18449   8.925   2.200   6.064  1.1724  1.0198 -0.1614
  878MOL0     C18450   8.829   2.251   6.145  0.3391 -0.4607 -0.3562
  878MOL0     C18451   8.724   2.165   6.200 -1.0240 -0.2803 -0.3386
  878MOL0     C18452   8.744   2.029   6.213 -0.7413  0.0749  0.4314
  878MOL0     O18453   8.678   1.947   6.300 -0.4550 -0.3275 -0.6784
  878MOL0     C18454   8.553   1.993   6.354 -0.5431 -0.6656  0.8022
  878MOL0     C18455   8.491   1.874   6.419  0.9867  0.1941  0.4723
  878MOL0     C18456   8.455   1.757   6.326  0.0328  0.3947 -0.1175
  878MOL0     C18457   8.329   1.690   6.371 -0.2502 -0.4445 -0.3488
  878MOL0     C18458   8.309   1.563   6.299  0.4821 -0.0029 -0.3180
  878MOL0     C18459   8.303   1.456   6.246 -0.3111  0.5727 -0.6168
  878MOL0     C18460   8.849   1.977   6.130 -0.3175  0.7170  0.0615
  878MOL0     C18461   8.931   2.054   6.049  0.5550 -0.3437  0.0264
  878MOL0     C18462   9.032   1.980   5.955 -0.7376  0.0208  0.3077
  878MOL0     H18463   8.956   2.505   5.744 -1.2917  0.0667  0.7993
  878MOL0     H18464   9.105   2.644   5.613  0.3563  0.5173  0.0166
  878MOL0     H18465   9.515   2.799   5.786  1.0686  1.3008 -1.0828
  878MOL0     H18466   9.537   2.619   5.779 -0.8900  0.5336  0.1141
  878MOL0     H18467   9.553   2.818   5.539  2.6669  0.5442 -0.6508
  878MOL0     H18468   9.542   2.646   5.521 -0.0270 -1.2582  2.3917
  878MOL0     H18469   9.781   2.667   5.659  1.9593 -0.6982 -1.0485
  878MOL0     H18470   9.728   2.841   5.647 -3.8526 -0.2625 -1.1004
  878MOL0     H18471   9.791   2.671   5.407  2.3976 -0.2939 -0.7351
  878MOL0     H18472   9.764   2.839   5.397  0.1622 -0.4815 -1.6114
  878MOL0     H18473   9.965   2.887   5.551  2.0620 -1.2802  0.2673
  878MOL0     H18474  10.015   2.721   5.515  1.4897  1.1932 -1.7355
  878MOL0     H18475   9.992   2.785   5.271  1.0749 -0.9207  0.4300
  878MOL0     H18476   9.986   2.955   5.322 -0.6132  1.5835  2.6269
  878MOL0     H18477  10.229   2.874   5.262  2.7423 -1.9442  0.3824
  878MOL0     H18478  10.200   2.750   5.385  1.9843  0.0000  0.7440
  878MOL0     H18479  10.305   3.011   5.385 -0.9816 -1.9420 -1.8487
  878MOL0     H18480  10.163   3.021   5.489 -3.0448  0.8984 -3.4324
  878MOL0     H18481  10.475   2.781   5.435 -0.6528 -1.1366  0.0756
  878MOL0     H18482  10.529   2.589   5.745 -1.4481 -0.4242 -0.1668
  878MOL0     H18483  10.577   2.570   5.570 -2.1916 -1.1890  0.7499
  878MOL0     H18484  10.781   2.611   5.664 -2.5754 -2.3956 -0.7933
  878MOL0     H18485  10.712   2.769   5.611 -1.2358 -0.5806 -1.3406
  878MOL0     H18486  10.627   2.759   5.868  0.8346 -0.6437  0.7669
  878MOL0     H18487  10.788   2.805   5.839 -0.4137  0.6958 -1.0406
  878MOL0     H18488  10.875   2.562   5.873 -1.4465 -2.5562  0.4062
  878MOL0     H18489  10.719   2.510   5.894  0.0928  0.6106  2.6852
  878MOL0     H18490  10.818   2.682   6.271 -1.3065 -1.4941 -2.9290
  878MOL0     H18491  11.024   2.802   6.385 -1.8409 -3.2354  0.3689
  878MOL0     H18492  11.561   2.799   6.119  0.1529  0.1401  1.1206
  878MOL0     H18493  11.778   2.842   6.198 -0.8852 -0.9336  1.5845
  878MOL0     H18494  12.005   3.127   6.433 -0.5277  1.3164  1.1474
  878MOL0     H18495  11.864   3.205   6.462  0.6864 -0.1715  0.4856
  878MOL0     H18496  11.784   2.972   6.579  0.2257  1.5344  3.4636
  878MOL0     H18497  11.942   2.926   6.553 -2.5155 -2.6692  2.0606
  878MOL0     H18498  12.031   3.123   6.677  0.4850  0.9414  0.9244
  878MOL0     H18499  11.855   3.160   6.725  0.0270 -1.3468  1.9630
  878MOL0     H18500  12.048   2.958   6.813  0.8721  1.3383 -2.2926
  878MOL0     H18501  11.893   2.880   6.782  0.6359  0.3185 -2.1112
  878MOL0     H18502  11.782   3.033   6.929  0.8895  2.5119 -0.8673
  878MOL0     H18503  11.917   3.125   6.977 -1.3774  0.0163  0.3621
  878MOL0     H18504  11.879   2.980   7.159  0.1588  0.2106 -0.6908
  878MOL0     H18505  11.855   2.840   7.049  0.5145 -0.5791  1.6355
  878MOL0     H18506  12.103   2.964   7.165 -1.1023 -2.9536  3.7277
  878MOL0     H18507  12.112   2.854   7.023  0.4713  2.3022 -0.8418
  878MOL0     H18508  12.164   2.758   7.266  0.4294 -1.4665  0.1527
  878MOL0     H18509  11.990   2.782   7.289 -0.1985  2.6559  0.5395
  878MOL0     H18510  11.655   3.205   6.398 -1.1115  0.4929  0.7868
  878MOL0     H18511  11.408   3.140   6.331  0.5466 -2.3623  2.7915
  878MOL0     H18512  11.184   2.885   5.996  3.2144 -3.6317  1.0718
  878MOL0     H18513  11.002   2.742   5.891 -3.0100 -0.5789  0.9972
  878MOL0     H18514   9.387   2.646   5.948 -0.0244 -0.4552  0.9272
  878MOL0     H18515   9.233   2.521   6.075 -0.1581  1.7069 -0.0230
  878MOL0     H18516   8.820   2.359   6.152  1.8640 -0.2715 -0.8742
  878MOL0     H18517   8.647   2.226   6.247 -0.3749 -0.1194  0.5483
  878MOL0     H18518   8.485   2.036   6.281 -0.2217 -1.2396  0.1526
  878MOL0     H18519   8.574   2.071   6.428  0.9752  2.2476 -2.4160
  878MOL0     H18520   8.399   1.919   6.457  0.6888 -0.3308  0.3786
  878MOL0     H18521   8.553   1.843   6.504 -1.9321  1.3821  3.2299
  878MOL0     H18522   8.547   1.698   6.320 -0.3296 -0.0682 -2.0678
  878MOL0     H18523   8.435   1.786   6.222 -3.4710 -0.3988  0.2156
  878MOL0     H18524   8.351   1.656   6.473 -3.6208 -3.8633 -0.4934
  878MOL0     H18525   8.247   1.762   6.374  3.3373  4.0522 -0.5889
  878MOL0     H18526   8.311   1.358   6.205  1.0861 -0.5231  2.0396
  878MOL0     H18527   8.866   1.870   6.135 -0.0470  0.8048  1.3549
  878MOL0     H18528   9.133   1.978   5.998 -0.4846 -3.3934 -0.1502
  878MOL0     H18529   9.005   1.875   5.946 -1.5765  0.3731 -2.0164
  878MOL0     H18530   9.025   2.014   5.852 -3.9158  1.6101  0.9206
  879MOL0     O18531  10.492   2.503   0.652  0.1435  0.5740  0.6352
  879MOL0     C18532  10.477   2.410   0.573  1.0849 -0.2801 -1.2942
  879MOL0     O18533  10.579   2.372   0.494  0.0423 -0.2440  0.2355
  879MOL0     C18534  10.688   2.453   0.481  0.1218  0.2405  1.0704
  879MOL0     C18535  10.816   2.400   0.474 -0.2120 -0.0764 -0.7903
  879MOL0     C18536  10.932   2.471   0.445 -0.9041 -0.6103  0.7041
  879MOL0     C18537  10.926   2.611   0.419  0.5342  0.7496  0.0498
  879MOL0     O18538  11.044   2.668   0.372 -0.2242 -0.2479 -0.8343
  879MOL0     C18539  11.038   2.797   0.316 -0.3773  0.3347  0.1329
  879MOL0     C18540  11.169   2.832   0.244  0.0232  0.0889 -0.3101
  879MOL0     C18541  11.295   2.769   0.302  0.0793  0.6493  0.1343
  879MOL0     C18542  11.416   2.819   0.224  0.5487 -0.5737 -0.1985
  879MOL0     C18543  11.546   2.747   0.256 -0.3653  0.1155  0.3186
  879MOL0     C18544  11.658   2.799   0.157  0.3343 -0.9346 -0.8827
  879MOL0     C18545  11.789   2.726   0.176  0.3831 -0.1308  0.6738
  879MOL0     C18546  11.906   2.801   0.109 -0.4289  0.3384  0.3158
  879MOL0     N18547  12.038   2.770   0.163 -0.0586  0.1367 -0.5094
  879MOL0     C18548  12.139   2.738   0.079  1.4435  0.2133 -0.1715
  879MOL0     C18549  12.246   2.758   0.159  0.1294 -0.0576 -0.5044
  879MOL0     C18550  12.382   2.706   0.121 -0.4736 -0.2504  0.1067
  879MOL0     C18551  12.501   2.771   0.191 -0.3906  0.4338 -0.7001
  879MOL0     C18552  12.627   2.746   0.098 -0.4614  0.3138 -0.2775
  879MOL0     C18553  12.761   2.800   0.146 -0.5574  0.3539 -1.0724
  879MOL0     O18554  12.854   2.774   0.036  0.3567 -0.0035  0.4971
  879MOL0     C18555  12.973   2.848   0.054  0.7502  0.7710 -0.8695
  879MOL0     C18556  13.086   2.767   0.047  0.5011  0.3622  0.3523
  879MOL0     C18557  13.210   2.831   0.058  0.3859  0.8040 -0.2867
  879MOL0     C18558  13.222   2.969   0.096  0.8468 -0.3515  0.0632
  879MOL0     C18559  13.351   3.028   0.135 -0.6438  0.9198 -0.1998
  879MOL0     O18560  13.350   3.152   0.192  0.2979 -0.3830  0.2739
  879MOL0     C18561  13.465   3.189   0.257 -0.3724 -0.2514 -0.4783
  879MOL0     C18562  13.563   3.112   0.316  0.1813 -0.8669  0.0707
  879MOL0     C18563  13.666   3.183   0.368 -0.5307  0.6115  0.0835
  879MOL0     C18564  13.671   3.325   0.382 -1.0882  0.6289 -0.5781
  879MOL0     O18565  13.765   3.385   0.468 -0.1175  0.0938  0.1096
  879MOL0     C18566  13.904   3.344   0.461 -0.9278 -0.2284 -0.6188
  879MOL0     C18567  13.976   3.484   0.468  0.2953 -0.1413 -0.4940
  879MOL0     C18568  13.925   3.567   0.582  0.0114  0.1290  0.1093
  879MOL0     C18569  13.914   3.512   0.723  0.3422  0.0820  0.0589
  879MOL0     C18570  13.922   3.596   0.843  0.3938 -0.9255 -0.7280
  879MOL0     C18571  13.821   3.708   0.869 -0.5994  0.4391 -0.4358
  879MOL0     C18572  13.838   3.770   1.010 -0.3712  0.0018 -0.2075
  879MOL0     C18573  13.873   3.911   1.005 -0.1317  0.5629 -0.5537
  879MOL0    Cl18574  14.032   3.962   0.925 -0.1850  0.0594 -0.3805
  879MOL0     C18575  13.574   3.401   0.319  0.2855 -0.0125 -1.0616
  879MOL0     C18576  13.473   3.333   0.263 -0.3011 -0.3051  0.4328
  879MOL0     O18577  13.456   2.959   0.113  0.6182  0.3933 -0.3177
  879MOL0     C18578  13.098   3.039   0.121  0.3129 -0.5837  0.4370
  879MOL0     C18579  12.978   2.981   0.095  0.4632 -0.0211 -0.0752
  879MOL0     N18580  12.199   2.796   0.289 -0.5970  0.3152  0.0080
  879MOL0     N18581  12.073   2.800   0.290 -0.3654 -0.9395 -0.2072
  879MOL0     C18582  10.800   2.668   0.433  0.2216 -1.1792 -0.6871
  879MOL0     C18583  10.684   2.589   0.458  0.1665 -0.2103 -0.1287
  879MOL0     C18584  10.350   2.333   0.587  0.3435 -0.0844  0.0814
  879MOL0     C18585  10.357   2.197   0.546  0.3583 -0.2605 -0.5182
  879MOL0     C18586  10.246   2.116   0.562 -0.0376  0.2702 -1.2535
  879MOL0     C18587  10.127   2.177   0.609  0.4395  0.6931 -0.5384
  879MOL0     O18588  10.021   2.082   0.608  0.2996 -0.2806 -0.0270
  879MOL0     C18589   9.888   2.122   0.652 -0.5776  1.0763 -0.4977
  879MOL0     C18590   9.794   2.172   0.549 -1.0723 -0.2861 -0.6971
  879MOL0     C18591   9.809   2.311   0.505 -0.6605 -0.7421  0.3739
  879MOL0     C18592   9.686   2.351   0.422 -0.3452  0.3017  0.1679
  879MOL0     C18593   9.589   2.418   0.520  0.1660  0.1487  0.7026
  879MOL0     C18594   9.503   2.464   0.586  0.5230 -0.2857  0.2844
  879MOL0     C18595  10.114   2.308   0.634 -0.3217  0.4046 -0.1614
  879MOL0     C18596  10.224   2.390   0.635 -0.7453 -0.4603  0.2966
  879MOL0     C18597  10.206   2.531   0.679  1.1444 -0.5078  0.0348
  879MOL0     H18598  10.829   2.294   0.493 -0.0522  0.2661  1.2585
  879MOL0     H18599  11.028   2.421   0.450 -0.2921  0.5826  1.4015
  879MOL0     H18600  10.963   2.807   0.237  0.6923  0.5928 -0.8679
  879MOL0     H18601  11.021   2.874   0.392 -0.0648  1.5006 -0.9355
  879MOL0     H18602  11.173   2.942   0.239  1.9387  0.0827  0.0799
  879MOL0     H18603  11.170   2.795   0.141 -1.2830  2.3542 -1.2201
  879MOL0     H18604  11.292   2.661   0.286 -3.5365  0.6016  0.3904
  879MOL0     H18605  11.318   2.811   0.401  2.3840 -0.0142 -0.0436
  879MOL0     H18606  11.405   2.799   0.117 -0.9709  1.1195 -0.4209
  879MOL0     H18607  11.426   2.927   0.239 -1.2495  0.0911 -3.0344
  879MOL0     H18608  11.579   2.770   0.358  3.0074 -1.9363 -0.1495
  879MOL0     H18609  11.533   2.639   0.245 -0.0598  0.0545  0.5206
  879MOL0     H18610  11.615   2.792   0.056  1.0432  0.8254 -1.3574
  879MOL0     H18611  11.676   2.903   0.185  0.8937 -1.2352 -0.0978
  879MOL0     H18612  11.785   2.630   0.124 -0.1019  0.6748 -0.8343
  879MOL0     H18613  11.803   2.706   0.283 -0.2784 -2.0693  0.4200
  879MOL0     H18614  11.899   2.781   0.002 -0.2176  0.1530  0.3369
  879MOL0     H18615  11.903   2.910   0.115  3.7043  0.6021  0.3755
  879MOL0     H18616  12.138   2.701  -0.022  2.5465 -1.1533  0.2891
  879MOL0     H18617  12.398   2.605   0.161  1.7760 -0.6882 -1.7300
  879MOL0     H18618  12.400   2.721   0.015  3.9053  1.2901  0.8601
  879MOL0     H18619  12.484   2.878   0.202 -1.7727  0.1039  0.8070
  879MOL0     H18620  12.517   2.747   0.297 -4.2442  2.0527  0.4162
  879MOL0     H18621  12.612   2.803   0.006 -1.1213 -0.3221 -0.5731
  879MOL0     H18622  12.639   2.639   0.078 -0.0953  0.5446 -1.3770
  879MOL0     H18623  12.787   2.756   0.243 -1.0173  2.6660  0.1788
  879MOL0     H18624  12.743   2.906   0.163  0.5593  0.2440  1.1075
  879MOL0     H18625  13.087   2.661   0.023  0.4115  0.3141  0.5617
  879MOL0     H18626  13.296   2.766   0.048 -1.6938 -1.6655 -4.5439
  879MOL0     H18627  13.561   3.003   0.315  1.8187 -0.9320 -0.9028
  879MOL0     H18628  13.738   3.123   0.422 -0.4916  1.1703  0.6632
  879MOL0     H18629  13.918   3.276   0.546  1.8343  0.3441 -0.5348
  879MOL0     H18630  13.937   3.300   0.367  0.9130  1.5138 -0.8415
  879MOL0     H18631  14.084   3.472   0.480  0.6876  2.3095 -1.0744
  879MOL0     H18632  13.967   3.538   0.373 -2.0158  0.2436 -0.1042
  879MOL0     H18633  14.004   3.642   0.595  0.5081 -0.6234  1.7346
  879MOL0     H18634  13.834   3.621   0.556  1.1831  1.4478 -1.5007
  879MOL0     H18635  13.994   3.440   0.744 -0.0144 -0.1636  0.6242
  879MOL0     H18636  13.819   3.457   0.726  1.2762 -1.5763  1.2304
  879MOL0     H18637  14.022   3.639   0.836  0.0480 -0.3124 -2.1183
  879MOL0     H18638  13.914   3.528   0.928 -2.2362 -0.9930 -0.9588
  879MOL0     H18639  13.843   3.783   0.792 -1.0115 -1.1858 -2.2192
  879MOL0     H18640  13.718   3.671   0.863 -0.6355  0.5968 -0.8342
  879MOL0     H18641  13.917   3.711   1.057 -0.1351 -3.9479 -4.7981
  879MOL0     H18642  13.751   3.752   1.074 -0.2292  0.5455  0.1426
  879MOL0     H18643  13.788   3.961   0.957  0.4571  0.8842 -1.2922
  879MOL0     H18644  13.879   3.948   1.107 -0.6200  1.3381 -0.8005
  879MOL0     H18645  13.578   3.510   0.313  0.8629 -0.0797 -2.2782
  879MOL0     H18646  13.394   3.386   0.209  0.1935  2.1276  1.9162
  879MOL0     H18647  13.108   3.139   0.161  1.3228 -0.4959 -0.0204
  879MOL0     H18648  12.890   3.043   0.107  1.2372  0.9561  0.7371
  879MOL0     H18649  10.764   2.770   0.429 -1.6362 -1.5974  2.2742
  879MOL0     H18650  10.581   2.623   0.464 -0.2196 -1.5668  1.4347
  879MOL0     H18651  10.453   2.150   0.524 -1.9773 -3.9808 -4.1218
  879MOL0     H18652  10.259   2.010   0.543  0.6317 -0.1327  1.1179
  879MOL0     H18653   9.887   2.188   0.739 -2.4553 -1.5504  1.6322
  879MOL0     H18654   9.848   2.026   0.687  0.5770  0.5577 -0.5603
  879MOL0     H18655   9.696   2.163   0.596 -0.8195 -1.3868 -0.3481
  879MOL0     H18656   9.790   2.110   0.458 -4.8826  0.7931 -1.4320
  879MOL0     H18657   9.901   2.312   0.445 -2.8625 -0.8563 -3.3579
  879MOL0     H18658   9.830   2.380   0.586  0.6467 -0.8016  0.1087
  879MOL0     H18659   9.707   2.418   0.338 -0.9298  0.8841  0.4752
  879MOL0     H18660   9.653   2.256   0.379  4.7097 -2.4985  1.5457
  879MOL0     H18661   9.421   2.507   0.639  1.1898 -0.2161  1.2927
  879MOL0     H18662  10.025   2.357   0.674 -1.1186 -0.4647 -0.8218
  879MOL0     H18663  10.220   2.596   0.593  1.8792 -1.8382 -0.8952
  879MOL0     H18664  10.102   2.541   0.711  1.3118 -2.1334  1.2223
  879MOL0     H18665  10.265   2.551   0.768  0.7868 -0.5637  0.2873
  880MOL0     O18666  10.435   9.116  10.741  0.4230  0.6041  0.1555
  880MOL0     C18667  10.376   9.170  10.833  0.5573 -0.6158 -0.8166
  880MOL0     O18668  10.446   9.240  10.938  0.2313  0.7097  0.1369
  880MOL0     C18669  10.572   9.285  10.926 -0.5943 -0.1027  0.0569
  880MOL0     C18670  10.634   9.307  11.048  0.2150  0.8052  0.4545
  880MOL0     C18671  10.770   9.339  11.042 -0.5364  0.0353 -0.5411
  880MOL0     C18672  10.842   9.358  10.922 -0.3113 -0.7187 -0.7312
  880MOL0     O18673  10.966   9.401  10.933  0.3304  0.1139 -0.0727
  880MOL0     C18674  11.057   9.363  10.831 -0.1968 -0.1982  1.2813
  880MOL0     C18675  11.193   9.349  10.889  0.2015  0.2251 -1.0230
  880MOL0     C18676  11.242   9.496  10.936  0.4684  0.5493 -0.1843
  880MOL0     C18677  11.347   9.462  11.042  1.2359  0.2901  0.0356
  880MOL0     C18678  11.407   9.586  11.108 -0.2290  0.0663 -0.8376
  880MOL0     C18679  11.491   9.554  11.232 -0.9079  0.0351  0.2570
  880MOL0     C18680  11.516   9.677  11.321  0.0129  0.3586 -0.1153
  880MOL0     C18681  11.632   9.765  11.275  0.3329 -0.3076 -0.2182
  880MOL0     N18682  11.756   9.690  11.291  0.0709  0.3032 -0.3413
  880MOL0     C18683  11.814   9.659  11.410  0.2480  0.2886  0.6118
  880MOL0     C18684  11.918   9.585  11.385  0.4181 -0.0734 -0.4849
  880MOL0     C18685  12.010   9.516  11.486 -0.9145  0.3685  0.3354
  880MOL0     C18686  12.064   9.387  11.437 -0.2094 -0.0498  0.1370
  880MOL0     C18687  12.192   9.359  11.518  0.1511 -0.2682  0.0396
  880MOL0     C18688  12.255   9.230  11.472  0.0285 -0.8340  0.1390
  880MOL0     O18689  12.313   9.240  11.345 -0.0461  0.3008 -0.1135
  880MOL0     C18690  12.435   9.306  11.330 -0.0061  0.0856 -1.2122
  880MOL0     C18691  12.454   9.343  11.196  0.4914  0.3979 -0.1152
  880MOL0     C18692  12.577   9.403  11.164 -0.2759  0.3669  0.1852
  880MOL0     C18693  12.676   9.437  11.262 -1.5426 -0.9496 -0.1391
  880MOL0     C18694  12.809   9.493  11.229  0.3871 -0.2876  0.0504
  880MOL0     O18695  12.891   9.534  11.329 -0.3762  0.3279  0.0713
  880MOL0     C18696  13.026   9.557  11.315  0.2316  0.4132  0.5959
  880MOL0     C18697  13.083   9.683  11.347  0.1754  0.0082 -0.5303
  880MOL0     C18698  13.219   9.699  11.322 -0.4980 -0.2371 -0.0699
  880MOL0     C18699  13.301   9.603  11.267 -0.5151  0.4087  0.2341
  880MOL0     O18700  13.444   9.620  11.255  0.3043  0.6556 -0.7892
  880MOL0     C18701  13.507   9.523  11.165  0.6944  0.4475 -0.3278
  880MOL0     C18702  13.648   9.565  11.150 -0.6572 -0.0297 -0.6522
  880MOL0     C18703  13.727   9.482  11.044  0.4801 -0.3704  0.8405
  880MOL0     C18704  13.882   9.535  11.034  0.6978 -0.1367 -0.8863
  880MOL0     C18705  13.928   9.496  10.899 -0.0536 -0.0811 -0.1446
  880MOL0     C18706  14.077   9.521  10.896  0.1661 -0.0996  0.0851
  880MOL0     C18707  14.136   9.502  10.758 -0.6706 -0.3492 -0.0046
  880MOL0     C18708  14.285   9.548  10.753 -0.7300  0.7008 -0.0844
  880MOL0    Cl18709  14.352   9.477  10.605 -0.2490  0.1722  0.3774
  880MOL0     C18710  13.237   9.479  11.232 -0.3050 -0.0311 -0.2911
  880MOL0     C18711  13.102   9.455  11.259 -0.8797  0.5118 -0.5952
  880MOL0     O18712  12.835   9.502  11.110  0.0404 -0.6005 -0.9529
  880MOL0     C18713  12.655   9.402  11.396  0.9150 -0.3844 -0.2251
  880MOL0     C18714  12.526   9.342  11.425  0.2956  0.4687 -0.9416
  880MOL0     N18715  11.936   9.589  11.246  0.1334 -1.2276 -0.0419
  880MOL0     N18716  11.834   9.648  11.183 -0.5292 -0.0688 -0.0625
  880MOL0     C18717  10.773   9.332  10.805 -0.0135 -0.6925  0.1030
  880MOL0     C18718  10.643   9.297  10.809 -0.4566 -0.3178 -0.3625
  880MOL0     C18719  10.225   9.197  10.836  0.1372 -0.2665  0.9014
  880MOL0     C18720  10.171   9.296  10.914  0.2272 -0.1986 -0.6728
  880MOL0     C18721  10.037   9.320  10.922  0.7208  0.0149 -0.7097
  880MOL0     C18722   9.953   9.254  10.844  0.7114 -0.1936  0.2184
  880MOL0     O18723   9.822   9.278  10.865  0.8418  0.4998  0.0923
  880MOL0     C18724   9.719   9.190  10.804 -1.2172 -0.1406 -0.4223
  880MOL0     C18725   9.679   9.228  10.667 -0.1208 -0.4296  0.4911
  880MOL0     C18726   9.583   9.134  10.599  0.8455  0.5187 -0.2022
  880MOL0     C18727   9.446   9.207  10.588 -0.8810 -0.0978 -0.5126
  880MOL0     C18728   9.382   9.210  10.723 -0.6366  0.7935  0.3211
  880MOL0     C18729   9.339   9.227  10.825 -0.4507  0.6108  0.5367
  880MOL0     C18730   9.998   9.164  10.755  1.0415 -0.0550  0.1577
  880MOL0     C18731  10.138   9.136  10.740 -0.7268  0.9187 -0.7017
  880MOL0     C18732  10.169   9.021  10.653 -0.1832 -0.6805  0.2730
  880MOL0     H18733  10.579   9.287  11.140 -1.8698  2.0185 -0.4646
  880MOL0     H18734  10.827   9.365  11.131  2.4208  1.5496 -2.7359
  880MOL0     H18735  11.030   9.274  10.773  2.9606  0.9237 -2.3145
  880MOL0     H18736  11.074   9.434  10.749 -2.0518 -1.5907 -0.4144
  880MOL0     H18737  11.255   9.306  10.810 -0.4895  0.7118 -1.8515
  880MOL0     H18738  11.189   9.279  10.973  4.7760 -0.1026 -0.8026
  880MOL0     H18739  11.162   9.558  10.978 -1.1665 -1.7119  0.2239
  880MOL0     H18740  11.292   9.557  10.860 -0.8728  1.9693  0.0373
  880MOL0     H18741  11.301   9.406  11.124  2.8224 -1.3883 -0.1578
  880MOL0     H18742  11.412   9.382  11.006  1.3832 -1.2352  3.2897
  880MOL0     H18743  11.483   9.634  11.046  0.5069  1.0538  0.7486
  880MOL0     H18744  11.331   9.660  11.133  1.0327  0.9901  0.4903
  880MOL0     H18745  11.436   9.475  11.284 -2.4933 -0.0053 -1.3917
  880MOL0     H18746  11.590   9.514  11.206  1.0115  4.4125 -0.0110
  880MOL0     H18747  11.541   9.647  11.423  0.2530 -1.7284 -0.7376
  880MOL0     H18748  11.428   9.741  11.314 -1.0651 -1.2244 -3.7781
  880MOL0     H18749  11.623   9.796  11.171  1.7711 -0.9165 -0.5461
  880MOL0     H18750  11.644   9.855  11.337  1.8806  0.1624 -1.1393
  880MOL0     H18751  11.776   9.683  11.509  1.4661 -0.2865  1.2433
  880MOL0     H18752  12.093   9.580  11.517  1.1238 -1.3263 -1.2996
  880MOL0     H18753  11.949   9.504  11.576 -2.8496  3.8085 -0.3402
  880MOL0     H18754  11.991   9.306  11.447  0.6516 -0.9600 -0.7948
  880MOL0     H18755  12.091   9.375  11.332 -0.5845 -0.4181  0.0805
  880MOL0     H18756  12.158   9.345  11.621 -0.4146  1.5940  0.1313
  880MOL0     H18757  12.266   9.439  11.517 -2.1379  2.2866  4.5778
  880MOL0     H18758  12.170   9.161  11.461 -0.2398 -0.6100  0.7840
  880MOL0     H18759  12.319   9.186  11.549 -1.1683 -3.2606 -0.1393
  880MOL0     H18760  12.370   9.326  11.130  1.5370  2.3543 -2.0735
  880MOL0     H18761  12.582   9.427  11.058  0.7780  3.0466  0.7787
  880MOL0     H18762  13.026   9.765  11.391  1.9201 -0.4442  2.9041
  880MOL0     H18763  13.277   9.787  11.349  1.7799 -2.1819  1.9634
  880MOL0     H18764  13.511   9.426  11.215  0.7972 -0.0350 -1.2456
  880MOL0     H18765  13.456   9.524  11.068 -2.6594 -0.1630  1.2997
  880MOL0     H18766  13.637   9.672  11.129 -4.5932  0.1915  1.5607
  880MOL0     H18767  13.699   9.544  11.244  0.3480 -1.8240 -1.5563
  880MOL0     H18768  13.721   9.374  11.064 -3.2878 -1.0096 -2.4304
  880MOL0     H18769  13.682   9.490  10.945 -1.4556 -2.7705  1.4058
  880MOL0     H18770  13.943   9.479  11.105  2.3386  2.1057 -0.4050
  880MOL0     H18771  13.892   9.642  11.054  0.6389 -0.4640  1.0981
  880MOL0     H18772  13.878   9.543  10.814  3.8731  1.7720 -1.6924
  880MOL0     H18773  13.910   9.391  10.873 -1.4941  0.1003  0.0462
  880MOL0     H18774  14.099   9.624  10.926 -3.4939  1.1402 -0.9952
  880MOL0     H18775  14.121   9.451  10.968  0.7031  0.2185  0.0742
  880MOL0     H18776  14.078   9.558  10.683 -0.6614 -1.4678 -0.8742
  880MOL0     H18777  14.131   9.395  10.738  2.4270 -0.8434  1.3710
  880MOL0     H18778  14.282   9.658  10.750 -2.2621  0.6664 -0.9982
  880MOL0     H18779  14.342   9.522  10.843  0.1574  3.5189  0.2871
  880MOL0     H18780  13.294   9.395  11.192  1.5934  1.5229 -1.0032
  880MOL0     H18781  13.068   9.356  11.231  0.8744 -1.4717  3.4584
  880MOL0     H18782  12.723   9.444  11.468 -0.5929  2.3529 -0.2927
  880MOL0     H18783  12.490   9.347  11.527  1.6089  0.0385 -0.4287
  880MOL0     H18784  10.814   9.348  10.705  0.2130  1.5373  0.4850
  880MOL0     H18785  10.591   9.282  10.715 -2.5136  0.3309  0.6154
  880MOL0     H18786  10.236   9.359  10.974 -0.0795  0.4251 -0.9904
  880MOL0     H18787  10.008   9.401  10.987 -0.0172 -0.1113 -0.8751
  880MOL0     H18788   9.630   9.204  10.866  0.2414  2.6168  1.2309
  880MOL0     H18789   9.763   9.089  10.808  3.9552  1.8048  0.1983
  880MOL0     H18790   9.769   9.231  10.605  0.6823  2.2652  1.6158
  880MOL0     H18791   9.634   9.328  10.676  1.5785  0.4492 -0.2457
  880MOL0     H18792   9.587   9.041  10.656  2.0055  0.1970 -0.7952
  880MOL0     H18793   9.625   9.111  10.500  0.8195 -1.1727  0.1477
  880MOL0     H18794   9.458   9.307  10.547  2.8910  1.2173  3.1253
  880MOL0     H18795   9.377   9.158  10.519 -2.4322 -0.6342  1.3421
  880MOL0     H18796   9.310   9.238  10.928 -3.5003 -1.4886  0.0382
  880MOL0     H18797   9.935   9.112  10.683  1.3584  2.9829 -2.5238
  880MOL0     H18798  10.239   8.956  10.706  1.3351  1.3399  0.8587
  880MOL0     H18799  10.085   8.952  10.644 -1.8065  1.1285  0.7909
  880MOL0     H18800  10.204   9.057  10.556  0.6270  2.2555  1.5504
  881MOL0     O18801   1.689   8.799   5.965 -0.0253 -0.2153 -0.0069
  881MOL0     C18802   1.735   8.699   5.902  0.8240  0.2559  0.4207
  881MOL0     O18803   1.865   8.696   5.861 -0.0999 -0.5536  0.6577
  881MOL0     C18804   1.917   8.810   5.807  0.6083  0.0354 -0.3716
  881MOL0     C18805   1.838   8.909   5.747  0.6144 -0.3492  0.3148
  881MOL0     C18806   1.903   9.024   5.687 -0.4847  0.5235  0.2445
  881MOL0     C18807   2.042   9.034   5.687  0.2731  0.3482 -0.5714
  881MOL0     O18808   2.118   9.139   5.632 -0.3323  0.1966  0.3326
  881MOL0     C18809   2.049   9.259   5.593  0.6392 -0.1587  0.5893
  881MOL0     C18810   2.137   9.366   5.523  0.6131  0.0545  0.6980
  881MOL0     C18811   2.263   9.383   5.602  0.7209 -0.6205 -0.4317
  881MOL0     C18812   2.368   9.464   5.517  0.7777  0.1490 -0.0988
  881MOL0     C18813   2.492   9.477   5.593 -0.1011  0.5793 -0.0147
  881MOL0     C18814   2.612   9.486   5.505 -0.0934 -0.2882  0.5143
  881MOL0     C18815   2.628   9.634   5.455  0.3410  0.2879 -0.5977
  881MOL0     C18816   2.544   9.670   5.334  0.2791  0.1929 -0.0606
  881MOL0     N18817   2.584   9.577   5.222  0.5417  0.2066 -0.3470
  881MOL0     C18818   2.702   9.551   5.155 -0.4196  0.3729 -0.6766
  881MOL0     C18819   2.673   9.471   5.049 -0.6280  0.0082 -1.1227
  881MOL0     C18820   2.774   9.419   4.958 -0.2571 -0.8205  0.3265
  881MOL0     C18821   2.819   9.521   4.849  0.7250 -0.6327 -0.6113
  881MOL0     C18822   2.944   9.489   4.767 -0.2673 -0.1859  0.0704
  881MOL0     C18823   3.068   9.526   4.843  0.3834  0.1295 -0.1863
  881MOL0     O18824   3.076   9.660   4.904  0.1772  0.2321  0.7863
  881MOL0     C18825   3.200   9.700   4.945 -0.0248  0.9199 -0.7712
  881MOL0     C18826   3.228   9.670   5.080  0.5359  0.4347  0.6139
  881MOL0     C18827   3.355   9.702   5.133 -0.7616  0.1654  0.0689
  881MOL0     C18828   3.455   9.769   5.060  0.1842  0.0570  0.3449
  881MOL0     C18829   3.577   9.816   5.121  0.5269 -0.2111  0.4228
  881MOL0     O18830   3.647   9.917   5.062  0.4696 -0.0172 -0.3729
  881MOL0     C18831   3.741   9.987   5.131 -0.3519  0.2946 -0.7572
  881MOL0     C18832   3.725  10.020   5.272  0.5944 -0.2411 -0.4640
  881MOL0     C18833   3.815  10.091   5.336 -0.6529  0.0526 -0.6273
  881MOL0     C18834   3.933  10.118   5.274 -0.2232  0.1245  0.1814
  881MOL0     O18835   4.023  10.172   5.359  0.0847  0.7408  1.1634
  881MOL0     C18836   4.117  10.247   5.289  0.0571 -0.1416 -0.0958
  881MOL0     C18837   4.166  10.352   5.390  0.6187  0.0911 -0.7683
  881MOL0     C18838   4.240  10.291   5.505  0.4389 -0.0693  0.7925
  881MOL0     C18839   4.286  10.400   5.612 -0.1682 -0.7263 -0.0389
  881MOL0     C18840   4.416  10.342   5.677  0.5274 -1.2599  0.3407
  881MOL0     C18841   4.391  10.222   5.756 -0.0424  0.1429 -0.5348
  881MOL0     C18842   4.512  10.145   5.789  0.4857 -0.5989 -0.1554
  881MOL0     C18843   4.478  10.031   5.884 -0.3934 -0.0428  0.3835
  881MOL0    Cl18844   4.578  10.030   6.027  0.4985 -0.2804  0.2003
  881MOL0     C18845   3.955  10.068   5.146  0.4039 -0.4595  0.4049
  881MOL0     C18846   3.856  10.010   5.070 -0.5563 -0.3866  0.8216
  881MOL0     O18847   3.594   9.775   5.237  0.2454  0.0617  0.3428
  881MOL0     C18848   3.419   9.800   4.926  0.0972 -0.7464  0.1083
  881MOL0     C18849   3.297   9.771   4.869  0.5915  0.2101 -0.6508
  881MOL0     N18850   2.534   9.439   5.060 -0.3564  0.1095 -0.2376
  881MOL0     N18851   2.490   9.501   5.168 -0.3226  0.5465  0.3567
  881MOL0     C18852   2.115   8.938   5.751 -0.4462  0.4656 -0.2280
  881MOL0     C18853   2.056   8.823   5.804 -0.3998 -0.0455 -0.8492
  881MOL0     C18854   1.632   8.586   5.872  0.0635 -0.5606  0.9799
  881MOL0     C18855   1.500   8.600   5.921  0.1230 -0.3780 -0.2647
  881MOL0     C18856   1.410   8.501   5.910 -0.1166 -0.9461  0.7475
  881MOL0     C18857   1.450   8.391   5.836 -0.5801  0.5766 -0.0755
  881MOL0     O18858   1.361   8.288   5.826  0.8226  0.7617 -0.1127
  881MOL0     C18859   1.420   8.155   5.852 -0.2348 -0.2138  0.2931
  881MOL0     C18860   1.302   8.081   5.924 -0.1361 -0.3018  0.8394
  881MOL0     C18861   1.242   7.998   5.805 -0.5246 -0.0193 -0.8053
  881MOL0     C18862   1.111   7.930   5.856 -0.0136 -0.5404  0.4352
  881MOL0     C18863   1.141   7.850   5.976 -0.6766  0.4319  0.9383
  881MOL0     C18864   1.168   7.783   6.075  0.2871 -0.0904  0.2156
  881MOL0     C18865   1.579   8.374   5.782 -1.8999 -0.0342  0.1570
  881MOL0     C18866   1.668   8.474   5.796  0.5209 -0.0174  0.1958
  881MOL0     C18867   1.813   8.445   5.752 -0.2250  0.2118 -0.5388
  881MOL0     H18868   1.730   8.916   5.748  0.6789  0.8294  1.1622
  881MOL0     H18869   1.839   9.101   5.643 -1.6323 -2.1208 -3.1833
  881MOL0     H18870   1.967   9.237   5.523 -0.2121 -0.5633  1.6865
  881MOL0     H18871   2.000   9.304   5.680  0.0895  1.5489 -0.5529
  881MOL0     H18872   2.076   9.457   5.520 -1.2885 -1.1830 -0.9801
  881MOL0     H18873   2.159   9.336   5.420  1.2086  1.8682  0.2564
  881MOL0     H18874   2.314   9.293   5.637  3.0225  0.9732  0.6399
  881MOL0     H18875   2.236   9.446   5.688  2.4089 -0.0639 -0.2596
  881MOL0     H18876   2.387   9.409   5.424  1.3794  0.1442  0.0237
  881MOL0     H18877   2.327   9.564   5.503 -0.7109 -0.2639  1.0929
  881MOL0     H18878   2.486   9.550   5.675 -1.2099 -0.4674  0.8599
  881MOL0     H18879   2.512   9.387   5.651  1.1256  0.3102 -0.8147
  881MOL0     H18880   2.700   9.460   5.564  0.6755  1.2461  0.1071
  881MOL0     H18881   2.602   9.420   5.419 -0.4887 -1.5683  1.5145
  881MOL0     H18882   2.732   9.636   5.421  0.4721 -3.2537 -0.7951
  881MOL0     H18883   2.609   9.705   5.535 -0.3138  4.2549 -3.9203
  881MOL0     H18884   2.437   9.656   5.349  0.6165 -2.6460  0.2534
  881MOL0     H18885   2.547   9.777   5.311  0.4212  0.5561  1.5145
  881MOL0     H18886   2.798   9.597   5.176  0.8253 -2.2964 -0.1374
  881MOL0     H18887   2.863   9.387   5.014  2.1015 -2.2505 -3.8326
  881MOL0     H18888   2.729   9.338   4.899 -3.9193  1.7698 -0.7958
  881MOL0     H18889   2.744   9.508   4.771  3.5991 -0.9043 -3.5461
  881MOL0     H18890   2.825   9.623   4.889  0.7186 -0.3336 -1.3588
  881MOL0     H18891   2.946   9.546   4.673 -0.5786 -0.2914 -0.0013
  881MOL0     H18892   2.944   9.381   4.748  0.0503 -0.3399  0.9131
  881MOL0     H18893   3.149   9.514   4.770  0.1929 -2.4635 -0.0814
  881MOL0     H18894   3.083   9.447   4.917 -2.7204 -0.9845 -0.6024
  881MOL0     H18895   3.164   9.611   5.145 -0.0663 -0.9550 -1.1544
  881MOL0     H18896   3.375   9.681   5.237 -0.9455 -0.3943 -0.0064
  881MOL0     H18897   3.632  10.003   5.325  0.8387 -1.9887 -0.5361
  881MOL0     H18898   3.788  10.138   5.429 -1.0249  2.1492 -1.7434
  881MOL0     H18899   4.194  10.172   5.269  0.1673 -0.3237  0.9458
  881MOL0     H18900   4.076  10.302   5.203  1.1211  2.9980  1.2287
  881MOL0     H18901   4.233  10.421   5.339 -0.4135  0.4380 -1.7068
  881MOL0     H18902   4.078  10.405   5.427  1.1871  1.4229 -1.2709
  881MOL0     H18903   4.172  10.233   5.567  0.3216  0.9330  1.6276
  881MOL0     H18904   4.324  10.233   5.465  1.3359  2.2437 -0.9500
  881MOL0     H18905   4.209  10.416   5.688 -0.0183 -3.0285  0.6652
  881MOL0     H18906   4.303  10.489   5.552  0.5295 -0.8619 -0.0457
  881MOL0     H18907   4.468  10.417   5.737  1.7594 -0.6915 -1.3611
  881MOL0     H18908   4.487  10.308   5.601  1.4662 -0.3664  0.7834
  881MOL0     H18909   4.347  10.261   5.848 -2.1004  2.3165 -2.2998
  881MOL0     H18910   4.325  10.155   5.700 -0.2237  0.4994 -0.7538
  881MOL0     H18911   4.589  10.207   5.835 -0.0283  0.7744 -1.0974
  881MOL0     H18912   4.546  10.105   5.693  2.6083  0.2817  0.1739
  881MOL0     H18913   4.372  10.044   5.904 -0.8877 -1.1255 -1.3443
  881MOL0     H18914   4.477   9.937   5.828 -1.1023 -0.1987  0.6572
  881MOL0     H18915   4.056  10.076   5.106  0.8776  0.6955  1.7767
  881MOL0     H18916   3.888   9.995   4.968  3.0945  2.1942  1.4125
  881MOL0     H18917   3.486   9.855   4.861  0.3825  2.0258  2.5697
  881MOL0     H18918   3.281   9.801   4.766 -0.6167 -1.1106 -0.8891
  881MOL0     H18919   2.222   8.946   5.767 -0.6464  0.7163  1.0704
  881MOL0     H18920   2.120   8.744   5.841  0.7954 -0.0766 -2.8049
  881MOL0     H18921   1.479   8.694   5.972 -0.5804  0.1160 -1.4199
  881MOL0     H18922   1.315   8.516   5.960 -0.5377 -1.2350  0.0304
  881MOL0     H18923   1.508   8.168   5.916  1.2348  0.6288 -1.7866
  881MOL0     H18924   1.453   8.114   5.756  0.1938  2.7586 -0.9272
  881MOL0     H18925   1.228   8.145   5.973  0.5622 -0.3848  2.0408
  881MOL0     H18926   1.355   8.022   6.000  2.0756 -2.2147 -1.9688
  881MOL0     H18927   1.309   7.916   5.776 -2.4291 -0.9682 -2.8111
  881MOL0     H18928   1.225   8.051   5.711 -1.4205  2.3056  0.5721
  881MOL0     H18929   1.043   8.014   5.871  0.9023  0.8052 -2.2709
  881MOL0     H18930   1.060   7.875   5.777 -1.5024  1.6895 -0.2423
  881MOL0     H18931   1.197   7.727   6.162 -0.2505  1.2046  1.2526
  881MOL0     H18932   1.607   8.294   5.714 -2.5086  1.3720 -1.8302
  881MOL0     H18933   1.846   8.528   5.689  0.1159 -0.2559 -0.9786
  881MOL0     H18934   1.884   8.435   5.835 -3.8708 -3.9368  2.5365
  881MOL0     H18935   1.821   8.355   5.692  0.4165 -0.9102  1.1421
  882MOL0     O18936  10.904   4.328   1.832  0.5925 -0.3060 -0.0072
  882MOL0     C18937  10.899   4.220   1.773 -0.3620 -0.2648  0.0939
  882MOL0     O18938  10.954   4.205   1.648  0.4183 -0.4515  0.0820
  882MOL0     C18939  11.018   4.306   1.585  0.3112  0.2290  0.2890
  882MOL0     C18940  11.149   4.330   1.607  0.5915 -0.2588  0.2558
  882MOL0     C18941  11.215   4.429   1.538 -0.1935 -0.3763  0.2427
  882MOL0     C18942  11.151   4.508   1.443 -0.1561 -0.3567  0.2797
  882MOL0     O18943  11.214   4.608   1.385 -0.4423 -0.4684  0.5734
  882MOL0     C18944  11.129   4.717   1.348  0.0565 -0.8716  0.6148
  882MOL0     C18945  11.224   4.835   1.308 -0.5865 -0.0235 -0.2407
  882MOL0     C18946  11.282   4.922   1.428 -0.2632 -0.2950 -1.2425
  882MOL0     C18947  11.323   5.069   1.400 -0.3537  0.6842 -0.0565
  882MOL0     C18948  11.408   5.134   1.505  0.3792 -0.8102 -0.4607
  882MOL0     C18949  11.310   5.192   1.617  0.4145  0.0364 -0.4932
  882MOL0     C18950  11.381   5.231   1.752 -0.3182 -0.4127  0.3576
  882MOL0     C18951  11.511   5.316   1.734  0.4582  0.2418  0.8568
  882MOL0     N18952  11.558   5.362   1.871  0.3599  0.7007  0.1556
  882MOL0     C18953  11.668   5.310   1.938 -0.7435  0.3107  0.2176
  882MOL0     C18954  11.664   5.384   2.050 -0.3433  1.2921 -0.8599
  882MOL0     C18955  11.763   5.376   2.157  0.8875 -0.2229 -0.2843
  882MOL0     C18956  11.814   5.235   2.195 -0.0519 -0.5057 -0.5287
  882MOL0     C18957  11.756   5.178   2.328 -0.4256  0.3664 -0.9571
  882MOL0     C18958  11.812   5.042   2.379  0.1737 -0.4422 -0.4633
  882MOL0     O18959  11.939   5.067   2.451  0.2128 -0.4229 -0.2588
  882MOL0     C18960  12.055   5.025   2.397 -0.3297 -0.1173  0.2423
  882MOL0     C18961  12.074   4.997   2.257 -0.2511 -0.8697 -0.3952
  882MOL0     C18962  12.198   4.963   2.207  0.0156 -0.7471  0.1122
  882MOL0     C18963  12.305   4.964   2.298  0.4397 -0.2292  0.2771
  882MOL0     C18964  12.436   4.930   2.231  0.5735 -0.1954 -0.5119
  882MOL0     O18965  12.541   4.928   2.311 -0.3849 -0.9104  0.2631
  882MOL0     C18966  12.669   4.903   2.266 -0.1914 -0.4194 -0.5743
  882MOL0     C18967  12.703   4.818   2.164 -0.6843  0.7665 -0.5752
  882MOL0     C18968  12.831   4.807   2.123 -0.5281  0.2045 -1.1018
  882MOL0     C18969  12.938   4.867   2.186 -0.2239 -0.0534  0.1213
  882MOL0     O18970  13.058   4.839   2.138  0.4063  0.5081 -0.6113
  882MOL0     C18971  13.176   4.933   2.160 -0.2440  0.0425 -0.5219
  882MOL0     C18972  13.300   4.856   2.148 -0.0089  0.0230 -0.0610
  882MOL0     C18973  13.423   4.946   2.142 -0.9360 -0.1522  0.8768
  882MOL0     C18974  13.542   4.872   2.102 -0.1387  0.4124  0.5648
  882MOL0     C18975  13.667   4.956   2.104  0.5352  0.3577  1.1113
  882MOL0     C18976  13.789   4.872   2.073  0.3025  0.1826  0.5710
  882MOL0     C18977  13.906   4.963   2.076  0.4884  0.0580  0.6792
  882MOL0     C18978  13.898   5.093   1.983  0.0772  0.0057  0.4510
  882MOL0    Cl18979  13.864   5.056   1.806  0.0473  0.0913  0.2102
  882MOL0     C18980  12.910   4.952   2.296  0.0178 -0.2415  0.5141
  882MOL0     C18981  12.774   4.971   2.330 -0.1012 -0.2972  0.2236
  882MOL0     O18982  12.434   4.927   2.102 -0.2792 -0.0995 -0.0554
  882MOL0     C18983  12.289   4.992   2.437  1.0815  0.2680  0.6127
  882MOL0     C18984  12.162   5.010   2.486 -0.0424 -1.2007  0.4501
  882MOL0     N18985  11.561   5.466   2.050 -0.3664 -0.5554  0.2600
  882MOL0     N18986  11.488   5.456   1.947 -0.2745 -0.7203 -0.1248
  882MOL0     C18987  11.021   4.474   1.409  0.7177 -0.8464 -0.1810
  882MOL0     C18988  10.953   4.365   1.472 -0.3683  0.9148 -0.7276
  882MOL0     C18989  10.822   4.108   1.836  0.3568  0.0845  1.5371
  882MOL0     C18990  10.814   3.983   1.770  0.2670  0.3719 -0.8082
  882MOL0     C18991  10.751   3.880   1.829  0.3379  0.1664 -0.4472
  882MOL0     C18992  10.691   3.893   1.956 -0.1339 -1.0233 -0.9299
  882MOL0     O18993  10.637   3.790   2.022 -0.2612  1.4093  0.5732
  882MOL0     C18994  10.498   3.780   2.052  0.3743 -0.1420  0.4670
  882MOL0     C18995  10.410   3.779   1.922 -0.9969 -0.0188  0.6860
  882MOL0     C18996  10.260   3.762   1.970 -0.4145 -0.3657 -0.1351
  882MOL0     C18997  10.197   3.891   2.033 -0.5019  0.8433 -0.9017
  882MOL0     C18998  10.173   3.997   1.940  0.0219  0.0262 -0.7031
  882MOL0     C18999  10.173   4.082   1.848  0.3979 -0.2304 -0.5769
  882MOL0     C19000  10.696   4.023   2.017 -0.1955  0.5996  0.1081
  882MOL0     C19001  10.772   4.124   1.965 -0.0797  1.1126 -1.4826
  882MOL0     C19002  10.774   4.246   2.052 -0.7496  0.4463 -0.0933
  882MOL0     H19003  11.202   4.276   1.685  1.6846 -0.4719 -0.6011
  882MOL0     H19004  11.317   4.462   1.553 -1.2404  4.6546 -1.7133
  882MOL0     H19005  11.068   4.689   1.262 -2.4784 -0.3622  2.1575
  882MOL0     H19006  11.069   4.753   1.432 -0.1668 -0.2116  0.1798
  882MOL0     H19007  11.159   4.903   1.250  0.3599  1.6360  0.5668
  882MOL0     H19008  11.293   4.806   1.229 -2.3834  0.4116 -2.0762
  882MOL0     H19009  11.368   4.872   1.472  0.4457  3.0945  1.7048
  882MOL0     H19010  11.201   4.928   1.502 -2.7434 -4.1931 -3.3202
  882MOL0     H19011  11.395   5.058   1.319 -0.7289 -1.6074 -0.1477
  882MOL0     H19012  11.236   5.122   1.360 -0.8871 -1.4732 -1.9859
  882MOL0     H19013  11.483   5.067   1.548  0.3248 -0.0564  0.8378
  882MOL0     H19014  11.460   5.221   1.465  0.7854  0.3602  2.3835
  882MOL0     H19015  11.250   5.278   1.584  0.3194  0.9186  1.7864
  882MOL0     H19016  11.252   5.106   1.650 -1.2080  0.8693 -1.0264
  882MOL0     H19017  11.406   5.138   1.803  0.4524 -0.7183 -0.5490
  882MOL0     H19018  11.313   5.300   1.802 -1.7102  1.0408 -3.1764
  882MOL0     H19019  11.596   5.261   1.692  0.3560  1.7965 -1.5625
  882MOL0     H19020  11.488   5.393   1.661  1.7193 -1.1450 -1.1205
  882MOL0     H19021  11.731   5.232   1.897  0.5603  2.1405 -1.5123
  882MOL0     H19022  11.843   5.434   2.110 -1.1695  2.1426 -1.0910
  882MOL0     H19023  11.727   5.436   2.242 -3.6539  0.3526 -2.3410
  882MOL0     H19024  11.806   5.164   2.112  2.1292 -0.2219 -1.0334
  882MOL0     H19025  11.921   5.247   2.212 -0.4641 -1.5356  4.0733
  882MOL0     H19026  11.647   5.172   2.315 -0.8137  0.9324  1.6043
  882MOL0     H19027  11.770   5.252   2.408 -3.3377  0.0889 -0.0577
  882MOL0     H19028  11.826   4.977   2.292 -1.4963 -3.6260  1.4423
  882MOL0     H19029  11.740   4.980   2.433 -3.4201  1.7412 -2.3875
  882MOL0     H19030  11.997   5.007   2.181 -2.4431  0.2673  1.8364
  882MOL0     H19031  12.202   4.954   2.099 -1.6358 -0.6811  0.0243
  882MOL0     H19032  12.626   4.769   2.105 -1.4840  2.2552 -0.8285
  882MOL0     H19033  12.860   4.734   2.048  3.5551 -1.3572  1.6385
  882MOL0     H19034  13.173   5.010   2.082 -1.3276 -0.1470 -0.6872
  882MOL0     H19035  13.176   4.988   2.254  2.8960  1.2430 -1.1215
  882MOL0     H19036  13.314   4.794   2.237  0.7597 -1.0189 -0.8938
  882MOL0     H19037  13.298   4.796   2.057  1.8895 -0.5122  0.2093
  882MOL0     H19038  13.407   5.025   2.068 -2.5676 -2.2609 -1.1686
  882MOL0     H19039  13.447   4.998   2.235  0.7877  1.0280 -0.1767
  882MOL0     H19040  13.522   4.835   2.002 -0.3854  0.9196  0.4219
  882MOL0     H19041  13.547   4.788   2.171 -0.5350  0.0319  0.1304
  882MOL0     H19042  13.675   5.008   2.200  2.3242 -2.7596  2.8054
  882MOL0     H19043  13.657   5.028   2.022  4.4619 -1.2528 -1.0443
  882MOL0     H19044  13.799   4.785   2.138 -0.0955 -0.0149  0.3668
  882MOL0     H19045  13.778   4.831   1.972 -0.2550 -0.8661  1.0473
  882MOL0     H19046  14.001   4.910   2.063  1.0838  0.4767  2.9716
  882MOL0     H19047  13.919   4.999   2.178 -2.7498 -0.6023  1.4325
  882MOL0     H19048  13.830   5.162   2.033  1.1002  0.5835  1.0701
  882MOL0     H19049  14.003   5.124   1.989  0.9071 -2.0242 -1.8941
  882MOL0     H19050  12.994   4.993   2.351 -0.1244 -0.5978  1.0096
  882MOL0     H19051  12.747   5.027   2.419 -1.5665 -0.1614 -0.2893
  882MOL0     H19052  12.372   4.986   2.507 -0.3166 -4.7677  2.2652
  882MOL0     H19053  12.151   5.033   2.592 -0.0785  2.4050 -0.2197
  882MOL0     H19054  10.973   4.521   1.323  2.6559  1.2619 -0.1891
  882MOL0     H19055  10.851   4.347   1.441  0.4915 -1.2353 -2.5876
  882MOL0     H19056  10.855   3.964   1.671 -0.0247  1.5523 -1.1650
  882MOL0     H19057  10.737   3.791   1.769 -1.1160  0.6292 -0.8520
  882MOL0     H19058  10.477   3.856   2.128 -2.7738 -1.7195  1.3477
  882MOL0     H19059  10.481   3.682   2.097  1.7095 -0.6774 -0.1293
  882MOL0     H19060  10.433   3.685   1.870 -1.7450 -0.1837  0.6412
  882MOL0     H19061  10.419   3.869   1.861  1.7646  0.4046  1.5799
  882MOL0     H19062  10.266   3.689   2.051  1.3464  0.3370  0.4232
  882MOL0     H19063  10.193   3.718   1.896  0.6438 -0.4251 -1.0702
  882MOL0     H19064  10.103   3.856   2.075  0.9219 -1.0416  0.9479
  882MOL0     H19065  10.265   3.924   2.114 -2.0843 -2.1058  1.8355
  882MOL0     H19066  10.194   4.159   1.776  0.7351 -0.4239 -0.6898
  882MOL0     H19067  10.649   4.030   2.115  1.4943  1.4483  0.9055
  882MOL0     H19068  10.710   4.315   1.996  0.1273 -1.0938 -3.2312
  882MOL0     H19069  10.733   4.216   2.149 -2.9101  1.5633 -0.5823
  882MOL0     H19070  10.874   4.285   2.068 -0.0124  0.1208 -3.2652
  883MOL0     O19071  10.304   8.312   8.931  0.3544  0.6425  0.2420
  883MOL0     C19072  10.316   8.204   8.988  0.2781  0.3566  0.0170
  883MOL0     O19073  10.428   8.154   9.044  0.3551  0.3051  0.7704
  883MOL0     C19074  10.553   8.216   9.050  1.1741 -0.1169 -0.6117
  883MOL0     C19075  10.577   8.356   9.031  0.0992 -0.5690 -0.1727
  883MOL0     C19076  10.692   8.417   9.074 -0.2626  0.1198 -0.4735
  883MOL0     C19077  10.787   8.339   9.131  1.5047  0.5522  0.2525
  883MOL0     O19078  10.898   8.400   9.183 -0.1817 -0.9295  0.4748
  883MOL0     C19079  10.979   8.490   9.092 -0.4698  0.3164 -0.0628
  883MOL0     C19080  11.125   8.475   9.133 -0.0765  0.0108 -0.5477
  883MOL0     C19081  11.219   8.577   9.075  0.0586 -0.1798 -0.4275
  883MOL0     C19082  11.358   8.570   9.129  0.2840  0.2895  0.8352
  883MOL0     C19083  11.464   8.653   9.055  0.6840 -0.9710  0.2334
  883MOL0     C19084  11.480   8.608   8.916 -0.2723 -0.0383  0.8864
  883MOL0     C19085  11.623   8.648   8.858 -0.4091 -0.6297 -0.4720
  883MOL0     C19086  11.653   8.597   8.717  0.4468  0.2520  0.1209
  883MOL0     N19087  11.793   8.633   8.682  0.7036 -0.2526 -0.0422
  883MOL0     C19088  11.880   8.554   8.607  0.2304 -0.0413  0.8396
  883MOL0     C19089  12.005   8.590   8.640  0.3964  0.2162  0.4072
  883MOL0     C19090  12.130   8.529   8.592  0.1230 -0.3618 -0.0317
  883MOL0     C19091  12.153   8.573   8.443 -0.5809 -0.7874  0.6754
  883MOL0     C19092  12.192   8.721   8.431  0.7664 -0.0465  0.6495
  883MOL0     C19093  12.280   8.781   8.535 -0.6080 -0.7575 -1.0453
  883MOL0     O19094  12.401   8.708   8.571  0.4229  0.2890 -0.8982
  883MOL0     C19095  12.505   8.697   8.482 -0.0820 -0.4521 -0.3791
  883MOL0     C19096  12.611   8.626   8.535 -0.9289 -0.3088 -0.4004
  883MOL0     C19097  12.730   8.610   8.462  0.0136 -0.3148  0.5185
  883MOL0     C19098  12.742   8.671   8.334  0.0884  0.6225 -0.7774
  883MOL0     C19099  12.877   8.665   8.272 -0.8156  1.4058 -0.3943
  883MOL0     O19100  12.879   8.722   8.149 -0.6029  0.2841 -0.4305
  883MOL0     C19101  12.989   8.712   8.064 -0.1639 -0.2446 -0.5487
  883MOL0     C19102  13.119   8.713   8.103  0.1920  0.6020 -0.0953
  883MOL0     C19103  13.227   8.710   8.016  0.6774  0.4248 -0.3697
  883MOL0     C19104  13.201   8.697   7.881  0.7563 -0.5518 -0.9545
  883MOL0     O19105  13.309   8.707   7.792  0.3049 -0.0577  0.7438
  883MOL0     C19106  13.297   8.826   7.711  0.1916 -0.1893  0.9252
  883MOL0     C19107  13.430   8.837   7.634 -0.0876 -0.4830 -0.6277
  883MOL0     C19108  13.418   8.944   7.519  0.1422 -0.6786 -1.0656
  883MOL0     C19109  13.483   8.898   7.389  0.3079  0.3441  0.1268
  883MOL0     C19110  13.634   8.884   7.398  0.8128 -0.2883  0.7421
  883MOL0     C19111  13.694   8.874   7.251 -0.6853 -0.1195 -0.0487
  883MOL0     C19112  13.848   8.851   7.251 -0.4590  0.6497 -1.2553
  883MOL0     C19113  13.928   8.967   7.307  0.8956  0.1487 -0.2644
  883MOL0    Cl19114  14.098   8.917   7.313 -0.3785  0.0664  0.0031
  883MOL0     C19115  13.074   8.686   7.842 -0.5437 -0.3237  0.2420
  883MOL0     C19116  12.966   8.692   7.925  0.4856  0.1032  0.2272
  883MOL0     O19117  12.978   8.601   8.323  0.9982 -0.6846  0.3065
  883MOL0     C19118  12.636   8.744   8.280 -0.0969 -0.1608 -0.1838
  883MOL0     C19119  12.518   8.751   8.354 -0.0438 -0.4686 -0.2645
  883MOL0     N19120  11.996   8.686   8.736 -0.5032 -0.4089 -0.9753
  883MOL0     N19121  11.870   8.701   8.765 -0.4147  0.6796 -0.8046
  883MOL0     C19122  10.768   8.203   9.146  0.3146  0.2277 -0.3688
  883MOL0     C19123  10.654   8.135   9.098 -0.2261  0.7105 -0.6623
  883MOL0     C19124  10.195   8.110   9.004  1.0263  0.3898 -0.2442
  883MOL0     C19125  10.201   8.011   9.109 -0.4450  0.0542 -0.0746
  883MOL0     C19126  10.094   7.927   9.145  0.1609  0.6200 -0.3674
  883MOL0     C19127   9.977   7.932   9.067  0.6315 -0.1300  0.0972
  883MOL0     O19128   9.874   7.853   9.099  0.6388 -0.1748 -0.3125
  883MOL0     C19129   9.737   7.879   9.052 -0.0391  0.0946  0.2231
  883MOL0     C19130   9.642   7.809   9.160  0.8044 -0.0228 -0.2499
  883MOL0     C19131   9.487   7.834   9.130 -0.1007  0.7769  0.1487
  883MOL0     C19132   9.396   7.786   9.247  0.2384  0.9883 -0.2634
  883MOL0     C19133   9.397   7.637   9.225 -0.9842  0.2164 -0.5802
  883MOL0     C19134   9.407   7.517   9.224 -0.9813 -0.4520 -0.4318
  883MOL0     C19135   9.977   8.021   8.959 -0.6641  0.0082  0.2305
  883MOL0     C19136  10.076   8.119   8.930 -0.1959  0.0738  0.5463
  883MOL0     C19137  10.047   8.216   8.821  0.5864 -0.1136  1.0751
  883MOL0     H19138  10.501   8.420   8.988  0.4105 -1.2094 -1.7132
  883MOL0     H19139  10.720   8.522   9.069  1.7050 -0.3514 -0.2799
  883MOL0     H19140  10.954   8.464   8.988 -2.9697 -2.0083  1.0056
  883MOL0     H19141  10.960   8.596   9.110 -2.0016  0.7681 -3.4461
  883MOL0     H19142  11.157   8.373   9.109  0.3575 -0.2326  0.9519
  883MOL0     H19143  11.140   8.469   9.241  2.9140 -2.1408 -0.9427
  883MOL0     H19144  11.190   8.681   9.091  2.9285  1.2833 -3.4430
  883MOL0     H19145  11.217   8.567   8.966  2.3090  0.1017 -0.5378
  883MOL0     H19146  11.368   8.599   9.233  2.6309  2.5112  0.0839
  883MOL0     H19147  11.389   8.466   9.118  0.3598  0.4085 -0.2366
  883MOL0     H19148  11.438   8.758   9.040  1.9686 -0.7182 -0.3350
  883MOL0     H19149  11.558   8.655   9.110  0.1488 -0.0124  1.1761
  883MOL0     H19150  11.478   8.499   8.904  1.2294  0.2343 -3.2886
  883MOL0     H19151  11.405   8.653   8.851  0.8202  2.8667  1.5063
  883MOL0     H19152  11.705   8.623   8.926 -0.6946  2.8514  1.3536
  883MOL0     H19153  11.620   8.756   8.841 -2.4515 -0.9039 -2.2983
  883MOL0     H19154  11.636   8.489   8.719  0.1622  0.2924 -0.0101
  883MOL0     H19155  11.585   8.639   8.642  1.2374 -0.4521 -1.0272
  883MOL0     H19156  11.845   8.489   8.528  0.3963 -0.7260  1.3249
  883MOL0     H19157  12.215   8.554   8.656  0.1197  0.1063 -0.1998
  883MOL0     H19158  12.123   8.421   8.607 -3.5557 -0.3680 -0.9683
  883MOL0     H19159  12.237   8.513   8.409  2.7343  4.3135 -1.2515
  883MOL0     H19160  12.071   8.547   8.375 -1.2255  0.7896  0.8051
  883MOL0     H19161  12.098   8.777   8.424 -0.0969 -1.2964  1.7097
  883MOL0     H19162  12.251   8.731   8.340  3.9346 -4.8836  1.8261
  883MOL0     H19163  12.225   8.807   8.626  3.7706  0.8120  1.4873
  883MOL0     H19164  12.314   8.882   8.511  1.3855 -0.6370  1.7672
  883MOL0     H19165  12.612   8.598   8.639  3.5475  1.0639  0.1291
  883MOL0     H19166  12.817   8.578   8.518  0.7826  1.0612  0.1602
  883MOL0     H19167  13.140   8.749   8.203 -0.5132 -0.0357  0.2862
  883MOL0     H19168  13.325   8.723   8.060 -0.0026  1.3288  0.9273
  883MOL0     H19169  13.220   8.813   7.634  0.0357  2.6390  0.4830
  883MOL0     H19170  13.271   8.906   7.780 -0.5740  1.0329 -0.6910
  883MOL0     H19171  13.511   8.870   7.699 -0.5876  1.6436 -1.0249
  883MOL0     H19172  13.447   8.737   7.591 -0.4598 -0.7668 -0.1297
  883MOL0     H19173  13.312   8.969   7.503  0.5381  2.5066  0.5893
  883MOL0     H19174  13.452   9.044   7.547 -1.1678 -0.1681 -1.1972
  883MOL0     H19175  13.465   8.982   7.322 -0.7129  0.6459  0.7489
  883MOL0     H19176  13.430   8.812   7.345 -3.3377  2.0691  0.7402
  883MOL0     H19177  13.666   8.795   7.453  2.0077 -0.7870 -0.7037
  883MOL0     H19178  13.659   8.978   7.447 -0.1460  1.8822 -2.6357
  883MOL0     H19179  13.657   8.795   7.184 -0.2461 -0.4249  0.0688
  883MOL0     H19180  13.685   8.968   7.195  2.9015 -0.5481 -1.6318
  883MOL0     H19181  13.873   8.836   7.145 -2.0383  0.0379 -1.5695
  883MOL0     H19182  13.864   8.756   7.303 -3.1535  0.1217 -1.2517
  883MOL0     H19183  13.915   9.051   7.238 -0.1225 -1.3543 -1.9621
  883MOL0     H19184  13.890   8.995   7.406 -0.9938 -0.2282 -0.8440
  883MOL0     H19185  13.048   8.682   7.737 -0.6792 -0.7009  0.2874
  883MOL0     H19186  12.864   8.697   7.887  0.8215  2.4226 -0.5211
  883MOL0     H19187  12.640   8.791   8.182  0.4030 -0.7233 -0.4420
  883MOL0     H19188  12.438   8.800   8.300  0.6370  1.5937  0.4770
  883MOL0     H19189  10.850   8.152   9.196  1.1529  1.3948 -0.5106
  883MOL0     H19190  10.646   8.026   9.103  1.5840  0.3777 -3.3132
  883MOL0     H19191  10.293   8.011   9.168 -0.4034 -2.0708 -0.0472
  883MOL0     H19192  10.105   7.858   9.228  1.9899  2.6780  1.2225
  883MOL0     H19193   9.726   7.835   8.953  1.2449 -0.5051  0.3208
  883MOL0     H19194   9.710   7.984   9.041  0.1175  0.2305  1.0299
  883MOL0     H19195   9.670   7.851   9.257  1.0545  0.7855 -0.6570
  883MOL0     H19196   9.666   7.703   9.150 -0.0468 -0.1659 -0.8675
  883MOL0     H19197   9.464   7.791   9.032  2.2603  0.2338 -0.2361
  883MOL0     H19198   9.467   7.940   9.116  2.6352  1.5727  1.4385
  883MOL0     H19199   9.440   7.807   9.345  1.0126  0.1597 -0.4128
  883MOL0     H19200   9.294   7.824   9.234  0.7986  3.1373  1.0813
  883MOL0     H19201   9.405   7.413   9.247  0.4801 -0.3528  0.2509
  883MOL0     H19202   9.889   8.003   8.897  1.0311 -4.5809 -1.2747
  883MOL0     H19203  10.017   8.310   8.867 -0.2004  1.5035 -2.3890
  883MOL0     H19204  10.140   8.238   8.768 -0.1332  3.9822  1.2274
  883MOL0     H19205   9.977   8.176   8.747  1.3209  1.7792 -0.7615
  884MOL0     O19206   4.637   6.146   6.728 -0.3990 -0.2714 -0.3441
  884MOL0     C19207   4.559   6.114   6.818 -0.3519  0.3963  0.7302
  884MOL0     O19208   4.575   6.142   6.950  0.2824 -0.0568 -0.2619
  884MOL0     C19209   4.684   6.207   6.999 -0.8519  0.1465 -0.1829
  884MOL0     C19210   4.737   6.330   6.951 -0.2991  1.3643  0.1572
  884MOL0     C19211   4.842   6.388   7.023 -0.3503  0.2376  0.6353
  884MOL0     C19212   4.901   6.332   7.142 -0.0548 -0.7076  0.2016
  884MOL0     O19213   4.993   6.403   7.222  0.1476 -0.1657  0.0487
  884MOL0     C19214   4.950   6.539   7.250 -0.0471 -0.8974  0.1566
  884MOL0     C19215   4.976   6.568   7.394  0.1172 -0.2291 -0.2388
  884MOL0     C19216   4.882   6.470   7.474  0.1929 -0.5767  0.1083
  884MOL0     C19217   4.865   6.515   7.620 -0.8474  0.5422 -0.2643
  884MOL0     C19218   4.733   6.593   7.648 -0.6105 -0.4985 -0.4869
  884MOL0     C19219   4.761   6.722   7.726  0.1534 -0.4170 -0.0525
  884MOL0     C19220   4.628   6.803   7.731  0.4333  0.0598  0.7422
  884MOL0     C19221   4.643   6.941   7.804 -1.5994 -0.4900 -0.2686
  884MOL0     N19222   4.733   7.031   7.740 -0.0457 -0.0950  0.0784
  884MOL0     C19223   4.865   7.047   7.771  0.4624 -0.7569 -0.0615
  884MOL0     C19224   4.916   7.156   7.703 -0.4495 -1.2973 -0.2148
  884MOL0     C19225   5.047   7.216   7.706 -0.3504 -0.0707  0.1663
  884MOL0     C19226   5.135   7.206   7.586  0.3137 -0.0626 -0.3145
  884MOL0     C19227   5.260   7.296   7.607 -0.6870  0.5806 -0.2025
  884MOL0     C19228   5.372   7.244   7.691 -1.2105  0.2156 -0.1583
  884MOL0     O19229   5.451   7.134   7.629 -0.0300  0.3700 -0.1028
  884MOL0     C19230   5.579   7.113   7.688  0.1834  0.3638 -1.0539
  884MOL0     C19231   5.645   7.004   7.632  0.3689 -0.2201  0.4857
  884MOL0     C19232   5.759   6.968   7.685  0.3404  0.6461  0.4654
  884MOL0     C19233   5.824   7.046   7.790  1.1377  0.0692 -0.0178
  884MOL0     C19234   5.955   6.986   7.836 -0.5371  0.5391  0.0149
  884MOL0     O19235   6.040   7.080   7.878  0.3592 -0.1216 -0.0899
  884MOL0     C19236   6.153   7.038   7.947  0.4147  0.9049 -0.4551
  884MOL0     C19237   6.166   6.926   8.034  0.1322  0.0966 -0.9776
  884MOL0     C19238   6.284   6.903   8.099  0.4397  0.0892 -0.2066
  884MOL0     C19239   6.401   6.984   8.073 -1.1526  0.0576 -0.2217
  884MOL0     O19240   6.506   6.957   8.164 -0.2739 -0.1314  0.3582
  884MOL0     C19241   6.621   7.040   8.155 -0.5026  0.5760 -0.5777
  884MOL0     C19242   6.740   6.983   8.229  0.6262  0.0906  0.4311
  884MOL0     C19243   6.847   7.097   8.231 -0.0552 -0.1230  0.1700
  884MOL0     C19244   6.997   7.055   8.259  0.9997  1.4142 -0.3736
  884MOL0     C19245   7.033   7.036   8.410 -0.1734 -0.6290 -0.8531
  884MOL0     C19246   7.158   6.958   8.427 -0.8922  0.1667 -0.2170
  884MOL0     C19247   7.199   6.934   8.575 -0.4395  0.0502  0.3996
  884MOL0     C19248   7.229   7.062   8.655  0.0054 -0.5026  0.6310
  884MOL0    Cl19249   7.339   7.155   8.556 -0.3151  0.2863 -0.0195
  884MOL0     C19250   6.393   7.094   7.988  0.7335 -0.2402  0.0526
  884MOL0     C19251   6.272   7.111   7.931  0.2801 -0.0003  0.4406
  884MOL0     O19252   5.980   6.863   7.823  0.3107  0.1942  0.7814
  884MOL0     C19253   5.761   7.158   7.837  0.2257  0.0889  0.1674
  884MOL0     C19254   5.638   7.195   7.783 -0.0577 -0.2712  0.0495
  884MOL0     N19255   4.821   7.189   7.618  0.0595 -0.0242 -0.5153
  884MOL0     N19256   4.711   7.120   7.638 -0.7334  0.5861 -0.3032
  884MOL0     C19257   4.845   6.218   7.188 -0.0444  0.0208 -0.3526
  884MOL0     C19258   4.746   6.150   7.112 -0.2070 -0.9009  0.2275
  884MOL0     C19259   4.455   6.017   6.776  0.2663  0.0909 -0.0337
  884MOL0     C19260   4.414   5.932   6.874 -0.3630 -0.8878 -0.0997
  884MOL0     C19261   4.322   5.836   6.847 -0.6671  0.2791  0.3899
  884MOL0     C19262   4.267   5.818   6.721 -0.4786  0.7646 -0.3761
  884MOL0     O19263   4.160   5.733   6.717 -0.0025  0.4394 -0.2484
  884MOL0     C19264   4.117   5.681   6.592  0.5733 -0.2340  0.5076
  884MOL0     C19265   4.000   5.592   6.642  0.6423  0.7669  0.5014
  884MOL0     C19266   4.022   5.499   6.765 -0.2653  0.2375  0.1528
  884MOL0     C19267   4.143   5.403   6.748 -0.3543 -0.2834 -0.3588
  884MOL0     C19268   4.107   5.303   6.648 -0.2492 -0.0966 -0.2828
  884MOL0     C19269   4.072   5.211   6.575  0.2086  0.2317 -0.4186
  884MOL0     C19270   4.311   5.910   6.620  0.2001 -0.6112 -0.5864
  884MOL0     C19271   4.401   6.008   6.645  0.4175 -1.5790 -0.1552
  884MOL0     C19272   4.443   6.099   6.531  0.1051 -0.0321  0.0690
  884MOL0     H19273   4.697   6.374   6.860  1.8964 -0.3695 -1.7371
  884MOL0     H19274   4.878   6.481   6.982  0.9337  0.3793  1.9758
  884MOL0     H19275   5.017   6.607   7.197 -0.0117 -0.9130  0.1817
  884MOL0     H19276   4.845   6.564   7.231  0.1020 -1.5854 -1.7788
  884MOL0     H19277   4.942   6.671   7.407 -0.3485  0.0595 -3.0766
  884MOL0     H19278   5.079   6.553   7.427 -0.5350 -1.1427  1.4749
  884MOL0     H19279   4.942   6.378   7.480  0.8975 -0.1279  0.0980
  884MOL0     H19280   4.790   6.463   7.415 -0.7424  1.1678  1.2832
  884MOL0     H19281   4.843   6.421   7.670 -0.0040  0.6664  0.3619
  884MOL0     H19282   4.956   6.556   7.666 -1.6620  0.1713  1.7543
  884MOL0     H19283   4.686   6.626   7.554  1.1401  1.4266 -0.7724
  884MOL0     H19284   4.666   6.528   7.705  0.5209 -0.1457  1.3125
  884MOL0     H19285   4.787   6.691   7.827 -0.9342  0.4155  0.5052
  884MOL0     H19286   4.839   6.784   7.682 -2.3201  2.0502 -1.2394
  884MOL0     H19287   4.554   6.744   7.786 -1.0346  0.6697 -0.4990
  884MOL0     H19288   4.603   6.811   7.625  0.3909  1.4205  0.8318
  884MOL0     H19289   4.549   6.997   7.813 -1.2726  0.3985 -1.9479
  884MOL0     H19290   4.685   6.916   7.902 -3.1767 -0.4502  0.4444
  884MOL0     H19291   4.926   6.989   7.840  2.8068 -0.2098 -1.5728
  884MOL0     H19292   5.045   7.323   7.729  1.1012  1.5356 -5.6321
  884MOL0     H19293   5.107   7.177   7.788  0.2427  2.7400  1.1918
  884MOL0     H19294   5.169   7.102   7.578 -1.5149 -0.8605  1.4487
  884MOL0     H19295   5.081   7.243   7.499 -1.0604  2.7838  1.5881
  884MOL0     H19296   5.241   7.396   7.646  3.3290  1.6375 -0.6169
  884MOL0     H19297   5.298   7.311   7.506 -2.3541 -1.8265 -1.2923
  884MOL0     H19298   5.336   7.207   7.787  0.0777 -0.7561 -0.0138
  884MOL0     H19299   5.443   7.326   7.705  1.7216 -2.5653  3.6825
  884MOL0     H19300   5.595   6.946   7.555  1.4227 -1.1788  0.5029
  884MOL0     H19301   5.800   6.871   7.657 -0.1442  0.5484  0.0813
  884MOL0     H19302   6.088   6.854   8.058  2.0350 -2.5546 -2.2609
  884MOL0     H19303   6.282   6.826   8.176  2.0377 -3.3031 -3.2521
  884MOL0     H19304   6.640   7.066   8.050 -0.5186  0.3671 -0.6333
  884MOL0     H19305   6.595   7.129   8.212  1.1930  0.3770  0.5811
  884MOL0     H19306   6.696   6.969   8.328 -1.9900 -1.4390 -0.8409
  884MOL0     H19307   6.771   6.890   8.181  1.5189 -0.3590  1.8243
  884MOL0     H19308   6.847   7.145   8.133  1.2038  1.2638  0.8088
  884MOL0     H19309   6.830   7.173   8.308  0.5637  1.4135 -1.1588
  884MOL0     H19310   7.059   7.136   8.221  1.0693  1.1346 -0.8661
  884MOL0     H19311   7.023   6.962   8.207 -2.4837  0.8251 -1.3440
  884MOL0     H19312   6.955   6.985   8.466  0.0331  1.3644  1.3863
  884MOL0     H19313   7.036   7.134   8.458  2.6317 -1.4052  0.8271
  884MOL0     H19314   7.132   6.861   8.382 -2.9897  0.2728  0.6351
  884MOL0     H19315   7.237   7.004   8.369 -0.6433 -0.0235 -0.0333
  884MOL0     H19316   7.290   6.875   8.587  0.3822  0.9032 -1.1550
  884MOL0     H19317   7.112   6.890   8.624  0.3536 -0.2355  1.5685
  884MOL0     H19318   7.143   7.126   8.676  1.1757  1.2249  0.4288
  884MOL0     H19319   7.272   7.033   8.752  1.2458 -3.1918 -0.6105
  884MOL0     H19320   6.475   7.163   7.969  1.3821 -1.2853 -1.1207
  884MOL0     H19321   6.269   7.188   7.854 -1.1574 -0.0203  0.4557
  884MOL0     H19322   5.808   7.219   7.914  0.5072 -0.7811  0.6969
  884MOL0     H19323   5.587   7.277   7.832 -0.9440 -0.8562  0.1343
  884MOL0     H19324   4.887   6.174   7.278  0.4844 -0.2137 -0.7099
  884MOL0     H19325   4.703   6.054   7.137  1.8405 -1.6464  1.0934
  884MOL0     H19326   4.459   5.947   6.972  0.1576 -4.3350  0.3228
  884MOL0     H19327   4.296   5.778   6.935  2.9009  0.5046  1.7423
  884MOL0     H19328   4.203   5.629   6.550 -0.3187  0.7126 -2.7939
  884MOL0     H19329   4.081   5.750   6.516 -0.1704  0.3929  1.3957
  884MOL0     H19330   3.969   5.543   6.550 -0.1048  2.3136 -0.1111
  884MOL0     H19331   3.913   5.656   6.657 -1.5845 -1.3527 -2.3194
  884MOL0     H19332   3.923   5.453   6.771 -0.2286  0.0657 -0.4878
  884MOL0     H19333   4.043   5.554   6.858  1.8122 -2.4527  1.4225
  884MOL0     H19334   4.229   5.467   6.726 -1.1780  1.6740  1.6334
  884MOL0     H19335   4.165   5.371   6.850  2.7992 -0.2588 -0.9410
  884MOL0     H19336   4.044   5.120   6.524 -0.4765 -1.3400  2.5107
  884MOL0     H19337   4.264   5.910   6.522  1.2987 -0.6550 -1.1222
  884MOL0     H19338   4.442   6.206   6.553 -1.1064 -0.0196 -0.0048
  884MOL0     H19339   4.544   6.074   6.494  1.1734  1.4938  1.7831
  884MOL0     H19340   4.373   6.090   6.448  1.3739  1.6788 -1.2990
  885MOL0     O19341  10.489  10.805   6.662 -0.1412  0.0837  0.5195
  885MOL0     C19342  10.583  10.802   6.585 -0.1842  0.0932 -0.4340
  885MOL0     O19343  10.690  10.713   6.590  0.7970  0.2603 -0.0068
  885MOL0     C19344  10.674  10.629   6.702 -0.6030  1.2831 -0.8143
  885MOL0     C19345  10.706  10.660   6.836 -0.4190  0.0999  0.9822
  885MOL0     C19346  10.684  10.564   6.935 -0.3673  0.4379  0.2244
  885MOL0     C19347  10.623  10.443   6.905  0.4273  0.5200 -0.1034
  885MOL0     O19348  10.602  10.357   7.015  0.0611 -0.5785 -0.7340
  885MOL0     C19349  10.534  10.228   6.999 -0.7390 -0.4198  0.0726
  885MOL0     C19350  10.649  10.133   6.963  0.0968 -0.1674  0.0861
  885MOL0     C19351  10.720  10.102   7.090  1.1180  0.1233  0.2586
  885MOL0     C19352  10.833  10.002   7.064  1.3212 -0.1783  0.1631
  885MOL0     C19353  10.910   9.978   7.186  0.2878 -0.2088 -0.5663
  885MOL0     C19354  11.012   9.866   7.142 -0.5504  0.0564  0.4058
  885MOL0     C19355  11.108   9.836   7.257  0.2499 -0.5746  0.4780
  885MOL0     C19356  11.240   9.921   7.248 -0.0400  0.4423  0.0864
  885MOL0     N19357  11.314   9.898   7.378 -0.3450  1.1831 -0.0256
  885MOL0     C19358  11.332   9.775   7.441 -0.8001  0.4818  0.8053
  885MOL0     C19359  11.398   9.810   7.549 -0.6627  0.0688 -1.4217
  885MOL0     C19360  11.443   9.704   7.649 -0.4147 -0.3015  0.3781
  885MOL0     C19361  11.583   9.658   7.633 -0.1792 -0.4216  0.0448
  885MOL0     C19362  11.687   9.764   7.605  0.7684 -0.4551 -0.8142
  885MOL0     C19363  11.825   9.700   7.600  0.3725 -0.7010  0.3635
  885MOL0     O19364  11.834   9.592   7.689 -0.3056  0.0740  0.1636
  885MOL0     C19365  11.961   9.533   7.699 -0.0561  0.1542  0.2285
  885MOL0     C19366  12.050   9.587   7.787 -0.6455 -0.0512  0.0305
  885MOL0     C19367  12.180   9.534   7.802  0.1234  1.4878  0.1312
  885MOL0     C19368  12.223   9.428   7.716 -0.1970  0.4497  0.0776
  885MOL0     C19369  12.366   9.374   7.727 -0.3768 -1.5892 -0.3573
  885MOL0     O19370  12.407   9.281   7.634  0.5838 -0.4264  0.3478
  885MOL0     C19371  12.543   9.248   7.638  0.3521  0.5797 -0.1248
  885MOL0     C19372  12.578   9.133   7.714 -0.4101  0.0830 -0.5164
  885MOL0     C19373  12.706   9.077   7.707  0.3146  0.4091 -0.6310
  885MOL0     C19374  12.807   9.137   7.635 -0.9323  0.8391 -0.4547
  885MOL0     O19375  12.929   9.073   7.653  0.3595  0.1557  0.3219
  885MOL0     C19376  13.035   9.136   7.588 -0.1206 -0.4753 -0.4772
  885MOL0     C19377  13.025   9.128   7.437 -0.1859 -0.3920  0.1712
  885MOL0     C19378  13.029   8.987   7.382 -0.1630  0.4324 -0.6226
  885MOL0     C19379  13.046   8.981   7.239  0.0026  0.4814  0.7533
  885MOL0     C19380  13.000   8.841   7.182  0.7154 -0.5831  0.3872
  885MOL0     C19381  13.098   8.725   7.220  0.8051  0.4453 -0.0841
  885MOL0     C19382  13.214   8.740   7.128 -1.2005  0.3690  0.7373
  885MOL0     C19383  13.314   8.623   7.126  0.0990 -0.5327  0.3317
  885MOL0    Cl19384  13.463   8.667   7.036 -0.1267  0.1332  0.0992
  885MOL0     C19385  12.768   9.251   7.562 -0.0356  0.1668 -0.0792
  885MOL0     C19386  12.638   9.299   7.559  0.1625 -0.4957  0.3324
  885MOL0     O19387  12.448   9.438   7.794 -0.2463  0.5177 -0.1538
  885MOL0     C19388  12.129   9.379   7.620  0.4270  0.7145 -0.4762
  885MOL0     C19389  12.001   9.435   7.612 -0.1215  0.6465 -0.1445
  885MOL0     N19390  11.415   9.942   7.562  0.0570  0.0855 -0.4004
  885MOL0     N19391  11.361   9.996   7.458 -0.2624  0.7586  1.0049
  885MOL0     C19392  10.583  10.416   6.772 -0.1644 -0.5350  0.4241
  885MOL0     C19393  10.616  10.505   6.666 -0.6590 -0.0974 -0.3865
  885MOL0     C19394  10.569  10.881   6.456 -0.3506 -0.3645 -0.1081
  885MOL0     C19395  10.669  10.868   6.359  0.3324  0.7875 -0.1925
  885MOL0     C19396  10.674  10.936   6.243 -0.0820 -0.4245  0.5637
  885MOL0     C19397  10.580  11.027   6.216 -0.4737 -0.3739 -0.3567
  885MOL0     O19398  10.600  11.105   6.107 -0.0019 -0.1073 -0.0975
  885MOL0     C19399  10.501  11.204   6.059 -0.2396 -0.0391 -0.0397
  885MOL0     C19400  10.388  11.122   5.989  0.1877 -0.4405  0.4385
  885MOL0     C19401  10.309  11.222   5.910 -0.6876  0.1998  0.0105
  885MOL0     C19402  10.192  11.175   5.828  0.2394 -0.9294 -0.6531
  885MOL0     C19403  10.088  11.277   5.800 -0.8563 -0.1234  0.5989
  885MOL0     C19404   9.992  11.349   5.776  0.6859  0.3749 -0.7730
  885MOL0     C19405  10.471  11.047   6.311 -1.1504 -0.2025  0.3749
  885MOL0     C19406  10.466  10.976   6.427  0.1914 -0.1914 -0.5627
  885MOL0     C19407  10.333  10.990   6.507 -0.3753  0.2327 -0.4275
  885MOL0     H19408  10.736  10.756   6.878 -1.2173 -0.7381  3.6820
  885MOL0     H19409  10.713  10.592   7.036  0.1834 -2.6788  1.0359
  885MOL0     H19410  10.506  10.193   7.099  0.9419 -3.5992 -0.4341
  885MOL0     H19411  10.459  10.238   6.920  0.6487  1.2575 -1.0977
  885MOL0     H19412  10.719  10.191   6.903  2.5821 -0.8518  2.1476
  885MOL0     H19413  10.611  10.047   6.907 -0.2718  0.2428 -0.2988
  885MOL0     H19414  10.640  10.047   7.141  0.3718  0.6185 -0.3630
  885MOL0     H19415  10.750  10.195   7.140 -0.8039  1.3402 -0.6981
  885MOL0     H19416  10.791   9.906   7.030 -1.3432  0.6874  0.7413
  885MOL0     H19417  10.888  10.032   6.975  0.9837 -2.3951 -0.8824
  885MOL0     H19418  10.961  10.065   7.229  2.3849 -1.0307 -1.2538
  885MOL0     H19419  10.847   9.945   7.268  3.4929  1.1691  2.7140
  885MOL0     H19420  10.953   9.776   7.128 -1.5034  0.5288  1.2690
  885MOL0     H19421  11.071   9.897   7.055  0.2430  2.0391  1.5722
  885MOL0     H19422  11.153   9.737   7.270  1.2154  0.1804  3.9012
  885MOL0     H19423  11.060   9.871   7.350 -1.2049 -1.3820  0.0612
  885MOL0     H19424  11.297   9.881   7.164  0.4484  1.1629  0.0655
  885MOL0     H19425  11.225  10.027   7.227 -0.0239  0.0553 -2.0743
  885MOL0     H19426  11.305   9.675   7.411  2.6830 -0.0580 -1.0302
  885MOL0     H19427  11.436   9.752   7.747  0.0827 -0.1851  0.3568
  885MOL0     H19428  11.382   9.613   7.651 -1.2356  0.2391  2.2658
  885MOL0     H19429  11.609   9.614   7.730  2.0342 -1.2476 -0.8432
  885MOL0     H19430  11.590   9.588   7.549 -1.1918  0.2998 -0.6583
  885MOL0     H19431  11.677   9.844   7.679 -1.2801 -0.5539 -0.9234
  885MOL0     H19432  11.675   9.808   7.506  0.1551 -1.0856 -1.0275
  885MOL0     H19433  11.896   9.778   7.627  0.6034  0.0493 -2.1041
  885MOL0     H19434  11.856   9.676   7.498 -2.4576 -1.8589 -0.3231
  885MOL0     H19435  12.030   9.669   7.855 -1.2671  1.5446 -1.9900
  885MOL0     H19436  12.241   9.577   7.881 -0.0316  0.6215  0.7365
  885MOL0     H19437  12.518   9.072   7.781  1.3008 -0.2803  0.7484
  885MOL0     H19438  12.722   8.989   7.769 -4.4712  2.9000  5.2291
  885MOL0     H19439  13.041   9.237   7.630 -0.4053 -0.7476  0.2386
  885MOL0     H19440  13.128   9.092   7.624 -0.9208 -0.6967  1.4628
  885MOL0     H19441  12.939   9.187   7.405  0.4395  0.1781 -0.5271
  885MOL0     H19442  13.110   9.188   7.404  0.0028  0.7738  2.5504
  885MOL0     H19443  13.101   8.933   7.444 -0.1560  2.0480  0.8924
  885MOL0     H19444  12.934   8.942   7.412  2.0962 -2.5647  2.9079
  885MOL0     H19445  13.151   9.003   7.217 -0.0349  0.0217  0.0870
  885MOL0     H19446  12.995   9.060   7.184  0.8984  0.5773  0.0395
  885MOL0     H19447  12.982   8.847   7.074  1.2342 -1.6287  0.2399
  885MOL0     H19448  12.909   8.812   7.236  1.1466 -3.8631 -0.4542
  885MOL0     H19449  13.120   8.730   7.327 -2.0874  1.5559  0.5469
  885MOL0     H19450  13.039   8.633   7.207  2.4900 -0.2890 -4.4774
  885MOL0     H19451  13.273   8.831   7.141  0.5533 -0.4187 -1.0933
  885MOL0     H19452  13.178   8.739   7.025 -0.6696 -0.9530  0.5408
  885MOL0     H19453  13.326   8.591   7.230 -0.9805 -2.3880 -0.0676
  885MOL0     H19454  13.257   8.544   7.075 -1.5965  0.7893  0.0932
  885MOL0     H19455  12.831   9.318   7.506 -2.7190  1.5144 -1.7109
  885MOL0     H19456  12.618   9.373   7.483  2.1905 -3.2704 -3.2390
  885MOL0     H19457  12.156   9.291   7.563  2.8950  0.7497  0.5203
  885MOL0     H19458  11.931   9.392   7.542  2.4790 -1.8227 -1.3953
  885MOL0     H19459  10.540  10.321   6.740  0.5933 -1.2506  1.4711
  885MOL0     H19460  10.619  10.471   6.563  4.0720 -1.8508  0.0578
  885MOL0     H19461  10.752  10.800   6.374 -0.5271 -0.5445 -1.2234
  885MOL0     H19462  10.748  10.910   6.168  2.0142 -0.7174  2.6514
  885MOL0     H19463  10.556  11.275   5.997 -0.6597 -0.3602 -0.7823
  885MOL0     H19464  10.455  11.270   6.133 -1.3078  3.2078 -3.3296
  885MOL0     H19465  10.325  11.055   6.048  0.3104 -2.1386 -1.2391
  885MOL0     H19466  10.437  11.057   5.915 -0.8813  1.6075 -2.2087
  885MOL0     H19467  10.384  11.260   5.840 -1.2364  1.9905  0.3651
  885MOL0     H19468  10.289  11.310   5.971  2.1655 -0.5236  2.2214
  885MOL0     H19469  10.230  11.124   5.739 -1.2697 -3.7072  0.1613
  885MOL0     H19470  10.149  11.085   5.872 -1.1387  0.4987  1.0482
  885MOL0     H19471   9.914  11.415   5.746  0.9234 -0.4232 -3.3856
  885MOL0     H19472  10.397  11.121   6.284 -0.6113  0.2518  0.1113
  885MOL0     H19473  10.274  10.898   6.501 -1.0883  0.6956 -0.6017
  885MOL0     H19474  10.344  11.003   6.615  1.6580  0.2451 -0.5975
  885MOL0     H19475  10.273  11.077   6.479  1.3196  0.9559 -2.0234
  886MOL0     O19476  10.994   5.842   3.854 -0.3071  0.2871 -0.0984
  886MOL0     C19477  10.871   5.853   3.881 -0.2102 -0.1349  0.1349
  886MOL0     O19478  10.810   5.821   4.004 -0.5318 -0.1888  0.5391
  886MOL0     C19479  10.880   5.756   4.094  0.1266 -0.8002  0.6041
  886MOL0     C19480  10.977   5.817   4.175 -0.4993  0.4381  0.1359
  886MOL0     C19481  11.037   5.746   4.280 -0.6811  0.3189 -0.6357
  886MOL0     C19482  11.019   5.604   4.303  0.1387 -0.1212  0.5182
  886MOL0     O19483  11.094   5.543   4.406  0.5618  0.0961 -0.0010
  886MOL0     C19484  11.053   5.411   4.445  0.5079 -0.8690 -0.5628
  886MOL0     C19485  11.153   5.372   4.550 -0.2485  0.5853 -0.8833
  886MOL0     C19486  11.277   5.307   4.478  0.1148  0.2874 -0.9832
  886MOL0     C19487  11.379   5.264   4.582  0.2197 -0.2536 -0.6620
  886MOL0     C19488  11.507   5.196   4.511 -1.1039  0.2463 -0.3733
  886MOL0     C19489  11.472   5.101   4.391 -0.1873 -0.4815  0.3941
  886MOL0     C19490  11.595   5.014   4.357  0.3090  0.0876  0.9826
  886MOL0     C19491  11.556   4.900   4.259 -0.8568  0.7926  0.5626
  886MOL0     N19492  11.510   4.961   4.127 -0.0443 -0.8917 -0.8009
  886MOL0     C19493  11.589   5.024   4.040 -0.1579  0.8885 -0.0108
  886MOL0     C19494  11.510   5.046   3.929 -0.1583  0.4945  0.0789
  886MOL0     C19495  11.559   5.117   3.805 -0.9985  0.6474 -0.8174
  886MOL0     C19496  11.563   5.274   3.812 -0.1768 -0.2586  0.3976
  886MOL0     C19497  11.567   5.346   3.687 -0.1958 -0.4098 -0.7959
  886MOL0     C19498  11.671   5.303   3.585  0.3958 -0.2611  0.2582
  886MOL0     O19499  11.799   5.316   3.647  0.2823  0.5245  0.3414
  886MOL0     C19500  11.913   5.326   3.571  0.9580 -0.6180  0.6585
  886MOL0     C19501  12.033   5.337   3.640  0.5115 -0.0964 -0.1597
  886MOL0     C19502  12.160   5.350   3.574 -0.9708 -1.0034  0.7428
  886MOL0     C19503  12.163   5.343   3.435  0.4709 -0.5398  0.7435
  886MOL0     C19504  12.286   5.364   3.362 -0.3354  0.4459  0.9110
  886MOL0     O19505  12.391   5.394   3.438 -0.0285  0.3949 -0.3830
  886MOL0     C19506  12.514   5.418   3.381 -1.1050 -0.8383 -0.4923
  886MOL0     C19507  12.608   5.474   3.474  0.2659 -0.4577  0.3820
  886MOL0     C19508  12.732   5.524   3.434  0.7114 -0.7358 -0.3712
  886MOL0     C19509  12.770   5.502   3.299  0.0777  0.8872 -0.8147
  886MOL0     O19510  12.892   5.538   3.253 -0.3763  0.3259  0.9536
  886MOL0     C19511  12.900   5.681   3.236  0.2539  0.5537  0.1484
  886MOL0     C19512  13.038   5.711   3.171  0.7741 -0.0169 -0.1581
  886MOL0     C19513  13.030   5.684   3.023 -0.6156  0.6510  0.1060
  886MOL0     C19514  13.173   5.695   2.962  0.8893 -0.0096 -0.9873
  886MOL0     C19515  13.155   5.705   2.810  0.2949 -0.5905 -1.0304
  886MOL0     C19516  13.289   5.692   2.742  0.4358 -0.5650 -0.2616
  886MOL0     C19517  13.262   5.697   2.591 -0.7136 -0.2960 -0.1705
  886MOL0     C19518  13.387   5.721   2.506 -0.6023  0.4340  0.8012
  886MOL0    Cl19519  13.458   5.883   2.517 -0.3411  0.0736  0.2106
  886MOL0     C19520  12.688   5.434   3.218 -0.3305  1.1181  0.5700
  886MOL0     C19521  12.562   5.390   3.251  0.4736  0.2750 -0.6779
  886MOL0     O19522  12.287   5.352   3.236  0.1536  0.2004  0.5136
  886MOL0     C19523  12.038   5.335   3.364  0.6473 -0.3835  0.3093
  886MOL0     C19524  11.925   5.319   3.433 -0.4338 -0.7599  0.5272
  886MOL0     N19525  11.384   4.999   3.965 -0.4525 -0.2918 -0.0877
  886MOL0     N19526  11.383   4.964   4.085 -0.3655 -0.3547 -0.0740
  886MOL0     C19527  10.930   5.542   4.206 -0.6876 -0.0741 -0.1552
  886MOL0     C19528  10.859   5.617   4.110  0.3923  0.5085 -0.2765
  886MOL0     C19529  10.771   5.908   3.786 -0.2777  0.8405  0.0050
  886MOL0     C19530  10.696   6.018   3.838 -0.6798  0.7554 -0.3242
  886MOL0     C19531  10.590   6.070   3.772 -0.6462  1.1403  0.3602
  886MOL0     C19532  10.541   6.025   3.645  0.1362  0.5055 -0.4958
  886MOL0     O19533  10.435   6.091   3.592 -0.4216  0.5373  0.7661
  886MOL0     C19534  10.376   6.037   3.476 -0.0049 -0.3871  0.2721
  886MOL0     C19535  10.271   6.140   3.417 -0.0517  0.2596 -0.2690
  886MOL0     C19536  10.174   6.071   3.321  0.0575 -0.6303 -0.6492
  886MOL0     C19537  10.039   6.144   3.313  0.0719 -0.4200  0.0143
  886MOL0     C19538  10.062   6.279   3.244  0.2668  0.5044  0.3878
  886MOL0     C19539  10.061   6.380   3.175 -0.0684 -0.3056  0.4840
  886MOL0     C19540  10.616   5.917   3.589  0.9317 -1.2673  0.1178
  886MOL0     C19541  10.725   5.860   3.660 -0.0426  0.6873 -0.1919
  886MOL0     C19542  10.799   5.747   3.591 -0.5050  0.0075 -0.2591
  886MOL0     H19543  10.995   5.923   4.159 -0.8189  0.4028 -0.5123
  886MOL0     H19544  11.091   5.803   4.355 -1.5619 -0.6187  0.7742
  886MOL0     H19545  10.953   5.428   4.488  0.3469 -0.5280 -1.0659
  886MOL0     H19546  11.056   5.337   4.365  0.1854 -0.7249 -0.7090
  886MOL0     H19547  11.107   5.303   4.622 -1.8243  1.2011 -1.2759
  886MOL0     H19548  11.177   5.463   4.604 -1.2979  0.3806 -0.0394
  886MOL0     H19549  11.316   5.373   4.400 -0.3284  1.5390 -0.1812
  886MOL0     H19550  11.237   5.225   4.418  0.7108 -0.1287 -0.8229
  886MOL0     H19551  11.419   5.341   4.648  1.7700 -3.0136  1.8434
  886MOL0     H19552  11.333   5.196   4.654 -1.6504  1.1101 -0.4807
  886MOL0     H19553  11.577   5.273   4.477 -0.9015  0.8979  1.4268
  886MOL0     H19554  11.556   5.138   4.589 -1.7319  1.6296  1.0899
  886MOL0     H19555  11.385   5.049   4.431 -1.3463  0.6890 -0.5143
  886MOL0     H19556  11.429   5.154   4.306  1.2731  2.2473  1.2308
  886MOL0     H19557  11.643   4.975   4.447 -0.9078 -2.7050  0.5415
  886MOL0     H19558  11.672   5.075   4.308 -0.2986  0.1961  0.1398
  886MOL0     H19559  11.647   4.841   4.246  1.1915  4.0347 -1.2571
  886MOL0     H19560  11.486   4.828   4.302  1.3242 -2.8399 -1.4535
  886MOL0     H19561  11.695   5.050   4.049 -0.4062  1.3217  2.2133
  886MOL0     H19562  11.657   5.076   3.777 -1.2776  1.4186 -3.1286
  886MOL0     H19563  11.494   5.081   3.725 -2.3495 -0.2008  0.6122
  886MOL0     H19564  11.482   5.310   3.876 -1.5273 -0.2272 -1.2711
  886MOL0     H19565  11.648   5.295   3.877  0.0258 -4.7776  1.9770
  886MOL0     H19566  11.587   5.451   3.709 -1.9839 -0.8023  3.5537
  886MOL0     H19567  11.462   5.338   3.659 -0.2521 -0.8580 -0.4673
  886MOL0     H19568  11.666   5.359   3.491 -1.0104 -1.2432 -0.2887
  886MOL0     H19569  11.664   5.196   3.560  4.9399 -0.3254 -1.7655
  886MOL0     H19570  12.014   5.343   3.746  1.9338  2.2039  0.0341
  886MOL0     H19571  12.244   5.379   3.636 -0.7194  2.3177 -0.9189
  886MOL0     H19572  12.571   5.491   3.574  0.8411 -2.4880  0.9794
  886MOL0     H19573  12.796   5.559   3.515  2.5695 -2.6433 -0.9560
  886MOL0     H19574  12.808   5.708   3.183 -0.8532 -0.5110  1.4445
  886MOL0     H19575  12.907   5.729   3.334 -0.7918  1.8722 -0.3985
  886MOL0     H19576  13.046   5.816   3.200 -0.9700 -0.7098  3.4853
  886MOL0     H19577  13.122   5.659   3.218  3.2274  2.7083 -1.2304
  886MOL0     H19578  12.996   5.585   2.993  2.9000 -0.2039 -1.5156
  886MOL0     H19579  12.977   5.767   2.976 -0.0809  2.3571  2.3234
  886MOL0     H19580  13.233   5.609   2.993 -0.2588 -0.7321 -0.7176
  886MOL0     H19581  13.233   5.779   2.997 -0.0968  0.6996 -0.9600
  886MOL0     H19582  13.122   5.806   2.784 -0.6114 -0.4403  0.6274
  886MOL0     H19583  13.083   5.629   2.778  0.7161 -0.4735 -2.3373
  886MOL0     H19584  13.358   5.766   2.783  1.2198 -1.5861  0.2838
  886MOL0     H19585  13.329   5.591   2.753 -1.8985 -1.5584 -0.2814
  886MOL0     H19586  13.193   5.781   2.576 -0.7409 -0.4541 -1.0076
  886MOL0     H19587  13.217   5.600   2.569  2.6577 -1.9836 -0.3273
  886MOL0     H19588  13.471   5.653   2.526 -0.7409 -0.8101 -2.3130
  886MOL0     H19589  13.371   5.693   2.402 -0.2729 -0.3604  0.9536
  886MOL0     H19590  12.727   5.422   3.117 -0.7518  0.5636  0.4707
  886MOL0     H19591  12.507   5.334   3.176  0.4501  2.3392 -2.3055
  886MOL0     H19592  12.031   5.322   3.257  1.1034 -1.1412  0.3662
  886MOL0     H19593  11.842   5.317   3.363  0.6691 -0.2892 -0.8471
  886MOL0     H19594  10.909   5.436   4.220  0.2223 -0.0460  1.7010
  886MOL0     H19595  10.798   5.577   4.029  1.2516  0.7182 -1.0387
  886MOL0     H19596  10.730   6.044   3.937  0.4913 -0.5942 -0.3377
  886MOL0     H19597  10.533   6.147   3.823 -0.3677  0.9820  0.9223
  886MOL0     H19598  10.342   5.936   3.500  0.8622 -0.4406  1.3804
  886MOL0     H19599  10.449   6.033   3.395  0.1567  0.5923  0.3559
  886MOL0     H19600  10.321   6.227   3.374  1.4437  0.7361  2.2112
  886MOL0     H19601  10.214   6.184   3.499 -0.9346 -1.9946  0.4151
  886MOL0     H19602  10.145   5.971   3.356 -3.5758  0.6165  0.2972
  886MOL0     H19603  10.220   6.073   3.222 -2.4825  0.4559 -1.9077
  886MOL0     H19604   9.968   6.083   3.256 -0.8162  0.5066  0.0911
  886MOL0     H19605  10.005   6.142   3.417  1.4891 -1.1757  0.4880
  886MOL0     H19606  10.065   6.476   3.128  0.8484 -0.8685 -0.6797
  886MOL0     H19607  10.598   5.882   3.488  0.3737 -0.8595  0.0720
  886MOL0     H19608  10.844   5.674   3.658 -0.5856  0.2926  0.1121
  886MOL0     H19609  10.735   5.693   3.521  1.8669 -2.6741 -0.5348
  886MOL0     H19610  10.881   5.794   3.536  1.4360 -1.2570  1.4311
  887MOL0     O19611  10.536   9.938   1.346 -0.0705 -0.0444  0.1752
  887MOL0     C19612  10.590   9.993   1.444  1.1276 -0.4019 -0.3216
  887MOL0     O19613  10.722  10.005   1.465  0.1108 -1.1082 -0.2666
  887MOL0     C19614  10.796   9.952   1.369  0.2966 -0.6700 -0.1363
  887MOL0     C19615  10.836  10.023   1.256  0.1588 -0.5840  0.6901
  887MOL0     C19616  10.918   9.966   1.163 -0.3497 -0.4504 -0.2382
  887MOL0     C19617  10.964   9.838   1.180 -0.4242  1.0301 -0.3431
  887MOL0     O19618  11.040   9.806   1.074 -0.0029  0.5009  0.4796
  887MOL0     C19619  11.149   9.715   1.094  0.2579 -0.4260 -0.1017
  887MOL0     C19620  11.227   9.709   0.967 -1.3587 -0.2580  1.3290
  887MOL0     C19621  11.353   9.615   0.982 -0.9100 -0.7055 -0.3860
  887MOL0     C19622  11.438   9.630   0.854  1.3459 -0.0827  0.8266
  887MOL0     C19623  11.576   9.561   0.850  0.4132 -0.3277 -0.2631
  887MOL0     C19624  11.681   9.656   0.786 -0.0672  0.3097 -0.3775
  887MOL0     C19625  11.803   9.591   0.731  0.0688  0.4854  0.2924
  887MOL0     C19626  11.883   9.522   0.848 -0.2176  0.2452  0.5722
  887MOL0     N19627  11.994   9.451   0.796 -0.4430  0.6320 -0.2034
  887MOL0     C19628  12.112   9.497   0.741 -0.1261 -0.2662  0.3170
  887MOL0     C19629  12.185   9.389   0.709  0.5057 -0.5233 -0.1715
  887MOL0     C19630  12.314   9.402   0.631  0.5867 -0.6133 -0.3625
  887MOL0     C19631  12.340   9.289   0.539 -0.2992  0.4156 -0.5684
  887MOL0     C19632  12.446   9.310   0.431 -0.3193  0.3339  0.0111
  887MOL0     C19633  12.589   9.363   0.479  0.2994  0.2327  0.1200
  887MOL0     O19634  12.678   9.342   0.364  0.2834 -0.2196  0.2008
  887MOL0     C19635  12.805   9.376   0.373 -0.0222  0.4358 -0.1075
  887MOL0     C19636  12.899   9.332   0.271  0.9024  0.4455 -1.2330
  887MOL0     C19637  13.016   9.388   0.271 -1.0628 -0.5676 -0.4101
  887MOL0     C19638  13.061   9.490   0.354 -0.4516 -0.0616 -0.1663
  887MOL0     C19639  13.193   9.559   0.333  1.1119  0.1756 -0.2467
  887MOL0     O19640  13.279   9.512   0.242  0.0504 -0.2638 -0.5596
  887MOL0     C19641  13.405   9.542   0.262  0.4626 -0.6347  0.0773
  887MOL0     C19642  13.494   9.458   0.323 -0.4921 -0.2062  0.3749
  887MOL0     C19643  13.626   9.496   0.343 -0.3436  0.2208 -0.4215
  887MOL0     C19644  13.686   9.615   0.293  0.5858 -0.8994 -0.2846
  887MOL0     O19645  13.822   9.648   0.320 -0.3101  0.1772 -0.0561
  887MOL0     C19646  13.888   9.610   0.444  1.0527  0.5916  0.3229
  887MOL0     C19647  14.031   9.652   0.462 -1.0714 -0.5934 -1.2109
  887MOL0     C19648  14.108   9.579   0.580  0.4543 -0.0948  0.5939
  887MOL0     C19649  14.260   9.563   0.546 -0.0386 -0.1743 -0.2696
  887MOL0     C19650  14.333   9.455   0.629  0.0921  0.6012  0.0248
  887MOL0     C19651  14.490   9.470   0.611 -0.1077  0.2195  0.5420
  887MOL0     C19652  14.564   9.400   0.730  0.2455 -0.0003  0.6444
  887MOL0     C19653  14.716   9.419   0.718 -0.3148 -0.2639 -0.1657
  887MOL0    Cl19654  14.805   9.296   0.828  0.3217  0.1604  0.0458
  887MOL0     C19655  13.601   9.685   0.208 -0.1135 -0.3607 -1.1573
  887MOL0     C19656  13.466   9.653   0.190  0.0323 -0.7893  0.2260
  887MOL0     O19657  13.210   9.661   0.402 -0.9722  0.2738 -0.2157
  887MOL0     C19658  12.970   9.533   0.453 -0.4559  1.3883 -0.3373
  887MOL0     C19659  12.843   9.469   0.471 -1.0927 -0.7698 -0.1423
  887MOL0     N19660  12.123   9.276   0.756 -0.6563  0.5287  0.0614
  887MOL0     N19661  12.014   9.315   0.815 -0.1152  0.4362  0.5524
  887MOL0     C19662  10.932   9.767   1.298  0.9192  0.4181 -0.0689
  887MOL0     C19663  10.845   9.824   1.390  0.2315 -0.3025 -0.3729
  887MOL0     C19664  10.491  10.050   1.544 -0.1247  0.6468  0.4945
  887MOL0     C19665  10.356   9.999   1.549 -0.5077  0.7397 -0.3955
  887MOL0     C19666  10.252  10.064   1.625  0.3520  0.6087 -0.4077
  887MOL0     C19667  10.286  10.177   1.708  0.3437  0.0310  0.3871
  887MOL0     O19668  10.198  10.241   1.794  0.5988  0.1791 -0.4499
  887MOL0     C19669  10.059  10.213   1.787 -0.0364 -0.2972  0.4019
  887MOL0     C19670   9.993  10.268   1.913  0.7604 -0.5015 -0.5074
  887MOL0     C19671  10.068  10.223   2.041  0.6149  0.4670  1.1140
  887MOL0     C19672   9.975  10.233   2.158 -0.2359  0.2397 -0.3509
  887MOL0     C19673  10.067  10.213   2.274 -0.6544 -0.5644  0.7579
  887MOL0     C19674  10.152  10.191   2.359 -0.6606  0.8412  0.3405
  887MOL0     C19675  10.422  10.211   1.709 -0.3933  0.0793 -0.0292
  887MOL0     C19676  10.520  10.153   1.630 -0.4932  0.2784 -0.2927
  887MOL0     C19677  10.660  10.213   1.645  0.5674  0.2278  0.5047
  887MOL0     H19678  10.780  10.114   1.238 -2.1936 -1.7433  1.6829
  887MOL0     H19679  10.927  10.020   1.070  0.8131 -0.9654 -0.4490
  887MOL0     H19680  11.216   9.753   1.172  0.6161 -2.5424  0.6781
  887MOL0     H19681  11.118   9.617   1.129  0.0912 -0.3310  0.0216
  887MOL0     H19682  11.248   9.806   0.922 -2.3223 -1.2716 -1.5704
  887MOL0     H19683  11.173   9.663   0.883 -1.9502  2.7605 -0.0903
  887MOL0     H19684  11.330   9.510   1.001 -1.7210 -0.3451  0.7920
  887MOL0     H19685  11.408   9.649   1.070 -1.0678  0.9041 -0.8779
  887MOL0     H19686  11.383   9.606   0.762  2.1053 -0.4598  0.4626
  887MOL0     H19687  11.454   9.738   0.862 -1.5124  0.4303  0.5391
  887MOL0     H19688  11.594   9.533   0.954  1.5695  1.2152 -0.0080
  887MOL0     H19689  11.570   9.472   0.788 -0.7316  0.7575 -1.7982
  887MOL0     H19690  11.646   9.702   0.694 -0.5655 -0.4165 -0.5583
  887MOL0     H19691  11.722   9.733   0.853  2.1929  0.0198 -1.3175
  887MOL0     H19692  11.867   9.667   0.685  1.6463 -0.6997  0.4504
  887MOL0     H19693  11.777   9.526   0.648 -0.3965  3.0664 -1.7095
  887MOL0     H19694  11.922   9.583   0.930  0.8689 -1.3523  1.2933
  887MOL0     H19695  11.815   9.450   0.895  1.2003 -2.1904 -0.8495
  887MOL0     H19696  12.134   9.598   0.707 -2.9949 -0.4425 -2.5630
  887MOL0     H19697  12.301   9.496   0.577 -0.4210  0.0619  1.0002
  887MOL0     H19698  12.399   9.414   0.699  0.3082 -1.4488  0.1462
  887MOL0     H19699  12.377   9.217   0.613  1.7079  1.3854 -0.5453
  887MOL0     H19700  12.251   9.254   0.486 -2.0430 -0.1161  2.4703
  887MOL0     H19701  12.405   9.380   0.358 -0.2540  0.5898  0.2197
  887MOL0     H19702  12.463   9.219   0.373  0.6527 -0.2354  1.1163
  887MOL0     H19703  12.619   9.301   0.564 -1.1871 -2.4178 -1.1536
  887MOL0     H19704  12.580   9.466   0.513 -1.9153  0.5304 -1.2174
  887MOL0     H19705  12.871   9.251   0.205  3.9259 -1.0143 -0.8761
  887MOL0     H19706  13.085   9.346   0.199 -0.0804 -3.0528  1.8401
  887MOL0     H19707  13.450   9.367   0.364  1.0399 -0.3421  1.8486
  887MOL0     H19708  13.685   9.422   0.394 -3.3366 -1.1860  1.2526
  887MOL0     H19709  13.826   9.645   0.528 -3.5728  1.6063 -3.0797
  887MOL0     H19710  13.883   9.500   0.447 -3.1956  0.4253 -2.7376
  887MOL0     H19711  14.086   9.628   0.370  0.2446  1.1446 -0.9275
  887MOL0     H19712  14.053   9.759   0.463  1.7553 -1.0733 -1.4129
  887MOL0     H19713  14.095   9.640   0.670 -1.5758  2.8667 -1.5105
  887MOL0     H19714  14.071   9.477   0.594  2.3020 -1.1545 -1.5213
  887MOL0     H19715  14.291   9.667   0.562 -2.4718  0.5289  0.2281
  887MOL0     H19716  14.273   9.541   0.439 -2.3735 -1.1617 -0.4117
  887MOL0     H19717  14.323   9.354   0.590  4.4056 -0.5192  1.2467
  887MOL0     H19718  14.292   9.453   0.731 -2.4956 -1.5434 -0.9465
  887MOL0     H19719  14.528   9.437   0.514 -2.5399  0.4094 -0.5329
  887MOL0     H19720  14.501   9.579   0.619 -1.6807  0.3310  1.7972
  887MOL0     H19721  14.545   9.292   0.734  2.0900 -0.3380  2.2951
  887MOL0     H19722  14.533   9.442   0.826  0.8910  1.8069  0.0987
  887MOL0     H19723  14.749   9.394   0.617  1.9187 -2.2378  0.9453
  887MOL0     H19724  14.746   9.519   0.749  0.0277 -0.3702 -0.1492
  887MOL0     H19725  13.631   9.778   0.160 -2.1047  0.4726 -0.9024
  887MOL0     H19726  13.408   9.718   0.126 -0.5684 -0.3352  1.2189
  887MOL0     H19727  12.988   9.607   0.530 -2.6218  0.2176  1.4077
  887MOL0     H19728  12.783   9.505   0.554 -2.2108  2.3682 -2.1250
  887MOL0     H19729  10.955   9.662   1.308  0.3956  0.3556  0.4908
  887MOL0     H19730  10.817   9.757   1.471  2.2884 -0.9994 -0.1903
  887MOL0     H19731  10.341   9.906   1.496 -0.8556  0.4726  0.1697
  887MOL0     H19732  10.156  10.018   1.645 -0.2716  1.6968 -0.7714
  887MOL0     H19733  10.044  10.105   1.777  1.5749 -0.9242  3.6332
  887MOL0     H19734  10.010  10.271   1.707  3.3683 -0.1382 -1.7674
  887MOL0     H19735   9.891  10.232   1.921  0.2404  1.3563  3.4912
  887MOL0     H19736   9.994  10.378   1.920 -1.9551 -0.4645  0.1395
  887MOL0     H19737  10.143  10.303   2.041  1.9495 -0.6784  3.2490
  887MOL0     H19738  10.116  10.125   2.031  2.3876  1.4440 -0.8059
  887MOL0     H19739   9.924  10.329   2.146 -2.8200 -1.0205 -0.0700
  887MOL0     H19740   9.894  10.161   2.144 -0.4367  0.4544 -0.3107
  887MOL0     H19741  10.225  10.176   2.436 -0.2506  1.0966  0.0121
  887MOL0     H19742  10.445  10.289   1.781  2.0648 -0.7856  0.1932
  887MOL0     H19743  10.727  10.149   1.703  1.7793  1.2805  0.3043
  887MOL0     H19744  10.704  10.227   1.546  1.1060 -1.9595  0.3774
  887MOL0     H19745  10.655  10.307   1.700  0.4734  0.5006  0.0304
  888MOL0     O19746   7.244   9.891   6.374  0.0939 -0.2276  0.6898
  888MOL0     C19747   7.172   9.859   6.279  1.6355 -0.1262  0.1135
  888MOL0     O19748   7.202   9.761   6.178  0.5142  0.5415 -0.0643
  888MOL0     C19749   7.340   9.748   6.178  0.8882  1.1097  0.3963
  888MOL0     C19750   7.386   9.622   6.224  0.2434 -0.3071  0.6981
  888MOL0     C19751   7.527   9.611   6.241  1.0102  0.1071  0.9971
  888MOL0     C19752   7.616   9.703   6.199 -0.7700  0.4694 -0.2459
  888MOL0     O19753   7.752   9.699   6.213 -0.2451 -0.0646  0.9812
  888MOL0     C19754   7.824   9.584   6.267  0.8307  0.1533 -0.1101
  888MOL0     C19755   7.832   9.462   6.166 -0.2973 -1.0931  0.6311
  888MOL0     C19756   7.941   9.485   6.053  0.1019  0.2708  0.9432
  888MOL0     C19757   8.072   9.400   6.088 -0.2375 -0.2569  1.1054
  888MOL0     C19758   8.178   9.400   5.974  1.0803 -0.5053 -0.4928
  888MOL0     C19759   8.241   9.531   5.943 -0.7206  0.5843  0.0026
  888MOL0     C19760   8.326   9.573   6.064  0.4217 -0.5499 -0.0047
  888MOL0     C19761   8.417   9.685   6.041 -0.0552  0.6883 -0.8571
  888MOL0     N19762   8.493   9.730   6.158  0.3682 -0.7187  0.0735
  888MOL0     C19763   8.437   9.786   6.275 -0.3435  1.1935 -0.7937
  888MOL0     C19764   8.550   9.811   6.350  0.2391  0.3209 -0.3803
  888MOL0     C19765   8.563   9.856   6.495  0.0098 -0.5737 -1.0061
  888MOL0     C19766   8.437   9.924   6.550  0.1196  0.2500 -0.1920
  888MOL0     C19767   8.447   9.988   6.687  0.1550 -0.1044 -0.2795
  888MOL0     C19768   8.464   9.873   6.794  0.1232 -0.0499 -0.0317
  888MOL0     O19769   8.453   9.931   6.932 -0.0989 -0.6228  0.0781
  888MOL0     C19770   8.567   9.957   6.990 -0.8636  0.1230  0.5550
  888MOL0     C19771   8.693   9.966   6.918  0.3837 -1.0768 -0.3560
  888MOL0     C19772   8.804  10.006   6.987 -0.0730 -0.0314 -0.0314
  888MOL0     C19773   8.801  10.033   7.124 -0.1946  0.4390 -0.0639
  888MOL0     C19774   8.922  10.083   7.198 -0.1730  0.3959 -0.3661
  888MOL0     O19775   9.045  10.062   7.134  1.0199 -0.0012  0.4318
  888MOL0     C19776   9.159  10.086   7.202 -0.7069 -0.1250  0.4127
  888MOL0     C19777   9.186  10.046   7.333  0.2358  0.4827 -0.7482
  888MOL0     C19778   9.310  10.043   7.395 -0.1062  0.1808 -0.4284
  888MOL0     C19779   9.415  10.096   7.319  0.1715 -0.7425 -0.9166
  888MOL0     O19780   9.527  10.145   7.388 -0.1063  0.2434 -0.7399
  888MOL0     C19781   9.658  10.094   7.347 -0.4014 -0.1530 -0.1044
  888MOL0     C19782   9.665   9.939   7.318 -0.6170 -0.6556  0.6033
  888MOL0     C19783   9.669   9.845   7.427  0.1998 -0.5322 -0.3822
  888MOL0     C19784   9.754   9.724   7.409 -0.8030  0.3919  0.2932
  888MOL0     C19785   9.896   9.721   7.465 -1.0661  0.3046 -0.0587
  888MOL0     C19786   9.984   9.605   7.434 -0.1819  0.2039 -0.6211
  888MOL0     C19787  10.080   9.572   7.537  0.2372  0.4394 -0.9355
  888MOL0     C19788  10.000   9.533   7.658 -0.3037  0.3949 -0.5171
  888MOL0    Cl19789   9.996   9.353   7.628 -0.6158  0.0847  0.4483
  888MOL0     C19790   9.395  10.132   7.187  0.8665  0.0355 -0.1351
  888MOL0     C19791   9.269  10.120   7.119 -0.5229 -0.1429  0.2173
  888MOL0     O19792   8.902  10.146   7.303  0.0392  0.4595 -0.2852
  888MOL0     C19793   8.680  10.005   7.194 -1.4948 -0.5367 -0.1768
  888MOL0     C19794   8.563   9.974   7.131 -0.9832  0.0790  0.0163
  888MOL0     N19795   8.666   9.765   6.285  0.1721 -0.4799 -0.1962
  888MOL0     N19796   8.623   9.727   6.171  0.0228  0.5721  0.2276
  888MOL0     C19797   7.566   9.813   6.133  0.0942  0.2067  0.9959
  888MOL0     C19798   7.430   9.842   6.127 -0.9423 -0.4944 -0.8392
  888MOL0     C19799   7.029   9.898   6.282 -0.1015 -0.0275  0.4858
  888MOL0     C19800   6.931   9.814   6.231  0.3470 -0.0089 -0.8817
  888MOL0     C19801   6.802   9.861   6.234  0.1608 -0.5449  0.6335
  888MOL0     C19802   6.763   9.992   6.271  0.1615  0.1239  0.5252
  888MOL0     O19803   6.640  10.036   6.276  1.0204  0.5836 -0.1529
  888MOL0     C19804   6.564  10.010   6.153  0.7323 -0.6114 -0.4262
  888MOL0     C19805   6.447  10.105   6.158 -0.0767 -0.7860  0.0294
  888MOL0     C19806   6.490  10.249   6.125 -0.3933 -0.1234 -0.5783
  888MOL0     C19807   6.364  10.325   6.078  0.6435 -0.0763 -0.6964
  888MOL0     C19808   6.345  10.299   5.938  0.3872 -0.1152  0.1812
  888MOL0     C19809   6.336  10.270   5.822  0.7174  0.7933  0.1792
  888MOL0     C19810   6.861  10.073   6.327 -0.2447 -0.0640 -1.1654
  888MOL0     C19811   6.992  10.033   6.327  0.3499 -0.0070 -0.2225
  888MOL0     C19812   7.083  10.134   6.390 -0.0949 -0.2401  0.9991
  888MOL0     H19813   7.326   9.533   6.244  1.3388 -1.5424 -1.1940
  888MOL0     H19814   7.569   9.523   6.289  0.9713  0.2261  1.2549
  888MOL0     H19815   7.925   9.615   6.295  0.4058  1.1672  0.3523
  888MOL0     H19816   7.773   9.568   6.363  3.0266 -0.6019  1.0034
  888MOL0     H19817   7.739   9.441   6.112  0.7866  1.8156 -2.7341
  888MOL0     H19818   7.869   9.375   6.221  3.4738 -0.0243  0.0714
  888MOL0     H19819   7.955   9.592   6.033 -0.6635  0.3053  0.5342
  888MOL0     H19820   7.902   9.449   5.958 -1.3357 -0.6939  1.8561
  888MOL0     H19821   8.116   9.424   6.185 -1.1220  1.4437  1.1417
  888MOL0     H19822   8.039   9.296   6.083 -1.3027  0.1059 -1.9135
  888MOL0     H19823   8.246   9.321   6.005  2.4983  1.2672  1.1526
  888MOL0     H19824   8.129   9.366   5.882  2.2103 -0.0232 -1.2934
  888MOL0     H19825   8.303   9.505   5.857  0.6128 -0.1151  1.1219
  888MOL0     H19826   8.162   9.596   5.904 -2.7952 -1.5345  0.5395
  888MOL0     H19827   8.400   9.497   6.088  2.2319 -1.6705 -6.9377
  888MOL0     H19828   8.255   9.600   6.144 -1.8709 -0.0872 -2.0537
  888MOL0     H19829   8.483   9.650   5.962 -0.0742 -0.2281 -0.4877
  888MOL0     H19830   8.362   9.772   6.004  1.8112  2.9630  1.3613
  888MOL0     H19831   8.335   9.811   6.301 -0.4868  2.1037 -2.1113
  888MOL0     H19832   8.608   9.773   6.550  2.6113  0.0461 -2.0720
  888MOL0     H19833   8.644   9.929   6.505  0.8582 -1.4603 -1.3338
  888MOL0     H19834   8.417  10.014   6.491  0.9067 -0.3524 -1.4034
  888MOL0     H19835   8.350   9.857   6.557 -0.5428  1.0311 -0.6582
  888MOL0     H19836   8.356  10.047   6.700 -0.0140 -0.4444  0.0701
  888MOL0     H19837   8.537  10.050   6.693 -0.3506  0.6437 -0.1640
  888MOL0     H19838   8.557   9.816   6.785 -0.6414 -1.2940 -0.3531
  888MOL0     H19839   8.387   9.799   6.771 -0.0361  0.8542 -2.6741
  888MOL0     H19840   8.704   9.952   6.811  0.2602 -0.7254 -0.4161
  888MOL0     H19841   8.899   9.988   6.939  1.9713  0.7953  3.4057
  888MOL0     H19842   9.108   9.997   7.389 -0.4105 -0.9554 -2.8054
  888MOL0     H19843   9.325  10.011   7.498  0.0865  0.6728 -0.3050
  888MOL0     H19844   9.695  10.143   7.257  2.9463 -1.8412  0.1965
  888MOL0     H19845   9.740  10.119   7.415  1.3629 -1.8710 -1.4753
  888MOL0     H19846   9.583   9.917   7.249  0.5454 -0.4969 -0.8813
  888MOL0     H19847   9.758   9.907   7.271 -0.8089 -2.5059  1.3871
  888MOL0     H19848   9.707   9.901   7.513 -2.4047  1.3263 -0.3360
  888MOL0     H19849   9.566   9.810   7.437 -0.7386  1.9778 -0.4243
  888MOL0     H19850   9.761   9.705   7.301  2.2764  3.4709 -0.2540
  888MOL0     H19851   9.693   9.645   7.452 -1.6953  0.6074 -0.5461
  888MOL0     H19852   9.897   9.746   7.571 -3.0389 -3.2077  0.9656
  888MOL0     H19853   9.944   9.798   7.404 -1.7453  1.4511  0.8297
  888MOL0     H19854   9.920   9.519   7.411 -1.0398  1.2665 -2.4382
  888MOL0     H19855  10.037   9.628   7.342 -1.4684 -0.5571 -1.5973
  888MOL0     H19856  10.151   9.653   7.553  2.1173 -0.5696 -3.3888
  888MOL0     H19857  10.145   9.486   7.516  0.9075  0.7682 -0.2459
  888MOL0     H19858  10.055   9.551   7.751  1.5751 -0.3268 -1.4352
  888MOL0     H19859   9.899   9.575   7.668 -0.5860 -0.5479  0.9370
  888MOL0     H19860   9.473  10.180   7.129 -1.1644  0.6859 -2.4603
  888MOL0     H19861   9.249  10.129   7.013 -0.8341 -6.6080 -0.7162
  888MOL0     H19862   8.678  10.036   7.298 -1.0877  0.9579 -0.5852
  888MOL0     H19863   8.468   9.966   7.182 -1.6522  0.2041 -1.1781
  888MOL0     H19864   7.643   9.882   6.100  0.8363 -0.7114  0.7675
  888MOL0     H19865   7.401   9.938   6.085  2.8865  0.4343 -1.7503
  888MOL0     H19866   6.958   9.720   6.183  0.1530  0.3557 -1.7404
  888MOL0     H19867   6.720   9.796   6.205 -0.6138 -0.4012  2.3899
  888MOL0     H19868   6.534   9.905   6.146  1.8457 -0.8953 -1.2715
  888MOL0     H19869   6.618  10.029   6.059  2.2168 -2.7613 -0.0834
  888MOL0     H19870   6.407  10.095   6.259 -1.0108 -3.4346 -0.5035
  888MOL0     H19871   6.385  10.066   6.076  1.2234 -0.1610 -1.2934
  888MOL0     H19872   6.571  10.252   6.052  1.2880  4.1424  1.1541
  888MOL0     H19873   6.525  10.300   6.216 -0.8906 -0.2631 -0.3056
  888MOL0     H19874   6.283  10.280   6.136 -2.2865  2.0085 -2.8923
  888MOL0     H19875   6.371  10.429   6.110  1.6444 -0.0451 -0.9943
  888MOL0     H19876   6.327  10.252   5.717 -0.5768 -1.7872  0.6546
  888MOL0     H19877   6.836  10.174   6.358  1.9026  0.8654 -2.3005
  888MOL0     H19878   7.052  10.239   6.384  1.2450  0.0916 -3.7944
  888MOL0     H19879   7.097  10.108   6.496  0.2562 -0.5078  0.8870
  888MOL0     H19880   7.183  10.135   6.346 -0.8253  4.4529 -1.2245
  889MOL0     O19881  10.155   2.101   5.314 -0.1098 -0.1130 -1.0651
  889MOL0     C19882  10.034   2.103   5.295 -0.9991 -0.0148 -0.5180
  889MOL0     O19883   9.941   2.110   5.396  0.1729 -0.2120  0.3875
  889MOL0     C19884   9.956   2.112   5.534 -0.3006 -0.2508 -0.0130
  889MOL0     C19885  10.083   2.126   5.598  0.1336  0.8872 -0.2159
  889MOL0     C19886  10.097   2.105   5.736  0.2451  0.1929  1.0223
  889MOL0     C19887   9.984   2.101   5.817  0.4152  0.3599 -0.7776
  889MOL0     O19888  10.015   2.081   5.950 -0.0925 -0.3681 -0.4584
  889MOL0     C19889   9.909   2.122   6.043 -0.0764  0.8052 -0.5759
  889MOL0     C19890   9.961   2.111   6.188  0.2238  0.2530  0.2888
  889MOL0     C19891   9.995   1.969   6.226  0.1089  0.4259  0.4724
  889MOL0     C19892   9.998   1.951   6.381 -0.5091 -0.0525  0.4018
  889MOL0     C19893  10.114   2.026   6.451  0.0186  0.0949  0.0772
  889MOL0     C19894  10.143   1.983   6.599 -0.1267  0.8559  0.1753
  889MOL0     C19895  10.251   2.082   6.653 -0.1279 -0.0607 -0.8298
  889MOL0     C19896  10.389   2.079   6.584 -0.4458  0.5139  0.7327
  889MOL0     N19897  10.492   2.153   6.656 -0.6670 -0.0129  0.3496
  889MOL0     C19898  10.527   2.127   6.793 -1.0685  0.0893 -0.0460
  889MOL0     C19899  10.603   2.234   6.828 -0.5560  0.5532 -0.4535
  889MOL0     C19900  10.681   2.252   6.949  0.4429  0.7207  0.4673
  889MOL0     C19901  10.828   2.282   6.923  0.2781 -0.5526 -0.1838
  889MOL0     C19902  10.911   2.152   6.889  0.0237 -0.0845  0.5045
  889MOL0     C19903  11.056   2.167   6.844  0.0312 -0.6110 -0.1582
  889MOL0     O19904  11.103   2.065   6.760  1.1932  0.0681  0.2275
  889MOL0     C19905  11.237   2.050   6.740 -0.2733 -0.3428 -0.1230
  889MOL0     C19906  11.317   2.167   6.710 -0.7271  0.7747 -0.1480
  889MOL0     C19907  11.447   2.156   6.660 -0.3862 -0.8274 -0.1103
  889MOL0     C19908  11.505   2.031   6.646 -0.1881  0.2733 -0.3793
  889MOL0     C19909  11.636   2.012   6.583 -0.6915 -0.7490  0.2291
  889MOL0     O19910  11.715   1.904   6.619  0.5740 -0.1940  0.3346
  889MOL0     C19911  11.834   1.882   6.555 -1.3514 -0.3551  0.5393
  889MOL0     C19912  11.843   1.784   6.455  0.0254  0.2240  0.2926
  889MOL0     C19913  11.970   1.762   6.404  0.0067  0.2252  0.3936
  889MOL0     C19914  12.088   1.821   6.434 -0.0811 -0.1694 -0.9615
  889MOL0     O19915  12.210   1.764   6.380  0.0615 -0.2791 -0.1902
  889MOL0     C19916  12.319   1.846   6.418  0.4861  0.3232 -0.1563
  889MOL0     C19917  12.448   1.782   6.346  0.1123  0.3977  0.6811
  889MOL0     C19918  12.489   1.645   6.392  0.2068 -0.5191 -0.8279
  889MOL0     C19919  12.554   1.655   6.527 -0.0871 -0.5646 -0.1200
  889MOL0     C19920  12.586   1.509   6.577 -0.3267 -0.7659  0.1909
  889MOL0     C19921  12.655   1.510   6.712 -0.5910  0.0375 -0.2263
  889MOL0     C19922  12.696   1.379   6.779 -0.9430 -0.6471  0.2464
  889MOL0     C19923  12.787   1.406   6.897 -0.1897 -0.0970  0.6154
  889MOL0    Cl19924  12.844   1.268   6.990 -0.0138  0.5136 -0.1517
  889MOL0     C19925  12.078   1.930   6.530 -0.6699 -0.3339  0.0905
  889MOL0     C19926  11.953   1.954   6.587  0.6543 -0.6360 -0.4482
  889MOL0     O19927  11.665   2.100   6.499 -0.1710  0.3360  0.0851
  889MOL0     C19928  11.429   1.915   6.680  0.7697 -0.2588  0.6101
  889MOL0     C19929  11.301   1.930   6.722 -1.0817  0.3087  0.4128
  889MOL0     N19930  10.602   2.322   6.727 -0.2781 -0.2646 -0.0510
  889MOL0     N19931  10.528   2.283   6.632 -0.9766 -0.0698  0.3818
  889MOL0     C19932   9.860   2.090   5.764  0.7968 -0.9998  0.8938
  889MOL0     C19933   9.845   2.095   5.621  0.2969  0.3140  0.0080
  889MOL0     C19934   9.983   2.115   5.154  0.3606  0.1688  0.1873
  889MOL0     C19935   9.842   2.115   5.138 -0.1754 -0.2899  0.5073
  889MOL0     C19936   9.779   2.127   5.014  1.3281 -0.7382  1.1323
  889MOL0     C19937   9.860   2.156   4.902 -0.1744  0.2097 -0.0431
  889MOL0     O19938   9.824   2.149   4.770  0.1412 -0.1920 -0.3289
  889MOL0     C19939   9.694   2.092   4.740  1.1067  0.7385 -0.7745
  889MOL0     C19940   9.655   2.100   4.600  0.2064 -0.3294 -0.3907
  889MOL0     C19941   9.768   2.060   4.508 -1.2002 -0.1308 -0.6996
  889MOL0     C19942   9.721   2.037   4.363  0.2447 -0.5614  0.8009
  889MOL0     C19943   9.653   2.152   4.297 -0.3903 -0.0125 -0.1270
  889MOL0     C19944   9.608   2.243   4.230 -1.5204  0.4388 -0.0011
  889MOL0     C19945   9.998   2.170   4.923 -0.0966  0.6765 -0.6066
  889MOL0     C19946  10.061   2.145   5.045  0.0690  0.4792  0.0334
  889MOL0     C19947  10.213   2.155   5.050  0.0237 -0.4090  1.0568
  889MOL0     H19948  10.175   2.130   5.540 -0.0947  0.5843 -0.6063
  889MOL0     H19949  10.194   2.116   5.783 -0.4280 -0.7308  2.6988
  889MOL0     H19950   9.882   2.227   6.035  1.1100  1.4462  2.3564
  889MOL0     H19951   9.819   2.062   6.025 -0.3281  0.9686  0.1164
  889MOL0     H19952   9.869   2.132   6.244 -0.7405 -1.7323 -0.4579
  889MOL0     H19953  10.040   2.180   6.219 -0.0570 -0.9134  4.0443
  889MOL0     H19954  10.093   1.943   6.185 -0.6743 -0.9719 -0.6106
  889MOL0     H19955   9.934   1.901   6.166 -1.3304  2.8102 -0.8848
  889MOL0     H19956   9.898   1.982   6.414 -0.0958 -0.5640  2.2432
  889MOL0     H19957   9.999   1.842   6.390  1.2129 -0.1573 -0.6063
  889MOL0     H19958  10.208   2.009   6.397 -0.2376  0.6202 -0.5440
  889MOL0     H19959  10.100   2.134   6.441 -0.4296 -0.1185 -1.8443
  889MOL0     H19960  10.050   1.989   6.657  0.5333  0.0423  1.3527
  889MOL0     H19961  10.185   1.882   6.597  0.9411  1.2790  0.5351
  889MOL0     H19962  10.269   2.059   6.759 -3.0481  1.4199  0.0972
  889MOL0     H19963  10.214   2.185   6.645  0.8020  0.4686  1.0496
  889MOL0     H19964  10.417   1.975   6.565  2.1972  0.9761  1.6340
  889MOL0     H19965  10.367   2.124   6.487 -2.7174 -0.2796  0.8150
  889MOL0     H19966  10.495   2.053   6.866 -1.9029 -0.9870 -1.4493
  889MOL0     H19967  10.639   2.333   7.011 -0.5381  0.6724 -0.1079
  889MOL0     H19968  10.670   2.162   7.009  1.1398 -0.5463 -1.2456
  889MOL0     H19969  10.850   2.357   6.847  3.9889  0.0033  1.2277
  889MOL0     H19970  10.864   2.329   7.015  2.2057  1.0580 -1.6714
  889MOL0     H19971  10.860   2.084   6.819  0.3882 -0.2890  0.4346
  889MOL0     H19972  10.926   2.088   6.976 -0.3204 -5.8417 -3.1134
  889MOL0     H19973  11.129   2.167   6.926  1.1179  0.3271 -1.0845
  889MOL0     H19974  11.071   2.260   6.788  0.6495 -0.2612  0.5710
  889MOL0     H19975  11.284   2.270   6.704  1.2336  1.3762 -2.2780
  889MOL0     H19976  11.502   2.243   6.625 -3.0955  1.4147  0.8378
  889MOL0     H19977  11.760   1.726   6.416  2.3500 -3.0527 -0.2071
  889MOL0     H19978  11.977   1.682   6.331  0.7500 -0.0774  0.7733
  889MOL0     H19979  12.303   1.947   6.380 -2.2941  1.2486  3.0356
  889MOL0     H19980  12.329   1.840   6.526  0.3134  0.4575 -0.1332
  889MOL0     H19981  12.417   1.776   6.241 -0.2626 -0.0689  0.8151
  889MOL0     H19982  12.534   1.850   6.351 -0.1455  0.6478  2.6748
  889MOL0     H19983  12.403   1.579   6.404 -2.1251  2.3949 -0.3513
  889MOL0     H19984  12.558   1.603   6.318  1.5694 -1.0865  0.6870
  889MOL0     H19985  12.498   1.707   6.605  0.8850  1.5426 -0.7423
  889MOL0     H19986  12.650   1.708   6.525 -0.8959  1.0242  0.8861
  889MOL0     H19987  12.663   1.471   6.509  1.6896  2.4456  0.4865
  889MOL0     H19988  12.497   1.447   6.592 -2.3617  2.2866  1.8907
  889MOL0     H19989  12.745   1.569   6.692  0.0883 -0.5483  1.0459
  889MOL0     H19990  12.588   1.563   6.780 -0.5891 -0.0212 -0.1786
  889MOL0     H19991  12.749   1.315   6.708 -2.0503 -0.7114 -0.5570
  889MOL0     H19992  12.612   1.317   6.812  0.4846 -2.2626  0.9909
  889MOL0     H19993  12.869   1.471   6.867 -0.5142  0.8040  1.6391
  889MOL0     H19994  12.739   1.465   6.975 -1.5761 -2.2576  1.5044
  889MOL0     H19995  12.170   1.973   6.569 -0.6179  0.7034 -1.1331
  889MOL0     H19996  11.953   2.035   6.659 -0.0631  1.4380 -2.6494
  889MOL0     H19997  11.487   1.823   6.673  1.9675  0.4546  0.9990
  889MOL0     H19998  11.238   1.842   6.719  1.7296 -1.8998  1.4689
  889MOL0     H19999   9.773   2.079   5.828 -0.8194 -3.4239 -1.4797
  889MOL0     H20000   9.745   2.101   5.578 -0.4247  1.6203  1.6938
  889MOL0     H20001   9.773   2.094   5.219 -1.5984  1.0479 -0.3042
  889MOL0     H20002   9.672   2.113   5.004  0.7284  0.8473  4.2691
  889MOL0     H20003   9.619   2.139   4.804  1.8576  2.4308 -1.0868
  889MOL0     H20004   9.702   1.985   4.763  0.4971  0.4518 -1.8545
  889MOL0     H20005   9.614   2.196   4.566 -2.3226 -0.2063  2.5929
  889MOL0     H20006   9.563   2.044   4.581 -0.5591  0.9462 -0.6233
  889MOL0     H20007   9.814   1.968   4.545  1.5958  1.2576 -0.4624
  889MOL0     H20008   9.841   2.141   4.505 -1.0490 -0.2555 -0.3961
  889MOL0     H20009   9.813   2.015   4.307  0.2688 -0.8130  0.9392
  889MOL0     H20010   9.652   1.952   4.356 -0.8239  0.3048  0.5743
  889MOL0     H20011   9.574   2.320   4.164  1.9997  0.1744 -2.3981
  889MOL0     H20012  10.066   2.205   4.846  0.7536  0.6614  0.1187
  889MOL0     H20013  10.254   2.199   4.959 -0.9023 -3.0071 -0.7265
  889MOL0     H20014  10.241   2.211   5.140  0.4354 -2.5943  2.3592
  889MOL0     H20015  10.261   2.058   5.066  0.4711 -0.2170  0.9016
  890MOL0     O20016   6.620   0.537   4.586 -0.6993  0.0139  0.4109
  890MOL0     C20017   6.596   0.555   4.463 -0.5659 -0.7628 -0.2660
  890MOL0     O20018   6.689   0.608   4.374 -0.3324 -0.2602  0.1816
  890MOL0     C20019   6.818   0.625   4.422 -0.5281  0.0484  0.4801
  890MOL0     C20020   6.918   0.591   4.330  0.2546 -0.9117  0.2483
  890MOL0     C20021   7.056   0.614   4.360  0.4837  0.0296  0.3073
  890MOL0     C20022   7.090   0.670   4.482  0.1306 -0.4245  0.5929
  890MOL0     O20023   7.220   0.700   4.516  0.6915  0.4080  0.3768
  890MOL0     C20024   7.323   0.644   4.446  0.4053  0.0080  0.4637
  890MOL0     C20025   7.450   0.668   4.524 -0.3682  0.0022 -0.8397
  890MOL0     C20026   7.570   0.589   4.470 -0.5547  1.1066  0.3093
  890MOL0     C20027   7.686   0.603   4.567 -0.2021  0.7070 -0.3830
  890MOL0     C20028   7.787   0.492   4.555 -0.1362 -0.8606 -0.2885
  890MOL0     C20029   7.911   0.531   4.487  0.7063  0.1187  0.0289
  890MOL0     C20030   7.996   0.417   4.450  0.5102 -0.1598 -0.0602
  890MOL0     C20031   8.076   0.362   4.575 -0.1555 -0.9001  1.2492
  890MOL0     N20032   8.173   0.259   4.532  0.7846  0.1435  0.5401
  890MOL0     C20033   8.306   0.239   4.560 -0.0501  0.4856  0.2091
  890MOL0     C20034   8.341   0.130   4.480  1.0503 -1.1401 -0.2012
  890MOL0     C20035   8.468   0.059   4.459 -0.4405  0.6600 -0.0132
  890MOL0     C20036   8.448  -0.098   4.472 -1.0316 -0.6105 -0.0134
  890MOL0     C20037   8.574  -0.183   4.442  0.4252 -0.1128 -0.6779
  890MOL0     C20038   8.691  -0.133   4.524 -0.7444  0.2182 -1.1230
  890MOL0     O20039   8.785  -0.240   4.523 -0.2704  0.6690  0.3536
  890MOL0     C20040   8.915  -0.209   4.559 -1.0672 -0.3471  1.3062
  890MOL0     C20041   8.999  -0.128   4.475  0.2923  0.3076  0.5579
  890MOL0     C20042   9.128  -0.090   4.522  0.5904 -0.0383  0.5795
  890MOL0     C20043   9.176  -0.133   4.648 -0.3727 -0.2784  0.1646
  890MOL0     C20044   9.315  -0.102   4.687 -0.3000 -0.6254  0.2760
  890MOL0     O20045   9.355  -0.116   4.821 -0.0433 -0.0592 -1.4172
  890MOL0     C20046   9.489  -0.083   4.856  0.9766 -0.1336 -0.0105
  890MOL0     C20047   9.586  -0.178   4.859  1.2407  0.8801 -0.3085
  890MOL0     C20048   9.727  -0.141   4.882 -0.8912 -0.1545 -0.2482
  890MOL0     C20049   9.765  -0.009   4.894  0.0809  0.6742  0.3574
  890MOL0     O20050   9.900   0.015   4.910  0.6634 -0.0724 -0.2542
  890MOL0     C20051   9.947   0.129   4.981  0.5681  0.3305 -0.3776
  890MOL0     C20052  10.087   0.127   4.982  1.2271  1.2849  0.4716
  890MOL0     C20053  10.156   0.235   5.063  0.3633 -0.6067  0.5713
  890MOL0     C20054  10.306   0.215   5.071 -0.0215 -0.0571 -0.7592
  890MOL0     C20055  10.366   0.305   5.185 -0.3727  0.0502 -1.0291
  890MOL0     C20056  10.506   0.267   5.182 -0.3297  0.4245  0.2364
  890MOL0     C20057  10.574   0.333   5.305  0.1756 -1.0196  0.1644
  890MOL0     C20058  10.726   0.289   5.313  0.9872  0.3561 -0.6311
  890MOL0    Cl20059  10.766   0.116   5.337 -0.3343 -0.3895 -0.2745
  890MOL0     C20060   9.666   0.087   4.903  0.6540 -0.4916  0.3702
  890MOL0     C20061   9.529   0.052   4.886  0.5026  0.4976  0.5596
  890MOL0     O20062   9.386  -0.048   4.601 -0.5711  1.3249 -0.3775
  890MOL0     C20063   9.092  -0.210   4.730  0.3846 -0.7725 -1.2075
  890MOL0     C20064   8.973  -0.253   4.680  0.0621 -0.0211 -0.3667
  890MOL0     N20065   8.222   0.093   4.412  0.9289  0.2476 -0.7611
  890MOL0     N20066   8.125   0.169   4.439  0.1014  0.1862 -0.5340
  890MOL0     C20067   6.989   0.707   4.574  0.7128 -0.0168 -0.0375
  890MOL0     C20068   6.856   0.689   4.538 -0.3058 -0.3126  0.8352
  890MOL0     C20069   6.464   0.530   4.409 -0.5352 -0.3985 -0.2364
  890MOL0     C20070   6.455   0.532   4.265 -0.2685 -0.3958  1.0809
  890MOL0     C20071   6.323   0.516   4.200 -0.0778  0.1279 -0.2500
  890MOL0     C20072   6.219   0.480   4.281 -0.3522 -0.3707 -0.3535
  890MOL0     O20073   6.099   0.453   4.221  0.7737  1.3675  0.4294
  890MOL0     C20074   6.027   0.346   4.286 -0.6968 -0.1250 -0.5748
  890MOL0     C20075   5.928   0.304   4.180  1.0152  0.3118  0.4210
  890MOL0     C20076   5.821   0.208   4.235  0.5245 -0.6009 -0.4442
  890MOL0     C20077   5.710   0.182   4.128 -0.8040 -0.8541  0.4429
  890MOL0     C20078   5.637   0.066   4.174  1.4725  0.0571  0.2383
  890MOL0     C20079   5.569  -0.029   4.220  0.3122 -0.0424  0.6263
  890MOL0     C20080   6.224   0.473   4.422 -0.7140  0.0618  0.1163
  890MOL0     C20081   6.347   0.511   4.482 -0.3538 -0.5196  0.0421
  890MOL0     C20082   6.334   0.532   4.629  0.4104  0.2707 -1.0817
  890MOL0     H20083   6.890   0.553   4.233 -1.2541 -1.6763  0.9523
  890MOL0     H20084   7.118   0.608   4.271  0.0307  1.5615 -0.1471
  890MOL0     H20085   7.307   0.537   4.461 -0.9305  0.3602  1.7851
  890MOL0     H20086   7.325   0.669   4.340 -3.7092  2.2238  0.6949
  890MOL0     H20087   7.424   0.634   4.624  0.3753  0.2303 -0.5615
  890MOL0     H20088   7.473   0.774   4.535  0.2283 -0.1603 -0.5014
  890MOL0     H20089   7.592   0.617   4.366  1.2557 -1.1351  0.0055
  890MOL0     H20090   7.551   0.482   4.458  3.0132  0.4823 -1.3534
  890MOL0     H20091   7.738   0.699   4.559 -3.0012  2.4973  1.3196
  890MOL0     H20092   7.641   0.604   4.667 -0.5808  1.3048 -0.5535
  890MOL0     H20093   7.812   0.454   4.654 -2.1407  0.1153  0.6593
  890MOL0     H20094   7.741   0.409   4.500  2.0591 -0.4302 -2.9830
  890MOL0     H20095   7.880   0.581   4.394  0.1161  0.4292  0.3891
  890MOL0     H20096   7.963   0.605   4.549  0.7172  1.9526 -2.0512
  890MOL0     H20097   8.068   0.440   4.372  0.6412 -4.2160 -1.3792
  890MOL0     H20098   7.934   0.340   4.402 -0.6428 -0.3188  1.5945
  890MOL0     H20099   8.134   0.443   4.619  2.0813  0.2865 -3.2200
  890MOL0     H20100   8.003   0.330   4.650 -3.4134 -1.4856 -1.8496
  890MOL0     H20101   8.376   0.305   4.610 -0.0604  0.4908  0.2169
  890MOL0     H20102   8.514   0.088   4.364 -2.1823 -0.0844 -1.1322
  890MOL0     H20103   8.537   0.099   4.534 -1.3302  2.2968 -0.0268
  890MOL0     H20104   8.418  -0.126   4.573 -0.9028  1.4146  0.6220
  890MOL0     H20105   8.364  -0.127   4.408 -3.4708  1.5961  1.9759
  890MOL0     H20106   8.596  -0.183   4.335 -1.6587 -3.0535 -1.2169
  890MOL0     H20107   8.549  -0.283   4.478 -2.1813  0.0891 -1.7205
  890MOL0     H20108   8.659  -0.108   4.625 -0.9077  2.3185 -1.6432
  890MOL0     H20109   8.731  -0.039   4.485 -1.5575  0.5151 -1.2598
  890MOL0     H20110   8.963  -0.105   4.375  2.3189 -3.0712 -1.1235
  890MOL0     H20111   9.185  -0.018   4.464 -1.6916  0.6604 -0.9269
  890MOL0     H20112   9.563  -0.282   4.836  1.3106  0.9543 -0.7280
  890MOL0     H20113   9.807  -0.214   4.882  0.1417  0.9445  0.0910
  890MOL0     H20114   9.919   0.223   4.932  2.9888  0.1340 -2.2873
  890MOL0     H20115   9.909   0.130   5.084 -0.0910  0.0081 -0.6100
  890MOL0     H20116  10.110   0.030   5.026 -2.2742  0.7348  1.3765
  890MOL0     H20117  10.129   0.114   4.881  2.4951 -1.1377  1.2296
  890MOL0     H20118  10.135   0.340   5.041  0.8963 -0.7180 -0.5230
  890MOL0     H20119  10.128   0.226   5.168  1.7971  0.1539  1.0366
  890MOL0     H20120  10.349   0.245   4.975 -2.1137  2.8199 -0.9420
  890MOL0     H20121  10.321   0.111   5.099 -0.5295 -0.4059 -1.7457
  890MOL0     H20122  10.321   0.298   5.285  4.0528  0.3649  1.2711
  890MOL0     H20123  10.345   0.408   5.154  0.2558  1.2065  1.9706
  890MOL0     H20124  10.523   0.159   5.173 -0.0967  0.6054 -2.2031
  890MOL0     H20125  10.558   0.314   5.099  0.8027  0.1570  0.7787
  890MOL0     H20126  10.530   0.315   5.403  0.3035  1.6663  0.7951
  890MOL0     H20127  10.580   0.441   5.287  3.0667 -1.5709 -3.3076
  890MOL0     H20128  10.775   0.304   5.216 -1.0356 -4.2609 -2.6664
  890MOL0     H20129  10.780   0.336   5.396 -0.0628  0.5968 -0.0687
  890MOL0     H20130   9.681   0.191   4.931 -3.8575  1.1344 -2.1994
  890MOL0     H20131   9.463   0.138   4.897  1.4796  1.2689  0.5387
  890MOL0     H20132   9.120  -0.252   4.825 -0.9346  0.3881 -0.2682
  890MOL0     H20133   8.923  -0.331   4.737 -0.8500 -1.6946 -3.2362
  890MOL0     H20134   7.018   0.752   4.668 -0.6818  3.0949 -0.9803
  890MOL0     H20135   6.776   0.710   4.608 -0.6888  1.0956  0.0256
  890MOL0     H20136   6.542   0.551   4.203 -0.2865  0.6972  1.3865
  890MOL0     H20137   6.313   0.517   4.092 -0.7199 -1.4774 -0.2281
  890MOL0     H20138   5.971   0.386   4.372 -0.1804  2.1248 -1.2123
  890MOL0     H20139   6.096   0.265   4.312  2.0154  1.7971 -1.3275
  890MOL0     H20140   5.991   0.245   4.112 -1.1387 -1.6346 -0.0052
  890MOL0     H20141   5.884   0.394   4.135  0.5759  1.7019  3.4235
  890MOL0     H20142   5.784   0.250   4.329 -1.2270 -1.6825 -0.6032
  890MOL0     H20143   5.871   0.114   4.260  0.8423  0.4853  3.8574
  890MOL0     H20144   5.636   0.258   4.103 -0.9286 -1.5850 -1.6671
  890MOL0     H20145   5.765   0.154   4.038 -1.1933 -3.5871  0.9380
  890MOL0     H20146   5.526  -0.126   4.235  1.6898 -0.8238 -0.2544
  890MOL0     H20147   6.140   0.444   4.485  0.2470  2.7231  2.8897
  890MOL0     H20148   6.378   0.627   4.659  0.6549  0.7929 -2.9516
  890MOL0     H20149   6.228   0.547   4.652  0.2650 -0.1720 -1.4412
  890MOL0     H20150   6.378   0.448   4.684  1.3854  1.2303 -0.3619
  891MOL0     O20151   1.625   0.142  10.677 -0.0810 -0.0544 -0.3863
  891MOL0     C20152   1.645   0.080  10.779 -0.4641 -0.6615  0.1202
  891MOL0     O20153   1.598   0.117  10.901 -0.4640 -0.3858 -0.5713
  891MOL0     C20154   1.491   0.198  10.909 -0.1094  0.0889 -0.4041
  891MOL0     C20155   1.491   0.327  10.973 -0.2819  0.1916  0.7255
  891MOL0     C20156   1.374   0.410  10.986 -0.7347 -0.0039 -0.4969
  891MOL0     C20157   1.260   0.367  10.923 -1.0014  0.4718  0.3481
  891MOL0     O20158   1.138   0.438  10.915 -0.4134  0.4738 -0.0960
  891MOL0     C20159   1.149   0.578  10.933  0.2989  0.1866 -0.6472
  891MOL0     C20160   1.005   0.635  10.945 -0.7626  0.0093 -0.5421
  891MOL0     C20161   1.013   0.781  10.946 -0.1575  0.7567  1.0328
  891MOL0     C20162   0.883   0.842  11.008 -0.2086  0.7452  0.0324
  891MOL0     C20163   0.909   0.993  11.049 -0.3206  0.4650 -0.4649
  891MOL0     C20164   0.806   1.039  11.147 -0.4587  0.5065 -0.5273
  891MOL0     C20165   0.663   1.009  11.101  0.3218  0.3162  0.4442
  891MOL0     C20166   0.552   1.044  11.199  0.1668 -0.1509  0.1917
  891MOL0     N20167   0.421   1.010  11.157 -0.1780 -0.3124  0.1572
  891MOL0     C20168   0.340   1.105  11.104  0.1032 -0.1101 -0.1937
  891MOL0     C20169   0.258   1.033  11.015 -0.2352  0.8203  0.8034
  891MOL0     C20170   0.162   1.087  10.907 -0.7080 -0.4680  0.4617
  891MOL0     C20171   0.034   1.158  10.955 -0.4950 -0.4111 -0.3267
  891MOL0     C20172  -0.040   1.053  11.027 -0.1147  0.6738 -0.8163
  891MOL0     C20173  -0.180   1.114  11.070  0.0032  0.0792 -0.3533
  891MOL0     O20174  -0.246   1.167  10.949  0.6749  0.4538 -0.3945
  891MOL0     C20175  -0.371   1.220  10.981 -0.1021 -0.1795 -0.0506
  891MOL0     C20176  -0.367   1.331  11.060 -0.5461 -0.0664  0.4675
  891MOL0     C20177  -0.487   1.404  11.087 -0.5119  0.4854  0.4345
  891MOL0     C20178  -0.611   1.352  11.041 -0.2224  0.1562 -0.0500
  891MOL0     C20179  -0.731   1.418  11.098  1.1444 -0.0701  0.5218
  891MOL0     O20180  -0.842   1.372  11.030 -0.6982 -0.9505 -0.5958
  891MOL0     C20181  -0.955   1.447  11.053 -0.4510  0.4217 -0.4474
  891MOL0     C20182  -0.965   1.580  11.004 -0.6627 -0.5202  0.6596
  891MOL0     C20183  -1.077   1.659  11.022  0.2733 -0.9902 -0.7453
  891MOL0     C20184  -1.184   1.605  11.089 -0.3115  0.2978  0.1316
  891MOL0     O20185  -1.304   1.670  11.092  0.1475  0.0816 -0.0078
  891MOL0     C20186  -1.323   1.745  11.215 -1.0419  0.6514 -0.1340
  891MOL0     C20187  -1.400   1.870  11.183 -0.0762  0.0653  0.6273
  891MOL0     C20188  -1.441   1.926  11.326  0.2798  0.3458 -0.0091
  891MOL0     C20189  -1.529   2.050  11.315 -0.6158  0.4431  0.2730
  891MOL0     C20190  -1.572   2.086  11.451  0.2658  0.6746 -0.2323
  891MOL0     C20191  -1.705   2.162  11.457  0.1753 -0.3848 -0.1878
  891MOL0     C20192  -1.830   2.068  11.455  1.0902  0.5721 -0.4640
  891MOL0     C20193  -1.873   2.005  11.587 -0.3579  0.8040 -0.4513
  891MOL0    Cl20194  -1.963   1.861  11.571  0.2609  0.2482 -0.1181
  891MOL0     C20195  -1.180   1.475  11.136 -0.6822  0.4931  0.1390
  891MOL0     C20196  -1.062   1.399  11.118  0.9463  0.8857 -0.8697
  891MOL0     O20197  -0.737   1.494  11.199  1.1173 -0.4460 -0.6839
  891MOL0     C20198  -0.609   1.241  10.952 -0.0015  0.1170 -0.0334
  891MOL0     C20199  -0.491   1.176  10.926  0.1866  1.3871  0.5640
  891MOL0     N20200   0.300   0.899  11.018  0.3626  0.3382  0.6992
  891MOL0     N20201   0.396   0.889  11.099  1.1546 -0.6937  0.3499
  891MOL0     C20202   1.263   0.242  10.851  0.2649  0.2164 -0.3171
  891MOL0     C20203   1.378   0.157  10.842 -0.3380  0.0128  0.5916
  891MOL0     C20204   1.717  -0.051  10.773  0.4738  1.1777  0.4470
  891MOL0     C20205   1.658  -0.161  10.841 -0.3543  0.4371 -0.4004
  891MOL0     C20206   1.720  -0.283  10.837 -0.1971  0.7699 -0.0459
  891MOL0     C20207   1.818  -0.309  10.741 -0.2290 -0.4511  0.2168
  891MOL0     O20208   1.880  -0.430  10.732  0.3180 -0.6453 -0.5559
  891MOL0     C20209   1.873  -0.504  10.613  1.4187 -0.4514  0.0267
  891MOL0     C20210   1.728  -0.567  10.580  0.3208 -0.1305  0.0919
  891MOL0     C20211   1.750  -0.667  10.471  0.5684 -0.3563  0.3140
  891MOL0     C20212   1.612  -0.707  10.410 -0.0909  1.0352 -0.4593
  891MOL0     C20213   1.546  -0.797  10.505 -0.0128  1.3791 -0.4775
  891MOL0     C20214   1.473  -0.869  10.574  0.2739  0.6974  0.2477
  891MOL0     C20215   1.878  -0.202  10.682 -0.0856  0.3760  0.6067
  891MOL0     C20216   1.836  -0.067  10.694 -1.0715 -0.8504  0.5355
  891MOL0     C20217   1.907   0.052  10.625 -0.1662  0.1458  0.6581
  891MOL0     H20218   1.584   0.359  11.019  0.5155 -0.4768 -0.3782
  891MOL0     H20219   1.384   0.510  11.029 -0.0053 -0.1392 -0.3365
  891MOL0     H20220   1.200   0.611  11.024  1.9721  0.9505 -1.7984
  891MOL0     H20221   1.202   0.618  10.845 -0.5295  0.9621 -0.8075
  891MOL0     H20222   0.952   0.601  11.035  0.5413  2.3113  1.2046
  891MOL0     H20223   0.948   0.599  10.858 -0.2444 -0.5619 -0.6538
  891MOL0     H20224   1.041   0.817  10.846  1.4828 -2.6002  0.1442
  891MOL0     H20225   1.100   0.808  11.007 -0.6347  0.2491  1.9551
  891MOL0     H20226   0.796   0.837  10.942 -0.1276  0.2545 -0.0420
  891MOL0     H20227   0.859   0.791  11.101 -1.5643  0.6407 -0.3546
  891MOL0     H20228   1.006   1.008  11.097 -1.8922  1.8468  2.5219
  891MOL0     H20229   0.920   1.052  10.957  0.8937 -1.1747 -1.4196
  891MOL0     H20230   0.816   0.987  11.243  0.2401  4.6196  1.8369
  891MOL0     H20231   0.817   1.146  11.164 -1.7922  0.4909  0.5944
  891MOL0     H20232   0.647   0.901  11.085 -1.6476  0.1814  2.7336
  891MOL0     H20233   0.641   1.058  11.006 -3.6383 -1.9346 -0.0302
  891MOL0     H20234   0.570   0.998  11.296 -1.5621  0.4949  0.8376
  891MOL0     H20235   0.554   1.153  11.204  0.0992 -0.1682  0.6303
  891MOL0     H20236   0.346   1.213  11.118 -0.8271  0.0212 -0.6816
  891MOL0     H20237   0.215   1.168  10.855 -3.9963  1.2112 -0.6058
  891MOL0     H20238   0.130   1.009  10.837  1.3588 -0.7085 -0.2865
  891MOL0     H20239   0.054   1.236  11.030 -1.9489  0.3204 -0.6783
  891MOL0     H20240  -0.013   1.204  10.868  0.1994  0.2097 -0.3872
  891MOL0     H20241  -0.012   1.003  11.120 -3.5145 -3.1761 -1.5429
  891MOL0     H20242  -0.063   0.975  10.953  0.5386 -0.5104  0.1896
  891MOL0     H20243  -0.175   1.190  11.148  0.1479 -0.9447  0.6611
  891MOL0     H20244  -0.231   1.032  11.121  0.6131  0.4651  0.9157
  891MOL0     H20245  -0.275   1.372  11.100  2.1315 -0.0055 -4.9202
  891MOL0     H20246  -0.487   1.479  11.165  0.6503  1.1201 -0.1518
  891MOL0     H20247  -0.891   1.630  10.942 -0.4494  0.9031  2.0107
  891MOL0     H20248  -1.091   1.760  10.985 -1.5749 -1.4785 -1.5314
  891MOL0     H20249  -1.375   1.685  11.289  0.1634  0.0309  0.2461
  891MOL0     H20250  -1.228   1.765  11.265 -1.0159 -1.8855  0.9609
  891MOL0     H20251  -1.328   1.939  11.138 -1.5706 -0.0200 -2.0409
  891MOL0     H20252  -1.486   1.848  11.120 -0.1682 -1.8755  1.3581
  891MOL0     H20253  -1.494   1.850  11.384  2.7470 -0.9770  0.6622
  891MOL0     H20254  -1.352   1.943  11.387  1.0825 -1.8639 -0.5147
  891MOL0     H20255  -1.613   2.046  11.245 -0.4274  2.2109 -0.0771
  891MOL0     H20256  -1.480   2.132  11.263 -0.2786 -0.3452 -0.6846
  891MOL0     H20257  -1.497   2.134  11.514 -0.1331 -1.2822  1.8732
  891MOL0     H20258  -1.595   1.993  11.502 -0.4222  0.8868 -0.1365
  891MOL0     H20259  -1.717   2.228  11.543 -1.3772 -0.4260 -0.3355
  891MOL0     H20260  -1.710   2.235  11.376  1.0180  0.1218  0.2019
  891MOL0     H20261  -1.813   1.985  11.386 -3.2461 -1.6418  0.8366
  891MOL0     H20262  -1.920   2.108  11.408  0.6092 -1.0057 -0.9225
  891MOL0     H20263  -1.796   1.998  11.664 -0.2250  2.3862 -0.4183
  891MOL0     H20264  -1.930   2.087  11.633  0.2292  0.4857  0.8933
  891MOL0     H20265  -1.262   1.439  11.198  0.3445  0.7273  1.7013
  891MOL0     H20266  -1.054   1.295  11.150  1.2492  0.0631 -3.3790
  891MOL0     H20267  -0.702   1.210  10.905  0.2228  0.5179 -0.7659
  891MOL0     H20268  -0.498   1.092  10.858 -0.1718 -0.4426  2.7691
  891MOL0     H20269   1.165   0.226  10.808  0.6426  1.9661 -1.9640
  891MOL0     H20270   1.368   0.061  10.793  4.8340 -1.2609  1.4819
  891MOL0     H20271   1.570  -0.136  10.900  0.0069  0.7376  0.0139
  891MOL0     H20272   1.669  -0.356  10.899 -0.8582  3.7488  3.2350
  891MOL0     H20273   1.939  -0.589  10.633 -0.4587 -1.5435  2.0551
  891MOL0     H20274   1.910  -0.435  10.537 -0.3543  0.9037  0.3190
  891MOL0     H20275   1.656  -0.490  10.549 -0.3157 -0.5200  0.5902
  891MOL0     H20276   1.693  -0.622  10.668  0.1429 -0.5057 -0.2102
  891MOL0     H20277   1.795  -0.762  10.502  0.0782 -0.9673 -0.7978
  891MOL0     H20278   1.788  -0.612  10.385 -2.2959  1.7409  0.2430
  891MOL0     H20279   1.559  -0.615  10.383  2.1100  1.7578 -2.7065
  891MOL0     H20280   1.637  -0.750  10.313  0.5685  0.5907 -0.0958
  891MOL0     H20281   1.399  -0.923  10.631  0.5242 -2.0589 -1.8497
  891MOL0     H20282   1.959  -0.219  10.611 -1.1879 -1.6395 -0.2600
  891MOL0     H20283   1.944   0.129  10.694  2.4179  2.9581 -3.4408
  891MOL0     H20284   1.993   0.026  10.563 -1.7316  1.8344 -2.4250
  891MOL0     H20285   1.831   0.110  10.571 -0.4199  1.7436  2.5881
  892MOL0     O20286   7.921  10.741  10.707  0.1525  1.3426 -0.9726
  892MOL0     C20287   7.872  10.847  10.677 -0.5171 -0.6036 -0.4126
  892MOL0     O20288   7.938  10.972  10.662  0.3481  0.9440  0.3577
  892MOL0     C20289   8.074  10.954  10.633  0.4256  0.5289 -0.7165
  892MOL0     C20290   8.124  10.868  10.533  0.5643  0.8061 -0.8844
  892MOL0     C20291   8.265  10.858  10.518  0.0997  0.4614  1.1159
  892MOL0     C20292   8.346  10.935  10.600  0.9804 -0.2166 -0.2967
  892MOL0     O20293   8.478  10.920  10.576  0.0138 -0.0665 -0.3098
  892MOL0     C20294   8.563  11.043  10.578 -0.4618  0.4278  0.5076
  892MOL0     C20295   8.699  11.008  10.508  0.3272 -0.2649 -0.0349
  892MOL0     C20296   8.788  11.133  10.488  0.6539  0.3158 -0.4930
  892MOL0     C20297   8.849  11.176  10.615  0.5497 -0.0019 -0.8124
  892MOL0     C20298   8.965  11.274  10.593  0.7590  0.0287  0.3190
  892MOL0     C20299   9.020  11.345  10.721 -0.3205  0.3764 -0.9389
  892MOL0     C20300   9.033  11.262  10.848  0.0793 -0.4651 -0.4702
  892MOL0     C20301   9.171  11.203  10.857 -0.7963  0.0263 -0.3645
  892MOL0     N20302   9.222  11.187  10.993  0.4579 -0.2689 -0.1791
  892MOL0     C20303   9.175  11.083  11.067  0.3390  0.0059  0.2174
  892MOL0     C20304   9.253  11.093  11.180 -0.3373 -0.6967  0.5374
  892MOL0     C20305   9.216  11.006  11.295 -0.5579 -0.2636  0.3106
  892MOL0     C20306   9.353  10.967  11.368  0.5458 -0.8556  0.3984
  892MOL0     C20307   9.326  10.893  11.500  0.4705 -0.0229  0.0060
  892MOL0     C20308   9.460  10.865  11.565 -0.0767 -0.0602  0.0254
  892MOL0     O20309   9.524  10.764  11.484 -0.4704 -1.0945  0.2075
  892MOL0     C20310   9.661  10.762  11.492  0.1471 -0.7116 -0.4415
  892MOL0     C20311   9.745  10.847  11.567 -0.5327 -0.0101 -0.4722
  892MOL0     C20312   9.890  10.833  11.560  0.7457 -0.5280 -0.5508
  892MOL0     C20313   9.945  10.736  11.478  0.0019 -1.1431 -0.1205
  892MOL0     C20314  10.085  10.711  11.471  0.0103 -0.3130 -0.2258
  892MOL0     O20315  10.171  10.816  11.455 -0.5912 -0.6181 -0.2646
  892MOL0     C20316  10.303  10.772  11.455  1.1654 -0.0402  0.0772
  892MOL0     C20317  10.377  10.766  11.574  0.7941  0.6412  0.0246
  892MOL0     C20318  10.512  10.722  11.581  0.1338 -0.0744 -0.2985
  892MOL0     C20319  10.584  10.687  11.462  0.2087  0.3958 -0.2933
  892MOL0     O20320  10.716  10.643  11.449 -0.2362  0.0942  0.2808
  892MOL0     C20321  10.792  10.637  11.570 -0.0557  0.0032 -0.4173
  892MOL0     C20322  10.916  10.551  11.534 -0.3868  0.3177  0.1417
  892MOL0     C20323  10.987  10.509  11.669 -0.0402 -0.7938 -0.5702
  892MOL0     C20324  11.127  10.465  11.653  0.5344 -0.6106 -0.7352
  892MOL0     C20325  11.183  10.430  11.792 -1.0294  0.4076 -0.6615
  892MOL0     C20326  11.326  10.382  11.769  0.3364 -0.0479 -0.4243
  892MOL0     C20327  11.378  10.345  11.907  0.2382 -0.3771 -0.3711
  892MOL0     C20328  11.491  10.243  11.897 -0.2795  1.0083 -0.6982
  892MOL0    Cl20329  11.473  10.114  12.034  0.0505 -0.2294 -0.1128
  892MOL0     C20330  10.500  10.691  11.350  0.2829  0.2424 -0.1953
  892MOL0     C20331  10.369  10.738  11.341 -0.9147 -0.6269  0.2384
  892MOL0     O20332  10.109  10.591  11.463  0.0947  0.0775  0.0076
  892MOL0     C20333   9.854  10.654  11.401 -0.8885  0.4338 -0.2150
  892MOL0     C20334   9.718  10.671  11.408 -0.2237  0.0859 -0.2830
  892MOL0     N20335   9.338  11.204  11.168 -0.7385 -0.2365 -1.1620
  892MOL0     N20336   9.310  11.269  11.058 -0.0969  1.1302  0.4558
  892MOL0     C20337   8.295  11.032  10.695 -0.1008  0.0872  0.1713
  892MOL0     C20338   8.161  11.032  10.711 -0.9223 -0.3102  0.1498
  892MOL0     C20339   7.722  10.837  10.688  0.3687 -0.3365 -0.2242
  892MOL0     C20340   7.658  10.762  10.791 -0.3796  0.1546  0.2407
  892MOL0     C20341   7.519  10.739  10.790  0.6201 -0.1750 -0.4519
  892MOL0     C20342   7.438  10.823  10.709  0.0020  0.2291  0.2853
  892MOL0     O20343   7.302  10.813  10.707  0.2294  0.5455  0.3428
  892MOL0     C20344   7.236  10.715  10.787  0.1523  0.3213 -0.4907
  892MOL0     C20345   7.082  10.727  10.747 -0.7958  0.0419  0.6134
  892MOL0     C20346   7.009  10.616  10.819 -0.3086  0.2052  0.0790
  892MOL0     C20347   6.860  10.663  10.819 -0.1509 -0.0187 -1.1327
  892MOL0     C20348   6.789  10.649  10.685  0.0652  0.4664 -1.1731
  892MOL0     C20349   6.718  10.648  10.582 -0.2825 -0.8878  0.3270
  892MOL0     C20350   7.493  10.906  10.615 -0.3171 -0.4089 -1.1164
  892MOL0     C20351   7.632  10.914  10.602 -0.2971 -0.5112 -0.5367
  892MOL0     C20352   7.693  11.007  10.495  0.0934 -0.0805  0.7179
  892MOL0     H20353   8.065  10.796  10.478  0.8492 -0.5088  0.4512
  892MOL0     H20354   8.310  10.785  10.451 -2.5996 -0.1682 -0.1552
  892MOL0     H20355   8.528  11.121  10.510  2.0894 -1.0218 -2.7436
  892MOL0     H20356   8.575  11.088  10.677  3.7541  0.0590  0.3271
  892MOL0     H20357   8.674  10.962  10.411 -0.3959 -3.2787  1.4477
  892MOL0     H20358   8.754  10.933  10.565  1.7136  0.7329 -0.0153
  892MOL0     H20359   8.722  11.217  10.467 -0.4232 -0.3045  0.3289
  892MOL0     H20360   8.867  11.116  10.414  0.8057 -1.1162 -0.0303
  892MOL0     H20361   8.770  11.218  10.679 -0.6155 -1.4181 -1.2722
  892MOL0     H20362   8.882  11.083  10.663  1.0200 -0.0121 -1.1532
  892MOL0     H20363   9.048  11.218  10.547  1.3604  1.6871 -0.7025
  892MOL0     H20364   8.945  11.355  10.522  1.3932  1.8794  2.1751
  892MOL0     H20365   9.112  11.397  10.693 -0.5666  1.0723 -0.4686
  892MOL0     H20366   8.943  11.421  10.736  0.7776  1.2060  0.8387
  892MOL0     H20367   8.964  11.178  10.854  1.3002 -1.4320  0.7291
  892MOL0     H20368   9.028  11.335  10.930  3.5648  3.7239 -3.4583
  892MOL0     H20369   9.169  11.103  10.811  4.2562 -0.7315  0.4711
  892MOL0     H20370   9.240  11.267  10.802 -0.5072 -0.7384 -0.9144
  892MOL0     H20371   9.095  11.011  11.060  0.6455 -0.1814 -2.6127
  892MOL0     H20372   9.151  11.050  11.372 -0.3700 -1.5932  1.2721
  892MOL0     H20373   9.178  10.908  11.268  2.0328 -0.8501 -1.5229
  892MOL0     H20374   9.401  10.887  11.311  2.7401  0.7726 -0.1525
  892MOL0     H20375   9.412  11.058  11.383  0.2069 -0.8788  2.1248
  892MOL0     H20376   9.268  10.802  11.485  1.2545 -0.5274  0.0460
  892MOL0     H20377   9.263  10.951  11.569 -1.8460 -2.1648 -0.1692
  892MOL0     H20378   9.451  10.831  11.669 -0.6674 -1.1801 -0.3759
  892MOL0     H20379   9.523  10.954  11.571  0.4189 -0.4927  2.5230
  892MOL0     H20380   9.706  10.920  11.638  0.7403  3.0149 -2.6335
  892MOL0     H20381   9.962  10.881  11.625  1.4794  0.1079 -1.7903
  892MOL0     H20382  10.326  10.781  11.669  2.0927  1.3802  0.6374
  892MOL0     H20383  10.570  10.718  11.672  1.0532 -1.5169 -0.9104
  892MOL0     H20384  10.828  10.738  11.593  0.7228 -0.6699  1.5313
  892MOL0     H20385  10.726  10.593  11.645  2.2002  1.3459  2.5602
  892MOL0     H20386  10.878  10.469  11.472 -1.3469 -2.3677  3.9122
  892MOL0     H20387  10.976  10.615  11.469 -2.0349  1.5180 -0.2374
  892MOL0     H20388  10.983  10.596  11.734  1.0154  0.3148 -1.9245
  892MOL0     H20389  10.936  10.424  11.716 -0.8896 -0.3351 -0.6605
  892MOL0     H20390  11.178  10.550  11.606  0.4803  0.7586  1.5020
  892MOL0     H20391  11.138  10.374  11.593  1.5700 -0.6786 -0.4760
  892MOL0     H20392  11.114  10.356  11.833  0.2031 -1.0013 -1.0930
  892MOL0     H20393  11.185  10.518  11.858  2.5161 -1.5220  2.1303
  892MOL0     H20394  11.333  10.292  11.706 -0.2113 -1.6290  1.6532
  892MOL0     H20395  11.384  10.464  11.726  1.9548 -0.5932  0.6386
  892MOL0     H20396  11.307  10.303  11.979 -0.5094 -0.3653 -1.0794
  892MOL0     H20397  11.415  10.437  11.954 -4.0039  0.4806  1.8271
  892MOL0     H20398  11.495  10.185  11.804 -0.7774 -4.0685  2.0857
  892MOL0     H20399  11.585  10.298  11.905 -0.0373  0.4050  1.0254
  892MOL0     H20400  10.554  10.634  11.276  3.6845  1.1044  1.4084
  892MOL0     H20401  10.319  10.714  11.248  1.8922 -2.7433 -0.8743
  892MOL0     H20402   9.882  10.578  11.329 -1.3911  0.7572 -0.7567
  892MOL0     H20403   9.652  10.616  11.341 -1.1516 -0.0293  0.6953
  892MOL0     H20404   8.355  11.102  10.751  0.9181  0.6909 -1.6048
  892MOL0     H20405   8.122  11.102  10.784 -0.7104  1.2636 -1.1840
  892MOL0     H20406   7.727  10.718  10.863 -0.5007  1.9265  1.5265
  892MOL0     H20407   7.487  10.656  10.852 -0.5415  1.1169  0.7377
  892MOL0     H20408   7.248  10.753  10.889  2.5105  2.1359 -1.3552
  892MOL0     H20409   7.269  10.612  10.769  0.5388  0.1805  0.9403
  892MOL0     H20410   7.080  10.709  10.639  0.6980  1.9332  0.2158
  892MOL0     H20411   7.040  10.828  10.750 -3.4967 -0.9088 -1.4903
  892MOL0     H20412   7.048  10.603  10.920  0.5342  0.8824 -0.1386
  892MOL0     H20413   7.026  10.518  10.775  2.8328  0.1950  1.0318
  892MOL0     H20414   6.813  10.597  10.893  0.8439 -0.9159 -1.2975
  892MOL0     H20415   6.843  10.764  10.858 -0.2587 -0.8986  1.3004
  892MOL0     H20416   6.656  10.633  10.496 -2.9482  1.1736  1.7641
  892MOL0     H20417   7.425  10.962  10.551 -0.8463  1.1414  0.6696
  892MOL0     H20418   7.621  11.023  10.416  1.0287 -0.8543 -0.3207
  892MOL0     H20419   7.722  11.102  10.541 -0.2236 -0.6961  2.2758
  892MOL0     H20420   7.782  10.955  10.457 -1.7794 -1.9038 -1.4452
  893MOL0     O20421   7.224   5.476   5.895  0.3923 -0.2122 -0.0028
  893MOL0     C20422   7.276   5.392   5.820  0.8877  0.8041 -1.1537
  893MOL0     O20423   7.402   5.372   5.799 -0.0134  0.2848  0.5216
  893MOL0     C20424   7.476   5.482   5.840 -0.2117 -0.1083  0.3126
  893MOL0     C20425   7.576   5.452   5.933 -0.1095 -0.8729 -0.1072
  893MOL0     C20426   7.652   5.570   5.973  0.2253  1.3121  0.0563
  893MOL0     C20427   7.636   5.697   5.918 -0.0284  0.5915 -0.5439
  893MOL0     O20428   7.696   5.806   5.969  0.1262 -0.2081 -0.5523
  893MOL0     C20429   7.596   5.869   6.051 -0.2983  0.2516 -0.5212
  893MOL0     C20430   7.653   5.963   6.152  0.2465 -0.5399 -0.3297
  893MOL0     C20431   7.763   6.069   6.108  0.3093  1.0400 -0.6640
  893MOL0     C20432   7.788   6.172   6.230  0.4468  0.9994  0.2855
  893MOL0     C20433   7.687   6.292   6.191 -0.2568  0.2632  0.0486
  893MOL0     C20434   7.689   6.398   6.301 -0.2631 -0.3453  0.8319
  893MOL0     C20435   7.825   6.477   6.288  0.6195  0.2661  1.3251
  893MOL0     C20436   7.826   6.594   6.383 -0.3466 -0.6446 -0.1613
  893MOL0     N20437   7.941   6.674   6.389  0.6532  0.1167 -0.1412
  893MOL0     C20438   8.073   6.633   6.374 -0.2117  0.5548 -0.3273
  893MOL0     C20439   8.146   6.744   6.346 -0.7164  0.6917 -1.6046
  893MOL0     C20440   8.300   6.773   6.339 -1.2746 -0.1502 -0.2109
  893MOL0     C20441   8.378   6.758   6.472  1.9901  0.3731  0.3896
  893MOL0     C20442   8.419   6.614   6.497  0.6092  0.3334  0.2443
  893MOL0     C20443   8.563   6.595   6.457 -0.2436  0.6666 -0.5733
  893MOL0     O20444   8.615   6.475   6.506  0.3846  0.5577 -0.3503
  893MOL0     C20445   8.742   6.430   6.489 -0.1909  0.5591 -0.1870
  893MOL0     C20446   8.848   6.511   6.448  0.3289 -0.9934 -0.8796
  893MOL0     C20447   8.975   6.467   6.458  0.9175 -0.6938  0.9156
  893MOL0     C20448   9.004   6.331   6.491 -0.5276  0.8077 -0.3474
  893MOL0     C20449   9.143   6.284   6.494 -0.1066  0.1019  0.0543
  893MOL0     O20450   9.171   6.185   6.580  0.4077  0.7304 -0.0726
  893MOL0     C20451   9.304   6.145   6.592  0.7139  0.1796  0.1094
  893MOL0     C20452   9.358   6.071   6.482  0.6219 -0.5920  1.2915
  893MOL0     C20453   9.483   6.013   6.493  0.3255  0.5711  0.3100
  893MOL0     C20454   9.563   6.041   6.608 -0.6268 -0.9295 -0.6744
  893MOL0     O20455   9.689   5.994   6.625 -0.3508 -0.1226  0.2411
  893MOL0     C20456   9.786   6.029   6.524 -0.1255 -0.4275 -0.6489
  893MOL0     C20457   9.847   6.155   6.597  0.9968 -0.6307  1.2820
  893MOL0     C20458   9.769   6.283   6.558  0.9435  0.4413 -0.4413
  893MOL0     C20459   9.776   6.319   6.406 -0.1616 -0.3933 -0.6974
  893MOL0     C20460   9.671   6.429   6.354  0.4069 -0.4520  0.6682
  893MOL0     C20461   9.691   6.559   6.426  0.0270  0.1734  0.0186
  893MOL0     C20462   9.611   6.666   6.348 -0.0519 -0.5113  0.4425
  893MOL0     C20463   9.705   6.781   6.310 -0.0576 -0.7982 -0.2039
  893MOL0    Cl20464   9.841   6.707   6.210  0.3016  0.3203 -0.0938
  893MOL0     C20465   9.508   6.120   6.717  0.3409  0.3683 -0.4540
  893MOL0     C20466   9.378   6.175   6.705 -0.1419 -0.2848 -0.0295
  893MOL0     O20467   9.224   6.338   6.412  0.1411  0.1838 -0.0928
  893MOL0     C20468   8.896   6.245   6.518 -0.0139 -0.4029  0.3652
  893MOL0     C20469   8.770   6.302   6.533  0.1798 -0.4560 -0.3862
  893MOL0     N20470   8.062   6.848   6.352 -0.1809  0.2858  0.1635
  893MOL0     N20471   7.947   6.806   6.380  0.0129  0.3364 -0.1134
  893MOL0     C20472   7.556   5.707   5.808 -0.7293 -0.2416 -0.5663
  893MOL0     C20473   7.470   5.601   5.773 -0.4719  0.3475  0.2368
  893MOL0     C20474   7.185   5.285   5.785 -0.2174  0.7773 -0.1779
  893MOL0     C20475   7.195   5.149   5.838 -0.0500 -0.8438  0.3995
  893MOL0     C20476   7.108   5.049   5.795 -0.2672  0.1235 -0.2378
  893MOL0     C20477   6.999   5.081   5.707  0.3594  0.0218 -0.0466
  893MOL0     O20478   6.919   4.981   5.659  0.5606  0.8405  0.6769
  893MOL0     C20479   6.831   4.933   5.760 -0.0118  0.5056 -0.1824
  893MOL0     C20480   6.697   4.883   5.698  0.3306  0.1009 -0.6763
  893MOL0     C20481   6.608   4.982   5.629  1.0009 -0.1653  0.3391
  893MOL0     C20482   6.567   5.089   5.727 -0.8439  0.0264  0.1131
  893MOL0     C20483   6.524   5.211   5.662 -0.3077  0.4771  1.1292
  893MOL0     C20484   6.465   5.300   5.602  0.5519  0.3991  0.1778
  893MOL0     C20485   6.985   5.213   5.664  0.5748 -0.0464 -0.4951
  893MOL0     C20486   7.058   5.314   5.722 -0.1090 -0.7496  0.0446
  893MOL0     C20487   7.023   5.463   5.696  0.0094  0.2886  0.0564
  893MOL0     H20488   7.605   5.356   5.974  0.7024 -0.3586  0.5498
  893MOL0     H20489   7.736   5.556   6.039  2.6814  1.3825 -2.8581
  893MOL0     H20490   7.542   5.928   5.976  1.2356  1.3327 -0.8215
  893MOL0     H20491   7.525   5.799   6.094  0.1447 -0.4527 -0.9179
  893MOL0     H20492   7.674   5.908   6.244  2.3573  0.2440 -0.2733
  893MOL0     H20493   7.565   6.025   6.172  0.2100 -1.2101  1.8809
  893MOL0     H20494   7.737   6.132   6.023  0.2825  0.9755 -0.7038
  893MOL0     H20495   7.848   6.005   6.082  0.1959 -1.2340  3.6337
  893MOL0     H20496   7.743   6.137   6.323 -1.2878  0.8961 -0.5374
  893MOL0     H20497   7.894   6.194   6.245  1.0635 -1.1796 -0.5120
  893MOL0     H20498   7.722   6.335   6.097  0.0625  1.2877  0.6159
  893MOL0     H20499   7.581   6.267   6.190 -0.0482 -0.8828  1.8972
  893MOL0     H20500   7.605   6.467   6.290  1.1255  1.1895 -0.7384
  893MOL0     H20501   7.689   6.354   6.401 -2.2120  1.3250  1.6355
  893MOL0     H20502   7.830   6.511   6.184 -1.0626  2.1033  1.7937
  893MOL0     H20503   7.906   6.413   6.326  0.7114  1.3433  3.0574
  893MOL0     H20504   7.731   6.645   6.362 -0.3989 -0.8961 -0.5449
  893MOL0     H20505   7.805   6.560   6.485 -2.6196  0.5798 -0.1448
  893MOL0     H20506   8.112   6.532   6.375  2.3880  1.4887  0.4884
  893MOL0     H20507   8.337   6.718   6.252 -1.4624  0.7956 -0.9114
  893MOL0     H20508   8.311   6.879   6.311 -2.0226  0.8567  2.8704
  893MOL0     H20509   8.466   6.821   6.482  3.6330 -1.2730 -2.4389
  893MOL0     H20510   8.308   6.774   6.555  2.4046 -0.2683  0.8663
  893MOL0     H20511   8.349   6.550   6.442  1.4536 -0.8987  0.5653
  893MOL0     H20512   8.410   6.597   6.605  2.7138  2.2935  0.8081
  893MOL0     H20513   8.614   6.685   6.492 -1.8686  1.1400  0.7214
  893MOL0     H20514   8.575   6.587   6.348  1.0876  0.0730 -0.3936
  893MOL0     H20515   8.819   6.611   6.417 -0.4382 -0.8734  0.1317
  893MOL0     H20516   9.041   6.546   6.422 -1.2885  0.3360 -1.1553
  893MOL0     H20517   9.303   6.063   6.389  2.4809  0.3294  0.0504
  893MOL0     H20518   9.523   5.946   6.418 -2.1831  0.7238 -1.2774
  893MOL0     H20519   9.864   5.955   6.506  0.4070 -0.0795  0.1656
  893MOL0     H20520   9.738   6.045   6.427  0.8087  0.8072 -0.9331
  893MOL0     H20521   9.851   6.141   6.705  0.3473  0.5976  1.4744
  893MOL0     H20522   9.950   6.168   6.563  0.4975  0.7775  0.1950
  893MOL0     H20523   9.664   6.287   6.587  0.9159  0.6954 -0.5627
  893MOL0     H20524   9.807   6.363   6.622 -0.6756  0.7742  0.1488
  893MOL0     H20525   9.760   6.232   6.341  0.0660  0.1708 -1.5267
  893MOL0     H20526   9.876   6.360   6.388  0.0249  0.0733  1.1944
  893MOL0     H20527   9.571   6.389   6.371 -0.4148  0.8005 -0.8565
  893MOL0     H20528   9.684   6.438   6.246 -1.6160 -1.1294  0.3157
  893MOL0     H20529   9.644   6.564   6.525  1.2454 -2.7770  0.8521
  893MOL0     H20530   9.795   6.583   6.449  0.2046 -0.4645 -0.0940
  893MOL0     H20531   9.529   6.690   6.416 -1.5133 -3.3847 -0.1343
  893MOL0     H20532   9.564   6.626   6.257 -1.3772 -0.3521  1.0363
  893MOL0     H20533   9.652   6.862   6.259 -3.2091 -1.9618  0.9860
  893MOL0     H20534   9.747   6.822   6.403 -1.2394  2.1279 -0.8561
  893MOL0     H20535   9.552   6.150   6.812 -0.4401  0.2351 -0.0462
  893MOL0     H20536   9.330   6.225   6.789 -0.4422 -0.1950 -0.2523
  893MOL0     H20537   8.919   6.147   6.558 -0.0584 -1.1720 -1.4190
  893MOL0     H20538   8.703   6.235   6.585 -0.2758  0.0249 -0.3467
  893MOL0     H20539   7.536   5.800   5.756  1.5144  1.2763  1.0413
  893MOL0     H20540   7.401   5.604   5.689 -3.3077 -0.5106  2.3985
  893MOL0     H20541   7.291   5.132   5.885  1.1613 -1.3425 -2.1034
  893MOL0     H20542   7.133   4.948   5.824  2.3652  0.7596 -0.0376
  893MOL0     H20543   6.800   5.009   5.833 -0.6214 -0.1993  0.3150
  893MOL0     H20544   6.880   4.852   5.816  0.0372  0.2207 -0.6335
  893MOL0     H20545   6.638   4.826   5.770  0.7957  0.0640 -0.3201
  893MOL0     H20546   6.720   4.803   5.626 -0.0994  0.8479 -1.6711
  893MOL0     H20547   6.518   4.941   5.582 -0.4590  1.3690  1.6448
  893MOL0     H20548   6.670   5.016   5.545 -0.6982  0.0263 -0.8874
  893MOL0     H20549   6.481   5.061   5.788 -2.0696  2.2724 -0.4722
  893MOL0     H20550   6.646   5.125   5.795 -1.9972  2.0065  0.4933
  893MOL0     H20551   6.415   5.390   5.572 -0.8212 -0.0694  0.9357
  893MOL0     H20552   6.898   5.234   5.604  2.9703  3.1947 -3.2340
  893MOL0     H20553   7.097   5.530   5.651 -1.6909  1.5707 -0.9885
  893MOL0     H20554   6.934   5.476   5.633 -0.6490 -2.7880  0.1981
  893MOL0     H20555   6.985   5.497   5.792  0.3787 -0.7866  0.5926
  894MOL0     O20556  11.234   8.357   2.260 -0.2279  0.1179  0.4023
  894MOL0     C20557  11.300   8.373   2.362 -0.4770  0.0474 -0.1985
  894MOL0     O20558  11.402   8.459   2.380 -0.2759 -0.0044 -0.5675
  894MOL0     C20559  11.421   8.556   2.285 -0.7107 -0.4455  0.3465
  894MOL0     C20560  11.396   8.689   2.322  0.2168 -0.0897  0.2001
  894MOL0     C20561  11.421   8.792   2.240  0.2594  0.0391 -0.4169
  894MOL0     C20562  11.460   8.778   2.104 -0.6852 -0.2275 -1.1981
  894MOL0     O20563  11.476   8.895   2.032 -0.0840 -0.4890 -0.5877
  894MOL0     C20564  11.521   8.892   1.895 -0.1523  0.5557 -0.0191
  894MOL0     C20565  11.559   9.033   1.851  1.0653  1.3025  0.5063
  894MOL0     C20566  11.448   9.141   1.868  0.6330 -0.2741 -0.1074
  894MOL0     C20567  11.338   9.133   1.767  0.2762 -0.1212  1.1090
  894MOL0     C20568  11.239   9.247   1.784  0.1043 -0.5121  0.6662
  894MOL0     C20569  11.129   9.237   1.675  0.0525  0.4915  0.1538
  894MOL0     C20570  11.043   9.362   1.688  0.1032 -0.1952  0.7342
  894MOL0     C20571  10.943   9.381   1.806  0.3949 -0.5061 -0.7894
  894MOL0     N20572  10.840   9.485   1.777 -0.6592 -0.5355  0.3921
  894MOL0     C20573  10.714   9.463   1.734 -1.5381 -0.3510 -0.5056
  894MOL0     C20574  10.642   9.579   1.721  0.0972  0.1732  0.0223
  894MOL0     C20575  10.505   9.575   1.682 -0.5634 -0.1423 -0.1636
  894MOL0     C20576  10.486   9.656   1.553  0.2919  0.3639  0.9067
  894MOL0     C20577  10.472   9.568   1.425 -0.7808  0.1607 -0.7187
  894MOL0     C20578  10.606   9.541   1.355 -0.5228  0.6227  0.4361
  894MOL0     O20579  10.678   9.447   1.435  0.9214  0.7687  0.4303
  894MOL0     C20580  10.781   9.373   1.381  1.0434  0.3990 -0.1784
  894MOL0     C20581  10.793   9.242   1.443  0.6205 -0.3227 -0.0363
  894MOL0     C20582  10.904   9.169   1.412 -0.9142  0.0440  0.5504
  894MOL0     C20583  10.995   9.216   1.312 -0.0225  0.0623 -0.2651
  894MOL0     C20584  11.121   9.144   1.279 -0.3525  0.0541  0.6558
  894MOL0     O20585  11.169   9.047   1.366  0.0041  0.2859  0.5247
  894MOL0     C20586  11.279   8.972   1.329  0.2125 -0.4433  0.1981
  894MOL0     C20587  11.297   8.921   1.196  0.5100 -0.7750 -0.3603
  894MOL0     C20588  11.411   8.835   1.161 -0.2941  0.4475 -0.9103
  894MOL0     C20589  11.509   8.797   1.251  0.7041  0.1440 -0.8087
  894MOL0     O20590  11.610   8.714   1.213 -0.0000 -0.2930  0.6558
  894MOL0     C20591  11.609   8.589   1.285 -0.6704 -0.4090  1.0095
  894MOL0     C20592  11.726   8.493   1.271 -0.4102  0.4264 -0.7067
  894MOL0     C20593  11.859   8.561   1.309  0.2660  0.0937  0.0794
  894MOL0     C20594  11.965   8.452   1.320  0.2748 -0.6493 -0.4647
  894MOL0     C20595  12.109   8.516   1.348  0.1131  0.4526 -0.2886
  894MOL0     C20596  12.220   8.409   1.313 -0.3552  0.1932 -0.2216
  894MOL0     C20597  12.363   8.470   1.318  0.3109 -0.5356 -0.1920
  894MOL0     C20598  12.472   8.375   1.269 -0.2682  0.4547  0.6781
  894MOL0    Cl20599  12.461   8.376   1.095 -0.0771  0.0592 -0.0802
  894MOL0     C20600  11.485   8.849   1.379 -0.4639  1.0380 -0.7471
  894MOL0     C20601  11.373   8.926   1.428 -0.8256  0.5967 -0.3929
  894MOL0     O20602  11.175   9.180   1.179 -0.4126 -0.1362 -0.5806
  894MOL0     C20603  10.963   9.333   1.237 -0.2299  0.9822  0.0281
  894MOL0     C20604  10.857   9.412   1.273 -0.1169 -0.0391  0.1192
  894MOL0     N20605  10.741   9.676   1.757  0.5354 -0.3129 -0.0305
  894MOL0     N20606  10.851   9.623   1.788 -0.1010  0.3743 -0.1058
  894MOL0     C20607  11.468   8.642   2.065  0.1672 -0.7534  0.5373
  894MOL0     C20608  11.451   8.529   2.156  0.4512 -0.9698  1.0983
  894MOL0     C20609  11.265   8.282   2.483  0.4212  0.1305  0.8941
  894MOL0     C20610  11.356   8.271   2.593 -0.2152 -0.3086  0.0053
  894MOL0     C20611  11.342   8.169   2.690 -0.1869  0.6738  0.2261
  894MOL0     C20612  11.232   8.079   2.690  0.0578 -0.4074 -0.7832
  894MOL0     O20613  11.202   7.978   2.778 -0.0456  0.4617  0.3073
  894MOL0     C20614  11.293   7.949   2.885  0.2143 -0.4189  0.0588
  894MOL0     C20615  11.273   8.032   3.014 -0.3634  0.7170 -0.1316
  894MOL0     C20616  11.406   8.007   3.097  0.2672  0.0316  0.2273
  894MOL0     C20617  11.393   8.062   3.241  1.2396 -0.5052 -0.1123
  894MOL0     C20618  11.516   8.039   3.320  0.2658 -0.2198  0.8821
  894MOL0     C20619  11.620   8.029   3.384 -0.3007  0.1467 -0.5413
  894MOL0     C20620  11.134   8.100   2.592 -0.1532 -0.4299 -0.4102
  894MOL0     C20621  11.143   8.196   2.491 -0.0789 -0.8573 -0.0866
  894MOL0     C20622  11.018   8.211   2.401  0.0164  0.4838  0.4559
  894MOL0     H20623  11.371   8.695   2.427 -2.2581 -1.4863 -0.2492
  894MOL0     H20624  11.400   8.896   2.265 -0.3955  0.9109 -4.0610
  894MOL0     H20625  11.615   8.837   1.899  0.9734  2.4383  2.7364
  894MOL0     H20626  11.453   8.841   1.826  0.7530 -0.6008 -0.0827
  894MOL0     H20627  11.590   9.021   1.747 -1.2984 -3.6425  0.0757
  894MOL0     H20628  11.640   9.064   1.918 -1.4839  2.8945  3.0936
  894MOL0     H20629  11.495   9.239   1.862  0.4125 -0.2013 -0.6819
  894MOL0     H20630  11.409   9.129   1.970  3.5401 -3.0682  0.8357
  894MOL0     H20631  11.375   9.150   1.665 -4.8671 -0.4179 -1.1109
  894MOL0     H20632  11.292   9.035   1.777 -1.2206  0.4736  0.4069
  894MOL0     H20633  11.180   9.242   1.877  0.0722 -0.2255  0.6610
  894MOL0     H20634  11.284   9.346   1.786 -0.5761 -0.1421 -0.8094
  894MOL0     H20635  11.178   9.254   1.579  2.7003 -1.4175  1.0189
  894MOL0     H20636  11.082   9.138   1.669  2.3347 -0.6804  0.0679
  894MOL0     H20637  10.999   9.364   1.587  0.2661 -2.5147  0.5584
  894MOL0     H20638  11.107   9.451   1.687  0.0757 -0.1317 -1.8643
  894MOL0     H20639  10.883   9.291   1.824 -1.5850  0.3006 -2.9615
  894MOL0     H20640  10.999   9.416   1.893  0.4335  0.9631 -1.3788
  894MOL0     H20641  10.676   9.362   1.725 -0.8153 -0.8711  1.8138
  894MOL0     H20642  10.472   9.472   1.667  0.7183 -0.4408 -1.0878
  894MOL0     H20643  10.438   9.602   1.765 -2.6033  0.5382 -1.9396
  894MOL0     H20644  10.392   9.712   1.557  0.6015  1.1072 -1.0980
  894MOL0     H20645  10.570   9.726   1.544  0.3003  0.1781 -0.7250
  894MOL0     H20646  10.401   9.615   1.355 -0.2962  1.8178 -0.1471
  894MOL0     H20647  10.440   9.465   1.445  4.3879 -1.7740 -0.9841
  894MOL0     H20648  10.660   9.632   1.328 -0.0538 -0.2820 -1.9236
  894MOL0     H20649  10.577   9.485   1.265 -1.5997  2.0297 -0.1274
  894MOL0     H20650  10.723   9.217   1.522  0.3066 -0.8695 -0.4748
  894MOL0     H20651  10.925   9.067   1.443 -1.7573 -0.3869 -0.2434
  894MOL0     H20652  11.226   8.944   1.118  0.0738  1.6714  0.6471
  894MOL0     H20653  11.434   8.795   1.063  0.5581 -1.3270 -0.0252
  894MOL0     H20654  11.605   8.618   1.390  1.8429  2.2011  0.5099
  894MOL0     H20655  11.523   8.533   1.247 -1.2243  1.9980 -1.6004
  894MOL0     H20656  11.706   8.407   1.335 -2.8296  1.1697 -0.3899
  894MOL0     H20657  11.732   8.460   1.167 -0.1273 -2.0996  0.0633
  894MOL0     H20658  11.889   8.639   1.239  3.3289 -1.2687 -0.2584
  894MOL0     H20659  11.837   8.621   1.397  0.2877  0.6067 -0.2634
  894MOL0     H20660  11.976   8.396   1.227  0.3786 -0.8738 -0.3181
  894MOL0     H20661  11.935   8.384   1.400 -0.4309  2.5315  2.2037
  894MOL0     H20662  12.101   8.535   1.455 -1.5326 -1.2276 -0.0610
  894MOL0     H20663  12.133   8.601   1.284  3.1641 -0.3481 -0.3618
  894MOL0     H20664  12.220   8.322   1.380  2.6817  0.5612  0.3763
  894MOL0     H20665  12.194   8.389   1.208 -3.8494  3.5058 -0.2318
  894MOL0     H20666  12.381   8.506   1.420 -1.0900  1.9980 -0.7301
  894MOL0     H20667  12.352   8.560   1.256  1.9144  0.5325  0.9630
  894MOL0     H20668  12.573   8.409   1.294 -0.5000  1.6024  0.0880
  894MOL0     H20669  12.458   8.282   1.326 -0.4865  0.2366  0.2723
  894MOL0     H20670  11.570   8.819   1.440  0.8754 -0.5901 -3.2347
  894MOL0     H20671  11.371   8.951   1.534 -0.4151  2.0527 -0.7057
  894MOL0     H20672  11.030   9.368   1.160  1.3061 -0.5751  0.5912
  894MOL0     H20673  10.824   9.500   1.219 -2.5139 -1.6248 -1.1961
  894MOL0     H20674  11.480   8.627   1.958  0.7092 -0.3105  0.5264
  894MOL0     H20675  11.470   8.430   2.114  1.2284 -0.4361  0.1599
  894MOL0     H20676  11.440   8.339   2.606  0.0765 -0.9239  1.5180
  894MOL0     H20677  11.419   8.157   2.766 -0.1460  2.3640  0.4884
  894MOL0     H20678  11.397   7.941   2.853  0.9285  3.8298  0.7336
  894MOL0     H20679  11.270   7.847   2.916 -0.6781 -0.0411  0.6576
  894MOL0     H20680  11.188   8.000   3.074  0.1937 -1.6646 -0.5418
  894MOL0     H20681  11.252   8.137   2.988  0.2296  0.7042 -0.7002
  894MOL0     H20682  11.494   8.050   3.048 -0.6766  1.4857 -0.2380
  894MOL0     H20683  11.418   7.899   3.108 -1.8911 -0.3150 -0.4134
  894MOL0     H20684  11.369   8.168   3.253 -1.6898 -0.8564 -1.8383
  894MOL0     H20685  11.315   8.007   3.295  1.9469 -0.0877  1.4003
  894MOL0     H20686  11.716   8.026   3.429  0.5514 -0.0804 -2.2769
  894MOL0     H20687  11.048   8.034   2.604  0.0087 -0.5417  0.1671
  894MOL0     H20688  10.939   8.140   2.426  0.8278 -0.0383  1.6340
  894MOL0     H20689  10.978   8.313   2.399 -1.4676 -0.0911 -0.0415
  894MOL0     H20690  11.047   8.182   2.300 -3.3305 -1.0600 -0.1819
  895MOL0     O20691   0.030  10.025   1.744 -0.3607  0.6281 -0.0594
  895MOL0     C20692  -0.008  10.074   1.856 -0.9065  0.1848 -0.3933
  895MOL0     O20693   0.078  10.128   1.959 -0.3709  0.1422 -0.4423
  895MOL0     C20694   0.205  10.085   1.953  0.2670  0.0449  0.4793
  895MOL0     C20695   0.314  10.176   1.915  0.1196  1.0128 -0.4459
  895MOL0     C20696   0.442  10.121   1.912  0.1016 -0.5480  0.3719
  895MOL0     C20697   0.468   9.996   1.964  0.4928 -1.5980  0.5072
  895MOL0     O20698   0.595   9.970   1.982  0.3309 -0.6251 -0.2866
  895MOL0     C20699   0.651   9.849   2.035  0.1914 -0.7829 -0.0551
  895MOL0     C20700   0.663   9.752   1.919 -0.0759  0.4793 -0.3241
  895MOL0     C20701   0.774   9.652   1.937 -0.9124  0.5875  0.4926
  895MOL0     C20702   0.905   9.737   1.925  0.0297  0.6347  0.6864
  895MOL0     C20703   1.017   9.647   1.955  0.0460 -0.7227  0.1194
  895MOL0     C20704   1.142   9.720   1.953 -0.2894  0.0802  1.1106
  895MOL0     C20705   1.262   9.626   1.983  0.4922 -0.1156 -0.5720
  895MOL0     C20706   1.361   9.617   1.872 -1.0423  1.2077  0.6045
  895MOL0     N20707   1.491   9.574   1.931  0.0186  0.1424 -0.1447
  895MOL0     C20708   1.528   9.445   1.932  0.2087  0.6932  0.3651
  895MOL0     C20709   1.653   9.443   1.985 -0.5786  0.1279 -0.0636
  895MOL0     C20710   1.735   9.335   2.046  0.2563  0.0614 -0.0379
  895MOL0     C20711   1.857   9.304   1.956  0.2053  0.0933 -0.6591
  895MOL0     C20712   1.965   9.235   2.044  0.1690 -0.0911  0.3635
  895MOL0     C20713   2.101   9.211   1.975 -0.1226 -0.5285 -0.6193
  895MOL0     O20714   2.085   9.088   1.901  0.1516  1.1703 -0.2252
  895MOL0     C20715   2.194   9.038   1.831 -0.9966  0.0312  0.8631
  895MOL0     C20716   2.317   9.105   1.808 -0.1494 -0.2258  0.2365
  895MOL0     C20717   2.428   9.050   1.732 -0.2993 -0.8153 -0.2705
  895MOL0     C20718   2.414   8.929   1.671  1.2486  0.0920  0.2966
  895MOL0     C20719   2.522   8.876   1.598  0.0237 -0.2715 -0.5471
  895MOL0     O20720   2.641   8.953   1.590  0.5405 -0.0933 -0.3580
  895MOL0     C20721   2.736   8.922   1.495  0.3413 -0.9551  0.1794
  895MOL0     C20722   2.696   8.927   1.360 -0.0947 -0.1346  0.1038
  895MOL0     C20723   2.797   8.891   1.267 -0.2755 -0.5458  0.4511
  895MOL0     C20724   2.936   8.878   1.307  0.5742 -0.2101  0.6264
  895MOL0     O20725   3.036   8.856   1.212  0.3774  0.0280  0.4748
  895MOL0     C20726   2.998   8.849   1.079 -0.4689 -0.2935  0.1765
  895MOL0     C20727   3.122   8.810   1.001 -0.0733  0.0166  0.5775
  895MOL0     C20728   3.236   8.911   1.000 -1.3415  0.0826  0.3450
  895MOL0     C20729   3.352   8.869   0.898  0.1383 -0.3677  0.7254
  895MOL0     C20730   3.490   8.948   0.920 -0.1179 -0.3654  0.3892
  895MOL0     C20731   3.591   8.938   0.803 -0.3323  0.3388 -0.0510
  895MOL0     C20732   3.650   8.799   0.768 -0.1372 -0.2867  1.1502
  895MOL0     C20733   3.719   8.742   0.893  0.8435  0.1183 -0.0712
  895MOL0    Cl20734   3.856   8.846   0.948 -0.4204 -0.0890  0.1311
  895MOL0     C20735   2.963   8.887   1.444  0.3017 -0.3434  0.1805
  895MOL0     C20736   2.860   8.907   1.543 -0.0026 -0.1319  0.6856
  895MOL0     O20737   2.507   8.765   1.545  0.5758  0.7737 -0.2670
  895MOL0     C20738   2.291   8.854   1.693 -0.0664  0.8614  1.0060
  895MOL0     C20739   2.191   8.909   1.772  0.1775  0.2257  0.3663
  895MOL0     N20740   1.698   9.576   2.004 -0.0189  0.4911  0.6863
  895MOL0     N20741   1.593   9.649   1.973 -0.0654  0.1190 -0.6343
  895MOL0     C20742   0.375   9.912   2.014 -0.2217 -0.7281 -1.1614
  895MOL0     C20743   0.241   9.952   1.995 -0.3400 -0.4854  0.6941
  895MOL0     C20744  -0.159  10.083   1.880  0.1290 -1.0936  0.6758
  895MOL0     C20745  -0.245   9.995   1.815  0.2568 -0.5852  0.0026
  895MOL0     C20746  -0.381   9.992   1.851  0.1703 -0.8599  0.0180
  895MOL0     C20747  -0.435  10.086   1.936  0.0260  0.5561  0.1761
  895MOL0     O20748  -0.572  10.089   1.963  0.4166 -0.9537 -0.4298
  895MOL0     C20749  -0.625   9.956   1.975 -0.3866  0.5383  0.2064
  895MOL0     C20750  -0.772   9.945   2.027 -0.1920 -0.7948  1.0727
  895MOL0     C20751  -0.876   9.995   1.922 -0.2547 -0.5759 -0.1923
  895MOL0     C20752  -1.014   9.986   1.994 -0.1432 -0.7126 -0.1153
  895MOL0     C20753  -1.070   9.853   1.982 -0.0489  0.2395 -0.3876
  895MOL0     C20754  -1.143   9.759   1.960 -0.3401  0.2496 -0.1802
  895MOL0     C20755  -0.353  10.182   1.994 -0.1450  0.5918  0.0575
  895MOL0     C20756  -0.215  10.181   1.965  0.5264 -0.6314  0.0529
  895MOL0     C20757  -0.140  10.301   2.013  0.1713  0.2336  0.0781
  895MOL0     H20758   0.294  10.277   1.881  0.2940  0.7017 -1.5238
  895MOL0     H20759   0.517  10.186   1.869 -0.8417  0.7170  0.5672
  895MOL0     H20760   0.745   9.894   2.070 -1.4866  1.6369  1.7076
  895MOL0     H20761   0.599   9.799   2.117 -2.1054  1.1284 -0.2147
  895MOL0     H20762   0.685   9.804   1.825  1.0324  0.8352  0.1173
  895MOL0     H20763   0.571   9.694   1.905  0.8641 -1.7075  1.9067
  895MOL0     H20764   0.763   9.577   1.858 -0.4552 -0.9532  1.8479
  895MOL0     H20765   0.762   9.599   2.032 -1.2183 -1.2802 -0.5447
  895MOL0     H20766   0.904   9.769   1.821 -2.3849 -0.6250  0.2541
  895MOL0     H20767   0.901   9.826   1.988 -2.5494  0.5349  0.7985
  895MOL0     H20768   0.997   9.611   2.056 -0.9770  4.0146  1.9126
  895MOL0     H20769   1.015   9.570   1.877 -0.4843 -2.8723  2.1547
  895MOL0     H20770   1.166   9.772   1.860  1.2325 -2.2960  0.1024
  895MOL0     H20771   1.126   9.798   2.028 -0.0132 -0.3975  1.6727
  895MOL0     H20772   1.239   9.525   2.019 -0.7562  0.0502 -0.8673
  895MOL0     H20773   1.323   9.682   2.055 -1.4423 -0.6666  1.6125
  895MOL0     H20774   1.328   9.550   1.792  0.1766 -0.3775  1.3861
  895MOL0     H20775   1.374   9.717   1.830 -2.3817  1.6420  1.1835
  895MOL0     H20776   1.461   9.360   1.922 -0.0325  0.7938  1.0322
  895MOL0     H20777   1.767   9.369   2.145 -2.8253  2.0975  0.3760
  895MOL0     H20778   1.669   9.249   2.055 -0.4617  0.6097 -0.0081
  895MOL0     H20779   1.830   9.233   1.878 -1.9408 -0.5721  0.6279
  895MOL0     H20780   1.906   9.390   1.910 -1.2033  0.9154 -0.6554
  895MOL0     H20781   1.930   9.144   2.094  0.0080  0.1788  0.7535
  895MOL0     H20782   1.989   9.292   2.135  0.6518 -0.8880  0.7458
  895MOL0     H20783   2.183   9.198   2.047 -0.0774 -1.5600 -0.8419
  895MOL0     H20784   2.122   9.290   1.903  0.5155 -0.8724 -0.8243
  895MOL0     H20785   2.315   9.204   1.852 -0.4354 -1.1852  2.5678
  895MOL0     H20786   2.517   9.108   1.713 -0.4155 -0.4517  0.2607
  895MOL0     H20787   2.589   8.923   1.348 -0.0788 -1.9117  0.3095
  895MOL0     H20788   2.767   8.898   1.163  0.0746  1.5073  0.4585
  895MOL0     H20789   2.921   8.773   1.066  1.4740 -2.1765 -1.1704
  895MOL0     H20790   2.957   8.939   1.032 -1.0020 -0.0120  1.1595
  895MOL0     H20791   3.162   8.711   1.026 -1.0792 -1.0337 -1.7259
  895MOL0     H20792   3.090   8.799   0.897  1.4772  2.4115 -0.2514
  895MOL0     H20793   3.209   9.013   0.972 -1.1187  1.6479  4.8816
  895MOL0     H20794   3.279   8.927   1.100  2.4958  0.9398 -1.2733
  895MOL0     H20795   3.309   8.888   0.799 -1.0592  1.0440  1.4614
  895MOL0     H20796   3.366   8.762   0.914  0.8617  0.0200  3.0204
  895MOL0     H20797   3.541   8.909   1.009  0.4971  0.4269  0.3896
  895MOL0     H20798   3.458   9.051   0.934 -3.4256 -1.4130  1.3157
  895MOL0     H20799   3.547   8.988   0.716 -3.8843  0.1229  1.4676
  895MOL0     H20800   3.680   8.996   0.830 -0.1433 -0.4037  0.9961
  895MOL0     H20801   3.727   8.812   0.692  0.2129 -3.0656  0.9242
  895MOL0     H20802   3.579   8.729   0.724  0.3149  1.2805 -2.3778
  895MOL0     H20803   3.640   8.734   0.968  0.6055 -0.1519 -0.3444
  895MOL0     H20804   3.754   8.639   0.880 -1.4311 -0.4362 -2.7473
  895MOL0     H20805   3.068   8.875   1.470  0.4508 -2.2749 -1.0737
  895MOL0     H20806   2.882   8.902   1.649  1.0018  1.2705  0.5656
  895MOL0     H20807   2.272   8.761   1.641  0.5658  0.7365  0.9937
  895MOL0     H20808   2.098   8.854   1.765  1.6080 -2.8134  2.8744
  895MOL0     H20809   0.411   9.817   2.053  1.8702  0.3036 -0.4634
  895MOL0     H20810   0.168   9.886   2.041 -2.8372  1.4168 -0.3495
  895MOL0     H20811  -0.196   9.930   1.744  1.3721  0.8170 -0.5591
  895MOL0     H20812  -0.441   9.923   1.793  0.4163  0.2240 -1.6168
  895MOL0     H20813  -0.558   9.895   2.036  1.9039 -1.2514 -3.6884
  895MOL0     H20814  -0.631   9.907   1.877 -2.8120 -0.6298  0.8796
  895MOL0     H20815  -0.777  10.014   2.112  2.0229  0.4157  0.3310
  895MOL0     H20816  -0.801   9.848   2.067 -0.0894 -0.4365  2.0588
  895MOL0     H20817  -0.867   9.935   1.830  2.2427 -0.8140  0.1433
  895MOL0     H20818  -0.846  10.097   1.899 -0.7616 -0.3480  0.1631
  895MOL0     H20819  -1.002  10.011   2.100 -2.3352 -0.9036  0.2330
  895MOL0     H20820  -1.083  10.064   1.960 -0.6283 -0.3592  1.5997
  895MOL0     H20821  -1.203   9.675   1.931  0.8488 -0.2276 -1.4070
  895MOL0     H20822  -0.383  10.253   2.070  2.7378  2.4634 -0.3836
  895MOL0     H20823  -0.193  10.392   2.045  0.3004  0.3148  0.0631
  895MOL0     H20824  -0.067  10.275   2.091 -1.4651 -0.3941  1.4583
  895MOL0     H20825  -0.084  10.332   1.924  0.6756 -3.8798 -1.2362
  896MOL0     O20826  10.859   4.373   0.633  0.0879  0.5972 -0.2461
  896MOL0     C20827  10.910   4.351   0.739  0.0632  0.4545 -0.5723
  896MOL0     O20828  11.042   4.345   0.778 -0.0249  0.1898  0.0427
  896MOL0     C20829  11.156   4.360   0.700 -0.3020  0.3825  0.1295
  896MOL0     C20830  11.169   4.399   0.567 -0.3062 -0.1179 -0.4440
  896MOL0     C20831  11.295   4.408   0.505 -0.1381 -0.8993  0.3804
  896MOL0     C20832  11.417   4.381   0.576  0.3297  0.3979 -0.2541
  896MOL0     O20833  11.538   4.410   0.521 -0.0484 -0.5065  0.5456
  896MOL0     C20834  11.555   4.373   0.387 -0.6941 -0.2443 -0.2592
  896MOL0     C20835  11.702   4.379   0.342 -0.0015  0.3276 -0.2467
  896MOL0     C20836  11.703   4.350   0.200 -0.1253 -0.1223 -0.3282
  896MOL0     C20837  11.763   4.209   0.179 -0.5262 -0.3724  0.0380
  896MOL0     C20838  11.809   4.167   0.030  0.2118 -0.8526 -0.6681
  896MOL0     C20839  11.892   4.265  -0.047  0.4854  0.0133  0.5630
  896MOL0     C20840  11.961   4.212  -0.184 -0.2965 -0.1986  0.0573
  896MOL0     C20841  11.865   4.154  -0.290  0.8274  0.1351  0.7655
  896MOL0     N20842  11.927   4.078  -0.398 -0.3035 -0.1758 -0.1878
  896MOL0     C20843  11.945   3.947  -0.390 -0.6237  0.4678  1.3363
  896MOL0     C20844  12.022   3.912  -0.496  0.8956  0.1533 -0.3532
  896MOL0     C20845  12.031   3.771  -0.548  0.2650 -0.0470 -0.0813
  896MOL0     C20846  12.038   3.657  -0.445  0.0443  0.4005 -0.4019
  896MOL0     C20847  12.080   3.519  -0.496  1.0559  0.5081  0.2211
  896MOL0     C20848  12.232   3.503  -0.521  0.2257  0.3913  0.3067
  896MOL0     O20849  12.279   3.467  -0.395 -0.1448 -0.3204  0.1028
  896MOL0     C20850  12.411   3.488  -0.377 -0.5145 -0.1078  0.4636
  896MOL0     C20851  12.506   3.491  -0.483  0.1281 -0.7533  0.3183
  896MOL0     C20852  12.630   3.543  -0.471 -0.8007 -0.1869  0.6776
  896MOL0     C20853  12.683   3.577  -0.348 -0.2323 -0.2969 -0.0944
  896MOL0     C20854  12.822   3.624  -0.335  0.6027 -0.2036 -0.1038
  896MOL0     O20855  12.872   3.640  -0.211 -0.4096 -0.8469  0.6373
  896MOL0     C20856  13.002   3.676  -0.172  1.2351 -0.2201 -0.0586
  896MOL0     C20857  13.119   3.686  -0.252 -0.7796 -0.3867  0.0106
  896MOL0     C20858  13.250   3.723  -0.196 -0.1676 -0.2568  0.2558
  896MOL0     C20859  13.255   3.756  -0.057 -0.4453 -0.6369 -0.6801
  896MOL0     O20860  13.370   3.799   0.011  0.4335  0.0114  0.2214
  896MOL0     C20861  13.483   3.811  -0.057 -0.2051 -0.6562  0.5764
  896MOL0     C20862  13.595   3.847   0.028  0.3034  0.0218 -0.3035
  896MOL0     C20863  13.644   3.713   0.100 -0.0966  0.3826  0.3798
  896MOL0     C20864  13.767   3.756   0.181 -0.4029 -0.2576  0.4347
  896MOL0     C20865  13.732   3.792   0.327 -0.4222 -0.3123 -0.3577
  896MOL0     C20866  13.846   3.870   0.388 -0.3054  0.0165  0.8452
  896MOL0     C20867  13.804   3.973   0.491  0.5572  0.2287  0.8437
  896MOL0     C20868  13.917   4.063   0.514 -1.1312 -0.0666 -0.6047
  896MOL0    Cl20869  13.992   4.153   0.386 -0.3975  0.0072 -0.0261
  896MOL0     C20870  13.132   3.749   0.015  0.3007 -0.3214  0.6706
  896MOL0     C20871  13.014   3.705  -0.038 -0.4194 -0.4218  0.7651
  896MOL0     O20872  12.877   3.640  -0.441  0.4997 -0.3176  0.2183
  896MOL0     C20873  12.600   3.559  -0.235 -0.1271 -0.3944 -0.0858
  896MOL0     C20874  12.468   3.525  -0.254 -0.6873  1.1810  1.4240
  896MOL0     N20875  12.054   4.030  -0.566 -0.8495  0.1391 -0.3522
  896MOL0     N20876  11.992   4.128  -0.504  0.8333  0.2728  0.2616
  896MOL0     C20877  11.397   4.336   0.708  0.0994  0.0001  0.6666
  896MOL0     C20878  11.270   4.320   0.771 -0.9781  0.2169 -0.0732
  896MOL0     C20879  10.812   4.325   0.851 -0.4475  0.2042  0.7844
  896MOL0     C20880  10.735   4.201   0.857  0.1900  0.3877  0.5372
  896MOL0     C20881  10.649   4.179   0.961 -0.5078  0.3670  0.6524
  896MOL0     C20882  10.630   4.276   1.059  0.6748 -0.0904 -0.4498
  896MOL0     O20883  10.553   4.267   1.175  0.4976  0.4815 -0.1947
  896MOL0     C20884  10.491   4.141   1.216 -0.3471 -0.0262  0.0999
  896MOL0     C20885  10.383   4.163   1.319 -0.3793  0.6241 -0.7227
  896MOL0     C20886  10.416   4.237   1.447  0.1296 -0.4684 -0.1555
  896MOL0     C20887  10.488   4.145   1.550  0.4082  0.3752  0.1631
  896MOL0     C20888  10.550   4.228   1.651 -0.0768 -0.3700 -0.1397
  896MOL0     C20889  10.595   4.307   1.736  0.1189  0.4106 -0.8351
  896MOL0     C20890  10.714   4.393   1.060  0.4856 -0.1898 -0.0380
  896MOL0     C20891  10.806   4.421   0.960 -0.5480 -0.1801 -0.1920
  896MOL0     C20892  10.907   4.540   0.987 -0.3477  0.6687 -0.3984
  896MOL0     H20893  11.073   4.403   0.516 -0.8371 -2.8714  0.1995
  896MOL0     H20894  11.290   4.448   0.404 -0.4698  0.8365  1.0558
  896MOL0     H20895  11.512   4.273   0.376 -1.2939  0.0144 -0.3112
  896MOL0     H20896  11.492   4.435   0.323 -1.8624  0.2595  1.3281
  896MOL0     H20897  11.754   4.300   0.397 -1.1711  0.5074  1.1769
  896MOL0     H20898  11.742   4.479   0.361 -2.0332  0.8533  1.7140
  896MOL0     H20899  11.769   4.429   0.163  1.5949 -0.7401  1.2955
  896MOL0     H20900  11.605   4.355   0.151 -0.9579 -0.6026  1.2047
  896MOL0     H20901  11.859   4.195   0.231 -1.1401 -2.7796  0.6835
  896MOL0     H20902  11.685   4.142   0.217 -4.1514  3.8375  0.7572
  896MOL0     H20903  11.868   4.076   0.027 -0.7015 -1.5290  0.6822
  896MOL0     H20904  11.716   4.142  -0.023 -0.3747 -0.8858  0.3470
  896MOL0     H20905  11.828   4.348  -0.080 -1.7422 -1.8554 -0.0976
  896MOL0     H20906  11.977   4.298   0.013  1.4140  0.9297 -1.1985
  896MOL0     H20907  12.039   4.140  -0.158 -0.8099 -0.9186 -0.3570
  896MOL0     H20908  12.007   4.299  -0.231  1.4082 -2.1122 -2.0570
  896MOL0     H20909  11.792   4.082  -0.253 -1.2455  0.5783 -2.1038
  896MOL0     H20910  11.804   4.236  -0.329  3.9244  1.6201 -1.4669
  896MOL0     H20911  11.890   3.882  -0.322 -0.7899 -0.1887  0.5831
  896MOL0     H20912  11.937   3.749  -0.599  0.1725  4.2683 -2.2734
  896MOL0     H20913  12.109   3.777  -0.624  1.1986  1.1086  0.9246
  896MOL0     H20914  12.109   3.679  -0.364  1.2203 -2.0470 -0.6839
  896MOL0     H20915  11.937   3.644  -0.405  0.7950 -1.5464  1.0093
  896MOL0     H20916  12.028   3.501  -0.590 -0.9695  0.6381  1.2761
  896MOL0     H20917  12.047   3.440  -0.428  2.9078 -2.2367 -1.8120
  896MOL0     H20918  12.268   3.594  -0.571  0.4551  0.5991  0.8453
  896MOL0     H20919  12.241   3.411  -0.580 -1.6705 -0.9483  2.0051
  896MOL0     H20920  12.479   3.461  -0.584  1.2318 -2.5119  0.5023
  896MOL0     H20921  12.691   3.558  -0.559  1.3029  0.7335  2.1919
  896MOL0     H20922  13.107   3.671  -0.359  3.2901  0.0285 -0.6557
  896MOL0     H20923  13.331   3.723  -0.269  0.0851 -2.2497  0.4923
  896MOL0     H20924  13.503   3.721  -0.116  0.7562  0.3853 -0.7531
  896MOL0     H20925  13.466   3.887  -0.133 -0.1773 -0.7176  0.5072
  896MOL0     H20926  13.677   3.892  -0.031  1.4907  0.1564  1.3893
  896MOL0     H20927  13.559   3.920   0.100  0.9162 -1.3835  1.4849
  896MOL0     H20928  13.563   3.680   0.166  0.5420 -0.1071  0.9322
  896MOL0     H20929  13.674   3.626   0.040 -0.8137  1.7220 -2.0747
  896MOL0     H20930  13.826   3.839   0.142 -0.7993  0.4281  1.2722
  896MOL0     H20931  13.833   3.668   0.183 -1.2615 -0.9390 -0.3026
  896MOL0     H20932  13.704   3.704   0.386  2.6536  0.4445  2.5294
  896MOL0     H20933  13.645   3.856   0.315 -1.1835 -0.8522  1.7132
  896MOL0     H20934  13.931   3.817   0.432  1.2851  2.3772  0.8022
  896MOL0     H20935  13.891   3.927   0.306 -1.0019 -1.5555 -0.6802
  896MOL0     H20936  13.778   3.921   0.583 -0.1875  0.8724  1.0112
  896MOL0     H20937  13.720   4.033   0.455  1.6160  0.0147 -2.3012
  896MOL0     H20938  13.890   4.144   0.582  1.6161  1.7141 -1.4388
  896MOL0     H20939  13.999   4.014   0.567  0.1296 -0.2725 -2.6120
  896MOL0     H20940  13.132   3.774   0.121  1.1726 -1.7356  1.0311
  896MOL0     H20941  12.926   3.700   0.025 -2.6578  2.5574 -1.8155
  896MOL0     H20942  12.634   3.578  -0.134 -1.6046 -3.9337  1.2493
  896MOL0     H20943  12.394   3.517  -0.176 -1.0577 -1.6474  0.8699
  896MOL0     H20944  11.484   4.314   0.770 -0.8192  0.1536  2.0567
  896MOL0     H20945  11.263   4.297   0.877 -0.5947 -0.7804 -0.2513
  896MOL0     H20946  10.757   4.131   0.777  0.4940  3.0877 -1.9321
  896MOL0     H20947  10.613   4.078   0.975  0.6610  0.1986  2.8754
  896MOL0     H20948  10.573   4.079   1.253 -0.2723 -1.2952 -2.0407
  896MOL0     H20949  10.452   4.085   1.131 -0.7783  2.5476 -1.5069
  896MOL0     H20950  10.336   4.071   1.356  2.4345 -0.2295  1.0259
  896MOL0     H20951  10.311   4.231   1.273  0.3338  2.0435  0.1853
  896MOL0     H20952  10.318   4.266   1.486 -0.1275 -1.3112 -0.1545
  896MOL0     H20953  10.480   4.324   1.427  1.2995 -1.1262  0.5727
  896MOL0     H20954  10.416   4.080   1.600  1.5769 -1.7046 -0.7488
  896MOL0     H20955  10.560   4.079   1.502  0.4658  0.1685  0.5264
  896MOL0     H20956  10.617   4.380   1.811 -0.9395  0.5801 -0.6711
  896MOL0     H20957  10.712   4.458   1.147  2.5774 -0.5721  0.3705
  896MOL0     H20958  10.931   4.544   1.094  2.3251 -0.9387 -0.8531
  896MOL0     H20959  10.994   4.543   0.921 -1.3906 -0.6797 -1.9165
  896MOL0     H20960  10.854   4.634   0.974  0.9456  1.2573 -1.7077
  897MOL0     O20961   7.877   3.373   5.281 -0.2556 -0.0523  0.7857
  897MOL0     C20962   7.944   3.361   5.382  1.0732 -1.2601 -0.7926
  897MOL0     O20963   8.074   3.318   5.391  0.3221  0.0370 -0.0204
  897MOL0     C20964   8.157   3.269   5.283 -0.4679 -0.3472  0.5597
  897MOL0     C20965   8.267   3.192   5.327 -0.2122  0.2578 -0.2401
  897MOL0     C20966   8.368   3.148   5.235  0.1055  0.3326 -0.3798
  897MOL0     C20967   8.355   3.172   5.100 -0.4120 -0.1042  0.0023
  897MOL0     O20968   8.460   3.154   5.016 -0.2426 -0.8805  0.7923
  897MOL0     C20969   8.471   3.029   4.956 -0.4183  0.3670 -0.1382
  897MOL0     C20970   8.611   3.028   4.890 -0.0612  0.9138  0.6138
  897MOL0     C20971   8.635   3.161   4.800 -1.0263 -0.3258  0.3594
  897MOL0     C20972   8.519   3.179   4.694  0.0908  0.1353 -0.4245
  897MOL0     C20973   8.508   3.068   4.595  0.5931  0.3601 -0.5021
  897MOL0     C20974   8.645   3.029   4.541 -0.7810  0.7393  0.0308
  897MOL0     C20975   8.641   2.972   4.402  0.1443 -0.0614 -0.6652
  897MOL0     C20976   8.781   2.970   4.342  0.0575  1.4675  0.3626
  897MOL0     N20977   8.773   2.920   4.199  0.4410 -0.5118  0.4294
  897MOL0     C20978   8.664   2.930   4.111  0.0042  0.4924 -1.0827
  897MOL0     C20979   8.711   2.864   4.007  0.3466 -0.8229 -0.3470
  897MOL0     C20980   8.647   2.824   3.878 -0.2759  0.7288  0.5324
  897MOL0     C20981   8.696   2.919   3.767  0.0319  1.0697 -0.9621
  897MOL0     C20982   8.666   2.852   3.634 -0.3795 -0.3176 -0.0886
  897MOL0     C20983   8.686   2.954   3.528 -0.6560  0.7035  0.1815
  897MOL0     O20984   8.614   2.912   3.410  0.2422  0.1903 -0.4130
  897MOL0     C20985   8.684   2.863   3.299 -0.4182 -0.6983 -0.2950
  897MOL0     C20986   8.753   2.742   3.299  0.3443  0.2872 -0.5292
  897MOL0     C20987   8.824   2.704   3.187  0.4950 -0.3591 -0.3116
  897MOL0     C20988   8.847   2.792   3.083  0.2358  0.3580  0.8556
  897MOL0     C20989   8.919   2.755   2.970 -0.8268 -0.6386  0.8900
  897MOL0     O20990   8.903   2.835   2.859 -0.6992  0.4681 -0.3584
  897MOL0     C20991   8.956   2.783   2.748  0.9150  0.9353  0.8410
  897MOL0     C20992   8.888   2.698   2.655  0.6089 -0.2106  0.2755
  897MOL0     C20993   8.936   2.659   2.539  0.6656 -0.4500  1.1628
  897MOL0     C20994   9.070   2.707   2.503 -0.0818 -0.7833  0.1674
  897MOL0     O20995   9.134   2.673   2.386 -0.0421 -0.4810 -0.1746
  897MOL0     C20996   9.069   2.616   2.277  0.3487  0.1299  0.9272
  897MOL0     C20997   9.166   2.574   2.172 -0.7123  0.5994 -0.4442
  897MOL0     C20998   9.240   2.683   2.101 -0.1306 -0.3881 -0.2843
  897MOL0     C20999   9.363   2.619   2.016 -0.6512 -0.7668 -0.0724
  897MOL0     C21000   9.472   2.726   1.968 -0.4990  0.4156 -0.5994
  897MOL0     C21001   9.558   2.784   2.082  0.8168  0.0981  0.0238
  897MOL0     C21002   9.665   2.688   2.133 -0.3941  0.5302  0.8553
  897MOL0     C21003   9.714   2.724   2.275 -0.4135 -0.4937 -0.4860
  897MOL0    Cl21004   9.832   2.610   2.342 -0.2115  0.4895 -0.0285
  897MOL0     C21005   9.130   2.801   2.584  0.6950  0.2041 -0.5646
  897MOL0     C21006   9.079   2.842   2.709 -0.4014  0.0322 -0.0429
  897MOL0     O21007   8.969   2.649   2.972 -0.5773 -0.4534  0.1451
  897MOL0     C21008   8.778   2.920   3.082  0.5961 -0.3444  0.2567
  897MOL0     C21009   8.710   2.952   3.197 -0.0613  0.0057 -0.9855
  897MOL0     N21010   8.845   2.822   4.013  0.3763 -0.3230 -0.9230
  897MOL0     N21011   8.875   2.857   4.128  0.7677 -0.2131 -0.6801
  897MOL0     C21012   8.241   3.246   5.060  0.6489 -0.0442  0.0535
  897MOL0     C21013   8.143   3.293   5.141  0.6316 -0.1618  0.4742
  897MOL0     C21014   7.892   3.425   5.502  0.0963 -0.6003  0.2709
  897MOL0     C21015   7.951   3.549   5.547 -0.1623 -0.1313 -0.5867
  897MOL0     C21016   7.896   3.617   5.658 -0.0839 -0.0606 -0.4527
  897MOL0     C21017   7.779   3.569   5.726 -0.3659  0.9303  0.6456
  897MOL0     O21018   7.745   3.618   5.850  1.0930  0.5812  0.0885
  897MOL0     C21019   7.690   3.753   5.840  0.3915  0.7047  0.0238
  897MOL0     C21020   7.707   3.823   5.972  0.4089  0.3591 -0.2046
  897MOL0     C21021   7.649   3.966   5.993  0.2356  0.4346 -0.4335
  897MOL0     C21022   7.518   3.979   6.072 -0.1317 -0.2321  0.9252
  897MOL0     C21023   7.408   3.896   6.022  0.1792 -0.5863 -0.1095
  897MOL0     C21024   7.339   3.810   5.984 -0.1045 -0.3344 -0.0951
  897MOL0     C21025   7.726   3.447   5.680  0.4913 -0.2162 -0.1171
  897MOL0     C21026   7.781   3.375   5.563  0.2770 -0.7336  0.3414
  897MOL0     C21027   7.706   3.250   5.533 -0.5761 -0.5614 -0.3828
  897MOL0     H21028   8.279   3.167   5.432  2.4261  0.3031 -0.4724
  897MOL0     H21029   8.465   3.109   5.267  0.1634 -0.3418 -1.3195
  897MOL0     H21030   8.478   2.956   5.037  0.5711  2.4348  1.7225
  897MOL0     H21031   8.390   3.007   4.886 -1.4122  0.5497  0.9182
  897MOL0     H21032   8.623   2.933   4.837 -0.7128  0.8322  0.6135
  897MOL0     H21033   8.680   3.020   4.975 -3.5987 -1.6012  3.5068
  897MOL0     H21034   8.734   3.151   4.754 -1.4138  0.0700 -0.5841
  897MOL0     H21035   8.638   3.244   4.871  2.3196 -1.6236  1.9437
  897MOL0     H21036   8.423   3.205   4.741  0.7038 -0.9017  1.5091
  897MOL0     H21037   8.544   3.259   4.625 -2.6591 -0.7015 -2.5754
  897MOL0     H21038   8.465   2.982   4.647 -1.7042  2.0108  0.4840
  897MOL0     H21039   8.443   3.090   4.510 -0.7467 -2.9819 -0.4643
  897MOL0     H21040   8.714   3.115   4.545  1.7604 -1.1409 -0.5373
  897MOL0     H21041   8.690   2.951   4.603  0.5711  2.0031  0.6992
  897MOL0     H21042   8.585   3.049   4.348 -1.8269  0.9556  2.5780
  897MOL0     H21043   8.583   2.879   4.397 -3.5922  2.1069 -1.7094
  897MOL0     H21044   8.841   3.062   4.346 -0.5724  2.0613 -1.9954
  897MOL0     H21045   8.840   2.893   4.392 -2.4339 -0.6029  0.2926
  897MOL0     H21046   8.572   2.982   4.136  0.3242  0.3574  0.4496
  897MOL0     H21047   8.679   2.721   3.864 -0.2119  0.4228  2.7039
  897MOL0     H21048   8.538   2.816   3.879 -0.2251 -0.2944  3.0937
  897MOL0     H21049   8.645   3.014   3.785 -0.9612  0.8133 -2.2119
  897MOL0     H21050   8.804   2.933   3.776  0.6954 -3.9392  2.4296
  897MOL0     H21051   8.572   2.797   3.626 -0.4967 -0.0691 -0.4165
  897MOL0     H21052   8.750   2.786   3.612  0.0143 -0.0635  0.6245
  897MOL0     H21053   8.792   2.975   3.511 -0.5737  0.3367  0.2164
  897MOL0     H21054   8.631   3.043   3.559 -2.6797  0.8155 -3.2930
  897MOL0     H21055   8.743   2.674   3.383  2.8749  2.7843  2.0732
  897MOL0     H21056   8.870   2.605   3.192  0.2882 -0.4557 -0.2884
  897MOL0     H21057   8.793   2.665   2.697 -0.1185 -1.0892 -1.8914
  897MOL0     H21058   8.892   2.586   2.471 -1.2015  1.3157  0.3642
  897MOL0     H21059   9.013   2.526   2.305 -2.6145  1.7550  0.5829
  897MOL0     H21060   8.998   2.679   2.223  0.0808 -1.0984 -0.2044
  897MOL0     H21061   9.245   2.505   2.202 -2.3167 -1.3217 -0.4136
  897MOL0     H21062   9.114   2.517   2.094 -0.8163 -1.1340  0.8294
  897MOL0     H21063   9.174   2.737   2.032 -0.7482  1.5606  1.6971
  897MOL0     H21064   9.265   2.753   2.181 -0.9623 -0.9239  0.4660
  897MOL0     H21065   9.322   2.571   1.926 -0.3023  3.0472 -2.4628
  897MOL0     H21066   9.417   2.535   2.062 -1.5642 -2.1757 -1.4600
  897MOL0     H21067   9.428   2.810   1.915  0.9649  1.2562 -0.5113
  897MOL0     H21068   9.538   2.684   1.892  0.1587  2.0684 -0.9781
  897MOL0     H21069   9.605   2.875   2.043  1.2382 -0.0690  0.1373
  897MOL0     H21070   9.498   2.812   2.169 -0.3921 -0.1696 -0.7046
  897MOL0     H21071   9.751   2.706   2.067  0.2168  1.9349  1.9636
  897MOL0     H21072   9.648   2.581   2.126  1.2512  0.1889  1.5728
  897MOL0     H21073   9.768   2.818   2.263  0.4456 -1.0798 -1.4189
  897MOL0     H21074   9.636   2.724   2.352  1.3189 -0.7039  1.3270
  897MOL0     H21075   9.229   2.842   2.563  0.2561  1.3612 -0.4469
  897MOL0     H21076   9.127   2.918   2.770  3.2400 -2.2202  0.1755
  897MOL0     H21077   8.761   2.988   2.999  0.3487  1.3803  1.6689
  897MOL0     H21078   8.664   3.050   3.196 -2.1105 -0.9069 -1.2195
  897MOL0     H21079   8.234   3.260   4.953  1.8047 -1.0098 -0.1647
  897MOL0     H21080   8.048   3.325   5.099  0.2726  0.7759  1.9332
  897MOL0     H21081   8.042   3.579   5.495 -0.2474 -1.1788 -1.3698
  897MOL0     H21082   7.959   3.691   5.706 -3.4281  2.9927 -0.3869
  897MOL0     H21083   7.582   3.741   5.822 -0.2436 -0.9990  4.0483
  897MOL0     H21084   7.728   3.815   5.758 -0.8497 -1.4925 -2.3721
  897MOL0     H21085   7.816   3.822   5.984  0.5952 -0.0516 -1.7738
  897MOL0     H21086   7.664   3.757   6.048 -1.7662  3.5418  1.5950
  897MOL0     H21087   7.620   4.009   5.897 -0.9300 -0.9784 -0.7506
  897MOL0     H21088   7.730   4.029   6.031  2.2379 -0.9481 -2.1795
  897MOL0     H21089   7.538   3.934   6.170  1.0639 -1.4375  0.1573
  897MOL0     H21090   7.489   4.084   6.076  1.6036  0.4793 -2.1111
  897MOL0     H21091   7.274   3.731   5.954  1.1879 -1.3987 -0.2177
  897MOL0     H21092   7.632   3.420   5.727 -0.4139  1.6991 -0.7213
  897MOL0     H21093   7.607   3.241   5.579 -2.5590 -3.2048 -4.5937
  897MOL0     H21094   7.671   3.245   5.429 -2.2757 -0.4429  0.1488
  897MOL0     H21095   7.764   3.160   5.555 -1.1293 -1.1050 -1.0972
  898MOL0     O21096   8.482   2.748   1.556 -0.3059  0.5492  0.7139
  898MOL0     C21097   8.409   2.659   1.519 -0.3719 -0.1771 -0.4869
  898MOL0     O21098   8.409   2.614   1.390 -0.4666  0.7313 -0.6327
  898MOL0     C21099   8.514   2.635   1.303  0.2004 -0.0933 -0.9644
  898MOL0     C21100   8.478   2.634   1.168 -0.5479  0.3911 -0.3253
  898MOL0     C21101   8.575   2.642   1.064  0.3409  0.4925 -1.0663
  898MOL0     C21102   8.708   2.660   1.096  0.4078 -0.2032  0.8131
  898MOL0     O21103   8.789   2.679   0.990 -1.0556  0.6530 -0.3177
  898MOL0     C21104   8.925   2.694   1.020 -0.6429  0.1550 -0.1913
  898MOL0     C21105   8.996   2.754   0.895 -0.1634 -0.4805 -0.5799
  898MOL0     C21106   9.144   2.765   0.927 -0.0392 -0.5899  0.4281
  898MOL0     C21107   9.232   2.801   0.804 -0.0867  0.2258  0.6789
  898MOL0     C21108   9.388   2.812   0.829  0.0930 -0.0271  0.7953
  898MOL0     C21109   9.462   2.826   0.701 -0.2176  0.0040 -0.4487
  898MOL0     C21110   9.611   2.836   0.736 -0.6350 -0.2968  0.2393
  898MOL0     C21111   9.705   2.831   0.612  0.5462 -0.1747 -0.8671
  898MOL0     N21112   9.843   2.849   0.651 -0.1987 -0.3372 -0.7721
  898MOL0     C21113   9.914   2.966   0.640 -0.4867  0.3304  0.7900
  898MOL0     C21114  10.039   2.936   0.678 -0.3108  0.0479  0.6908
  898MOL0     C21115  10.152   3.032   0.681 -0.6684 -0.4014 -0.4304
  898MOL0     C21116  10.231   3.028   0.546  0.8040  0.0915  0.8109
  898MOL0     C21117  10.346   3.135   0.552 -0.9588  0.7141  1.1416
  898MOL0     C21118  10.428   3.141   0.424  0.3192  0.2850  0.4630
  898MOL0     O21119  10.510   3.026   0.391 -0.1755  0.6926  0.6236
  898MOL0     C21120  10.477   2.960   0.278  0.6733 -1.0860 -0.0311
  898MOL0     C21121  10.431   2.831   0.282 -0.2736  0.2901  0.0815
  898MOL0     C21122  10.402   2.757   0.165  0.2297 -0.0766  0.2405
  898MOL0     C21123  10.406   2.819   0.040 -0.4701  0.4391  0.6186
  898MOL0     C21124  10.370   2.748  -0.086  0.3798  0.8833 -0.4960
  898MOL0     O21125  10.390   2.612  -0.085  0.7014  0.1457 -0.6518
  898MOL0     C21126  10.286   2.542  -0.145 -0.2814 -0.1405 -0.6602
  898MOL0     C21127  10.147   2.576  -0.120 -0.1691 -0.5305  0.9456
  898MOL0     C21128  10.048   2.499  -0.182 -0.5177  0.2872 -0.2446
  898MOL0     C21129  10.080   2.392  -0.267 -0.0362  0.1732  0.7685
  898MOL0     O21130   9.968   2.337  -0.326 -0.3035  0.3700 -1.1965
  898MOL0     C21131   9.989   2.278  -0.453 -0.0936  0.3316 -1.1783
  898MOL0     C21132   9.873   2.294  -0.541 -0.2833 -0.2490  0.0313
  898MOL0     C21133   9.866   2.208  -0.669 -1.3440  0.0894  0.2513
  898MOL0     C21134  10.004   2.198  -0.737 -0.7097  0.3570 -0.3696
  898MOL0     C21135  10.005   2.132  -0.870  0.8830 -0.1058  0.2922
  898MOL0     C21136  10.143   2.075  -0.908 -0.8387 -0.1522  0.1276
  898MOL0     C21137  10.185   1.938  -0.846  0.9860  0.4602 -0.4906
  898MOL0     C21138  10.305   1.860  -0.905  0.1550 -0.2461 -0.0184
  898MOL0    Cl21139  10.431   1.983  -0.918  0.1751 -0.6648 -0.1084
  898MOL0     C21140  10.221   2.350  -0.293  0.2595 -0.2662  0.1347
  898MOL0     C21141  10.319   2.431  -0.224  0.6394 -0.6464 -0.1171
  898MOL0     O21142  10.322   2.814  -0.176 -0.0314 -0.2977 -0.3859
  898MOL0     C21143  10.456   2.950   0.033 -0.1818  0.0767 -0.3291
  898MOL0     C21144  10.493   3.015   0.152  0.2978  0.2620 -0.0721
  898MOL0     N21145  10.039   2.804   0.712 -1.1692  0.4594  0.3655
  898MOL0     N21146   9.925   2.750   0.700 -0.4160  0.2816  0.8747
  898MOL0     C21147   8.744   2.684   1.236  0.2422 -0.1032 -0.6092
  898MOL0     C21148   8.649   2.658   1.335  0.2817  0.5774 -0.7085
  898MOL0     C21149   8.302   2.616   1.613 -0.4034  0.1133 -0.0212
  898MOL0     C21150   8.171   2.613   1.554  0.9121 -0.3164  0.0644
  898MOL0     C21151   8.068   2.544   1.625  0.0532 -0.1220 -0.1559
  898MOL0     C21152   8.094   2.486   1.749 -0.7660  0.1123 -0.7714
  898MOL0     O21153   8.002   2.422   1.839  0.0067 -0.2768  0.4947
  898MOL0     C21154   7.895   2.359   1.779  0.6100  0.4263 -0.4381
  898MOL0     C21155   7.836   2.250   1.874  0.4090 -0.3198  0.1465
  898MOL0     C21156   7.924   2.127   1.881 -0.8584  1.3722  0.1108
  898MOL0     C21157   7.861   1.990   1.918 -0.1505  0.4021 -0.3227
  898MOL0     C21158   7.778   1.935   1.810  0.7297  0.0688  0.9238
  898MOL0     C21159   7.716   1.885   1.716 -1.1972  0.1983  0.8961
  898MOL0     C21160   8.226   2.510   1.803  0.7991 -0.5575 -0.1912
  898MOL0     C21161   8.330   2.567   1.733 -0.7483  0.2344 -0.0948
  898MOL0     C21162   8.471   2.563   1.804 -0.3958 -0.2607  0.6158
  898MOL0     H21163   8.373   2.611   1.148 -0.3205 -0.3997 -0.6817
  898MOL0     H21164   8.533   2.630   0.964 -2.1893  0.7800 -0.1116
  898MOL0     H21165   8.940   2.754   1.110  1.0588 -0.1617 -0.2336
  898MOL0     H21166   8.971   2.596   1.037  0.4840  0.6744 -0.1218
  898MOL0     H21167   8.951   2.851   0.875  0.7407  0.4860  1.7636
  898MOL0     H21168   8.983   2.687   0.809 -2.7421  1.4180 -1.7815
  898MOL0     H21169   9.189   2.671   0.962 -2.2364 -1.4569  1.0637
  898MOL0     H21170   9.164   2.845   0.999 -0.2827 -1.6606  1.7291
  898MOL0     H21171   9.214   2.710   0.747  0.4967 -0.6715  1.8911
  898MOL0     H21172   9.173   2.883   0.761 -2.8434 -2.0685 -0.2469
  898MOL0     H21173   9.394   2.901   0.892  1.0995  1.4232 -1.2288
  898MOL0     H21174   9.424   2.726   0.885 -0.9809 -1.2606 -0.3480
  898MOL0     H21175   9.449   2.742   0.633  3.7695 -1.1404 -0.0417
  898MOL0     H21176   9.439   2.919   0.647  0.9020 -0.8076 -2.4142
  898MOL0     H21177   9.634   2.753   0.804 -2.2136 -1.8571 -1.0313
  898MOL0     H21178   9.630   2.933   0.782 -1.9734  1.1386 -2.0548
  898MOL0     H21179   9.681   2.741   0.555 -1.9562  0.7427 -1.3925
  898MOL0     H21180   9.664   2.910   0.548 -2.9264  0.4155  1.8007
  898MOL0     H21181   9.889   3.063   0.599 -1.7726 -1.0414 -1.9443
  898MOL0     H21182  10.116   3.132   0.703  0.3036 -0.0081 -0.5743
  898MOL0     H21183  10.226   2.999   0.755  0.6467  3.7848  0.3815
  898MOL0     H21184  10.274   2.930   0.526 -1.3482 -0.5576 -1.0485
  898MOL0     H21185  10.168   3.044   0.458  2.7949  1.9997 -0.3503
  898MOL0     H21186  10.421   3.114   0.629  0.6575  0.9662 -0.3005
  898MOL0     H21187  10.292   3.230   0.564 -0.3003  1.3452 -0.6494
  898MOL0     H21188  10.503   3.220   0.433 -0.3673  1.0020  0.0651
  898MOL0     H21189  10.363   3.177   0.344  1.0290 -1.2839 -0.8673
  898MOL0     H21190  10.416   2.785   0.379  1.6380  0.5086  0.5118
  898MOL0     H21191  10.377   2.654   0.190 -0.5647  0.9188  4.3035
  898MOL0     H21192  10.127   2.668  -0.066  1.3287 -0.1659  0.9255
  898MOL0     H21193   9.941   2.520  -0.184 -1.4161 -3.5328  0.1148
  898MOL0     H21194  10.072   2.333  -0.500  1.3908  0.0104  0.9025
  898MOL0     H21195  10.019   2.173  -0.452 -0.3138  0.2241  1.7906
  898MOL0     H21196   9.779   2.285  -0.485  0.6288  0.3363  1.7370
  898MOL0     H21197   9.871   2.400  -0.569 -3.4970  0.5101  2.4634
  898MOL0     H21198   9.828   2.112  -0.634 -1.0750 -0.7711 -1.7252
  898MOL0     H21199   9.799   2.253  -0.743 -0.4246  0.0202 -0.6441
  898MOL0     H21200  10.067   2.136  -0.673  0.3535 -0.3137 -2.0080
  898MOL0     H21201  10.050   2.295  -0.755  1.0635 -0.2824  0.5044
  898MOL0     H21202   9.976   2.201  -0.950 -0.9974 -0.6225  0.4898
  898MOL0     H21203   9.935   2.049  -0.866  1.5879 -0.7607 -0.6431
  898MOL0     H21204  10.136   2.062  -1.016 -1.0436 -1.9139  0.3278
  898MOL0     H21205  10.225   2.146  -0.892  0.2453 -1.1721 -0.7480
  898MOL0     H21206  10.098   1.872  -0.843  1.6318 -0.3864  1.0119
  898MOL0     H21207  10.200   1.964  -0.740 -1.6727  3.6889 -0.7546
  898MOL0     H21208  10.323   1.776  -0.837 -0.4510  2.3852  3.7006
  898MOL0     H21209  10.283   1.824  -1.006  2.3155 -1.0112 -0.2607
  898MOL0     H21210  10.247   2.274  -0.366 -0.0008  2.1557 -2.6512
  898MOL0     H21211  10.424   2.404  -0.230  0.6288 -0.7415  0.1026
  898MOL0     H21212  10.468   3.016  -0.053 -0.8659  0.6262 -0.0187
  898MOL0     H21213  10.526   3.119   0.150 -1.8773  1.0284  0.5409
  898MOL0     H21214   8.847   2.711   1.258  0.1629  0.0689 -0.4469
  898MOL0     H21215   8.675   2.676   1.439  0.5585  2.0483 -1.0130
  898MOL0     H21216   8.152   2.656   1.456 -1.5000  0.1772  0.6909
  898MOL0     H21217   7.967   2.548   1.585  0.4874  2.3962 -1.1955
  898MOL0     H21218   7.907   2.317   1.679 -0.1302  0.7006 -0.6465
  898MOL0     H21219   7.823   2.440   1.767  2.8931  2.7418  0.5680
  898MOL0     H21220   7.747   2.212   1.824  0.3901  1.0199 -0.8563
  898MOL0     H21221   7.813   2.287   1.975  1.3756 -3.4855  1.6780
  898MOL0     H21222   8.007   2.149   1.949  0.3317 -2.4437  0.1105
  898MOL0     H21223   7.970   2.103   1.785  2.8731  2.1480  1.5561
  898MOL0     H21224   7.936   1.912   1.938 -1.3643 -0.7995 -0.3149
  898MOL0     H21225   7.795   1.996   2.005  2.2468  0.8640  1.5837
  898MOL0     H21226   7.661   1.824   1.647  1.9676 -0.7946 -0.9339
  898MOL0     H21227   8.244   2.466   1.900 -2.4147 -0.6036  0.4961
  898MOL0     H21228   8.454   2.605   1.904  1.6028 -1.9323  1.7243
  898MOL0     H21229   8.519   2.465   1.808  0.8718  0.1660 -1.8938
  898MOL0     H21230   8.553   2.618   1.757 -1.0047 -1.1645 -1.6543
  899MOL0     O21231   3.158   1.992   6.451 -0.1904 -0.8999 -0.0660
  899MOL0     C21232   3.121   1.974   6.568 -0.5916  0.4764 -0.2596
  899MOL0     O21233   3.202   1.917   6.663 -0.4415 -0.0781  0.5881
  899MOL0     C21234   3.334   1.954   6.660 -0.3729 -0.0596  0.2675
  899MOL0     C21235   3.382   2.071   6.727 -0.7219 -0.2516  0.4622
  899MOL0     C21236   3.518   2.101   6.724 -0.0248 -0.4859 -0.6512
  899MOL0     C21237   3.617   2.027   6.661 -0.6293  0.5075  0.5272
  899MOL0     O21238   3.745   2.072   6.665 -0.1898 -0.0368  0.2087
  899MOL0     C21239   3.831   2.035   6.547 -0.4207 -0.2381 -0.5823
  899MOL0     C21240   3.927   2.156   6.551 -0.8259 -0.1208 -0.6847
  899MOL0     C21241   4.030   2.144   6.439 -0.1378 -0.8143  0.7624
  899MOL0     C21242   4.135   2.252   6.451 -0.4026  0.6215 -1.5202
  899MOL0     C21243   4.257   2.235   6.362 -0.9507  1.0435  0.7792
  899MOL0     C21244   4.361   2.128   6.406  0.0461  0.2824  0.0814
  899MOL0     C21245   4.477   2.107   6.306 -0.3005  0.4154 -0.5930
  899MOL0     C21246   4.441   2.030   6.187  0.2509  0.6699 -0.4779
  899MOL0     N21247   4.562   1.997   6.106 -0.7248 -0.0487  0.5548
  899MOL0     C21248   4.680   1.937   6.150 -0.0217 -1.0055 -0.2050
  899MOL0     C21249   4.766   1.967   6.056 -0.0853  0.5394  0.6044
  899MOL0     C21250   4.906   1.929   6.074 -0.1158  0.1537 -0.7369
  899MOL0     C21251   4.996   1.944   5.956  0.1728 -0.0046 -0.1628
  899MOL0     C21252   5.045   2.087   5.959 -0.5078  0.0745 -0.8870
  899MOL0     C21253   5.114   2.136   5.829  0.0675  0.6626  0.0802
  899MOL0     O21254   5.165   2.266   5.842 -0.7951  0.1012  0.9759
  899MOL0     C21255   5.262   2.277   5.936 -0.1791  0.0080  0.4594
  899MOL0     C21256   5.232   2.356   6.054  0.1393  0.4180  0.1432
  899MOL0     C21257   5.330   2.379   6.154  1.1211  0.2358 -0.3462
  899MOL0     C21258   5.457   2.330   6.140 -0.4065  0.1307  0.8948
  899MOL0     C21259   5.568   2.355   6.239  0.0976 -0.6727  0.6689
  899MOL0     O21260   5.548   2.461   6.330 -0.2190 -0.6267  0.1935
  899MOL0     C21261   5.654   2.506   6.408 -0.9624 -0.8314 -0.6553
  899MOL0     C21262   5.619   2.587   6.516 -0.2606 -0.0134 -0.2808
  899MOL0     C21263   5.702   2.635   6.616  0.0901 -0.8549 -0.0755
  899MOL0     C21264   5.839   2.617   6.597 -0.7062 -0.1306  0.6418
  899MOL0     O21265   5.922   2.697   6.678  1.2739 -0.6242 -0.4437
  899MOL0     C21266   6.059   2.668   6.703  0.2277  0.0874 -0.9075
  899MOL0     C21267   6.157   2.785   6.696  0.5049  0.2471 -0.4963
  899MOL0     C21268   6.178   2.846   6.555 -0.2567 -0.7034  0.2974
  899MOL0     C21269   6.243   2.993   6.557  0.0012 -0.0376 -0.5568
  899MOL0     C21270   6.386   2.981   6.620 -0.3712  0.7029 -0.8697
  899MOL0     C21271   6.444   3.113   6.637 -0.4738  0.3626  0.8722
  899MOL0     C21272   6.593   3.117   6.663  0.1070  0.0815 -0.4373
  899MOL0     C21273   6.630   3.058   6.800 -0.1395 -0.1559  0.9224
  899MOL0    Cl21274   6.793   3.051   6.826  0.3609 -0.0505  0.4455
  899MOL0     C21275   5.899   2.555   6.482  0.5239 -0.0300  1.0954
  899MOL0     C21276   5.800   2.491   6.391 -0.5458 -0.5789  0.1510
  899MOL0     O21277   5.678   2.292   6.234  0.5046  0.6005  0.6893
  899MOL0     C21278   5.485   2.255   6.029  0.1014  0.7554  0.3005
  899MOL0     C21279   5.384   2.218   5.933 -0.2150  0.4922  0.5228
  899MOL0     N21280   4.706   2.041   5.960 -0.0275 -1.1109  1.1079
  899MOL0     N21281   4.584   2.053   5.983  0.6855  0.2830 -0.5913
  899MOL0     C21282   3.571   1.903   6.612  0.4909  0.0557  0.1084
  899MOL0     C21283   3.438   1.865   6.619  0.4848  0.5402 -0.3266
  899MOL0     C21284   2.985   2.001   6.624 -0.1615 -0.0303 -0.2581
  899MOL0     C21285   2.937   1.904   6.722  0.7563  0.1453 -0.7147
  899MOL0     C21286   2.799   1.901   6.755  0.4633 -0.9036  0.5457
  899MOL0     C21287   2.711   1.998   6.710  0.1547 -0.1034 -0.6109
  899MOL0     O21288   2.574   1.989   6.719  0.0592  0.6489  0.1543
  899MOL0     C21289   2.514   1.919   6.830  0.3072 -0.1580 -0.3616
  899MOL0     C21290   2.570   1.939   6.969 -0.1092 -0.0118 -0.0222
  899MOL0     C21291   2.583   2.090   7.010  0.5961 -0.2751 -0.3592
  899MOL0     C21292   2.695   2.101   7.117  0.0344 -0.6341  0.3736
  899MOL0     C21293   2.656   2.056   7.245 -0.3418  0.4141 -0.0032
  899MOL0     C21294   2.603   2.009   7.348 -0.0628 -0.1139  0.5488
  899MOL0     C21295   2.764   2.096   6.620  0.1774  0.1755  0.7570
  899MOL0     C21296   2.893   2.099   6.578  0.5203 -0.7142  1.0250
  899MOL0     C21297   2.935   2.202   6.469  0.4215 -0.7953 -0.1958
  899MOL0     H21298   3.318   2.138   6.784 -0.6101  0.0370  0.2485
  899MOL0     H21299   3.544   2.192   6.777 -2.1382  0.5646 -1.2916
  899MOL0     H21300   3.892   1.948   6.572  0.1064  0.2066 -0.2903
  899MOL0     H21301   3.785   2.023   6.448 -0.4741  1.2890 -0.7697
  899MOL0     H21302   3.969   2.164   6.651 -2.4630 -2.0426  0.2178
  899MOL0     H21303   3.863   2.244   6.535 -1.3360 -0.5548 -1.0551
  899MOL0     H21304   3.987   2.163   6.340  1.5496  0.2627  0.1831
  899MOL0     H21305   4.082   2.048   6.434 -0.3706 -0.8935 -0.4844
  899MOL0     H21306   4.093   2.352   6.433 -2.3662  0.0883 -0.2537
  899MOL0     H21307   4.175   2.254   6.553  0.6615 -0.5189 -1.8965
  899MOL0     H21308   4.221   2.203   6.264  2.0574 -4.1359  0.9656
  899MOL0     H21309   4.317   2.325   6.350  0.6537 -0.3395 -3.7465
  899MOL0     H21310   4.403   2.153   6.503 -4.1761  3.6564  1.3370
  899MOL0     H21311   4.318   2.028   6.418  3.0437 -1.2834 -1.2080
  899MOL0     H21312   4.560   2.061   6.361 -0.8651 -0.1037 -0.1563
  899MOL0     H21313   4.504   2.208   6.275  1.5954  0.8560  2.0999
  899MOL0     H21314   4.402   1.935   6.223  2.3280  0.8652  2.7545
  899MOL0     H21315   4.369   2.077   6.120 -0.9052  0.8621  0.8500
  899MOL0     H21316   4.697   1.866   6.230 -2.2639 -2.5193 -0.9868
  899MOL0     H21317   4.938   1.979   6.165  0.6054 -0.3587 -0.7002
  899MOL0     H21318   4.910   1.825   6.109 -0.6118 -0.3715 -2.1452
  899MOL0     H21319   5.081   1.877   5.970  0.1617  0.2653  1.3459
  899MOL0     H21320   4.934   1.926   5.868 -1.9676  0.9497  1.0779
  899MOL0     H21321   5.116   2.098   6.042  0.4251  1.8214 -1.8506
  899MOL0     H21322   4.976   2.162   5.999  1.3633  0.9303  0.9067
  899MOL0     H21323   5.044   2.139   5.746  0.0187  2.2855  0.1522
  899MOL0     H21324   5.200   2.069   5.813  1.0252  2.1776 -1.4321
  899MOL0     H21325   5.134   2.401   6.065 -0.6612 -1.2132  0.0049
  899MOL0     H21326   5.297   2.433   6.241  1.9212 -1.5780  1.1564
  899MOL0     H21327   5.511   2.594   6.528 -0.2454 -1.8008  1.2951
  899MOL0     H21328   5.677   2.697   6.701  0.3925  0.3285 -0.8242
  899MOL0     H21329   6.055   2.622   6.803  1.0698 -2.7551 -2.0734
  899MOL0     H21330   6.094   2.593   6.632  0.1052  0.5759 -1.4955
  899MOL0     H21331   6.131   2.854   6.777  0.2955 -0.4854  0.0657
  899MOL0     H21332   6.250   2.734   6.724  0.7417  0.9018 -0.0549
  899MOL0     H21333   6.228   2.772   6.492 -0.2516 -3.2995  3.1304
  899MOL0     H21334   6.075   2.863   6.520 -2.2370  1.5792  6.0849
  899MOL0     H21335   6.188   3.064   6.620  1.1542 -0.2839  0.7821
  899MOL0     H21336   6.242   3.025   6.453 -1.7298 -2.1616 -1.2779
  899MOL0     H21337   6.447   2.923   6.550  1.0599 -0.2933  1.0887
  899MOL0     H21338   6.396   2.916   6.708  4.1631  3.5471  1.0829
  899MOL0     H21339   6.437   3.159   6.538 -0.4480 -2.0068 -0.2821
  899MOL0     H21340   6.388   3.179   6.704 -1.6880 -2.1489  2.4609
  899MOL0     H21341   6.625   3.222   6.664  1.3019 -0.2432 -1.5318
  899MOL0     H21342   6.642   3.069   6.578 -2.9465 -1.6299 -1.3796
  899MOL0     H21343   6.580   3.115   6.879 -1.5350  1.9096 -1.3208
  899MOL0     H21344   6.592   2.955   6.801  2.1000 -1.1159 -0.6897
  899MOL0     H21345   6.006   2.537   6.471  0.3645 -0.1691 -0.4349
  899MOL0     H21346   5.844   2.451   6.300  0.5625 -0.8205  0.7874
  899MOL0     H21347   5.583   2.208   6.020  0.0379  0.9793 -1.9461
  899MOL0     H21348   5.417   2.175   5.839  0.8421 -0.2439  1.2206
  899MOL0     H21349   3.647   1.832   6.582  0.0666  0.3052 -1.6452
  899MOL0     H21350   3.423   1.759   6.597 -2.7333  0.5742  1.1293
  899MOL0     H21351   3.000   1.818   6.747 -0.5667 -1.5489 -2.9177
  899MOL0     H21352   2.759   1.815   6.807  2.5582 -1.7932  0.7948
  899MOL0     H21353   2.538   1.815   6.807  4.9643  0.4121  0.9926
  899MOL0     H21354   2.405   1.930   6.833  0.5792  3.5378  0.7652
  899MOL0     H21355   2.671   1.899   6.975 -0.5500 -0.9940  1.2422
  899MOL0     H21356   2.528   1.879   7.050  1.8271  1.1833  1.9642
  899MOL0     H21357   2.493   2.139   7.046  0.0292 -1.0718 -0.6453
  899MOL0     H21358   2.619   2.152   6.927  0.1149  0.1323 -0.2659
  899MOL0     H21359   2.788   2.060   7.077  1.2719  2.2784  0.0454
  899MOL0     H21360   2.704   2.208   7.137 -0.9307 -0.5707  0.5115
  899MOL0     H21361   2.557   1.972   7.438  2.0190  2.0747  2.6777
  899MOL0     H21362   2.695   2.169   6.578  1.1692  0.2125 -0.8871
  899MOL0     H21363   2.961   2.146   6.378 -1.9049  0.1353 -1.5066
  899MOL0     H21364   2.857   2.277   6.455  0.6463 -0.6084 -0.4907
  899MOL0     H21365   3.028   2.254   6.495 -0.3940  2.5179 -3.1137
  900MOL0     O21366   3.998   1.439   2.525  0.5160  0.1172 -0.2371
  900MOL0     C21367   3.970   1.419   2.409 -0.4239 -0.4713  0.5274
  900MOL0     O21368   4.059   1.401   2.312  0.4700 -0.2255 -0.1266
  900MOL0     C21369   4.194   1.411   2.328  0.6882 -0.0056  0.5070
  900MOL0     C21370   4.253   1.494   2.421 -0.5047 -0.0056 -0.1503
  900MOL0     C21371   4.386   1.511   2.438  0.3594 -0.3443 -1.0699
  900MOL0     C21372   4.467   1.449   2.348  0.1655  0.3907  1.0801
  900MOL0     O21373   4.601   1.482   2.353 -0.1615 -0.5855  0.0057
  900MOL0     C21374   4.687   1.442   2.240  0.1154 -0.0314  1.0872
  900MOL0     C21375   4.827   1.492   2.269  0.4560 -0.3554 -0.6011
  900MOL0     C21376   4.905   1.496   2.137 -0.2645  0.7803 -0.7999
  900MOL0     C21377   5.044   1.559   2.167  0.5696 -0.1030  0.8120
  900MOL0     C21378   5.124   1.601   2.042  0.0003 -0.0915 -0.2561
  900MOL0     C21379   5.047   1.717   1.960  0.5438 -0.0408  0.0111
  900MOL0     C21380   5.119   1.762   1.837  0.3687  0.3076  0.5517
  900MOL0     C21381   5.065   1.889   1.767  0.1466  0.3526  0.0600
  900MOL0     N21382   5.122   2.012   1.829  0.4185  0.1497  0.6982
  900MOL0     C21383   5.214   2.093   1.759  0.8125  0.2261 -0.5847
  900MOL0     C21384   5.227   2.199   1.844  1.1027 -0.1021  0.5611
  900MOL0     C21385   5.337   2.301   1.822  0.5851 -0.3258  0.4029
  900MOL0     C21386   5.440   2.293   1.935  0.0028  0.7530 -0.6165
  900MOL0     C21387   5.522   2.423   1.928 -0.1661 -0.6411  0.0191
  900MOL0     C21388   5.610   2.437   2.057  1.3905  0.5643 -0.3770
  900MOL0     O21389   5.681   2.561   2.060  0.5924  0.0291  0.0711
  900MOL0     C21390   5.780   2.585   1.960 -0.4182  0.0437 -0.0359
  900MOL0     C21391   5.772   2.697   1.880 -0.3923 -0.3340  0.4880
  900MOL0     C21392   5.866   2.727   1.774  0.0725  0.0213  0.2405
  900MOL0     C21393   5.977   2.643   1.769 -0.4128  0.4346  0.5941
  900MOL0     C21394   6.080   2.665   1.670  0.0127 -0.6396 -0.2349
  900MOL0     O21395   6.183   2.579   1.667  0.0219 -0.0480  0.3349
  900MOL0     C21396   6.294   2.596   1.582  0.2584 -0.0530  0.4049
  900MOL0     C21397   6.273   2.634   1.446  0.2973 -0.2921 -0.7900
  900MOL0     C21398   6.379   2.634   1.359 -0.0640 -1.0214  0.4032
  900MOL0     C21399   6.504   2.583   1.393 -0.7112 -0.0375  0.2612
  900MOL0     O21400   6.597   2.607   1.292  0.0661 -0.1118 -0.0636
  900MOL0     C21401   6.718   2.674   1.331 -0.1653  0.3795  0.3245
  900MOL0     C21402   6.826   2.576   1.289  0.6494 -0.0764  0.5010
  900MOL0     C21403   6.853   2.471   1.391  0.3157 -0.0157 -0.3212
  900MOL0     C21404   6.965   2.376   1.358  0.2075  0.7123 -0.3620
  900MOL0     C21405   6.959   2.255   1.458  0.3351  0.2612 -0.0441
  900MOL0     C21406   7.076   2.161   1.438  0.5730  0.2108 -0.1432
  900MOL0     C21407   7.060   2.035   1.524  0.5435  1.1499 -0.1072
  900MOL0     C21408   7.163   1.922   1.490  0.3062 -0.2183  0.0935
  900MOL0    Cl21409   7.328   1.969   1.532 -0.0731  0.2371 -0.0117
  900MOL0     C21410   6.532   2.545   1.525  0.6025 -1.4565  1.2299
  900MOL0     C21411   6.427   2.546   1.620  0.4504 -0.5606  0.7141
  900MOL0     O21412   6.072   2.770   1.604  0.5197  0.4961 -0.3115
  900MOL0     C21413   5.983   2.528   1.841  0.5193 -0.1782  0.1108
  900MOL0     C21414   5.889   2.499   1.940  0.4202 -0.3545 -0.5155
  900MOL0     N21415   5.136   2.186   1.950  0.8383  0.3801  0.1959
  900MOL0     N21416   5.067   2.079   1.933  0.8437  0.0141  0.5935
  900MOL0     C21417   4.417   1.379   2.243  0.2392  0.7995  0.0686
  900MOL0     C21418   4.283   1.334   2.240 -0.0735 -0.4348 -0.1453
  900MOL0     C21419   3.831   1.389   2.363  0.4578  0.8360  0.5479
  900MOL0     C21420   3.814   1.326   2.233  0.4065  0.1525 -0.0801
  900MOL0     C21421   3.685   1.304   2.189  0.2590  0.4709 -0.2592
  900MOL0     C21422   3.573   1.317   2.265 -2.0355  0.1617 -0.7614
  900MOL0     O21423   3.445   1.297   2.224  0.0643 -0.3804 -0.6791
  900MOL0     C21424   3.414   1.307   2.079  1.2659 -0.1746 -0.3329
  900MOL0     C21425   3.262   1.353   2.060  0.0197 -0.3702  0.6047
  900MOL0     C21426   3.162   1.254   2.107  0.5975 -0.2029 -0.2523
  900MOL0     C21427   3.180   1.115   2.038 -1.1858 -0.5036 -0.4683
  900MOL0     C21428   3.222   1.118   1.895 -0.1871 -0.3285  0.2159
  900MOL0     C21429   3.262   1.115   1.781  0.1386  0.0120  0.0065
  900MOL0     C21430   3.588   1.368   2.390 -0.6767  0.6937  0.1532
  900MOL0     C21431   3.714   1.407   2.438  0.3160 -0.2098 -0.1785
  900MOL0     C21432   3.713   1.465   2.576  0.1195 -0.0182  0.3820
  900MOL0     H21433   4.204   1.554   2.498 -0.8461 -1.6075  0.9458
  900MOL0     H21434   4.428   1.566   2.522  0.8006  0.0017 -1.5131
  900MOL0     H21435   4.687   1.332   2.245 -4.1227 -0.5671 -3.2642
  900MOL0     H21436   4.640   1.480   2.148 -0.1308  0.9869  1.6243
  900MOL0     H21437   4.873   1.421   2.338 -1.7059 -1.7882 -0.5321
  900MOL0     H21438   4.827   1.591   2.316 -0.6084 -0.9031  0.6227
  900MOL0     H21439   4.855   1.556   2.060 -3.0155  1.7185  1.5225
  900MOL0     H21440   4.900   1.394   2.096  1.9425  0.7677 -1.1317
  900MOL0     H21441   5.029   1.647   2.230 -1.5888 -0.6683  1.1734
  900MOL0     H21442   5.104   1.488   2.225  0.5930 -0.6725  0.1021
  900MOL0     H21443   5.223   1.634   2.074  1.7998 -4.1782 -0.9825
  900MOL0     H21444   5.146   1.512   1.982 -1.8620 -1.3050  0.7473
  900MOL0     H21445   4.947   1.687   1.927 -0.6865  0.8545  2.6267
  900MOL0     H21446   5.041   1.803   2.028  2.5565 -2.0278  2.9363
  900MOL0     H21447   5.119   1.692   1.753  3.1702 -1.9028  2.2403
  900MOL0     H21448   5.225   1.781   1.853  0.5752  1.7268 -1.8587
  900MOL0     H21449   5.088   1.879   1.661 -1.3533 -1.1017 -0.1733
  900MOL0     H21450   4.956   1.894   1.777  0.1149 -1.9583  1.6141
  900MOL0     H21451   5.266   2.078   1.665 -1.5941 -0.6824 -1.8730
  900MOL0     H21452   5.395   2.286   1.731  2.1561  1.2258  1.0845
  900MOL0     H21453   5.294   2.401   1.810  2.2697  0.3590 -0.3341
  900MOL0     H21454   5.384   2.287   2.029  1.0077 -0.6312 -0.0791
  900MOL0     H21455   5.504   2.206   1.918 -0.8997 -1.3231  4.6969
  900MOL0     H21456   5.461   2.514   1.924  1.2230  0.4174  1.5674
  900MOL0     H21457   5.582   2.427   1.837  0.1026 -0.1314  0.2147
  900MOL0     H21458   5.685   2.358   2.062  1.6212  0.6953 -1.4406
  900MOL0     H21459   5.538   2.435   2.139  1.4682  2.8543 -0.1661
  900MOL0     H21460   5.684   2.759   1.896 -3.2557 -4.0207  0.2641
  900MOL0     H21461   5.845   2.806   1.703 -2.8451 -0.1554  0.7628
  900MOL0     H21462   6.173   2.662   1.416 -0.3539 -2.2643 -0.5747
  900MOL0     H21463   6.338   2.669   1.265 -0.9198 -2.3778  0.2422
  900MOL0     H21464   6.727   2.757   1.260 -0.0540  0.0973  0.0084
  900MOL0     H21465   6.719   2.711   1.434 -0.4915 -1.0234  0.8531
  900MOL0     H21466   6.801   2.538   1.190 -0.4156  1.7782  0.0066
  900MOL0     H21467   6.913   2.641   1.275  0.7213 -0.4580 -0.9861
  900MOL0     H21468   6.877   2.519   1.486 -1.5474 -0.2815  0.3101
  900MOL0     H21469   6.762   2.411   1.396  1.0524 -1.6139 -3.3114
  900MOL0     H21470   7.067   2.415   1.368  0.5059  0.1334 -1.0830
  900MOL0     H21471   6.943   2.339   1.258 -0.3245  1.0034 -0.3551
  900MOL0     H21472   6.870   2.191   1.454  1.1346 -0.8271 -1.0925
  900MOL0     H21473   6.959   2.289   1.562  1.4376  2.2726 -0.6449
  900MOL0     H21474   7.083   2.132   1.333 -1.3230  0.3792 -0.3554
  900MOL0     H21475   7.167   2.217   1.459  0.7897  0.7461 -2.2880
  900MOL0     H21476   6.960   1.992   1.509  0.6379  0.2489  1.5524
  900MOL0     H21477   7.074   2.064   1.629 -2.6043 -1.2827  1.1639
  900MOL0     H21478   7.137   1.842   1.561  1.9935  0.0589  1.0819
  900MOL0     H21479   7.146   1.887   1.388  0.5932  0.1087 -0.0679
  900MOL0     H21480   6.631   2.503   1.542  0.4116 -2.5386 -0.1080
  900MOL0     H21481   6.452   2.510   1.719 -0.3975 -3.5260 -0.0454
  900MOL0     H21482   6.069   2.464   1.825  1.0906  0.7907 -0.8140
  900MOL0     H21483   5.911   2.406   1.991  1.3885 -0.4962 -1.1697
  900MOL0     H21484   4.481   1.350   2.160  1.3051 -1.2756  1.5426
  900MOL0     H21485   4.230   1.268   2.173 -3.2123  0.6350  1.1095
  900MOL0     H21486   3.897   1.306   2.166 -0.9429 -1.6682 -1.2790
  900MOL0     H21487   3.660   1.255   2.095  1.5771 -0.5163 -0.1217
  900MOL0     H21488   3.441   1.212   2.032  3.6473 -1.9973  4.0751
  900MOL0     H21489   3.473   1.383   2.027  2.5916 -0.9619 -0.0224
  900MOL0     H21490   3.240   1.381   1.957 -1.8443  0.4973  1.1947
  900MOL0     H21491   3.246   1.444   2.118  0.2834 -1.8726  3.1838
  900MOL0     H21492   3.065   1.292   2.072  1.1022  0.7234 -0.6867
  900MOL0     H21493   3.163   1.252   2.216  5.1771  1.6056 -0.0713
  900MOL0     H21494   3.236   1.053   2.109 -0.5695  0.6652  0.0957
  900MOL0     H21495   3.077   1.079   2.034 -0.5371 -2.3607 -3.5908
  900MOL0     H21496   3.306   1.126   1.684  0.1761 -1.1273 -0.1135
  900MOL0     H21497   3.500   1.376   2.453 -0.9407  0.8115 -0.2247
  900MOL0     H21498   3.753   1.567   2.585 -1.8773  0.8338  0.1812
  900MOL0     H21499   3.611   1.480   2.614  0.5278 -0.9900  1.9525
  900MOL0     H21500   3.771   1.399   2.641  2.1072  1.2951  0.0462
  901MOL0     O21501   3.935   6.833   8.921  0.0992  0.1588 -0.4411
  901MOL0     C21502   3.941   6.710   8.912 -0.6593  0.6646  0.9188
  901MOL0     O21503   4.055   6.645   8.876 -0.8474 -1.0410  0.3422
  901MOL0     C21504   4.158   6.721   8.815 -0.3299  0.0333  0.1504
  901MOL0     C21505   4.274   6.754   8.881 -0.6088  0.2832 -0.3770
  901MOL0     C21506   4.379   6.821   8.819  0.3473  0.1062  0.1710
  901MOL0     C21507   4.365   6.873   8.694  0.9426  0.6418 -0.8630
  901MOL0     O21508   4.457   6.965   8.644 -0.2078  0.5923 -0.0697
  901MOL0     C21509   4.435   7.027   8.522  0.1204 -0.4955  0.1355
  901MOL0     C21510   4.545   7.128   8.492  0.2134 -0.1411  0.3239
  901MOL0     C21511   4.683   7.063   8.521  0.2252  1.1577 -0.5256
  901MOL0     C21512   4.799   7.159   8.518 -1.0646 -0.3507 -0.8039
  901MOL0     C21513   4.928   7.094   8.564  0.3861  1.1851 -0.0313
  901MOL0     C21514   5.042   7.187   8.617 -0.1311  1.6064  0.4164
  901MOL0     C21515   5.175   7.102   8.632  1.3470  0.5136 -0.7221
  901MOL0     C21516   5.288   7.199   8.700 -0.1800 -0.5539  0.3842
  901MOL0     N21517   5.422   7.136   8.702  0.2052 -0.2536 -0.1715
  901MOL0     C21518   5.443   6.999   8.709  1.0798 -0.6093 -1.8455
  901MOL0     C21519   5.575   6.992   8.684 -0.0933 -0.1744  0.3376
  901MOL0     C21520   5.645   6.861   8.662  0.5602 -0.4785 -0.0557
  901MOL0     C21521   5.781   6.855   8.720 -0.1402 -0.6837  0.1964
  901MOL0     C21522   5.879   6.766   8.645  1.2825 -1.0233  0.4272
  901MOL0     C21523   6.012   6.753   8.732  0.0678 -0.3772 -0.8000
  901MOL0     O21524   6.105   6.863   8.717  0.0609 -1.0471  0.2106
  901MOL0     C21525   6.189   6.893   8.822  0.4608  0.0979  0.1594
  901MOL0     C21526   6.279   6.803   8.868 -0.5837 -0.8861  0.5318
  901MOL0     C21527   6.366   6.838   8.969  0.0728  1.4260  0.2536
  901MOL0     C21528   6.365   6.959   9.034  0.0924 -0.3839 -0.1927
  901MOL0     C21529   6.467   6.999   9.130  0.4471  0.0193 -0.7338
  901MOL0     O21530   6.574   6.919   9.146 -0.0580  0.5216  0.7217
  901MOL0     C21531   6.664   6.936   9.252 -0.2797 -1.3818 -0.0570
  901MOL0     C21532   6.730   7.059   9.260 -0.0839 -0.4712 -0.2775
  901MOL0     C21533   6.835   7.083   9.349 -0.9951  0.0947  0.2567
  901MOL0     C21534   6.865   6.974   9.441  0.5948 -0.6869  0.6838
  901MOL0     O21535   6.966   6.994   9.532 -0.1394  0.1591 -0.9564
  901MOL0     C21536   7.082   7.066   9.486  0.0954 -0.5769  0.3104
  901MOL0     C21537   7.221   6.997   9.530  0.3248 -0.4513 -0.6688
  901MOL0     C21538   7.248   6.861   9.471 -0.0608  0.1986 -0.3482
  901MOL0     C21539   7.353   6.792   9.561 -0.2503  0.8184  0.4107
  901MOL0     C21540   7.443   6.695   9.471  1.1637 -0.4907 -0.7850
  901MOL0     C21541   7.562   6.636   9.558  0.0981  0.1852 -0.1065
  901MOL0     C21542   7.670   6.562   9.472 -0.0209 -0.3104  0.2504
  901MOL0     C21543   7.809   6.560   9.533  0.7726 -0.1997 -0.2079
  901MOL0    Cl21544   7.795   6.487   9.700 -0.0431  0.1075  0.1292
  901MOL0     C21545   6.800   6.850   9.429  0.4487 -0.5338 -0.7464
  901MOL0     C21546   6.705   6.828   9.332  0.5733  0.2446  0.8862
  901MOL0     O21547   6.441   7.102   9.191 -0.1880 -0.6744 -0.8380
  901MOL0     C21548   6.270   7.054   8.993 -0.4890  0.3281  0.4784
  901MOL0     C21549   6.179   7.019   8.887 -0.5116 -0.2072  0.2448
  901MOL0     N21550   5.628   7.124   8.652 -0.5704 -0.9129  0.9366
  901MOL0     N21551   5.528   7.206   8.653  0.0874 -0.0362  0.2141
  901MOL0     C21552   4.234   6.845   8.627 -0.6890  0.3321 -0.0126
  901MOL0     C21553   4.136   6.769   8.687 -0.8985 -0.0621 -0.7534
  901MOL0     C21554   3.817   6.634   8.939  1.0585  0.8694 -0.4314
  901MOL0     C21555   3.832   6.492   8.911 -0.1126  0.1123 -0.4644
  901MOL0     C21556   3.723   6.399   8.920  0.5601 -0.9326 -1.2169
  901MOL0     C21557   3.601   6.451   8.967  0.0851 -0.6877 -0.2067
  901MOL0     O21558   3.481   6.380   8.965 -0.5507  0.0619 -0.1897
  901MOL0     C21559   3.486   6.239   8.996  0.1936  0.2404  0.6376
  901MOL0     C21560   3.372   6.208   9.084  0.0227 -0.1586  0.9359
  901MOL0     C21561   3.233   6.235   9.025 -0.0130 -0.4898 -0.2996
  901MOL0     C21562   3.124   6.247   9.125  0.1463  0.4482  0.5564
  901MOL0     C21563   3.008   6.288   9.052  0.5363 -1.0821  0.8269
  901MOL0     C21564   2.916   6.309   8.983 -0.2497 -0.6619 -0.1624
  901MOL0     C21565   3.587   6.591   9.002 -0.0582  0.6789 -0.3129
  901MOL0     C21566   3.690   6.680   8.985 -0.0747 -0.4667 -0.6073
  901MOL0     C21567   3.667   6.819   9.041 -0.3124 -0.0367 -0.6539
  901MOL0     H21568   4.279   6.720   8.983 -0.6815 -1.3449 -0.8922
  901MOL0     H21569   4.473   6.819   8.874  2.1502 -0.2705 -2.6779
  901MOL0     H21570   4.420   6.958   8.438 -0.3928  0.9204 -0.9670
  901MOL0     H21571   4.343   7.087   8.519  0.0459 -0.6256 -0.2207
  901MOL0     H21572   4.523   7.206   8.566 -1.3441 -0.4303  0.2077
  901MOL0     H21573   4.531   7.158   8.387 -1.7025 -2.0401 -0.0353
  901MOL0     H21574   4.701   6.985   8.446 -0.9641  0.2340  0.1283
  901MOL0     H21575   4.679   7.025   8.623 -0.0236 -2.0749 -1.6343
  901MOL0     H21576   4.815   7.196   8.416  1.3043  1.1172  0.0309
  901MOL0     H21577   4.801   7.243   8.588  0.4521 -0.5688 -0.5486
  901MOL0     H21578   4.903   7.014   8.634 -0.9958  0.0342 -1.7475
  901MOL0     H21579   4.974   7.043   8.479  3.0242  2.6507  0.3743
  901MOL0     H21580   5.065   7.266   8.545 -1.5380  0.3365 -1.5348
  901MOL0     H21581   5.012   7.224   8.716 -2.3226 -0.3062  0.5324
  901MOL0     H21582   5.203   7.063   8.534 -0.2577  2.2189 -1.9125
  901MOL0     H21583   5.165   7.014   8.696 -0.5375  2.0290  1.2185
  901MOL0     H21584   5.287   7.295   8.647 -0.8249 -0.4464  0.5859
  901MOL0     H21585   5.266   7.208   8.807  0.2342  1.5052  0.3418
  901MOL0     H21586   5.382   6.911   8.728  1.3046 -0.6311 -1.1995
  901MOL0     H21587   5.587   6.779   8.707 -1.3872 -0.0676 -1.6688
  901MOL0     H21588   5.647   6.845   8.554 -2.7665  1.2801 -0.5115
  901MOL0     H21589   5.824   6.954   8.705 -0.6146 -0.7194 -1.6019
  901MOL0     H21590   5.781   6.835   8.827 -1.3633 -0.7336  0.1986
  901MOL0     H21591   5.907   6.801   8.545 -2.9507 -0.2156 -0.6683
  901MOL0     H21592   5.832   6.667   8.639 -2.0190  0.4289  0.0699
  901MOL0     H21593   6.053   6.653   8.717 -0.1133 -0.6490  0.4349
  901MOL0     H21594   5.975   6.748   8.835 -2.9792  1.0363 -1.6960
  901MOL0     H21595   6.285   6.707   8.816  2.1450 -2.5335  3.5152
  901MOL0     H21596   6.449   6.770   8.988 -1.0170  0.0017  0.1011
  901MOL0     H21597   6.697   7.131   9.185 -0.9192 -0.5101  0.0435
  901MOL0     H21598   6.888   7.176   9.367  0.4971 -0.9957  1.8199
  901MOL0     H21599   7.079   7.088   9.379 -1.9522 -1.0892  0.2251
  901MOL0     H21600   7.087   7.165   9.532  2.1752 -0.5722  0.1473
  901MOL0     H21601   7.295   7.070   9.495 -1.5687  1.4114 -0.9655
  901MOL0     H21602   7.227   6.989   9.639  1.3766  0.5242 -0.6395
  901MOL0     H21603   7.160   6.795   9.468  1.7999 -2.4293 -0.0660
  901MOL0     H21604   7.275   6.869   9.365  0.3501 -3.6224 -0.6726
  901MOL0     H21605   7.290   6.731   9.626 -1.8566 -0.3753 -2.1012
  901MOL0     H21606   7.415   6.863   9.615  2.9116  0.4384 -2.3561
  901MOL0     H21607   7.483   6.770   9.401 -0.0379  3.3065  2.2297
  901MOL0     H21608   7.385   6.613   9.428  1.6570 -1.9628  1.2191
  901MOL0     H21609   7.605   6.713   9.623  3.0922 -0.2937 -1.3442
  901MOL0     H21610   7.520   6.564   9.628 -1.1096 -0.0961 -1.0929
  901MOL0     H21611   7.686   6.620   9.380 -1.8145  5.9293  3.2914
  901MOL0     H21612   7.623   6.467   9.448  1.3974 -0.6366 -1.3812
  901MOL0     H21613   7.885   6.516   9.467  1.1202  2.2559 -1.5685
  901MOL0     H21614   7.843   6.662   9.551  0.7540 -0.1057 -0.6974
  901MOL0     H21615   6.835   6.778   9.502  2.1696  0.0291 -0.9698
  901MOL0     H21616   6.662   6.728   9.328 -0.2765  0.6053  0.6468
  901MOL0     H21617   6.264   7.151   9.042 -0.7591  1.7644 -2.1750
  901MOL0     H21618   6.097   7.088   8.872 -0.9393 -0.4321  1.3778
  901MOL0     H21619   4.217   6.883   8.527 -1.1340  3.0467  1.0091
  901MOL0     H21620   4.039   6.752   8.640 -0.5340 -3.5950 -0.4702
  901MOL0     H21621   3.924   6.453   8.868 -0.4483 -2.2756  0.7798
  901MOL0     H21622   3.727   6.299   8.879 -0.4346 -1.3402 -0.3870
  901MOL0     H21623   3.577   6.216   9.053 -0.9131 -2.3901  1.4841
  901MOL0     H21624   3.482   6.189   8.899  1.4427  0.0521  0.6635
  901MOL0     H21625   3.377   6.265   9.178  0.1623  0.6596  0.4413
  901MOL0     H21626   3.371   6.101   9.104 -2.9375 -0.2475  0.7599
  901MOL0     H21627   3.207   6.163   8.947 -1.9373 -0.7280  0.5176
  901MOL0     H21628   3.223   6.330   8.973  0.2023  0.2533  0.9722
  901MOL0     H21629   3.103   6.152   9.176  1.9866  0.3141  1.1441
  901MOL0     H21630   3.144   6.324   9.201 -1.6775 -0.9888  2.6111
  901MOL0     H21631   2.828   6.328   8.925  0.5841  0.9511 -0.9899
  901MOL0     H21632   3.497   6.618   9.056  0.9141  1.6403  0.8886
  901MOL0     H21633   3.722   6.845   9.132 -0.8660  0.5755 -0.4877
  901MOL0     H21634   3.692   6.882   8.955  0.2765  0.8303  0.1322
  901MOL0     H21635   3.562   6.829   9.069 -0.0443 -1.2924  0.9709
  902MOL0     O21636  10.914   7.364  10.167 -0.6945 -0.0822  0.2994
  902MOL0     C21637  10.837   7.276  10.133  1.3187 -0.6362 -0.1253
  902MOL0     O21638  10.856   7.177  10.043  0.1751  0.3623 -0.1927
  902MOL0     C21639  10.958   7.159   9.953  0.2006  0.4713  0.5749
  902MOL0     C21640  11.052   7.260   9.917  0.3573 -0.7836 -0.2328
  902MOL0     C21641  11.152   7.231   9.821 -0.5882  0.7902 -0.2624
  902MOL0     C21642  11.163   7.096   9.773 -0.5791 -0.4790 -0.2842
  902MOL0     O21643  11.271   7.067   9.687  0.1335  0.0896 -0.1027
  902MOL0     C21644  11.229   7.022   9.552  0.0821 -0.3496 -0.8880
  902MOL0     C21645  11.358   6.983   9.477 -0.6944  0.3489  0.0645
  902MOL0     C21646  11.456   7.095   9.458 -0.2789 -0.0548  0.1097
  902MOL0     C21647  11.573   7.048   9.367 -0.4185  0.1547 -0.1639
  902MOL0     C21648  11.645   7.167   9.320 -1.0942 -0.1924  0.2572
  902MOL0     C21649  11.758   7.142   9.215  0.2057 -0.1498  0.9819
  902MOL0     C21650  11.866   7.041   9.259  0.1356  0.0104 -1.1313
  902MOL0     C21651  12.007   7.063   9.189  0.0385  0.3804 -0.4685
  902MOL0     N21652  12.098   6.957   9.191 -0.3438  0.4041 -0.6634
  902MOL0     C21653  12.083   6.825   9.226 -0.1872 -0.5761  0.2013
  902MOL0     C21654  12.209   6.786   9.269 -0.5027 -0.2305 -0.1715
  902MOL0     C21655  12.251   6.646   9.293 -0.2149  0.2749  0.0507
  902MOL0     C21656  12.330   6.628   9.427 -0.2643  0.1064 -0.1980
  902MOL0     C21657  12.415   6.501   9.420  0.5093 -0.4247  0.4307
  902MOL0     C21658  12.532   6.504   9.507 -0.5842 -0.5605  0.1791
  902MOL0     O21659  12.628   6.409   9.466 -0.1346  0.0025  0.1395
  902MOL0     C21660  12.727   6.383   9.553  0.6579 -0.8897  0.4243
  902MOL0     C21661  12.762   6.455   9.670  0.2022 -1.1099  0.3767
  902MOL0     C21662  12.871   6.422   9.750  0.4335  0.1473 -0.5333
  902MOL0     C21663  12.948   6.314   9.723 -0.4991  1.5563 -0.0163
  902MOL0     C21664  13.067   6.288   9.801  0.1274  0.1090  0.0747
  902MOL0     O21665  13.108   6.383   9.890  0.4561  0.0306  0.3375
  902MOL0     C21666  13.225   6.368   9.968 -0.3620  0.4916  0.2972
  902MOL0     C21667  13.347   6.394   9.915 -0.1244  0.5241 -0.4842
  902MOL0     C21668  13.461   6.395   9.993  0.0665  0.2839  0.0808
  902MOL0     C21669  13.449   6.358  10.129 -0.4791  0.1102 -0.2953
  902MOL0     O21670  13.554   6.350  10.213  0.3158  0.2444  0.5202
  902MOL0     C21671  13.586   6.466  10.289  0.1732 -0.5428 -0.6596
  902MOL0     C21672  13.638   6.587  10.209 -0.5032 -0.6690 -0.1185
  902MOL0     C21673  13.737   6.666  10.294 -0.4302 -0.3237  0.0608
  902MOL0     C21674  13.659   6.762  10.383  0.8301 -0.1244 -0.1609
  902MOL0     C21675  13.746   6.840  10.483  0.0544  0.4695 -0.3145
  902MOL0     C21676  13.872   6.912  10.433 -0.6913 -0.2030 -0.1909
  902MOL0     C21677  13.924   6.999  10.543 -0.4540  0.3978 -0.5257
  902MOL0     C21678  14.070   7.056  10.539 -0.0112  0.7382 -0.1823
  902MOL0    Cl21679  14.172   6.915  10.489  0.3117  0.0762  0.0166
  902MOL0     C21680  13.325   6.317  10.179 -0.2838  0.5681  0.4245
  902MOL0     C21681  13.212   6.321  10.096 -0.5343  0.8634  0.0557
  902MOL0     O21682  13.132   6.186   9.770 -0.6618 -0.3333  0.0957
  902MOL0     C21683  12.919   6.241   9.603  0.2585  0.2354 -0.3253
  902MOL0     C21684  12.804   6.272   9.528 -0.3584 -0.0451 -0.4556
  902MOL0     N21685  12.294   6.890   9.254 -0.0404 -0.2953  0.0736
  902MOL0     N21686  12.228   6.988   9.206 -0.3872 -0.3978 -0.7854
  902MOL0     C21687  11.076   6.993   9.810 -0.4086  0.2428 -0.6374
  902MOL0     C21688  10.965   7.033   9.889  0.6499 -0.5809 -0.5893
  902MOL0     C21689  10.692   7.281  10.176 -0.7655 -0.0158  0.0290
  902MOL0     C21690  10.598   7.183  10.135 -0.7765  0.1605 -0.4261
  902MOL0     C21691  10.464   7.185  10.175 -0.4584 -0.8262 -0.2429
  902MOL0     C21692  10.424   7.282  10.266  0.1089  0.6451  0.1376
  902MOL0     O21693  10.299   7.264  10.324 -0.1878 -0.6533 -0.3390
  902MOL0     C21694  10.274   7.343  10.450 -0.0107 -0.0339 -0.9173
  902MOL0     C21695  10.148   7.299  10.523 -0.1208  0.0626 -0.3156
  902MOL0     C21696  10.146   7.151  10.569  0.4291  0.7042  0.4348
  902MOL0     C21697  10.018   7.117  10.655  0.3494  0.2419  0.5574
  902MOL0     C21698   9.896   7.121  10.580  0.2215  0.3662 -0.5465
  902MOL0     C21699   9.798   7.108  10.509 -0.0920  0.5634 -0.4450
  902MOL0     C21700  10.519   7.384  10.294  0.2570  0.2601 -0.2333
  902MOL0     C21701  10.646   7.397  10.253  0.1794 -0.4729 -0.0220
  902MOL0     C21702  10.723   7.528  10.277  0.2969 -0.1656  0.3864
  902MOL0     H21703  11.044   7.362   9.953 -2.0769 -0.2803 -1.9474
  902MOL0     H21704  11.237   7.294   9.797 -0.1759  0.5838  0.5948
  902MOL0     H21705  11.148   6.949   9.566 -0.7329  1.0454  2.7254
  902MOL0     H21706  11.189   7.113   9.506  1.3441  0.8813  0.3640
  902MOL0     H21707  11.331   6.941   9.379  2.6277 -0.0867 -0.7804
  902MOL0     H21708  11.400   6.900   9.534 -0.5589  0.4179  0.0647
  902MOL0     H21709  11.492   7.135   9.553  1.5070  1.0213 -0.9481
  902MOL0     H21710  11.411   7.184   9.412 -1.6100 -0.1275  1.2095
  902MOL0     H21711  11.645   6.989   9.425 -1.0922 -1.0155 -0.4904
  902MOL0     H21712  11.544   6.984   9.283  1.9965 -1.5807  0.2105
  902MOL0     H21713  11.585   7.246   9.273 -0.0151  0.4817 -0.0245
  902MOL0     H21714  11.690   7.221   9.404  1.9386  0.4177 -1.5919
  902MOL0     H21715  11.709   7.113   9.121 -0.1252  1.0354  0.7761
  902MOL0     H21716  11.802   7.238   9.187  0.9798 -0.3515  1.4918
  902MOL0     H21717  11.833   6.938   9.241  1.6312 -0.6411 -0.3131
  902MOL0     H21718  11.876   7.054   9.367  3.1247  1.4824 -1.4831
  902MOL0     H21719  11.993   7.089   9.084  1.0504  0.0881 -0.6852
  902MOL0     H21720  12.042   7.148   9.248  0.9726 -1.4583  1.7937
  902MOL0     H21721  11.992   6.767   9.237 -0.2378 -0.4538  0.4438
  902MOL0     H21722  12.168   6.576   9.284 -0.6069  0.8711 -1.1222
  902MOL0     H21723  12.312   6.619   9.206  1.0150 -4.6605  2.0732
  902MOL0     H21724  12.396   6.713   9.442  1.7426 -1.1236 -1.6149
  902MOL0     H21725  12.255   6.615   9.506 -0.8077  2.4309 -0.2718
  902MOL0     H21726  12.447   6.488   9.317  0.1275  0.5021  0.1812
  902MOL0     H21727  12.354   6.414   9.445  0.0571 -0.5448 -1.0177
  902MOL0     H21728  12.497   6.496   9.611  1.0192  4.1448  1.3405
  902MOL0     H21729  12.580   6.601   9.492  0.3485 -0.7811  1.5611
  902MOL0     H21730  12.717   6.550   9.697  2.4364 -0.7936  3.6568
  902MOL0     H21731  12.888   6.490   9.832 -2.7169  1.3354 -0.7145
  902MOL0     H21732  13.349   6.432   9.813  0.6546  0.4572 -0.4990
  902MOL0     H21733  13.548   6.421   9.933  1.6136 -2.4255  0.9756
  902MOL0     H21734  13.514   6.517  10.354 -0.6153  2.5169 -3.6590
  902MOL0     H21735  13.668   6.431  10.352  1.6797  3.7240  0.1193
  902MOL0     H21736  13.701   6.553  10.126 -3.4551 -2.2235 -1.8736
  902MOL0     H21737  13.551   6.638  10.167 -0.6937 -0.9373 -0.0512
  902MOL0     H21738  13.800   6.595  10.347 -0.3669 -3.2041 -3.5338
  902MOL0     H21739  13.800   6.722  10.223 -1.7231  1.1542  0.0333
  902MOL0     H21740  13.587   6.708  10.444  3.0614 -0.9121  1.9419
  902MOL0     H21741  13.598   6.825  10.317 -0.9198 -0.5918  0.9505
  902MOL0     H21742  13.793   6.780  10.560  2.7474  3.4179  0.5697
  902MOL0     H21743  13.688   6.918  10.534  1.4527  0.7131  0.9703
  902MOL0     H21744  13.942   6.831  10.413 -1.3693 -0.3546 -2.2994
  902MOL0     H21745  13.852   6.964  10.338 -0.5171 -1.4536 -0.9340
  902MOL0     H21746  13.910   6.943  10.636  1.8788 -2.0938 -1.5632
  902MOL0     H21747  13.854   7.081  10.561  1.0692  1.2375  2.1804
  902MOL0     H21748  14.078   7.130  10.459 -0.2708 -0.2639 -1.1616
  902MOL0     H21749  14.100   7.106  10.632 -1.1255 -2.9264  2.4013
  902MOL0     H21750  13.313   6.283  10.281  0.9570 -0.5581  0.2232
  902MOL0     H21751  13.115   6.292  10.135 -0.6218  1.9728  0.6878
  902MOL0     H21752  12.985   6.162   9.568  1.2564  0.5982  0.6799
  902MOL0     H21753  12.801   6.213   9.436  1.3494 -2.9100  1.1778
  902MOL0     H21754  11.084   6.893   9.768  1.1467  0.9588 -2.1416
  902MOL0     H21755  10.888   6.961   9.916  2.1968 -2.1875 -0.2464
  902MOL0     H21756  10.638   7.102  10.075  3.9942  0.6275  1.6205
  902MOL0     H21757  10.394   7.113  10.136 -2.2237  0.2999  0.7095
  902MOL0     H21758  10.258   7.447  10.420  1.4532  0.5194  0.0837
  902MOL0     H21759  10.359   7.341  10.519  0.4600 -0.1313 -1.4870
  902MOL0     H21760  10.070   7.316  10.448 -2.5186 -0.8611  1.8002
  902MOL0     H21761  10.135   7.372  10.604  0.5457 -0.2795  0.1068
  902MOL0     H21762  10.239   7.136  10.625  2.9812  2.2873 -2.9997
  902MOL0     H21763  10.153   7.093  10.476  1.5478  3.6227 -1.4641
  902MOL0     H21764  10.024   7.021  10.708  1.7766  0.8128  1.4659
  902MOL0     H21765  10.014   7.192  10.734  0.2857  1.4823 -0.5955
  902MOL0     H21766   9.711   7.097  10.447  1.1234 -2.9569 -1.8115
  902MOL0     H21767  10.485   7.472  10.348 -0.5253  1.1062 -2.0012
  902MOL0     H21768  10.670   7.582  10.356  0.8316  2.6977 -1.0976
  902MOL0     H21769  10.819   7.505  10.324  0.3423  1.6067  1.2173
  902MOL0     H21770  10.736   7.575  10.180 -0.7613 -0.0960  0.2610
  903MOL0     O21771  10.510  10.974   4.474  0.6892 -0.4778  1.3945
  903MOL0     C21772  10.580  10.886   4.426 -0.0578  0.2678 -0.0714
  903MOL0     O21773  10.715  10.875   4.422  0.0775 -0.8049 -0.3586
  903MOL0     C21774  10.810  10.968   4.460  1.4752 -0.1133  0.1722
  903MOL0     C21775  10.941  10.929   4.436 -0.9063  0.0885  0.1589
  903MOL0     C21776  11.050  11.015   4.458  0.4600  0.0779 -0.1763
  903MOL0     C21777  11.020  11.144   4.503 -0.4099  0.1044 -0.1140
  903MOL0     O21778  11.107  11.247   4.505  0.3589  0.5985 -0.8163
  903MOL0     C21779  11.251  11.216   4.520 -0.1434 -0.0986 -0.5934
  903MOL0     C21780  11.342  11.340   4.577 -0.4499 -0.2305 -0.5564
  903MOL0     C21781  11.305  11.388   4.728  0.6811  0.8009  0.4971
  903MOL0     C21782  11.357  11.528   4.752 -0.3344  0.6809  0.5662
  903MOL0     C21783  11.503  11.544   4.782  0.1872  0.3307 -0.2025
  903MOL0     C21784  11.554  11.684   4.827  1.5762  0.3478 -0.2530
  903MOL0     C21785  11.708  11.694   4.850  0.3470 -0.6370 -0.2687
  903MOL0     C21786  11.753  11.621   4.974  1.6430  0.7677  0.1759
  903MOL0     N21787  11.894  11.622   4.999  0.4012 -0.3197  0.6677
  903MOL0     C21788  11.987  11.536   4.957 -0.3653 -0.7303  1.3554
  903MOL0     C21789  12.107  11.595   4.986 -0.6510 -0.5480 -0.6508
  903MOL0     C21790  12.253  11.553   4.966 -0.7554 -0.6666  0.8172
  903MOL0     C21791  12.351  11.670   5.004  0.1829 -0.5803 -0.2555
  903MOL0     C21792  12.350  11.788   4.909 -0.4562 -0.1355 -0.1382
  903MOL0     C21793  12.449  11.884   4.960  0.1491 -0.9215 -0.0740
  903MOL0     O21794  12.441  12.025   4.932 -0.5242 -0.7360 -0.5962
  903MOL0     C21795  12.341  12.105   4.984 -1.2249 -0.4294  0.6616
  903MOL0     C21796  12.356  12.238   4.962  0.9235  0.8020  0.3114
  903MOL0     C21797  12.250  12.326   4.991  0.1336  0.2386  0.6212
  903MOL0     C21798  12.130  12.279   5.049 -0.3060  0.2250  0.0280
  903MOL0     C21799  12.017  12.372   5.061  0.7621  0.5806  0.5162
  903MOL0     O21800  11.906  12.341   5.139  0.2740 -0.3927 -0.0697
  903MOL0     C21801  11.796  12.431   5.152 -0.7960  0.6809 -0.1547
  903MOL0     C21802  11.683  12.420   5.071 -0.0248 -0.1035  0.6109
  903MOL0     C21803  11.578  12.514   5.086  0.0584  0.7910  0.6061
  903MOL0     C21804  11.581  12.602   5.197  0.4504  0.9885  0.6529
  903MOL0     O21805  11.474  12.677   5.209 -0.1083 -0.7662  0.1606
  903MOL0     C21806  11.370  12.652   5.305 -0.0570 -0.0660 -0.9339
  903MOL0     C21807  11.272  12.547   5.246  0.2078 -0.5261 -0.4276
  903MOL0     C21808  11.178  12.487   5.351  0.3725  0.2212 -0.7878
  903MOL0     C21809  11.065  12.408   5.289 -0.6010  0.0358 -0.5248
  903MOL0     C21810  10.998  12.339   5.401 -0.4597 -0.3231  0.2172
  903MOL0     C21811  10.870  12.269   5.360 -0.6093 -0.0347  0.1351
  903MOL0     C21812  10.819  12.179   5.471  0.6268 -0.1589  0.1245
  903MOL0     C21813  10.717  12.074   5.427  0.0344  0.3572 -0.6693
  903MOL0    Cl21814  10.588  12.162   5.328 -0.1398 -0.5338 -0.3806
  903MOL0     C21815  11.686  12.607   5.283 -0.3062  0.0342 -0.2522
  903MOL0     C21816  11.790  12.515   5.263 -0.3946  0.1950  0.6056
  903MOL0     O21817  12.029  12.482   5.009  0.0595  0.4506  0.3604
  903MOL0     C21818  12.127  12.150   5.085 -0.3613  0.1389 -0.5775
  903MOL0     C21819  12.228  12.059   5.045  0.1052 -0.8271 -0.2014
  903MOL0     N21820  12.084  11.716   5.050  0.1872  0.1169 -0.0777
  903MOL0     N21821  11.957  11.728   5.063 -0.5003  0.1641  0.3910
  903MOL0     C21822  10.893  11.182   4.524  0.2804  0.3276 -0.3211
  903MOL0     C21823  10.781  11.098   4.504  0.1809 -0.3632  0.0426
  903MOL0     C21824  10.512  10.763   4.375  0.4367 -0.1818 -0.0937
  903MOL0     C21825  10.592  10.661   4.321 -0.3295 -0.5935  0.9015
  903MOL0     C21826  10.535  10.551   4.264  0.6125  0.7690  0.4038
  903MOL0     C21827  10.396  10.525   4.259  0.2185  1.2850 -0.5003
  903MOL0     O21828  10.350  10.406   4.212 -0.7619 -0.0467 -0.1026
  903MOL0     C21829  10.251  10.347   4.290 -0.7508  0.8096  0.6033
  903MOL0     C21830  10.207  10.209   4.229 -0.1816 -0.4290 -0.1337
  903MOL0     C21831  10.172  10.229   4.088  0.3719 -0.4219 -0.0377
  903MOL0     C21832  10.096  10.110   4.034  0.4167 -0.9212  0.6890
  903MOL0     C21833  10.052  10.137   3.893  0.9476 -0.4075  0.4613
  903MOL0     C21834  10.014  10.158   3.782  0.1872  0.3918  0.1211
  903MOL0     C21835  10.316  10.625   4.298 -0.5731 -2.0061  0.7547
  903MOL0     C21836  10.368  10.747   4.359  1.2822  0.0727  0.0922
  903MOL0     C21837  10.264  10.847   4.425 -0.3373  0.2284  0.0054
  903MOL0     H21838  10.962  10.827   4.405  1.4946  0.8167 -0.8975
  903MOL0     H21839  11.148  10.990   4.418 -0.0790  2.0134 -2.9872
  903MOL0     H21840  11.251  11.129   4.586 -1.1032  2.0493  2.4528
  903MOL0     H21841  11.296  11.192   4.423  0.5586  0.0686 -0.3158
  903MOL0     H21842  11.336  11.424   4.508 -1.2180 -1.1260 -1.6227
  903MOL0     H21843  11.446  11.305   4.574 -0.9196 -1.6616 -0.8467
  903MOL0     H21844  11.340  11.318   4.804  2.0923 -0.2841 -1.0489
  903MOL0     H21845  11.196  11.388   4.742  0.6207 -2.9377  1.0863
  903MOL0     H21846  11.321  11.589   4.668 -0.6475  0.2927  0.4115
  903MOL0     H21847  11.307  11.573   4.838  2.8314  2.7141  1.5232
  903MOL0     H21848  11.539  11.474   4.858  1.0665  2.0038  0.9706
  903MOL0     H21849  11.550  11.527   4.684 -3.3991  1.2576 -2.2373
  903MOL0     H21850  11.515  11.754   4.752 -0.8177  1.0473  1.5055
  903MOL0     H21851  11.505  11.729   4.914 -1.3468 -1.5475 -0.7468
  903MOL0     H21852  11.738  11.799   4.859  0.7393 -0.6385 -1.3125
  903MOL0     H21853  11.753  11.648   4.761  0.5687 -1.0882  0.0738
  903MOL0     H21854  11.706  11.660   5.065  1.5853 -0.1316  0.5456
  903MOL0     H21855  11.719  11.517   4.971 -2.5583  1.9392  0.8226
  903MOL0     H21856  11.979  11.440   4.906 -1.3609 -0.3479  0.7828
  903MOL0     H21857  12.268  11.463   5.026  0.0439 -0.2170  1.3153
  903MOL0     H21858  12.284  11.532   4.863  2.5597  0.0642  1.5640
  903MOL0     H21859  12.330  11.703   5.106 -0.0349  2.6544 -1.2368
  903MOL0     H21860  12.452  11.632   5.018  0.4017  0.8544  2.9937
  903MOL0     H21861  12.244  11.813   4.901 -0.1469  0.9485 -1.0646
  903MOL0     H21862  12.382  11.763   4.808 -0.9759  2.4464 -1.0215
  903MOL0     H21863  12.546  11.847   4.925  1.7255  0.0770  2.9149
  903MOL0     H21864  12.451  11.880   5.069  3.1349 -3.1580 -0.0643
  903MOL0     H21865  12.441  12.276   4.908  1.2168 -3.8475 -3.0641
  903MOL0     H21866  12.259  12.430   4.963  0.4881  0.3693  1.2124
  903MOL0     H21867  11.672  12.363   4.980  2.8204  1.1904 -0.6675
  903MOL0     H21868  11.493  12.520   5.018 -2.2055  1.6937  3.3018
  903MOL0     H21869  11.408  12.602   5.394  1.4487 -0.4853 -1.7725
  903MOL0     H21870  11.329  12.741   5.353  1.8721 -0.4404  1.6165
  903MOL0     H21871  11.209  12.575   5.162 -3.3058 -3.5070  0.9118
  903MOL0     H21872  11.335  12.466   5.208 -1.5995 -3.4395  2.2427
  903MOL0     H21873  11.236  12.439   5.430  0.9612  0.1516 -1.2554
  903MOL0     H21874  11.141  12.576   5.403  2.9154 -0.1405  1.8890
  903MOL0     H21875  11.095  12.329   5.221 -0.7979 -0.3208 -0.2018
  903MOL0     H21876  11.008  12.486   5.236 -0.5229 -0.0996 -0.8089
  903MOL0     H21877  10.970  12.419   5.470 -1.8513  2.0726 -2.8960
  903MOL0     H21878  11.068  12.275   5.455 -1.7003 -1.8121  0.1406
  903MOL0     H21879  10.792  12.339   5.329 -0.9802  1.0304  3.1355
  903MOL0     H21880  10.893  12.210   5.271  0.9296  0.4835  0.1617
  903MOL0     H21881  10.765  12.241   5.542  0.8071 -0.5860  0.6462
  903MOL0     H21882  10.903  12.140   5.530  1.1209  0.8263  0.0784
  903MOL0     H21883  10.754  11.986   5.374  1.6148  0.7689 -0.3077
  903MOL0     H21884  10.667  12.027   5.512 -0.5003 -0.1377 -1.2500
  903MOL0     H21885  11.682  12.675   5.367 -1.2116  1.5639 -1.4873
  903MOL0     H21886  11.871  12.526   5.334 -0.2624 -0.6151  0.5901
  903MOL0     H21887  12.036  12.125   5.138 -1.5861  1.5051 -1.9102
  903MOL0     H21888  12.199  11.957   5.068 -1.3604 -0.1201  1.3305
  903MOL0     H21889  10.874  11.285   4.555  0.6003 -0.0424  1.1847
  903MOL0     H21890  10.682  11.139   4.527  0.4790 -1.7371  4.9965
  903MOL0     H21891  10.701  10.665   4.318 -0.1848 -2.5128  2.0461
  903MOL0     H21892  10.602  10.471   4.235  1.0885  0.5275  2.0900
  903MOL0     H21893  10.165  10.414   4.296 -0.6941  0.9927 -0.5057
  903MOL0     H21894  10.295  10.334   4.390  1.5394  2.7564 -0.0673
  903MOL0     H21895  10.120  10.167   4.280  1.0184 -1.9265  0.7503
  903MOL0     H21896  10.290  10.138   4.231 -0.0592 -0.3911 -1.9339
  903MOL0     H21897  10.263  10.238   4.029  0.2712  1.5160  0.0558
  903MOL0     H21898  10.116  10.320   4.067  1.4690 -0.0404 -1.4598
  903MOL0     H21899  10.165  10.025   4.041 -1.3832 -2.7092 -1.5889
  903MOL0     H21900  10.003  10.084   4.085  1.0301 -4.4603  0.2446
  903MOL0     H21901   9.981  10.176   3.682  0.2510 -0.1940 -0.0116
  903MOL0     H21902  10.211  10.604   4.279 -0.3547 -3.7648  1.3599
  903MOL0     H21903  10.170  10.791   4.435  0.7149 -1.8608 -1.0601
  903MOL0     H21904  10.289  10.894   4.520 -1.8077  2.2069 -0.5121
  903MOL0     H21905  10.249  10.926   4.351 -0.5632  0.6874  0.5331
  904MOL0     O21906  11.041   9.880  11.021  0.8720  0.6407 -0.3336
  904MOL0     C21907  10.940   9.803  11.019  0.6826 -0.3237 -1.2351
  904MOL0     O21908  10.910   9.712  11.110  0.9139  0.2124  0.6423
  904MOL0     C21909  10.978   9.702  11.223 -0.2352  1.1756  0.1863
  904MOL0     C21910  10.955   9.800  11.319  0.0618  0.5633 -0.0001
  904MOL0     C21911  11.022   9.794  11.447 -0.3425 -0.8725 -0.1463
  904MOL0     C21912  11.118   9.692  11.467  0.6908  0.8662  0.2500
  904MOL0     O21913  11.195   9.670  11.583 -0.3737 -0.2515 -0.2720
  904MOL0     C21914  11.128   9.676  11.707  0.5355 -0.4907 -1.3270
  904MOL0     C21915  11.217   9.724  11.819 -1.0011 -0.2541  0.3669
  904MOL0     C21916  11.346   9.640  11.843 -0.3459 -1.0839 -0.6219
  904MOL0     C21917  11.303   9.495  11.867 -0.5177  0.1744  0.2730
  904MOL0     C21918  11.423   9.398  11.892 -1.2169  0.3615  0.0842
  904MOL0     C21919  11.528   9.400  11.777 -0.1941 -0.3534  0.4162
  904MOL0     C21920  11.630   9.307  11.805 -1.0714  0.0256 -0.3182
  904MOL0     C21921  11.764   9.339  11.725 -0.4394  0.2276 -0.0325
  904MOL0     N21922  11.852   9.220  11.727  0.4975  0.1652 -0.4191
  904MOL0     C21923  11.955   9.188  11.816 -0.7774  0.1966 -0.3418
  904MOL0     C21924  11.983   9.058  11.795 -0.2413 -0.2238  0.3325
  904MOL0     C21925  12.070   8.981  11.895  0.4533 -0.5965  0.2089
  904MOL0     C21926  12.207   8.948  11.833  0.3038 -0.5664 -0.6239
  904MOL0     C21927  12.199   8.830  11.730  0.6719  0.3538  0.0397
  904MOL0     C21928  12.339   8.797  11.685  0.1134 -0.0599 -0.2129
  904MOL0     O21929  12.372   8.915  11.611  0.4546 -0.3868  0.3600
  904MOL0     C21930  12.506   8.911  11.583 -0.5922 -0.2469 -0.5325
  904MOL0     C21931  12.537   9.005  11.480  0.7234  0.8795 -0.7345
  904MOL0     C21932  12.665   9.037  11.441 -0.6689 -0.3011 -0.8223
  904MOL0     C21933  12.773   8.979  11.514 -1.1510 -0.2614  0.1841
  904MOL0     C21934  12.909   9.013  11.475 -0.9269  0.5537 -0.0374
  904MOL0     O21935  13.011   8.920  11.493  0.9337 -0.6525 -0.4497
  904MOL0     C21936  13.141   8.969  11.480  0.9954  0.0177  0.8975
  904MOL0     C21937  13.188   9.059  11.569 -0.0414 -1.1164  0.3228
  904MOL0     C21938  13.313   9.111  11.546 -0.2438 -0.2416  0.5348
  904MOL0     C21939  13.394   9.075  11.436  1.1547  0.6974  0.1118
  904MOL0     O21940  13.514   9.131  11.390  0.3608  0.5352 -0.3180
  904MOL0     C21941  13.620   9.154  11.484 -0.6110  0.6801 -0.5260
  904MOL0     C21942  13.735   9.219  11.397  0.9426 -0.4470  0.2076
  904MOL0     C21943  13.866   9.254  11.469 -0.0841 -0.4441  0.6148
  904MOL0     C21944  13.973   9.292  11.358 -0.5140  0.6306  0.8293
  904MOL0     C21945  14.114   9.280  11.416 -0.1356  0.4901  0.5535
  904MOL0     C21946  14.134   9.353  11.548  0.4331 -0.4615  0.6945
  904MOL0     C21947  14.280   9.378  11.591  0.5843 -0.4172 -0.0268
  904MOL0     C21948  14.357   9.279  11.676  0.1545  0.4457 -0.1897
  904MOL0    Cl21949  14.437   9.144  11.567 -0.1846  0.0270 -0.2700
  904MOL0     C21950  13.340   8.977  11.352  0.2667 -0.4311 -0.7198
  904MOL0     C21951  13.210   8.934  11.368 -0.2853 -0.2624  0.5621
  904MOL0     O21952  12.929   9.124  11.429 -0.3862  0.0701 -0.9656
  904MOL0     C21953  12.744   8.882  11.613 -0.0966 -0.7784 -0.2023
  904MOL0     C21954  12.613   8.847  11.649 -0.6910 -0.0764 -0.2350
  904MOL0     N21955  11.906   9.008  11.686  0.1912 -0.0802 -0.7128
  904MOL0     N21956  11.835   9.109  11.648  0.8494 -0.2866 -0.2635
  904MOL0     C21957  11.140   9.596  11.365 -0.1352  0.8795  1.6939
  904MOL0     C21958  11.059   9.597  11.246 -0.5011  0.9178  1.1380
  904MOL0     C21959  10.845   9.818  10.899 -0.5915  0.2657  0.7389
  904MOL0     C21960  10.765   9.712  10.852 -0.0223 -0.4332  0.6449
  904MOL0     C21961  10.687   9.734  10.737 -0.2745 -0.2015  0.0214
  904MOL0     C21962  10.671   9.858  10.673 -0.4300 -0.1785 -0.6471
  904MOL0     O21963  10.594   9.878  10.563 -0.5309 -0.7435  0.9717
  904MOL0     C21964  10.480   9.803  10.545 -0.1513 -0.2541  0.2978
  904MOL0     C21965  10.360   9.894  10.512 -0.8788 -0.2843 -0.5494
  904MOL0     C21966  10.398   9.965  10.369 -0.0683  0.7774 -0.4745
  904MOL0     C21967  10.382   9.872  10.244 -0.0228 -1.1116  0.2750
  904MOL0     C21968  10.245   9.833  10.231 -0.2598 -0.3036 -0.1269
  904MOL0     C21969  10.125   9.807  10.214  0.0114  0.7074  0.3836
  904MOL0     C21970  10.746   9.962  10.733  0.1509  0.4340  0.7715
  904MOL0     C21971  10.829   9.947  10.837 -0.3965  0.0099  0.4963
  904MOL0     C21972  10.899  10.079  10.888  0.1530  0.3169  0.1372
  904MOL0     H21973  10.881   9.878  11.302 -3.2734 -1.9463  1.8230
  904MOL0     H21974  11.009   9.868  11.525 -0.6189 -0.0935 -0.9050
  904MOL0     H21975  11.044   9.745  11.717  2.4264  1.7048  0.8541
  904MOL0     H21976  11.079   9.581  11.731 -0.4610  0.5120  0.9889
  904MOL0     H21977  11.163   9.749  11.911 -3.2099 -1.9905 -0.3527
  904MOL0     H21978  11.254   9.821  11.786  0.6725  0.2516  3.3992
  904MOL0     H21979  11.407   9.677  11.926 -2.4191  1.1018  0.0500
  904MOL0     H21980  11.410   9.649  11.755  1.5545 -2.7294  0.5101
  904MOL0     H21981  11.236   9.491  11.954  0.2144  1.3272  0.8992
  904MOL0     H21982  11.253   9.455  11.778  1.0753 -4.6939  1.2748
  904MOL0     H21983  11.483   9.436  11.975 -0.5709  1.3913 -0.8326
  904MOL0     H21984  11.392   9.295  11.913  2.4729 -0.5954  1.7237
  904MOL0     H21985  11.485   9.374  11.679 -0.3425 -1.3444  0.7339
  904MOL0     H21986  11.571   9.500  11.783 -2.0067  0.4082  1.7912
  904MOL0     H21987  11.596   9.213  11.761  0.0032 -0.4792 -0.1084
  904MOL0     H21988  11.655   9.295  11.911  0.9284 -2.1151 -0.9473
  904MOL0     H21989  11.749   9.363  11.620 -1.8187 -2.8888 -0.6767
  904MOL0     H21990  11.820   9.418  11.776 -0.3839 -0.6501  1.3366
  904MOL0     H21991  11.998   9.256  11.890 -0.5353  2.1183 -2.1663
  904MOL0     H21992  12.078   9.030  11.992 -1.1323 -1.9236  1.0699
  904MOL0     H21993  12.030   8.886  11.933  0.1782 -0.2676  0.7617
  904MOL0     H21994  12.241   9.034  11.774 -0.1585 -1.0136 -1.5679
  904MOL0     H21995  12.260   8.915  11.923  1.5065 -4.4872 -2.5376
  904MOL0     H21996  12.140   8.851  11.640  1.2369  1.8094 -0.0275
  904MOL0     H21997  12.169   8.743  11.788 -1.6086  0.4809 -0.8332
  904MOL0     H21998  12.328   8.704  11.628 -2.9093  0.4932 -0.6855
  904MOL0     H21999  12.404   8.787  11.773 -0.3042 -0.3335  0.0686
  904MOL0     H22000  12.447   9.045  11.433 -2.1328 -2.6055  1.2402
  904MOL0     H22001  12.684   9.110  11.363  0.4208 -0.6357 -0.8797
  904MOL0     H22002  13.136   9.091  11.659 -1.2206  0.3773 -0.8300
  904MOL0     H22003  13.345   9.195  11.607 -0.8919 -1.2800  2.3698
  904MOL0     H22004  13.594   9.216  11.569 -0.8827 -0.1177 -0.0102
  904MOL0     H22005  13.652   9.057  11.524 -2.5683 -0.0864 -0.7114
  904MOL0     H22006  13.751   9.157  11.308 -2.6067 -1.6067  0.1989
  904MOL0     H22007  13.694   9.314  11.364  1.2457 -0.2754  0.3220
  904MOL0     H22008  13.852   9.336  11.540  1.4096  1.0271 -0.7124
  904MOL0     H22009  13.912   9.170  11.523  3.5669  2.2566  2.1325
  904MOL0     H22010  13.960   9.386  11.303  0.2469  0.0059 -0.4922
  904MOL0     H22011  13.980   9.217  11.279 -1.3809  1.3349  0.0473
  904MOL0     H22012  14.179   9.324  11.341  1.4573  2.7354  3.0657
  904MOL0     H22013  14.146   9.175  11.424 -1.8521 -0.1515 -0.5714
  904MOL0     H22014  14.077   9.447  11.547  1.8606  0.4679  2.2248
  904MOL0     H22015  14.078   9.303  11.628 -0.1487 -1.3794 -0.2608
  904MOL0     H22016  14.271   9.476  11.637 -0.4211  0.0407 -1.1497
  904MOL0     H22017  14.344   9.405  11.507 -0.7655  0.3124 -0.8554
  904MOL0     H22018  14.437   9.341  11.717 -1.8863  1.7424  2.0979
  904MOL0     H22019  14.299   9.243  11.761 -4.0815  2.0582 -2.1317
  904MOL0     H22020  13.401   8.943  11.270  1.0187  0.3591 -0.5004
  904MOL0     H22021  13.181   8.862  11.293 -0.9438 -2.6737  2.9574
  904MOL0     H22022  12.824   8.849  11.679  0.2115 -1.1391 -0.7454
  904MOL0     H22023  12.595   8.777  11.730  1.1650 -0.8455 -0.4381
  904MOL0     H22024  11.207   9.512  11.382 -1.4458 -0.5768  0.0664
  904MOL0     H22025  11.075   9.524  11.168  0.4524  0.8757  1.3704
  904MOL0     H22026  10.772   9.616  10.903  2.5156  0.2264  1.7070
  904MOL0     H22027  10.636   9.645  10.702  0.8377 -0.9695  0.2999
  904MOL0     H22028  10.449   9.756  10.639  0.4890  0.7200  1.0047
  904MOL0     H22029  10.492   9.728  10.465  2.2606  1.2160 -0.8129
  904MOL0     H22030  10.351   9.975  10.585 -3.3207 -0.5514 -0.4795
  904MOL0     H22031  10.269   9.834  10.512 -0.7329 -0.5213  0.6685
  904MOL0     H22032  10.495  10.016  10.367  0.5582 -0.3874 -2.2785
  904MOL0     H22033  10.317  10.036  10.351 -2.4775 -1.7326 -0.2169
  904MOL0     H22034  10.413   9.930  10.157 -4.0407 -1.0925 -1.3201
  904MOL0     H22035  10.445   9.782  10.247  4.2918  1.5390 -1.5428
  904MOL0     H22036  10.020   9.809  10.193 -0.0760  2.1336  0.8482
  904MOL0     H22037  10.729  10.060  10.688 -2.4237  0.4127  1.5711
  904MOL0     H22038  10.894  10.097  10.995  0.7387 -1.0252  0.4079
  904MOL0     H22039  11.001  10.064  10.850 -0.3898 -1.2812 -0.7920
  904MOL0     H22040  10.869  10.167  10.830  2.9529  0.5864 -1.0693
  905MOL0     O22041   9.078   0.325   4.009 -0.9753 -0.0939 -0.0423
  905MOL0     C22042   9.055   0.425   4.076 -0.1556  0.6632 -0.3959
  905MOL0     O22043   9.146   0.523   4.118  0.2632 -0.4744 -0.0740
  905MOL0     C22044   9.282   0.505   4.099 -0.5402 -0.1815 -0.2460
  905MOL0     C22045   9.357   0.574   4.190 -0.5231 -0.3241 -0.9749
  905MOL0     C22046   9.498   0.566   4.187 -0.0129 -0.0735 -0.3733
  905MOL0     C22047   9.561   0.474   4.100 -0.2731  0.4125 -0.0937
  905MOL0     O22048   9.691   0.435   4.095  0.1874  0.0926  0.3045
  905MOL0     C22049   9.786   0.501   4.186  0.4239  0.4854  0.6568
  905MOL0     C22050   9.927   0.507   4.113  0.1881  0.0230  0.0579
  905MOL0     C22051  10.039   0.534   4.209  0.7446  0.5144 -1.1477
  905MOL0     C22052  10.173   0.493   4.139  0.2649  0.6827  0.0592
  905MOL0     C22053  10.298   0.505   4.233 -0.3317  0.0662 -0.8291
  905MOL0     C22054  10.427   0.446   4.179  0.1609 -0.4456  0.1707
  905MOL0     C22055  10.550   0.458   4.270 -0.3449 -0.0725  0.8428
  905MOL0     C22056  10.570   0.590   4.343  0.0590 -0.6630 -0.5647
  905MOL0     N22057  10.711   0.611   4.371 -0.3285 -0.2305 -0.1318
  905MOL0     C22058  10.786   0.552   4.472  0.0506  0.4054 -0.4705
  905MOL0     C22059  10.913   0.572   4.436 -0.4958  0.0418 -0.6592
  905MOL0     C22060  11.029   0.511   4.517 -0.3339 -0.6630  0.3240
  905MOL0     C22061  11.155   0.520   4.429 -0.0077  0.3796 -0.5965
  905MOL0     C22062  11.282   0.465   4.502 -0.3638  0.3871  0.0607
  905MOL0     C22063  11.406   0.551   4.470  0.5411 -0.1836 -0.0758
  905MOL0     O22064  11.522   0.493   4.525 -0.4965 -0.9637 -0.1765
  905MOL0     C22065  11.632   0.479   4.446  0.7070 -0.5940  0.1992
  905MOL0     C22066  11.724   0.381   4.480 -0.0646  0.2813  0.4448
  905MOL0     C22067  11.840   0.367   4.406  0.0916  0.3289 -0.5069
  905MOL0     C22068  11.855   0.451   4.294  0.1411  0.7092  0.3273
  905MOL0     C22069  11.984   0.445   4.218 -0.3560 -0.4590  0.9133
  905MOL0     O22070  12.036   0.326   4.190  0.1839  0.0320 -0.1071
  905MOL0     C22071  12.146   0.323   4.121 -0.9097  0.7562  0.6118
  905MOL0     C22072  12.160   0.281   3.985  1.0335  0.3322  0.0218
  905MOL0     C22073  12.282   0.273   3.919 -0.8844 -0.0104 -0.5884
  905MOL0     C22074  12.397   0.301   3.992 -0.3945 -0.1171 -0.0310
  905MOL0     O22075  12.522   0.287   3.934  0.5564 -0.3919  0.5313
  905MOL0     C22076  12.540   0.193   3.827  1.4968  0.3386 -0.5653
  905MOL0     C22077  12.693   0.169   3.816 -0.7109 -0.2049  0.1726
  905MOL0     C22078  12.752   0.272   3.723  0.4865 -0.1877 -0.2832
  905MOL0     C22079  12.904   0.272   3.711  0.0191 -0.7705  0.0961
  905MOL0     C22080  12.957   0.412   3.752  0.2388  1.1624 -0.7085
  905MOL0     C22081  13.106   0.418   3.697 -0.6489 -0.1393 -0.0343
  905MOL0     C22082  13.204   0.361   3.798  0.3556  0.5549  0.0392
  905MOL0     C22083  13.348   0.336   3.741  0.9435 -0.4746 -0.1483
  905MOL0    Cl22084  13.420   0.507   3.728  0.4658 -0.1476 -0.3742
  905MOL0     C22085  12.385   0.361   4.115 -0.1794 -0.5351 -0.7194
  905MOL0     C22086  12.262   0.365   4.176  0.0387 -0.7069 -0.1082
  905MOL0     O22087  12.019   0.559   4.171  0.5271  0.2171  0.0217
  905MOL0     C22088  11.766   0.538   4.249  0.6153  0.6263  0.2813
  905MOL0     C22089  11.654   0.562   4.322  0.1141  0.4341 -0.8067
  905MOL0     N22090  10.926   0.653   4.325  1.0240  0.5886 -1.6850
  905MOL0     N22091  10.804   0.683   4.291 -0.1591  0.1116 -0.6036
  905MOL0     C22092   9.480   0.413   4.000  0.1231  0.1571  0.0535
  905MOL0     C22093   9.344   0.433   3.997 -0.2800 -0.0396  0.7775
  905MOL0     C22094   8.911   0.445   4.107 -0.8735 -0.2152 -0.2257
  905MOL0     C22095   8.826   0.338   4.080 -0.4853 -0.2805 -0.0550
  905MOL0     C22096   8.698   0.345   4.121 -0.8526  0.1386  0.1964
  905MOL0     C22097   8.634   0.451   4.187 -0.5761 -1.2947 -0.6344
  905MOL0     O22098   8.505   0.474   4.228  0.1836 -0.4924  0.2578
  905MOL0     C22099   8.417   0.373   4.208 -0.3009  0.1095  0.5428
  905MOL0     C22100   8.277   0.432   4.172 -0.0191 -0.6498  0.4130
  905MOL0     C22101   8.285   0.513   4.034 -0.1130 -0.2796 -0.7843
  905MOL0     C22102   8.157   0.515   3.948  0.1146  0.2309  0.3772
  905MOL0     C22103   8.048   0.596   4.012  0.3189  0.5852 -0.1234
  905MOL0     C22104   7.964   0.661   4.072 -0.6682  0.2451 -0.0909
  905MOL0     C22105   8.714   0.560   4.200 -1.2301 -0.3345 -0.2785
  905MOL0     C22106   8.859   0.561   4.175  0.4374 -0.8746 -0.1525
  905MOL0     C22107   8.937   0.689   4.208 -0.0181  1.0142  0.2490
  905MOL0     H22108   9.304   0.624   4.270  0.9707 -2.1817  1.3207
  905MOL0     H22109   9.549   0.619   4.266  0.3320  0.2831 -0.8262
  905MOL0     H22110   9.754   0.600   4.218 -0.9643  0.4829 -0.6304
  905MOL0     H22111   9.785   0.439   4.276  1.8640 -0.0637  0.3292
  905MOL0     H22112   9.928   0.578   4.029  2.5852  0.2769  0.2295
  905MOL0     H22113   9.947   0.410   4.067  0.1144  0.1874 -0.3222
  905MOL0     H22114  10.016   0.474   4.297  1.8145 -1.2446 -2.0194
  905MOL0     H22115  10.036   0.640   4.236 -0.8244 -0.3527  2.8068
  905MOL0     H22116  10.159   0.385   4.131  1.4934  0.4267  1.0650
  905MOL0     H22117  10.187   0.530   4.037 -0.4264 -4.5360 -2.2355
  905MOL0     H22118  10.306   0.610   4.259 -3.5001  0.0059  0.8699
  905MOL0     H22119  10.284   0.450   4.327 -0.3039  0.3210 -0.6755
  905MOL0     H22120  10.403   0.343   4.151 -1.4698 -0.0910  0.1540
  905MOL0     H22121  10.453   0.502   4.089 -2.0410  0.4485  0.0396
  905MOL0     H22122  10.629   0.437   4.197  0.2081  0.7480  1.2027
  905MOL0     H22123  10.548   0.380   4.346 -0.3088  0.2723  1.1981
  905MOL0     H22124  10.540   0.684   4.296 -1.5655 -1.6356 -1.5451
  905MOL0     H22125  10.513   0.590   4.436  0.6912  0.9572 -0.1407
  905MOL0     H22126  10.740   0.515   4.563 -1.5815  3.3252  0.0106
  905MOL0     H22127  11.040   0.565   4.612  0.4862  1.5040 -0.9237
  905MOL0     H22128  11.022   0.406   4.545 -1.5510  0.1451  3.5086
  905MOL0     H22129  11.140   0.465   4.336 -1.5908  1.8204 -1.2496
  905MOL0     H22130  11.183   0.619   4.392 -0.0218  0.0513 -1.4969
  905MOL0     H22131  11.290   0.358   4.479  1.6621 -0.1758  2.8629
  905MOL0     H22132  11.272   0.473   4.610  1.4384  4.4930  0.0993
  905MOL0     H22133  11.385   0.647   4.517 -0.1033 -2.4473  4.9946
  905MOL0     H22134  11.409   0.571   4.363  0.2224 -1.0417 -0.2570
  905MOL0     H22135  11.718   0.319   4.569  2.4401 -1.5710 -0.5668
  905MOL0     H22136  11.917   0.296   4.431 -0.2839 -0.0538 -0.4157
  905MOL0     H22137  12.080   0.244   3.921  2.3547 -0.0203 -1.4864
  905MOL0     H22138  12.287   0.233   3.818 -0.2371  0.3167 -0.6925
  905MOL0     H22139  12.490   0.100   3.857  0.2192  0.2076 -2.8872
  905MOL0     H22140  12.507   0.222   3.727 -0.0684 -2.6744 -1.0390
  905MOL0     H22141  12.746   0.179   3.911 -0.8417  3.0495  0.0365
  905MOL0     H22142  12.727   0.072   3.778  2.0694  1.2772 -1.4539
  905MOL0     H22143  12.717   0.240   3.624  2.1409 -3.1547 -0.0267
  905MOL0     H22144  12.711   0.371   3.744 -2.9628 -1.5070 -0.0765
  905MOL0     H22145  12.930   0.236   3.611 -2.4076 -3.9806  0.4407
  905MOL0     H22146  12.947   0.196   3.777 -0.5019 -0.6906  0.5404
  905MOL0     H22147  12.966   0.424   3.861  0.0295  0.6774 -0.6353
  905MOL0     H22148  12.903   0.494   3.704  1.0654  0.9452 -2.0538
  905MOL0     H22149  13.101   0.368   3.600 -3.2155 -2.3972  1.1024
  905MOL0     H22150  13.129   0.525   3.692 -1.0807 -0.0996 -1.5120
  905MOL0     H22151  13.159   0.270   3.838 -0.3138  1.6714  1.9643
  905MOL0     H22152  13.206   0.435   3.879 -4.2776  0.3924  0.5369
  905MOL0     H22153  13.390   0.264   3.812 -1.8182 -3.3085 -1.1348
  905MOL0     H22154  13.338   0.287   3.644 -3.9996 -1.0518  0.3665
  905MOL0     H22155  12.475   0.394   4.167 -1.0082  1.6253 -0.5398
  905MOL0     H22156  12.253   0.396   4.279 -0.5306 -1.4994  0.0892
  905MOL0     H22157  11.772   0.581   4.149 -5.1428 -0.9694 -1.1345
  905MOL0     H22158  11.584   0.640   4.296  1.8373  2.7522  1.0324
  905MOL0     H22159   9.537   0.353   3.929 -0.5111 -0.8112  0.3459
  905MOL0     H22160   9.284   0.391   3.917 -0.9763 -1.2905  1.9334
  905MOL0     H22161   8.864   0.246   4.036  0.6825  0.2075 -0.1146
  905MOL0     H22162   8.638   0.256   4.109 -1.1644  0.2797  0.6802
  905MOL0     H22163   8.405   0.322   4.305 -0.5493 -0.7994  0.0473
  905MOL0     H22164   8.446   0.301   4.131 -2.0666  1.4462 -1.4843
  905MOL0     H22165   8.254   0.496   4.258  1.4742 -1.6191  1.5825
  905MOL0     H22166   8.204   0.352   4.160 -1.2056  0.4037  0.3742
  905MOL0     H22167   8.361   0.457   3.980  1.6291 -0.5941  1.7998
  905MOL0     H22168   8.309   0.618   4.051 -1.9120 -0.1960  1.9101
  905MOL0     H22169   8.197   0.564   3.858 -0.0027  2.5350  1.5021
  905MOL0     H22170   8.122   0.416   3.919  5.5277 -1.5371 -1.4658
  905MOL0     H22171   7.890   0.722   4.120 -1.8459 -0.0776 -1.4161
  905MOL0     H22172   8.668   0.641   4.255  1.6198  2.3783 -1.6080
  905MOL0     H22173   8.992   0.722   4.120 -1.4382 -1.4668 -1.6787
  905MOL0     H22174   8.877   0.772   4.245 -1.9285  0.5566 -1.6120
  905MOL0     H22175   9.009   0.657   4.284  2.3060  2.9848 -0.9938
  906MOL0     O22176   7.111   4.523   6.986 -0.4793 -0.0921 -0.1941
  906MOL0     C22177   7.120   4.472   6.875 -0.0941 -0.7312  0.3064
  906MOL0     O22178   7.216   4.389   6.831 -0.0414  0.0831 -0.1732
  906MOL0     C22179   7.330   4.369   6.899  0.6258  0.1063 -1.2676
  906MOL0     C22180   7.395   4.242   6.893  0.3100 -0.2312  0.2332
  906MOL0     C22181   7.522   4.228   6.955  0.2422  0.2295  0.3019
  906MOL0     C22182   7.587   4.333   7.018  0.7732  0.1337 -0.6140
  906MOL0     O22183   7.693   4.301   7.097 -0.5261  0.2942 -0.1589
  906MOL0     C22184   7.732   4.385   7.213  0.3290 -0.1770  0.1427
  906MOL0     C22185   7.854   4.473   7.192  0.0923  0.4473 -0.7028
  906MOL0     C22186   7.913   4.518   7.328 -1.1773  0.0853  0.5391
  906MOL0     C22187   8.052   4.444   7.358  0.3598 -1.0155 -0.3288
  906MOL0     C22188   8.113   4.493   7.490  0.2116 -0.3998 -0.4792
  906MOL0     C22189   8.246   4.420   7.533 -0.3083 -0.3722  0.2413
  906MOL0     C22190   8.302   4.468   7.665 -0.1785  0.6391  0.2831
  906MOL0     C22191   8.458   4.443   7.660 -0.4683  0.5455 -0.0091
  906MOL0     N22192   8.515   4.310   7.656  0.4852  0.1212  0.4259
  906MOL0     C22193   8.462   4.200   7.597 -0.3137  0.0719  0.7253
  906MOL0     C22194   8.545   4.102   7.635  1.1260 -0.4034 -0.1114
  906MOL0     C22195   8.526   3.969   7.585  0.3774 -0.1363 -0.0445
  906MOL0     C22196   8.399   3.905   7.638  0.2854  0.0851 -0.5231
  906MOL0     C22197   8.401   3.842   7.778 -0.2453 -0.3991 -1.5285
  906MOL0     C22198   8.478   3.709   7.767  0.2718  0.0026 -0.0357
  906MOL0     O22199   8.508   3.643   7.886 -0.0438 -0.0839  0.6590
  906MOL0     C22200   8.618   3.681   7.954 -0.5456  0.3014 -0.1411
  906MOL0     C22201   8.633   3.636   8.084  0.0115  0.4843  0.2092
  906MOL0     C22202   8.746   3.668   8.159  0.2167  0.4065  0.2001
  906MOL0     C22203   8.857   3.728   8.103 -0.3284 -0.3536  0.5201
  906MOL0     C22204   8.984   3.752   8.174  1.1810  0.5743 -0.3349
  906MOL0     O22205   8.984   3.711   8.304 -0.4107 -0.0717  0.8706
  906MOL0     C22206   9.082   3.763   8.385 -0.8600 -0.4695 -0.1831
  906MOL0     C22207   9.039   3.806   8.511  0.5000 -0.4779 -0.3653
  906MOL0     C22208   9.132   3.834   8.612 -0.0672 -0.5905 -0.6175
  906MOL0     C22209   9.268   3.849   8.596 -0.3161  0.2419  0.5630
  906MOL0     O22210   9.356   3.883   8.693 -0.2096  0.2806 -0.2789
  906MOL0     C22211   9.317   3.976   8.793  0.0619 -0.2779 -0.1280
  906MOL0     C22212   9.429   3.979   8.892  1.4649 -0.4975 -0.3493
  906MOL0     C22213   9.570   3.969   8.829  0.6291  0.2861  0.8393
  906MOL0     C22214   9.684   4.029   8.919  0.6108  0.2572  0.5196
  906MOL0     C22215   9.714   3.940   9.037  0.0322  0.5211 -0.0415
  906MOL0     C22216   9.840   3.989   9.102 -0.0467  0.2673 -0.3674
  906MOL0     C22217   9.857   3.940   9.235 -0.5154 -0.2900 -0.0666
  906MOL0     C22218   9.989   3.999   9.288  0.1065  1.2145  0.4271
  906MOL0    Cl22219  10.125   3.892   9.255  0.3560  0.4510  0.3016
  906MOL0     C22220   9.315   3.816   8.462 -0.3354  0.4051  0.5102
  906MOL0     C22221   9.220   3.778   8.360 -0.3867 -0.1084 -0.7736
  906MOL0     O22222   9.073   3.816   8.123  0.0538  0.2788 -0.2443
  906MOL0     C22223   8.846   3.767   7.972  0.2418 -0.0226  0.7755
  906MOL0     C22224   8.730   3.741   7.896  0.9137 -0.4136  0.1190
  906MOL0     N22225   8.641   4.151   7.711  0.3327  0.3822  0.3611
  906MOL0     N22226   8.627   4.278   7.726 -0.3794  0.0569  0.4260
  906MOL0     C22227   7.533   4.464   7.018  0.4474  0.1033  0.7894
  906MOL0     C22228   7.399   4.479   6.961 -0.2115 -0.3706  0.4637
  906MOL0     C22229   7.015   4.512   6.778 -0.1583 -0.2148 -0.5271
  906MOL0     C22230   6.965   4.641   6.792  0.0212  0.2068 -0.2658
  906MOL0     C22231   6.871   4.691   6.708  0.6542 -0.2921 -0.0949
  906MOL0     C22232   6.839   4.618   6.595  1.0030 -0.4016 -0.0330
  906MOL0     O22233   6.744   4.681   6.515 -0.6124  0.2154 -0.4030
  906MOL0     C22234   6.725   4.629   6.378 -0.5655  0.0219 -0.3772
  906MOL0     C22235   6.615   4.694   6.294  0.2800  0.5141  0.1569
  906MOL0     C22236   6.627   4.845   6.295 -0.2029  0.6695 -0.7151
  906MOL0     C22237   6.502   4.906   6.232  0.2986  0.0642  0.3146
  906MOL0     C22238   6.537   5.042   6.189  0.5467  0.3562 -0.8786
  906MOL0     C22239   6.554   5.160   6.163  0.3832 -0.5027  1.0869
  906MOL0     C22240   6.880   4.486   6.574 -0.7474 -0.5074  0.4950
  906MOL0     C22241   6.966   4.431   6.666 -0.4181  0.0097  0.7336
  906MOL0     C22242   7.010   4.288   6.633  0.5246  0.7337 -0.5068
  906MOL0     H22243   7.348   4.166   6.832  1.2159 -0.0057 -0.7676
  906MOL0     H22244   7.570   4.131   6.966 -1.1770 -0.9628 -2.8196
  906MOL0     H22245   7.645   4.432   7.259 -1.7291 -3.1367 -0.3949
  906MOL0     H22246   7.770   4.314   7.287 -0.6883  0.3920  1.2336
  906MOL0     H22247   7.823   4.555   7.127 -0.7056 -1.1709 -2.4486
  906MOL0     H22248   7.938   4.415   7.152  0.4807  0.9427 -0.6117
  906MOL0     H22249   7.835   4.500   7.402 -1.2171 -1.4268  0.1656
  906MOL0     H22250   7.937   4.624   7.334  2.0566 -0.6034  1.8565
  906MOL0     H22251   8.047   4.335   7.353 -0.4137 -0.9451 -1.5454
  906MOL0     H22252   8.114   4.475   7.274 -4.1303 -2.1669 -4.5617
  906MOL0     H22253   8.148   4.596   7.487  0.8169 -0.6142 -1.6128
  906MOL0     H22254   8.041   4.483   7.571 -2.4156  1.1296 -2.4699
  906MOL0     H22255   8.219   4.315   7.549 -0.1249 -0.3251  0.9084
  906MOL0     H22256   8.316   4.424   7.449  1.7664  2.0582  1.9175
  906MOL0     H22257   8.256   4.416   7.750 -1.4188  2.2493  0.6509
  906MOL0     H22258   8.291   4.576   7.671 -1.6298  0.9883 -4.3111
  906MOL0     H22259   8.506   4.490   7.574  0.1189  0.0790  0.0628
  906MOL0     H22260   8.496   4.487   7.752  4.4422  1.0616 -1.9648
  906MOL0     H22261   8.394   4.201   7.513  2.5203  2.3388 -1.7817
  906MOL0     H22262   8.518   3.968   7.476  0.2014 -1.1982 -0.0331
  906MOL0     H22263   8.611   3.904   7.610  0.8945 -0.0157 -1.3760
  906MOL0     H22264   8.317   3.978   7.641 -0.2448 -0.4278 -1.8851
  906MOL0     H22265   8.376   3.825   7.567 -2.3575  1.9158 -1.9148
  906MOL0     H22266   8.300   3.812   7.808 -1.1720  2.4157 -1.5294
  906MOL0     H22267   8.436   3.913   7.853 -0.9123 -0.9543 -0.6756
  906MOL0     H22268   8.567   3.711   7.702  1.1759 -1.1625  1.1046
  906MOL0     H22269   8.397   3.645   7.733  1.1959  0.6664 -3.9395
  906MOL0     H22270   8.550   3.590   8.137  1.9859 -1.3328  1.9084
  906MOL0     H22271   8.742   3.638   8.263  0.5051  1.3541  0.4879
  906MOL0     H22272   8.932   3.805   8.530  1.0587 -1.4440  3.6030
  906MOL0     H22273   9.090   3.852   8.711  0.7453 -1.1037 -0.1717
  906MOL0     H22274   9.306   4.074   8.745  0.1740  1.1195  2.4905
  906MOL0     H22275   9.225   3.943   8.842 -0.6424 -1.4854 -2.1504
  906MOL0     H22276   9.416   4.067   8.956 -0.5268 -2.3004  1.9738
  906MOL0     H22277   9.412   3.899   8.966 -1.4700  0.7147  0.4424
  906MOL0     H22278   9.588   3.864   8.802  3.5789  0.8385  0.3260
  906MOL0     H22279   9.580   4.023   8.734 -0.1636 -0.1000  0.5276
  906MOL0     H22280   9.648   4.127   8.951 -2.5342 -0.9068  0.9059
  906MOL0     H22281   9.770   4.017   8.852 -1.6894 -1.0712 -2.4733
  906MOL0     H22282   9.749   3.842   9.003 -0.2886  0.0930  0.8464
  906MOL0     H22283   9.629   3.924   9.104 -1.9338  0.7111 -2.3078
  906MOL0     H22284   9.927   3.959   9.041 -1.0233 -1.5335 -0.9548
  906MOL0     H22285   9.843   4.098   9.109 -3.0771  0.2902  2.5113
  906MOL0     H22286   9.871   3.833   9.252  0.7863  0.1520  1.9819
  906MOL0     H22287   9.766   3.967   9.290  1.7915  2.7401  2.6554
  906MOL0     H22288  10.015   4.097   9.247 -2.0381  1.6657  0.0039
  906MOL0     H22289   9.982   4.016   9.396  2.1521 -0.1508  0.8243
  906MOL0     H22290   9.420   3.832   8.437  0.3714  0.5928  3.2666
  906MOL0     H22291   9.259   3.767   8.260 -0.4710 -0.7472 -0.7395
  906MOL0     H22292   8.924   3.826   7.925 -0.9317  1.7176  0.9133
  906MOL0     H22293   8.727   3.768   7.791 -2.0465 -0.7470  0.0264
  906MOL0     H22294   7.583   4.548   7.065  0.1955  0.3020  0.7028
  906MOL0     H22295   7.356   4.578   6.948 -2.9585 -1.6559 -0.8805
  906MOL0     H22296   6.984   4.705   6.877  2.3508  1.2298 -1.4582
  906MOL0     H22297   6.815   4.782   6.726 -0.0964 -1.1838  2.4610
  906MOL0     H22298   6.700   4.524   6.397 -0.5567  0.3718  1.9401
  906MOL0     H22299   6.817   4.621   6.320 -0.1260 -1.2173  0.4295
  906MOL0     H22300   6.523   4.680   6.352 -0.8986  1.1864 -1.4840
  906MOL0     H22301   6.601   4.637   6.202 -2.3393  1.0455  0.1272
  906MOL0     H22302   6.716   4.857   6.233 -0.5014 -1.8217 -1.7377
  906MOL0     H22303   6.644   4.884   6.396  0.3940 -2.1280  0.3785
  906MOL0     H22304   6.464   4.848   6.148  2.6200  0.8527 -1.3715
  906MOL0     H22305   6.412   4.902   6.294  1.0004  0.1064  1.3661
  906MOL0     H22306   6.559   5.266   6.146  2.2096 -0.4021  2.0571
  906MOL0     H22307   6.851   4.425   6.489 -0.7894  2.3435 -1.6981
  906MOL0     H22308   7.019   4.226   6.723 -2.5981  2.1321  0.9211
  906MOL0     H22309   6.945   4.235   6.563  2.5116 -3.5239  0.5329
  906MOL0     H22310   7.113   4.295   6.599  1.2616  1.0912  1.6387
  907MOL0     O22311   5.183   2.650   7.363  0.1923 -0.2462  0.2678
  907MOL0     C22312   5.095   2.724   7.337  0.2586 -0.5473 -0.9455
  907MOL0     O22313   5.114   2.850   7.286 -0.6034 -0.0642  0.4023
  907MOL0     C22314   5.230   2.926   7.316  0.2287  0.3566  0.6687
  907MOL0     C22315   5.365   2.887   7.299 -0.2649  0.5684 -0.6843
  907MOL0     C22316   5.480   2.970   7.312  0.2873  0.2072 -0.1814
  907MOL0     C22317   5.455   3.109   7.347  0.1586  1.0294  0.5821
  907MOL0     O22318   5.554   3.193   7.344 -1.0826 -0.3733  0.3546
  907MOL0     C22319   5.549   3.321   7.271  0.9651  0.0144 -0.0684
  907MOL0     C22320   5.673   3.333   7.181 -0.5970  0.2034 -0.2311
  907MOL0     C22321   5.801   3.345   7.265  0.6214 -0.7547  0.0291
  907MOL0     C22322   5.924   3.374   7.175 -0.6279 -0.5593 -1.0133
  907MOL0     C22323   6.040   3.409   7.271 -0.0395  0.0695  0.0697
  907MOL0     C22324   6.073   3.298   7.368  0.7744  0.2245  1.0362
  907MOL0     C22325   6.198   3.317   7.454 -0.3224 -0.4481  1.0008
  907MOL0     C22326   6.325   3.336   7.371  0.1901 -0.4098 -0.3268
  907MOL0     N22327   6.438   3.354   7.463  0.2291 -0.5300  0.2118
  907MOL0     C22328   6.561   3.297   7.444 -0.4850  0.4578  0.2619
  907MOL0     C22329   6.641   3.344   7.542  0.2293 -0.2511 -0.4404
  907MOL0     C22330   6.783   3.315   7.569  0.4434  0.7788  0.9476
  907MOL0     C22331   6.875   3.449   7.548 -0.8495 -0.0386  0.4987
  907MOL0     C22332   6.838   3.552   7.651 -0.5523  0.1211  0.0456
  907MOL0     C22333   6.948   3.653   7.669 -0.7340 -0.1353 -1.3065
  907MOL0     O22334   7.046   3.600   7.763  0.5977  0.4285 -0.4644
  907MOL0     C22335   7.160   3.671   7.780 -0.9132 -1.0124  0.4468
  907MOL0     C22336   7.272   3.597   7.805 -0.0849 -0.1342  0.1134
  907MOL0     C22337   7.396   3.662   7.834  0.6054  0.2919 -0.1904
  907MOL0     C22338   7.403   3.803   7.842 -0.3486  0.9135 -1.0203
  907MOL0     C22339   7.530   3.873   7.860 -0.8028 -0.1415  0.1721
  907MOL0     O22340   7.543   4.001   7.815  0.5771  0.1717  0.4670
  907MOL0     C22341   7.646   4.085   7.834 -0.0353  0.0638 -0.0470
  907MOL0     C22342   7.737   4.116   7.724  0.7299 -0.1479 -0.0737
  907MOL0     C22343   7.824   4.216   7.745 -0.0819  0.8211  0.0797
  907MOL0     C22344   7.835   4.281   7.865 -0.0184  0.4567 -0.8143
  907MOL0     O22345   7.921   4.392   7.868  0.0545  0.8841  0.2177
  907MOL0     C22346   7.919   4.484   7.984  0.4490  1.0274  0.6833
  907MOL0     C22347   8.023   4.593   7.980 -0.1341 -0.1862 -0.5752
  907MOL0     C22348   8.041   4.673   8.113 -0.1533  0.1763 -0.0421
  907MOL0     C22349   7.917   4.698   8.200 -0.0532  0.0941 -0.3650
  907MOL0     C22350   7.939   4.763   8.335  0.2145  0.2141 -0.2403
  907MOL0     C22351   8.039   4.886   8.336  0.7333 -0.1591 -0.3233
  907MOL0     C22352   7.999   4.995   8.240  0.7074 -0.6151 -0.3336
  907MOL0     C22353   8.060   5.134   8.276  0.5316 -0.3380 -0.8381
  907MOL0    Cl22354   8.242   5.140   8.244 -0.3424 -0.0138  0.3643
  907MOL0     C22355   7.764   4.237   7.979 -0.3936 -0.4845 -0.3635
  907MOL0     C22356   7.671   4.133   7.959  0.2808  0.8596 -0.3887
  907MOL0     O22357   7.627   3.805   7.907  0.1379  0.0582  0.1675
  907MOL0     C22358   7.283   3.876   7.827  0.0782  0.1927 -0.6327
  907MOL0     C22359   7.172   3.813   7.786 -0.1692 -0.3502 -0.0949
  907MOL0     N22360   6.562   3.442   7.616 -0.6567 -0.9362  0.8707
  907MOL0     N22361   6.444   3.444   7.565 -0.4200  0.2159 -0.2048
  907MOL0     C22362   5.320   3.146   7.376 -0.8674 -0.9125  0.3348
  907MOL0     C22363   5.218   3.054   7.361  0.6142 -0.6298 -0.1369
  907MOL0     C22364   4.957   2.687   7.345  0.4641 -0.1624 -0.1429
  907MOL0     C22365   4.866   2.749   7.255 -1.1570 -0.1586 -1.5103
  907MOL0     C22366   4.746   2.689   7.211  0.6490 -0.1288  0.6787
  907MOL0     C22367   4.701   2.579   7.284 -0.7561  0.0715 -0.1296
  907MOL0     O22368   4.595   2.497   7.264 -0.5504  0.1762  0.5347
  907MOL0     C22369   4.497   2.551   7.170 -0.2359  0.2344 -0.2806
  907MOL0     C22370   4.362   2.472   7.153 -1.0663 -0.5619 -0.3545
  907MOL0     C22371   4.379   2.321   7.141 -0.0322  0.4990  0.1952
  907MOL0     C22372   4.420   2.287   6.994 -0.0235  1.0889 -0.7575
  907MOL0     C22373   4.562   2.316   6.971 -0.3052 -0.1009  0.1575
  907MOL0     C22374   4.681   2.328   6.950 -0.0573  0.3402 -0.7524
  907MOL0     C22375   4.780   2.534   7.391 -0.1794 -0.3713  0.9261
  907MOL0     C22376   4.902   2.585   7.427  0.4228  0.2846  0.0684
  907MOL0     C22377   4.973   2.529   7.553  0.1574  1.1042 -0.2160
  907MOL0     H22378   5.383   2.786   7.264  3.3121 -0.2320  2.7877
  907MOL0     H22379   5.578   2.942   7.274  0.1065  1.9477 -2.1269
  907MOL0     H22380   5.459   3.325   7.210 -0.0011  0.9528  1.3696
  907MOL0     H22381   5.522   3.397   7.344  0.5576 -0.4042  0.2253
  907MOL0     H22382   5.656   3.426   7.126 -0.9967  0.2328 -0.0578
  907MOL0     H22383   5.679   3.262   7.098 -2.2636  1.0867 -1.1533
  907MOL0     H22384   5.812   3.255   7.325 -1.2844 -0.4655  0.8759
  907MOL0     H22385   5.792   3.429   7.334  1.6700  0.0984 -0.8210
  907MOL0     H22386   5.950   3.285   7.117  3.0208  0.7556 -1.6947
  907MOL0     H22387   5.902   3.457   7.107 -3.2893  0.1069  0.5028
  907MOL0     H22388   6.131   3.427   7.213 -1.0879  0.5967 -1.4891
  907MOL0     H22389   6.010   3.502   7.321 -0.2671 -2.4057  5.1259
  907MOL0     H22390   5.988   3.286   7.436 -0.5056  1.0287 -0.3499
  907MOL0     H22391   6.079   3.205   7.309  1.8507  0.5914  0.5392
  907MOL0     H22392   6.200   3.217   7.498 -0.1143 -0.4470  0.9942
  907MOL0     H22393   6.191   3.397   7.529  1.7489 -1.4176  2.3111
  907MOL0     H22394   6.336   3.241   7.318  1.6759 -2.0225  2.6100
  907MOL0     H22395   6.318   3.421   7.303 -0.9879  0.4932  0.8657
  907MOL0     H22396   6.575   3.222   7.368  0.5300  0.2322  0.6621
  907MOL0     H22397   6.805   3.276   7.669  3.1622  2.2659  1.0098
  907MOL0     H22398   6.814   3.236   7.499 -1.7830 -1.4043  2.2684
  907MOL0     H22399   6.977   3.411   7.560 -1.0234 -0.3736  0.9217
  907MOL0     H22400   6.861   3.486   7.446  2.8180  1.5551  0.4299
  907MOL0     H22401   6.815   3.496   7.742  2.4929 -1.4493 -0.0287
  907MOL0     H22402   6.754   3.611   7.613  0.3619  0.8852 -0.8615
  907MOL0     H22403   6.896   3.739   7.712  1.1558  0.6939 -0.5796
  907MOL0     H22404   6.999   3.666   7.573 -0.1038 -2.1764 -1.3076
  907MOL0     H22405   7.255   3.490   7.808 -1.6225  0.1090  1.8913
  907MOL0     H22406   7.484   3.599   7.836 -0.9846 -2.1934  3.7206
  907MOL0     H22407   7.730   4.071   7.625  3.1878  1.6462 -1.1826
  907MOL0     H22408   7.866   4.253   7.652 -2.1735  1.2201 -0.7765
  907MOL0     H22409   7.818   4.527   7.985 -1.3187 -2.4546 -2.4718
  907MOL0     H22410   7.951   4.424   8.070  2.0164  0.4938 -0.2316
  907MOL0     H22411   8.117   4.546   7.950 -0.8020 -1.6038 -0.4792
  907MOL0     H22412   8.006   4.657   7.893  2.3840 -0.1638 -1.1241
  907MOL0     H22413   8.127   4.625   8.160  0.8401  0.1592 -1.7795
  907MOL0     H22414   8.083   4.772   8.089  0.1556  1.0508  3.6034
  907MOL0     H22415   7.857   4.607   8.206 -2.6957  1.8068  1.2327
  907MOL0     H22416   7.862   4.770   8.139 -0.1171  0.5496  0.2253
  907MOL0     H22417   7.993   4.696   8.403  2.4448  2.1754  0.0544
  907MOL0     H22418   7.846   4.802   8.376 -0.3251 -3.0647  2.0646
  907MOL0     H22419   8.044   4.931   8.435 -0.4871  2.6086 -1.4293
  907MOL0     H22420   8.140   4.853   8.311 -0.1366 -2.2001 -1.3735
  907MOL0     H22421   7.890   4.995   8.237  0.6452  2.3912 -2.1498
  907MOL0     H22422   8.028   4.969   8.138  1.6219 -0.8690 -0.0184
  907MOL0     H22423   8.010   5.219   8.230  0.0652  1.0889  2.1011
  907MOL0     H22424   8.041   5.152   8.382 -4.1819  1.2106 -1.7062
  907MOL0     H22425   7.763   4.274   8.081 -1.2284 -2.3143  0.3392
  907MOL0     H22426   7.618   4.088   8.042  1.2996 -1.8220 -1.0715
  907MOL0     H22427   7.298   3.981   7.849  2.2849 -0.5722  2.0471
  907MOL0     H22428   7.091   3.884   7.769  0.3328  1.0512  2.6971
  907MOL0     H22429   5.298   3.249   7.404  1.7105 -0.7631  2.2007
  907MOL0     H22430   5.119   3.094   7.381  0.2233 -0.4761 -2.1618
  907MOL0     H22431   4.907   2.833   7.200  3.4797 -0.1935  1.3150
  907MOL0     H22432   4.691   2.740   7.132 -0.0914  0.8975  1.8208
  907MOL0     H22433   4.538   2.558   7.069 -2.0267  0.9438 -1.0033
  907MOL0     H22434   4.475   2.648   7.216 -2.0101 -0.3632  0.2093
  907MOL0     H22435   4.309   2.509   7.064 -2.0547 -1.1671 -0.0340
  907MOL0     H22436   4.300   2.499   7.239  0.4802 -1.2184  0.9986
  907MOL0     H22437   4.277   2.283   7.146 -0.5523  1.2235 -2.8186
  907MOL0     H22438   4.443   2.274   7.217  0.7654 -1.2746 -1.5028
  907MOL0     H22439   4.412   2.178   6.985  0.9858  1.0718 -1.6974
  907MOL0     H22440   4.342   2.319   6.925 -0.8023 -2.8905 -2.0187
  907MOL0     H22441   4.782   2.346   6.920  1.2090  0.9689  3.3123
  907MOL0     H22442   4.756   2.441   7.441 -1.2093 -1.1418 -0.9084
  907MOL0     H22443   4.893   2.546   7.626 -3.2412 -0.9490 -3.1132
  907MOL0     H22444   4.990   2.421   7.555  1.3098  1.1796  4.1764
  907MOL0     H22445   5.065   2.581   7.582  1.9535 -1.8444 -0.2793
  908MOL0     O22446   9.970   8.040   6.228 -0.1737  0.3559  0.4273
  908MOL0     C22447   9.907   7.948   6.280 -0.3795 -0.1973 -0.5217
  908MOL0     O22448   9.905   7.933   6.411  0.0116 -0.1792 -0.3448
  908MOL0     C22449   9.999   8.009   6.482  0.1039  0.1162  0.3255
  908MOL0     C22450   9.952   8.129   6.535 -0.3820  0.5054 -1.2528
  908MOL0     C22451  10.027   8.200   6.628  0.2675 -0.7292  0.2493
  908MOL0     C22452  10.166   8.172   6.642  0.9980 -0.5974 -0.1728
  908MOL0     O22453  10.242   8.258   6.721 -1.0193 -0.3236  0.2734
  908MOL0     C22454  10.380   8.219   6.741  0.0907  0.3313 -0.1206
  908MOL0     C22455  10.444   8.327   6.839  1.2707  0.2307 -0.7441
  908MOL0     C22456  10.584   8.354   6.824 -0.4415 -1.0736  0.0989
  908MOL0     C22457  10.680   8.235   6.853 -0.0277 -0.0383  0.1942
  908MOL0     C22458  10.659   8.153   6.983  0.0155  0.3710  0.0002
  908MOL0     C22459  10.685   8.235   7.105 -0.5510  0.3748  0.1622
  908MOL0     C22460  10.767   8.158   7.203 -0.2715  0.0142 -0.8297
  908MOL0     C22461  10.773   8.210   7.347  0.3429  0.1988  0.4798
  908MOL0     N22462  10.790   8.353   7.334 -0.4013 -0.0885  0.4527
  908MOL0     C22463  10.902   8.416   7.264  0.0952 -0.0254 -0.1503
  908MOL0     C22464  10.883   8.546   7.305  0.3734  0.4095 -0.2541
  908MOL0     C22465  10.961   8.671   7.264  0.2853 -0.0035 -0.0157
  908MOL0     C22466  11.115   8.662   7.279  0.3046  0.5105  0.2744
  908MOL0     C22467  11.180   8.796   7.246 -0.2787  0.0082  0.4567
  908MOL0     C22468  11.326   8.787   7.241  0.3922 -0.9207  1.1297
  908MOL0     O22469  11.390   8.912   7.200 -0.4900 -0.4075  0.3414
  908MOL0     C22470  11.523   8.913   7.154 -0.5747 -0.6394  0.3454
  908MOL0     C22471  11.609   8.809   7.136 -0.5442  0.6873  0.1468
  908MOL0     C22472  11.736   8.834   7.085 -1.1118 -0.0583  0.6607
  908MOL0     C22473  11.792   8.964   7.074  0.7787  0.2622  0.0596
  908MOL0     C22474  11.928   8.995   7.023 -0.9233  0.9688 -0.5648
  908MOL0     O22475  12.003   8.891   6.986 -1.2966 -0.0777  0.8319
  908MOL0     C22476  12.129   8.907   6.923  0.2788  0.1923  0.0239
  908MOL0     C22477  12.173   8.806   6.837 -0.0742  0.3494 -0.4385
  908MOL0     C22478  12.293   8.819   6.778 -0.4927  0.2281  0.8522
  908MOL0     C22479  12.375   8.911   6.818 -0.5665 -0.7957  0.4748
  908MOL0     O22480  12.501   8.915   6.768  0.2993 -0.4242  0.3280
  908MOL0     C22481  12.585   8.811   6.811  0.8880  0.2120  0.0117
  908MOL0     C22482  12.633   8.744   6.683  0.5408 -0.0951 -0.0012
  908MOL0     C22483  12.718   8.625   6.709 -0.2619 -0.7276 -0.6760
  908MOL0     C22484  12.860   8.671   6.749  0.8333  0.2406  0.0762
  908MOL0     C22485  12.954   8.546   6.755  0.6087 -1.1862  0.9415
  908MOL0     C22486  13.017   8.506   6.622 -0.3673 -0.1956 -0.3274
  908MOL0     C22487  13.104   8.380   6.652  0.7787 -0.5200 -0.5367
  908MOL0     C22488  13.131   8.297   6.526  0.0320 -0.3766  0.2583
  908MOL0    Cl22489  13.223   8.152   6.559 -0.3277  0.6013  0.2867
  908MOL0     C22490  12.343   9.013   6.904  0.5925 -0.1754 -0.1622
  908MOL0     C22491  12.212   9.013   6.954 -0.4134 -0.0142  0.7746
  908MOL0     O22492  11.953   9.114   7.002 -0.3383  0.2722 -0.0188
  908MOL0     C22493  11.703   9.072   7.096  0.0978  0.0111 -1.3415
  908MOL0     C22494  11.567   9.044   7.134 -0.1782  1.1694 -0.1586
  908MOL0     N22495  10.767   8.555   7.385  1.0074  0.8212 -0.5981
  908MOL0     N22496  10.707   8.443   7.396  0.5845  0.1335  0.5211
  908MOL0     C22497  10.212   8.050   6.574 -0.5284 -0.5167 -0.1009
  908MOL0     C22498  10.120   7.963   6.516  0.6066 -0.3244  0.0375
  908MOL0     C22499   9.816   7.868   6.196  0.5242 -0.0465  0.3426
  908MOL0     C22500   9.732   7.778   6.262  0.2171  0.6336 -0.5748
  908MOL0     C22501   9.632   7.705   6.189 -0.7248 -0.4370 -0.8751
  908MOL0     C22502   9.617   7.724   6.054 -0.5066  0.0491  0.7397
  908MOL0     O22503   9.516   7.655   5.980 -0.1738  0.7434  0.0310
  908MOL0     C22504   9.449   7.541   6.044  0.6543 -0.0483  0.5105
  908MOL0     C22505   9.358   7.462   5.946 -0.0024 -0.2376  0.2714
  908MOL0     C22506   9.257   7.556   5.879 -0.1800  0.5639 -0.2175
  908MOL0     C22507   9.124   7.546   5.965  0.7361 -0.2874 -0.1192
  908MOL0     C22508   9.025   7.629   5.894 -0.0675  1.6424  0.2112
  908MOL0     C22509   8.941   7.698   5.840  0.0789 -0.3962 -1.2762
  908MOL0     C22510   9.702   7.807   5.985 -0.2950  0.3267 -0.3562
  908MOL0     C22511   9.807   7.875   6.051  0.1447  0.2123  0.2508
  908MOL0     C22512   9.893   7.970   5.965 -0.1929 -0.1834  0.0207
  908MOL0     H22513   9.850   8.163   6.521 -1.0479 -1.4564 -1.4372
  908MOL0     H22514   9.979   8.285   6.675  0.7236 -0.7520  0.7834
  908MOL0     H22515  10.383   8.114   6.771 -1.6551 -0.5057 -2.5803
  908MOL0     H22516  10.436   8.232   6.648  0.2188  0.5485 -0.0159
  908MOL0     H22517  10.421   8.286   6.938  0.9442 -0.2812 -1.0276
  908MOL0     H22518  10.383   8.417   6.828  1.7221  1.0917  2.6491
  908MOL0     H22519  10.601   8.436   6.895 -1.2245  0.6307 -1.6204
  908MOL0     H22520  10.619   8.390   6.727  1.2902  0.9772  1.3782
  908MOL0     H22521  10.653   8.162   6.775 -2.2796  1.6653 -0.7175
  908MOL0     H22522  10.784   8.266   6.843  0.1355 -0.8964 -1.1560
  908MOL0     H22523  10.556   8.117   6.991 -0.1375  0.6973 -0.4604
  908MOL0     H22524  10.720   8.063   6.978  0.1232  0.3246  1.4660
  908MOL0     H22525  10.738   8.329   7.088  2.2678 -1.2408 -0.4915
  908MOL0     H22526  10.587   8.254   7.150 -2.0502 -2.0689 -1.8095
  908MOL0     H22527  10.870   8.143   7.171  0.1682  0.9286  0.0972
  908MOL0     H22528  10.725   8.059   7.219  1.3739 -0.4652  0.8681
  908MOL0     H22529  10.684   8.191   7.408 -0.4223  1.3972 -0.2255
  908MOL0     H22530  10.861   8.169   7.399 -0.9062 -2.2594  0.7639
  908MOL0     H22531  10.976   8.375   7.197 -2.3427  2.3373 -4.7717
  908MOL0     H22532  10.935   8.692   7.159 -2.1147  1.9187  0.8604
  908MOL0     H22533  10.934   8.754   7.330  0.6413 -0.9027  1.3086
  908MOL0     H22534  11.153   8.628   7.376 -0.5943 -0.1323  0.4059
  908MOL0     H22535  11.148   8.585   7.209 -1.6528 -2.9080  2.8258
  908MOL0     H22536  11.145   8.870   7.319 -3.6897 -1.5820  0.5907
  908MOL0     H22537  11.139   8.832   7.151  0.4655  0.3769  0.2631
  908MOL0     H22538  11.352   8.702   7.177  0.4599  0.7151 -1.1288
  908MOL0     H22539  11.358   8.768   7.344  0.7885  0.6260  1.3198
  908MOL0     H22540  11.586   8.703   7.139 -1.0663  0.5157 -4.2010
  908MOL0     H22541  11.800   8.756   7.047  0.4809 -0.4717  3.9093
  908MOL0     H22542  12.111   8.721   6.810 -0.8102  1.2332 -1.6638
  908MOL0     H22543  12.327   8.740   6.711  0.5562  1.6276 -0.3323
  908MOL0     H22544  12.676   8.838   6.864  0.5713  0.8076  0.2644
  908MOL0     H22545  12.531   8.736   6.870  3.1711  0.3125  2.3844
  908MOL0     H22546  12.553   8.716   6.613  2.0360 -0.3421 -1.6849
  908MOL0     H22547  12.686   8.816   6.620  0.3365  0.1980  0.1645
  908MOL0     H22548  12.683   8.569   6.796  2.7840 -0.6127  0.7884
  908MOL0     H22549  12.722   8.562   6.620 -0.1325  0.5296 -1.5898
  908MOL0     H22550  12.858   8.711   6.851  1.0450  0.8641 -0.1615
  908MOL0     H22551  12.894   8.750   6.682  3.9599 -1.3621 -0.4023
  908MOL0     H22552  12.904   8.459   6.797  1.1845 -1.4042  1.1807
  908MOL0     H22553  13.034   8.574   6.823  3.1648 -3.6875 -0.8131
  908MOL0     H22554  12.936   8.487   6.550  0.4663  0.9505 -1.6312
  908MOL0     H22555  13.082   8.585   6.582 -0.4744  0.3199  0.4948
  908MOL0     H22556  13.059   8.308   6.721 -0.0481 -0.5124 -1.0674
  908MOL0     H22557  13.192   8.423   6.701 -1.1074  0.8054  1.9381
  908MOL0     H22558  13.038   8.264   6.479  0.7327 -0.4750 -1.1154
  908MOL0     H22559  13.185   8.353   6.449  0.8653 -1.2311  0.1976
  908MOL0     H22560  12.400   9.102   6.928  0.8346  0.8197 -3.7349
  908MOL0     H22561  12.183   9.074   7.039  1.5567  0.5789  1.0838
  908MOL0     H22562  11.727   9.177   7.079 -0.2791  0.3077 -0.1422
  908MOL0     H22563  11.499   9.129   7.135 -0.3971  1.0280 -1.2919
  908MOL0     H22564  10.310   8.002   6.575  0.4503  1.2340  2.7184
  908MOL0     H22565  10.148   7.863   6.484 -1.5214 -0.8050 -0.4147
  908MOL0     H22566   9.740   7.753   6.367 -3.8469 -1.2397 -0.4952
  908MOL0     H22567   9.574   7.632   6.244 -1.2713  1.1537  0.7675
  908MOL0     H22568   9.393   7.586   6.126  1.2245  3.8518 -1.0278
  908MOL0     H22569   9.516   7.473   6.096 -0.1707 -0.8502  0.5532
  908MOL0     H22570   9.302   7.378   5.987 -1.7515  0.7362 -0.0015
  908MOL0     H22571   9.432   7.423   5.875  0.5494 -0.5662  1.0151
  908MOL0     H22572   9.242   7.519   5.777 -1.9243 -1.7345  0.7810
  908MOL0     H22573   9.296   7.658   5.887 -3.3898  1.8522  0.8501
  908MOL0     H22574   9.081   7.447   5.977 -4.5120  1.6968 -0.2247
  908MOL0     H22575   9.143   7.589   6.064  1.0263 -1.3149  0.2868
  908MOL0     H22576   8.875   7.764   5.787  0.6427  0.9202 -0.4111
  908MOL0     H22577   9.693   7.815   5.877  0.2929 -3.5922 -0.8358
  908MOL0     H22578   9.855   8.072   5.966  2.2273  0.8113 -1.1242
  908MOL0     H22579   9.997   7.965   5.999 -0.3555  1.9802  0.9771
  908MOL0     H22580   9.900   7.949   5.858 -0.6306  3.2254 -0.7709
  909MOL0     O22581   3.974   0.517   5.019  0.0734  0.3224  0.1198
  909MOL0     C22582   3.959   0.522   5.141  0.0210 -0.6883 -0.3441
  909MOL0     O22583   4.010   0.619   5.225  0.4001  0.1612  0.0616
  909MOL0     C22584   4.059   0.736   5.164  0.6797 -0.3002 -0.9306
  909MOL0     C22585   3.993   0.796   5.060  0.2905 -0.2725  0.8456
  909MOL0     C22586   4.073   0.878   4.976 -0.7124 -0.5384  0.7538
  909MOL0     C22587   4.215   0.911   5.006 -0.1333  0.2290 -0.4811
  909MOL0     O22588   4.291   0.992   4.927 -1.1415  0.5538  0.4636
  909MOL0     C22589   4.366   1.103   4.985  0.5760  0.4748 -0.6095
  909MOL0     C22590   4.414   1.196   4.882 -0.3618  0.1525  0.3704
  909MOL0     C22591   4.302   1.270   4.808  0.1898  0.7743  0.3446
  909MOL0     C22592   4.237   1.388   4.892  0.0900 -0.3305  0.0029
  909MOL0     C22593   4.127   1.458   4.822 -0.1141 -0.0474 -0.1447
  909MOL0     C22594   4.084   1.580   4.904  0.1290 -1.1238 -0.2270
  909MOL0     C22595   3.983   1.565   5.017  0.1590  1.0489 -0.5483
  909MOL0     C22596   3.942   1.692   5.086 -1.1240 -0.4532  0.2080
  909MOL0     N22597   4.051   1.786   5.100  0.8920 -0.2628 -0.1425
  909MOL0     C22598   4.139   1.791   5.203 -0.3001 -0.5717 -0.6026
  909MOL0     C22599   4.217   1.891   5.187  0.5223 -0.6877  0.5799
  909MOL0     C22600   4.341   1.910   5.262 -0.2779  0.2850 -0.3367
  909MOL0     C22601   4.458   1.947   5.175 -0.5313  0.4705  0.7514
  909MOL0     C22602   4.483   1.876   5.046 -0.6724  0.9158 -0.7338
  909MOL0     C22603   4.530   1.721   5.061  0.0542  0.1851 -0.0873
  909MOL0     O22604   4.425   1.648   5.128 -0.2143 -0.4015  0.5101
  909MOL0     C22605   4.439   1.518   5.182 -0.0576  0.2709 -0.3815
  909MOL0     C22606   4.565   1.458   5.206  0.9117 -0.4542 -0.4524
  909MOL0     C22607   4.570   1.329   5.271  0.4784  0.2097 -1.2309
  909MOL0     C22608   4.445   1.264   5.309  0.1823 -0.4399  0.4165
  909MOL0     C22609   4.449   1.122   5.351  0.1713  0.4963 -0.5429
  909MOL0     O22610   4.576   1.063   5.365 -0.2086 -0.3788  0.1961
  909MOL0     C22611   4.592   0.930   5.400 -0.1649 -0.5193 -0.3320
  909MOL0     C22612   4.493   0.834   5.435 -0.8736 -0.0816 -0.0210
  909MOL0     C22613   4.519   0.707   5.490  0.0981  0.0796  0.1629
  909MOL0     C22614   4.653   0.671   5.505 -0.1894  0.3961  0.2301
  909MOL0     O22615   4.684   0.541   5.548  0.0423 -0.2896 -0.2122
  909MOL0     C22616   4.783   0.534   5.654  0.3098 -0.5322 -0.0976
  909MOL0     C22617   4.701   0.529   5.788  0.6007 -0.2143  0.5047
  909MOL0     C22618   4.714   0.663   5.867  0.4584  0.2914 -0.1645
  909MOL0     C22619   4.630   0.671   5.997 -0.2568  0.0548 -0.1392
  909MOL0     C22620   4.486   0.626   5.985 -0.0435 -0.5627  0.0023
  909MOL0     C22621   4.403   0.708   5.880 -0.2783 -0.7444 -0.4260
  909MOL0     C22622   4.253   0.679   5.877 -0.1677  0.1980 -0.4316
  909MOL0     C22623   4.219   0.528   5.855  0.3483  0.4457 -0.4263
  909MOL0    Cl22624   4.294   0.467   5.705 -0.0703 -0.0654 -0.3783
  909MOL0     C22625   4.750   0.767   5.473 -0.0043 -0.7549 -1.0868
  909MOL0     C22626   4.724   0.895   5.424  0.5119  0.3612  0.9250
  909MOL0     O22627   4.342   1.075   5.371 -0.0600  0.1522 -0.1636
  909MOL0     C22628   4.326   1.328   5.278  0.0979 -0.9685 -0.6507
  909MOL0     C22629   4.325   1.458   5.216  0.3072 -0.2041 -0.3054
  909MOL0     N22630   4.167   1.972   5.091  0.0190  0.2504  0.1466
  909MOL0     N22631   4.062   1.910   5.040  0.5386 -0.2234 -0.0706
  909MOL0     C22632   4.263   0.853   5.126 -0.3253  0.2166  0.6836
  909MOL0     C22633   4.190   0.770   5.204 -0.2223 -0.3294  0.7319
  909MOL0     C22634   3.885   0.412   5.202 -0.1636  0.7342  1.4679
  909MOL0     C22635   3.817   0.322   5.115 -0.5741 -1.0492  0.2964
  909MOL0     C22636   3.738   0.213   5.156  0.5481 -0.1156 -0.2080
  909MOL0     C22637   3.716   0.190   5.293  0.2333  0.7842 -0.1842
  909MOL0     O22638   3.619   0.098   5.325 -0.2475 -0.9305 -0.4783
  909MOL0     C22639   3.621   0.055   5.463 -0.0716  0.6616  0.5083
  909MOL0     C22640   3.526   0.141   5.544  0.7616  0.2337  0.1535
  909MOL0     C22641   3.470   0.057   5.661  0.4362 -0.5780  0.0508
  909MOL0     C22642   3.365   0.143   5.740  0.1821  0.1261 -0.0560
  909MOL0     C22643   3.326   0.071   5.856  0.0229  0.0821  0.2047
  909MOL0     C22644   3.298   0.003   5.949  0.7992  0.2290  0.8830
  909MOL0     C22645   3.780   0.276   5.377  0.3873 -0.7428 -0.0801
  909MOL0     C22646   3.868   0.389   5.344 -0.5897  0.2196  0.3703
  909MOL0     C22647   3.942   0.450   5.453 -0.2969  0.1209 -0.4442
  909MOL0     H22648   3.887   0.780   5.046 -0.1943  3.3493 -0.7675
  909MOL0     H22649   4.038   0.936   4.891  3.0728  1.9330  0.6144
  909MOL0     H22650   4.289   1.146   5.049 -1.8016 -2.7512 -1.1028
  909MOL0     H22651   4.446   1.071   5.052 -0.7203 -1.7582 -0.0520
  909MOL0     H22652   4.479   1.146   4.810 -1.2698  3.1385 -2.7896
  909MOL0     H22653   4.483   1.268   4.927  1.1229  0.5798 -2.4095
  909MOL0     H22654   4.221   1.209   4.767  0.5986  0.7691 -0.4772
  909MOL0     H22655   4.358   1.316   4.726 -0.3680  0.4408 -0.2268
  909MOL0     H22656   4.189   1.336   4.976 -0.2919 -2.4954 -1.4763
  909MOL0     H22657   4.315   1.458   4.924 -0.1382 -0.4703  0.9176
  909MOL0     H22658   4.163   1.472   4.719 -0.1191 -2.3866 -0.5340
  909MOL0     H22659   4.041   1.390   4.816  2.0607 -3.2278  1.3850
  909MOL0     H22660   4.170   1.639   4.935 -1.2662  2.1013 -1.8972
  909MOL0     H22661   4.037   1.642   4.827  0.4770 -0.4087  0.1276
  909MOL0     H22662   4.012   1.490   5.090  0.1054 -2.3968 -3.7435
  909MOL0     H22663   3.893   1.524   4.970  0.3285 -0.4898  0.4013
  909MOL0     H22664   3.860   1.745   5.036 -1.2886  0.7311  1.6631
  909MOL0     H22665   3.906   1.655   5.183  0.4068 -0.1288  0.9261
  909MOL0     H22666   4.155   1.717   5.281 -0.3682  1.3342  1.3344
  909MOL0     H22667   4.322   1.989   5.335 -5.1566 -0.5318 -0.4075
  909MOL0     H22668   4.364   1.818   5.317 -1.1093  0.2264 -0.0730
  909MOL0     H22669   4.436   2.047   5.136  0.2472  0.6175  0.6673
  909MOL0     H22670   4.554   1.942   5.227 -0.1850 -0.1924  0.0672
  909MOL0     H22671   4.556   1.926   4.982  0.0804  1.0637  0.2178
  909MOL0     H22672   4.392   1.882   4.986 -0.5587  2.7107 -0.7861
  909MOL0     H22673   4.624   1.710   5.115  1.0106 -1.7868 -2.0007
  909MOL0     H22674   4.544   1.680   4.960  1.3198  0.4363 -0.0261
  909MOL0     H22675   4.657   1.504   5.173 -0.3562  2.9249  0.3229
  909MOL0     H22676   4.666   1.295   5.310  0.3390  1.6830  0.4853
  909MOL0     H22677   4.390   0.853   5.407 -1.4206 -1.7909  0.7091
  909MOL0     H22678   4.433   0.642   5.497 -1.9813  2.6546 -0.0869
  909MOL0     H22679   4.831   0.436   5.657 -1.3562 -1.3882  0.2730
  909MOL0     H22680   4.854   0.617   5.646  2.2343 -2.2462 -1.7872
  909MOL0     H22681   4.603   0.499   5.751  1.7957 -0.0717 -3.1399
  909MOL0     H22682   4.734   0.451   5.857 -1.5705 -1.8918 -0.2374
  909MOL0     H22683   4.818   0.678   5.896  0.2892 -2.3515  2.1513
  909MOL0     H22684   4.674   0.741   5.801  1.0224  0.2458 -0.5655
  909MOL0     H22685   4.635   0.774   6.034 -1.2319  0.7784 -1.9037
  909MOL0     H22686   4.679   0.605   6.070 -0.3673 -1.2410 -1.2075
  909MOL0     H22687   4.447   0.652   6.084  0.7947  2.0252 -0.2704
  909MOL0     H22688   4.493   0.523   5.950  1.7542  0.4069 -2.8223
  909MOL0     H22689   4.418   0.814   5.901  1.5595 -1.4595  2.4228
  909MOL0     H22690   4.444   0.689   5.780  1.7129  2.9526 -0.5112
  909MOL0     H22691   4.201   0.730   5.796  1.4775  1.5721 -0.6808
  909MOL0     H22692   4.216   0.711   5.975  1.3692  2.5722 -0.5419
  909MOL0     H22693   4.243   0.462   5.939 -2.3444 -2.8216 -1.9704
  909MOL0     H22694   4.111   0.524   5.841 -0.3599 -0.4658  3.8889
  909MOL0     H22695   4.851   0.729   5.490  1.5208  0.9094 -5.1028
  909MOL0     H22696   4.806   0.965   5.417  3.1218 -2.3891  1.6390
  909MOL0     H22697   4.236   1.269   5.287  1.2149 -2.6062  0.2760
  909MOL0     H22698   4.233   1.514   5.206  0.3471 -0.4305 -2.3405
  909MOL0     H22699   4.369   0.868   5.145  0.1799 -3.3908  1.3891
  909MOL0     H22700   4.234   0.719   5.289  0.1672 -0.1253  0.6542
  909MOL0     H22701   3.826   0.332   5.007  3.2481 -0.3079  0.5636
  909MOL0     H22702   3.702   0.155   5.073 -1.7993  1.9918 -0.7988
  909MOL0     H22703   3.720   0.051   5.509 -0.9937  2.2340  2.8639
  909MOL0     H22704   3.580  -0.046   5.464 -0.9055  0.9932  0.7476
  909MOL0     H22705   3.437   0.165   5.486  1.2504 -2.4436 -1.9250
  909MOL0     H22706   3.576   0.231   5.580  0.9533 -0.2457  1.1105
  909MOL0     H22707   3.545   0.031   5.736  0.8205  1.2393  0.3378
  909MOL0     H22708   3.415  -0.027   5.618  0.3253 -1.6157  2.0805
  909MOL0     H22709   3.400   0.246   5.756  1.3441 -0.1645 -0.5997
  909MOL0     H22710   3.274   0.150   5.681  0.1790  1.8721  0.1133
  909MOL0     H22711   3.266  -0.055   6.033  0.1730 -0.9412 -0.1257
  909MOL0     H22712   3.753   0.266   5.482 -0.9271  0.1853 -0.2989
  909MOL0     H22713   3.924   0.558   5.448 -0.5362  0.0184 -3.0393
  909MOL0     H22714   3.927   0.412   5.554  0.0621  2.4391  0.5459
  909MOL0     H22715   4.048   0.431   5.439 -0.4798 -0.9294 -0.4691
  910MOL0     O22716   4.821   4.610   3.152  0.7905 -0.2403  0.2215
  910MOL0     C22717   4.860   4.719   3.107 -0.0186 -0.2928  0.2326
  910MOL0     O22718   4.989   4.766   3.112 -0.3012 -0.2278 -0.0052
  910MOL0     C22719   5.081   4.723   3.205 -0.2502 -0.5627 -0.8080
  910MOL0     C22720   5.119   4.798   3.322  0.1426 -0.2334  0.9577
  910MOL0     C22721   5.213   4.752   3.408  0.2584 -0.1341 -0.1692
  910MOL0     C22722   5.291   4.636   3.381 -0.2388  0.0940  0.1518
  910MOL0     O22723   5.384   4.612   3.478 -0.3788  0.0611  0.0833
  910MOL0     C22724   5.501   4.539   3.443  0.1718 -0.6789  0.7688
  910MOL0     C22725   5.587   4.499   3.559  0.1035 -0.4254 -0.9454
  910MOL0     C22726   5.649   4.624   3.615 -0.5932 -0.5503  0.3776
  910MOL0     C22727   5.723   4.595   3.748  0.4112  1.0578 -0.4550
  910MOL0     C22728   5.783   4.709   3.828  0.4965  0.4720 -0.3619
  910MOL0     C22729   5.692   4.826   3.870  0.3930 -0.0431 -0.2039
  910MOL0     C22730   5.580   4.776   3.970 -0.1240  0.2080 -0.5996
  910MOL0     C22731   5.471   4.875   4.010 -0.4478  0.0303  0.6550
  910MOL0     N22732   5.515   4.996   4.079  0.6064  0.1854 -0.1621
  910MOL0     C22733   5.572   5.006   4.208  0.0853 -0.1589 -0.7413
  910MOL0     C22734   5.572   5.131   4.238 -0.2149  0.1565  0.3307
  910MOL0     C22735   5.610   5.198   4.372 -0.0771 -0.3652  0.2722
  910MOL0     C22736   5.754   5.171   4.402 -0.2199 -0.2452  0.1031
  910MOL0     C22737   5.806   5.235   4.529  0.1035 -0.0999  0.0823
  910MOL0     C22738   5.956   5.265   4.519 -0.5063  0.1366  0.5339
  910MOL0     O22739   5.991   5.323   4.644 -1.0469 -0.7335 -0.7042
  910MOL0     C22740   6.124   5.323   4.681  0.4759 -0.7016 -1.1288
  910MOL0     C22741   6.221   5.397   4.605 -0.6059 -0.5758  0.0579
  910MOL0     C22742   6.359   5.375   4.630 -0.1765  0.9317 -0.7874
  910MOL0     C22743   6.407   5.276   4.725  1.2391  0.0384 -0.4250
  910MOL0     C22744   6.550   5.264   4.762 -0.5526  0.8394 -0.0461
  910MOL0     O22745   6.643   5.341   4.697 -0.0728 -0.3111 -0.2780
  910MOL0     C22746   6.766   5.367   4.760 -0.4966  0.0384 -0.1300
  910MOL0     C22747   6.783   5.398   4.901 -0.1397 -0.2976 -0.0268
  910MOL0     C22748   6.909   5.430   4.957  0.4626 -0.0890 -0.0899
  910MOL0     C22749   7.022   5.430   4.877  0.5042 -0.3154  0.0002
  910MOL0     O22750   7.149   5.463   4.929  1.0104 -0.5517 -0.1555
  910MOL0     C22751   7.239   5.534   4.847  0.0681 -0.2719 -0.2380
  910MOL0     C22752   7.378   5.531   4.923 -0.3394 -0.2629 -0.1551
  910MOL0     C22753   7.490   5.606   4.844 -0.2572 -0.0500  0.2630
  910MOL0     C22754   7.540   5.527   4.723 -0.5409 -0.6093 -0.1501
  910MOL0     C22755   7.642   5.426   4.769 -0.8671  0.0488 -0.3529
  910MOL0     C22756   7.686   5.350   4.651 -0.2154  0.2828  0.1704
  910MOL0     C22757   7.766   5.215   4.676  0.2663 -0.6845  0.1444
  910MOL0     C22758   7.918   5.235   4.670 -0.4753 -0.4497  0.3731
  910MOL0    Cl22759   7.960   5.345   4.820  0.1891 -0.3401 -0.4049
  910MOL0     C22760   7.005   5.412   4.738 -0.1664 -0.3745  1.1191
  910MOL0     C22761   6.887   5.374   4.687  0.0834 -0.5946 -0.0069
  910MOL0     O22762   6.567   5.189   4.859  0.0040  0.1404  0.1471
  910MOL0     C22763   6.300   5.199   4.781 -0.0973  0.5419 -0.5706
  910MOL0     C22764   6.164   5.216   4.757 -0.0435  0.2071 -0.1743
  910MOL0     N22765   5.553   5.201   4.117  0.5109  0.0873 -0.3123
  910MOL0     N22766   5.518   5.121   4.026  0.5760 -0.2585  0.0119
  910MOL0     C22767   5.275   4.565   3.250  0.4795  0.0314  0.4846
  910MOL0     C22768   5.167   4.615   3.167 -0.0376  0.4011 -1.0442
  910MOL0     C22769   4.760   4.801   3.020 -0.4320  0.1140 -0.3047
  910MOL0     C22770   4.622   4.808   3.064  0.9245  0.1344 -0.3122
  910MOL0     C22771   4.533   4.903   3.007 -1.1300 -0.1663 -0.3746
  910MOL0     C22772   4.581   4.994   2.911 -0.4409 -0.4893  0.4746
  910MOL0     O22773   4.493   5.093   2.878  1.1089 -0.0200 -0.2644
  910MOL0     C22774   4.476   5.112   2.735  0.3349  0.2028  0.1772
  910MOL0     C22775   4.360   5.210   2.704 -0.1865  0.2023 -0.5906
  910MOL0     C22776   4.408   5.341   2.765 -0.5172  0.1998  1.0401
  910MOL0     C22777   4.364   5.463   2.697  1.4147 -0.1883  0.5513
  910MOL0     C22778   4.211   5.485   2.725 -0.9561 -0.2561  0.0920
  910MOL0     C22779   4.096   5.502   2.762 -0.2546  0.3286  0.0188
  910MOL0     C22780   4.712   4.982   2.859  0.5609  1.0419  0.2386
  910MOL0     C22781   4.801   4.885   2.914  0.2253 -1.4525  0.0641
  910MOL0     C22782   4.936   4.886   2.852  0.3442 -0.0010 -0.8993
  910MOL0     H22783   5.067   4.889   3.349 -0.5434 -0.3487  0.0909
  910MOL0     H22784   5.226   4.809   3.500 -1.0554 -0.7943  0.4633
  910MOL0     H22785   5.463   4.444   3.404 -1.2664 -0.1429  0.8133
  910MOL0     H22786   5.567   4.582   3.367 -2.3582 -0.7299 -1.6190
  910MOL0     H22787   5.664   4.430   3.524  0.2748 -2.4380  2.9159
  910MOL0     H22788   5.536   4.440   3.636  1.1292  1.3791  1.2214
  910MOL0     H22789   5.581   4.705   3.642 -0.3062  0.5884 -2.0353
  910MOL0     H22790   5.726   4.656   3.544 -0.4873 -2.6296 -0.5259
  910MOL0     H22791   5.654   4.534   3.807  0.5927  3.0166  1.9390
  910MOL0     H22792   5.816   4.541   3.728 -0.5234  0.3200 -3.3600
  910MOL0     H22793   5.824   4.673   3.923 -0.1000 -1.7756 -0.9140
  910MOL0     H22794   5.859   4.767   3.774 -0.4359  1.3272 -0.8078
  910MOL0     H22795   5.752   4.907   3.913 -1.3660  0.7535  0.9094
  910MOL0     H22796   5.646   4.877   3.785  0.9230  0.4194 -0.2196
  910MOL0     H22797   5.629   4.748   4.064  2.2495  3.1742 -0.8092
  910MOL0     H22798   5.531   4.698   3.910 -1.4579  0.0007  0.7127
  910MOL0     H22799   5.422   4.906   3.917  1.9088 -0.8265 -0.9636
  910MOL0     H22800   5.399   4.828   4.078 -1.1186 -3.1304 -1.9995
  910MOL0     H22801   5.613   4.929   4.272  0.2933  0.9354  0.4818
  910MOL0     H22802   5.586   5.305   4.367 -0.7937 -0.5670 -1.5866
  910MOL0     H22803   5.548   5.150   4.449 -0.3492 -3.8158 -1.8939
  910MOL0     H22804   5.768   5.065   4.427  0.5547 -0.0591  0.4831
  910MOL0     H22805   5.808   5.189   4.309 -2.8408 -0.6393 -1.6141
  910MOL0     H22806   5.782   5.171   4.614  0.9781  0.7388  0.9720
  910MOL0     H22807   5.758   5.330   4.555 -1.7186 -1.3644  1.6049
  910MOL0     H22808   5.986   5.336   4.442  0.7301  2.1419  2.7069
  910MOL0     H22809   6.018   5.179   4.495 -0.1721  0.5310 -0.0315
  910MOL0     H22810   6.184   5.465   4.529  1.0106 -0.4046 -0.6308
  910MOL0     H22811   6.434   5.431   4.575  0.9687  0.5058  0.2996
  910MOL0     H22812   6.693   5.411   4.959 -1.2994 -1.6329 -1.4538
  910MOL0     H22813   6.940   5.449   5.059  0.8582  1.0796 -0.4196
  910MOL0     H22814   7.259   5.492   4.748 -0.9452  2.4871 -1.7217
  910MOL0     H22815   7.205   5.637   4.831 -1.6076 -0.4670  1.6460
  910MOL0     H22816   7.368   5.582   5.019  1.3405 -1.6489  0.8352
  910MOL0     H22817   7.409   5.426   4.930  0.7803  0.1071  0.8986
  910MOL0     H22818   7.441   5.698   4.811 -2.4446 -1.4261 -0.5664
  910MOL0     H22819   7.575   5.628   4.909 -1.7869  1.2432  1.9140
  910MOL0     H22820   7.576   5.601   4.651 -2.9362 -1.6627 -2.6065
  910MOL0     H22821   7.457   5.482   4.668  0.0214  0.2990 -1.7942
  910MOL0     H22822   7.605   5.357   4.845  0.2102  1.2247  1.3264
  910MOL0     H22823   7.729   5.470   4.820 -0.3393 -1.3338 -0.0028
  910MOL0     H22824   7.600   5.332   4.587  1.0108 -0.3642 -1.3757
  910MOL0     H22825   7.754   5.411   4.591 -0.1573  1.7507  1.6734
  910MOL0     H22826   7.739   5.139   4.603 -0.2266 -1.0155  0.6662
  910MOL0     H22827   7.746   5.183   4.779  0.0135  1.4538  0.8027
  910MOL0     H22828   7.966   5.137   4.668 -0.7967 -0.8259  4.1189
  910MOL0     H22829   7.937   5.295   4.580 -3.8849  2.2215  1.1912
  910MOL0     H22830   7.084   5.410   4.664 -0.6382 -0.8387  0.6179
  910MOL0     H22831   6.872   5.353   4.581 -1.2983  4.2241 -1.0118
  910MOL0     H22832   6.325   5.124   4.855 -1.2708  0.3699 -0.3355
  910MOL0     H22833   6.098   5.149   4.811  2.5471 -1.1253  1.5628
  910MOL0     H22834   5.338   4.487   3.208 -1.2558 -0.1509 -2.0554
  910MOL0     H22835   5.137   4.566   3.075  0.3424 -2.1298  0.1100
  910MOL0     H22836   4.589   4.752   3.151 -1.9948  2.1552  0.0354
  910MOL0     H22837   4.432   4.926   3.041 -0.3206  0.5661  1.6705
  910MOL0     H22838   4.454   5.017   2.686  0.1542 -0.2131  1.0555
  910MOL0     H22839   4.568   5.156   2.694  0.1636 -0.1739 -0.6274
  910MOL0     H22840   4.267   5.172   2.746  0.4610 -0.9065 -0.1181
  910MOL0     H22841   4.336   5.243   2.602 -1.3006  1.8557  0.1663
  910MOL0     H22842   4.512   5.352   2.733 -1.2241  0.4341 -1.2918
  910MOL0     H22843   4.392   5.339   2.874 -0.7585 -1.3480  1.0100
  910MOL0     H22844   4.414   5.557   2.724  1.8358 -0.4203  0.5922
  910MOL0     H22845   4.392   5.457   2.591 -0.8697  0.9263 -0.1838
  910MOL0     H22846   3.995   5.493   2.798 -1.0493 -2.2539 -2.5079
  910MOL0     H22847   4.747   5.058   2.790 -1.8918  1.8595 -0.2252
  910MOL0     H22848   4.990   4.794   2.878 -0.7879 -0.0763  1.4229
  910MOL0     H22849   4.945   4.888   2.743  3.8336 -2.9368 -0.8767
  910MOL0     H22850   4.987   4.971   2.898  2.0133 -0.5611 -1.6459
  911MOL0     O22851   0.778   3.206   1.212 -0.6664 -0.3092 -0.3684
  911MOL0     C22852   0.720   3.109   1.162  0.4440  0.5954 -0.0499
  911MOL0     O22853   0.778   3.023   1.079 -0.1320  0.3147 -0.1512
  911MOL0     C22854   0.916   3.044   1.050 -0.2029 -0.1844  0.2839
  911MOL0     C22855   0.958   3.046   0.918 -0.3107 -0.1106  1.1821
  911MOL0     C22856   1.096   3.062   0.885 -0.1005  0.7651 -0.3138
  911MOL0     C22857   1.193   3.066   0.982 -0.4231 -0.4158 -0.1769
  911MOL0     O22858   1.323   3.086   0.945 -0.3744 -0.1483  0.0996
  911MOL0     C22859   1.416   3.094   1.054  0.9354 -0.1917  0.3707
  911MOL0     C22860   1.547   3.135   0.988  0.6273  1.0963  0.3602
  911MOL0     C22861   1.666   3.157   1.091 -0.2886  0.3595 -0.3650
  911MOL0     C22862   1.796   3.163   1.019 -0.4451  0.3936  0.5159
  911MOL0     C22863   1.920   3.150   1.119 -0.6859  0.3101 -0.4652
  911MOL0     C22864   1.982   2.999   1.128  0.1295 -0.4107  0.0113
  911MOL0     C22865   1.869   2.890   1.126  0.9094  0.7078  0.4537
  911MOL0     C22866   1.926   2.746   1.123 -0.1233  0.2641  0.1095
  911MOL0     N22867   1.827   2.650   1.154 -0.1109 -0.4787  0.3770
  911MOL0     C22868   1.718   2.629   1.070  0.9313  0.7966  0.7762
  911MOL0     C22869   1.627   2.560   1.150 -0.1467  0.6113 -0.7134
  911MOL0     C22870   1.489   2.522   1.107  1.0169  0.5628  0.2556
  911MOL0     C22871   1.394   2.631   1.151  0.2593  0.1032  0.1186
  911MOL0     C22872   1.253   2.592   1.136  0.8576 -0.0038  0.4540
  911MOL0     C22873   1.165   2.715   1.135  0.3211  0.4256  0.0020
  911MOL0     O22874   1.032   2.670   1.100 -0.3615  0.1279 -0.4264
  911MOL0     C22875   0.948   2.649   1.209 -0.1568  0.0425  0.1771
  911MOL0     C22876   0.985   2.647   1.350  0.9272  0.7321  0.7687
  911MOL0     C22877   0.887   2.623   1.455 -0.3638 -0.2984 -0.2648
  911MOL0     C22878   0.758   2.605   1.427  1.0069  0.9228  0.6794
  911MOL0     C22879   0.655   2.588   1.531  0.5270 -0.3748 -0.6579
  911MOL0     O22880   0.528   2.559   1.490 -0.1239 -0.1282 -0.1459
  911MOL0     C22881   0.434   2.511   1.575  0.3199 -0.0654  0.5632
  911MOL0     C22882   0.458   2.407   1.675 -0.3186 -1.3339  0.3258
  911MOL0     C22883   0.356   2.362   1.760 -0.5956  0.4394  0.4918
  911MOL0     C22884   0.225   2.425   1.750 -0.1883 -0.4481  0.2965
  911MOL0     O22885   0.141   2.380   1.850  0.2053  1.1126 -0.0164
  911MOL0     C22886   0.001   2.413   1.832  0.2191  0.5905 -0.6001
  911MOL0     C22887  -0.070   2.353   1.949 -0.3737 -0.3937 -0.1271
  911MOL0     C22888  -0.055   2.433   2.077  0.4492 -0.9561  0.1889
  911MOL0     C22889  -0.102   2.356   2.206 -0.0139 -0.2362 -0.7307
  911MOL0     C22890  -0.014   2.414   2.320 -0.0232 -0.1334 -0.5796
  911MOL0     C22891  -0.078   2.405   2.454  0.4868 -0.5448 -0.7469
  911MOL0     C22892   0.018   2.475   2.554 -0.2385 -0.0802 -0.1197
  911MOL0     C22893  -0.037   2.470   2.696  0.1961  0.4008 -0.3955
  911MOL0    Cl22894  -0.032   2.300   2.762 -0.1480  0.0100  0.6205
  911MOL0     C22895   0.204   2.523   1.657 -0.0262 -0.6756  0.3022
  911MOL0     C22896   0.300   2.559   1.563 -0.5108  0.6351 -0.0315
  911MOL0     O22897   0.699   2.587   1.646 -0.6159 -0.5560 -0.2395
  911MOL0     C22898   0.721   2.599   1.292  0.0902  0.9294  0.2143
  911MOL0     C22899   0.811   2.624   1.185 -0.0416 -0.2155  0.2128
  911MOL0     N22900   1.677   2.534   1.281 -0.4934 -0.0040 -0.3152
  911MOL0     N22901   1.798   2.596   1.278 -0.5621  0.3552 -0.1600
  911MOL0     C22902   1.148   3.053   1.116  0.2072 -0.4841 -0.4601
  911MOL0     C22903   1.010   3.046   1.154  0.0494  0.1229 -0.1815
  911MOL0     C22904   0.567   3.108   1.164  0.5621  0.6580 -0.1713
  911MOL0     C22905   0.496   3.231   1.178  0.1911  0.1480 -1.1436
  911MOL0     C22906   0.359   3.235   1.147 -0.1312  0.2403  0.6007
  911MOL0     C22907   0.287   3.123   1.116 -0.4823 -0.0795 -0.7025
  911MOL0     O22908   0.148   3.119   1.094 -0.0023 -0.0054  0.2996
  911MOL0     C22909   0.071   3.236   1.092  0.2503 -0.0893 -0.1340
  911MOL0     C22910  -0.067   3.199   1.056  0.0663 -0.3912 -0.5658
  911MOL0     C22911  -0.152   3.320   1.027 -0.6338  0.1153 -0.7429
  911MOL0     C22912  -0.157   3.438   1.128  0.3184 -0.3910  0.6032
  911MOL0     C22913  -0.286   3.506   1.107  0.4068  0.0594  0.7729
  911MOL0     C22914  -0.406   3.551   1.099  0.2223  0.2883  0.2307
  911MOL0     C22915   0.351   3.006   1.093  0.1625 -0.2487 -0.5658
  911MOL0     C22916   0.489   2.990   1.125 -0.2388  0.2648 -0.1712
  911MOL0     C22917   0.548   2.859   1.112 -0.3130  0.2829 -1.2443
  911MOL0     H22918   0.885   3.045   0.838 -0.2924  3.5710  0.9150
  911MOL0     H22919   1.121   3.062   0.780 -0.2837 -1.6482 -0.4099
  911MOL0     H22920   1.381   3.167   1.128 -1.8063 -0.4930 -0.5314
  911MOL0     H22921   1.427   2.996   1.102 -3.0555 -2.0134 -1.9655
  911MOL0     H22922   1.534   3.225   0.927 -2.5796 -0.0129 -0.8016
  911MOL0     H22923   1.582   3.047   0.933  3.4648  0.2189  3.3013
  911MOL0     H22924   1.667   3.074   1.162 -0.7288  0.5028 -0.1904
  911MOL0     H22925   1.646   3.251   1.144 -0.2086  1.2470 -1.8611
  911MOL0     H22926   1.803   3.085   0.942  0.2448 -0.5074  1.4558
  911MOL0     H22927   1.806   3.258   0.964 -0.7263  1.6136  2.4846
  911MOL0     H22928   2.003   3.217   1.096  1.5748 -1.7644  1.0804
  911MOL0     H22929   1.892   3.191   1.217 -2.9843 -2.8441  0.3616
  911MOL0     H22930   2.059   2.979   1.053  0.6174  2.1786 -0.2368
  911MOL0     H22931   2.034   2.999   1.224 -1.7530 -0.8607  1.0973
  911MOL0     H22932   1.813   2.895   1.032 -0.9353  0.6335  1.4841
  911MOL0     H22933   1.799   2.912   1.207  0.9724 -0.2488  0.7759
  911MOL0     H22934   1.954   2.717   1.021  2.7363  0.5537  0.7281
  911MOL0     H22935   2.016   2.739   1.185  0.6025  0.6635 -0.8689
  911MOL0     H22936   1.698   2.683   0.978 -2.7671 -3.2208 -1.1441
  911MOL0     H22937   1.497   2.516   0.998  1.6321 -0.3594  0.3325
  911MOL0     H22938   1.462   2.424   1.147  1.1312 -0.4343 -1.9537
  911MOL0     H22939   1.423   2.662   1.252  1.0676  0.5752 -0.2504
  911MOL0     H22940   1.410   2.719   1.089  1.5565  3.0786  4.2204
  911MOL0     H22941   1.231   2.530   1.223 -3.0355  0.8681  0.2793
  911MOL0     H22942   1.233   2.536   1.045  1.8666  0.8018 -0.2865
  911MOL0     H22943   1.183   2.788   1.056 -0.2100  0.1606 -0.3728
  911MOL0     H22944   1.156   2.781   1.221 -0.3785 -1.9497  1.8554
  911MOL0     H22945   1.091   2.648   1.375  1.6453  0.9890 -2.0025
  911MOL0     H22946   0.922   2.631   1.557  2.2826  3.4114 -1.2547
  911MOL0     H22947   0.562   2.376   1.670 -0.3701 -1.2977 -1.5089
  911MOL0     H22948   0.367   2.282   1.832 -1.2156 -1.2750 -1.2182
  911MOL0     H22949  -0.017   2.521   1.836  2.0368  0.9258 -0.3177
  911MOL0     H22950  -0.032   2.382   1.732  1.5429  4.3311 -2.4089
  911MOL0     H22951  -0.175   2.347   1.921 -0.2536  3.3445 -2.0135
  911MOL0     H22952  -0.032   2.253   1.973  0.7053  0.6546  3.0522
  911MOL0     H22953   0.051   2.458   2.077  0.3573 -0.5406  0.9701
  911MOL0     H22954  -0.111   2.527   2.073  0.7627 -0.7983 -2.2292
  911MOL0     H22955  -0.094   2.247   2.193  0.9383  0.0131 -2.4756
  911MOL0     H22956  -0.210   2.367   2.220 -0.0803 -1.3727 -0.2088
  911MOL0     H22957  -0.006   2.521   2.299  1.4963 -0.3485 -1.2084
  911MOL0     H22958   0.089   2.378   2.326  0.6969  2.0331  2.2884
  911MOL0     H22959  -0.166   2.469   2.448  0.6036 -0.3735 -0.6300
  911MOL0     H22960  -0.096   2.300   2.479  1.3496 -0.6715 -0.6225
  911MOL0     H22961   0.031   2.581   2.529  1.5290 -0.3932 -0.6416
  911MOL0     H22962   0.115   2.426   2.561  0.2592  1.0781  3.2286
  911MOL0     H22963   0.033   2.533   2.752  2.0349 -1.4651 -0.4548
  911MOL0     H22964  -0.136   2.514   2.712  1.5174  3.3015  0.2921
  911MOL0     H22965   0.106   2.570   1.657  0.8343  1.2548  1.9090
  911MOL0     H22966   0.273   2.632   1.487 -2.2934  1.0389  0.9290
  911MOL0     H22967   0.619   2.569   1.270  0.2073 -0.9760  2.0620
  911MOL0     H22968   0.777   2.643   1.084 -0.1038  3.4858  0.7915
  911MOL0     H22969   1.213   3.050   1.203 -1.3557  1.6816  0.8966
  911MOL0     H22970   0.988   3.034   1.260  2.5694 -0.5505  0.3407
  911MOL0     H22971   0.549   3.325   1.189  0.3611  0.2705 -2.7710
  911MOL0     H22972   0.302   3.327   1.145 -0.6825 -0.0999 -1.1045
  911MOL0     H22973   0.111   3.303   1.015 -0.1489 -0.2640 -0.5024
  911MOL0     H22974   0.070   3.279   1.192  1.4564  0.2153 -0.2350
  911MOL0     H22975  -0.122   3.143   1.133  0.4330  1.3736  1.0485
  911MOL0     H22976  -0.073   3.126   0.975  1.0244 -0.0633 -0.9353
  911MOL0     H22977  -0.250   3.271   1.026  0.0074 -1.6468  3.2101
  911MOL0     H22978  -0.119   3.355   0.928  0.5170 -1.7562 -1.0805
  911MOL0     H22979  -0.159   3.401   1.231 -2.2842  2.0178  1.5567
  911MOL0     H22980  -0.071   3.504   1.114  0.9504 -1.5297 -1.1583
  911MOL0     H22981  -0.508   3.581   1.088 -0.3204 -0.7389  1.9869
  911MOL0     H22982   0.294   2.918   1.062 -0.5624 -0.3089  0.8676
  911MOL0     H22983   0.624   2.854   1.033  0.8591  1.3173 -0.2202
  911MOL0     H22984   0.592   2.828   1.207 -4.5742  0.5986  1.0743
  911MOL0     H22985   0.474   2.781   1.093  0.6517 -0.7131 -1.0689
  912MOL0     O22986   5.074   2.933  10.512 -0.9116 -0.1373  0.4529
  912MOL0     C22987   5.017   2.865  10.594 -0.9246 -0.4741 -0.6284
  912MOL0     O22988   5.058   2.847  10.723 -0.7601 -0.0443 -0.5672
  912MOL0     C22989   5.145   2.937  10.774 -0.8965  0.1623 -0.4269
  912MOL0     C22990   5.277   2.940  10.726 -0.4519  0.2794 -0.0443
  912MOL0     C22991   5.365   3.040  10.771 -0.5207  0.0800 -0.3711
  912MOL0     C22992   5.327   3.118  10.885  0.3518  0.0100  1.1908
  912MOL0     O22993   5.422   3.218  10.910  0.4301 -0.0948  0.5102
  912MOL0     C22994   5.377   3.311  11.012 -0.0076  0.2608  0.6176
  912MOL0     C22995   5.444   3.445  10.993 -0.4706  0.1089  0.1691
  912MOL0     C22996   5.594   3.431  11.023  0.4980 -0.3973  0.1133
  912MOL0     C22997   5.642   3.575  11.026 -0.0712 -0.1913  0.1729
  912MOL0     C22998   5.795   3.572  11.051  0.1021 -1.1552 -0.1110
  912MOL0     C22999   5.853   3.523  11.180 -0.1050 -0.1555  0.0875
  912MOL0     C23000   6.013   3.499  11.159  0.3397 -0.2423 -0.3400
  912MOL0     C23001   6.078   3.526  11.299  0.2131 -0.4185  0.1481
  912MOL0     N23002   6.009   3.449  11.411  0.0535 -0.0526  0.7573
  912MOL0     C23003   5.923   3.498  11.501  1.6100  0.2523 -0.2183
  912MOL0     C23004   5.906   3.390  11.582 -0.1629 -0.2733  0.0569
  912MOL0     C23005   5.818   3.382  11.702 -0.2134 -0.0748  0.6039
  912MOL0     C23006   5.881   3.459  11.814 -0.2342  0.0750 -0.9900
  912MOL0     C23007   5.805   3.418  11.946 -0.0311  0.4630 -0.0203
  912MOL0     C23008   5.870   3.454  12.073 -0.6755 -0.4729 -0.5204
  912MOL0     O23009   5.874   3.589  12.107  0.4547  0.0317  0.3381
  912MOL0     C23010   5.760   3.660  12.134 -0.1027  0.4896 -0.3970
  912MOL0     C23011   5.640   3.601  12.174  0.2532  0.7847  0.1665
  912MOL0     C23012   5.533   3.684  12.198 -0.1663  1.1358  0.3692
  912MOL0     C23013   5.537   3.822  12.190 -1.2308  0.3095 -0.4920
  912MOL0     C23014   5.412   3.894  12.230  0.0862 -0.3031  0.0012
  912MOL0     O23015   5.299   3.815  12.235  0.5578  0.1422  0.6002
  912MOL0     C23016   5.201   3.860  12.317 -0.2105  0.3212 -0.3124
  912MOL0     C23017   5.211   3.829  12.451 -0.1116  0.6141 -0.6212
  912MOL0     C23018   5.130   3.891  12.547 -1.2201 -0.3964 -1.0718
  912MOL0     C23019   5.031   3.976  12.501  0.0386 -0.1171 -0.3974
  912MOL0     O23020   4.936   4.039  12.579 -0.2190  0.6827  0.3326
  912MOL0     C23021   4.838   3.959  12.642 -0.4814  0.0634 -0.3743
  912MOL0     C23022   4.705   4.029  12.629  0.3001 -0.0891 -0.6387
  912MOL0     C23023   4.716   4.175  12.690  1.0320 -0.7954 -0.5572
  912MOL0     C23024   4.596   4.248  12.643  0.2577 -0.4941 -0.0828
  912MOL0     C23025   4.604   4.393  12.692 -0.2072 -0.0140 -0.2948
  912MOL0     C23026   4.672   4.485  12.583  0.5359  0.2173 -0.7453
  912MOL0     C23027   4.694   4.631  12.634  0.2321  0.1398  0.6576
  912MOL0     C23028   4.786   4.703  12.539  0.5202 -0.4952  0.0996
  912MOL0    Cl23029   4.692   4.713  12.394  0.1172 -0.2015  0.1404
  912MOL0     C23030   5.025   4.016  12.364  0.6304  0.0171  0.1281
  912MOL0     C23031   5.110   3.958  12.272  0.1768  1.1303  0.9873
  912MOL0     O23032   5.420   4.016  12.270 -0.1872  0.2230 -0.1389
  912MOL0     C23033   5.668   3.885  12.159 -0.5040  0.3779 -0.8943
  912MOL0     C23034   5.775   3.800  12.120 -0.3953 -0.1932  0.0007
  912MOL0     N23035   5.979   3.287  11.544 -0.4031 -0.2731 -0.1554
  912MOL0     N23036   6.041   3.322  11.438 -0.3052 -0.1891  0.5098
  912MOL0     C23037   5.208   3.091  10.950 -0.4549  0.6661  0.0315
  912MOL0     C23038   5.114   3.011  10.889 -0.0404 -0.0279  0.3092
  912MOL0     C23039   4.893   2.797  10.565 -0.9739  0.5911  0.1811
  912MOL0     C23040   4.862   2.784  10.433 -0.2690 -0.2588 -0.5916
  912MOL0     C23041   4.751   2.722  10.388 -0.4387 -0.4431  0.5200
  912MOL0     C23042   4.671   2.673  10.478  0.3862  0.7870 -0.1848
  912MOL0     O23043   4.568   2.614  10.414 -0.3058  0.2823  0.1033
  912MOL0     C23044   4.474   2.533  10.493 -1.5685  0.0453 -0.2142
  912MOL0     C23045   4.532   2.398  10.533  0.4412  0.1574 -0.3235
  912MOL0     C23046   4.577   2.309  10.415 -0.9508 -0.9113 -0.1013
  912MOL0     C23047   4.625   2.176  10.470  0.0325 -0.3011  0.5933
  912MOL0     C23048   4.677   2.100  10.355  1.2501 -0.1003 -0.2510
  912MOL0     C23049   4.740   2.045  10.273 -0.4692  0.0383  0.9888
  912MOL0     C23050   4.692   2.678  10.610  0.7486  0.2776  0.0107
  912MOL0     C23051   4.798   2.750  10.656 -0.2046 -0.4054  0.4604
  912MOL0     C23052   4.794   2.800  10.797 -0.6149 -0.7882 -0.4301
  912MOL0     H23053   5.313   2.875  10.646 -0.0208 -1.6890  1.6817
  912MOL0     H23054   5.466   3.048  10.731 -0.5042  0.3293 -0.2814
  912MOL0     H23055   5.268   3.320  11.015 -0.2913 -2.5766  2.1170
  912MOL0     H23056   5.402   3.275  11.113 -3.0057  0.2200  1.4503
  912MOL0     H23057   5.399   3.527  11.048  0.2580 -0.4667  1.6750
  912MOL0     H23058   5.442   3.478  10.888 -0.0273 -1.3805 -0.3336
  912MOL0     H23059   5.637   3.372  10.942 -1.5375 -3.2824  0.9923
  912MOL0     H23060   5.594   3.383  11.121 -0.3451 -2.4991 -0.8672
  912MOL0     H23061   5.629   3.626  10.930  3.4311  2.0002  0.6998
  912MOL0     H23062   5.593   3.621  11.112 -2.2296 -2.4797  0.2850
  912MOL0     H23063   5.831   3.522  10.961  1.8162  1.2657 -0.9019
  912MOL0     H23064   5.836   3.673  11.040  1.1422 -1.4108  1.1751
  912MOL0     H23065   5.837   3.600  11.256  0.7291 -1.5561  1.7418
  912MOL0     H23066   5.805   3.431  11.212  2.5924 -1.0159  1.9964
  912MOL0     H23067   6.055   3.574  11.091  1.4552 -0.8601 -0.3644
  912MOL0     H23068   6.026   3.393  11.135 -3.1364 -0.8051 -0.1895
  912MOL0     H23069   6.185   3.508  11.288  0.4530  1.3522 -0.7055
  912MOL0     H23070   6.071   3.633  11.323 -0.7979 -0.1929 -1.0119
  912MOL0     H23071   5.863   3.588  11.495  0.1444 -0.7007 -0.4024
  912MOL0     H23072   5.715   3.415  11.684 -0.1956 -0.4808 -0.3306
  912MOL0     H23073   5.807   3.277  11.732 -0.2368  0.5560  3.0166
  912MOL0     H23074   5.981   3.420  11.833  0.2783  1.3426 -1.0377
  912MOL0     H23075   5.885   3.568  11.805 -0.5495  0.1917  0.1328
  912MOL0     H23076   5.794   3.309  11.947 -0.1130  0.4367  2.0071
  912MOL0     H23077   5.705   3.462  11.955  0.4532  1.7807 -0.8228
  912MOL0     H23078   5.968   3.407  12.066 -0.6289 -0.3280 -0.8807
  912MOL0     H23079   5.828   3.402  12.160  0.8394  0.3078  0.7244
  912MOL0     H23080   5.644   3.493  12.178  2.1561  0.8670  2.1895
  912MOL0     H23081   5.442   3.641  12.238  0.1323  1.4426  1.4038
  912MOL0     H23082   5.297   3.767  12.470  0.6218  1.5066 -0.9276
  912MOL0     H23083   5.138   3.871  12.653 -0.0871  0.9256 -0.8891
  912MOL0     H23084   4.833   3.862  12.593 -0.5355 -0.1258  0.0002
  912MOL0     H23085   4.851   3.951  12.750  0.3258 -0.0409 -0.4759
  912MOL0     H23086   4.684   4.038  12.522 -1.9043  1.4511 -0.1521
  912MOL0     H23087   4.631   3.962  12.674  2.8850 -2.5479  0.2680
  912MOL0     H23088   4.720   4.178  12.799 -3.0926 -1.2373 -0.2176
  912MOL0     H23089   4.797   4.217  12.629  1.9232 -2.8189 -0.8346
  912MOL0     H23090   4.509   4.195  12.682  1.2507 -0.6841  2.0003
  912MOL0     H23091   4.603   4.243  12.534  2.0960 -2.1822  0.0531
  912MOL0     H23092   4.669   4.411  12.778 -0.2738  4.5536 -0.9707
  912MOL0     H23093   4.506   4.434  12.720 -0.3401  1.8402 -3.1393
  912MOL0     H23094   4.771   4.442  12.570  1.1120  0.7267  1.4608
  912MOL0     H23095   4.611   4.489  12.492 -1.0943 -1.4415  0.1922
  912MOL0     H23096   4.741   4.619  12.732  1.7684 -0.8058 -0.1566
  912MOL0     H23097   4.595   4.676  12.641  0.7741  1.4623  0.1881
  912MOL0     H23098   4.804   4.807  12.568  2.5226 -0.7310 -0.1328
  912MOL0     H23099   4.887   4.660  12.529  0.8596  0.0002  1.2586
  912MOL0     H23100   4.945   4.085  12.343  0.7450  0.5444  1.3412
  912MOL0     H23101   5.095   3.978  12.166 -0.5334 -0.2837  0.8066
  912MOL0     H23102   5.670   3.993  12.148  0.9487  0.5839  0.8138
  912MOL0     H23103   5.860   3.855  12.080  0.0848 -0.6559  0.3697
  912MOL0     H23104   5.172   3.134  11.043 -0.3821 -0.7593  0.7377
  912MOL0     H23105   5.016   3.009  10.935  0.0126  1.4777  0.5635
  912MOL0     H23106   4.923   2.825  10.353  0.2446  0.8688  0.3515
  912MOL0     H23107   4.739   2.725  10.281  2.4206 -2.8351 -0.0106
  912MOL0     H23108   4.386   2.509  10.433 -0.9395 -0.8828 -0.8128
  912MOL0     H23109   4.437   2.586  10.580 -2.9693  0.9564 -1.3249
  912MOL0     H23110   4.447   2.352  10.585  0.3453  1.8131  1.0977
  912MOL0     H23111   4.606   2.401  10.613  1.7521  0.2302 -1.5046
  912MOL0     H23112   4.666   2.348  10.364  0.1721 -0.1654  2.2516
  912MOL0     H23113   4.489   2.302  10.351  0.0158 -1.0755 -1.4728
  912MOL0     H23114   4.703   2.180  10.546  1.8220 -0.4333 -1.1507
  912MOL0     H23115   4.538   2.121  10.508 -1.7465  0.3560 -2.1941
  912MOL0     H23116   4.793   2.010  10.186  0.6108  1.9523  0.8006
  912MOL0     H23117   4.615   2.639  10.676 -0.4382 -0.6730 -1.8460
  912MOL0     H23118   4.799   2.909  10.794 -0.8488 -0.7633  0.0122
  912MOL0     H23119   4.696   2.777  10.841 -1.1227  1.7996 -0.0415
  912MOL0     H23120   4.863   2.752  10.866 -2.5936 -3.2250  0.0184
  913MOL0     O23121   0.489   4.356  10.428  0.1362  0.1350  0.3598
  913MOL0     C23122   0.545   4.435  10.341  0.1905  0.1013  0.0225
  913MOL0     O23123   0.671   4.425  10.287  0.0233 -0.2127 -0.5603
  913MOL0     C23124   0.750   4.316  10.342 -0.6285 -0.6070 -0.3894
  913MOL0     C23125   0.769   4.286  10.474 -0.4684  1.0430  0.2026
  913MOL0     C23126   0.836   4.168  10.505 -0.1040 -0.0187 -0.2536
  913MOL0     C23127   0.902   4.081  10.416  0.6709 -0.2112  0.6246
  913MOL0     O23128   0.967   3.961  10.452 -0.2124 -0.5281  0.0205
  913MOL0     C23129   0.937   3.894  10.585  0.2438 -0.5224  0.4882
  913MOL0     C23130   0.999   3.957  10.709  0.1730 -0.6355  0.5683
  913MOL0     C23131   0.990   3.879  10.840  0.2216 -0.7334  0.2922
  913MOL0     C23132   1.065   3.955  10.948 -0.5876  0.3236  1.2377
  913MOL0     C23133   1.066   3.879  11.084  0.6328 -0.1377  0.0482
  913MOL0     C23134   0.958   3.939  11.181 -0.3489 -0.1238 -0.0195
  913MOL0     C23135   0.969   3.889  11.323  0.9963 -0.1814  0.6402
  913MOL0     C23136   0.848   3.901  11.409  0.1450  0.8248  0.1795
  913MOL0     N23137   0.723   3.830  11.361 -0.4427 -0.0442  0.5970
  913MOL0     C23138   0.709   3.687  11.367  0.3024 -0.6219 -0.0393
  913MOL0     C23139   0.575   3.669  11.348 -0.9092  0.3126  0.9329
  913MOL0     C23140   0.498   3.539  11.346 -0.2371  0.4498 -0.2018
  913MOL0     C23141   0.503   3.478  11.488  0.4808  0.5165 -0.2503
  913MOL0     C23142   0.417   3.355  11.504 -1.0748 -0.4658  0.0150
  913MOL0     C23143   0.494   3.233  11.491  0.9113  1.1882  0.4032
  913MOL0     O23144   0.568   3.224  11.369 -0.0090  0.2892 -0.0865
  913MOL0     C23145   0.701   3.187  11.386  0.5506 -0.3223 -0.4991
  913MOL0     C23146   0.758   3.120  11.485 -0.2709 -0.3123  0.0192
  913MOL0     C23147   0.903   3.116  11.497  0.6039 -0.2853  0.0348
  913MOL0     C23148   0.988   3.153  11.389  0.1345  0.4409 -0.6402
  913MOL0     C23149   1.142   3.151  11.403 -0.1779  0.3707  0.3846
  913MOL0     O23150   1.207   3.226  11.323 -0.2119 -0.4521 -0.2195
  913MOL0     C23151   1.345   3.245  11.326  0.2293 -0.1608 -0.1991
  913MOL0     C23152   1.419   3.210  11.214 -0.0360 -0.6099  0.4658
  913MOL0     C23153   1.559   3.233  11.203  0.0224 -0.1421 -0.3246
  913MOL0     C23154   1.616   3.308  11.306 -0.0928 -0.4712 -0.1146
  913MOL0     O23155   1.753   3.358  11.302  0.2866  0.8069  0.5615
  913MOL0     C23156   1.829   3.338  11.187  0.1426 -0.3312  0.2997
  913MOL0     C23157   1.971   3.387  11.202 -0.6356  0.0165  0.2185
  913MOL0     C23158   2.054   3.297  11.298 -0.0316  0.7050  0.3940
  913MOL0     C23159   2.199   3.343  11.307  0.3612  0.6493  0.1501
  913MOL0     C23160   2.311   3.237  11.305 -0.6185 -0.3020  0.1630
  913MOL0     C23161   2.449   3.281  11.239  0.4040  0.2561 -0.0640
  913MOL0     C23162   2.506   3.404  11.303 -0.2906 -0.5734 -1.3989
  913MOL0     C23163   2.626   3.454  11.225 -0.0197  0.7428 -0.1501
  913MOL0    Cl23164   2.772   3.341  11.203 -0.3628 -0.3696  0.6390
  913MOL0     C23165   1.541   3.348  11.417 -0.5038  0.3499  0.8211
  913MOL0     C23166   1.411   3.305  11.434 -0.7773 -0.4973 -0.4297
  913MOL0     O23167   1.197   3.076  11.488 -0.9014 -1.2124 -0.0921
  913MOL0     C23168   0.919   3.211  11.286 -0.5903 -0.2560  0.5699
  913MOL0     C23169   0.783   3.224  11.284 -0.2386 -0.5347 -0.2043
  913MOL0     N23170   0.513   3.784  11.334 -0.1468  0.4866  0.1998
  913MOL0     N23171   0.596   3.886  11.347  0.0998  0.4654  0.2081
  913MOL0     C23172   0.885   4.116  10.283  0.0889 -0.1808 -0.8914
  913MOL0     C23173   0.805   4.221  10.248  0.0855 -0.4442  0.1488
  913MOL0     C23174   0.476   4.556  10.303 -0.3112  0.0527  0.0662
  913MOL0     C23175   0.339   4.548  10.304  0.2248 -0.2798  0.5936
  913MOL0     C23176   0.263   4.658  10.263  0.5939 -0.5674 -0.3553
  913MOL0     C23177   0.322   4.774  10.220  1.2224  0.5404 -1.0432
  913MOL0     O23178   0.249   4.863  10.142  0.0369 -0.3082  0.7119
  913MOL0     C23179   0.288   5.005  10.116  0.4877  0.1733  0.0958
  913MOL0     C23180   0.273   5.099  10.243 -0.1644 -0.8858  0.5774
  913MOL0     C23181   0.131   5.134  10.285 -0.7084  0.2411  0.1810
  913MOL0     C23182   0.110   5.261  10.370 -0.7740  0.5606 -0.1896
  913MOL0     C23183  -0.030   5.298  10.369  0.8403 -0.5143  0.6232
  913MOL0     C23184  -0.146   5.337  10.385  0.3081 -0.6356  0.2283
  913MOL0     C23185   0.457   4.795  10.241  0.4709  0.1651  1.0376
  913MOL0     C23186   0.535   4.682  10.280  0.6112 -0.4015  0.2354
  913MOL0     C23187   0.686   4.710  10.284  0.3710 -0.0754  0.6720
  913MOL0     H23188   0.735   4.359  10.547  0.4455 -0.7711  2.5897
  913MOL0     H23189   0.840   4.149  10.612  3.7409 -1.5330 -0.4996
  913MOL0     H23190   0.829   3.892  10.605  0.5604 -0.7566  2.3786
  913MOL0     H23191   0.972   3.792  10.568 -0.6846 -0.3911 -2.9758
  913MOL0     H23192   0.938   4.044  10.733 -1.1866 -0.9232 -1.6340
  913MOL0     H23193   1.105   3.981  10.693  0.7311 -1.7591  2.3062
  913MOL0     H23194   1.041   3.783  10.828  0.7694 -0.3303 -0.6794
  913MOL0     H23195   0.892   3.849  10.878  0.0039 -1.1070 -0.5644
  913MOL0     H23196   1.166   3.962  10.906 -0.1439  1.2892  2.4058
  913MOL0     H23197   1.028   4.057  10.959  1.3896  1.0459  1.6369
  913MOL0     H23198   1.040   3.775  11.063  0.6207  0.0592 -0.9699
  913MOL0     H23199   1.163   3.891  11.133  0.8231  1.9253 -0.7484
  913MOL0     H23200   0.966   4.048  11.187  1.0934 -0.2980  3.2100
  913MOL0     H23201   0.855   3.913  11.154  0.4960 -2.6675 -0.9993
  913MOL0     H23202   1.060   3.928  11.370 -1.0870  4.6859  1.1777
  913MOL0     H23203   0.986   3.782  11.309  4.6318  0.4640 -1.2583
  913MOL0     H23204   0.868   3.868  11.511  1.5235  1.5052  0.1477
  913MOL0     H23205   0.834   4.009  11.408  1.6659  1.1975 -4.2936
  913MOL0     H23206   0.780   3.609  11.391 -0.5362 -0.8689  1.7957
  913MOL0     H23207   0.395   3.548  11.311 -0.9240 -3.4518  0.2874
  913MOL0     H23208   0.542   3.472  11.271 -0.2098  0.6589 -0.3714
  913MOL0     H23209   0.608   3.459  11.512  0.0510 -0.5142  0.9267
  913MOL0     H23210   0.462   3.556  11.553  0.3540  0.8066 -0.6695
  913MOL0     H23211   0.331   3.360  11.437 -0.2832 -0.2240 -1.0121
  913MOL0     H23212   0.363   3.373  11.597  0.3541  2.6310  0.3644
  913MOL0     H23213   0.429   3.146  11.504  1.7936  0.6735  1.5499
  913MOL0     H23214   0.553   3.232  11.583  1.0836 -0.8159  0.3138
  913MOL0     H23215   0.698   3.080  11.567 -0.0222  1.3410  1.0652
  913MOL0     H23216   0.937   3.087  11.596 -2.1815 -0.7293  0.9587
  913MOL0     H23217   1.360   3.164  11.135 -1.3780 -0.6244  1.4449
  913MOL0     H23218   1.613   3.208  11.112 -1.4213  0.4477 -1.3826
  913MOL0     H23219   1.828   3.231  11.164 -0.4624  0.1384 -2.2667
  913MOL0     H23220   1.791   3.405  11.109 -3.2129 -2.3415  0.0065
  913MOL0     H23221   2.018   3.364  11.106  0.5118 -0.2683  0.8337
  913MOL0     H23222   1.972   3.494  11.224 -1.4516  0.0241  0.2275
  913MOL0     H23223   2.006   3.306  11.396 -5.0480  3.3148 -1.8897
  913MOL0     H23224   2.029   3.196  11.264  2.6816  0.5852 -1.5517
  913MOL0     H23225   2.207   3.399  11.401  2.0167 -0.2961  0.6220
  913MOL0     H23226   2.224   3.409  11.224  0.4980 -0.5997 -0.8365
  913MOL0     H23227   2.269   3.152  11.250 -0.3729 -0.7333  0.6379
  913MOL0     H23228   2.329   3.201  11.407  0.1758  0.1862  0.2003
  913MOL0     H23229   2.528   3.206  11.255  2.3564  2.5270  1.6780
  913MOL0     H23230   2.430   3.303  11.134  0.8190 -0.6662 -0.3448
  913MOL0     H23231   2.520   3.400  11.412  1.0033 -0.8206 -1.5542
  913MOL0     H23232   2.430   3.481  11.295 -1.0349 -1.0378  0.5268
  913MOL0     H23233   2.613   3.491  11.123  2.4518  3.6149  0.4233
  913MOL0     H23234   2.660   3.534  11.292  0.7915 -1.7136  2.5723
  913MOL0     H23235   1.573   3.430  11.481  0.8726  0.0066  0.6034
  913MOL0     H23236   1.355   3.334  11.523 -0.3588  0.7404 -0.5567
  913MOL0     H23237   0.972   3.252  11.200 -0.5615 -2.6515 -0.6308
  913MOL0     H23238   0.729   3.287  11.214 -0.8954  2.3999  2.6802
  913MOL0     H23239   0.941   4.062  10.207  2.6839 -0.9984  1.4295
  913MOL0     H23240   0.788   4.238  10.142 -3.1116 -0.7111  0.5189
  913MOL0     H23241   0.288   4.454  10.325  1.1980 -1.1943 -0.9350
  913MOL0     H23242   0.156   4.645  10.251  0.3651  0.1499  0.7756
  913MOL0     H23243   0.223   5.044  10.036 -1.4626 -1.3548  0.8445
  913MOL0     H23244   0.391   5.002  10.081  1.5292  0.3019  2.9428
  913MOL0     H23245   0.325   5.191  10.214  1.0245 -1.7679 -0.2087
  913MOL0     H23246   0.323   5.055  10.329  2.0609  1.2877  0.5055
  913MOL0     H23247   0.088   5.041  10.326  1.5291  0.3532  3.0926
  913MOL0     H23248   0.078   5.162  10.193 -1.8560 -0.8962  0.4584
  913MOL0     H23249   0.126   5.235  10.475 -4.8069 -0.5310  0.3166
  913MOL0     H23250   0.177   5.341  10.336 -2.6661  2.3427  0.0839
  913MOL0     H23251  -0.244   5.380  10.386  1.4210  2.0376  0.6617
  913MOL0     H23252   0.512   4.882  10.208  1.2832 -0.5764  0.3806
  913MOL0     H23253   0.707   4.815  10.308 -0.8489  0.4389 -0.3897
  913MOL0     H23254   0.743   4.644  10.350 -0.3531 -1.1530  0.2421
  913MOL0     H23255   0.720   4.696  10.181 -1.1698 -0.3958  0.1884
  914MOL0     O23256   3.352  10.354   1.629  0.4995 -0.1886  0.5777
  914MOL0     C23257   3.281  10.444   1.674  0.0413 -0.6027 -0.3704
  914MOL0     O23258   3.329  10.556   1.750 -0.1597 -0.1939  0.3823
  914MOL0     C23259   3.470  10.563   1.756  0.4274  0.1980  0.6237
  914MOL0     C23260   3.545  10.481   1.841 -0.3602  1.5147  0.6605
  914MOL0     C23261   3.674  10.518   1.886  0.5843 -0.1546  0.4483
  914MOL0     C23262   3.739  10.630   1.828  0.2185 -0.7460  0.1750
  914MOL0     O23263   3.860  10.649   1.882  0.1757 -0.6322 -0.4189
  914MOL0     C23264   3.923  10.780   1.860 -0.3360  0.2147  0.4220
  914MOL0     C23265   4.049  10.798   1.944 -0.8158  0.2266 -0.1310
  914MOL0     C23266   4.132  10.928   1.907 -0.0078  0.2855 -0.4687
  914MOL0     C23267   4.054  11.062   1.924  0.6402  0.4201 -0.2295
  914MOL0     C23268   4.100  11.156   2.037 -0.8252 -0.3491 -0.2885
  914MOL0     C23269   4.260  11.171   2.056  1.0055  0.8090  0.1011
  914MOL0     C23270   4.301  11.318   2.062 -0.3487 -0.5972  0.5296
  914MOL0     C23271   4.260  11.378   2.197 -0.2004 -0.1178  0.3290
  914MOL0     N23272   4.298  11.521   2.188  0.0920 -0.1643 -1.2364
  914MOL0     C23273   4.240  11.619   2.265 -1.0652  0.5623 -0.8204
  914MOL0     C23274   4.314  11.727   2.228 -0.5955 -0.1288  0.8097
  914MOL0     C23275   4.282  11.856   2.277 -0.2507  0.5166 -0.1281
  914MOL0     C23276   4.313  11.862   2.425  0.8324 -0.4735  0.4587
  914MOL0     C23277   4.317  12.011   2.472 -0.6065  0.0058 -0.6173
  914MOL0     C23278   4.330  12.014   2.624  0.2921  0.4404  0.6077
  914MOL0     O23279   4.394  12.132   2.676  0.1299  0.3294 -0.0267
  914MOL0     C23280   4.513  12.099   2.743  0.4586  0.2645  0.6740
  914MOL0     C23281   4.635  12.086   2.677  0.6312  0.6778 -0.1121
  914MOL0     C23282   4.741  12.052   2.756  0.0444  0.2994 -1.1326
  914MOL0     C23283   4.740  12.037   2.895 -0.1766 -0.2717  0.0230
  914MOL0     C23284   4.850  12.003   2.981  0.1675  0.4569  0.9133
  914MOL0     O23285   4.824  11.927   3.095 -0.5666  0.3503 -0.0998
  914MOL0     C23286   4.935  11.903   3.172 -0.2759  1.0535  0.1098
  914MOL0     C23287   5.027  11.803   3.132 -0.6476  0.4223 -0.1572
  914MOL0     C23288   5.136  11.774   3.229 -0.3200 -0.0688 -0.5027
  914MOL0     C23289   5.150  11.855   3.350 -0.2420  0.3827  0.5604
  914MOL0     O23290   5.247  11.844   3.447  0.3509  0.3094  0.0849
  914MOL0     C23291   5.380  11.819   3.403  0.9425  0.0337 -0.1533
  914MOL0     C23292   5.408  11.677   3.432 -1.7362 -0.5764  0.0140
  914MOL0     C23293   5.548  11.646   3.365 -0.1005 -0.8392 -0.5596
  914MOL0     C23294   5.551  11.493   3.367 -0.3475 -0.0422 -0.7268
  914MOL0     C23295   5.678  11.433   3.319  0.6448  0.5628  0.3483
  914MOL0     C23296   5.716  11.485   3.172  0.4082  1.2094 -0.5371
  914MOL0     C23297   5.805  11.374   3.110 -0.4689 -0.4543 -0.1851
  914MOL0     C23298   5.869  11.420   2.979 -0.4410 -1.1593  0.6775
  914MOL0    Cl23299   5.952  11.286   2.904  0.0016  0.3137 -0.3321
  914MOL0     C23300   5.056  11.956   3.369  0.3498  0.0531  0.6550
  914MOL0     C23301   4.953  11.977   3.283 -0.8364  0.3872 -0.8127
  914MOL0     O23302   4.960  12.038   2.932  0.1291  0.1644  0.7324
  914MOL0     C23303   4.614  12.066   2.957 -1.1620  0.7131 -0.3951
  914MOL0     C23304   4.505  12.087   2.881 -0.2396  0.2950 -0.1638
  914MOL0     N23305   4.407  11.696   2.134 -0.3276  0.1039  0.2720
  914MOL0     N23306   4.410  11.565   2.125 -0.0218  0.3191  0.3124
  914MOL0     C23307   3.659  10.710   1.737 -0.4170 -0.7634 -0.8616
  914MOL0     C23308   3.524  10.672   1.701 -0.4856  0.4746  0.3278
  914MOL0     C23309   3.132  10.423   1.662  0.5023 -0.7374  0.0881
  914MOL0     C23310   3.038  10.541   1.654 -0.8703 -0.9830 -0.4890
  914MOL0     C23311   2.907  10.532   1.655  0.1555 -0.0020 -0.0811
  914MOL0     C23312   2.853  10.401   1.662  0.4239 -0.4161  0.1362
  914MOL0     O23313   2.711  10.401   1.649  0.3073  0.8432  0.4770
  914MOL0     C23314   2.634  10.285   1.685  0.2563  0.0781 -0.4417
  914MOL0     C23315   2.507  10.327   1.757  0.3860 -0.0644  0.3049
  914MOL0     C23316   2.424  10.434   1.687 -0.8179 -0.4256 -0.8668
  914MOL0     C23317   2.300  10.495   1.741  0.1592 -0.5156  0.3156
  914MOL0     C23318   2.297  10.527   1.886  0.3945  0.7002  1.0513
  914MOL0     C23319   2.287  10.541   2.010  0.2290  0.7238  0.3238
  914MOL0     C23320   2.932  10.284   1.663  0.0303 -0.3031  0.5526
  914MOL0     C23321   3.070  10.291   1.669  0.0553  0.0758  0.1136
  914MOL0     C23322   3.144  10.159   1.691  0.6372  0.3054 -0.7884
  914MOL0     H23323   3.490  10.401   1.890 -2.9666  0.6651 -3.2028
  914MOL0     H23324   3.733  10.475   1.966 -0.6331 -0.1950  1.3587
  914MOL0     H23325   3.935  10.785   1.751  1.0291  1.6995  0.6072
  914MOL0     H23326   3.861  10.868   1.878  0.1020  1.2106 -2.3186
  914MOL0     H23327   4.121  10.716   1.933  1.3507  1.3836  3.4314
  914MOL0     H23328   4.027  10.816   2.050  1.6219  0.0600  0.4764
  914MOL0     H23329   4.170  10.904   1.807  0.4231  0.6887 -0.4046
  914MOL0     H23330   4.221  10.916   1.968  0.6129  0.6544 -1.2825
  914MOL0     H23331   4.059  11.118   1.830 -0.8385 -0.3539 -0.7942
  914MOL0     H23332   3.948  11.041   1.936  0.5893  0.0006 -1.2907
  914MOL0     H23333   4.070  11.260   2.024  0.4770  0.0170 -0.5108
  914MOL0     H23334   4.045  11.127   2.127 -0.8029 -3.1494 -1.0680
  914MOL0     H23335   4.293  11.121   2.147 -0.6173 -2.5369 -0.9763
  914MOL0     H23336   4.317  11.134   1.970  0.3956  1.4380 -0.5835
  914MOL0     H23337   4.260  11.368   1.974 -0.5774 -1.2955  0.2270
  914MOL0     H23338   4.410  11.317   2.054  0.0737  0.1108  4.4227
  914MOL0     H23339   4.155  11.363   2.223 -0.5275 -1.0622 -1.4227
  914MOL0     H23340   4.323  11.338   2.277  2.2692  0.3655 -1.2838
  914MOL0     H23341   4.176  11.622   2.353  1.3756  3.5071  1.0698
  914MOL0     H23342   4.343  11.930   2.223 -0.7737  0.3042 -1.0313
  914MOL0     H23343   4.177  11.874   2.254 -1.1181 -1.5557  1.9023
  914MOL0     H23344   4.230  11.813   2.478  1.1071 -1.7252 -0.2358
  914MOL0     H23345   4.400  11.801   2.450  0.7230 -0.8190  0.0010
  914MOL0     H23346   4.222  12.060   2.450 -0.1812  1.9808  1.5863
  914MOL0     H23347   4.402  12.055   2.420 -0.3078  0.0206 -0.1178
  914MOL0     H23348   4.380  11.920   2.646 -2.7831 -1.4430  0.2516
  914MOL0     H23349   4.228  12.008   2.664 -0.4603 -1.4155 -1.4158
  914MOL0     H23350   4.652  12.108   2.572  3.7342  0.8492  0.3329
  914MOL0     H23351   4.831  12.030   2.699  0.0650 -0.7563 -0.7066
  914MOL0     H23352   5.027  11.751   3.037 -0.7228  2.0384 -1.0813
  914MOL0     H23353   5.200  11.688   3.217 -0.6750 -0.8221  2.3550
  914MOL0     H23354   5.383  11.835   3.295 -2.4392 -1.8291 -0.6505
  914MOL0     H23355   5.446  11.888   3.457  0.2976 -0.8586  1.8591
  914MOL0     H23356   5.414  11.669   3.541 -0.7730  3.2533  0.3861
  914MOL0     H23357   5.324  11.617   3.395 -1.3048  0.7792 -3.5659
  914MOL0     H23358   5.564  11.690   3.266  2.8172 -0.6878 -0.1139
  914MOL0     H23359   5.620  11.694   3.433  0.2281 -1.3247 -0.5580
  914MOL0     H23360   5.459  11.456   3.320 -0.4341 -1.9535  0.8319
  914MOL0     H23361   5.551  11.464   3.472  0.1895 -2.9427 -1.4489
  914MOL0     H23362   5.665  11.324   3.324 -0.5854  0.5841 -1.4654
  914MOL0     H23363   5.758  11.464   3.386  4.7864 -0.6639 -3.5021
  914MOL0     H23364   5.626  11.504   3.112  0.9797 -0.2061 -1.9200
  914MOL0     H23365   5.761  11.585   3.175  1.7123  0.8346 -3.7005
  914MOL0     H23366   5.743  11.284   3.111  0.0171 -0.8114  1.8519
  914MOL0     H23367   5.889  11.365   3.180  2.0322  1.2412 -2.7090
  914MOL0     H23368   5.786  11.457   2.919 -3.8407 -1.2530  4.8477
  914MOL0     H23369   5.940  11.503   2.980 -1.9901  0.3295 -2.1397
  914MOL0     H23370   5.063  12.005   3.466  1.0569 -0.2571  0.7690
  914MOL0     H23371   4.900  12.070   3.303  2.4344  2.1846  0.3854
  914MOL0     H23372   4.604  12.060   3.065 -1.5088 -1.2344 -0.5038
  914MOL0     H23373   4.411  12.109   2.931  0.7841  0.2780  1.8601
  914MOL0     H23374   3.702  10.803   1.700 -0.7321  0.0481  0.7298
  914MOL0     H23375   3.466  10.744   1.645 -0.2892 -1.3853 -2.4966
  914MOL0     H23376   3.077  10.642   1.659  1.8418 -1.9227 -0.8749
  914MOL0     H23377   2.835  10.613   1.665  0.9397  0.5954  0.9177
  914MOL0     H23378   2.689  10.211   1.743 -1.6926 -0.3148  1.0059
  914MOL0     H23379   2.597  10.244   1.591  1.2158 -1.6384 -0.0986
  914MOL0     H23380   2.542  10.354   1.856  0.5964  0.6138  0.0474
  914MOL0     H23381   2.446  10.236   1.765  1.6994 -1.4778 -3.4973
  914MOL0     H23382   2.388  10.385   1.596  1.1502 -0.8188 -1.4696
  914MOL0     H23383   2.489  10.514   1.651 -1.0863 -0.3529 -1.1952
  914MOL0     H23384   2.276  10.580   1.677 -1.9829 -0.8109  0.6714
  914MOL0     H23385   2.217  10.427   1.720 -1.0061  1.5328 -2.3081
  914MOL0     H23386   2.274  10.553   2.115  2.8421  2.0282  0.5588
  914MOL0     H23387   2.893  10.182   1.670  3.3068 -1.6704  0.8393
  914MOL0     H23388   3.218  10.136   1.614  1.3493 -0.2871  0.0412
  914MOL0     H23389   3.207  10.178   1.778 -2.6807  0.2902  1.8224
  914MOL0     H23390   3.081  10.072   1.712 -0.5720  1.9928  4.0096
  915MOL0     O23391   3.266   7.803   1.703  0.1196 -0.3916 -0.2039
  915MOL0     C23392   3.169   7.779   1.771  0.4442 -0.0852 -0.1767
  915MOL0     O23393   3.171   7.700   1.886 -0.6803  0.0430  0.0222
  915MOL0     C23394   3.284   7.619   1.916 -0.1140  0.1728  0.3347
  915MOL0     C23395   3.418   7.635   1.882  0.2370  0.5120 -0.0855
  915MOL0     C23396   3.512   7.537   1.923 -0.4974 -0.1847 -0.2548
  915MOL0     C23397   3.473   7.434   2.009 -0.5015  0.1383 -0.5686
  915MOL0     O23398   3.569   7.334   2.055 -0.0397  0.5132  0.2239
  915MOL0     C23399   3.706   7.351   2.033 -0.9574 -0.1826  0.2524
  915MOL0     C23400   3.749   7.277   1.912 -0.7507  0.2084 -0.2382
  915MOL0     C23401   3.901   7.253   1.883  0.2351  0.4208 -0.9257
  915MOL0     C23402   3.959   7.160   1.988  1.3266 -0.1260  0.4284
  915MOL0     C23403   3.950   7.009   1.944 -1.0243 -0.1102  0.3743
  915MOL0     C23404   4.050   6.967   1.830 -0.0538 -0.8447  0.0907
  915MOL0     C23405   4.187   6.939   1.897 -0.2442  0.5553 -0.5601
  915MOL0     C23406   4.302   6.933   1.803  0.1906 -0.1826 -0.0800
  915MOL0     N23407   4.293   6.822   1.700  0.4389  0.3307  0.0956
  915MOL0     C23408   4.332   6.694   1.729  0.2446 -0.1419 -0.8259
  915MOL0     C23409   4.327   6.633   1.612 -0.0135  0.5811 -0.8194
  915MOL0     C23410   4.336   6.479   1.598 -0.5212  0.6313  0.2591
  915MOL0     C23411   4.214   6.415   1.534  0.0971  0.0124  0.9458
  915MOL0     C23412   4.150   6.297   1.619 -0.4457  0.7729 -0.8393
  915MOL0     C23413   4.029   6.230   1.532  0.0676 -0.5409 -0.1947
  915MOL0     O23414   3.931   6.156   1.613 -0.1528  0.0750 -0.3610
  915MOL0     C23415   3.976   6.030   1.641 -0.2222  0.4826  0.7489
  915MOL0     C23416   4.019   5.983   1.762  0.1715  0.2213 -0.0651
  915MOL0     C23417   4.062   5.850   1.786  0.1078  0.5514  0.2479
  915MOL0     C23418   4.065   5.756   1.677  0.3766 -0.0678  1.3374
  915MOL0     C23419   4.089   5.608   1.691  0.3719  0.5272  0.1701
  915MOL0     O23420   4.067   5.531   1.586 -0.2147  0.5523  0.1813
  915MOL0     C23421   4.066   5.394   1.580 -0.6220 -0.3055 -1.0028
  915MOL0     C23422   3.973   5.331   1.494  0.5687 -0.2631 -0.2674
  915MOL0     C23423   3.960   5.195   1.489  0.1820  0.4825 -0.4973
  915MOL0     C23424   4.035   5.118   1.584  1.0186 -0.3784  1.1222
  915MOL0     O23425   4.024   4.988   1.603  0.0189  0.1022  0.6407
  915MOL0     C23426   3.884   4.943   1.609  0.4238  0.1979  0.5043
  915MOL0     C23427   3.896   4.793   1.644 -0.1988 -0.4514  0.2825
  915MOL0     C23428   3.927   4.722   1.517  0.4582 -0.2740  0.2350
  915MOL0     C23429   3.978   4.583   1.546 -0.0316  0.9119  0.0489
  915MOL0     C23430   3.883   4.491   1.621  0.2079 -1.0644  0.8443
  915MOL0     C23431   3.747   4.461   1.550  0.2450 -0.3793  1.0617
  915MOL0     C23432   3.669   4.351   1.631  0.1831  0.5599 -0.4717
  915MOL0     C23433   3.537   4.311   1.569 -0.2184  0.0591  0.0907
  915MOL0    Cl23434   3.569   4.238   1.410 -0.1319 -0.5882 -0.3144
  915MOL0     C23435   4.116   5.181   1.675 -0.0462 -0.1546  0.9622
  915MOL0     C23436   4.139   5.311   1.675 -0.0195  0.4397 -0.0475
  915MOL0     O23437   4.130   5.571   1.801  0.4056  0.4093  0.3135
  915MOL0     C23438   4.018   5.808   1.548  0.0790  0.4781  0.6384
  915MOL0     C23439   3.982   5.939   1.534 -0.3751  1.4690  0.7757
  915MOL0     N23440   4.285   6.716   1.510  0.0644  0.1574 -0.2783
  915MOL0     N23441   4.264   6.834   1.567 -0.2437 -0.4554  0.1007
  915MOL0     C23442   3.346   7.432   2.058 -0.3730 -0.7620  0.5618
  915MOL0     C23443   3.250   7.520   2.008 -0.7521  0.3844 -0.4974
  915MOL0     C23444   3.037   7.842   1.736 -0.0073  0.9822  0.2793
  915MOL0     C23445   2.919   7.816   1.811 -0.1578 -0.5529 -0.4190
  915MOL0     C23446   2.799   7.871   1.780  0.1709  0.2507 -0.4090
  915MOL0     C23447   2.776   7.963   1.677 -0.5948 -0.4116  0.2875
  915MOL0     O23448   2.646   8.013   1.662 -0.0812 -0.1636  0.1908
  915MOL0     C23449   2.636   8.110   1.555  1.0014 -0.4022  0.3302
  915MOL0     C23450   2.603   8.033   1.429  0.2213 -0.1058  0.8736
  915MOL0     C23451   2.458   7.977   1.436  1.2418 -0.5700 -0.6829
  915MOL0     C23452   2.355   8.070   1.373 -0.0912 -0.6274 -0.5088
  915MOL0     C23453   2.224   8.005   1.336  0.0880  0.3630  0.3531
  915MOL0     C23454   2.114   7.952   1.319 -0.1909 -0.0711 -0.4739
  915MOL0     C23455   2.890   7.997   1.599 -0.5439  0.3204  0.0225
  915MOL0     C23456   3.017   7.935   1.628  0.4379 -0.8394  0.5020
  915MOL0     C23457   3.127   7.984   1.530  0.3928  1.0880 -0.4855
  915MOL0     H23458   3.443   7.711   1.808  1.6736 -2.2920 -2.6957
  915MOL0     H23459   3.615   7.544   1.889 -0.1474  0.2275  0.8601
  915MOL0     H23460   3.723   7.459   2.029 -1.5573 -0.0360  1.2127
  915MOL0     H23461   3.749   7.317   2.127 -0.5275  0.1746  0.1872
  915MOL0     H23462   3.701   7.330   1.829 -1.8268  1.8485  1.3499
  915MOL0     H23463   3.700   7.179   1.914 -0.4352  0.0249  2.5640
  915MOL0     H23464   3.962   7.343   1.872  1.0123  0.2163  1.2099
  915MOL0     H23465   3.905   7.197   1.789 -1.3158  0.5572 -1.0871
  915MOL0     H23466   4.065   7.177   2.008  1.0894  0.1673  1.4714
  915MOL0     H23467   3.891   7.159   2.074 -3.2756 -1.3736 -2.8417
  915MOL0     H23468   3.981   6.952   2.032  3.1069  0.8942 -0.1819
  915MOL0     H23469   3.848   6.978   1.920 -0.7724 -0.9410  0.3275
  915MOL0     H23470   4.027   6.870   1.784 -0.8377 -0.4398 -0.3892
  915MOL0     H23471   4.052   7.045   1.753 -0.0027  0.3197  1.2419
  915MOL0     H23472   4.180   6.843   1.948 -1.0592 -0.5196 -2.5923
  915MOL0     H23473   4.207   7.027   1.960 -2.5917 -0.3415  1.5821
  915MOL0     H23474   4.300   7.032   1.757 -4.7336  0.1688  0.4381
  915MOL0     H23475   4.388   6.912   1.867 -0.3290  0.7276  0.9348
  915MOL0     H23476   4.350   6.655   1.828 -0.1420  0.1786 -0.6255
  915MOL0     H23477   4.418   6.455   1.529 -0.7524  0.6578 -0.0293
  915MOL0     H23478   4.359   6.433   1.694  3.2457 -0.5554 -1.0362
  915MOL0     H23479   4.125   6.478   1.525  0.6640  0.7711  0.5091
  915MOL0     H23480   4.226   6.391   1.428 -0.1010  0.2161  0.8762
  915MOL0     H23481   4.116   6.328   1.718  2.8629  1.3435  0.2297
  915MOL0     H23482   4.232   6.226   1.635 -0.2370  1.2357  0.2136
  915MOL0     H23483   4.077   6.168   1.456  2.4385 -0.3102  1.0245
  915MOL0     H23484   3.980   6.313   1.481  1.3271 -0.8421 -1.9994
  915MOL0     H23485   4.022   6.058   1.840  4.1196  1.6915 -1.3783
  915MOL0     H23486   4.098   5.811   1.881 -0.0179 -0.7661 -0.2266
  915MOL0     H23487   3.907   5.398   1.441  0.7113  2.7207  2.8968
  915MOL0     H23488   3.895   5.156   1.411  0.5757  0.1404 -0.6594
  915MOL0     H23489   3.826   4.977   1.696  0.0418  0.1313  0.2769
  915MOL0     H23490   3.829   4.957   1.516  0.2125 -4.5464 -0.3389
  915MOL0     H23491   3.959   4.782   1.733 -0.7504  1.1365  0.9148
  915MOL0     H23492   3.798   4.749   1.667  0.0967 -1.0801  0.3524
  915MOL0     H23493   3.841   4.726   1.450  0.7730  1.4104 -0.1185
  915MOL0     H23494   4.008   4.776   1.466 -0.8476  0.2025 -1.4268
  915MOL0     H23495   4.066   4.611   1.604  0.7319 -1.6189  0.2119
  915MOL0     H23496   4.002   4.527   1.455 -4.1050  2.1514 -2.0873
  915MOL0     H23497   3.856   4.540   1.716  0.5598 -0.6815  0.7526
  915MOL0     H23498   3.929   4.392   1.632 -0.6457 -1.6514 -0.6426
  915MOL0     H23499   3.685   4.548   1.528 -1.3326 -2.1262 -2.0682
  915MOL0     H23500   3.773   4.414   1.455 -0.2329  3.1653 -0.9917
  915MOL0     H23501   3.658   4.395   1.730  1.5868 -0.3714  0.1289
  915MOL0     H23502   3.732   4.263   1.638  0.1609  0.6503  1.1101
  915MOL0     H23503   3.483   4.232   1.622 -1.4321  0.8783  0.1115
  915MOL0     H23504   3.478   4.402   1.559  3.5195  2.6514 -0.3532
  915MOL0     H23505   4.169   5.129   1.755  1.9772  2.5258  1.5106
  915MOL0     H23506   4.205   5.355   1.749 -0.1398  1.0034 -0.2695
  915MOL0     H23507   4.007   5.747   1.459 -0.0263  0.3489  0.7396
  915MOL0     H23508   3.953   5.973   1.434  2.1232 -0.4908 -0.7179
  915MOL0     H23509   3.319   7.345   2.117 -0.8662  0.6023  2.4459
  915MOL0     H23510   3.144   7.527   2.032 -0.9243  1.8150 -1.5364
  915MOL0     H23511   2.925   7.753   1.899 -1.8302  2.8052  2.3745
  915MOL0     H23512   2.721   7.833   1.845  1.6742  1.2638  2.1361
  915MOL0     H23513   2.727   8.167   1.537  0.8907 -0.9389 -2.2002
  915MOL0     H23514   2.547   8.170   1.576  1.5259  1.4526 -2.2655
  915MOL0     H23515   2.682   7.957   1.418  2.1855  1.5796  2.4932
  915MOL0     H23516   2.611   8.101   1.344  2.3165  1.2151  2.0327
  915MOL0     H23517   2.418   7.947   1.533 -0.5562 -2.4958 -1.9252
  915MOL0     H23518   2.464   7.882   1.382 -0.4431 -0.5195 -0.9876
  915MOL0     H23519   2.342   8.149   1.447  2.1617 -0.6526 -0.0393
  915MOL0     H23520   2.383   8.118   1.279 -2.9332  1.8768 -0.2271
  915MOL0     H23521   2.021   7.903   1.297 -3.4724  5.5289 -1.1571
  915MOL0     H23522   2.874   8.059   1.512 -0.1564 -1.7018 -1.5581
  915MOL0     H23523   3.152   7.905   1.459  0.9954  1.9691 -1.2701
  915MOL0     H23524   3.086   8.072   1.479  0.2071  1.3303  0.0667
  915MOL0     H23525   3.207   8.024   1.593  1.6664  1.7379 -2.4231
  916MOL0     O23526  11.372   8.451   8.588  0.3153  0.0947  0.3740
  916MOL0     C23527  11.298   8.357   8.576 -1.1568  0.2021 -0.2558
  916MOL0     O23528  11.343   8.239   8.526  0.2076 -0.3876  0.1186
  916MOL0     C23529  11.472   8.225   8.483  0.0829  1.0222  0.1753
  916MOL0     C23530  11.577   8.232   8.583 -0.5587 -0.1760  0.1829
  916MOL0     C23531  11.705   8.237   8.549 -0.0467  0.9184 -0.9354
  916MOL0     C23532  11.742   8.234   8.413 -0.6731 -0.4231 -0.3994
  916MOL0     O23533  11.878   8.242   8.375 -0.5788 -0.3647  0.2412
  916MOL0     C23534  11.980   8.170   8.465  0.6142  0.2008  1.4058
  916MOL0     C23535  12.115   8.147   8.402 -0.3833 -0.8626  0.0360
  916MOL0     C23536  12.227   8.091   8.490 -0.6886  0.7612 -0.4057
  916MOL0     C23537  12.284   7.965   8.428  0.4007  0.0308  0.2662
  916MOL0     C23538  12.432   7.951   8.451  0.3048  0.3473  1.3374
  916MOL0     C23539  12.493   7.817   8.404 -0.6144 -0.1102  0.9110
  916MOL0     C23540  12.640   7.838   8.379 -0.2402 -0.1559  0.5596
  916MOL0     C23541  12.704   7.695   8.362  0.1152  0.7685  0.2491
  916MOL0     N23542  12.846   7.699   8.330 -0.1801  0.2545 -0.4118
  916MOL0     C23543  12.916   7.790   8.252  0.5989 -0.0433  0.9462
  916MOL0     C23544  13.044   7.745   8.242  0.1398 -0.5113  0.2673
  916MOL0     C23545  13.138   7.798   8.147  0.4679 -0.3140 -0.5087
  916MOL0     C23546  13.066   7.791   8.007 -1.1405  0.5762  0.1479
  916MOL0     C23547  13.127   7.913   7.928 -0.4287 -0.4361  0.0957
  916MOL0     C23548  13.271   7.902   7.902 -0.3987 -0.8686  0.4504
  916MOL0     O23549  13.324   7.774   7.866  0.3793 -0.0559  0.5235
  916MOL0     C23550  13.430   7.758   7.781  0.5068 -0.2075  0.3476
  916MOL0     C23551  13.547   7.825   7.813  0.3038  0.4193 -0.4791
  916MOL0     C23552  13.658   7.800   7.730  0.0689 -0.6653 -0.1616
  916MOL0     C23553  13.652   7.712   7.623  0.2729  0.4279  0.2907
  916MOL0     C23554  13.768   7.678   7.539 -0.9476  0.4719  0.2749
  916MOL0     O23555  13.886   7.640   7.612 -0.4135 -0.4276 -0.9629
  916MOL0     C23556  13.993   7.616   7.538 -0.3830  0.1837  0.0146
  916MOL0     C23557  14.090   7.714   7.514 -0.8528  0.1335  0.1524
  916MOL0     C23558  14.209   7.681   7.449 -0.5845 -0.1896  0.0702
  916MOL0     C23559  14.235   7.548   7.412  0.5617  0.0318  0.5387
  916MOL0     O23560  14.339   7.510   7.337 -0.1074  0.4098  0.3244
  916MOL0     C23561  14.436   7.593   7.283  0.5741 -0.1595  0.2793
  916MOL0     C23562  14.546   7.510   7.207  0.2644 -0.0258  0.6327
  916MOL0     C23563  14.669   7.598   7.182  0.2075  0.8142  0.4875
  916MOL0     C23564  14.767   7.537   7.082  0.1291  0.0409 -0.6687
  916MOL0     C23565  14.903   7.606   7.106  0.3549  0.6391 -1.0626
  916MOL0     C23566  15.015   7.537   7.009  0.7611 -0.9765 -0.1758
  916MOL0     C23567  15.116   7.649   6.965  0.3925 -0.3855 -0.9647
  916MOL0     C23568  15.218   7.691   7.075 -0.3386  0.2072  0.3090
  916MOL0    Cl23569  15.149   7.822   7.186  0.4232 -0.1893 -0.1170
  916MOL0     C23570  14.136   7.458   7.424  0.3121  0.7352  0.1181
  916MOL0     C23571  14.012   7.484   7.495  0.1689 -0.2379 -0.2574
  916MOL0     O23572  13.758   7.676   7.417 -0.2995 -0.8403  0.3818
  916MOL0     C23573  13.528   7.659   7.589 -0.5406 -0.4268 -0.3558
  916MOL0     C23574  13.415   7.684   7.666  0.2879  1.2437 -0.0452
  916MOL0     N23575  13.057   7.633   8.322  0.9154 -0.2837  0.1915
  916MOL0     N23576  12.936   7.603   8.365  0.7220  0.1090 -0.5120
  916MOL0     C23577  11.645   8.228   8.322 -0.5769 -0.4816 -0.2992
  916MOL0     C23578  11.511   8.219   8.352 -0.0036  0.6066  1.2033
  916MOL0     C23579  11.164   8.370   8.631  0.5418 -0.1453  1.4023
  916MOL0     C23580  11.100   8.248   8.668 -0.0794 -0.3796  0.2917
  916MOL0     C23581  10.970   8.248   8.709  0.4950  0.5530  0.0665
  916MOL0     C23582  10.890   8.369   8.709 -0.3331  0.8332 -0.5396
  916MOL0     O23583  10.758   8.372   8.736  0.6712 -1.0639 -0.0437
  916MOL0     C23584  10.664   8.271   8.691 -0.0323  0.1607  0.3752
  916MOL0     C23585  10.574   8.316   8.574 -0.0785 -0.1277  0.3170
  916MOL0     C23586  10.430   8.311   8.603 -1.6623 -0.7549  0.7532
  916MOL0     C23587  10.361   8.415   8.505  0.5555  0.6552 -0.6111
  916MOL0     C23588  10.381   8.388   8.361  0.8613  0.5819  0.4245
  916MOL0     C23589  10.408   8.367   8.243  0.2304 -0.3255 -0.5758
  916MOL0     C23590  10.951   8.486   8.683 -0.1234  1.1550 -0.5614
  916MOL0     C23591  11.084   8.497   8.642 -0.4788 -0.2482  0.6532
  916MOL0     C23592  11.135   8.637   8.599 -0.7831 -0.6675  0.6697
  916MOL0     H23593  11.552   8.259   8.685 -0.9428 -0.6356  0.2171
  916MOL0     H23594  11.771   8.261   8.632 -2.6184  0.2742  1.4095
  916MOL0     H23595  11.990   8.217   8.563 -2.9095 -0.0920  2.0334
  916MOL0     H23596  11.942   8.070   8.488 -0.3502 -0.5438 -2.6540
  916MOL0     H23597  12.155   8.243   8.367  2.0994 -1.5623  0.7264
  916MOL0     H23598  12.098   8.087   8.313  2.1390 -0.2143 -0.9484
  916MOL0     H23599  12.195   8.076   8.593 -1.1694 -1.1467 -0.8023
  916MOL0     H23600  12.314   8.157   8.501  0.0176 -0.5553  3.5451
  916MOL0     H23601  12.242   7.883   8.486  3.6888 -0.0205  2.8493
  916MOL0     H23602  12.258   7.967   8.322 -1.1386 -1.4242  0.5859
  916MOL0     H23603  12.488   8.035   8.411 -1.9571  1.0999 -0.5131
  916MOL0     H23604  12.441   7.949   8.560  0.3527  0.6050  1.3370
  916MOL0     H23605  12.478   7.745   8.485 -0.7972 -0.6862  0.3741
  916MOL0     H23606  12.443   7.779   8.314 -0.9264  0.9820  0.6086
  916MOL0     H23607  12.690   7.882   8.465  1.0188 -2.1312  0.9117
  916MOL0     H23608  12.655   7.894   8.286 -4.4965  1.4809  0.6218
  916MOL0     H23609  12.679   7.633   8.449 -4.2488  0.9459 -0.6468
  916MOL0     H23610  12.654   7.641   8.281 -1.3817  0.7815  1.1275
  916MOL0     H23611  12.870   7.867   8.192  2.3692 -0.5584 -1.1854
  916MOL0     H23612  13.164   7.902   8.167 -1.4332  0.2296 -0.6942
  916MOL0     H23613  13.228   7.736   8.149  1.1852  0.6437 -1.5717
  916MOL0     H23614  13.095   7.692   7.971 -2.7644  0.0070  0.3300
  916MOL0     H23615  12.958   7.808   8.005 -1.4322 -1.1045  0.0258
  916MOL0     H23616  13.109   8.014   7.967  2.3869  1.0741 -2.1309
  916MOL0     H23617  13.083   7.915   7.828 -2.2763  0.6986  0.8801
  916MOL0     H23618  13.320   7.919   7.998 -1.5467  1.8570  0.6412
  916MOL0     H23619  13.300   7.980   7.832 -3.5827 -1.7033 -2.0577
  916MOL0     H23620  13.563   7.890   7.899 -0.7252  1.9537 -1.3939
  916MOL0     H23621  13.754   7.839   7.765 -0.4728  1.9343 -1.3549
  916MOL0     H23622  14.048   7.808   7.548 -2.3336  0.0840 -1.3766
  916MOL0     H23623  14.277   7.762   7.423  0.4978 -1.0889  0.0152
  916MOL0     H23624  14.377   7.655   7.215 -2.3077 -4.4635 -1.6172
  916MOL0     H23625  14.483   7.640   7.370 -0.6816 -0.1405  0.9698
  916MOL0     H23626  14.572   7.419   7.263 -3.4609 -0.5761  1.7393
  916MOL0     H23627  14.501   7.475   7.114 -1.8927  0.5528  1.3838
  916MOL0     H23628  14.638   7.695   7.143 -2.6142 -1.3305 -3.2596
  916MOL0     H23629  14.715   7.620   7.279 -1.1188 -1.0814  1.6288
  916MOL0     H23630  14.747   7.558   6.977 -1.6632  0.3497 -0.2878
  916MOL0     H23631  14.762   7.428   7.093 -2.7042  0.2774  1.4071
  916MOL0     H23632  14.939   7.601   7.209 -2.6965 -0.0604  0.0834
  916MOL0     H23633  14.882   7.711   7.082 -4.5935  0.1533  0.0872
  916MOL0     H23634  15.070   7.462   7.066 -1.5597 -2.1005  0.7102
  916MOL0     H23635  14.975   7.486   6.921 -2.6348  3.1803 -1.4038
  916MOL0     H23636  15.065   7.740   6.932 -1.0498  0.4989  3.1000
  916MOL0     H23637  15.172   7.614   6.878 -2.6468 -1.4534 -2.6242
  916MOL0     H23638  15.239   7.606   7.140  1.0594  1.8094  2.0650
  916MOL0     H23639  15.310   7.726   7.026  1.3218  0.1574  3.1379
  916MOL0     H23640  14.144   7.353   7.400  0.9961  0.5069  1.2541
  916MOL0     H23641  13.942   7.401   7.502  1.3597 -1.2105  0.5465
  916MOL0     H23642  13.520   7.586   7.509 -1.0993 -1.8922  0.9908
  916MOL0     H23643  13.315   7.644   7.652  1.4082 -1.2692 -1.5121
  916MOL0     H23644  11.685   8.223   8.221 -0.9481  2.0609 -0.6594
  916MOL0     H23645  11.427   8.204   8.285  0.3227  0.3191  0.8554
  916MOL0     H23646  11.159   8.158   8.650 -0.0225  0.2535 -3.7539
  916MOL0     H23647  10.933   8.149   8.735 -1.0895  0.3488 -2.5860
  916MOL0     H23648  10.602   8.238   8.775  0.3113  0.9125  0.9348
  916MOL0     H23649  10.718   8.180   8.665 -1.5726 -0.4813 -0.7837
  916MOL0     H23650  10.596   8.242   8.497  3.1195  2.7435 -1.8440
  916MOL0     H23651  10.608   8.414   8.540 -0.0835 -0.8332 -1.8837
  916MOL0     H23652  10.418   8.332   8.710 -0.4125  2.7240  0.3432
  916MOL0     H23653  10.384   8.215   8.578 -2.5302 -0.2376  0.3032
  916MOL0     H23654  10.255   8.402   8.528  0.9164 -1.4601  0.0620
  916MOL0     H23655  10.381   8.517   8.537  2.5709  0.9714 -2.6045
  916MOL0     H23656  10.420   8.347   8.138  3.3321  1.5344 -0.6955
  916MOL0     H23657  10.900   8.580   8.702  0.7446  1.5047  0.1016
  916MOL0     H23658  11.065   8.721   8.614  2.1947  2.2771 -0.7205
  916MOL0     H23659  11.228   8.661   8.652 -0.9752  1.4423  0.1536
  916MOL0     H23660  11.139   8.634   8.490 -5.0659 -1.5406  0.3526
  917MOL0     O23661   5.233   4.794   5.757 -0.3611  0.3989  0.5383
  917MOL0     C23662   5.184   4.721   5.847  0.3531 -0.6984  0.1710
  917MOL0     O23663   5.234   4.705   5.963 -0.6355 -0.7618 -0.3504
  917MOL0     C23664   5.312   4.804   6.018  0.6444  0.0880 -0.2006
  917MOL0     C23665   5.430   4.847   5.967  0.5632 -0.3530 -0.2728
  917MOL0     C23666   5.503   4.951   6.028 -0.9956  0.0460 -0.1847
  917MOL0     C23667   5.461   5.014   6.144  0.0826  0.8371 -0.0346
  917MOL0     O23668   5.540   5.111   6.194 -0.2690 -0.3635 -0.7640
  917MOL0     C23669   5.503   5.160   6.325  0.3064 -0.5548  0.3630
  917MOL0     C23670   5.596   5.276   6.360  0.2372  0.5473 -0.0101
  917MOL0     C23671   5.743   5.219   6.390  0.5414  0.8020  0.6700
  917MOL0     C23672   5.856   5.324   6.369 -0.4369 -0.3096  0.0304
  917MOL0     C23673   5.998   5.265   6.419  0.2521  0.3209 -0.3870
  917MOL0     C23674   6.120   5.354   6.408  0.7258 -0.0255  0.5661
  917MOL0     C23675   6.235   5.291   6.469  0.3940  0.2816 -0.2075
  917MOL0     C23676   6.361   5.377   6.452 -0.4772 -0.1016  0.5373
  917MOL0     N23677   6.474   5.320   6.526  0.2223 -0.2416  0.5557
  917MOL0     C23678   6.527   5.192   6.530 -0.0446 -0.1661  0.2013
  917MOL0     C23679   6.655   5.207   6.577 -0.3310  0.8897  0.7363
  917MOL0     C23680   6.752   5.089   6.590  0.0848 -0.3410 -0.8443
  917MOL0     C23681   6.890   5.145   6.641 -0.1993  0.3243  1.1231
  917MOL0     C23682   7.005   5.043   6.635  0.5999  0.4719  0.6761
  917MOL0     C23683   7.086   5.029   6.764  0.7200  0.0500 -0.2373
  917MOL0     O23684   7.200   4.960   6.724  0.0489 -0.2959 -0.3621
  917MOL0     C23685   7.315   5.005   6.774 -0.6557 -0.3503  0.6280
  917MOL0     C23686   7.337   5.090   6.889 -0.1826  0.0359  0.1333
  917MOL0     C23687   7.471   5.131   6.932 -0.0690 -0.1195 -0.2964
  917MOL0     C23688   7.582   5.082   6.868  0.0224 -0.2803  0.7193
  917MOL0     C23689   7.717   5.109   6.906 -0.0306 -0.0107  0.1252
  917MOL0     O23690   7.734   5.131   7.034 -0.6586 -0.5248 -1.3925
  917MOL0     C23691   7.857   5.163   7.085  0.7464 -0.8721 -0.4287
  917MOL0     C23692   7.942   5.260   7.033 -0.2278 -0.8535 -0.0076
  917MOL0     C23693   8.066   5.276   7.099 -0.9517 -0.5687 -0.3875
  917MOL0     C23694   8.104   5.201   7.214 -1.1957 -0.2400  0.5203
  917MOL0     O23695   8.229   5.211   7.261  0.0902  0.3583  0.6444
  917MOL0     C23696   8.317   5.323   7.233  0.3537  0.9996  0.0420
  917MOL0     C23697   8.443   5.302   7.315  0.4384 -0.1926  0.3665
  917MOL0     C23698   8.551   5.234   7.225  0.3862 -0.1775  0.5275
  917MOL0     C23699   8.682   5.251   7.319  0.0567 -0.3336 -0.0929
  917MOL0     C23700   8.806   5.173   7.269 -1.4349  0.6813  0.5012
  917MOL0     C23701   8.913   5.171   7.383  0.2529  0.8215 -0.0725
  917MOL0     C23702   9.024   5.073   7.348 -0.6418  1.3006 -0.4171
  917MOL0     C23703   9.159   5.099   7.413 -0.4890 -0.1004  0.6526
  917MOL0    Cl23704   9.121   5.141   7.582 -0.0484  0.0066 -0.4060
  917MOL0     C23705   8.009   5.114   7.270  0.0139 -0.7772 -0.7746
  917MOL0     C23706   7.894   5.090   7.201 -0.2994  0.5947  0.1966
  917MOL0     O23707   7.802   5.112   6.822 -0.1540 -0.1894  0.8815
  917MOL0     C23708   7.564   4.999   6.757 -0.4089 -0.3431  0.5670
  917MOL0     C23709   7.431   4.965   6.709  0.0723 -0.0311 -0.0846
  917MOL0     N23710   6.676   5.336   6.613 -0.5940 -0.7859  0.2699
  917MOL0     N23711   6.566   5.400   6.585 -0.4852 -1.0042  0.0351
  917MOL0     C23712   5.329   4.978   6.190  0.3176  0.0576 -0.5910
  917MOL0     C23713   5.262   4.869   6.130  0.2192 -0.5159 -0.5067
  917MOL0     C23714   5.056   4.655   5.813 -0.6333 -0.5922 -0.2583
  917MOL0     C23715   4.979   4.698   5.697 -0.0575  1.1286  0.4700
  917MOL0     C23716   4.860   4.626   5.657  1.0645  0.3305  0.2131
  917MOL0     C23717   4.819   4.520   5.727 -0.0071 -0.0248  0.0765
  917MOL0     O23718   4.696   4.470   5.694 -0.1525 -0.1841 -0.5743
  917MOL0     C23719   4.701   4.334   5.644 -0.7449 -0.2644  0.0547
  917MOL0     C23720   4.629   4.226   5.726  0.3468 -0.1199 -0.1375
  917MOL0     C23721   4.502   4.270   5.788  0.4044 -0.1695 -0.5661
  917MOL0     C23722   4.517   4.382   5.894  0.2897  0.7793 -0.1472
  917MOL0     C23723   4.403   4.391   5.987  0.6834 -0.1278 -1.1481
  917MOL0     C23724   4.324   4.389   6.078  0.2050 -0.1346 -0.1431
  917MOL0     C23725   4.888   4.489   5.843  0.0676 -0.4053  0.6806
  917MOL0     C23726   5.007   4.543   5.885 -0.7137  0.2829 -0.2696
  917MOL0     C23727   5.071   4.479   6.005  1.3488  0.2537  0.2722
  917MOL0     H23728   5.474   4.810   5.875  0.2118  0.0056 -0.5922
  917MOL0     H23729   5.602   4.981   5.996  0.2050 -0.0615  3.1092
  917MOL0     H23730   5.398   5.188   6.320 -0.2074 -2.4831 -1.1713
  917MOL0     H23731   5.515   5.078   6.397 -0.0952 -1.3247 -0.4260
  917MOL0     H23732   5.573   5.316   6.459  2.8713  0.1372  0.8389
  917MOL0     H23733   5.589   5.361   6.292 -2.5928  0.4372  0.0454
  917MOL0     H23734   5.762   5.146   6.311  0.2706  1.6915 -0.2213
  917MOL0     H23735   5.752   5.161   6.483 -1.5855  0.3632  0.6502
  917MOL0     H23736   5.851   5.344   6.261  1.8083 -2.5826 -0.5894
  917MOL0     H23737   5.823   5.417   6.417  0.5209  0.8859 -1.5146
  917MOL0     H23738   5.977   5.235   6.522  0.8728  0.5060 -0.2096
  917MOL0     H23739   6.013   5.177   6.356  0.2893  0.6357 -0.8228
  917MOL0     H23740   6.143   5.362   6.302  0.5622  1.8713  0.6383
  917MOL0     H23741   6.114   5.458   6.443 -3.6171  0.7059 -1.7148
  917MOL0     H23742   6.255   5.191   6.429  3.9379  0.3210  1.1452
  917MOL0     H23743   6.205   5.287   6.574  0.8692  3.3440  0.1341
  917MOL0     H23744   6.387   5.395   6.347 -1.9250  0.2321  0.2108
  917MOL0     H23745   6.329   5.470   6.499 -3.5603 -0.6258 -0.2701
  917MOL0     H23746   6.483   5.097   6.502 -0.8749  0.4887 -0.7678
  917MOL0     H23747   6.717   5.007   6.654  1.0366  0.0123  0.1673
  917MOL0     H23748   6.763   5.051   6.488 -0.3671 -0.8312 -0.7186
  917MOL0     H23749   6.915   5.227   6.572 -0.8268 -1.1886 -1.0334
  917MOL0     H23750   6.885   5.172   6.747  1.2302 -2.8848  2.1258
  917MOL0     H23751   7.076   5.079   6.560  0.6589 -1.7979 -0.4430
  917MOL0     H23752   6.974   4.944   6.599 -0.0840  0.7331  0.5381
  917MOL0     H23753   7.026   4.964   6.829 -0.4173  1.1553 -0.1218
  917MOL0     H23754   7.099   5.127   6.812 -0.2607 -1.0521  2.4780
  917MOL0     H23755   7.251   5.121   6.948 -0.6633 -1.1829  0.1086
  917MOL0     H23756   7.479   5.191   7.022 -2.5411 -1.3305  0.8289
  917MOL0     H23757   7.908   5.315   6.945  1.4513 -2.7161 -1.9534
  917MOL0     H23758   8.123   5.366   7.078 -0.9144  0.1695  2.4526
  917MOL0     H23759   8.329   5.340   7.126 -2.4772 -1.9026 -0.9387
  917MOL0     H23760   8.270   5.412   7.275 -2.2981 -0.8942  1.4156
  917MOL0     H23761   8.462   5.402   7.356 -0.3521 -1.2467  3.5104
  917MOL0     H23762   8.411   5.241   7.400  0.1540  0.6113  0.8449
  917MOL0     H23763   8.537   5.130   7.194  1.4578 -0.4576  0.9362
  917MOL0     H23764   8.553   5.300   7.137 -1.3370 -1.0916 -0.2503
  917MOL0     H23765   8.650   5.210   7.416  1.1480 -1.4116 -0.1709
  917MOL0     H23766   8.716   5.355   7.323  2.0794 -0.9860  0.7127
  917MOL0     H23767   8.851   5.221   7.182 -1.5419  1.4177  0.8420
  917MOL0     H23768   8.783   5.071   7.239  1.3683  0.6714 -2.1345
  917MOL0     H23769   8.946   5.275   7.384 -0.9894  1.3227 -2.5498
  917MOL0     H23770   8.858   5.141   7.473 -0.6536 -0.9692 -1.1453
  917MOL0     H23771   9.032   5.069   7.239  1.0168 -2.5562 -0.3120
  917MOL0     H23772   8.994   4.970   7.368 -0.5903  1.8450  3.1081
  917MOL0     H23773   9.234   5.020   7.404  0.9473  1.2089  0.5076
  917MOL0     H23774   9.217   5.186   7.381  2.8538 -1.4578  2.5259
  917MOL0     H23775   8.031   5.058   7.361  1.9032  2.7938  1.1481
  917MOL0     H23776   7.830   5.010   7.237  1.0211 -1.2369 -1.3363
  917MOL0     H23777   7.647   4.957   6.700  1.2422  3.7060 -0.4078
  917MOL0     H23778   7.426   4.895   6.626 -1.3221  0.2269 -0.2327
  917MOL0     H23779   5.287   5.017   6.282 -0.4166 -0.0943 -0.8530
  917MOL0     H23780   5.167   4.841   6.175  0.9065 -0.7332  0.8589
  917MOL0     H23781   5.018   4.785   5.644  1.0880  0.3618 -0.0065
  917MOL0     H23782   4.807   4.651   5.566  1.2562 -2.3217 -0.7065
  917MOL0     H23783   4.807   4.307   5.654  0.0251  2.0449 -1.1628
  917MOL0     H23784   4.671   4.334   5.539 -0.0858  0.9952 -0.1578
  917MOL0     H23785   4.692   4.195   5.810  2.1327  2.8640 -0.1942
  917MOL0     H23786   4.598   4.145   5.660 -0.3190  1.7186 -2.2040
  917MOL0     H23787   4.464   4.180   5.837  1.6209 -0.1633  0.4335
  917MOL0     H23788   4.429   4.304   5.713  0.0371 -0.6863 -0.4510
  917MOL0     H23789   4.608   4.357   5.947 -0.1035 -2.8543 -0.8794
  917MOL0     H23790   4.517   4.473   5.833  1.6930  1.9375  1.4909
  917MOL0     H23791   4.256   4.403   6.160  0.4203  1.5111 -0.2115
  917MOL0     H23792   4.843   4.405   5.893  1.1735 -2.4561 -1.5646
  917MOL0     H23793   5.003   4.407   6.051  1.5573 -1.1081 -1.4549
  917MOL0     H23794   5.159   4.429   5.966  1.2774  1.7748 -1.9957
  917MOL0     H23795   5.078   4.553   6.086 -1.8437  0.7093  0.2642
  918MOL0     O23796   3.774   3.999   2.914  0.0287 -0.5437  0.3398
  918MOL0     C23797   3.782   4.046   2.804  0.0971  0.7449  0.0390
  918MOL0     O23798   3.894   4.036   2.726 -0.1088  0.1699  0.6168
  918MOL0     C23799   4.011   3.980   2.772  0.2874  0.5637 -0.5076
  918MOL0     C23800   4.071   3.879   2.697 -0.7917 -0.8594  0.7391
  918MOL0     C23801   4.195   3.826   2.726  0.3217  0.9194  0.0455
  918MOL0     C23802   4.272   3.877   2.832 -0.1088 -0.6572 -0.2344
  918MOL0     O23803   4.391   3.817   2.857 -0.2313  0.7894  0.0672
  918MOL0     C23804   4.463   3.851   2.982  0.2765 -0.5726  0.4337
  918MOL0     C23805   4.578   3.742   2.990 -0.4392 -0.5095  0.3104
  918MOL0     C23806   4.644   3.755   3.121 -1.2848 -0.5656 -0.3011
  918MOL0     C23807   4.736   3.634   3.144  0.0608 -0.3834  0.0306
  918MOL0     C23808   4.776   3.638   3.293 -0.3363  1.5451  0.3407
  918MOL0     C23809   4.895   3.546   3.301 -0.2905 -0.1918 -0.2394
  918MOL0     C23810   4.841   3.398   3.304  0.0875  0.2510 -1.0154
  918MOL0     C23811   4.926   3.293   3.241  0.0834 -0.6022 -0.5621
  918MOL0     N23812   5.057   3.278   3.302 -0.0333 -0.3099 -0.3282
  918MOL0     C23813   5.073   3.299   3.432 -0.3295 -0.7079 -0.8513
  918MOL0     C23814   5.211   3.274   3.439 -0.1201  0.0772 -0.1987
  918MOL0     C23815   5.290   3.289   3.563  0.6778  0.3099 -0.4911
  918MOL0     C23816   5.290   3.432   3.626  0.2796 -0.5503 -0.3893
  918MOL0     C23817   5.417   3.507   3.564 -0.7561  0.6309 -0.6721
  918MOL0     C23818   5.422   3.654   3.595 -0.5916  0.2618 -0.1452
  918MOL0     O23819   5.392   3.685   3.735  0.8733  0.4200 -0.3661
  918MOL0     C23820   5.483   3.653   3.838 -0.1111 -0.4192  0.5034
  918MOL0     C23821   5.615   3.604   3.822  0.4311  0.5774  1.1425
  918MOL0     C23822   5.690   3.572   3.932 -0.1109  0.2217  0.2809
  918MOL0     C23823   5.644   3.599   4.060 -0.2701 -0.1711 -0.4016
  918MOL0     C23824   5.735   3.562   4.164  0.3008  0.1344 -1.1374
  918MOL0     O23825   5.858   3.501   4.136  0.0975 -0.1809 -0.5899
  918MOL0     C23826   5.952   3.478   4.236  0.7532 -1.0598  0.5122
  918MOL0     C23827   6.089   3.519   4.207  0.3146  0.2358 -0.0944
  918MOL0     C23828   6.193   3.503   4.304 -0.1443  0.1444 -0.3336
  918MOL0     C23829   6.167   3.452   4.427  0.3372 -0.2988 -0.0327
  918MOL0     O23830   6.281   3.437   4.503 -0.0484  0.5658 -0.6081
  918MOL0     C23831   6.275   3.344   4.611 -0.1770 -0.1611 -0.4109
  918MOL0     C23832   6.422   3.333   4.661  0.2920  0.2406 -0.6812
  918MOL0     C23833   6.422   3.273   4.807 -0.6287  0.0509  0.7156
  918MOL0     C23834   6.420   3.374   4.917  0.0504  0.5994 -0.4346
  918MOL0     C23835   6.417   3.316   5.059  0.5449 -1.1100 -0.2458
  918MOL0     C23836   6.485   3.178   5.074 -0.0761  0.5703 -0.2691
  918MOL0     C23837   6.468   3.128   5.220  0.7226 -0.4353 -0.8215
  918MOL0     C23838   6.492   2.980   5.236  0.3781 -0.4481 -0.1130
  918MOL0    Cl23839   6.491   2.949   5.412  0.3605  0.8707 -0.2214
  918MOL0     C23840   6.034   3.414   4.458  0.5976  1.1495 -0.4892
  918MOL0     C23841   5.927   3.433   4.369 -0.4179  0.0892 -0.1042
  918MOL0     O23842   5.695   3.600   4.274  0.4000 -0.2784 -0.8141
  918MOL0     C23843   5.510   3.641   4.082 -0.6572  0.2160 -0.4889
  918MOL0     C23844   5.439   3.672   3.966  0.8167 -0.9363  0.4594
  918MOL0     N23845   5.262   3.219   3.328 -0.9088 -0.4491  0.8885
  918MOL0     N23846   5.158   3.226   3.243  0.2984  0.5807  1.1011
  918MOL0     C23847   4.220   3.988   2.897 -0.2595 -0.2191  0.1124
  918MOL0     C23848   4.092   4.038   2.871  0.2419 -0.5200  0.0134
  918MOL0     C23849   3.647   4.069   2.748  0.3865  0.9943 -0.6038
  918MOL0     C23850   3.545   4.099   2.839  0.1960  0.6977  0.1780
  918MOL0     C23851   3.407   4.120   2.803 -0.1679  0.2663 -1.1062
  918MOL0     C23852   3.376   4.106   2.668 -0.5995  0.4924  0.8630
  918MOL0     O23853   3.250   4.107   2.620 -0.2027 -0.0607  0.3123
  918MOL0     C23854   3.142   4.157   2.706  0.7331 -0.6076 -0.9204
  918MOL0     C23855   3.022   4.167   2.608 -0.1813 -0.8498 -0.3607
  918MOL0     C23856   3.015   4.303   2.549 -0.0484  0.5329 -0.2719
  918MOL0     C23857   3.055   4.301   2.402 -0.0320 -0.3719 -0.9214
  918MOL0     C23858   3.086   4.438   2.360  0.6601  0.0450  0.4749
  918MOL0     C23859   3.123   4.534   2.305 -0.1530  0.2245 -0.4804
  918MOL0     C23860   3.474   4.069   2.577 -0.1473  0.5986  0.1389
  918MOL0     C23861   3.603   4.052   2.615 -0.3762  0.5685  0.1823
  918MOL0     C23862   3.683   3.987   2.509  0.1473 -0.1912  0.3231
  918MOL0     H23863   4.027   3.848   2.603  1.4636 -1.9013 -0.0415
  918MOL0     H23864   4.231   3.745   2.663  2.0900 -0.8333  3.0779
  918MOL0     H23865   4.507   3.951   2.984 -3.8564  1.4450  1.0059
  918MOL0     H23866   4.394   3.846   3.067 -0.0735  1.9053  0.3764
  918MOL0     H23867   4.646   3.757   2.905 -0.1188  0.4817  0.7200
  918MOL0     H23868   4.539   3.640   2.979  1.3051 -1.2127  0.2799
  918MOL0     H23869   4.565   3.773   3.195  0.1559  2.4369  0.6782
  918MOL0     H23870   4.704   3.846   3.114 -3.1369  0.6024 -2.0587
  918MOL0     H23871   4.682   3.545   3.112 -2.6630  1.9880 -2.6936
  918MOL0     H23872   4.818   3.641   3.071 -0.5647  1.4097 -0.5521
  918MOL0     H23873   4.813   3.737   3.324  1.8929  0.3762  1.6948
  918MOL0     H23874   4.697   3.601   3.359  1.0121  1.1341  1.7931
  918MOL0     H23875   4.971   3.563   3.224 -2.0519  0.8670 -1.8257
  918MOL0     H23876   4.924   3.573   3.403 -0.2544  1.7376 -0.7322
  918MOL0     H23877   4.747   3.393   3.248  0.8122  0.6796 -2.3049
  918MOL0     H23878   4.810   3.376   3.407  3.2301  2.3791  0.5318
  918MOL0     H23879   4.871   3.199   3.248  3.2453 -2.6148 -0.9678
  918MOL0     H23880   4.936   3.311   3.133 -1.2978  1.8124 -0.3651
  918MOL0     H23881   5.004   3.339   3.506  3.9559  0.8042  2.7577
  918MOL0     H23882   5.233   3.230   3.635 -0.0458  1.7447  0.1419
  918MOL0     H23883   5.392   3.252   3.545  0.0271 -1.5648 -0.5851
  918MOL0     H23884   5.202   3.485   3.587  0.8619  0.0005 -0.9739
  918MOL0     H23885   5.282   3.422   3.735 -1.3352 -3.6740 -0.6838
  918MOL0     H23886   5.420   3.492   3.456  1.6757 -0.2748 -0.5368
  918MOL0     H23887   5.515   3.472   3.596 -0.1888  3.3089  0.8226
  918MOL0     H23888   5.354   3.697   3.521 -0.7188  2.4730  1.1744
  918MOL0     H23889   5.521   3.695   3.572  1.3926 -2.0647  3.3442
  918MOL0     H23890   5.652   3.575   3.724 -0.9724  1.3034  0.3714
  918MOL0     H23891   5.791   3.540   3.910  0.8594  3.1891  0.1031
  918MOL0     H23892   6.119   3.566   4.114 -0.7043 -1.9191 -1.5876
  918MOL0     H23893   6.289   3.536   4.266 -1.4348  2.4171 -1.8591
  918MOL0     H23894   6.205   3.379   4.687  1.6609  2.3202  0.3028
  918MOL0     H23895   6.240   3.246   4.578 -2.9475  0.9150 -0.9259
  918MOL0     H23896   6.481   3.274   4.591  2.3462  3.2337 -1.6679
  918MOL0     H23897   6.466   3.433   4.657 -0.6132  0.6197 -1.2712
  918MOL0     H23898   6.337   3.205   4.821  0.0650 -0.5577  2.1843
  918MOL0     H23899   6.523   3.232   4.812  1.0979  3.5136 -1.3282
  918MOL0     H23900   6.342   3.450   4.912 -1.0167 -0.3444  1.1072
  918MOL0     H23901   6.510   3.436   4.912  0.6817 -0.3674 -1.7448
  918MOL0     H23902   6.314   3.291   5.084  0.9508 -4.0792 -1.0395
  918MOL0     H23903   6.466   3.385   5.128  1.0851 -0.4109 -1.3028
  918MOL0     H23904   6.429   3.104   5.017 -1.6414  0.2912  1.5186
  918MOL0     H23905   6.592   3.184   5.055  0.0952 -0.8650  0.0984
  918MOL0     H23906   6.368   3.145   5.261  0.8935 -1.6804  0.1705
  918MOL0     H23907   6.541   3.190   5.273 -2.4220  1.8792  1.2363
  918MOL0     H23908   6.409   2.921   5.197 -1.7529  1.6310  1.0317
  918MOL0     H23909   6.584   2.948   5.185  1.7480  0.3159  1.7579
  918MOL0     H23910   6.004   3.365   4.550 -0.5276 -0.6653 -1.7391
  918MOL0     H23911   5.827   3.411   4.406 -1.0589  3.5584  0.6142
  918MOL0     H23912   5.469   3.658   4.181  2.1319 -0.6844  0.9397
  918MOL0     H23913   5.344   3.715   3.998  0.9449  0.6779 -1.1844
  918MOL0     H23914   4.267   4.033   2.984 -1.8903  2.2972 -0.2060
  918MOL0     H23915   4.055   4.128   2.920 -0.1210 -0.1748 -0.8595
  918MOL0     H23916   3.580   4.109   2.941 -0.0640  3.6209  0.0624
  918MOL0     H23917   3.338   4.134   2.886 -0.5156 -2.7290 -0.7553
  918MOL0     H23918   3.172   4.244   2.765  1.0183 -2.2516  1.5191
  918MOL0     H23919   3.123   4.083   2.785 -1.1984  0.6264 -0.1605
  918MOL0     H23920   2.932   4.140   2.665 -1.9209 -1.2784 -3.1320
  918MOL0     H23921   3.045   4.090   2.534  0.0451 -2.1675  1.0314
  918MOL0     H23922   3.086   4.370   2.598  0.0666  0.1757  0.0474
  918MOL0     H23923   2.910   4.335   2.543  0.4211  1.9757 -1.4796
  918MOL0     H23924   3.148   4.246   2.380  0.9577  0.9321 -0.1393
  918MOL0     H23925   2.974   4.250   2.350  1.5595 -2.9670 -1.0612
  918MOL0     H23926   3.153   4.618   2.245 -0.9953  1.0065  0.1637
  918MOL0     H23927   3.435   4.048   2.477  2.0594 -1.2855 -0.4058
  918MOL0     H23928   3.617   3.957   2.428  1.6577 -1.8214 -0.3680
  918MOL0     H23929   3.748   4.064   2.467 -3.3727  2.4852 -0.7174
  918MOL0     H23930   3.729   3.891   2.536 -0.8498 -0.8057 -0.1071
  919MOL0     O23931   6.056   5.902   9.226 -0.1757  0.1831 -0.1015
  919MOL0     C23932   6.035   6.028   9.218 -0.1515  0.2502  0.1679
  919MOL0     O23933   6.133   6.122   9.194 -0.2234 -0.3730 -0.2314
  919MOL0     C23934   6.266   6.094   9.213 -0.4063  0.1624  0.1889
  919MOL0     C23935   6.311   6.059   9.341  0.0253 -0.3993 -0.9760
  919MOL0     C23936   6.444   6.028   9.357 -0.6638  0.2301  0.0879
  919MOL0     C23937   6.535   6.030   9.241  0.9200 -0.0265  0.8680
  919MOL0     O23938   6.667   5.996   9.246 -0.4715 -0.0088  0.1498
  919MOL0     C23939   6.711   5.938   9.374  0.0069  0.3794  0.0065
  919MOL0     C23940   6.870   5.926   9.369  0.6315  1.0681  0.0247
  919MOL0     C23941   6.929   5.861   9.239  0.1887 -0.6441 -0.4060
  919MOL0     C23942   7.059   5.788   9.258  0.1872  0.4144 -0.1783
  919MOL0     C23943   7.186   5.876   9.296 -0.3108 -0.7960  0.2186
  919MOL0     C23944   7.312   5.783   9.301 -1.5651 -0.0936  0.2864
  919MOL0     C23945   7.323   5.701   9.437  0.0121  1.3240  0.0410
  919MOL0     C23946   7.413   5.580   9.428 -0.2321  0.3597  0.3259
  919MOL0     N23947   7.555   5.629   9.418 -0.9625  0.4186 -0.3088
  919MOL0     C23948   7.644   5.619   9.316 -0.8944  0.3557 -0.7521
  919MOL0     C23949   7.760   5.679   9.361 -0.1882  0.3836  0.6682
  919MOL0     C23950   7.875   5.711   9.277 -0.3424 -0.2125  0.3688
  919MOL0     C23951   8.002   5.766   9.349 -0.0643 -0.5192 -1.0485
  919MOL0     C23952   8.121   5.790   9.261 -0.0828 -0.3183 -0.4721
  919MOL0     C23953   8.250   5.832   9.344  0.1219  0.0200  1.1835
  919MOL0     O23954   8.341   5.875   9.241 -0.0941  0.3271 -0.9264
  919MOL0     C23955   8.472   5.893   9.285  0.3069  0.5721 -0.1317
  919MOL0     C23956   8.494   5.962   9.400  0.1605 -0.0472  0.1066
  919MOL0     C23957   8.621   6.010   9.430  0.4047 -0.0387  0.4867
  919MOL0     C23958   8.730   5.959   9.348 -0.1640  0.1922 -0.0240
  919MOL0     C23959   8.869   6.001   9.378  0.9913 -0.5755 -0.6867
  919MOL0     O23960   8.969   5.973   9.293  0.5786  0.3216  0.6408
  919MOL0     C23961   9.090   6.024   9.329 -0.6737 -0.1467  0.4160
  919MOL0     C23962   9.147   6.021   9.462 -0.5623 -0.1975 -0.0170
  919MOL0     C23963   9.279   6.062   9.491  0.3890  0.8270 -0.7600
  919MOL0     C23964   9.358   6.104   9.380  0.5731 -0.4961  0.3788
  919MOL0     O23965   9.491   6.129   9.388  0.4819 -0.1194  0.4435
  919MOL0     C23966   9.567   6.089   9.502 -0.3535 -0.3297  0.0870
  919MOL0     C23967   9.714   6.129   9.490 -0.9916 -0.2806 -0.1177
  919MOL0     C23968   9.731   6.279   9.471 -0.0729  0.4814  0.7673
  919MOL0     C23969   9.701   6.362   9.594 -0.1457  0.3480 -0.0550
  919MOL0     C23970   9.732   6.512   9.581 -0.2435 -0.4724  0.6152
  919MOL0     C23971   9.887   6.539   9.561  0.2223  0.0563 -0.0991
  919MOL0     C23972   9.927   6.686   9.571 -0.3064 -0.1886 -0.2102
  919MOL0     C23973  10.083   6.719   9.548 -0.6566 -0.3267  0.1569
  919MOL0    Cl23974  10.101   6.895   9.564  0.3469 -0.1012  0.3967
  919MOL0     C23975   9.305   6.128   9.261  1.0805 -0.5154  0.2831
  919MOL0     C23976   9.173   6.094   9.238 -0.0731  0.5593  0.6560
  919MOL0     O23977   8.878   6.076   9.476 -0.4900 -0.6905 -0.0814
  919MOL0     C23978   8.703   5.880   9.235 -0.5869  0.2727 -1.6862
  919MOL0     C23979   8.570   5.852   9.201  0.2613  0.5566  0.0795
  919MOL0     N23980   7.735   5.724   9.496 -1.0396 -0.0271 -0.6616
  919MOL0     N23981   7.615   5.697   9.529  0.8211 -0.7135  0.5201
  919MOL0     C23982   6.476   6.044   9.115 -1.2680 -0.2922  0.0313
  919MOL0     C23983   6.348   6.089   9.107  0.1930 -0.1023 -0.3580
  919MOL0     C23984   5.899   6.086   9.223  0.1462 -0.0342  0.4368
  919MOL0     C23985   5.878   6.226   9.242 -0.3795  0.1390 -0.6179
  919MOL0     C23986   5.754   6.278   9.261  0.5705  0.1221  0.3331
  919MOL0     C23987   5.644   6.198   9.247  0.6263  0.6791  0.7031
  919MOL0     O23988   5.510   6.238   9.241 -0.2843  0.1456  0.4356
  919MOL0     C23989   5.471   6.372   9.269 -0.2685 -0.1292 -0.3979
  919MOL0     C23990   5.321   6.378   9.285  0.1773  0.2437 -0.3089
  919MOL0     C23991   5.264   6.326   9.156 -0.0833 -0.1538  0.0975
  919MOL0     C23992   5.112   6.301   9.163  0.2719  0.2665 -0.6934
  919MOL0     C23993   5.072   6.176   9.223  0.3687 -1.1081  0.7442
  919MOL0     C23994   5.047   6.071   9.278 -1.0869 -0.7339  0.4114
  919MOL0     C23995   5.658   6.060   9.232 -0.5331  0.3534  0.8288
  919MOL0     C23996   5.782   6.005   9.224 -0.0318 -0.0542 -0.2142
  919MOL0     C23997   5.775   5.855   9.210  0.0406  0.4187 -0.2419
  919MOL0     H23998   6.246   6.044   9.427 -2.3263 -1.7024 -2.8591
  919MOL0     H23999   6.495   6.011   9.451 -2.0714 -1.0291  0.6649
  919MOL0     H24000   6.710   6.011   9.456  3.1844  0.3447  0.1966
  919MOL0     H24001   6.663   5.842   9.392  0.6117 -0.4335 -2.4106
  919MOL0     H24002   6.901   5.863   9.452  3.5246  2.8748  0.4568
  919MOL0     H24003   6.922   6.021   9.383  0.3773  1.1259  0.6413
  919MOL0     H24004   6.942   5.937   9.162  1.4017  0.4092  0.7883
  919MOL0     H24005   6.858   5.785   9.204  2.3285 -3.7919  1.5070
  919MOL0     H24006   7.036   5.725   9.345  2.5490  1.0246  0.9789
  919MOL0     H24007   7.093   5.711   9.189 -1.0623 -2.0723  1.7892
  919MOL0     H24008   7.193   5.955   9.221  2.8918 -0.4479  0.7467
  919MOL0     H24009   7.174   5.930   9.391  1.9813 -0.5419  0.4186
  919MOL0     H24010   7.320   5.716   9.214 -0.9203 -1.1595  1.1426
  919MOL0     H24011   7.399   5.849   9.300 -0.1725 -1.7774  2.0057
  919MOL0     H24012   7.227   5.674   9.480  1.6354 -1.5597  2.1952
  919MOL0     H24013   7.362   5.776   9.507  3.3591  0.9652 -1.2385
  919MOL0     H24014   7.408   5.510   9.512  0.3448 -2.2916 -1.7050
  919MOL0     H24015   7.397   5.525   9.335 -0.4273 -2.2546  1.7971
  919MOL0     H24016   7.628   5.583   9.215  0.1817  0.1844 -0.8769
  919MOL0     H24017   7.914   5.620   9.231  2.1498 -0.8815  3.5024
  919MOL0     H24018   7.847   5.780   9.196 -3.0104 -2.0555 -0.4265
  919MOL0     H24019   7.972   5.861   9.393  0.2080 -1.1501  0.5865
  919MOL0     H24020   8.032   5.692   9.424 -2.8808  0.1574  0.9131
  919MOL0     H24021   8.097   5.878   9.200 -0.7295 -0.3005 -0.2012
  919MOL0     H24022   8.145   5.698   9.208 -0.3484 -1.3221  1.1076
  919MOL0     H24023   8.293   5.747   9.399 -0.7248 -1.4142 -0.2779
  919MOL0     H24024   8.222   5.914   9.410 -0.7912  0.2859  0.4844
  919MOL0     H24025   8.412   5.996   9.462  2.2570  2.3854  1.7962
  919MOL0     H24026   8.640   6.089   9.503 -2.4959  0.8023  0.4565
  919MOL0     H24027   9.081   5.988   9.542 -2.4112 -3.2144 -2.5337
  919MOL0     H24028   9.311   6.048   9.594  1.2851 -2.6918 -1.3673
  919MOL0     H24029   9.521   6.134   9.590 -1.2737  0.5518 -0.8186
  919MOL0     H24030   9.562   5.980   9.503  3.6154 -0.6965  1.3327
  919MOL0     H24031   9.766   6.091   9.579 -0.3116 -0.3339 -0.5278
  919MOL0     H24032   9.737   6.083   9.394 -0.3115  0.9458 -0.5572
  919MOL0     H24033   9.833   6.291   9.433  0.2084  0.0784  1.3923
  919MOL0     H24034   9.665   6.310   9.389  1.7296 -0.4023 -1.1285
  919MOL0     H24035   9.761   6.334   9.681 -1.1299  1.0893  0.8979
  919MOL0     H24036   9.599   6.336   9.623 -0.3356 -1.7589 -2.3093
  919MOL0     H24037   9.703   6.560   9.675  2.0243 -0.7487  1.4978
  919MOL0     H24038   9.681   6.568   9.501 -1.3839 -0.5023  1.3049
  919MOL0     H24039   9.937   6.495   9.648  1.8178 -0.4798 -1.2467
  919MOL0     H24040   9.920   6.492   9.468  2.9217  1.1469  0.2206
  919MOL0     H24041   9.887   6.730   9.662 -2.0811 -2.2301  0.0826
  919MOL0     H24042   9.874   6.742   9.494 -2.3134 -0.7923  0.6506
  919MOL0     H24043  10.155   6.666   9.610  0.8698 -0.0395 -1.2850
  919MOL0     H24044  10.105   6.692   9.444  1.7303 -1.3871  0.8891
  919MOL0     H24045   9.365   6.160   9.176 -1.7144 -0.5780 -1.8509
  919MOL0     H24046   9.129   6.105   9.140  0.3622 -3.5149 -0.2009
  919MOL0     H24047   8.782   5.860   9.164  1.0233  0.8223 -0.1058
  919MOL0     H24048   8.557   5.807   9.103  2.3303 -0.0021  0.0237
  919MOL0     H24049   6.542   6.016   9.034  0.2414  1.2337  0.6898
  919MOL0     H24050   6.300   6.093   9.010 -1.8454  3.0648  0.6104
  919MOL0     H24051   5.963   6.291   9.261  0.2577 -0.0093 -2.7108
  919MOL0     H24052   5.734   6.381   9.288 -2.9184 -0.3714  0.0930
  919MOL0     H24053   5.516   6.435   9.192 -1.6142  1.3301 -0.0408
  919MOL0     H24054   5.528   6.405   9.356  3.1073  1.8240 -3.0759
  919MOL0     H24055   5.286   6.480   9.303  0.4282 -0.0182  2.0853
  919MOL0     H24056   5.294   6.318   9.373  0.2971 -0.4971 -0.7710
  919MOL0     H24057   5.309   6.228   9.136 -0.5535 -0.4356  0.3872
  919MOL0     H24058   5.286   6.403   9.082  1.7236  0.6960  1.4248
  919MOL0     H24059   5.059   6.384   9.209 -1.4316 -2.5524  2.9466
  919MOL0     H24060   5.077   6.284   9.060 -1.7817 -1.3607  0.1938
  919MOL0     H24061   5.024   5.983   9.335 -0.9811  0.1938  1.9309
  919MOL0     H24062   5.568   5.999   9.229 -0.1596 -0.1732 -1.0985
  919MOL0     H24063   5.795   5.809   9.308 -3.7185 -1.7618 -0.3167
  919MOL0     H24064   5.674   5.819   9.190 -0.0530 -1.1614  2.4897
  919MOL0     H24065   5.841   5.806   9.138 -0.6945 -1.8684  0.5320
  920MOL0     O24066   2.373   2.319   1.910 -0.1581 -0.7510 -0.9385
  920MOL0     C24067   2.308   2.222   1.877 -0.2361 -0.4412 -0.0538
  920MOL0     O24068   2.364   2.116   1.812  0.0563  0.3152  0.4052
  920MOL0     C24069   2.495   2.086   1.843 -0.0611  0.1788 -0.3635
  920MOL0     C24070   2.533   1.965   1.906  0.2496 -0.0646  0.8864
  920MOL0     C24071   2.665   1.938   1.927 -0.5477 -0.7095 -0.8341
  920MOL0     C24072   2.765   2.023   1.888 -0.3296 -0.2190  0.2869
  920MOL0     O24073   2.899   1.980   1.900 -0.8986 -0.1973 -0.1389
  920MOL0     C24074   2.995   2.089   1.899  0.0950  0.0090 -1.3331
  920MOL0     C24075   3.111   2.039   1.982  0.1117 -0.3235 -0.3519
  920MOL0     C24076   3.169   1.899   1.953 -0.2885  0.3481 -0.1787
  920MOL0     C24077   3.231   1.892   1.815 -0.1685  0.0277 -0.3530
  920MOL0     C24078   3.309   1.766   1.792 -0.4396 -0.4405 -0.5103
  920MOL0     C24079   3.383   1.757   1.651 -0.2126  0.1719  0.6130
  920MOL0     C24080   3.468   1.624   1.651 -0.2309  0.6575  0.0276
  920MOL0     C24081   3.390   1.488   1.676 -0.0531 -0.1798 -0.6573
  920MOL0     N24082   3.479   1.375   1.652  0.1049 -0.6960 -0.0069
  920MOL0     C24083   3.547   1.298   1.735  0.4459  1.0919  0.1409
  920MOL0     C24084   3.616   1.200   1.674  0.2812 -0.2728 -0.4926
  920MOL0     C24085   3.708   1.096   1.734 -1.4411 -0.0397  0.9254
  920MOL0     C24086   3.806   1.183   1.823  0.1054 -0.2986  0.3303
  920MOL0     C24087   3.893   1.085   1.904 -0.7539 -0.2957  0.6519
  920MOL0     C24088   3.974   0.988   1.824  1.0900 -0.2223 -0.5162
  920MOL0     O24089   4.054   1.045   1.727 -0.5274  0.6064  0.1234
  920MOL0     C24090   4.179   1.083   1.756 -0.5978  0.1087  0.2783
  920MOL0     C24091   4.232   1.107   1.893  0.3106 -0.4688  0.6391
  920MOL0     C24092   4.355   1.167   1.909 -0.1167 -0.0170 -0.4589
  920MOL0     C24093   4.434   1.205   1.798  0.0023 -0.0648 -0.0688
  920MOL0     C24094   4.562   1.269   1.817  0.1544 -0.3288 -1.0811
  920MOL0     O24095   4.625   1.315   1.706 -0.1021  0.2423 -0.1712
  920MOL0     C24096   4.755   1.352   1.715 -0.3629 -0.2810 -0.0659
  920MOL0     C24097   4.807   1.457   1.634 -0.4287 -0.1182  0.6177
  920MOL0     C24098   4.942   1.500   1.631 -0.3316 -0.7930 -0.5562
  920MOL0     C24099   5.035   1.426   1.702 -0.1555  0.2967  0.0378
  920MOL0     O24100   5.164   1.450   1.672 -0.6401  0.3777 -0.6065
  920MOL0     C24101   5.259   1.366   1.744 -0.3999  0.3755  0.0556
  920MOL0     C24102   5.404   1.404   1.707 -0.1752  0.1301  0.3860
  920MOL0     C24103   5.442   1.548   1.710 -0.2743 -0.4562  0.0092
  920MOL0     C24104   5.583   1.573   1.738 -0.7948 -0.1374 -0.8728
  920MOL0     C24105   5.618   1.724   1.749 -0.1758 -0.6633 -0.4628
  920MOL0     C24106   5.756   1.753   1.809  0.3439  0.8325 -0.8545
  920MOL0     C24107   5.876   1.756   1.709 -0.9983 -0.7803  0.4300
  920MOL0     C24108   5.887   1.883   1.615  0.3213 -0.1834 -0.6838
  920MOL0    Cl24109   6.062   1.881   1.552  0.1198 -0.3423  0.3114
  920MOL0     C24110   4.987   1.331   1.786  0.2665 -0.2599 -0.6570
  920MOL0     C24111   4.848   1.291   1.795  0.1652 -0.2668 -1.2721
  920MOL0     O24112   4.599   1.274   1.931  0.1594  0.5942  0.4064
  920MOL0     C24113   4.386   1.170   1.669  0.1753 -0.0554 -0.0429
  920MOL0     C24114   4.262   1.118   1.656 -0.0874  0.4295  0.2279
  920MOL0     N24115   3.600   1.222   1.542 -0.3923 -0.6435  0.8995
  920MOL0     N24116   3.517   1.327   1.524  1.0751 -0.4511 -0.5533
  920MOL0     C24117   2.734   2.143   1.828  0.2521  0.4294  0.8771
  920MOL0     C24118   2.601   2.169   1.811  0.5851 -0.2060  0.3413
  920MOL0     C24119   2.165   2.230   1.894  0.3172 -0.0930  0.2607
  920MOL0     C24120   2.102   2.360   1.901  0.0864 -0.4734  0.4666
  920MOL0     C24121   1.970   2.373   1.938 -0.5567  0.3499 -0.7924
  920MOL0     C24122   1.888   2.257   1.947  0.6530 -0.0044  0.1678
  920MOL0     O24123   1.759   2.257   1.984  0.2738  0.0513  0.5783
  920MOL0     C24124   1.671   2.351   1.927  0.1596 -0.3524 -0.4967
  920MOL0     C24125   1.536   2.280   1.963  0.1814 -0.3992  0.3178
  920MOL0     C24126   1.510   2.149   1.870  1.3217 -0.1225  0.4506
  920MOL0     C24127   1.378   2.085   1.889  0.3350 -0.3389  0.8264
  920MOL0     C24128   1.272   2.179   1.927  0.5827 -1.2597 -0.9206
  920MOL0     C24129   1.193   2.269   1.945 -0.3938  0.1502  0.3414
  920MOL0     C24130   1.948   2.132   1.935 -0.6609  0.4862  0.1855
  920MOL0     C24131   2.084   2.114   1.907  0.8311 -0.0725 -0.1889
  920MOL0     C24132   2.132   1.972   1.889 -0.4778 -0.8405  0.3177
  920MOL0     H24133   2.456   1.893   1.933  0.1014 -0.6615 -1.0139
  920MOL0     H24134   2.710   1.849   1.970  1.4554 -0.1198 -1.6262
  920MOL0     H24135   3.016   2.121   1.796 -0.4256 -0.7772 -1.6939
  920MOL0     H24136   2.948   2.175   1.948  2.8112  1.6798 -1.4805
  920MOL0     H24137   3.075   2.035   2.086 -1.7039  0.8153 -0.8867
  920MOL0     H24138   3.183   2.121   1.973 -0.9187  0.5639 -0.7958
  920MOL0     H24139   3.082   1.834   1.966 -0.8423  1.3182  1.2512
  920MOL0     H24140   3.245   1.874   2.028  0.4716 -0.0845 -1.0750
  920MOL0     H24141   3.144   1.897   1.748 -2.2925 -0.1674  2.2012
  920MOL0     H24142   3.297   1.978   1.802  0.5880 -0.8643 -2.7726
  920MOL0     H24143   3.387   1.753   1.868  1.0504 -0.7721 -2.0322
  920MOL0     H24144   3.235   1.687   1.798  0.0728 -0.8339  3.2914
  920MOL0     H24145   3.311   1.754   1.570  2.3188 -0.0750 -1.7946
  920MOL0     H24146   3.457   1.836   1.633  1.5696 -1.9071 -2.1769
  920MOL0     H24147   3.533   1.615   1.739 -0.3262 -3.1572 -0.1445
  920MOL0     H24148   3.533   1.614   1.564 -2.1648 -0.0199 -1.3959
  920MOL0     H24149   3.368   1.472   1.781 -0.1500  0.5821 -0.5603
  920MOL0     H24150   3.303   1.494   1.610 -0.3399 -1.4659 -0.4319
  920MOL0     H24151   3.538   1.308   1.843 -3.9097  1.2661 -0.0415
  920MOL0     H24152   3.637   1.036   1.791 -2.7749 -0.6093 -1.2339
  920MOL0     H24153   3.755   1.019   1.672 -0.9011  0.0223  1.2476
  920MOL0     H24154   3.877   1.232   1.756  2.2322  0.3899  2.9286
  920MOL0     H24155   3.755   1.248   1.894  0.0630 -2.2840  2.2277
  920MOL0     H24156   3.828   1.040   1.979 -0.3025 -0.9398  0.6618
  920MOL0     H24157   3.958   1.149   1.964 -0.0214 -0.4347  0.0177
  920MOL0     H24158   3.901   0.917   1.785 -0.0945 -1.4768  3.4362
  920MOL0     H24159   4.031   0.921   1.890 -1.3568 -0.7787  1.1600
  920MOL0     H24160   4.181   1.073   1.982 -0.0120 -2.0948 -0.1309
  920MOL0     H24161   4.397   1.175   2.008  1.8865  0.8568 -1.3416
  920MOL0     H24162   4.734   1.514   1.576 -0.4930  1.6181  2.2944
  920MOL0     H24163   4.957   1.590   1.572 -2.6764  0.5711  0.7321
  920MOL0     H24164   5.258   1.384   1.852  0.5550  2.9543 -0.2949
  920MOL0     H24165   5.248   1.262   1.711  1.3658  0.4891 -0.9650
  920MOL0     H24166   5.478   1.347   1.764 -0.4130 -1.0678 -0.4634
  920MOL0     H24167   5.421   1.367   1.606  0.3693 -3.8472  1.7818
  920MOL0     H24168   5.416   1.588   1.612  1.8953 -2.0377 -1.3169
  920MOL0     H24169   5.394   1.604   1.791  1.8666  1.1957  0.2257
  920MOL0     H24170   5.646   1.525   1.662  1.6647 -0.6260  1.3209
  920MOL0     H24171   5.600   1.528   1.836 -1.3451 -2.6237 -1.8437
  920MOL0     H24172   5.542   1.779   1.806  0.7848  2.2301 -1.7527
  920MOL0     H24173   5.611   1.770   1.650 -0.2159 -0.0798 -0.1953
  920MOL0     H24174   5.738   1.845   1.864 -1.7225  0.9674 -1.6743
  920MOL0     H24175   5.786   1.679   1.883 -1.8864  0.3905 -0.3372
  920MOL0     H24176   5.869   1.666   1.648 -2.5274 -0.7142  0.4680
  920MOL0     H24177   5.966   1.760   1.771 -0.8530  3.3574  0.2257
  920MOL0     H24178   5.808   1.874   1.539  1.8874  1.1837 -2.5843
  920MOL0     H24179   5.856   1.971   1.671 -0.1498 -0.7680 -0.0076
  920MOL0     H24180   5.057   1.261   1.829  0.1996 -1.8570 -2.9712
  920MOL0     H24181   4.825   1.198   1.846 -0.1968 -1.0150 -2.7514
  920MOL0     H24182   4.443   1.195   1.580 -1.9264  0.0787 -1.4054
  920MOL0     H24183   4.226   1.110   1.554 -1.8280 -1.7397  0.9347
  920MOL0     H24184   2.810   2.212   1.793 -2.3589  2.8172 -0.5030
  920MOL0     H24185   2.577   2.269   1.774 -3.5765 -1.7690 -1.8562
  920MOL0     H24186   2.152   2.454   1.879 -0.0221 -0.3331  0.8084
  920MOL0     H24187   1.926   2.470   1.957 -0.2693  0.6436 -1.5704
  920MOL0     H24188   1.695   2.364   1.821 -1.7455  0.1673 -0.8871
  920MOL0     H24189   1.672   2.447   1.980 -0.4313 -0.6386  0.0547
  920MOL0     H24190   1.447   2.343   1.952  1.0985  1.2642  2.0506
  920MOL0     H24191   1.536   2.245   2.067 -2.6357 -1.0946  0.1869
  920MOL0     H24192   1.587   2.073   1.883  0.8303 -0.1958  4.0060
  920MOL0     H24193   1.522   2.174   1.764  0.4208 -2.5311 -0.2911
  920MOL0     H24194   1.343   2.045   1.793 -1.1495  0.9314  0.7939
  920MOL0     H24195   1.387   2.003   1.960 -1.8726 -0.9716  0.4501
  920MOL0     H24196   1.113   2.338   1.965  0.6123  0.5800  3.3687
  920MOL0     H24197   1.891   2.040   1.946  1.8654 -1.3764 -1.0933
  920MOL0     H24198   2.075   1.892   1.936 -3.1253  1.2745  0.9798
  920MOL0     H24199   2.135   1.944   1.784 -0.1954  1.4196 -0.3333
  920MOL0     H24200   2.229   1.966   1.939 -0.8949  1.1705  1.4935
  921MOL0     O24201  10.107   0.480   6.641  0.1720 -0.2464 -0.0769
  921MOL0     C24202  10.093   0.586   6.703  0.0002  0.2083  0.2519
  921MOL0     O24203  10.189   0.639   6.791  0.3674 -0.2209 -0.1710
  921MOL0     C24204  10.320   0.604   6.773  1.8098 -0.0317  0.2791
  921MOL0     C24205  10.379   0.558   6.654 -0.1603  0.0988 -0.2977
  921MOL0     C24206  10.521   0.547   6.645  0.2276  0.7323  0.7893
  921MOL0     C24207  10.597   0.551   6.757 -0.5931 -0.5558 -0.0757
  921MOL0     O24208  10.733   0.538   6.762  0.5160  0.3328 -0.0866
  921MOL0     C24209  10.788   0.467   6.656 -0.2871 -0.0388 -0.1436
  921MOL0     C24210  10.935   0.464   6.676  0.2599  0.1361 -0.2713
  921MOL0     C24211  10.989   0.389   6.553 -0.7637 -0.5539 -0.7760
  921MOL0     C24212  11.122   0.324   6.583  0.1968  0.0016  0.7940
  921MOL0     C24213  11.121   0.185   6.643 -1.1586  1.0121  0.0040
  921MOL0     C24214  11.266   0.135   6.667 -0.9382 -0.0807 -0.5501
  921MOL0     C24215  11.264  -0.018   6.710  0.5576 -1.2827 -0.8390
  921MOL0     C24216  11.208  -0.032   6.852  0.0674 -0.4712 -0.2395
  921MOL0     N24217  11.173  -0.180   6.885 -0.0903 -0.0799 -0.2273
  921MOL0     C24218  11.257  -0.280   6.906 -1.1190 -0.4410  0.2914
  921MOL0     C24219  11.182  -0.379   6.952  0.2681  0.2310 -0.1226
  921MOL0     C24220  11.229  -0.515   6.998  0.3677 -0.6452 -0.0166
  921MOL0     C24221  11.240  -0.528   7.154  0.1638 -0.0110  0.5959
  921MOL0     C24222  11.097  -0.509   7.223 -0.2053  0.1317  0.0529
  921MOL0     C24223  11.106  -0.502   7.375  0.1525  0.5111 -0.6774
  921MOL0     O24224  11.132  -0.629   7.439  0.0819  0.7456  0.3804
  921MOL0     C24225  11.258  -0.658   7.479  0.5629 -0.3764  0.1127
  921MOL0     C24226  11.318  -0.775   7.442  0.4409  0.4758 -0.6260
  921MOL0     C24227  11.437  -0.808   7.514  0.5865  0.5442  1.2874
  921MOL0     C24228  11.503  -0.720   7.607  0.0301  0.1656  0.9263
  921MOL0     C24229  11.636  -0.762   7.660 -0.1857 -0.2046  0.2917
  921MOL0     O24230  11.720  -0.662   7.708  0.1424 -0.5886 -0.3440
  921MOL0     C24231  11.844  -0.694   7.748 -0.6162  0.5595 -0.5698
  921MOL0     C24232  11.959  -0.663   7.682 -0.0298 -0.2612  0.6125
  921MOL0     C24233  12.091  -0.700   7.723 -1.2214  0.3250 -0.2817
  921MOL0     C24234  12.113  -0.778   7.836  0.2593  0.4546 -0.3097
  921MOL0     O24235  12.240  -0.815   7.876  0.1248 -0.6280  0.0991
  921MOL0     C24236  12.257  -0.951   7.913 -0.4521  0.4221 -1.2407
  921MOL0     C24237  12.399  -0.988   7.963 -0.1261 -0.3889 -0.4805
  921MOL0     C24238  12.428  -1.136   7.945 -0.2990 -0.2356  0.6061
  921MOL0     C24239  12.575  -1.165   7.972  0.2222  0.1749  0.2444
  921MOL0     C24240  12.613  -1.318   7.950  0.8014 -0.4038 -0.4868
  921MOL0     C24241  12.554  -1.414   8.045  0.3806 -0.3298 -0.4838
  921MOL0     C24242  12.597  -1.561   8.027 -0.3068 -0.2082 -0.2020
  921MOL0     C24243  12.537  -1.656   8.132 -0.1639  0.9536  0.1110
  921MOL0    Cl24244  12.369  -1.704   8.077 -0.1169 -0.0541 -0.3749
  921MOL0     C24245  11.999  -0.818   7.911 -0.2856  0.0227  0.0882
  921MOL0     C24246  11.871  -0.770   7.862 -0.3830 -0.5131 -0.0310
  921MOL0     O24247  11.672  -0.880   7.643 -0.9109 -0.6521 -0.7714
  921MOL0     C24248  11.438  -0.608   7.642 -0.2526 -0.4725 -0.3330
  921MOL0     C24249  11.322  -0.574   7.575 -0.2237 -0.8489 -0.4871
  921MOL0     N24250  11.053  -0.341   6.939 -0.3544  0.1524 -0.1866
  921MOL0     N24251  11.045  -0.221   6.889 -0.9267 -0.1365 -0.2957
  921MOL0     C24252  10.532   0.578   6.884  0.1703 -0.5709  0.0307
  921MOL0     C24253  10.400   0.616   6.886  0.5692 -0.0825  0.1664
  921MOL0     C24254   9.961   0.655   6.702  0.3848  0.2870  0.4578
  921MOL0     C24255   9.953   0.791   6.714 -0.0557 -0.6164 -0.3379
  921MOL0     C24256   9.828   0.863   6.724 -0.9134  0.2455 -0.0770
  921MOL0     C24257   9.707   0.798   6.725  0.2814 -0.3336  0.1485
  921MOL0     O24258   9.585   0.859   6.735 -0.5971 -0.2138 -0.1645
  921MOL0     C24259   9.554   0.897   6.868  0.2005 -0.0365  0.3075
  921MOL0     C24260   9.422   0.971   6.854  0.1294  0.2265  0.3116
  921MOL0     C24261   9.307   0.886   6.808 -0.3265  1.1431  1.0051
  921MOL0     C24262   9.168   0.944   6.831 -0.6066 -0.0988 -0.0794
  921MOL0     C24263   9.064   0.861   6.762 -0.7204  0.1281  0.6550
  921MOL0     C24264   8.985   0.800   6.694 -1.0029  0.2377  0.3181
  921MOL0     C24265   9.718   0.664   6.707  0.2282 -0.2755  0.7112
  921MOL0     C24266   9.839   0.591   6.685  0.4559  0.6337  0.0281
  921MOL0     C24267   9.816   0.439   6.650 -0.2225  0.0770  0.0502
  921MOL0     H24268  10.330   0.546   6.557 -1.0941  1.4166 -0.0277
  921MOL0     H24269  10.558   0.537   6.544 -1.7308 -0.9406  0.1603
  921MOL0     H24270  10.752   0.363   6.656 -1.4270  0.3479 -0.0108
  921MOL0     H24271  10.764   0.525   6.567 -3.2908  0.4760  0.8662
  921MOL0     H24272  10.958   0.411   6.769  1.0485 -0.1299 -0.6166
  921MOL0     H24273  10.961   0.569   6.697 -1.0905  0.3805  0.2947
  921MOL0     H24274  10.997   0.471   6.480 -1.4828  0.7823  0.5898
  921MOL0     H24275  10.908   0.328   6.513 -0.7744 -1.2493  0.2802
  921MOL0     H24276  11.173   0.309   6.487  0.5178 -0.5159  1.0428
  921MOL0     H24277  11.185   0.391   6.642 -0.7378 -0.5023  2.4224
  921MOL0     H24278  11.069   0.178   6.739  0.2231  1.1204  0.7949
  921MOL0     H24279  11.068   0.124   6.569 -0.8856 -0.1285  0.7122
  921MOL0     H24280  11.324   0.148   6.575  2.0135 -2.0891  0.8919
  921MOL0     H24281  11.308   0.197   6.747 -0.7253 -1.4365  0.4210
  921MOL0     H24282  11.367  -0.052   6.720  1.4140  1.1271 -0.7163
  921MOL0     H24283  11.217  -0.066   6.623  0.7817  0.6082 -2.0733
  921MOL0     H24284  11.288   0.006   6.916  1.6073 -2.9674 -0.5393
  921MOL0     H24285  11.118   0.030   6.857  1.2888  1.7948 -3.1323
  921MOL0     H24286  11.365  -0.281   6.895 -0.9383 -0.0790  1.8117
  921MOL0     H24287  11.149  -0.589   6.987 -0.9511  0.1602  2.9721
  921MOL0     H24288  11.323  -0.535   6.945  1.5913  0.6034  1.5843
  921MOL0     H24289  11.289  -0.622   7.182 -1.0476 -0.7445  0.3428
  921MOL0     H24290  11.304  -0.444   7.184 -1.1351  1.0260  0.5602
  921MOL0     H24291  11.036  -0.597   7.204  0.0900 -0.1879  0.5810
  921MOL0     H24292  11.046  -0.419   7.187 -0.4763  0.6290  1.6108
  921MOL0     H24293  11.010  -0.478   7.423 -0.1353 -2.4715  0.4410
  921MOL0     H24294  11.172  -0.418   7.399 -0.6372  0.9398  0.0749
  921MOL0     H24295  11.274  -0.841   7.368  1.3645  1.8072 -2.4391
  921MOL0     H24296  11.496  -0.896   7.488  2.9447  1.5817  2.7777
  921MOL0     H24297  11.938  -0.612   7.589 -0.5297 -1.0223  0.2933
  921MOL0     H24298  12.176  -0.668   7.663 -1.6236 -1.3719 -1.8280
  921MOL0     H24299  12.204  -0.980   8.004  0.0086  0.7175 -0.8723
  921MOL0     H24300  12.226  -1.026   7.840 -0.6898 -1.6979  0.8980
  921MOL0     H24301  12.464  -0.929   7.897 -1.2064  0.9670 -0.3810
  921MOL0     H24302  12.418  -0.957   8.066  1.7112  0.6453 -1.0760
  921MOL0     H24303  12.370  -1.190   8.020  0.7622  1.5059  2.7714
  921MOL0     H24304  12.392  -1.177   7.850  0.0489  0.5519  0.1302
  921MOL0     H24305  12.591  -1.139   8.077 -1.8796 -0.1295  0.6905
  921MOL0     H24306  12.627  -1.094   7.908 -2.0012 -1.1214 -3.3305
  921MOL0     H24307  12.723  -1.320   7.948  0.7957 -1.3312 -2.7091
  921MOL0     H24308  12.571  -1.336   7.851 -1.7192  3.0737 -0.2209
  921MOL0     H24309  12.585  -1.382   8.145 -2.1724 -1.8593  0.9169
  921MOL0     H24310  12.446  -1.410   8.028  0.5035 -3.1791 -2.6338
  921MOL0     H24311  12.706  -1.550   8.033 -0.6429  3.2849  1.4098
  921MOL0     H24312  12.585  -1.613   7.931  2.5879 -0.7417 -0.3712
  921MOL0     H24313  12.599  -1.745   8.130 -0.6764  0.4527 -4.3629
  921MOL0     H24314  12.539  -1.624   8.237  0.9736 -1.4496  0.8758
  921MOL0     H24315  12.008  -0.875   8.003 -0.5020 -1.3419 -0.7098
  921MOL0     H24316  11.783  -0.790   7.923  0.7918 -1.1948  1.4822
  921MOL0     H24317  11.481  -0.538   7.713 -2.3602 -1.7773  2.4247
  921MOL0     H24318  11.268  -0.489   7.615  0.3557  0.3848 -2.2387
  921MOL0     H24319  10.592   0.579   6.974  0.9999 -0.6368 -0.5049
  921MOL0     H24320  10.343   0.663   6.965 -0.6600 -0.7295 -0.3016
  921MOL0     H24321  10.040   0.856   6.718 -1.5218  1.5045 -1.0909
  921MOL0     H24322   9.831   0.968   6.751 -0.2366  0.3201 -0.4104
  921MOL0     H24323   9.625   0.971   6.909  1.4340 -1.8992  1.7130
  921MOL0     H24324   9.554   0.812   6.936  2.4961  0.9509  1.6715
  921MOL0     H24325   9.445   1.052   6.784  1.3319  2.5578  3.1634
  921MOL0     H24326   9.391   1.029   6.942 -1.5436  0.5575 -0.4575
  921MOL0     H24327   9.317   0.790   6.861  2.0146  1.3851  1.1178
  921MOL0     H24328   9.311   0.862   6.702 -2.1104  0.2115  1.1090
  921MOL0     H24329   9.152   0.926   6.938  0.2041 -2.1572 -0.2520
  921MOL0     H24330   9.174   1.047   6.796  0.7619  1.0343  3.0574
  921MOL0     H24331   8.921   0.755   6.622 -0.9992 -0.3768  0.6900
  921MOL0     H24332   9.629   0.602   6.702  1.3966 -1.9584 -1.8649
  921MOL0     H24333   9.862   0.385   6.733  2.1305 -0.1640 -1.2947
  921MOL0     H24334   9.708   0.424   6.641 -0.0237 -2.0358  0.6097
  921MOL0     H24335   9.861   0.416   6.552 -1.5290  0.9940 -0.7828
  922MOL0     O24336   7.316   1.800   8.837  0.0822  0.0606  0.0136
  922MOL0     C24337   7.228   1.723   8.799  0.2712 -0.8788 -0.2886
  922MOL0     O24338   7.245   1.599   8.772  0.3088 -0.5579 -0.6637
  922MOL0     C24339   7.372   1.546   8.751  0.3926 -0.1417  0.3560
  922MOL0     C24340   7.369   1.411   8.766 -0.2954  0.1686 -0.4823
  922MOL0     C24341   7.486   1.335   8.763  0.2092  0.3938 -0.0436
  922MOL0     C24342   7.607   1.404   8.740 -1.4103  0.5505  0.5693
  922MOL0     O24343   7.712   1.324   8.723 -0.9959 -0.5504 -0.0750
  922MOL0     C24344   7.849   1.353   8.768  0.7501 -0.7271  0.2302
  922MOL0     C24345   7.937   1.242   8.726 -0.7611  1.5039  0.0464
  922MOL0     C24346   7.906   1.107   8.791 -0.3205  0.4456  1.2272
  922MOL0     C24347   8.025   1.007   8.777  0.0865 -0.4114  0.0386
  922MOL0     C24348   8.067   0.966   8.629 -1.6710  0.5697 -0.8289
  922MOL0     C24349   8.111   0.817   8.619 -0.0297 -0.2123 -0.2951
  922MOL0     C24350   8.241   0.799   8.691  0.6214 -0.1595 -0.0804
  922MOL0     C24351   8.271   0.645   8.691  0.0539  0.6906  0.8565
  922MOL0     N24352   8.315   0.591   8.565 -0.5769  0.4845  0.1483
  922MOL0     C24353   8.430   0.625   8.501  0.6365  0.6393  0.3649
  922MOL0     C24354   8.425   0.551   8.389 -0.2228  0.8749  0.4001
  922MOL0     C24355   8.530   0.555   8.280  0.2206  0.3679 -0.4116
  922MOL0     C24356   8.542   0.690   8.204 -0.1420  0.6159 -0.2634
  922MOL0     C24357   8.617   0.800   8.280 -0.6934 -1.3883 -0.1774
  922MOL0     C24358   8.745   0.741   8.337  0.3926 -0.2516 -0.2117
  922MOL0     O24359   8.838   0.846   8.364  0.4410  0.7472 -0.3567
  922MOL0     C24360   8.965   0.848   8.304 -0.2956 -0.0273 -0.6030
  922MOL0     C24361   9.016   0.973   8.269 -0.4957  0.0084  0.2123
  922MOL0     C24362   9.148   0.989   8.206 -0.0360  0.4564 -0.9607
  922MOL0     C24363   9.226   0.875   8.182  0.3163  0.6667 -0.5030
  922MOL0     C24364   9.359   0.880   8.127  0.9228 -0.1659  0.3113
  922MOL0     O24365   9.424   0.994   8.153 -0.4641 -0.5386  0.6637
  922MOL0     C24366   9.553   1.007   8.108  0.4772 -0.2405  0.0466
  922MOL0     C24367   9.592   1.033   7.972  0.7137  0.8289 -0.0196
  922MOL0     C24368   9.722   1.039   7.922  0.6229 -0.4726  0.1451
  922MOL0     C24369   9.827   1.019   8.012 -0.1303  0.9406  0.0245
  922MOL0     O24370   9.957   1.010   7.991 -0.6266 -0.3555  0.3441
  922MOL0     C24371  10.001   1.051   7.860  0.1321  0.2207 -0.4097
  922MOL0     C24372  10.150   1.040   7.840  0.1291 -0.6667 -0.0703
  922MOL0     C24373  10.195   0.899   7.876  0.0601  0.4861 -0.6848
  922MOL0     C24374  10.345   0.871   7.850  0.9268 -0.7161  0.1142
  922MOL0     C24375  10.394   0.747   7.919 -0.2357  0.8692 -0.2294
  922MOL0     C24376  10.547   0.733   7.935  0.0520 -0.0131 -0.0519
  922MOL0     C24377  10.587   0.827   8.046  0.5318  0.0300  0.1520
  922MOL0     C24378  10.724   0.782   8.083 -0.4697 -0.0344  0.0088
  922MOL0    Cl24379  10.846   0.773   7.936  0.2331 -0.1081  0.4103
  922MOL0     C24380   9.797   1.024   8.148  0.2968  0.2693  0.1768
  922MOL0     C24381   9.667   1.007   8.189 -0.0263 -1.0591 -0.6567
  922MOL0     O24382   9.409   0.777   8.084  0.1741  0.5063 -0.3152
  922MOL0     C24383   9.167   0.751   8.214  0.4534  0.1476 -0.7562
  922MOL0     C24384   9.045   0.741   8.269  0.7548 -0.1311  1.1349
  922MOL0     N24385   8.300   0.482   8.383 -0.9488 -0.0098 -0.2891
  922MOL0     N24386   8.239   0.511   8.498  0.1964  0.8325  0.4715
  922MOL0     C24387   7.601   1.536   8.714 -1.3551  0.1303  0.2170
  922MOL0     C24388   7.490   1.611   8.724 -0.8242 -0.7504  0.6109
  922MOL0     C24389   7.085   1.766   8.802 -0.2288 -0.0740 -0.4132
  922MOL0     C24390   7.052   1.903   8.801  0.5428  0.2429 -0.3509
  922MOL0     C24391   6.923   1.948   8.799  0.4554  0.1328  0.5675
  922MOL0     C24392   6.822   1.858   8.784  0.9174  0.1005 -0.9188
  922MOL0     O24393   6.695   1.909   8.768 -0.2885  0.5757  0.5377
  922MOL0     C24394   6.579   1.824   8.733 -0.3288  0.2486  0.4766
  922MOL0     C24395   6.460   1.917   8.696  0.5104 -0.1136  0.8363
  922MOL0     C24396   6.393   1.966   8.823 -0.6680  0.3540 -0.0060
  922MOL0     C24397   6.275   2.060   8.791  0.3172 -0.5074  0.3727
  922MOL0     C24398   6.317   2.184   8.719 -0.3720 -0.0331  0.9680
  922MOL0     C24399   6.367   2.276   8.650  0.6206 -0.1642 -0.2323
  922MOL0     C24400   6.858   1.718   8.763  0.4695  0.1096  0.1653
  922MOL0     C24401   6.982   1.670   8.784 -0.4858 -0.4570  0.6312
  922MOL0     C24402   6.996   1.514   8.794  0.1633 -0.6097 -0.1334
  922MOL0     H24403   7.282   1.354   8.798 -0.8191  1.1696 -0.0724
  922MOL0     H24404   7.481   1.227   8.772  2.5074  0.2352  0.0789
  922MOL0     H24405   7.886   1.444   8.720 -2.7618  0.0708 -1.2746
  922MOL0     H24406   7.854   1.360   8.877  1.8729 -3.4101  0.4205
  922MOL0     H24407   8.042   1.259   8.754  0.1525 -2.7279 -0.1972
  922MOL0     H24408   7.935   1.240   8.616 -0.0145  6.1988 -0.2570
  922MOL0     H24409   7.816   1.080   8.735 -0.1883  3.8252 -0.9626
  922MOL0     H24410   7.887   1.118   8.898  1.6722 -1.2784  1.8386
  922MOL0     H24411   8.117   1.046   8.821  1.2397 -1.7506 -1.0848
  922MOL0     H24412   7.995   0.919   8.834 -0.7988 -0.0084  0.2101
  922MOL0     H24413   7.979   0.971   8.565 -0.5997  1.6418 -2.3162
  922MOL0     H24414   8.138   1.038   8.585 -2.3454  2.4826  1.0424
  922MOL0     H24415   8.039   0.742   8.653  3.6549 -4.0588 -0.1727
  922MOL0     H24416   8.128   0.795   8.513  0.9017  1.4848 -0.5424
  922MOL0     H24417   8.237   0.837   8.794  1.0697 -0.4448  0.0465
  922MOL0     H24418   8.313   0.865   8.643 -1.3125  1.6104 -0.6865
  922MOL0     H24419   8.343   0.626   8.771  0.8759 -2.1222 -0.4200
  922MOL0     H24420   8.186   0.585   8.725  1.8267 -1.5333  1.6069
  922MOL0     H24421   8.513   0.675   8.550 -0.3575  1.7606  0.9460
  922MOL0     H24422   8.623   0.521   8.324  0.5117  1.2650 -0.3167
  922MOL0     H24423   8.490   0.481   8.210 -1.3268 -0.4424  1.2496
  922MOL0     H24424   8.589   0.675   8.107  0.4315  0.4778  0.0348
  922MOL0     H24425   8.438   0.722   8.191 -1.3819 -0.7801  4.2600
  922MOL0     H24426   8.557   0.843   8.360 -0.5145  1.8263 -1.6290
  922MOL0     H24427   8.641   0.884   8.214 -0.2567 -1.7591 -0.4969
  922MOL0     H24428   8.788   0.675   8.261 -1.9383 -2.3465  0.1410
  922MOL0     H24429   8.726   0.686   8.430  1.6274  0.2673  0.3584
  922MOL0     H24430   8.967   1.068   8.289 -0.3554 -0.0216  0.7182
  922MOL0     H24431   9.182   1.091   8.195  2.1755  0.0416  1.2640
  922MOL0     H24432   9.506   1.025   7.906  0.6986 -0.1558  0.0924
  922MOL0     H24433   9.736   1.058   7.816  0.5951  0.8029  0.3512
  922MOL0     H24434   9.944   0.993   7.787  1.1458  1.6683 -2.4698
  922MOL0     H24435   9.966   1.150   7.830 -0.2289  0.9846  2.2912
  922MOL0     H24436  10.175   1.065   7.737  5.2757 -0.4016  0.9794
  922MOL0     H24437  10.185   1.121   7.906 -1.9741 -1.0424  1.6246
  922MOL0     H24438  10.179   0.892   7.984 -0.4372 -2.1479 -0.8603
  922MOL0     H24439  10.137   0.822   7.824  1.5856 -2.6048  1.8194
  922MOL0     H24440  10.396   0.957   7.895 -0.3663  0.4281 -0.5532
  922MOL0     H24441  10.370   0.870   7.744  4.4612  1.7903  0.7299
  922MOL0     H24442  10.360   0.662   7.858 -0.3046 -0.4641  1.5773
  922MOL0     H24443  10.345   0.741   8.017 -0.5031 -0.6315 -0.4356
  922MOL0     H24444  10.578   0.629   7.948 -1.2164 -0.3376  0.4724
  922MOL0     H24445  10.588   0.778   7.844 -1.7226  2.6077  0.3338
  922MOL0     H24446  10.519   0.812   8.129  1.0961  0.5030  0.7090
  922MOL0     H24447  10.575   0.930   8.011 -1.4845  0.1148  0.9923
  922MOL0     H24448  10.752   0.840   8.172 -1.6537 -1.7350  1.5650
  922MOL0     H24449  10.712   0.680   8.122  2.4047  0.1918  1.8276
  922MOL0     H24450   9.881   1.037   8.216  0.5086  1.6700 -0.3125
  922MOL0     H24451   9.648   0.991   8.295 -0.0871  2.2114 -0.0923
  922MOL0     H24452   9.219   0.660   8.188  0.4556 -0.0648 -0.0213
  922MOL0     H24453   9.017   0.640   8.298 -5.2871  1.0505  0.6789
  922MOL0     H24454   7.695   1.584   8.688 -1.9196  0.3130 -1.5848
  922MOL0     H24455   7.505   1.718   8.717  0.9143 -0.8728  1.7133
  922MOL0     H24456   7.141   1.962   8.824 -0.2634  0.8847  1.2954
  922MOL0     H24457   6.902   2.054   8.813  2.3887  0.5227  0.8319
  922MOL0     H24458   6.562   1.743   8.804 -1.7203 -1.5110 -1.7305
  922MOL0     H24459   6.626   1.777   8.646  4.0877  0.3942  2.5103
  922MOL0     H24460   6.381   1.875   8.633 -1.3778  2.7858  1.0499
  922MOL0     H24461   6.514   2.003   8.655 -0.2903  0.6030  1.2546
  922MOL0     H24462   6.464   2.016   8.890  0.6346 -1.4341  0.0286
  922MOL0     H24463   6.367   1.872   8.871 -0.3387  0.8601  1.2055
  922MOL0     H24464   6.207   2.004   8.726 -2.0587  0.0941  2.1718
  922MOL0     H24465   6.226   2.084   8.886 -0.9654 -1.6226  0.0327
  922MOL0     H24466   6.388   2.357   8.582  2.0872 -0.3494 -0.0409
  922MOL0     H24467   6.776   1.656   8.729  1.0234  0.1876 -1.3837
  922MOL0     H24468   6.898   1.474   8.821  0.9664 -0.7842  2.7834
  922MOL0     H24469   7.036   1.472   8.701 -1.0769 -2.1678  0.0009
  922MOL0     H24470   7.059   1.486   8.878  0.4621  0.8230  0.1581
  923MOL0     O24471   8.206   2.163   8.282  0.4204  0.2187 -0.3120
  923MOL0     C24472   8.198   2.046   8.277  0.1844  0.1372 -0.2761
  923MOL0     O24473   8.159   1.962   8.381  1.0251  1.0223  0.1684
  923MOL0     C24474   8.135   2.020   8.506  0.2785  0.5912 -0.2420
  923MOL0     C24475   8.208   1.964   8.611 -0.4726 -0.2047 -0.2961
  923MOL0     C24476   8.184   2.010   8.740 -0.0467 -0.1732  0.1554
  923MOL0     C24477   8.092   2.112   8.768 -0.2318  0.2516  0.3124
  923MOL0     O24478   8.079   2.145   8.900  0.1061 -0.4581  0.9063
  923MOL0     C24479   7.996   2.256   8.926  0.0159 -0.1668 -0.0926
  923MOL0     C24480   8.036   2.310   9.064  0.6161  0.6905 -0.6158
  923MOL0     C24481   7.971   2.220   9.172 -0.7952 -0.5558 -0.2174
  923MOL0     C24482   8.040   2.229   9.310  1.2288 -0.1171  0.3004
  923MOL0     C24483   8.157   2.131   9.328  0.6919  0.8848  0.9841
  923MOL0     C24484   8.279   2.146   9.238  0.0217  0.1581  1.1506
  923MOL0     C24485   8.398   2.078   9.299  0.5348 -0.4307  0.9193
  923MOL0     C24486   8.379   1.924   9.302 -0.9553 -0.1499  0.7750
  923MOL0     N24487   8.509   1.858   9.283  0.1771 -0.0548 -0.3167
  923MOL0     C24488   8.587   1.818   9.391 -0.3493  0.3980  0.1458
  923MOL0     C24489   8.692   1.745   9.335 -0.2608 -0.8275 -0.5282
  923MOL0     C24490   8.800   1.677   9.410  0.3466  0.1073  0.2147
  923MOL0     C24491   8.904   1.630   9.316 -0.7732 -0.5117  0.1659
  923MOL0     C24492   8.999   1.745   9.275 -0.2213 -0.4865  0.0573
  923MOL0     C24493   9.056   1.836   9.388  0.0653  0.9322 -0.8884
  923MOL0     O24494   9.153   1.929   9.366 -0.4574 -0.3594 -0.1338
  923MOL0     C24495   9.283   1.904   9.313  1.4760 -0.4214 -0.4797
  923MOL0     C24496   9.335   1.777   9.302 -0.7779 -0.9440 -0.1307
  923MOL0     C24497   9.471   1.758   9.265  0.5546  0.4001 -0.2724
  923MOL0     C24498   9.544   1.862   9.212  0.2548 -0.3801  0.0675
  923MOL0     C24499   9.696   1.846   9.188  0.0949  0.7795  0.1419
  923MOL0     O24500   9.733   1.715   9.183 -0.4306  0.6628  0.5130
  923MOL0     C24501   9.850   1.664   9.119  0.1570 -0.5793  0.2530
  923MOL0     C24502   9.892   1.541   9.159  0.5052  0.1976 -0.9834
  923MOL0     C24503  10.006   1.488   9.106  0.5708 -0.4738 -0.0067
  923MOL0     C24504  10.081   1.552   9.011 -0.2859 -0.2538  0.6929
  923MOL0     O24505  10.198   1.489   8.978 -0.3684 -0.3229  0.3605
  923MOL0     C24506  10.311   1.570   8.945 -0.3664  0.2513  0.7801
  923MOL0     C24507  10.434   1.487   8.958 -0.5801  0.5254 -0.2447
  923MOL0     C24508  10.568   1.560   8.953  0.6924 -0.4360  0.1936
  923MOL0     C24509  10.591   1.634   8.813 -0.2411 -0.3870  0.3818
  923MOL0     C24510  10.735   1.639   8.772 -0.0637  0.0061  0.7219
  923MOL0     C24511  10.754   1.568   8.634  0.3537 -0.2078 -0.4877
  923MOL0     C24512  10.902   1.536   8.621 -0.2710  0.3709  0.6320
  923MOL0     C24513  10.935   1.502   8.479  0.3996  0.5879  0.1905
  923MOL0    Cl24514  11.108   1.483   8.457  0.4663  0.3063  0.0707
  923MOL0     C24515  10.039   1.678   8.967 -0.7829  0.2930  1.1641
  923MOL0     C24516   9.924   1.731   9.017 -0.0182  0.5505 -0.6762
  923MOL0     O24517   9.755   1.938   9.137 -0.8140 -0.1252 -0.3265
  923MOL0     C24518   9.486   1.994   9.213 -0.2569  0.8277  0.2877
  923MOL0     C24519   9.355   2.014   9.266 -0.2719 -0.5127  0.2895
  923MOL0     N24520   8.685   1.752   9.196  0.0880 -0.6546 -0.1577
  923MOL0     N24521   8.572   1.824   9.170 -0.2288  0.2720  0.1123
  923MOL0     C24522   8.012   2.162   8.661 -0.6279  0.5613 -0.1452
  923MOL0     C24523   8.030   2.109   8.532  0.2380  0.1382  0.0844
  923MOL0     C24524   8.229   1.970   8.151  0.7999  0.0219 -0.5008
  923MOL0     C24525   8.231   2.051   8.040  0.5826 -0.3868  0.6080
  923MOL0     C24526   8.252   2.006   7.912 -0.6443  0.1496  0.0799
  923MOL0     C24527   8.283   1.871   7.883 -0.0386 -0.1426 -0.5523
  923MOL0     O24528   8.315   1.830   7.751  0.4228 -0.1214  0.3860
  923MOL0     C24529   8.268   1.698   7.719  0.9183  0.7834  0.3312
  923MOL0     C24530   8.199   1.678   7.584  0.3128 -0.5184  1.1709
  923MOL0     C24531   8.091   1.774   7.542 -0.1570 -0.1490 -0.2090
  923MOL0     C24532   7.958   1.739   7.610  0.4089 -0.0316 -0.2213
  923MOL0     C24533   7.846   1.808   7.550 -0.1777  0.1515 -0.1575
  923MOL0     C24534   7.754   1.870   7.509  0.7348  0.7901 -0.2864
  923MOL0     C24535   8.288   1.791   7.999 -0.2414 -0.4626  0.1432
  923MOL0     C24536   8.264   1.832   8.134  0.6537 -0.6710 -0.0358
  923MOL0     C24537   8.267   1.713   8.229 -0.6805  0.2907  0.1414
  923MOL0     H24538   8.270   1.876   8.599  0.0470  0.1337 -0.1335
  923MOL0     H24539   8.248   1.963   8.814  3.3326 -0.0267 -2.4646
  923MOL0     H24540   8.013   2.342   8.861 -3.4239  1.3261  0.7382
  923MOL0     H24541   7.891   2.228   8.922 -0.3010  0.9715 -0.2327
  923MOL0     H24542   7.990   2.409   9.067 -2.8467 -0.7420  3.2123
  923MOL0     H24543   8.145   2.321   9.070  0.6313  0.0251  0.8054
  923MOL0     H24544   7.962   2.116   9.138 -2.2862 -0.0285 -1.5893
  923MOL0     H24545   7.869   2.261   9.173 -0.3480  0.6934 -1.5942
  923MOL0     H24546   8.073   2.332   9.326  0.7763  0.2589 -1.0257
  923MOL0     H24547   7.968   2.194   9.384 -0.5725 -3.6847 -2.8502
  923MOL0     H24548   8.187   2.121   9.433 -1.2920 -0.7947  1.4594
  923MOL0     H24549   8.117   2.030   9.312  2.6954  0.3282 -1.0356
  923MOL0     H24550   8.259   2.105   9.139 -0.5880  2.2322  0.3616
  923MOL0     H24551   8.302   2.249   9.214  2.5777 -0.6708 -0.2302
  923MOL0     H24552   8.412   2.122   9.399  1.2417  1.2334  0.1299
  923MOL0     H24553   8.484   2.094   9.234 -1.9520  3.7371 -1.8358
  923MOL0     H24554   8.315   1.881   9.380 -2.3462 -2.5440 -1.5440
  923MOL0     H24555   8.317   1.898   9.216 -0.7134 -1.2428  0.9111
  923MOL0     H24556   8.563   1.832   9.496 -0.4029  0.3244  0.1440
  923MOL0     H24557   8.842   1.727   9.497  0.3267  1.2660 -0.4301
  923MOL0     H24558   8.762   1.592   9.467 -2.2807  1.6845  0.9774
  923MOL0     H24559   8.961   1.560   9.376 -0.6012 -0.7568 -0.2802
  923MOL0     H24560   8.851   1.573   9.239 -0.8059  0.3708 -0.4798
  923MOL0     H24561   8.948   1.810   9.203 -1.1048 -0.0820  1.0224
  923MOL0     H24562   9.083   1.697   9.224 -1.5371 -1.4640 -1.2810
  923MOL0     H24563   9.096   1.778   9.471 -0.5925 -0.9630 -1.8377
  923MOL0     H24564   8.976   1.893   9.436 -1.2526 -0.3154 -1.5411
  923MOL0     H24565   9.280   1.691   9.338 -0.1478 -0.6651  1.6151
  923MOL0     H24566   9.516   1.660   9.279 -2.3516 -0.7080  2.3732
  923MOL0     H24567   9.843   1.503   9.248 -2.3337  5.8718  0.3522
  923MOL0     H24568  10.045   1.392   9.140  2.4128  0.2694  0.0726
  923MOL0     H24569  10.319   1.619   8.848  1.4108  0.1220  0.8193
  923MOL0     H24570  10.318   1.646   9.023  0.1900 -0.0949  1.0786
  923MOL0     H24571  10.427   1.432   9.053 -1.0648 -0.6160 -0.9217
  923MOL0     H24572  10.434   1.409   8.881 -1.0190 -0.2144  0.4854
  923MOL0     H24573  10.567   1.639   9.028  2.1328  0.4296 -0.6406
  923MOL0     H24574  10.643   1.481   8.965  0.3748 -0.9130 -0.7911
  923MOL0     H24575  10.559   1.738   8.816  1.8973  0.3247  0.0908
  923MOL0     H24576  10.541   1.573   8.737 -0.5678 -0.7282  0.8634
  923MOL0     H24577  10.799   1.584   8.842 -0.2920 -2.6545 -1.0032
  923MOL0     H24578  10.769   1.743   8.773  1.2228 -0.3876  0.1208
  923MOL0     H24579  10.702   1.472   8.636 -0.5608  0.2990  1.0820
  923MOL0     H24580  10.708   1.635   8.561 -0.4472  2.6105  2.3895
  923MOL0     H24581  10.920   1.451   8.687  2.0858  0.9882  0.8674
  923MOL0     H24582  10.960   1.622   8.654  1.4449 -1.4723  2.7340
  923MOL0     H24583  10.889   1.407   8.448  1.1423  0.6308 -1.1450
  923MOL0     H24584  10.899   1.578   8.409  1.9202  0.0373 -1.2822
  923MOL0     H24585  10.106   1.731   8.900  1.3095 -1.5521  1.6773
  923MOL0     H24586   9.896   1.828   8.978  0.7608  1.4828  0.9654
  923MOL0     H24587   9.545   2.079   9.181  0.7089  0.8398  1.9929
  923MOL0     H24588   9.316   2.114   9.275  0.7349 -0.1189  0.3907
  923MOL0     H24589   7.943   2.246   8.669  0.9159  1.7555  2.2557
  923MOL0     H24590   7.981   2.148   8.444  1.9510  2.9961  0.2396
  923MOL0     H24591   8.221   2.158   8.049 -2.4133 -0.7547  3.0192
  923MOL0     H24592   8.244   2.058   7.817  1.5433 -0.2683 -0.3982
  923MOL0     H24593   8.208   1.650   7.796 -0.2312  0.9823 -0.4161
  923MOL0     H24594   8.360   1.640   7.715  1.2341  1.3102 -2.3705
  923MOL0     H24595   8.162   1.575   7.593  0.3581 -0.4411  2.3000
  923MOL0     H24596   8.276   1.685   7.506  0.1956  0.8500  1.1654
  923MOL0     H24597   8.084   1.765   7.433 -1.8218 -1.7805 -0.0145
  923MOL0     H24598   8.110   1.881   7.558  0.7754  0.0936 -2.4914
  923MOL0     H24599   7.932   1.634   7.594 -1.0822 -0.3513  3.4571
  923MOL0     H24600   7.951   1.755   7.718  1.8569 -0.3106 -0.0548
  923MOL0     H24601   7.673   1.935   7.483 -1.8377 -2.8029 -2.0789
  923MOL0     H24602   8.310   1.686   7.985 -1.2740 -0.5570 -0.9641
  923MOL0     H24603   8.310   1.618   8.196 -0.2925  0.4330  0.2274
  923MOL0     H24604   8.325   1.748   8.315 -1.2195  0.1042  0.5847
  923MOL0     H24605   8.163   1.701   8.262 -0.5613 -2.5261 -0.2910
  924MOL0     O24606   2.893   8.393   9.776 -0.5569 -0.3418 -0.1574
  924MOL0     C24607   2.933   8.275   9.779 -0.3233 -0.0890  0.0790
  924MOL0     O24608   3.000   8.219   9.674 -0.1271 -0.8946 -0.0753
  924MOL0     C24609   3.054   8.293   9.573  0.6027 -0.0553  0.4448
  924MOL0     C24610   2.993   8.293   9.449  0.7842 -0.1475  0.8958
  924MOL0     C24611   3.046   8.373   9.348  0.1915  1.0270 -0.1559
  924MOL0     C24612   3.164   8.441   9.360  0.3275  0.3091  0.0216
  924MOL0     O24613   3.190   8.522   9.251 -0.1236  0.3033 -0.1784
  924MOL0     C24614   3.312   8.599   9.247 -0.1601 -0.5083  0.4875
  924MOL0     C24615   3.318   8.655   9.112 -1.4523  0.1462  0.1381
  924MOL0     C24616   3.453   8.739   9.075  0.1027 -0.2904  0.1683
  924MOL0     C24617   3.571   8.653   9.040  0.4455  0.4000  0.8328
  924MOL0     C24618   3.669   8.714   8.937 -0.2651 -0.2145  0.0961
  924MOL0     C24619   3.785   8.612   8.896 -0.1786 -0.2087 -0.4024
  924MOL0     C24620   3.895   8.669   8.802  0.0428 -0.0490 -0.3634
  924MOL0     C24621   3.993   8.554   8.753  0.7025 -0.0136  0.2750
  924MOL0     N24622   4.108   8.621   8.695 -0.0819 -0.3809 -0.8750
  924MOL0     C24623   4.125   8.657   8.563  0.1404 -0.2419 -0.3148
  924MOL0     C24624   4.219   8.753   8.573 -0.2855  0.2227  0.9931
  924MOL0     C24625   4.277   8.842   8.465 -1.1304 -0.2243 -0.1797
  924MOL0     C24626   4.417   8.801   8.428  0.4123  0.2049 -0.7629
  924MOL0     C24627   4.420   8.662   8.370  0.4871  0.8077 -0.1343
  924MOL0     C24628   4.559   8.626   8.328 -0.8769 -0.1264 -0.2171
  924MOL0     O24629   4.650   8.616   8.440  0.4060  1.3538  0.0142
  924MOL0     C24630   4.784   8.592   8.407  0.3375 -0.2499 -0.2331
  924MOL0     C24631   4.821   8.505   8.291  0.1394 -0.4838 -0.4853
  924MOL0     C24632   4.953   8.453   8.276  0.6773  0.8074  0.1453
  924MOL0     C24633   5.046   8.478   8.368 -0.8134 -0.6034  0.2643
  924MOL0     C24634   5.189   8.431   8.347  0.1775 -0.4986 -0.4801
  924MOL0     O24635   5.269   8.466   8.445  0.6143  0.0809  0.2229
  924MOL0     C24636   5.402   8.429   8.444 -0.2201  0.1383 -0.0230
  924MOL0     C24637   5.498   8.521   8.484 -0.0104  0.3978  0.1171
  924MOL0     C24638   5.633   8.486   8.492 -0.6069  0.2668 -0.5988
  924MOL0     C24639   5.673   8.360   8.457  0.1029 -0.6876 -0.7583
  924MOL0     O24640   5.805   8.329   8.491 -1.2445 -0.3006  0.2295
  924MOL0     C24641   5.895   8.275   8.395 -1.3498 -0.0555  0.9152
  924MOL0     C24642   6.034   8.346   8.407 -0.4016  0.2100  0.3778
  924MOL0     C24643   6.112   8.312   8.532 -0.5676 -0.1817  0.0063
  924MOL0     C24644   6.254   8.369   8.531  0.2507  0.1098  0.0085
  924MOL0     C24645   6.328   8.334   8.666 -0.5806 -0.0764  0.4215
  924MOL0     C24646   6.462   8.421   8.677 -0.0010 -0.6065  0.3220
  924MOL0     C24647   6.567   8.386   8.582  0.1257 -0.7310 -0.4892
  924MOL0     C24648   6.678   8.481   8.575 -0.7384 -0.0776 -0.2027
  924MOL0    Cl24649   6.754   8.480   8.742  0.3171 -0.1516 -0.4950
  924MOL0     C24650   5.583   8.264   8.404  0.5732 -0.1787  0.2425
  924MOL0     C24651   5.448   8.306   8.402 -0.9662 -0.1756 -0.1891
  924MOL0     O24652   5.220   8.392   8.236  0.3748 -0.1946  0.5492
  924MOL0     C24653   5.010   8.547   8.482  0.0555 -0.5275  0.4609
  924MOL0     C24654   4.885   8.605   8.507  0.1901 -0.3860  0.7116
  924MOL0     N24655   4.251   8.778   8.699 -1.2156 -0.4764  0.2573
  924MOL0     N24656   4.184   8.700   8.768 -0.3878  0.9750  0.2579
  924MOL0     C24657   3.229   8.436   9.485 -0.2386 -0.6106 -0.4487
  924MOL0     C24658   3.178   8.346   9.587 -0.0778  0.8393 -0.3777
  924MOL0     C24659   2.907   8.188   9.893  0.2470  0.1094 -0.7210
  924MOL0     C24660   2.816   8.239   9.998 -0.0203  0.5917  0.5017
  924MOL0     C24661   2.782   8.164  10.105  0.1358  0.0050  0.2044
  924MOL0     C24662   2.826   8.035  10.118  0.4542  0.4703 -0.6613
  924MOL0     O24663   2.784   7.959  10.228 -0.6128 -0.3802  0.1204
  924MOL0     C24664   2.640   7.950  10.231 -0.5251 -0.1489  0.1853
  924MOL0     C24665   2.591   7.851  10.326 -0.3521  0.1930  0.4530
  924MOL0     C24666   2.438   7.854  10.353  0.4252 -0.1654 -0.3863
  924MOL0     C24667   2.393   7.738  10.439  0.4298  0.7510  0.0257
  924MOL0     C24668   2.465   7.737  10.563 -1.2824  0.0496  0.3510
  924MOL0     C24669   2.512   7.743  10.675  0.8475 -0.2129  0.5551
  924MOL0     C24670   2.919   7.987  10.025  0.3591  0.1313 -0.1390
  924MOL0     C24671   2.953   8.054   9.908  0.7393  0.0683 -1.1981
  924MOL0     C24672   3.057   7.982   9.821  0.4530  0.2431 -0.3861
  924MOL0     H24673   2.898   8.248   9.421 -1.7247  4.9677  0.0699
  924MOL0     H24674   2.990   8.376   9.255 -1.6258 -2.6678  0.6152
  924MOL0     H24675   3.309   8.681   9.319  1.1824  0.1331 -0.1516
  924MOL0     H24676   3.402   8.540   9.267 -0.3658 -0.6894  0.8895
  924MOL0     H24677   3.239   8.730   9.103 -1.7709 -0.3027 -0.9758
  924MOL0     H24678   3.300   8.569   9.048 -2.2453  0.1461  0.3530
  924MOL0     H24679   3.472   8.801   9.163 -1.0236  0.7387 -0.2873
  924MOL0     H24680   3.418   8.807   8.996  0.0770 -3.4826 -2.7885
  924MOL0     H24681   3.621   8.614   9.129  0.5811 -1.4077  0.0118
  924MOL0     H24682   3.526   8.570   8.986  1.0163  1.8426 -2.0904
  924MOL0     H24683   3.621   8.735   8.841  0.5350 -0.7153 -0.4232
  924MOL0     H24684   3.725   8.798   8.980  1.8229  0.1608 -3.0333
  924MOL0     H24685   3.828   8.582   8.992  1.8928 -1.5034 -1.6692
  924MOL0     H24686   3.744   8.520   8.853  0.6875 -0.8202  0.0562
  924MOL0     H24687   3.943   8.750   8.857  0.9522  0.8816 -2.4156
  924MOL0     H24688   3.851   8.723   8.717  1.6806  0.6136 -0.8451
  924MOL0     H24689   4.021   8.489   8.836 -0.0449 -2.8203 -1.5235
  924MOL0     H24690   3.949   8.478   8.687  0.7602 -0.2369  0.4927
  924MOL0     H24691   4.067   8.614   8.482  1.2488  1.5395 -2.1302
  924MOL0     H24692   4.217   8.844   8.373  0.6161  0.1201 -1.3696
  924MOL0     H24693   4.268   8.947   8.492 -0.7630 -0.4002  0.6633
  924MOL0     H24694   4.454   8.864   8.346 -0.1193 -0.2881 -1.3939
  924MOL0     H24695   4.483   8.823   8.512 -1.2609  2.0079  0.1411
  924MOL0     H24696   4.347   8.659   8.289  0.5977  1.0332 -0.2424
  924MOL0     H24697   4.380   8.588   8.440 -2.5029  1.9618 -0.4960
  924MOL0     H24698   4.595   8.696   8.252  0.1643  1.2327  1.4415
  924MOL0     H24699   4.553   8.536   8.266  0.7662  0.6917 -1.6647
  924MOL0     H24700   4.747   8.488   8.213 -0.4664 -1.0343  0.2033
  924MOL0     H24701   4.989   8.390   8.195  2.5279 -0.3284  1.7632
  924MOL0     H24702   5.477   8.618   8.529  1.8577 -0.5412  3.3239
  924MOL0     H24703   5.705   8.559   8.527 -0.8285  0.5701 -0.7667
  924MOL0     H24704   5.902   8.167   8.409 -0.3893 -0.3951 -1.6102
  924MOL0     H24705   5.850   8.297   8.297  0.3918  2.0392  0.5157
  924MOL0     H24706   6.098   8.304   8.329 -2.6569 -2.3635 -0.2343
  924MOL0     H24707   6.031   8.455   8.400 -0.3427  0.1707 -0.2764
  924MOL0     H24708   6.079   8.360   8.625  0.1336  0.2941  0.0159
  924MOL0     H24709   6.116   8.206   8.558  1.3689 -0.0559  0.3678
  924MOL0     H24710   6.245   8.478   8.527  0.3249  0.1992  1.6278
  924MOL0     H24711   6.309   8.331   8.444 -1.0985  1.8233 -1.6941
  924MOL0     H24712   6.364   8.231   8.675  2.1479  0.7979  0.3915
  924MOL0     H24713   6.266   8.353   8.754  0.3039  4.2414  0.3428
  924MOL0     H24714   6.444   8.527   8.660  3.3067 -0.4768 -3.8276
  924MOL0     H24715   6.492   8.405   8.781  3.6318  1.5020 -0.2556
  924MOL0     H24716   6.524   8.374   8.482 -0.6109 -0.4834 -0.2030
  924MOL0     H24717   6.604   8.286   8.608  2.7226  0.9697  3.1860
  924MOL0     H24718   6.757   8.455   8.503 -0.6241 -1.7384  0.4796
  924MOL0     H24719   6.639   8.578   8.545  0.2232 -0.0855 -1.5985
  924MOL0     H24720   5.616   8.166   8.369  1.4440  0.3792 -0.5423
  924MOL0     H24721   5.385   8.229   8.359 -0.1750 -0.3690 -1.0358
  924MOL0     H24722   5.085   8.561   8.560  0.3081 -1.3045  0.3689
  924MOL0     H24723   4.856   8.669   8.590 -1.6929 -1.0607  0.6005
  924MOL0     H24724   3.319   8.496   9.496 -1.0598  0.8012 -1.0267
  924MOL0     H24725   3.238   8.324   9.674 -1.0760 -2.8103 -0.4402
  924MOL0     H24726   2.779   8.340   9.988  1.2997  1.2209  1.6358
  924MOL0     H24727   2.724   8.199  10.190  2.1608  0.5333  1.4356
  924MOL0     H24728   2.590   7.926  10.137 -3.3194  1.3224  1.1861
  924MOL0     H24729   2.601   8.045  10.270 -1.5680  0.3386 -1.9300
  924MOL0     H24730   2.641   7.870  10.422 -2.1230 -2.7628  2.0791
  924MOL0     H24731   2.626   7.753  10.294 -1.6113  0.1929 -1.0115
  924MOL0     H24732   2.367   7.854  10.270  0.8266  0.1158 -0.7307
  924MOL0     H24733   2.413   7.949  10.403 -0.1695 -1.7679  2.5989
  924MOL0     H24734   2.284   7.736  10.454  0.4443 -0.5399  0.0858
  924MOL0     H24735   2.420   7.652  10.377  1.1881 -0.2548  1.6610
  924MOL0     H24736   2.556   7.756  10.772 -2.1242  0.0441  1.9867
  924MOL0     H24737   2.955   7.884  10.027 -3.6938 -1.5066 -1.6467
  924MOL0     H24738   3.104   7.910   9.889 -0.0020  0.3071  0.0086
  924MOL0     H24739   3.020   7.929   9.734 -1.6141 -0.9775  1.1359
  924MOL0     H24740   3.136   8.055   9.800  1.0883  1.0167  3.8048
  925MOL0     O24741   6.893   8.270   7.026  0.1468  0.3860  0.4050
  925MOL0     C24742   6.808   8.322   7.101 -0.5715  0.4262  0.2907
  925MOL0     O24743   6.836   8.351   7.240  0.0440  0.2772 -0.4372
  925MOL0     C24744   6.954   8.307   7.286 -1.0032 -0.0274  1.1775
  925MOL0     C24745   7.022   8.186   7.262 -0.3488  0.3126  0.6800
  925MOL0     C24746   7.137   8.158   7.340 -0.5897 -0.8128 -0.7881
  925MOL0     C24747   7.192   8.248   7.433  0.0815 -0.6651  0.0431
  925MOL0     O24748   7.305   8.209   7.505  0.1142 -0.1338  0.5202
  925MOL0     C24749   7.414   8.300   7.480 -0.5409  0.5971  0.0680
  925MOL0     C24750   7.543   8.246   7.545  0.0861 -0.4155 -0.4478
  925MOL0     C24751   7.660   8.354   7.542 -0.3999  0.5609  0.2661
  925MOL0     C24752   7.684   8.417   7.410 -0.4389 -1.3323  0.2947
  925MOL0     C24753   7.810   8.508   7.409  0.1127 -0.7459 -0.0785
  925MOL0     C24754   7.941   8.446   7.454  0.2345 -0.0983  0.3245
  925MOL0     C24755   8.059   8.541   7.429  0.4539  1.0466  0.2252
  925MOL0     C24756   8.192   8.484   7.482  0.3877 -0.1221 -0.5570
  925MOL0     N24757   8.297   8.584   7.466  0.7709 -1.0069 -1.0113
  925MOL0     C24758   8.282   8.723   7.478 -0.3186  0.0767  0.3163
  925MOL0     C24759   8.391   8.764   7.409 -0.6375 -0.2181 -0.1163
  925MOL0     C24760   8.429   8.908   7.397  0.2945 -0.4407  1.1184
  925MOL0     C24761   8.493   8.957   7.516 -0.8339 -0.0716  0.4900
  925MOL0     C24762   8.629   8.915   7.530  0.5190  0.3207 -0.4651
  925MOL0     C24763   8.695   8.963   7.656  0.4188 -0.4832 -0.3175
  925MOL0     O24764   8.836   8.929   7.657  0.9274  0.2590  1.0020
  925MOL0     C24765   8.910   8.931   7.771 -0.2347 -0.3698  0.2406
  925MOL0     C24766   8.871   8.989   7.890  0.3401 -0.8263  0.1553
  925MOL0     C24767   8.949   8.988   7.999 -0.0977 -0.3068 -0.5068
  925MOL0     C24768   9.078   8.933   7.995  0.2016 -1.0361  0.4126
  925MOL0     C24769   9.161   8.910   8.114 -1.3766  0.2154 -0.8614
  925MOL0     O24770   9.282   8.847   8.090 -0.7646  0.0795  0.2984
  925MOL0     C24771   9.354   8.775   8.187  0.2001 -1.0150 -0.1225
  925MOL0     C24772   9.326   8.647   8.207  0.5455  0.2185  0.1490
  925MOL0     C24773   9.394   8.574   8.300  0.2744  0.2605  0.2362
  925MOL0     C24774   9.490   8.634   8.381  0.3658 -0.5998 -0.2902
  925MOL0     O24775   9.531   8.564   8.488  0.5357 -0.3126 -0.2474
  925MOL0     C24776   9.628   8.620   8.575  1.1228  0.6631 -0.1583
  925MOL0     C24777   9.666   8.500   8.665 -1.6380  0.2670  0.0917
  925MOL0     C24778   9.814   8.527   8.715  0.0017 -0.2569  0.3929
  925MOL0     C24779   9.812   8.537   8.868  0.2547 -1.4843 -0.7984
  925MOL0     C24780   9.933   8.600   8.930 -0.2720  1.1076 -0.6148
  925MOL0     C24781   9.940   8.570   9.078  0.2269 -0.5491  0.2089
  925MOL0     C24782  10.047   8.652   9.150 -0.1100  0.1216  0.9287
  925MOL0     C24783  10.109   8.577   9.279 -0.1053 -1.2030  0.4423
  925MOL0    Cl24784  10.201   8.426   9.242 -0.3826 -0.3904  0.0098
  925MOL0     C24785   9.524   8.768   8.356  0.4677  0.9859  0.0427
  925MOL0     C24786   9.451   8.841   8.263 -0.2070 -0.8068 -0.3684
  925MOL0     O24787   9.121   8.934   8.228  0.2504  0.3290 -0.1374
  925MOL0     C24788   9.126   8.879   7.875 -0.4971  0.7418  0.1027
  925MOL0     C24789   9.046   8.885   7.758 -0.3325  0.5878 -0.9192
  925MOL0     N24790   8.478   8.662   7.380  0.2096  0.6722  0.3897
  925MOL0     N24791   8.417   8.553   7.408 -0.0724 -0.4647 -0.7888
  925MOL0     C24792   7.126   8.367   7.454 -1.0325  0.0325 -0.3037
  925MOL0     C24793   7.007   8.392   7.383 -0.8142  0.3041  0.0344
  925MOL0     C24794   6.664   8.319   7.060 -1.1616  0.1402 -0.4581
  925MOL0     C24795   6.574   8.268   7.150  0.8821  0.6458  0.4007
  925MOL0     C24796   6.440   8.239   7.116  0.0275  0.0229 -0.3060
  925MOL0     C24797   6.388   8.294   6.996  0.0653  0.0738  0.8715
  925MOL0     O24798   6.253   8.270   6.975  0.4255  0.4971  0.3386
  925MOL0     C24799   6.191   8.319   6.851  0.1539  0.7090  0.3866
  925MOL0     C24800   6.062   8.257   6.818  0.5537 -0.5445  0.7987
  925MOL0     C24801   6.007   8.306   6.689  0.0072  0.9516 -0.3207
  925MOL0     C24802   5.915   8.209   6.615  0.1187  0.2908 -0.3116
  925MOL0     C24803   5.785   8.213   6.681 -0.6837 -0.3604  0.3838
  925MOL0     C24804   5.674   8.203   6.725 -0.0230 -0.5299 -0.4379
  925MOL0     C24805   6.475   8.354   6.905  0.2024  0.3021  0.1119
  925MOL0     C24806   6.610   8.365   6.934  0.0721  0.1519  0.5289
  925MOL0     C24807   6.699   8.428   6.829 -0.4125  0.1081  0.1810
  925MOL0     H24808   6.979   8.106   7.203  0.2540  1.0875 -0.8463
  925MOL0     H24809   7.181   8.059   7.338 -0.8587 -0.9373 -2.5618
  925MOL0     H24810   7.435   8.301   7.373 -1.8519  5.9828 -0.4397
  925MOL0     H24811   7.386   8.402   7.509  0.3558  1.0231 -0.5174
  925MOL0     H24812   7.564   8.151   7.493  1.9028 -0.2330 -0.1188
  925MOL0     H24813   7.521   8.217   7.648  0.5586 -1.0426 -0.5129
  925MOL0     H24814   7.743   8.302   7.590 -3.2203 -4.5775  0.4245
  925MOL0     H24815   7.635   8.432   7.614 -1.2379  0.0451  0.5547
  925MOL0     H24816   7.705   8.339   7.337  3.3816 -0.7542  0.5944
  925MOL0     H24817   7.597   8.473   7.375  0.4109 -0.7452 -0.9582
  925MOL0     H24818   7.832   8.566   7.319  0.4225 -0.7872 -0.0330
  925MOL0     H24819   7.781   8.588   7.477 -0.3574 -0.0257 -1.1065
  925MOL0     H24820   7.923   8.447   7.562  0.2172 -1.5743  0.3572
  925MOL0     H24821   7.958   8.341   7.428 -0.7445 -0.7355  2.0276
  925MOL0     H24822   8.043   8.635   7.482 -0.3946  1.7811 -1.2732
  925MOL0     H24823   8.061   8.550   7.320 -3.5832 -1.8143 -0.3136
  925MOL0     H24824   8.184   8.457   7.588  0.6781  2.6499  0.2479
  925MOL0     H24825   8.221   8.396   7.423 -1.6464  0.1839 -2.1139
  925MOL0     H24826   8.205   8.779   7.529  0.4138  0.1371  1.3724
  925MOL0     H24827   8.494   8.924   7.311 -3.1121  0.4521 -1.5342
  925MOL0     H24828   8.341   8.968   7.373  1.8937  1.6261  0.1010
  925MOL0     H24829   8.499   9.066   7.518 -2.6605  0.0599  1.0694
  925MOL0     H24830   8.442   8.923   7.606  2.0703 -3.5349  1.0403
  925MOL0     H24831   8.685   8.954   7.445  2.1032 -1.5572 -0.3757
  925MOL0     H24832   8.631   8.806   7.535  0.0345  0.3154 -0.3544
  925MOL0     H24833   8.642   8.932   7.747 -1.3410  2.2807 -0.2833
  925MOL0     H24834   8.677   9.069   7.673  1.9527 -0.4872  1.6994
  925MOL0     H24835   8.775   9.039   7.903 -1.2918 -3.6575 -0.1834
  925MOL0     H24836   8.920   9.037   8.091 -0.9700 -0.6724 -0.5816
  925MOL0     H24837   9.254   8.598   8.142  0.5912 -1.6561  1.4462
  925MOL0     H24838   9.374   8.469   8.317  0.5858  0.4226  1.7829
  925MOL0     H24839   9.716   8.656   8.520  1.3753 -1.8500 -1.5554
  925MOL0     H24840   9.583   8.694   8.642 -2.3793 -1.7354  0.4156
  925MOL0     H24841   9.605   8.481   8.754 -2.5897  3.2790  0.2141
  925MOL0     H24842   9.665   8.416   8.595 -2.9277  1.4251 -1.3756
  925MOL0     H24843   9.889   8.450   8.692 -0.5080 -1.3947  2.3040
  925MOL0     H24844   9.855   8.621   8.678  1.2140 -1.4334 -1.4478
  925MOL0     H24845   9.796   8.433   8.899 -4.0259 -1.3412 -1.9273
  925MOL0     H24846   9.736   8.602   8.912  4.7635  2.2577  2.4494
  925MOL0     H24847   9.927   8.709   8.921 -1.1729  1.2170  0.8817
  925MOL0     H24848  10.028   8.583   8.879 -0.5209 -0.3242 -0.6326
  925MOL0     H24849   9.838   8.584   9.115 -0.4784 -0.5857 -1.6099
  925MOL0     H24850   9.962   8.464   9.094 -0.4492 -0.6635  0.3933
  925MOL0     H24851  10.013   8.754   9.166  0.6129  0.4475  0.4872
  925MOL0     H24852  10.130   8.679   9.084 -0.9000  1.4872  0.4583
  925MOL0     H24853  10.186   8.634   9.333 -0.5589 -2.5534  2.6414
  925MOL0     H24854  10.034   8.554   9.355  0.0016 -2.4726  0.1869
  925MOL0     H24855   9.588   8.825   8.423 -3.0591  0.4772  4.3598
  925MOL0     H24856   9.467   8.946   8.243  0.2460 -1.0086 -1.1056
  925MOL0     H24857   9.224   8.839   7.854 -0.9093  0.5053 -1.4922
  925MOL0     H24858   9.078   8.842   7.664 -1.6373 -1.5739 -0.4515
  925MOL0     H24859   7.155   8.441   7.528  0.2772  0.0327 -0.7734
  925MOL0     H24860   6.959   8.486   7.409 -0.4576  1.3322 -2.6776
  925MOL0     H24861   6.617   8.243   7.246 -0.3309 -1.0111  0.5558
  925MOL0     H24862   6.376   8.198   7.194 -0.1984 -1.2886 -1.1591
  925MOL0     H24863   6.257   8.301   6.766  1.3432  1.1784  1.1844
  925MOL0     H24864   6.166   8.425   6.861 -1.7557  0.2178  1.3789
  925MOL0     H24865   6.002   8.289   6.904 -0.9519  2.6632 -1.2404
  925MOL0     H24866   6.063   8.148   6.812 -2.1453 -0.6327  0.5639
  925MOL0     H24867   6.083   8.331   6.616 -2.1469 -0.3707 -3.2146
  925MOL0     H24868   5.947   8.395   6.710 -4.6882 -1.6549 -1.1113
  925MOL0     H24869   5.912   8.245   6.511 -2.5777  2.5611  0.4340
  925MOL0     H24870   5.959   8.108   6.616 -0.5032  0.0192  1.4151
  925MOL0     H24871   5.574   8.216   6.759  0.8157  3.5954  0.9324
  925MOL0     H24872   6.427   8.383   6.812 -1.8159 -3.0159 -0.0723
  925MOL0     H24873   6.788   8.365   6.817 -0.3414 -0.1003  1.6112
  925MOL0     H24874   6.654   8.448   6.731  2.8178 -1.3657 -1.7748
  925MOL0     H24875   6.742   8.521   6.868 -0.8752 -0.5850  2.4376
  926MOL0     O24876   0.051   2.745   5.762  0.5522  0.1778  0.6830
  926MOL0     C24877   0.031   2.632   5.773  0.5420  0.4925 -1.1833
  926MOL0     O24878   0.115   2.540   5.844  0.5305  0.1732  0.4255
  926MOL0     C24879   0.243   2.562   5.886 -0.6757  0.5688  0.1861
  926MOL0     C24880   0.311   2.463   5.956 -0.2365  0.5684 -1.6804
  926MOL0     C24881   0.436   2.486   6.026 -0.5036 -0.8037 -0.3116
  926MOL0     C24882   0.494   2.610   6.012  0.5874 -1.0630 -0.1626
  926MOL0     O24883   0.609   2.646   6.077  0.2211  0.1649  0.7290
  926MOL0     C24884   0.639   2.588   6.210 -0.6079  0.1456  0.5017
  926MOL0     C24885   0.757   2.651   6.289 -1.6014 -0.8620 -0.1741
  926MOL0     C24886   0.729   2.780   6.360  0.4662 -0.8028  0.7404
  926MOL0     C24887   0.858   2.821   6.432 -0.2194 -0.2938 -0.6559
  926MOL0     C24888   0.813   2.921   6.544 -0.2526 -0.3346 -0.5105
  926MOL0     C24889   0.933   2.954   6.630  0.3831  0.8422  0.5736
  926MOL0     C24890   0.949   2.866   6.754  0.0336  0.0776 -0.4000
  926MOL0     C24891   1.082   2.901   6.828 -0.2538 -0.1048 -0.3675
  926MOL0     N24892   1.070   2.839   6.961 -0.8457 -0.4345  0.2963
  926MOL0     C24893   1.071   2.700   6.976  0.2688  0.0312 -0.2161
  926MOL0     C24894   1.054   2.687   7.109 -0.0589  0.9061  1.0674
  926MOL0     C24895   1.039   2.561   7.199  0.3545  0.8418  0.1342
  926MOL0     C24896   1.159   2.473   7.190 -0.2614  0.1356 -0.5190
  926MOL0     C24897   1.267   2.539   7.271 -0.5255  0.5896  0.1672
  926MOL0     C24898   1.407   2.483   7.261  0.9913  0.2680 -0.2668
  926MOL0     O24899   1.484   2.558   7.353 -0.3689 -0.2306  0.5447
  926MOL0     C24900   1.614   2.551   7.339 -0.3625 -0.8474 -0.0940
  926MOL0     C24901   1.683   2.579   7.224 -0.0783  0.8202  0.0398
  926MOL0     C24902   1.823   2.581   7.227  0.2112 -0.2057  0.5522
  926MOL0     C24903   1.894   2.555   7.347 -0.2958  0.3257 -1.2477
  926MOL0     C24904   2.037   2.550   7.352  0.5949 -0.7669  0.4725
  926MOL0     O24905   2.096   2.581   7.236  0.4163  0.2869 -1.0377
  926MOL0     C24906   2.230   2.580   7.234 -0.1850 -0.5631  0.4622
  926MOL0     C24907   2.295   2.708   7.221  0.8473  0.2032  0.0131
  926MOL0     C24908   2.429   2.721   7.185  0.7352  0.4698  0.3014
  926MOL0     C24909   2.502   2.604   7.193 -0.5052  0.6411 -0.0114
  926MOL0     O24910   2.632   2.597   7.172 -0.5076  0.2515  0.1001
  926MOL0     C24911   2.704   2.726   7.186 -0.4494 -0.2058  0.3371
  926MOL0     C24912   2.848   2.706   7.147 -0.1618  0.7948 -0.0530
  926MOL0     C24913   2.929   2.622   7.239  0.3753  0.0669 -0.1739
  926MOL0     C24914   2.898   2.472   7.207 -0.6704  0.7247 -0.5848
  926MOL0     C24915   3.012   2.379   7.269  1.2820 -0.4220  0.1328
  926MOL0     C24916   3.003   2.359   7.417 -0.0242 -1.3039  0.6332
  926MOL0     C24917   2.867   2.310   7.463  0.0133 -0.0775 -0.3132
  926MOL0     C24918   2.883   2.226   7.588 -0.3187  0.1373  0.5037
  926MOL0    Cl24919   3.003   2.091   7.556  0.2706  0.1453 -0.3278
  926MOL0     C24920   2.436   2.475   7.209 -0.7311 -0.0341  0.3824
  926MOL0     C24921   2.304   2.461   7.228 -0.1664  0.3961 -0.3366
  926MOL0     O24922   2.096   2.548   7.460  0.5627  0.1432 -0.6645
  926MOL0     C24923   1.818   2.516   7.456  0.5839 -0.2024  0.5944
  926MOL0     C24924   1.681   2.514   7.457  0.6967  0.4260 -0.8892
  926MOL0     N24925   1.021   2.808   7.164 -0.0376 -0.2244  0.2073
  926MOL0     N24926   1.033   2.899   7.086  0.1155  0.6419 -0.0579
  926MOL0     C24927   0.433   2.713   5.945 -0.6830 -0.4127  0.5249
  926MOL0     C24928   0.312   2.693   5.879 -0.4274  0.5962  0.8492
  926MOL0     C24929  -0.101   2.559   5.737 -0.8985  0.4606  0.5516
  926MOL0     C24930  -0.135   2.439   5.801  0.2211  0.2847  0.6334
  926MOL0     C24931  -0.259   2.377   5.765  0.5205  0.2205  0.2663
  926MOL0     C24932  -0.346   2.429   5.668 -0.7377 -0.6629  1.2594
  926MOL0     O24933  -0.478   2.385   5.636 -0.7071 -0.0337 -0.4315
  926MOL0     C24934  -0.517   2.264   5.703  0.3467  0.2271  0.4710
  926MOL0     C24935  -0.642   2.197   5.638  0.7098 -0.5536 -0.2124
  926MOL0     C24936  -0.745   2.304   5.618  0.5850 -0.7576  0.1899
  926MOL0     C24937  -0.887   2.248   5.590  0.4249  0.9437  0.0641
  926MOL0     C24938  -0.903   2.230   5.444  0.1866  0.4600 -0.0231
  926MOL0     C24939  -0.909   2.215   5.323 -0.8286  0.1043  0.4444
  926MOL0     C24940  -0.308   2.562   5.616  0.1895  1.0498 -0.1281
  926MOL0     C24941  -0.188   2.620   5.647 -0.2692  0.8987  0.1532
  926MOL0     C24942  -0.163   2.751   5.568 -0.3407 -0.3863 -0.4434
  926MOL0     H24943   0.275   2.361   5.971 -1.7794  1.0920 -1.6879
  926MOL0     H24944   0.467   2.403   6.089  0.4167 -0.5574 -0.4301
  926MOL0     H24945   0.548   2.589   6.270 -2.4157  0.4056 -2.0559
  926MOL0     H24946   0.669   2.484   6.192  0.4078  0.3154  1.0915
  926MOL0     H24947   0.841   2.662   6.221 -0.7205  1.1927  1.1798
  926MOL0     H24948   0.786   2.583   6.370 -1.8588 -0.9220 -0.1292
  926MOL0     H24949   0.657   2.752   6.437 -1.2272 -0.0981 -0.5370
  926MOL0     H24950   0.696   2.858   6.291 -0.5874 -1.0945  0.8980
  926MOL0     H24951   0.906   2.729   6.467 -1.6674  0.0819  2.6858
  926MOL0     H24952   0.932   2.875   6.372  0.7411 -0.4375  0.3438
  926MOL0     H24953   0.766   3.005   6.492 -1.2004 -0.7252 -0.3016
  926MOL0     H24954   0.741   2.868   6.606 -1.0234  0.0679 -1.0478
  926MOL0     H24955   1.022   2.942   6.567  0.6684 -1.4244  1.3107
  926MOL0     H24956   0.922   3.057   6.665 -1.6420  1.8578 -2.5762
  926MOL0     H24957   0.938   2.761   6.725 -0.9522  0.3780 -1.1564
  926MOL0     H24958   0.867   2.899   6.818  0.1884  0.4133 -0.3743
  926MOL0     H24959   1.172   2.863   6.779  3.1082  1.3222  4.0223
  926MOL0     H24960   1.097   3.008   6.838 -1.9763 -0.0486  3.0548
  926MOL0     H24961   1.086   2.626   6.899  1.1158  0.6383 -0.6553
  926MOL0     H24962   1.021   2.576   7.306 -1.8477 -1.0829  0.1060
  926MOL0     H24963   0.954   2.508   7.157  0.2320  1.2210 -0.1042
  926MOL0     H24964   1.129   2.382   7.242 -1.5431  1.0751  0.4508
  926MOL0     H24965   1.194   2.467   7.086  0.3051 -0.4723 -0.3023
  926MOL0     H24966   1.246   2.525   7.378  2.9665 -0.8680  0.8277
  926MOL0     H24967   1.271   2.645   7.246  0.0291  0.4553 -0.3425
  926MOL0     H24968   1.422   2.511   7.156 -2.5523  0.7409 -0.7743
  926MOL0     H24969   1.417   2.375   7.278 -0.0242  0.4111  1.5124
  926MOL0     H24970   1.617   2.592   7.139  0.3022 -1.8965 -0.7711
  926MOL0     H24971   1.882   2.593   7.137  0.7192  0.4777  0.9628
  926MOL0     H24972   2.223   2.789   7.233 -0.8971 -1.2993  0.1046
  926MOL0     H24973   2.460   2.822   7.160 -0.6209  0.6168 -0.9468
  926MOL0     H24974   2.653   2.794   7.116 -3.5458 -1.4007  1.2707
  926MOL0     H24975   2.713   2.767   7.286  0.2822  1.5716 -0.4218
  926MOL0     H24976   2.866   2.662   7.049  0.4685  1.3656 -0.1975
  926MOL0     H24977   2.901   2.800   7.130  4.0284 -0.6568  3.0728
  926MOL0     H24978   3.037   2.636   7.237  0.6259 -0.3828  3.2091
  926MOL0     H24979   2.911   2.648   7.344  2.0768  1.9123 -0.2700
  926MOL0     H24980   2.906   2.462   7.099  0.4368  0.3575 -0.4714
  926MOL0     H24981   2.798   2.436   7.235  0.1503 -0.5027  0.9450
  926MOL0     H24982   3.115   2.407   7.247  0.6607 -0.1343 -2.9239
  926MOL0     H24983   3.004   2.285   7.213 -0.6331 -1.3756  1.8791
  926MOL0     H24984   3.074   2.278   7.437 -0.7643 -2.0842  0.2155
  926MOL0     H24985   3.036   2.451   7.465 -1.4072  0.3045 -1.3323
  926MOL0     H24986   2.836   2.249   7.378  0.6419  1.1307 -1.4464
  926MOL0     H24987   2.802   2.397   7.476  1.5067  1.3633 -1.9339
  926MOL0     H24988   2.921   2.291   7.667  0.3701 -1.1898  1.2909
  926MOL0     H24989   2.787   2.190   7.627 -0.5385  1.2322  1.0164
  926MOL0     H24990   2.505   2.394   7.187  1.7644  2.1000 -0.0294
  926MOL0     H24991   2.259   2.362   7.230  1.5369 -0.4508 -1.5000
  926MOL0     H24992   1.847   2.478   7.553  0.6000  2.8715  1.8842
  926MOL0     H24993   1.633   2.481   7.549  3.1928 -2.4682 -0.4640
  926MOL0     H24994   0.472   2.814   5.954 -3.8082  1.0020 -0.4802
  926MOL0     H24995   0.268   2.782   5.834 -2.4176  0.7742  2.9717
  926MOL0     H24996  -0.074   2.387   5.875  2.3814 -0.2828 -1.4030
  926MOL0     H24997  -0.300   2.296   5.824 -1.3367 -0.6612 -2.0675
  926MOL0     H24998  -0.544   2.278   5.808 -1.6620  0.7979 -0.0613
  926MOL0     H24999  -0.442   2.185   5.695 -0.3781 -0.4015 -0.3916
  926MOL0     H25000  -0.678   2.113   5.698  0.9215 -1.1970 -0.9669
  926MOL0     H25001  -0.628   2.152   5.539 -0.8862 -3.3745  0.7216
  926MOL0     H25002  -0.702   2.369   5.541  1.5675 -0.6954  0.7706
  926MOL0     H25003  -0.751   2.362   5.711 -2.5337  1.7921 -1.3834
  926MOL0     H25004  -0.919   2.159   5.645 -2.0207  2.3078  1.0252
  926MOL0     H25005  -0.963   2.325   5.611 -0.8117  0.0187 -0.8688
  926MOL0     H25006  -0.916   2.208   5.216 -2.1179  1.9054  0.3692
  926MOL0     H25007  -0.375   2.596   5.537 -0.8549 -0.0738  0.2367
  926MOL0     H25008  -0.074   2.748   5.504  0.1250 -0.5313  0.1888
  926MOL0     H25009  -0.242   2.773   5.497  0.0223 -1.8935 -1.3536
  926MOL0     H25010  -0.153   2.834   5.638 -4.5767  0.7421 -0.9117
  927MOL0     O25011   1.727   1.101   9.151  0.0013  0.3083 -0.6975
  927MOL0     C25012   1.684   1.216   9.126 -0.2118 -1.2343 -0.1006
  927MOL0     O25013   1.738   1.334   9.166 -1.0174 -0.1404  0.5931
  927MOL0     C25014   1.874   1.334   9.138  0.5332 -0.4655  0.2443
  927MOL0     C25015   1.954   1.348   9.252  0.1137  0.1519 -1.2449
  927MOL0     C25016   2.087   1.380   9.218  0.3023 -0.5665  0.6078
  927MOL0     C25017   2.143   1.380   9.085  0.4758 -0.4920 -0.5655
  927MOL0     O25018   2.269   1.415   9.043  0.1277 -0.1514 -0.3271
  927MOL0     C25019   2.347   1.495   9.127 -0.3498 -0.7647  0.0078
  927MOL0     C25020   2.449   1.554   9.037 -0.3299  0.0994  0.2801
  927MOL0     C25021   2.559   1.456   8.987 -0.2178 -0.3537  0.7521
  927MOL0     C25022   2.589   1.345   9.098 -0.2092 -0.2501  0.4181
  927MOL0     C25023   2.737   1.304   9.081  0.0021  0.4944  0.9038
  927MOL0     C25024   2.778   1.235   8.949  0.2348 -0.6928  0.0377
  927MOL0     C25025   2.929   1.190   8.970 -0.5133  0.3744  0.7187
  927MOL0     C25026   3.022   1.307   8.943  0.1476  0.3830  0.7769
  927MOL0     N25027   3.160   1.268   8.986 -0.2353 -0.7497 -0.1418
  927MOL0     C25028   3.247   1.202   8.913 -0.1850 -0.3355  0.0892
  927MOL0     C25029   3.365   1.192   8.986  1.0794  0.4474 -0.4123
  927MOL0     C25030   3.495   1.134   8.934  0.0152  0.8237  0.2558
  927MOL0     C25031   3.561   1.054   9.047 -0.1815  0.3709 -0.4445
  927MOL0     C25032   3.707   1.015   9.012 -0.1627 -0.1650  0.3467
  927MOL0     C25033   3.809   1.140   8.996  0.6183  0.3303 -0.5356
  927MOL0     O25034   3.940   1.089   8.958  0.2415  0.2789 -0.3789
  927MOL0     C25035   4.037   1.066   9.053 -0.1194 -0.0773 -0.3299
  927MOL0     C25036   4.161   1.016   9.011  0.9199 -0.7446 -0.4925
  927MOL0     C25037   4.272   0.986   9.097  1.3189  0.9959 -0.8286
  927MOL0     C25038   4.244   1.005   9.234  0.7365  0.5798 -0.1991
  927MOL0     C25039   4.344   0.968   9.332  0.3734 -0.7976  0.2674
  927MOL0     O25040   4.431   0.864   9.310 -0.2280  0.2067  0.0281
  927MOL0     C25041   4.556   0.859   9.371 -0.4411 -0.5220 -0.8470
  927MOL0     C25042   4.610   0.734   9.392 -0.0783 -0.3684  0.3712
  927MOL0     C25043   4.743   0.728   9.435 -0.7700 -0.6885 -0.9044
  927MOL0     C25044   4.816   0.843   9.483 -0.2410  0.2912  0.1082
  927MOL0     O25045   4.935   0.836   9.552  0.8496  0.4516 -0.2426
  927MOL0     C25046   5.037   0.929   9.515 -0.3212  0.8716  0.6387
  927MOL0     C25047   5.172   0.861   9.520  0.1489  0.1124 -0.4074
  927MOL0     C25048   5.275   0.966   9.535 -0.3364  0.0564  0.7228
  927MOL0     C25049   5.411   0.906   9.541  0.3479 -0.5414 -0.0310
  927MOL0     C25050   5.512   1.020   9.569 -0.1503  0.8604 -0.2237
  927MOL0     C25051   5.645   0.974   9.541 -0.3363  0.8203 -0.7895
  927MOL0     C25052   5.698   0.839   9.600  0.5942  0.3133  0.2049
  927MOL0     C25053   5.724   0.823   9.754 -0.0208 -0.3951 -0.0647
  927MOL0    Cl25054   5.865   0.926   9.798 -0.3427  0.5739 -0.7770
  927MOL0     C25055   4.760   0.967   9.452 -0.0717  0.8680 -1.1175
  927MOL0     C25056   4.632   0.976   9.402  0.6359 -0.1874  0.6104
  927MOL0     O25057   4.347   1.044   9.424 -0.1445  0.0041 -0.3399
  927MOL0     C25058   4.122   1.055   9.279  0.7450  0.8676  0.4120
  927MOL0     C25059   4.019   1.075   9.190  0.5751 -0.0506  0.5088
  927MOL0     N25060   3.336   1.240   9.117 -0.1940 -0.2028 -0.1302
  927MOL0     N25061   3.219   1.298   9.104  0.5365  0.4670 -0.1855
  927MOL0     C25062   2.051   1.359   8.983  0.4074  0.3174  0.0102
  927MOL0     C25063   1.915   1.345   9.005  0.2877 -0.5044 -0.3514
  927MOL0     C25064   1.549   1.230   9.057 -0.3382  0.4374 -0.4797
  927MOL0     C25065   1.516   1.350   8.992 -0.4718 -0.0137 -0.1337
  927MOL0     C25066   1.398   1.370   8.924  0.2368  0.1722  0.1341
  927MOL0     C25067   1.304   1.268   8.908 -0.9203  0.1019  0.0805
  927MOL0     O25068   1.197   1.284   8.824 -0.1573 -0.5936 -0.5656
  927MOL0     C25069   1.189   1.403   8.738 -0.0971 -0.2068 -0.9297
  927MOL0     C25070   1.078   1.408   8.630 -0.0931  0.6082 -0.4878
  927MOL0     C25071   0.934   1.387   8.682  0.0902 -0.5407  0.0874
  927MOL0     C25072   0.910   1.483   8.796  0.7300  0.2744 -0.1130
  927MOL0     C25073   0.768   1.501   8.833 -0.1349  0.9611  0.6651
  927MOL0     C25074   0.651   1.525   8.849  0.4884  0.1786  0.2586
  927MOL0     C25075   1.332   1.147   8.969  0.0634  0.1945  0.4458
  927MOL0     C25076   1.453   1.125   9.046  0.7176  0.3343 -0.1198
  927MOL0     C25077   1.471   0.983   9.101 -0.0446  0.2224 -0.9830
  927MOL0     H25078   1.923   1.347   9.356  1.9974  1.0738 -0.6299
  927MOL0     H25079   2.155   1.400   9.301  0.3575 -0.5192  0.5504
  927MOL0     H25080   2.295   1.588   9.152  1.0403  0.4415 -1.3575
  927MOL0     H25081   2.395   1.449   9.214  1.7008  1.8963  0.4329
  927MOL0     H25082   2.486   1.646   9.083  0.9982  0.6967 -1.8273
  927MOL0     H25083   2.398   1.579   8.943  3.0608 -1.3682 -2.1517
  927MOL0     H25084   2.642   1.520   8.958 -0.7099  1.4650  3.0682
  927MOL0     H25085   2.521   1.412   8.894 -2.0902  0.7707  0.9284
  927MOL0     H25086   2.581   1.388   9.198 -2.0061  3.2081 -1.0143
  927MOL0     H25087   2.517   1.264   9.084  0.4221 -0.7641  0.0773
  927MOL0     H25088   2.794   1.398   9.083 -0.4829  0.7882  1.3511
  927MOL0     H25089   2.767   1.244   9.168 -0.9671 -0.0648  0.8673
  927MOL0     H25090   2.709   1.151   8.932 -0.5818 -0.2898  1.2104
  927MOL0     H25091   2.776   1.303   8.864  5.1951 -0.3864 -0.1231
  927MOL0     H25092   2.956   1.110   8.900 -1.3245  0.9991 -0.3313
  927MOL0     H25093   2.956   1.143   9.065  1.8215 -2.2108 -1.0498
  927MOL0     H25094   3.007   1.337   8.839 -1.7613  2.7975  1.6735
  927MOL0     H25095   2.988   1.392   9.003 -1.1568  1.2673 -1.1364
  927MOL0     H25096   3.232   1.189   8.806  0.9168  0.4977 -0.1815
  927MOL0     H25097   3.475   1.067   8.851  0.9627  1.6016 -0.6356
  927MOL0     H25098   3.561   1.217   8.906  1.2772  0.9784  3.3070
  927MOL0     H25099   3.555   1.107   9.142  1.6196 -2.1544  1.1915
  927MOL0     H25100   3.500   0.964   9.058  0.5701 -0.1620 -0.5524
  927MOL0     H25101   3.709   0.959   8.918 -1.6718  1.4055 -0.6639
  927MOL0     H25102   3.740   0.946   9.091 -0.0161 -4.4773 -3.1254
  927MOL0     H25103   3.800   1.213   9.077 -1.2325  0.4152 -0.7793
  927MOL0     H25104   3.766   1.203   8.918 -2.3206  0.6369  1.1801
  927MOL0     H25105   4.176   0.998   8.905 -0.2242 -2.4828 -0.4059
  927MOL0     H25106   4.367   0.953   9.057  1.2717  0.6311 -0.6485
  927MOL0     H25107   4.554   0.643   9.374 -2.2982  1.0838 -0.3289
  927MOL0     H25108   4.785   0.629   9.449 -0.4159 -0.3971  0.1893
  927MOL0     H25109   5.030   0.951   9.408  2.7432 -1.6347 -0.2195
  927MOL0     H25110   5.033   1.024   9.570  1.6618  1.0669  0.5230
  927MOL0     H25111   5.177   0.808   9.616  1.1610  1.9044  0.5868
  927MOL0     H25112   5.184   0.795   9.434 -2.3574 -1.9490  0.6729
  927MOL0     H25113   5.272   1.034   9.450  1.2286 -0.3569  0.3091
  927MOL0     H25114   5.254   1.008   9.634 -0.2047 -1.9704  1.6710
  927MOL0     H25115   5.421   0.850   9.448 -2.5608  0.3783 -1.0062
  927MOL0     H25116   5.420   0.828   9.618  0.1780 -3.3104 -2.6217
  927MOL0     H25117   5.499   1.056   9.671 -0.8020 -0.6258  0.2503
  927MOL0     H25118   5.480   1.102   9.504 -2.8482  0.6887  0.7439
  927MOL0     H25119   5.662   0.949   9.436  0.2276 -1.3209 -0.2268
  927MOL0     H25120   5.711   1.060   9.560 -2.1541  2.3585 -1.0966
  927MOL0     H25121   5.791   0.816   9.547 -0.2846 -2.8660 -0.1999
  927MOL0     H25122   5.628   0.759   9.573 -2.1781  1.2607  3.7886
  927MOL0     H25123   5.643   0.864   9.814  2.0279  1.6001  1.5016
  927MOL0     H25124   5.741   0.717   9.779  0.4276 -0.1481  0.6983
  927MOL0     H25125   4.808   1.064   9.462 -0.4449  1.2022 -2.4371
  927MOL0     H25126   4.595   1.076   9.380  1.5628  0.4513  1.8283
  927MOL0     H25127   4.107   1.084   9.382 -0.1031  0.3486  0.4390
  927MOL0     H25128   3.922   1.106   9.226  0.5463  2.7828 -1.6821
  927MOL0     H25129   2.078   1.377   8.880 -0.3895  0.1175 -0.2446
  927MOL0     H25130   1.844   1.333   8.924 -2.1825 -1.7822  1.8319
  927MOL0     H25131   1.582   1.434   9.011  0.0918 -0.7633  1.4190
  927MOL0     H25132   1.394   1.460   8.864 -0.2650  1.0887  1.4973
  927MOL0     H25133   1.288   1.417   8.694  0.0881  0.4043 -0.3294
  927MOL0     H25134   1.166   1.488   8.803  0.6897  0.8399 -1.9824
  927MOL0     H25135   1.090   1.334   8.551 -0.4843 -0.1688  0.1658
  927MOL0     H25136   1.081   1.512   8.594  0.8617  1.5058  1.9312
  927MOL0     H25137   0.921   1.285   8.718  2.1030 -0.2830  1.7437
  927MOL0     H25138   0.866   1.405   8.598  0.2122  0.6799  0.2272
  927MOL0     H25139   0.968   1.456   8.884 -0.9085 -2.0511  0.3318
  927MOL0     H25140   0.943   1.584   8.767 -1.5552  1.6618  1.7242
  927MOL0     H25141   0.550   1.560   8.858  0.7731  0.8340  1.0193
  927MOL0     H25142   1.257   1.070   8.956 -3.6270  3.5307 -0.1629
  927MOL0     H25143   1.516   0.980   9.200 -1.3968 -0.1125 -0.3441
  927MOL0     H25144   1.373   0.934   9.111 -0.4394  1.1388 -0.2297
  927MOL0     H25145   1.531   0.915   9.040  0.3988  0.2845 -0.6169
  928MOL0     O25146   6.622   3.014   4.374  0.0558  0.1351  0.4367
  928MOL0     C25147   6.560   2.940   4.295  0.2033  0.9749  0.3348
  928MOL0     O25148   6.609   2.838   4.225 -0.9041  0.3120 -0.1510
  928MOL0     C25149   6.737   2.793   4.253  0.8076 -0.2207 -0.3870
  928MOL0     C25150   6.760   2.730   4.386 -0.2669 -0.0374 -0.1985
  928MOL0     C25151   6.884   2.697   4.422 -0.8406  0.0631  0.4323
  928MOL0     C25152   6.995   2.729   4.348  0.8525  0.3748  0.1615
  928MOL0     O25153   7.118   2.712   4.400 -0.6246  0.1105  0.2789
  928MOL0     C25154   7.224   2.774   4.327  0.3160  0.0606  0.2275
  928MOL0     C25155   7.348   2.732   4.396 -0.3128  0.7877 -0.4841
  928MOL0     C25156   7.469   2.730   4.302  0.4875  0.3813 -0.8576
  928MOL0     C25157   7.463   2.596   4.215  0.0372  0.2506  0.2835
  928MOL0     C25158   7.587   2.587   4.122 -0.5162 -0.1805  0.5181
  928MOL0     C25159   7.610   2.458   4.045 -0.2137 -0.4601 -0.5409
  928MOL0     C25160   7.751   2.443   3.984 -0.6709  0.0963  0.0448
  928MOL0     C25161   7.847   2.386   4.088 -0.0900 -0.2547  0.3088
  928MOL0     N25162   7.963   2.315   4.036  0.2495 -0.6202 -0.2673
  928MOL0     C25163   7.962   2.205   3.951  0.5056 -0.5266 -0.2749
  928MOL0     C25164   8.089   2.162   3.941 -0.5030 -1.1833 -0.4444
  928MOL0     C25165   8.154   2.053   3.854  0.5526  0.3378  0.0149
  928MOL0     C25166   8.300   2.046   3.836  0.3407  0.3755 -0.2460
  928MOL0     C25167   8.343   1.899   3.801  0.3382 -0.3839  0.4307
  928MOL0     C25168   8.487   1.878   3.817 -0.4181  0.4983 -0.2238
  928MOL0     O25169   8.524   1.738   3.809  0.0785  0.3185  0.7396
  928MOL0     C25170   8.649   1.692   3.770  0.1610  0.4749  0.7514
  928MOL0     C25171   8.672   1.552   3.751  0.4261 -0.4391  0.9352
  928MOL0     C25172   8.800   1.507   3.716  0.1862  0.7453 -0.0152
  928MOL0     C25173   8.909   1.594   3.699 -0.2827 -0.1407 -0.5259
  928MOL0     C25174   9.049   1.546   3.671 -0.5842  0.2852  1.7057
  928MOL0     O25175   9.070   1.412   3.653 -1.1460 -0.7111 -0.6869
  928MOL0     C25176   9.199   1.356   3.643  0.0743 -0.0292  0.2223
  928MOL0     C25177   9.255   1.280   3.744 -0.7865  0.2712 -0.3212
  928MOL0     C25178   9.383   1.229   3.738 -0.6582 -0.0429  0.9009
  928MOL0     C25179   9.471   1.255   3.634 -0.3779 -0.1990 -0.3386
  928MOL0     O25180   9.591   1.201   3.627 -0.2370 -0.3436 -0.0477
  928MOL0     C25181   9.609   1.063   3.650  0.8136  0.4607 -0.0101
  928MOL0     C25182   9.757   1.026   3.660 -0.5537  0.4742 -0.0286
  928MOL0     C25183   9.850   1.118   3.733  0.1629 -0.5500 -0.5459
  928MOL0     C25184   9.987   1.052   3.732 -0.4618  0.1457  0.3371
  928MOL0     C25185  10.101   1.155   3.749 -0.2541  0.4325  0.7863
  928MOL0     C25186  10.246   1.098   3.748  0.0350  0.8398  0.5121
  928MOL0     C25187  10.323   1.212   3.804  0.4366  0.2463 -0.7369
  928MOL0     C25188  10.467   1.171   3.805  0.5004 -0.4880  0.2811
  928MOL0    Cl25189  10.513   1.158   3.644  0.0746 -0.6295  0.5889
  928MOL0     C25190   9.416   1.331   3.528 -0.4908  0.4554 -0.0366
  928MOL0     C25191   9.288   1.379   3.535  0.4250 -0.3604 -0.6262
  928MOL0     O25192   9.139   1.629   3.664 -0.3871  0.6618  0.1120
  928MOL0     C25193   8.881   1.733   3.712  0.6874  0.1914 -0.0822
  928MOL0     C25194   8.749   1.780   3.732 -0.2833 -0.3645  0.9401
  928MOL0     N25195   8.167   2.238   4.025 -0.2631  0.6566  0.0207
  928MOL0     N25196   8.087   2.319   4.084 -0.5408  0.4096 -0.1130
  928MOL0     C25197   6.969   2.776   4.224  0.7079 -0.9002  0.2367
  928MOL0     C25198   6.842   2.798   4.166 -0.6478 -0.1455  0.2724
  928MOL0     C25199   6.418   2.975   4.258  0.3457  0.6523 -0.4353
  928MOL0     C25200   6.319   2.871   4.247 -0.7754 -0.5197  0.3970
  928MOL0     C25201   6.186   2.917   4.237 -0.0935  0.0583  0.3050
  928MOL0     C25202   6.150   3.049   4.203  0.1094  0.0436 -0.1518
  928MOL0     O25203   6.014   3.074   4.191  0.4258  0.1536 -0.3774
  928MOL0     C25204   5.962   3.073   4.058  0.6236  0.3534 -0.0328
  928MOL0     C25205   5.913   3.211   4.024  0.1302  0.2759 -0.4427
  928MOL0     C25206   5.851   3.223   3.879 -0.3224  0.2675  0.4772
  928MOL0     C25207   5.711   3.163   3.868 -0.4706 -0.7405  0.6869
  928MOL0     C25208   5.604   3.240   3.935  0.1423  0.1655 -0.0732
  928MOL0     C25209   5.516   3.304   3.991 -0.4520 -0.2788  0.5177
  928MOL0     C25210   6.247   3.143   4.201 -0.3473  0.2506 -0.8001
  928MOL0     C25211   6.375   3.109   4.239  0.2295 -0.5303 -0.1264
  928MOL0     C25212   6.473   3.224   4.253  0.2511 -0.1149  0.6003
  928MOL0     H25213   6.672   2.708   4.445  2.5511 -3.2458  3.3281
  928MOL0     H25214   6.901   2.636   4.510  0.3604 -1.6013 -0.8883
  928MOL0     H25215   7.226   2.727   4.228 -1.2491  1.3922 -0.4714
  928MOL0     H25216   7.218   2.881   4.306  0.7033 -0.5547 -3.8509
  928MOL0     H25217   7.338   2.632   4.439 -2.3130  1.8044  1.6304
  928MOL0     H25218   7.357   2.793   4.486  0.7713  0.0770 -0.0865
  928MOL0     H25219   7.560   2.734   4.363 -0.3187 -0.5968  0.4505
  928MOL0     H25220   7.475   2.824   4.246 -0.9773  0.2915 -1.1883
  928MOL0     H25221   7.473   2.512   4.284  1.0409  0.9003  0.9442
  928MOL0     H25222   7.377   2.584   4.148  2.9079 -0.1998 -3.6980
  928MOL0     H25223   7.581   2.670   4.051 -0.7437 -0.6690 -0.0456
  928MOL0     H25224   7.680   2.600   4.177  0.4021 -2.1966 -0.4333
  928MOL0     H25225   7.591   2.366   4.100  1.1803 -1.1404 -1.1577
  928MOL0     H25226   7.534   2.446   3.968 -1.8271  0.2167  0.8735
  928MOL0     H25227   7.790   2.532   3.935 -3.6490  0.5170 -1.7816
  928MOL0     H25228   7.741   2.371   3.902  0.5187 -1.4395  1.1879
  928MOL0     H25229   7.886   2.468   4.149 -3.7483  2.0559 -0.1259
  928MOL0     H25230   7.798   2.318   4.158  0.0633  0.3100  0.9748
  928MOL0     H25231   7.875   2.170   3.895  0.4483  1.0529 -1.2586
  928MOL0     H25232   8.122   1.960   3.902  2.2098 -0.5010 -0.4106
  928MOL0     H25233   8.106   2.051   3.755 -2.3979 -0.0963  1.3443
  928MOL0     H25234   8.341   2.118   3.764 -1.1674  0.5816 -0.9504
  928MOL0     H25235   8.349   2.070   3.931  0.1450 -1.7305  0.4364
  928MOL0     H25236   8.323   1.876   3.696  1.0686 -0.6382  0.3458
  928MOL0     H25237   8.293   1.823   3.861 -1.1362 -1.0274 -1.4925
  928MOL0     H25238   8.517   1.913   3.916  1.4790 -0.8667 -0.2708
  928MOL0     H25239   8.528   1.938   3.736 -0.3329 -0.9406 -1.2915
  928MOL0     H25240   8.591   1.480   3.755 -1.5936  1.6574  0.1118
  928MOL0     H25241   8.811   1.400   3.699  1.5467  0.8847 -0.0861
  928MOL0     H25242   9.191   1.263   3.830 -0.5269 -1.7914 -0.4702
  928MOL0     H25243   9.408   1.163   3.820 -1.1528 -1.4202 -0.0253
  928MOL0     H25244   9.564   1.031   3.745 -1.0586 -0.2079 -1.0761
  928MOL0     H25245   9.555   1.000   3.579  3.2914 -1.5006 -0.2949
  928MOL0     H25246   9.759   0.928   3.708  0.2736  0.0765 -0.8575
  928MOL0     H25247   9.792   1.013   3.558  2.4313 -1.1181  1.0767
  928MOL0     H25248   9.863   1.206   3.668  0.8882 -1.2741 -1.3934
  928MOL0     H25249   9.823   1.156   3.832  1.0948  0.4171 -0.6372
  928MOL0     H25250  10.002   1.006   3.634 -3.6693 -2.0495  0.7078
  928MOL0     H25251   9.995   0.981   3.814  2.8037  1.9778  1.7542
  928MOL0     H25252  10.091   1.217   3.838  0.0418  2.0014 -0.2371
  928MOL0     H25253  10.092   1.223   3.665  0.6082 -0.5909 -0.1749
  928MOL0     H25254  10.236   1.005   3.805 -0.9148  0.6227  0.0242
  928MOL0     H25255  10.276   1.069   3.647 -0.4033 -1.1852  0.9222
  928MOL0     H25256  10.297   1.231   3.908  1.8891  2.9026 -0.7668
  928MOL0     H25257  10.303   1.303   3.747 -0.4999  1.6229  1.6733
  928MOL0     H25258  10.510   1.261   3.851 -2.1045 -1.1059  4.4375
  928MOL0     H25259  10.492   1.084   3.865  1.0940 -1.3906 -1.2168
  928MOL0     H25260   9.477   1.358   3.442  0.2195  1.0830  0.6445
  928MOL0     H25261   9.251   1.437   3.450  0.5394  0.3256 -0.2120
  928MOL0     H25262   8.962   1.799   3.683  2.7969 -0.7193  3.2522
  928MOL0     H25263   8.733   1.886   3.746 -2.5018 -0.7937  2.0444
  928MOL0     H25264   7.042   2.794   4.146 -2.1857 -1.3009 -2.8395
  928MOL0     H25265   6.832   2.829   4.063  0.2083 -0.9270 -0.0624
  928MOL0     H25266   6.348   2.767   4.258  1.1527  0.2085  3.1941
  928MOL0     H25267   6.108   2.846   4.263 -1.3897  1.0636 -0.7269
  928MOL0     H25268   5.885   2.995   4.051  1.3998 -0.4226 -0.1926
  928MOL0     H25269   6.041   3.046   3.987  1.7096 -1.4026  1.7302
  928MOL0     H25270   6.001   3.276   4.024  1.8928 -1.9619 -1.0022
  928MOL0     H25271   5.851   3.246   4.107 -0.6638 -1.0260 -0.4689
  928MOL0     H25272   5.913   3.166   3.809 -0.9182 -4.3646  3.2683
  928MOL0     H25273   5.861   3.325   3.842  1.4534  0.3389  1.0524
  928MOL0     H25274   5.691   3.140   3.763  2.3338 -3.7089  0.6515
  928MOL0     H25275   5.712   3.062   3.911 -1.4457 -1.2983 -0.5526
  928MOL0     H25276   5.446   3.375   4.030 -0.7414  0.1733 -0.7949
  928MOL0     H25277   6.206   3.242   4.185 -1.3683 -0.2038 -1.1153
  928MOL0     H25278   6.458   3.317   4.196  2.2246 -1.9199 -3.2016
  928MOL0     H25279   6.487   3.246   4.359 -1.0652  0.4164  0.6834
  928MOL0     H25280   6.570   3.203   4.207 -0.6268 -5.4850  0.6008
  929MOL0     O25281   5.843   9.909   7.543  0.1463  0.4356  0.5303
  929MOL0     C25282   5.849   9.969   7.434  0.9210  0.0354 -0.2264
  929MOL0     O25283   5.935   9.949   7.332 -0.8545  0.5165 -0.1809
  929MOL0     C25284   6.023   9.839   7.359  0.1101  0.2630 -0.3033
  929MOL0     C25285   5.977   9.705   7.344 -0.4929  0.6057  0.4898
  929MOL0     C25286   6.067   9.598   7.366 -0.0421 -0.7249  0.0058
  929MOL0     C25287   6.203   9.620   7.375 -0.4360 -0.5206 -0.7068
  929MOL0     O25288   6.286   9.516   7.389  0.8167 -0.0138  0.0067
  929MOL0     C25289   6.378   9.512   7.496 -0.3338 -0.3491  0.3029
  929MOL0     C25290   6.349   9.387   7.584  0.1869  0.6318 -0.2958
  929MOL0     C25291   6.210   9.404   7.670  0.4003 -0.0247  0.9123
  929MOL0     C25292   6.164   9.275   7.747  0.1693 -0.7703  0.1787
  929MOL0     C25293   6.044   9.305   7.837 -0.0650 -0.7687 -0.6687
  929MOL0     C25294   5.980   9.180   7.889  0.1628 -0.3835 -0.1901
  929MOL0     C25295   6.071   9.099   7.989 -1.0103 -0.2020  0.1077
  929MOL0     C25296   6.100   9.178   8.119 -0.5931 -0.3863 -0.4235
  929MOL0     N25297   5.988   9.191   8.209 -0.4344 -0.4362 -0.8330
  929MOL0     C25298   5.937   9.079   8.264  0.2549 -0.7563  0.5638
  929MOL0     C25299   5.831   9.123   8.331  0.5357 -0.5217  0.0704
  929MOL0     C25300   5.750   9.047   8.426  0.5497 -0.5058 -0.4427
  929MOL0     C25301   5.627   8.987   8.350 -1.0075  0.9244 -0.1681
  929MOL0     C25302   5.550   8.876   8.423 -0.2997  0.2026 -0.7016
  929MOL0     C25303   5.454   8.809   8.323  0.8871 -0.0871  0.2271
  929MOL0     O25304   5.378   8.909   8.245 -0.4711 -0.0278  0.2971
  929MOL0     C25305   5.292   8.853   8.150  0.4447  0.2434 -0.1746
  929MOL0     C25306   5.261   8.715   8.149 -0.6689 -0.5708  0.5813
  929MOL0     C25307   5.155   8.678   8.071  0.8664 -0.4553 -0.6746
  929MOL0     C25308   5.081   8.759   7.988  1.4088  0.4986 -0.0894
  929MOL0     C25309   4.952   8.721   7.917  0.3849  0.7426 -0.7366
  929MOL0     O25310   4.876   8.818   7.854 -0.9486  0.8637  0.1264
  929MOL0     C25311   4.781   8.764   7.777 -0.1535  0.4005 -0.7944
  929MOL0     C25312   4.806   8.709   7.652  0.5094  0.1200  0.2806
  929MOL0     C25313   4.724   8.626   7.584 -0.6688  1.5198  0.1733
  929MOL0     C25314   4.601   8.595   7.653  0.0694  0.1777  1.0793
  929MOL0     O25315   4.507   8.508   7.615 -0.2388 -0.3163 -0.3596
  929MOL0     C25316   4.538   8.427   7.507 -0.1789 -0.3114 -0.2872
  929MOL0     C25317   4.418   8.329   7.493 -0.3099 -0.6645 -0.2889
  929MOL0     C25318   4.437   8.230   7.379  0.2442 -0.1817  0.5827
  929MOL0     C25319   4.545   8.122   7.398 -0.3173 -1.0189  0.7770
  929MOL0     C25320   4.516   8.031   7.508  1.0151 -0.5426 -0.3418
  929MOL0     C25321   4.630   7.925   7.517 -0.2688  0.7100 -0.3876
  929MOL0     C25322   4.603   7.830   7.640 -0.0651  0.3952 -0.5997
  929MOL0     C25323   4.656   7.689   7.616 -0.1810  0.1146 -0.3921
  929MOL0    Cl25324   4.560   7.587   7.510  1.0142 -0.2252 -0.4488
  929MOL0     C25325   4.567   8.663   7.766 -0.4504  0.3373  0.0894
  929MOL0     C25326   4.653   8.749   7.829 -0.8452 -0.1010 -0.6885
  929MOL0     O25327   4.926   8.598   7.919 -0.3721  0.5664  1.0450
  929MOL0     C25328   5.121   8.891   7.988 -0.0764 -0.8295 -0.7264
  929MOL0     C25329   5.235   8.934   8.056 -0.0502 -0.1922 -0.8223
  929MOL0     N25330   5.808   9.261   8.301 -1.1796  1.2074 -0.7643
  929MOL0     N25331   5.908   9.293   8.230 -0.2424 -0.3291  0.3451
  929MOL0     C25332   6.253   9.757   7.382 -0.7822  0.6365 -1.4190
  929MOL0     C25333   6.158   9.866   7.370 -0.3408  0.3941 -0.4124
  929MOL0     C25334   5.740  10.058   7.387 -1.1885  0.8588 -0.4129
  929MOL0     C25335   5.730  10.077   7.246  0.2691 -0.0539 -0.0111
  929MOL0     C25336   5.620  10.147   7.195 -0.1727 -0.6446  0.5556
  929MOL0     C25337   5.523  10.207   7.281  0.2206 -0.2008 -0.5385
  929MOL0     O25338   5.417  10.261   7.209  0.1841 -0.3306  0.5605
  929MOL0     C25339   5.314  10.322   7.289  0.5009  0.0933  0.3066
  929MOL0     C25340   5.232  10.396   7.193  0.0809  0.7858  0.4074
  929MOL0     C25341   5.134  10.492   7.270 -0.5035 -0.4818  0.2722
  929MOL0     C25342   5.020  10.412   7.331  0.0540 -0.1676  0.4208
  929MOL0     C25343   4.942  10.503   7.412 -0.4901  0.6056  0.0221
  929MOL0     C25344   4.881  10.594   7.469 -0.5957 -0.9353 -0.1380
  929MOL0     C25345   5.546  10.204   7.415  0.6437  0.3977  0.1284
  929MOL0     C25346   5.653  10.126   7.473  1.0846 -0.4994 -0.3278
  929MOL0     C25347   5.655  10.107   7.626 -0.3442 -1.0241 -0.1744
  929MOL0     H25348   5.872   9.683   7.331 -0.4304  0.7843 -0.3622
  929MOL0     H25349   6.039   9.493   7.359 -0.9713 -0.3429 -3.3142
  929MOL0     H25350   6.475   9.479   7.458 -0.0295 -2.4376  2.5988
  929MOL0     H25351   6.373   9.599   7.562 -2.1690  0.2615 -0.5808
  929MOL0     H25352   6.440   9.375   7.642  1.0874  0.5893 -1.6685
  929MOL0     H25353   6.339   9.296   7.525 -1.8551 -0.7830  2.0401
  929MOL0     H25354   6.123   9.438   7.612 -0.3502 -2.5790  0.4088
  929MOL0     H25355   6.226   9.473   7.753  0.9365 -0.2257  0.9761
  929MOL0     H25356   6.144   9.196   7.674 -1.0778 -0.7744  0.4987
  929MOL0     H25357   6.245   9.232   7.807 -0.1513 -2.3069 -0.4356
  929MOL0     H25358   6.069   9.378   7.915  0.7868 -1.6295 -0.1095
  929MOL0     H25359   5.962   9.351   7.781 -2.1001 -2.3709  0.8217
  929MOL0     H25360   5.888   9.202   7.944 -0.4802 -1.1913 -0.9119
  929MOL0     H25361   5.953   9.125   7.798 -1.8552  1.5010 -0.8249
  929MOL0     H25362   6.167   9.073   7.943 -1.3752  0.6243 -1.1478
  929MOL0     H25363   6.027   9.001   8.011 -4.1905  0.7054 -1.6648
  929MOL0     H25364   6.188   9.130   8.163  0.9206  0.7403 -2.0678
  929MOL0     H25365   6.132   9.282   8.112  0.3635 -0.6855 -0.5506
  929MOL0     H25366   5.971   8.975   8.266  0.5191 -0.8660 -2.8410
  929MOL0     H25367   5.818   8.973   8.470  0.7547 -0.1241 -0.1108
  929MOL0     H25368   5.709   9.111   8.505 -2.2185 -1.7784 -0.7242
  929MOL0     H25369   5.562   9.071   8.326 -0.2803  0.8908 -2.4203
  929MOL0     H25370   5.652   8.947   8.252  0.9198  1.6144  0.0132
  929MOL0     H25371   5.510   8.924   8.513  0.4260  1.7495 -1.1854
  929MOL0     H25372   5.621   8.797   8.451  0.5065 -0.5773 -4.4199
  929MOL0     H25373   5.378   8.755   8.381  2.4828 -1.8007  0.8124
  929MOL0     H25374   5.512   8.739   8.263  0.5895  1.4574 -1.9971
  929MOL0     H25375   5.305   8.642   8.216 -0.0173 -1.6223 -0.9466
  929MOL0     H25376   5.128   8.573   8.065 -0.6355 -0.1192 -0.4390
  929MOL0     H25377   4.909   8.719   7.622  0.3340 -1.9905 -1.2634
  929MOL0     H25378   4.752   8.578   7.490  0.4032  2.1835  0.1308
  929MOL0     H25379   4.536   8.489   7.417 -0.0234 -1.5055 -1.1295
  929MOL0     H25380   4.630   8.371   7.526 -1.3087 -2.3899 -0.6804
  929MOL0     H25381   4.402   8.273   7.586 -0.3836  0.3701  0.3368
  929MOL0     H25382   4.334   8.391   7.462 -1.8032 -2.5273 -0.1887
  929MOL0     H25383   4.336   8.191   7.366 -0.5684  1.7726  0.5697
  929MOL0     H25384   4.469   8.280   7.287  1.1063 -0.9314  0.4623
  929MOL0     H25385   4.632   8.179   7.431 -1.9265  1.2295  1.4048
  929MOL0     H25386   4.576   8.077   7.304  0.3760  0.3894  0.3074
  929MOL0     H25387   4.422   7.982   7.482  1.8970 -0.6659 -3.7070
  929MOL0     H25388   4.499   8.090   7.599 -2.7469 -1.0111 -0.5737
  929MOL0     H25389   4.646   7.889   7.415 -0.9648  2.1161 -1.0164
  929MOL0     H25390   4.724   7.976   7.540  1.8561 -2.2191 -1.9302
  929MOL0     H25391   4.495   7.814   7.648  0.3580 -2.7117  0.0651
  929MOL0     H25392   4.640   7.874   7.733 -0.3154  0.2053 -0.4089
  929MOL0     H25393   4.755   7.678   7.571 -0.1213 -3.8772  0.3331
  929MOL0     H25394   4.666   7.639   7.713  1.7109 -1.6169 -1.4045
  929MOL0     H25395   4.471   8.648   7.813 -1.1684  0.1918 -1.3610
  929MOL0     H25396   4.638   8.788   7.929  2.0999  0.2463 -0.2960
  929MOL0     H25397   5.064   8.965   7.933 -1.0815 -2.3323 -1.7940
  929MOL0     H25398   5.280   9.031   8.041 -0.5052  0.4209  1.3953
  929MOL0     H25399   6.355   9.788   7.402 -1.4807  1.1568  1.8837
  929MOL0     H25400   6.187   9.971   7.375 -1.5500  0.7180  0.4846
  929MOL0     H25401   5.787  10.015   7.179 -0.5557 -2.2605  1.2172
  929MOL0     H25402   5.612  10.153   7.087 -1.7104  0.4462  0.6963
  929MOL0     H25403   5.347  10.399   7.359  0.0218  1.3535 -0.8045
  929MOL0     H25404   5.261  10.238   7.335  0.3303 -1.5002 -2.5604
  929MOL0     H25405   5.190  10.331   7.115  1.8438 -0.6051  0.5405
  929MOL0     H25406   5.295  10.471   7.145 -1.5203  2.7322  1.2069
  929MOL0     H25407   5.094  10.569   7.203  1.5259 -0.3392 -0.8827
  929MOL0     H25408   5.182  10.549   7.350 -0.0653  1.0116 -0.9918
  929MOL0     H25409   4.949  10.372   7.258 -0.2610  0.2489  0.4899
  929MOL0     H25410   5.066  10.327   7.381  3.2833 -0.1950 -2.2962
  929MOL0     H25411   4.832  10.678   7.513  2.3833  0.3635  0.9871
  929MOL0     H25412   5.481  10.261   7.480  1.4335  2.2121 -0.6123
  929MOL0     H25413   5.576  10.170   7.668 -0.2539 -0.9216 -0.1619
  929MOL0     H25414   5.623  10.006   7.657  1.2947 -1.9562 -1.3590
  929MOL0     H25415   5.747  10.136   7.676 -1.0121  1.3976 -0.2166
  930MOL0     O25416   7.759   8.817   9.654  0.0296  0.5359  0.1199
  930MOL0     C25417   7.852   8.892   9.696  0.2714  0.2006 -0.9665
  930MOL0     O25418   7.845   9.034   9.700 -0.8487  0.4568 -0.1109
  930MOL0     C25419   7.739   9.106   9.658 -0.2783  0.3709  0.5136
  930MOL0     C25420   7.629   9.128   9.737  0.0796  0.3731 -0.2530
  930MOL0     C25421   7.526   9.218   9.702 -0.1429  0.5389 -0.3974
  930MOL0     C25422   7.521   9.265   9.571 -0.4936 -0.2272  0.2343
  930MOL0     O25423   7.411   9.330   9.514  0.6049 -0.1465 -0.3418
  930MOL0     C25424   7.278   9.322   9.574  0.4586 -0.3291 -1.2893
  930MOL0     C25425   7.203   9.444   9.528  0.0268 -0.7145 -0.3116
  930MOL0     C25426   7.229   9.461   9.378  1.1463  1.0961  0.0171
  930MOL0     C25427   7.118   9.556   9.323 -0.8049  0.0500 -0.4033
  930MOL0     C25428   7.145   9.705   9.354 -0.1857  0.1097  0.3452
  930MOL0     C25429   7.022   9.793   9.336  0.2889  0.2563  0.4576
  930MOL0     C25430   7.026   9.941   9.385  0.1562  0.7665  0.1527
  930MOL0     C25431   7.060   9.963   9.530 -0.5896  0.1450  0.7032
  930MOL0     N25432   7.205   9.937   9.568  0.0495 -0.9556  0.3531
  930MOL0     C25433   7.317   9.956   9.492  0.2115 -1.1586 -0.1563
  930MOL0     C25434   7.427   9.903   9.559 -0.0696  0.3462 -0.4936
  930MOL0     C25435   7.576   9.901   9.515  0.0638 -0.1850 -0.4001
  930MOL0     C25436   7.630   9.754   9.530 -0.9459  0.0752 -0.3729
  930MOL0     C25437   7.581   9.659   9.418  0.8816  0.3015 -0.7556
  930MOL0     C25438   7.670   9.540   9.386  0.7127 -0.7281  0.2551
  930MOL0     O25439   7.784   9.569   9.317 -0.4232  0.5300  0.9876
  930MOL0     C25440   7.862   9.458   9.299 -0.1229 -0.4897  0.2384
  930MOL0     C25441   7.849   9.373   9.190 -0.3189 -0.1739  0.4470
  930MOL0     C25442   7.940   9.267   9.157  0.3801  0.1410 -0.4080
  930MOL0     C25443   8.037   9.240   9.256 -0.4424 -0.1578 -1.1551
  930MOL0     C25444   8.136   9.129   9.240  0.5665  0.2398 -0.8592
  930MOL0     O25445   8.103   9.026   9.156  0.5256 -0.1808  0.0945
  930MOL0     C25446   8.203   8.945   9.103  0.2273 -1.4141  0.6128
  930MOL0     C25447   8.329   8.992   9.068  0.5089 -1.2086  0.3205
  930MOL0     C25448   8.425   8.911   9.024 -0.4781 -0.1542  0.7925
  930MOL0     C25449   8.406   8.773   9.003  0.2182 -0.6608  0.7946
  930MOL0     O25450   8.520   8.701   8.994 -0.4666  0.1129 -0.1940
  930MOL0     C25451   8.507   8.554   8.982  0.0015 -0.8556  0.0108
  930MOL0     C25452   8.478   8.510   8.830  0.4673  0.4967 -0.4998
  930MOL0     C25453   8.478   8.350   8.826  0.2734 -0.8017  0.0570
  930MOL0     C25454   8.618   8.291   8.826  0.4736  1.0340  0.1899
  930MOL0     C25455   8.690   8.325   8.697 -0.2122 -0.8668 -0.1968
  930MOL0     C25456   8.804   8.229   8.646  0.3417 -0.1155 -0.5278
  930MOL0     C25457   8.748   8.097   8.605 -0.5921 -0.4195  0.2754
  930MOL0     C25458   8.874   7.997   8.578 -0.2268 -0.2792 -0.3599
  930MOL0    Cl25459   8.826   7.821   8.612  0.0367 -0.5372  0.0155
  930MOL0     C25460   8.275   8.734   9.026 -0.2478  0.8190 -0.9248
  930MOL0     C25461   8.171   8.814   9.081 -0.0040  0.2157  0.4665
  930MOL0     O25462   8.237   9.136   9.303 -0.3639  0.5303 -0.3016
  930MOL0     C25463   8.047   9.316   9.375  0.7904  0.2332  0.2571
  930MOL0     C25464   7.961   9.424   9.388 -0.0577  1.2193  0.6560
  930MOL0     N25465   7.372   9.841   9.671  0.1932  0.2356 -0.0584
  930MOL0     N25466   7.243   9.855   9.671 -0.4932 -0.1764  0.0521
  930MOL0     C25467   7.634   9.244   9.493  0.1358 -0.1739  0.7534
  930MOL0     C25468   7.745   9.173   9.539  0.9115 -0.4126 -0.5617
  930MOL0     C25469   7.978   8.831   9.743  0.1179  0.0516  0.3289
  930MOL0     C25470   8.097   8.898   9.711  0.6105 -0.0314  0.5723
  930MOL0     C25471   8.225   8.849   9.735 -0.8065  0.5582 -0.9648
  930MOL0     C25472   8.233   8.729   9.820 -0.5766  0.3485 -0.8787
  930MOL0     O25473   8.362   8.692   9.856  0.2093 -0.2856 -1.5911
  930MOL0     C25474   8.378   8.678  10.001 -0.2538 -0.2078 -0.5210
  930MOL0     C25475   8.525   8.687  10.043  0.0190  1.0674 -0.8774
  930MOL0     C25476   8.575   8.822  10.071  0.1832 -0.0927  0.1341
  930MOL0     C25477   8.625   8.896   9.946 -0.2744  0.0061 -0.1321
  930MOL0     C25478   8.677   9.027   9.979 -0.5148 -0.9724  0.2607
  930MOL0     C25479   8.721   9.141   9.974  0.2173  0.5978  0.0235
  930MOL0     C25480   8.113   8.667   9.862  0.2925 -0.8202 -0.3875
  930MOL0     C25481   7.987   8.711   9.818 -0.8865  0.6250 -0.5581
  930MOL0     C25482   7.860   8.623   9.844  0.3069 -0.3015 -0.7608
  930MOL0     H25483   7.626   9.083   9.835 -0.7350 -1.1259 -0.9317
  930MOL0     H25484   7.454   9.251   9.777 -0.2152 -1.2289  0.3792
  930MOL0     H25485   7.231   9.231   9.536 -1.2692  0.6596 -1.6254
  930MOL0     H25486   7.291   9.310   9.682 -0.8578  0.2388 -1.0544
  930MOL0     H25487   7.238   9.534   9.580 -0.0338 -0.5330 -0.5812
  930MOL0     H25488   7.098   9.420   9.549 -0.0083  0.1642  0.6207
  930MOL0     H25489   7.219   9.374   9.312 -4.0134  0.8834  0.6705
  930MOL0     H25490   7.322   9.515   9.357 -0.5897  2.8824 -4.2452
  930MOL0     H25491   7.124   9.544   9.215 -1.2868 -3.1103 -0.1928
  930MOL0     H25492   7.019   9.535   9.363 -0.0786 -0.2390  1.3693
  930MOL0     H25493   7.175   9.709   9.459  1.8833 -1.6889 -0.1053
  930MOL0     H25494   7.226   9.745   9.291  1.8791 -2.6605  1.0584
  930MOL0     H25495   7.012   9.807   9.228  1.7975  4.1453  0.6770
  930MOL0     H25496   6.941   9.744   9.390  0.7740  1.2508  2.1749
  930MOL0     H25497   6.931   9.991   9.366  0.6392  1.4986 -0.3988
  930MOL0     H25498   7.100   9.988   9.320  0.3029 -2.7271 -2.5459
  930MOL0     H25499   7.040  10.068   9.555  0.6272  0.9379 -1.4266
  930MOL0     H25500   6.999   9.902   9.597 -1.1202 -0.4126 -0.2760
  930MOL0     H25501   7.326  10.008   9.397  1.3584 -1.6802 -0.3418
  930MOL0     H25502   7.584   9.935   9.411  0.3326  2.3789  0.4093
  930MOL0     H25503   7.632   9.980   9.564 -1.0840 -0.9653  2.3227
  930MOL0     H25504   7.736   9.765   9.506 -0.5125 -1.9543  0.4801
  930MOL0     H25505   7.609   9.725   9.633 -1.2224  2.7396  0.4118
  930MOL0     H25506   7.565   9.724   9.331 -1.3716 -0.0429 -0.6556
  930MOL0     H25507   7.485   9.612   9.440  1.1238 -0.1399 -0.6360
  930MOL0     H25508   7.607   9.477   9.323  1.2268  0.4866 -1.5221
  930MOL0     H25509   7.694   9.486   9.479 -0.2287  1.1859  1.6950
  930MOL0     H25510   7.779   9.403   9.112  0.4789 -1.4865 -0.8329
  930MOL0     H25511   7.925   9.220   9.061 -0.8497  1.3966 -0.8579
  930MOL0     H25512   8.348   9.098   9.076  1.0707 -0.9282 -3.2184
  930MOL0     H25513   8.530   8.938   9.027  0.1591 -2.3414  0.4851
  930MOL0     H25514   8.602   8.505   9.003 -0.0101 -0.0069  2.3371
  930MOL0     H25515   8.438   8.513   9.057  2.3222 -2.2872  1.4736
  930MOL0     H25516   8.375   8.536   8.802 -0.5496  1.2688  3.2843
  930MOL0     H25517   8.543   8.567   8.764  0.7325  2.6372  1.4663
  930MOL0     H25518   8.417   8.308   8.907  2.3379  0.1925  2.2644
  930MOL0     H25519   8.419   8.312   8.742 -2.1211 -1.1565  1.8099
  930MOL0     H25520   8.596   8.184   8.833 -3.8764  1.6474 -0.5948
  930MOL0     H25521   8.684   8.320   8.908  0.6225  1.1554  0.0290
  930MOL0     H25522   8.729   8.426   8.715  0.2326 -0.7364 -1.7607
  930MOL0     H25523   8.610   8.333   8.623  0.1984 -1.9347 -0.7690
  930MOL0     H25524   8.868   8.274   8.570 -0.4266  2.6405  0.3471
  930MOL0     H25525   8.858   8.208   8.739 -0.2544 -2.9989 -0.7215
  930MOL0     H25526   8.679   8.104   8.520  0.7565 -0.4652 -0.8619
  930MOL0     H25527   8.705   8.048   8.692  1.9405 -2.1882  0.6407
  930MOL0     H25528   8.895   8.015   8.472  0.2622 -0.1805 -0.2505
  930MOL0     H25529   8.963   8.021   8.636  0.8117 -1.0916 -1.5559
  930MOL0     H25530   8.234   8.636   9.002 -0.1408 -0.4022  3.1422
  930MOL0     H25531   8.068   8.780   9.084  0.8412 -2.6707  0.1652
  930MOL0     H25532   8.118   9.300   9.456  2.0739  0.5210 -0.7697
  930MOL0     H25533   7.972   9.485   9.477  0.7564  0.8768  0.8002
  930MOL0     H25534   7.636   9.273   9.388  0.1464  3.6532  1.6745
  930MOL0     H25535   7.831   9.171   9.473  1.1227  3.2783 -0.6164
  930MOL0     H25536   8.101   8.984   9.645 -0.2731 -1.0261 -0.8130
  930MOL0     H25537   8.321   8.896   9.716 -1.5585  2.0986 -1.1463
  930MOL0     H25538   8.331   8.581  10.018 -0.5482 -0.1770 -1.1365
  930MOL0     H25539   8.325   8.754  10.059  1.2869  1.3443 -1.0559
  930MOL0     H25540   8.580   8.635   9.965  0.7722  1.1928 -0.4428
  930MOL0     H25541   8.541   8.633  10.137 -0.8926 -0.8231 -1.7656
  930MOL0     H25542   8.655   8.812  10.145 -0.0213  1.2787  0.5754
  930MOL0     H25543   8.498   8.884  10.119  0.8154  0.0506  0.9836
  930MOL0     H25544   8.702   8.840   9.891 -2.5505 -2.4387 -1.0628
  930MOL0     H25545   8.541   8.904   9.876  0.3958 -1.4234 -1.1640
  930MOL0     H25546   8.775   9.232   9.957  1.9763 -0.6544 -1.5626
  930MOL0     H25547   8.122   8.577   9.922 -0.4798  0.1425  1.2508
  930MOL0     H25548   7.778   8.677   9.890  0.3316  0.0809 -1.1639
  930MOL0     H25549   7.828   8.585   9.746  0.1515 -2.1246 -0.0459
  930MOL0     H25550   7.895   8.550   9.918  3.7680  0.1215 -1.7770
  931MOL0     O25551   1.517   4.518   4.370 -0.3789  0.2663 -0.2426
  931MOL0     C25552   1.482   4.398   4.349  0.3212 -0.0890  0.9305
  931MOL0     O25553   1.499   4.301   4.437 -0.2874  0.1543  1.0046
  931MOL0     C25554   1.524   4.172   4.403 -0.6057 -0.0787  0.6267
  931MOL0     C25555   1.574   4.136   4.280  0.4283 -0.0837 -0.3327
  931MOL0     C25556   1.582   3.998   4.243 -0.7694 -0.8509 -0.1427
  931MOL0     C25557   1.559   3.897   4.332 -0.5623 -0.6742  0.2145
  931MOL0     O25558   1.578   3.771   4.282  0.1993 -0.4603 -0.9908
  931MOL0     C25559   1.479   3.672   4.323 -0.3400 -0.0844 -0.4424
  931MOL0     C25560   1.554   3.545   4.384  0.0472  0.1353  0.0817
  931MOL0     C25561   1.645   3.468   4.284 -0.1073  0.5241 -0.4705
  931MOL0     C25562   1.702   3.336   4.357  0.3440 -0.6382  0.2615
  931MOL0     C25563   1.788   3.248   4.273  0.2965  0.5576 -0.8148
  931MOL0     C25564   1.726   3.192   4.145 -0.8902 -0.3336  0.3190
  931MOL0     C25565   1.746   3.270   4.012 -0.4559 -0.4614  0.5147
  931MOL0     C25566   1.880   3.247   3.938 -0.2888 -0.7109  0.3691
  931MOL0     N25567   1.889   3.315   3.811 -0.1998 -1.0512  0.3312
  931MOL0     C25568   2.008   3.346   3.742  0.8065  0.2846  0.0711
  931MOL0     C25569   1.973   3.415   3.629 -0.9238 -0.5631  0.0426
  931MOL0     C25570   2.061   3.450   3.507  1.4377  0.7853 -0.6481
  931MOL0     C25571   2.137   3.577   3.536  0.6821 -0.3489 -0.6117
  931MOL0     C25572   2.257   3.578   3.638  0.3540 -0.2784 -0.2998
  931MOL0     C25573   2.387   3.512   3.592  0.2765 -0.4654 -1.1930
  931MOL0     O25574   2.390   3.376   3.628  0.6337 -0.8548  0.1204
  931MOL0     C25575   2.483   3.294   3.574  0.2283  0.5399 -0.5837
  931MOL0     C25576   2.609   3.327   3.525 -0.1604  0.1131 -0.2839
  931MOL0     C25577   2.693   3.228   3.477  0.1516  0.0654 -0.6309
  931MOL0     C25578   2.662   3.091   3.471  0.6841 -0.4949 -0.3606
  931MOL0     C25579   2.753   2.985   3.412  0.8659  0.4728  0.0013
  931MOL0     O25580   2.854   3.032   3.337  0.2038 -0.1619 -0.0482
  931MOL0     C25581   2.924   2.950   3.253  0.0459  0.2692 -0.1321
  931MOL0     C25582   3.060   2.993   3.230  0.6882 -0.5202 -0.7522
  931MOL0     C25583   3.145   2.922   3.156 -0.1122 -0.6719 -0.0873
  931MOL0     C25584   3.106   2.802   3.106  0.1288 -0.2848  0.4059
  931MOL0     O25585   3.179   2.715   3.023  0.2826  0.9337  0.3443
  931MOL0     C25586   3.315   2.711   3.043 -0.4153  0.1103 -0.1593
  931MOL0     C25587   3.357   2.637   3.183 -0.6010  0.2339  0.4306
  931MOL0     C25588   3.508   2.617   3.200  0.3835  0.0114 -0.4013
  931MOL0     C25589   3.581   2.750   3.237 -1.2180  0.2818 -0.9895
  931MOL0     C25590   3.736   2.753   3.208  0.7020 -0.1024  0.1472
  931MOL0     C25591   3.812   2.614   3.261  0.3569 -0.5318 -0.4374
  931MOL0     C25592   3.967   2.620   3.268  0.5238  1.0981  0.4208
  931MOL0     C25593   4.009   2.492   3.324  0.0282  0.0799 -0.4717
  931MOL0    Cl25594   4.171   2.519   3.394 -0.3312 -0.0228  0.0513
  931MOL0     C25595   2.978   2.761   3.119  0.3666 -0.2540  0.8183
  931MOL0     C25596   2.885   2.836   3.189 -0.8183 -0.5200 -0.1637
  931MOL0     O25597   2.727   2.861   3.429 -0.6546  0.0216  0.1672
  931MOL0     C25598   2.527   3.059   3.504 -1.0267 -0.6662 -0.3859
  931MOL0     C25599   2.443   3.160   3.558  0.8907  0.5362 -0.4471
  931MOL0     N25600   1.836   3.417   3.627  0.4109 -0.1369  0.0166
  931MOL0     N25601   1.789   3.350   3.724  0.2213 -0.0210 -0.3433
  931MOL0     C25602   1.516   3.941   4.455 -0.6055 -0.4947  0.1402
  931MOL0     C25603   1.504   4.078   4.498 -1.0726 -0.0300  0.0884
  931MOL0     C25604   1.395   4.365   4.229  0.0603 -0.0794 -0.3633
  931MOL0     C25605   1.281   4.279   4.241  0.4086 -0.1645 -1.3601
  931MOL0     C25606   1.198   4.245   4.132 -0.1772  0.3508  0.4713
  931MOL0     C25607   1.217   4.316   4.009 -0.4177 -0.1308  0.4043
  931MOL0     O25608   1.131   4.315   3.905  0.0580  0.0273 -0.1672
  931MOL0     C25609   1.060   4.186   3.895 -0.7306 -0.2464  0.7668
  931MOL0     C25610   0.989   4.172   3.759 -0.4536 -0.1489 -0.8270
  931MOL0     C25611   0.913   4.038   3.756  0.3722 -0.0028 -0.5050
  931MOL0     C25612   0.796   4.031   3.842 -0.9587  0.5736 -0.2644
  931MOL0     C25613   0.824   3.960   3.971  0.4425 -1.0387  0.1913
  931MOL0     C25614   0.832   3.916   4.085 -0.5703  0.3472  0.1177
  931MOL0     C25615   1.332   4.389   3.992  1.1120  0.3688 -0.5414
  931MOL0     C25616   1.423   4.411   4.095 -0.2794  0.3493  0.7094
  931MOL0     C25617   1.535   4.502   4.050 -0.6815  0.8077  0.6822
  931MOL0     H25618   1.606   4.208   4.206 -0.3677  2.4931  1.6883
  931MOL0     H25619   1.612   3.977   4.141 -1.4690 -0.5856 -0.4124
  931MOL0     H25620   1.401   3.711   4.389 -0.3472  0.3910 -0.7195
  931MOL0     H25621   1.428   3.636   4.233 -2.9268  0.4800  0.7034
  931MOL0     H25622   1.471   3.484   4.419 -1.6398  1.8812 -0.6763
  931MOL0     H25623   1.613   3.579   4.470 -3.5389  4.1022  1.3667
  931MOL0     H25624   1.729   3.533   4.260 -0.9641  1.3663 -1.2313
  931MOL0     H25625   1.585   3.446   4.196 -0.9091  0.6847  0.0233
  931MOL0     H25626   1.772   3.377   4.431 -1.7932 -0.5332  2.3205
  931MOL0     H25627   1.620   3.276   4.397 -0.8318  1.7817  1.7158
  931MOL0     H25628   1.879   3.299   4.241  0.4736  1.4381  0.9642
  931MOL0     H25629   1.818   3.167   4.340  2.3945 -0.0327 -2.3580
  931MOL0     H25630   1.763   3.091   4.128 -2.0011 -1.2012  2.6754
  931MOL0     H25631   1.617   3.190   4.156 -1.8127  1.6237 -5.1921
  931MOL0     H25632   1.729   3.376   4.029 -1.6838 -0.6491  0.5778
  931MOL0     H25633   1.668   3.227   3.949 -0.4069 -0.0954  0.2055
  931MOL0     H25634   1.959   3.279   4.006  2.3691 -2.9492 -1.4307
  931MOL0     H25635   1.897   3.141   3.918  1.0077 -0.4121 -0.2454
  931MOL0     H25636   2.109   3.313   3.763  1.2149 -0.0792 -2.2062
  931MOL0     H25637   2.135   3.372   3.486  0.7650  0.7016 -2.9969
  931MOL0     H25638   2.004   3.459   3.414  0.0976 -1.0590 -0.0556
  931MOL0     H25639   2.170   3.616   3.439 -0.7228  1.5766 -0.3716
  931MOL0     H25640   2.061   3.643   3.578  1.4098 -1.5544  2.9378
  931MOL0     H25641   2.216   3.530   3.727 -3.9872 -0.6545 -2.2390
  931MOL0     H25642   2.275   3.678   3.680 -0.1266 -0.9781  1.6581
  931MOL0     H25643   2.467   3.566   3.643 -0.7919  0.2467 -0.2373
  931MOL0     H25644   2.405   3.529   3.485  2.2336  0.2887 -0.7840
  931MOL0     H25645   2.648   3.428   3.514  1.4209 -0.7025 -3.4295
  931MOL0     H25646   2.785   3.258   3.428  0.1460 -1.4075 -1.6401
  931MOL0     H25647   3.080   3.094   3.264 -0.5634 -0.0225 -1.4203
  931MOL0     H25648   3.247   2.956   3.136 -0.0053  0.6499  2.3286
  931MOL0     H25649   3.356   2.647   2.965 -0.0491 -0.0673  0.1795
  931MOL0     H25650   3.356   2.813   3.037  0.5844 -0.2809 -0.1846
  931MOL0     H25651   3.318   2.700   3.263 -0.2852  1.1395 -0.1221
  931MOL0     H25652   3.318   2.535   3.191  1.8501 -0.7429  0.9689
  931MOL0     H25653   3.535   2.547   3.280 -2.1776  0.4035  0.8806
  931MOL0     H25654   3.556   2.590   3.105 -3.4153  1.1800 -2.8834
  931MOL0     H25655   3.558   2.767   3.343 -0.8372 -1.4850 -0.5868
  931MOL0     H25656   3.544   2.836   3.181  1.8287  2.5395  0.1965
  931MOL0     H25657   3.774   2.847   3.250  0.7287 -1.1546  2.5905
  931MOL0     H25658   3.738   2.768   3.099 -4.4343  2.1948  0.0790
  931MOL0     H25659   3.778   2.594   3.363 -0.1612 -1.4625 -0.7804
  931MOL0     H25660   3.783   2.536   3.189 -1.1687  0.9878 -1.5554
  931MOL0     H25661   3.999   2.689   3.346  0.7980 -1.1829  2.4467
  931MOL0     H25662   4.015   2.639   3.171 -1.0203  2.0736 -0.1890
  931MOL0     H25663   3.932   2.475   3.400 -0.9458  1.5071 -1.0972
  931MOL0     H25664   4.010   2.411   3.251  0.1728 -1.9838  1.7001
  931MOL0     H25665   2.948   2.661   3.088 -0.1514  0.0750  0.2433
  931MOL0     H25666   2.788   2.791   3.211 -1.4161 -0.5011 -2.5312
  931MOL0     H25667   2.483   2.962   3.487 -3.7296  0.0999  1.5728
  931MOL0     H25668   2.342   3.136   3.591 -0.2264  4.5540 -0.4646
  931MOL0     H25669   1.493   3.871   4.535 -5.6874  0.3739 -0.2499
  931MOL0     H25670   1.488   4.096   4.604 -1.2114 -2.4618  0.5440
  931MOL0     H25671   1.259   4.239   4.339  0.4426 -0.9040 -1.6509
  931MOL0     H25672   1.113   4.182   4.157  0.2239 -0.1240  0.6700
  931MOL0     H25673   0.987   4.191   3.976 -1.3134 -1.3325  0.3290
  931MOL0     H25674   1.132   4.108   3.921  0.1763  0.3437  0.0802
  931MOL0     H25675   1.063   4.163   3.678  0.5835 -0.2490  0.1163
  931MOL0     H25676   0.925   4.259   3.740 -4.1799 -1.8504  2.4273
  931MOL0     H25677   0.985   3.967   3.798  0.7503  0.5395 -0.2237
  931MOL0     H25678   0.880   4.015   3.654 -0.8826 -2.3849  0.3826
  931MOL0     H25679   0.762   4.133   3.864 -2.6079  0.1453 -0.6706
  931MOL0     H25680   0.711   3.989   3.787 -1.1965 -0.4757  0.8371
  931MOL0     H25681   0.819   3.867   4.179 -0.0108  3.7016  2.1275
  931MOL0     H25682   1.335   4.439   3.896 -3.9119  1.9437 -0.1781
  931MOL0     H25683   1.527   4.607   4.080 -0.4622  1.6623 -1.9512
  931MOL0     H25684   1.620   4.452   4.099 -2.9104 -2.5106  1.5086
  931MOL0     H25685   1.563   4.493   3.944  1.8815  0.6711  1.2953
  932MOL0     O25686   4.882   9.103  11.177 -0.6407 -0.2840 -0.0783
  932MOL0     C25687   4.834   9.066  11.065 -0.2028 -1.4014 -1.1660
  932MOL0     O25688   4.912   9.032  10.956  0.0094  0.4045  0.1990
  932MOL0     C25689   5.046   9.028  10.969  0.9703 -0.4589 -0.6375
  932MOL0     C25690   5.120   9.146  10.963  0.8239  0.0573  0.0411
  932MOL0     C25691   5.254   9.144  10.962  0.3837 -0.4118  0.1370
  932MOL0     C25692   5.316   9.017  10.969 -0.4062  0.2605 -0.0128
  932MOL0     O25693   5.452   9.012  10.962  0.0011 -0.1441 -1.1065
  932MOL0     C25694   5.525   8.970  11.077 -0.0011  0.3335 -0.1779
  932MOL0     C25695   5.647   9.059  11.094 -0.3862 -0.1827 -0.9694
  932MOL0     C25696   5.745   9.044  10.987 -0.1975  0.5329  0.1850
  932MOL0     C25697   5.870   9.133  10.997  0.7870 -0.0555 -1.0648
  932MOL0     C25698   5.957   9.090  11.117  0.2661 -0.9849  0.2609
  932MOL0     C25699   6.100   9.139  11.096  0.3330 -0.5310 -0.0091
  932MOL0     C25700   6.101   9.294  11.095 -0.2097  0.8053  0.0565
  932MOL0     C25701   6.230   9.333  11.156  0.7920 -0.1553 -0.9495
  932MOL0     N25702   6.333   9.338  11.049  0.1629 -0.3422  1.0162
  932MOL0     C25703   6.392   9.228  10.993  0.0472  0.2879  1.5473
  932MOL0     C25704   6.462   9.283  10.890 -0.7350 -0.2898  0.3505
  932MOL0     C25705   6.563   9.200  10.809 -0.5150 -0.0404  0.4614
  932MOL0     C25706   6.581   9.250  10.657  0.3500  0.3070  0.1790
  932MOL0     C25707   6.691   9.166  10.590 -0.3007 -0.1589 -0.1125
  932MOL0     C25708   6.723   9.227  10.448 -0.4099  0.4688 -0.3129
  932MOL0     O25709   6.839   9.165  10.380 -0.0790 -0.3829  0.5856
  932MOL0     C25710   6.966   9.195  10.428 -0.2094 -0.6431 -0.0086
  932MOL0     C25711   7.062   9.116  10.369 -0.5193 -0.1061 -0.3640
  932MOL0     C25712   7.194   9.112  10.426  0.3245  0.7987  0.2328
  932MOL0     C25713   7.237   9.221  10.496 -0.2071  0.2475 -0.0203
  932MOL0     C25714   7.377   9.224  10.556 -0.0485 -1.1346 -0.4982
  932MOL0     O25715   7.411   9.341  10.619 -0.1814  0.0086  0.0368
  932MOL0     C25716   7.543   9.365  10.626 -1.0703 -0.3433 -1.1136
  932MOL0     C25717   7.613   9.421  10.515 -0.3508 -0.7530  0.3417
  932MOL0     C25718   7.753   9.435  10.510  0.4568  1.2193 -0.6406
  932MOL0     C25719   7.825   9.403  10.625  0.0476 -0.2055  0.3513
  932MOL0     O25720   7.964   9.410  10.622 -0.1477  0.7430 -0.1485
  932MOL0     C25721   8.044   9.427  10.731 -0.2790 -1.0202 -0.2326
  932MOL0     C25722   8.045   9.586  10.752  0.1202  0.3307  0.5222
  932MOL0     C25723   8.093   9.665  10.623  0.5922 -0.0636 -0.1866
  932MOL0     C25724   8.139   9.810  10.652 -0.3997 -0.6770  0.9268
  932MOL0     C25725   8.201   9.860  10.513 -0.2361 -0.2258 -0.0893
  932MOL0     C25726   8.356   9.826  10.509  0.2669 -0.4581  0.4643
  932MOL0     C25727   8.398   9.858  10.362 -0.7243  0.0313  0.5124
  932MOL0     C25728   8.542   9.803  10.332 -0.3545  1.0027  0.4704
  932MOL0    Cl25729   8.664   9.900  10.416 -0.3264  0.0676 -0.3106
  932MOL0     C25730   7.757   9.350  10.738 -0.5246  0.2241  0.5084
  932MOL0     C25731   7.624   9.318  10.732  0.1957  0.9168 -0.4604
  932MOL0     O25732   7.454   9.123  10.550  0.9438  0.2603  0.1545
  932MOL0     C25733   7.146   9.312  10.534  0.0130 -0.9529  0.1822
  932MOL0     C25734   7.009   9.297  10.517  0.0269  0.1799  1.2626
  932MOL0     N25735   6.451   9.419  10.891 -0.2681 -0.3134  0.4859
  932MOL0     N25736   6.377   9.454  10.987  0.6734 -0.0015 -0.6629
  932MOL0     C25737   5.249   8.897  10.987  0.4219  0.4514 -0.2341
  932MOL0     C25738   5.110   8.901  10.983 -0.4792 -0.3006 -0.6790
  932MOL0     C25739   4.684   9.065  11.047  0.4988  0.0219 -0.4033
  932MOL0     C25740   4.613   9.068  11.167 -0.6204 -0.8171  0.2564
  932MOL0     C25741   4.475   9.088  11.170 -0.2017 -0.4731 -0.4207
  932MOL0     C25742   4.401   9.099  11.047  0.5380 -0.7982 -0.3682
  932MOL0     O25743   4.267   9.135  11.063  0.0483 -0.4780  0.2545
  932MOL0     C25744   4.181   9.016  11.044 -0.8333  0.2771 -0.1041
  932MOL0     C25745   4.118   9.014  10.903 -0.3568  0.8560 -0.4620
  932MOL0     C25746   4.047   8.879  10.887  0.6254  0.1352  1.2600
  932MOL0     C25747   3.988   8.858  10.741 -0.8239 -0.9621 -0.1024
  932MOL0     C25748   3.920   8.732  10.729 -0.2953 -0.6197  0.0128
  932MOL0     C25749   3.887   8.618  10.729 -0.4150  0.2554  0.7801
  932MOL0     C25750   4.469   9.079  10.931  0.4359  0.4775 -0.1497
  932MOL0     C25751   4.611   9.062  10.928  0.9029  0.8329 -0.9894
  932MOL0     C25752   4.672   9.066  10.800 -0.0790 -0.3570  0.2784
  932MOL0     H25753   5.059   9.235  10.955 -1.8920 -1.6610  0.4765
  932MOL0     H25754   5.317   9.230  10.947 -0.2025 -0.2485 -1.6027
  932MOL0     H25755   5.462   8.987  11.165 -1.3235 -0.5600 -0.9354
  932MOL0     H25756   5.536   8.862  11.071  1.4695  0.5439 -4.6911
  932MOL0     H25757   5.694   9.032  11.190 -1.2475  1.7238  0.0516
  932MOL0     H25758   5.625   9.166  11.104  0.2309 -0.0895 -0.4931
  932MOL0     H25759   5.701   9.064  10.889 -3.8952  1.9245  1.9095
  932MOL0     H25760   5.781   8.941  10.994  0.8979  1.0331  3.7462
  932MOL0     H25761   5.943   9.114  10.918  1.2576 -1.4562 -0.3332
  932MOL0     H25762   5.847   9.239  10.995  1.3635  0.0644 -1.6340
  932MOL0     H25763   5.913   9.121  11.212  0.6342 -4.2259  1.6301
  932MOL0     H25764   5.971   8.981  11.118 -2.4172 -1.4022  1.1615
  932MOL0     H25765   6.168   9.105  11.175 -2.0204 -3.7228  0.8140
  932MOL0     H25766   6.146   9.101  11.005  3.9621  1.6199  0.7248
  932MOL0     H25767   6.010   9.323  11.149  0.3383  0.0031  1.4640
  932MOL0     H25768   6.094   9.335  10.994 -0.4844  4.4311  1.3928
  932MOL0     H25769   6.217   9.437  11.188 -1.0854 -1.0643  1.5737
  932MOL0     H25770   6.262   9.270  11.239 -2.3088 -3.3274 -1.8961
  932MOL0     H25771   6.392   9.124  11.024 -1.7028  0.9004  3.9071
  932MOL0     H25772   6.664   9.208  10.850 -0.3291  0.1846 -0.0221
  932MOL0     H25773   6.527   9.097  10.809 -1.8027  0.3232 -2.0477
  932MOL0     H25774   6.489   9.243  10.598  0.3009  3.6515 -0.3489
  932MOL0     H25775   6.618   9.353  10.663  1.3581 -0.0059 -0.3296
  932MOL0     H25776   6.650   9.065  10.582 -1.3634  0.2589 -0.2407
  932MOL0     H25777   6.778   9.162  10.655  0.4189  0.0978 -1.0478
  932MOL0     H25778   6.742   9.333  10.463 -2.3104  0.7143  0.6355
  932MOL0     H25779   6.632   9.217  10.388  0.5376 -3.2305 -1.4503
  932MOL0     H25780   7.027   9.041  10.300  1.3132 -0.6671 -0.7353
  932MOL0     H25781   7.269   9.039  10.397  0.7038  1.0842  0.4931
  932MOL0     H25782   7.562   9.440  10.421  0.1081 -1.9923 -0.1838
  932MOL0     H25783   7.812   9.473  10.428  1.6943  1.7301  0.4379
  932MOL0     H25784   8.008   9.378  10.822  0.1952 -0.1016  0.4763
  932MOL0     H25785   8.149   9.397  10.722  0.1876  0.7074 -1.0854
  932MOL0     H25786   7.948   9.632  10.772  0.2377  0.5627  0.5708
  932MOL0     H25787   8.101   9.615  10.841 -2.9913 -0.9358  3.0741
  932MOL0     H25788   8.174   9.602  10.582 -0.8527 -1.7512 -0.5938
  932MOL0     H25789   8.010   9.664  10.552  1.1491  1.7892 -0.9142
  932MOL0     H25790   8.213   9.802  10.731  3.8432 -1.2048 -2.7109
  932MOL0     H25791   8.059   9.882  10.674  0.9754  1.7091 -1.3270
  932MOL0     H25792   8.189   9.969  10.508 -1.1885 -0.2559  1.1398
  932MOL0     H25793   8.152   9.823  10.422  0.4253  0.3471 -0.6905
  932MOL0     H25794   8.417   9.891  10.572  0.7452  0.3510 -0.7976
  932MOL0     H25795   8.377   9.726  10.546 -2.0268 -0.4940  1.9118
  932MOL0     H25796   8.406   9.966  10.344  0.5601 -0.4050 -1.9452
  932MOL0     H25797   8.321   9.818  10.296 -1.0956  2.3258 -0.5368
  932MOL0     H25798   8.548   9.696  10.355 -0.8472  1.2815  1.9970
  932MOL0     H25799   8.552   9.801  10.223 -2.9012 -0.6335  0.1860
  932MOL0     H25800   7.810   9.323  10.829 -3.5992 -2.3381  1.6953
  932MOL0     H25801   7.579   9.259  10.811  0.9925 -0.2518 -0.8549
  932MOL0     H25802   7.174   9.394  10.600 -0.3000 -0.5519 -0.1814
  932MOL0     H25803   6.937   9.351  10.578  0.8829  0.1278  2.3409
  932MOL0     H25804   5.298   8.801  11.004 -1.6036 -0.2850  2.0545
  932MOL0     H25805   5.050   8.811  10.995 -0.5252 -0.3366 -1.1739
  932MOL0     H25806   4.661   9.062  11.264  2.8636  2.3478 -1.0443
  932MOL0     H25807   4.430   9.091  11.269 -0.7909  1.5865 -0.7179
  932MOL0     H25808   4.107   9.016  11.125 -0.9650 -0.5498 -0.2222
  932MOL0     H25809   4.233   8.920  11.041 -2.7464 -0.8026 -0.3345
  932MOL0     H25810   4.196   9.008  10.827 -1.3772  1.0990 -1.5552
  932MOL0     H25811   4.056   9.103  10.887  0.0663  1.5308  1.3894
  932MOL0     H25812   3.958   8.872  10.950 -0.1513 -0.8522  0.1151
  932MOL0     H25813   4.127   8.805  10.889  2.0130  1.2918 -2.4339
  932MOL0     H25814   3.921   8.943  10.728 -1.0713 -1.1021  0.2602
  932MOL0     H25815   4.066   8.851  10.664 -0.0424 -1.0752  0.6818
  932MOL0     H25816   3.841   8.521  10.730 -1.6446  0.8220  0.7439
  932MOL0     H25817   4.406   9.081  10.843  0.2035 -2.5409 -0.1711
  932MOL0     H25818   4.595   9.072  10.723 -0.4462 -2.1997  0.4616
  932MOL0     H25819   4.735   9.155  10.793  0.4581 -0.6059  1.7615
  932MOL0     H25820   4.735   8.979  10.776  1.6977  1.0840 -0.5290
  933MOL0     O25821   3.492   8.721  10.997 -0.9002 -0.2932  0.5220
  933MOL0     C25822   3.457   8.643  11.089  0.5673 -0.1725 -0.6352
  933MOL0     O25823   3.496   8.645  11.214 -0.3318  0.2709  0.2157
  933MOL0     C25824   3.615   8.709  11.245 -0.8738 -0.0611 -1.2412
  933MOL0     C25825   3.746   8.672  11.203 -0.5275  0.6489 -1.0141
  933MOL0     C25826   3.858   8.752  11.234  0.6069 -0.6687  0.2432
  933MOL0     C25827   3.835   8.857  11.330 -0.4054  0.4234 -0.2636
  933MOL0     O25828   3.931   8.937  11.378  0.2932 -0.3709 -0.8425
  933MOL0     C25829   4.052   8.877  11.391 -0.6635 -0.1850  0.4950
  933MOL0     C25830   4.135   8.927  11.514  0.0122  0.6503  0.5435
  933MOL0     C25831   4.273   8.848  11.523  0.2507  0.4089 -0.9353
  933MOL0     C25832   4.361   8.896  11.644  0.4180  0.7662  0.5793
  933MOL0     C25833   4.433   9.028  11.604  0.3193 -0.8198  1.6287
  933MOL0     C25834   4.525   9.075  11.719  0.9855  0.5029  0.6222
  933MOL0     C25835   4.663   9.008  11.710 -0.5024 -1.1291 -0.7397
  933MOL0     C25836   4.758   9.076  11.813 -0.0062 -0.5975  0.4401
  933MOL0     N25837   4.876   8.990  11.829  0.3803 -0.8489 -0.0091
  933MOL0     C25838   4.997   9.002  11.766 -0.2739 -0.2129 -0.5746
  933MOL0     C25839   5.074   8.892  11.800  1.4823  0.1347 -0.2075
  933MOL0     C25840   5.215   8.862  11.758  0.3119 -0.3953 -0.7634
  933MOL0     C25841   5.313   8.851  11.876 -0.1594  0.5247 -0.1397
  933MOL0     C25842   5.454   8.815  11.820  0.0641  0.1534 -0.5068
  933MOL0     C25843   5.557   8.795  11.925 -0.1065  1.1800  0.6563
  933MOL0     O25844   5.642   8.914  11.945  0.3463  0.2674  0.6852
  933MOL0     C25845   5.739   8.907  12.045  0.4473  0.5891  0.7760
  933MOL0     C25846   5.818   9.022  12.061  0.0788 -0.1407 -0.6693
  933MOL0     C25847   5.940   9.021  12.133  0.5445 -0.1945 -0.2751
  933MOL0     C25848   5.983   8.901  12.192 -0.5971  0.4698 -0.0554
  933MOL0     C25849   6.119   8.914  12.254  0.5469 -0.4259  0.3280
  933MOL0     O25850   6.162   8.798  12.316 -0.2587 -0.1624 -0.0299
  933MOL0     C25851   6.289   8.779  12.371  0.4366 -0.2959  0.5825
  933MOL0     C25852   6.354   8.883  12.444  0.2666  0.9423 -0.0068
  933MOL0     C25853   6.496   8.870  12.473 -0.2235 -0.0641 -0.6128
  933MOL0     C25854   6.560   8.755  12.437  0.3667  0.3566 -0.3601
  933MOL0     O25855   6.689   8.744  12.475 -0.0561  0.2971  0.1566
  933MOL0     C25856   6.771   8.624  12.479 -0.8770 -1.1654 -0.1489
  933MOL0     C25857   6.922   8.693  12.475 -0.5353  0.0304 -0.7981
  933MOL0     C25858   6.957   8.769  12.605 -0.5428 -0.2196  1.0479
  933MOL0     C25859   6.992   8.669  12.717  0.1552 -0.0988 -0.0702
  933MOL0     C25860   7.013   8.752  12.843 -0.7413 -0.0745 -0.4860
  933MOL0     C25861   7.058   8.674  12.957 -1.0474  0.4382 -0.0201
  933MOL0     C25862   7.103   8.764  13.069 -0.2990 -0.5330  0.4383
  933MOL0     C25863   7.127   8.682  13.198  0.6702 -0.3837 -0.2805
  933MOL0    Cl25864   7.193   8.797  13.319 -0.1288  0.1972  0.4399
  933MOL0     C25865   6.486   8.656  12.371 -0.6500  0.0391  0.2973
  933MOL0     C25866   6.352   8.666  12.339  0.2226  0.3027  0.6855
  933MOL0     O25867   6.188   9.016  12.240  0.9839  0.3178 -0.8315
  933MOL0     C25868   5.899   8.786  12.184 -1.2360 -0.5159  1.0014
  933MOL0     C25869   5.781   8.793  12.111 -0.9665  0.4358 -0.4820
  933MOL0     N25870   4.991   8.823  11.893  0.1925  0.4416  0.1748
  933MOL0     N25871   4.879   8.880  11.907  0.1953  0.2190 -0.5162
  933MOL0     C25872   3.706   8.889  11.363 -0.1530  0.2540 -0.0518
  933MOL0     C25873   3.596   8.815  11.326  0.6719 -0.4486  0.2900
  933MOL0     C25874   3.354   8.530  11.061 -0.6527 -1.1361 -0.1436
  933MOL0     C25875   3.369   8.402  11.128  0.1293  0.2130 -0.0778
  933MOL0     C25876   3.272   8.308  11.122  0.7798  0.2609 -0.1555
  933MOL0     C25877   3.164   8.314  11.039 -0.4095  0.5437 -0.9370
  933MOL0     O25878   3.067   8.206  11.041 -0.3316  0.6968  0.8598
  933MOL0     C25879   2.953   8.201  10.951  0.0747  0.9857  0.1131
  933MOL0     C25880   2.829   8.292  10.982  0.0115  0.6480  0.1806
  933MOL0     C25881   2.804   8.301  11.134 -0.1655 -0.2043 -0.0387
  933MOL0     C25882   2.691   8.406  11.180  0.5022  0.7800 -0.2706
  933MOL0     C25883   2.673   8.392  11.326  0.7998  0.6959  0.4289
  933MOL0     C25884   2.681   8.366  11.442 -0.2904  0.3608 -0.4868
  933MOL0     C25885   3.148   8.436  10.969 -0.4799 -1.0110 -0.6117
  933MOL0     C25886   3.239   8.545  10.983 -0.5365  0.5413 -0.2440
  933MOL0     C25887   3.206   8.668  10.923  0.4211 -1.1461  0.1615
  933MOL0     H25888   3.747   8.595  11.127 -0.6224  1.5171 -1.9176
  933MOL0     H25889   3.957   8.720  11.205  0.7623 -0.9487  1.0376
  933MOL0     H25890   4.045   8.769  11.406 -1.4075 -0.7559 -2.9571
  933MOL0     H25891   4.107   8.895  11.298  0.3454 -1.4660  0.8180
  933MOL0     H25892   4.073   8.925  11.604 -2.6384  3.4984 -1.0319
  933MOL0     H25893   4.160   9.033  11.502 -1.2770  0.7879 -1.3707
  933MOL0     H25894   4.330   8.870  11.432  4.2340  0.3278  1.2858
  933MOL0     H25895   4.255   8.741  11.541  0.7722  0.6523  1.4206
  933MOL0     H25896   4.301   8.899  11.735 -2.8177 -1.5918 -1.2596
  933MOL0     H25897   4.443   8.827  11.665 -0.3519  0.0883  1.4128
  933MOL0     H25898   4.498   9.003  11.520  0.8608  2.7540  0.8355
  933MOL0     H25899   4.356   9.099  11.574  0.4018 -0.5309  2.0994
  933MOL0     H25900   4.529   9.184  11.722 -0.5130  0.6695 -1.4200
  933MOL0     H25901   4.470   9.044  11.808 -0.8140 -0.6194 -0.7920
  933MOL0     H25902   4.706   9.025  11.611  0.0943  0.2871 -0.2650
  933MOL0     H25903   4.648   8.904  11.741 -1.0403 -0.0777  2.9698
  933MOL0     H25904   4.781   9.181  11.794 -1.5906 -0.4955 -1.2070
  933MOL0     H25905   4.704   9.077  11.908 -0.8721 -1.4646 -0.0229
  933MOL0     H25906   5.020   9.084  11.699 -0.7630  0.6191  0.2539
  933MOL0     H25907   5.229   8.765  11.709 -0.5750 -1.0529  0.2409
  933MOL0     H25908   5.256   8.939  11.691 -0.4967 -0.9861 -1.9780
  933MOL0     H25909   5.321   8.950  11.922 -0.5467  0.8066 -0.6657
  933MOL0     H25910   5.282   8.776  11.950 -0.1670 -0.7392 -1.3893
  933MOL0     H25911   5.500   8.896  11.763  0.6443  1.1870  1.3518
  933MOL0     H25912   5.447   8.738  11.742  2.3418 -0.2966 -0.3294
  933MOL0     H25913   5.628   8.718  11.893 -1.1408  0.1426  0.7885
  933MOL0     H25914   5.509   8.756  12.015  0.9008  0.5694  0.9541
  933MOL0     H25915   5.777   9.111  12.013  1.2558 -0.6224 -2.7166
  933MOL0     H25916   5.993   9.115  12.141 -2.1602  1.2726  2.5385
  933MOL0     H25917   6.307   8.977  12.468 -3.5656 -0.3560 -1.6391
  933MOL0     H25918   6.552   8.951  12.520 -1.7260 -0.0487  1.2541
  933MOL0     H25919   6.744   8.566  12.567 -1.5133  1.0789  1.2160
  933MOL0     H25920   6.760   8.573  12.383 -0.3338  1.6749 -1.8644
  933MOL0     H25921   7.003   8.622  12.455  0.2069  0.4856  0.5367
  933MOL0     H25922   6.919   8.772  12.399 -0.3648  1.6718  0.8479
  933MOL0     H25923   7.040   8.839  12.590 -0.0727 -0.4199  2.5229
  933MOL0     H25924   6.872   8.825  12.644 -1.7942 -2.9140  2.4712
  933MOL0     H25925   7.080   8.616  12.680 -0.7112  0.4275 -3.1633
  933MOL0     H25926   6.912   8.595  12.729  0.4029 -0.6251 -1.5296
  933MOL0     H25927   6.922   8.807  12.868 -1.5668 -1.6538  0.1272
  933MOL0     H25928   7.093   8.824  12.821 -2.0777  1.7146  0.2024
  933MOL0     H25929   6.973   8.610  12.982 -0.2882 -0.5597  0.0665
  933MOL0     H25930   7.145   8.616  12.925  0.8301  3.2379 -0.4242
  933MOL0     H25931   7.030   8.842  13.096  0.3811 -0.0713  0.9601
  933MOL0     H25932   7.195   8.818  13.046 -1.6200  1.0929 -1.3703
  933MOL0     H25933   7.035   8.631  13.230 -1.5776  2.8058 -1.1019
  933MOL0     H25934   7.195   8.600  13.177  1.5187  0.6163 -1.5884
  933MOL0     H25935   6.547   8.571  12.341 -1.8554 -0.5941 -0.4159
  933MOL0     H25936   6.311   8.586  12.278  1.1361 -0.0489  0.5004
  933MOL0     H25937   5.939   8.693  12.223 -0.9004 -1.9120 -2.3163
  933MOL0     H25938   5.720   8.703  12.108 -1.7281  0.8101  1.6660
  933MOL0     H25939   3.698   8.977  11.426 -2.4011  0.8151 -1.0188
  933MOL0     H25940   3.498   8.851  11.356  0.3775  1.7537 -2.8843
  933MOL0     H25941   3.452   8.393  11.197 -0.5933 -1.6242  0.6156
  933MOL0     H25942   3.285   8.223  11.188 -0.1400  1.8869  2.2723
  933MOL0     H25943   2.923   8.096  10.949  1.6418  0.4778  1.5648
  933MOL0     H25944   2.988   8.212  10.847  2.1762 -2.0198  0.3740
  933MOL0     H25945   2.745   8.235  10.939 -0.1611  2.0446 -1.4310
  933MOL0     H25946   2.844   8.387  10.931 -0.2595  1.0645  0.8663
  933MOL0     H25947   2.901   8.327  11.177  1.3414 -1.2196 -2.6031
  933MOL0     H25948   2.782   8.203  11.177  1.0010 -0.6757 -0.4588
  933MOL0     H25949   2.732   8.503  11.150  1.6183 -0.0744 -1.6450
  933MOL0     H25950   2.595   8.393  11.128 -1.3985  1.9072  2.7231
  933MOL0     H25951   2.703   8.345  11.545 -1.9113 -0.4611 -0.2793
  933MOL0     H25952   3.057   8.444  10.910 -0.4321  2.5122 -0.4031
  933MOL0     H25953   3.293   8.708  10.871  0.6525 -0.3358  1.1354
  933MOL0     H25954   3.126   8.657  10.849  0.8473 -1.8659 -0.2011
  933MOL0     H25955   3.179   8.738  11.003 -1.5642 -0.9584 -0.6247
  934MOL0     O25956   9.962   3.159   5.622  0.1647 -0.1244  0.3186
  934MOL0     C25957   9.943   3.245   5.545 -0.3377 -0.3842  0.5835
  934MOL0     O25958  10.037   3.293   5.466 -0.6218 -0.0273  0.1944
  934MOL0     C25959  10.165   3.283   5.499 -1.0320 -0.2117 -0.3176
  934MOL0     C25960  10.231   3.238   5.617 -0.2646  0.3241  0.7835
  934MOL0     C25961  10.367   3.229   5.611 -0.5929  0.5671 -0.2185
  934MOL0     C25962  10.447   3.260   5.506 -0.8146 -0.6810  0.5203
  934MOL0     O25963  10.587   3.233   5.501 -0.2202 -0.6096  0.7222
  934MOL0     C25964  10.654   3.182   5.619  0.6948 -0.1919  0.7007
  934MOL0     C25965  10.804   3.180   5.576  0.2380  0.1479  0.1158
  934MOL0     C25966  10.885   3.145   5.692  0.4321 -0.3280  0.1218
  934MOL0     C25967  11.029   3.180   5.659  0.8541  0.7365 -0.5574
  934MOL0     C25968  11.117   3.106   5.766  0.6984 -0.0904  0.6769
  934MOL0     C25969  11.271   3.134   5.754 -0.0058  0.4017  0.1010
  934MOL0     C25970  11.354   3.058   5.858 -0.7954 -0.1814 -0.2271
  934MOL0     C25971  11.501   3.060   5.822 -0.0476 -0.5100 -0.4172
  934MOL0     N25972  11.563   3.197   5.835 -0.8214 -0.1683 -1.2641
  934MOL0     C25973  11.557   3.306   5.749  0.2639 -0.6178  0.2914
  934MOL0     C25974  11.646   3.390   5.800  0.1410  0.9808  0.8105
  934MOL0     C25975  11.686   3.526   5.752  1.1640 -0.0791 -0.2401
  934MOL0     C25976  11.812   3.523   5.658  0.4589 -0.1377 -0.0494
  934MOL0     C25977  11.931   3.577   5.741 -0.2529  0.1171  0.5309
  934MOL0     C25978  11.966   3.500   5.870  0.1279  0.4705  0.0201
  934MOL0     O25979  12.079   3.569   5.931 -0.3904  0.9550 -0.3178
  934MOL0     C25980  12.147   3.488   6.021 -0.9998 -1.0103 -0.0747
  934MOL0     C25981  12.082   3.438   6.130  0.2210 -0.1023  0.0090
  934MOL0     C25982  12.142   3.362   6.229 -0.7112  0.0406 -0.1916
  934MOL0     C25983  12.281   3.350   6.226  0.1086  0.5435  0.7252
  934MOL0     C25984  12.355   3.261   6.329 -0.8542  0.3736 -0.4709
  934MOL0     O25985  12.491   3.260   6.312 -0.9290 -0.1481 -0.3968
  934MOL0     C25986  12.562   3.163   6.374 -0.5084  0.2973  0.5413
  934MOL0     C25987  12.579   3.032   6.321 -0.7764 -0.2387 -0.0471
  934MOL0     C25988  12.638   2.928   6.399  0.2373 -0.2413  0.5095
  934MOL0     C25989  12.690   2.957   6.528 -0.1304  0.3764  0.4016
  934MOL0     O25990  12.748   2.865   6.604  0.6937  0.0804  0.2225
  934MOL0     C25991  12.821   2.760   6.545 -0.2546  0.7095 -0.6103
  934MOL0     C25992  12.901   2.687   6.655 -0.7875  0.0077  0.3520
  934MOL0     C25993  13.007   2.784   6.701 -0.2479  0.6346 -0.1965
  934MOL0     C25994  13.086   2.740   6.828 -0.0404 -0.1323  0.0386
  934MOL0     C25995  13.158   2.860   6.897 -0.4405  0.4601 -0.4867
  934MOL0     C25996  13.298   2.888   6.837  0.5305 -0.8130 -0.6650
  934MOL0     C25997  13.360   2.998   6.918  0.5116  0.4898 -0.2286
  934MOL0     C25998  13.482   3.049   6.849 -0.9956  0.7464 -0.2929
  934MOL0    Cl25999  13.444   3.134   6.703 -0.3048  0.0760 -0.2240
  934MOL0     C26000  12.675   3.090   6.577  0.9137  0.5617 -0.3291
  934MOL0     C26001  12.612   3.188   6.500  0.1167 -0.3408 -1.4092
  934MOL0     O26002  12.293   3.204   6.415  0.1596  0.6184  0.0713
  934MOL0     C26003  12.353   3.413   6.121  0.3827  0.1250  0.9869
  934MOL0     C26004  12.280   3.472   6.016  0.1640 -0.0191  0.2638
  934MOL0     N26005  11.692   3.338   5.921 -0.0457 -0.5139 -0.1586
  934MOL0     N26006  11.657   3.221   5.928 -0.3503 -0.5985  0.1564
  934MOL0     C26007  10.391   3.309   5.390  1.0962 -0.1866 -0.4563
  934MOL0     C26008  10.254   3.321   5.391 -0.7927  0.2812  0.2942
  934MOL0     C26009   9.819   3.314   5.528  0.6090 -0.5661  0.5759
  934MOL0     C26010   9.820   3.449   5.517  1.3919 -0.7323  1.3140
  934MOL0     C26011   9.703   3.519   5.495 -0.4872  0.5880  0.1785
  934MOL0     C26012   9.579   3.463   5.492  1.2223 -0.5530  0.0640
  934MOL0     O26013   9.473   3.537   5.449  0.4770  0.2830 -0.0509
  934MOL0     C26014   9.341   3.468   5.481 -0.8800 -0.0910  0.1837
  934MOL0     C26015   9.227   3.561   5.464 -0.3672 -0.1895 -0.0769
  934MOL0     C26016   9.246   3.688   5.542 -0.9289  0.0281  0.5181
  934MOL0     C26017   9.273   3.664   5.695 -0.3946 -0.0550  0.0410
  934MOL0     C26018   9.228   3.785   5.760  0.1522 -0.6772  0.4064
  934MOL0     C26019   9.178   3.884   5.814  0.2385  0.6514  0.0548
  934MOL0     C26020   9.578   3.323   5.514 -0.6336  0.5397  0.1581
  934MOL0     C26021   9.697   3.245   5.532 -0.5255 -0.1970 -0.4858
  934MOL0     C26022   9.685   3.100   5.546 -0.8350  0.3136  0.4295
  934MOL0     H26023  10.188   3.214   5.714  1.5971  0.3947  1.6671
  934MOL0     H26024  10.413   3.182   5.697 -1.4539 -1.3654 -0.7389
  934MOL0     H26025  10.644   3.250   5.704 -0.6258 -0.2423  0.6042
  934MOL0     H26026  10.614   3.086   5.655 -1.4338  0.6556  0.7341
  934MOL0     H26027  10.839   3.281   5.554  0.9609 -0.1934 -0.3603
  934MOL0     H26028  10.826   3.113   5.492 -0.1504  0.5597 -0.3191
  934MOL0     H26029  10.872   3.041   5.724  1.6165  0.3796  3.2240
  934MOL0     H26030  10.856   3.205   5.779 -1.3088 -0.5486 -0.2781
  934MOL0     H26031  11.051   3.145   5.557  1.2756  1.2388 -0.6454
  934MOL0     H26032  11.039   3.289   5.659  0.7730  0.7502  0.6417
  934MOL0     H26033  11.098   3.132   5.871  1.5595 -2.3642  1.4687
  934MOL0     H26034  11.107   2.997   5.768  0.2066 -0.1190 -1.5304
  934MOL0     H26035  11.313   3.116   5.655 -0.3434 -2.4255  0.3711
  934MOL0     H26036  11.292   3.241   5.764 -2.1987  1.2270 -2.8973
  934MOL0     H26037  11.311   2.960   5.880 -1.8164  0.4108  0.5527
  934MOL0     H26038  11.349   3.118   5.950 -0.3826  2.3989 -1.7910
  934MOL0     H26039  11.561   3.017   5.903  0.4016  0.4698 -0.2103
  934MOL0     H26040  11.520   3.000   5.733 -0.7164 -2.5122  0.7363
  934MOL0     H26041  11.492   3.319   5.663 -0.1720 -3.2048  0.1674
  934MOL0     H26042  11.600   3.577   5.708 -1.4752 -3.2398  0.9007
  934MOL0     H26043  11.706   3.567   5.851  1.6159 -0.5057 -0.1489
  934MOL0     H26044  11.829   3.416   5.642  0.2928 -0.8356  3.5792
  934MOL0     H26045  11.795   3.594   5.577  2.3977 -2.0043 -2.2611
  934MOL0     H26046  11.895   3.677   5.769  0.7572  0.6149  0.1182
  934MOL0     H26047  12.024   3.592   5.685 -1.4509  3.5332 -0.8329
  934MOL0     H26048  11.984   3.397   5.838 -3.1786 -0.5143  0.9251
  934MOL0     H26049  11.883   3.490   5.940  1.6146 -2.2605  1.5568
  934MOL0     H26050  11.977   3.458   6.145  0.1166 -0.1928 -0.6093
  934MOL0     H26051  12.073   3.314   6.297 -1.3678 -1.8200 -2.0684
  934MOL0     H26052  12.533   2.993   6.231 -1.6836 -1.4332  0.8886
  934MOL0     H26053  12.640   2.824   6.367  1.6196 -0.1390  0.1988
  934MOL0     H26054  12.746   2.686   6.517  1.1842 -1.6685  1.4248
  934MOL0     H26055  12.883   2.798   6.463  0.6837  0.7534  0.0983
  934MOL0     H26056  12.837   2.660   6.739 -0.0294  1.2493  1.3607
  934MOL0     H26057  12.948   2.595   6.617 -0.4429  0.2627  0.1524
  934MOL0     H26058  13.078   2.804   6.620  0.7719 -0.7388  0.3248
  934MOL0     H26059  12.968   2.884   6.724 -0.6133  0.0775  1.7876
  934MOL0     H26060  13.146   2.655   6.795 -0.5661 -0.9072  1.0088
  934MOL0     H26061  13.014   2.701   6.901  1.6010  0.7595  2.2493
  934MOL0     H26062  13.176   2.839   7.003  3.1902 -1.6845 -1.3766
  934MOL0     H26063  13.095   2.949   6.890  0.1247  1.0445  1.3791
  934MOL0     H26064  13.362   2.799   6.837  0.2447 -1.0283  0.1004
  934MOL0     H26065  13.292   2.915   6.731  2.3126 -1.3587 -0.9514
  934MOL0     H26066  13.390   2.953   7.013  0.2342 -0.9897 -0.8164
  934MOL0     H26067  13.298   3.087   6.933  0.6399  0.2579  1.9643
  934MOL0     H26068  13.545   3.121   6.903 -0.1313 -1.8017  2.3288
  934MOL0     H26069  13.546   2.966   6.820  2.9619  3.7024 -0.9221
  934MOL0     H26070  12.710   3.125   6.674  3.7198 -1.3027 -0.5555
  934MOL0     H26071  12.593   3.291   6.529  1.5377 -0.4951  0.2674
  934MOL0     H26072  12.461   3.419   6.115  0.3512  0.3670  0.6204
  934MOL0     H26073  12.325   3.509   5.924  2.1615  2.3774  2.0714
  934MOL0     H26074  10.450   3.332   5.302  0.0819  2.2796 -0.5507
  934MOL0     H26075  10.199   3.352   5.303  0.0262  3.3416  0.7197
  934MOL0     H26076   9.917   3.496   5.515  1.0862 -0.0715  1.6836
  934MOL0     H26077   9.715   3.626   5.477  1.4650  0.6804  1.7031
  934MOL0     H26078   9.341   3.424   5.581 -3.7566  2.1924  1.3369
  934MOL0     H26079   9.327   3.381   5.417 -0.8494  0.5287 -0.6768
  934MOL0     H26080   9.139   3.508   5.501  1.6434 -2.3573  1.8960
  934MOL0     H26081   9.213   3.579   5.357 -3.3493 -0.5718  0.1772
  934MOL0     H26082   9.157   3.747   5.516  0.7441  2.7581  0.5200
  934MOL0     H26083   9.339   3.734   5.506 -0.2978 -0.4602  1.4657
  934MOL0     H26084   9.229   3.573   5.735  0.6439 -0.6918 -0.2231
  934MOL0     H26085   9.379   3.638   5.707 -0.8119 -1.3168  1.1757
  934MOL0     H26086   9.157   3.969   5.876  1.0649 -0.0842  1.3851
  934MOL0     H26087   9.486   3.266   5.499  0.4948 -1.5953  0.9386
  934MOL0     H26088   9.714   3.082   5.650 -2.1153  0.8673  0.9063
  934MOL0     H26089   9.591   3.052   5.518 -0.0923 -0.5132 -0.7195
  934MOL0     H26090   9.765   3.055   5.487  0.5987  0.5022  2.1276
  935MOL0     O26091  11.190  10.682   8.341  0.2721 -0.4142  0.5592
  935MOL0     C26092  11.121  10.784   8.345 -0.2922  0.1269  0.0585
  935MOL0     O26093  11.160  10.912   8.381 -0.3387  0.8371  0.4087
  935MOL0     C26094  11.240  10.922   8.499  0.5774 -0.7874  0.4879
  935MOL0     C26095  11.373  10.945   8.495 -0.5671  0.9074 -0.0544
  935MOL0     C26096  11.450  10.982   8.603 -0.6073 -0.0114  0.8990
  935MOL0     C26097  11.397  10.985   8.734  0.4250 -0.7174  0.4634
  935MOL0     O26098  11.478  11.016   8.837 -0.5368  0.0878  0.2149
  935MOL0     C26099  11.432  10.992   8.971  0.1572 -0.0445  0.1264
  935MOL0     C26100  11.538  11.030   9.071 -1.0921 -0.1713  0.5971
  935MOL0     C26101  11.694  11.039   9.019  0.0617  0.4242  0.1145
  935MOL0     C26102  11.733  10.897   8.980  0.7428 -0.4857  0.2583
  935MOL0     C26103  11.883  10.892   8.943 -0.0177  0.3400 -0.9026
  935MOL0     C26104  11.926  10.984   8.821  1.2562 -0.1739  0.2863
  935MOL0     C26105  12.077  10.976   8.791  0.3261 -0.1397 -0.2946
  935MOL0     C26106  12.098  10.878   8.677  0.0250  0.4973 -0.3930
  935MOL0     N26107  12.241  10.855   8.674 -0.0730 -0.3237  0.0563
  935MOL0     C26108  12.317  10.956   8.628 -0.2097  0.5242  0.1222
  935MOL0     C26109  12.447  10.921   8.647  0.7214  1.1353 -0.7276
  935MOL0     C26110  12.575  10.989   8.598 -0.2623 -1.0438 -0.7601
  935MOL0     C26111  12.683  11.000   8.712  0.2913  1.3930  0.0242
  935MOL0     C26112  12.766  10.863   8.733 -0.5778 -0.3589  0.2604
  935MOL0     C26113  12.851  10.839   8.611  0.3152 -0.2537 -0.3909
  935MOL0     O26114  12.971  10.775   8.659  0.3135  0.7567  0.0321
  935MOL0     C26115  13.055  10.718   8.567  0.3357 -0.6576 -0.1482
  935MOL0     C26116  13.168  10.642   8.606  0.3170 -0.1178 -0.1117
  935MOL0     C26117  13.265  10.610   8.516 -0.8131  0.1777 -0.0840
  935MOL0     C26118  13.263  10.649   8.387  0.1614  0.2649  0.7721
  935MOL0     C26119  13.388  10.646   8.301 -0.0295  0.2741 -0.3649
  935MOL0     O26120  13.511  10.596   8.355 -0.1329 -0.0039 -0.4795
  935MOL0     C26121  13.616  10.571   8.271  0.1442 -0.1362 -0.4554
  935MOL0     C26122  13.598  10.527   8.148 -0.2533 -0.2371 -0.7095
  935MOL0     C26123  13.699  10.498   8.065  0.3541 -0.6753 -1.0926
  935MOL0     C26124  13.831  10.520   8.105 -0.1458  0.1087 -0.6831
  935MOL0     O26125  13.933  10.496   8.015 -0.1333 -0.6296 -0.2696
  935MOL0     C26126  14.004  10.601   7.955 -0.2260 -0.3392  0.2915
  935MOL0     C26127  14.130  10.544   7.885  1.0153  0.1349  0.8133
  935MOL0     C26128  14.105  10.442   7.772 -0.1645 -0.1529  0.0308
  935MOL0     C26129  14.236  10.378   7.712  0.9155 -0.0380 -0.6001
  935MOL0     C26130  14.333  10.478   7.653  0.1882  0.1411  0.5272
  935MOL0     C26131  14.451  10.420   7.574 -0.2423  0.3406  0.2960
  935MOL0     C26132  14.407  10.384   7.432 -0.4509  0.6495  0.5488
  935MOL0     C26133  14.523  10.361   7.341  0.2760  0.5082 -0.1418
  935MOL0    Cl26134  14.598  10.211   7.395  0.4378  0.0279 -0.5005
  935MOL0     C26135  13.853  10.571   8.228 -1.0385  0.0113  0.0657
  935MOL0     C26136  13.747  10.594   8.313  0.7860  0.4901  0.4186
  935MOL0     O26137  13.368  10.698   8.193 -0.0205 -0.4085  0.2590
  935MOL0     C26138  13.154  10.722   8.341  1.2673  0.7794 -0.1269
  935MOL0     C26139  13.051  10.745   8.431  0.2192  0.0148 -0.0225
  935MOL0     N26140  12.445  10.807   8.724 -0.3052 -0.4853 -0.0529
  935MOL0     N26141  12.320  10.765   8.738  0.6732  0.0881 -0.0999
  935MOL0     C26142  11.257  10.962   8.736 -0.0715 -0.2206  0.0829
  935MOL0     C26143  11.181  10.931   8.623  0.0837 -0.5794  0.4455
  935MOL0     C26144  10.979  10.786   8.288  0.0689  0.3576  0.2243
  935MOL0     C26145  10.916  10.910   8.247 -0.4157 -0.3063  0.0818
  935MOL0     C26146  10.806  10.906   8.160  0.4885  0.2542 -0.4581
  935MOL0     C26147  10.755  10.790   8.112  0.4274  0.6971 -0.8867
  935MOL0     O26148  10.666  10.798   8.010 -0.3557 -0.4007  0.2582
  935MOL0     C26149  10.646  10.688   7.927 -0.4470  0.6436 -0.5567
  935MOL0     C26150  10.538  10.589   7.977 -0.3904 -0.4981 -0.1937
  935MOL0     C26151  10.403  10.659   7.984 -0.1909 -0.9191  0.1389
  935MOL0     C26152  10.314  10.602   8.094 -0.6077  0.2859 -0.4582
  935MOL0     C26153  10.167  10.631   8.078  0.4590 -0.2063 -0.3302
  935MOL0     C26154  10.055  10.684   8.068 -0.1895  0.0114 -0.1667
  935MOL0     C26155  10.807  10.665   8.169 -0.9030 -0.5326 -0.0909
  935MOL0     C26156  10.917  10.664   8.258 -0.0401  0.1047 -0.0576
  935MOL0     C26157  10.964  10.528   8.309 -0.5179  0.6187  0.9152
  935MOL0     H26158  11.415  10.940   8.394  0.9401 -0.9701  0.6040
  935MOL0     H26159  11.557  10.997   8.590 -0.5341 -0.0119  1.4682
  935MOL0     H26160  11.341  11.052   8.986  0.4832  0.5923 -0.3981
  935MOL0     H26161  11.407  10.887   8.984  3.0847 -0.4650  3.8718
  935MOL0     H26162  11.525  10.955   9.149 -1.7853 -0.3960  0.2799
  935MOL0     H26163  11.516  11.125   9.123  0.1402 -0.6555  2.0711
  935MOL0     H26164  11.762  11.066   9.100 -1.0264  0.1084  1.1594
  935MOL0     H26165  11.709  11.098   8.929  2.0581 -0.4631 -0.1903
  935MOL0     H26166  11.704  10.830   9.061 -1.3917  0.3875  0.2821
  935MOL0     H26167  11.679  10.868   8.890  0.9657  1.4854 -0.5710
  935MOL0     H26168  11.946  10.929   9.024  0.5158  3.4949 -2.5790
  935MOL0     H26169  11.918  10.789   8.930  0.8991  0.2887  1.5157
  935MOL0     H26170  11.866  10.956   8.734  1.8840 -1.1962  0.1752
  935MOL0     H26171  11.897  11.089   8.829 -2.8617 -1.0477 -0.8967
  935MOL0     H26172  12.138  10.944   8.876  3.5608  2.0147 -1.6356
  935MOL0     H26173  12.112  11.074   8.757 -2.8679  0.6928 -1.6223
  935MOL0     H26174  12.055  10.782   8.707  0.2024  0.7197  0.6159
  935MOL0     H26175  12.069  10.901   8.574  3.7907 -2.8169 -2.4766
  935MOL0     H26176  12.286  11.040   8.567 -3.3754 -0.3857  0.2708
  935MOL0     H26177  12.610  10.945   8.504  0.4456  0.6109 -1.3172
  935MOL0     H26178  12.555  11.093   8.573 -0.0010 -0.5775  0.8712
  935MOL0     H26179  12.757  11.077   8.688  4.1667 -2.3187 -1.1510
  935MOL0     H26180  12.627  11.017   8.804 -0.3176 -1.3201  0.2259
  935MOL0     H26181  12.716  10.771   8.763  0.3542 -1.2384 -0.7690
  935MOL0     H26182  12.828  10.893   8.818  0.4433  1.7904 -1.1311
  935MOL0     H26183  12.876  10.935   8.564 -0.3373  1.2490  2.1218
  935MOL0     H26184  12.783  10.778   8.552 -1.7859  2.0430 -0.5143
  935MOL0     H26185  13.187  10.612   8.709  1.1845  0.0128 -0.2286
  935MOL0     H26186  13.353  10.554   8.548 -0.9362 -1.6484 -2.6382
  935MOL0     H26187  13.498  10.509   8.111  0.1673 -1.5961 -1.2614
  935MOL0     H26188  13.676  10.465   7.965  3.5584 -1.0719 -1.8006
  935MOL0     H26189  13.933  10.651   7.888  0.0690 -3.5566 -2.6752
  935MOL0     H26190  14.041  10.680   8.022 -0.1936 -0.4007  0.3463
  935MOL0     H26191  14.187  10.626   7.841  2.8519 -0.1085  2.6000
  935MOL0     H26192  14.199  10.508   7.962  3.9705  1.8551 -0.8424
  935MOL0     H26193  14.033  10.370   7.813 -0.3251  2.0959  4.3292
  935MOL0     H26194  14.052  10.482   7.686 -1.1825 -2.1959 -0.3554
  935MOL0     H26195  14.206  10.315   7.628  0.2875 -0.2075 -0.2567
  935MOL0     H26196  14.287  10.318   7.788  0.5589  1.3770  0.8170
  935MOL0     H26197  14.374  10.533   7.738  2.1826  0.7235 -0.7330
  935MOL0     H26198  14.280  10.548   7.588 -0.1451  1.1097  1.8043
  935MOL0     H26199  14.529  10.496   7.575 -1.7060  2.0026 -1.8481
  935MOL0     H26200  14.484  10.329   7.624 -1.0023  0.8602  1.7886
  935MOL0     H26201  14.354  10.463   7.379  3.3119  1.0450 -3.1066
  935MOL0     H26202  14.341  10.297   7.437  2.6011 -1.7773  2.3272
  935MOL0     H26203  14.502  10.345   7.235  1.8183  0.4831 -0.4756
  935MOL0     H26204  14.600  10.439   7.344  2.1918 -1.1409 -2.7368
  935MOL0     H26205  13.958  10.573   8.255 -0.8622 -2.6464 -0.1097
  935MOL0     H26206  13.775  10.637   8.409  2.8052 -0.1827  0.1867
  935MOL0     H26207  13.151  10.759   8.239  0.5708 -0.9272 -0.7593
  935MOL0     H26208  12.957  10.785   8.395  0.6353 -0.4749 -1.7829
  935MOL0     H26209  11.210  10.970   8.834  1.9354 -2.7073  1.3575
  935MOL0     H26210  11.073  10.942   8.636  0.0403  1.7059 -1.1748
  935MOL0     H26211  10.958  11.007   8.272  3.9853 -1.2301 -2.7173
  935MOL0     H26212  10.759  10.999   8.131 -3.2001 -0.3567  2.7482
  935MOL0     H26213  10.739  10.632   7.916 -0.0647  1.4938 -1.8265
  935MOL0     H26214  10.607  10.729   7.833 -0.3953 -0.3792 -1.0418
  935MOL0     H26215  10.568  10.554   8.076  0.1301 -0.1845 -0.2397
  935MOL0     H26216  10.529  10.505   7.906 -1.5051 -3.1371  2.8377
  935MOL0     H26217  10.352  10.647   7.888 -0.7252 -1.5991  0.4996
  935MOL0     H26218  10.404  10.764   8.015 -2.0603 -0.7795 -0.1527
  935MOL0     H26219  10.317  10.493   8.090  0.2899  0.3308 -1.1505
  935MOL0     H26220  10.351  10.628   8.193  1.3244  0.3662 -1.1531
  935MOL0     H26221   9.957  10.721   8.045  0.5192 -0.1933 -4.2916
  935MOL0     H26222  10.771  10.568   8.135 -1.4186  0.2603 -1.8993
  935MOL0     H26223  10.894  10.449   8.283  2.2675 -2.0172  0.8257
  935MOL0     H26224  11.050  10.495   8.250 -0.9124  0.4688  0.4155
  935MOL0     H26225  10.988  10.514   8.415  0.6068  1.1047  0.7438
  936MOL0     O26226   3.969  11.098   9.394  0.1973  0.8810 -0.7710
  936MOL0     C26227   3.895  11.171   9.460 -0.8151  0.5553  0.1148
  936MOL0     O26228   3.940  11.264   9.550  0.2425  0.3665 -0.7906
  936MOL0     C26229   4.077  11.267   9.573  0.1530 -0.1377 -0.1155
  936MOL0     C26230   4.127  11.215   9.691 -1.1760 -0.0404 -0.5640
  936MOL0     C26231   4.265  11.215   9.708  0.4490  0.2426  0.4306
  936MOL0     C26232   4.356  11.252   9.604 -0.0859  0.3310 -0.6365
  936MOL0     O26233   4.491  11.249   9.628 -0.2192  0.0738  0.5281
  936MOL0     C26234   4.544  11.114   9.644  0.4153  0.4944  0.7964
  936MOL0     C26235   4.688  11.120   9.676 -0.1691 -0.0063 -0.6583
  936MOL0     C26236   4.768  11.180   9.562  0.2241 -0.3836  0.0010
  936MOL0     C26237   4.925  11.158   9.582  1.5049 -0.4531 -0.5293
  936MOL0     C26238   4.980  11.244   9.712  0.0933 -0.2997 -0.5347
  936MOL0     C26239   5.134  11.217   9.721 -0.3808 -1.3086 -0.4061
  936MOL0     C26240   5.203  11.288   9.846 -0.3933  0.6693 -0.6663
  936MOL0     C26241   5.351  11.257   9.845 -0.8239  1.0531 -0.6761
  936MOL0     N26242   5.424  11.312   9.729 -0.3396  1.1563  0.1830
  936MOL0     C26243   5.449  11.437   9.706  0.1332 -1.0116 -0.0502
  936MOL0     C26244   5.523  11.441   9.592  0.7795  0.1777 -0.4938
  936MOL0     C26245   5.588  11.564   9.538 -0.1083 -0.0473 -0.5062
  936MOL0     C26246   5.520  11.691   9.570  0.5373 -0.2718  0.7919
  936MOL0     C26247   5.568  11.814   9.486  0.9534 -0.3021  1.1184
  936MOL0     C26248   5.697  11.862   9.536 -0.2160  0.6149  0.4459
  936MOL0     O26249   5.802  11.778   9.500  0.0512 -0.3609  1.1442
  936MOL0     C26250   5.931  11.813   9.523  0.7310  0.4938  0.1123
  936MOL0     C26251   5.966  11.934   9.585 -0.4118  0.2625 -0.4489
  936MOL0     C26252   6.100  11.978   9.582  0.7033  0.1344 -0.8111
  936MOL0     C26253   6.204  11.886   9.541  0.9073  0.2499  0.5382
  936MOL0     C26254   6.346  11.921   9.565  0.3943  0.6553 -0.1302
  936MOL0     O26255   6.450  11.831   9.537  0.2913  0.4330  0.2861
  936MOL0     C26256   6.577  11.839   9.587 -0.7054  0.8077 -0.6322
  936MOL0     C26257   6.608  11.904   9.712  0.8976 -0.1545  0.5800
  936MOL0     C26258   6.739  11.929   9.756 -0.3467  0.9528 -0.1308
  936MOL0     C26259   6.847  11.883   9.669  1.2770  0.2209  0.7565
  936MOL0     O26260   6.973  11.904   9.709  0.3030 -0.0864 -0.4144
  936MOL0     C26261   7.070  11.812   9.681  0.4752 -0.0114 -0.6013
  936MOL0     C26262   7.055  11.683   9.785  0.9795  0.2106  0.6443
  936MOL0     C26263   7.094  11.726   9.928  0.1138 -0.0270  0.6259
  936MOL0     C26264   7.237  11.781   9.949 -0.1163  0.0048 -0.2122
  936MOL0     C26265   7.265  11.799  10.096 -0.3603 -0.1581 -0.0878
  936MOL0     C26266   7.411  11.829  10.136 -0.1600 -0.6877  0.0363
  936MOL0     C26267   7.440  11.850  10.286 -1.4676 -0.0910 -0.2451
  936MOL0     C26268   7.580  11.906  10.317  0.4474  0.1438  0.2461
  936MOL0    Cl26269   7.679  11.775  10.359  0.2459  0.1086  0.0519
  936MOL0     C26270   6.812  11.817   9.542  0.2165  0.3400 -0.4683
  936MOL0     C26271   6.679  11.791   9.506  0.2938 -0.3899 -0.9521
  936MOL0     O26272   6.362  12.043   9.604 -0.1277 -0.2806  0.1305
  936MOL0     C26273   6.168  11.763   9.486 -0.4914 -0.4561  0.7578
  936MOL0     C26274   6.030  11.724   9.486 -0.6532 -0.3450 -0.7250
  936MOL0     N26275   5.533  11.317   9.550  0.2236 -0.3097 -0.8347
  936MOL0     N26276   5.469  11.236   9.628 -0.3127 -0.3624 -0.1448
  936MOL0     C26277   4.298  11.298   9.484 -0.4008  0.1860  0.4247
  936MOL0     C26278   4.161  11.300   9.469  0.1505  0.5346  0.4210
  936MOL0     C26279   3.756  11.173   9.407  0.6076  0.2241 -0.6925
  936MOL0     C26280   3.676  11.272   9.469  0.0783  0.4518  0.2907
  936MOL0     C26281   3.540  11.275   9.434  0.2460 -0.7131  0.9070
  936MOL0     C26282   3.483  11.191   9.348  0.8109 -0.0317  0.4698
  936MOL0     O26283   3.346  11.203   9.320 -0.7459  0.4569  0.3953
  936MOL0     C26284   3.289  11.149   9.191  0.9891 -0.1617  0.1176
  936MOL0     C26285   3.155  11.215   9.148 -0.2707 -0.8734 -0.3659
  936MOL0     C26286   3.173  11.364   9.124 -1.2582  0.2115  0.1025
  936MOL0     C26287   3.295  11.395   9.030  0.0537 -0.3489 -0.5316
  936MOL0     C26288   3.284  11.528   8.968 -0.4708 -0.7294 -0.0229
  936MOL0     C26289   3.268  11.630   8.899 -0.4870 -0.1598  0.1401
  936MOL0     C26290   3.561  11.097   9.283  0.0663  0.8333  0.5853
  936MOL0     C26291   3.696  11.074   9.319  0.5284 -0.3686  0.4466
  936MOL0     C26292   3.771  10.970   9.249 -0.1270  0.4679 -0.8665
  936MOL0     H26293   4.060  11.166   9.762 -1.6268  0.5187 -0.5969
  936MOL0     H26294   4.283  11.193   9.813 -2.9838 -1.7527  0.7526
  936MOL0     H26295   4.484  11.057   9.715 -2.0359 -0.0193 -1.5313
  936MOL0     H26296   4.525  11.066   9.547  0.4989 -1.1318  1.5505
  936MOL0     H26297   4.723  11.016   9.680  0.0546 -0.0538 -2.6520
  936MOL0     H26298   4.702  11.162   9.776  2.0815 -3.9375  0.9379
  936MOL0     H26299   4.757  11.289   9.562  0.6454 -0.3367 -0.1909
  936MOL0     H26300   4.736  11.141   9.465 -1.3853 -1.4464  0.9278
  936MOL0     H26301   4.939  11.052   9.603 -1.6273 -0.4976  2.1044
  936MOL0     H26302   4.977  11.186   9.490  0.4414 -0.9625 -1.3153
  936MOL0     H26303   4.962  11.350   9.690  1.8592  0.2602  0.4837
  936MOL0     H26304   4.930  11.225   9.808 -0.3958  1.6608 -0.3446
  936MOL0     H26305   5.152  11.112   9.745 -0.9455 -1.3200 -0.0211
  936MOL0     H26306   5.188  11.244   9.630 -1.0666 -2.3201 -1.1401
  936MOL0     H26307   5.155  11.261   9.941 -0.7708  0.8134 -0.8149
  936MOL0     H26308   5.176  11.394   9.840  1.9035  1.3016 -0.6615
  936MOL0     H26309   5.388  11.305   9.936 -0.6281 -1.4905  0.6797
  936MOL0     H26310   5.370  11.150   9.862  1.6798  1.5093 -0.1528
  936MOL0     H26311   5.436  11.524   9.770 -1.7026 -2.1541  1.2428
  936MOL0     H26312   5.696  11.565   9.557 -0.2437  0.2835  0.2692
  936MOL0     H26313   5.582  11.546   9.431 -0.3629 -1.9888 -0.2150
  936MOL0     H26314   5.413  11.690   9.551  1.2119  0.8307 -4.7250
  936MOL0     H26315   5.530  11.711   9.677  0.0118  2.0119  0.4729
  936MOL0     H26316   5.509  11.900   9.517 -1.5797 -2.0407  1.4950
  936MOL0     H26317   5.563  11.799   9.378 -1.1971  0.7020  1.0191
  936MOL0     H26318   5.701  11.874   9.645 -2.2677  3.6717  0.3120
  936MOL0     H26319   5.711  11.959   9.488  0.9652 -0.0634 -0.6388
  936MOL0     H26320   5.894  12.006   9.624  2.1340  3.1250 -0.6191
  936MOL0     H26321   6.130  12.067   9.636  0.4944 -1.1628  1.6020
  936MOL0     H26322   6.533  11.947   9.778 -1.6855 -3.6076  0.1870
  936MOL0     H26323   6.764  11.989   9.843  3.0096 -1.1273  0.5472
  936MOL0     H26324   7.056  11.781   9.577 -2.5119  1.1502 -0.6451
  936MOL0     H26325   7.173  11.848   9.689  0.1010  0.7439  1.1695
  936MOL0     H26326   6.951  11.647   9.782  1.3173 -0.8337 -2.1589
  936MOL0     H26327   7.115  11.597   9.751 -1.8324 -0.6012 -2.9973
  936MOL0     H26328   7.015  11.793   9.962  0.8727  0.3366  1.7413
  936MOL0     H26329   7.087  11.631   9.981  1.5917  0.7566  2.3470
  936MOL0     H26330   7.233  11.880   9.904 -1.0797  0.5848  1.0707
  936MOL0     H26331   7.298  11.708   9.895 -3.1673 -2.2456 -0.8904
  936MOL0     H26332   7.223  11.718  10.155  0.0107  1.3386  2.3662
  936MOL0     H26333   7.205  11.885  10.127  0.2810  0.9421 -1.7081
  936MOL0     H26334   7.478  11.754  10.092  1.1234  1.2595 -1.5177
  936MOL0     H26335   7.425  11.929  10.094  0.4850 -0.4854  0.6974
  936MOL0     H26336   7.430  11.756  10.341  0.4788  0.0734  0.4700
  936MOL0     H26337   7.370  11.922  10.329  0.5674  0.6642  2.0368
  936MOL0     H26338   7.605  11.957  10.223 -2.7806  0.9468 -0.2960
  936MOL0     H26339   7.578  11.986  10.392 -1.5695 -0.7289  1.2202
  936MOL0     H26340   6.892  11.795   9.472  1.3902  0.1036  0.8980
  936MOL0     H26341   6.645  11.743   9.415 -2.1667  0.8306 -0.7690
  936MOL0     H26342   6.248  11.694   9.458  0.6204  1.1696 -0.2395
  936MOL0     H26343   6.002  11.629   9.440 -0.9292  0.6879 -2.8055
  936MOL0     H26344   4.370  11.334   9.411  0.7748 -0.8083  1.0463
  936MOL0     H26345   4.106  11.327   9.379 -0.3985 -2.2321 -0.1688
  936MOL0     H26346   3.721  11.341   9.539  1.8707 -2.2165  1.9515
  936MOL0     H26347   3.489  11.356   9.485  1.4497  0.2339  0.6494
  936MOL0     H26348   3.286  11.043   9.214 -0.0332 -0.2210 -0.2645
  936MOL0     H26349   3.360  11.152   9.107 -0.6100  0.0799 -1.2750
  936MOL0     H26350   3.074  11.193   9.217 -1.5758  0.4506 -1.4033
  936MOL0     H26351   3.133  11.173   9.049  0.8087  1.3020 -1.6154
  936MOL0     H26352   3.188  11.401   9.226  2.3224 -2.2983  0.6799
  936MOL0     H26353   3.078  11.405   9.091 -2.0751 -0.8704  1.0280
  936MOL0     H26354   3.391  11.383   9.082 -0.6662 -2.0160  0.5043
  936MOL0     H26355   3.293  11.321   8.950  0.3657  1.2582 -2.0713
  936MOL0     H26356   3.235  11.721   8.852 -2.1160 -0.6803  0.1935
  936MOL0     H26357   3.516  11.037   9.204  0.3802 -1.7151  2.2206
  936MOL0     H26358   3.707  10.920   9.176 -2.9964  0.0758  1.7245
  936MOL0     H26359   3.865  11.009   9.209  2.0450 -1.9852  1.4199
  936MOL0     H26360   3.795  10.894   9.324 -1.2089  0.4288 -0.5519
  937MOL0     O26361   8.232   7.163   5.186  0.3251 -0.2143 -0.0657
  937MOL0     C26362   8.187   7.262   5.126 -0.5148  0.7070 -0.5756
  937MOL0     O26363   8.258   7.369   5.096 -0.4947  0.6840  0.4964
  937MOL0     C26364   8.382   7.345   5.031  0.4179 -0.0854  0.1225
  937MOL0     C26365   8.409   7.376   4.898 -0.4265 -0.2084  0.4291
  937MOL0     C26366   8.533   7.352   4.833  0.5379  0.0823 -1.0362
  937MOL0     C26367   8.636   7.290   4.906  0.9452  0.5004  0.0866
  937MOL0     O26368   8.770   7.269   4.851  0.3574 -0.3707  0.2202
  937MOL0     C26369   8.807   7.253   4.721  0.0722  0.0624  0.2570
  937MOL0     C26370   8.962   7.274   4.730  0.4539 -0.0887  0.5746
  937MOL0     C26371   9.022   7.249   4.591 -0.5025  0.3553  0.6507
  937MOL0     C26372   9.173   7.241   4.604  0.0536 -0.0812 -0.5540
  937MOL0     C26373   9.248   7.281   4.478  1.0317  0.2936  0.4225
  937MOL0     C26374   9.408   7.277   4.469  0.3867  0.6099  0.1557
  937MOL0     C26375   9.459   7.147   4.534 -0.0842  0.0649  0.4682
  937MOL0     C26376   9.419   7.027   4.451 -0.2634  0.5609 -0.3153
  937MOL0     N26377   9.458   7.026   4.319  0.1790  0.4785  0.2283
  937MOL0     C26378   9.585   6.995   4.280 -0.0712 -0.9169 -0.3004
  937MOL0     C26379   9.585   6.967   4.147  0.1636 -0.1466 -0.4350
  937MOL0     C26380   9.701   6.919   4.065 -0.2758  0.4642 -0.5552
  937MOL0     C26381   9.797   7.027   3.993 -0.1433  1.5548 -0.7237
  937MOL0     C26382   9.725   7.106   3.885 -0.1487  0.2589  0.0177
  937MOL0     C26383   9.825   7.179   3.789 -0.5157 -0.3001 -0.1990
  937MOL0     O26384   9.878   7.294   3.859  0.0909 -0.0813  0.0881
  937MOL0     C26385  10.014   7.298   3.888  0.5071  0.2133 -0.9165
  937MOL0     C26386  10.067   7.420   3.897 -0.1546 -0.2334 -0.2422
  937MOL0     C26387  10.192   7.445   3.938  1.2211  0.1805 -0.6649
  937MOL0     C26388  10.267   7.333   3.972  0.2078 -0.4522 -0.6632
  937MOL0     C26389  10.407   7.360   4.023  0.3287 -1.2499  0.4423
  937MOL0     O26390  10.483   7.256   4.071 -0.2670 -0.0745  0.4184
  937MOL0     C26391  10.618   7.274   4.123  0.1210  0.6223  0.1267
  937MOL0     C26392  10.682   7.397   4.158  0.5713  0.1695 -1.1134
  937MOL0     C26393  10.817   7.391   4.198 -0.0418  0.7507  0.1624
  937MOL0     C26394  10.881   7.269   4.231 -1.1433  0.0645  0.0933
  937MOL0     O26395  11.009   7.258   4.285 -0.6642 -1.5149  0.8489
  937MOL0     C26396  11.100   7.360   4.232 -0.7052  0.5004 -0.5540
  937MOL0     C26397  11.241   7.322   4.263  0.2230 -0.4600  0.0452
  937MOL0     C26398  11.331   7.437   4.215  0.3008 -0.6648  0.4745
  937MOL0     C26399  11.478   7.394   4.243  0.4953 -0.1898  0.0587
  937MOL0     C26400  11.573   7.498   4.184 -0.5037 -0.2267  0.0991
  937MOL0     C26401  11.710   7.447   4.194  0.8942  0.0396 -0.0727
  937MOL0     C26402  11.818   7.534   4.117 -0.4597 -0.5762  0.6093
  937MOL0     C26403  11.959   7.484   4.152 -0.2548 -0.8596 -0.5126
  937MOL0    Cl26404  12.070   7.582   4.048 -0.4629 -0.1571 -0.6728
  937MOL0     C26405  10.815   7.153   4.202  0.2733  0.5766 -0.7407
  937MOL0     C26406  10.685   7.155   4.142 -1.3340 -0.0711  0.0559
  937MOL0     O26407  10.453   7.472   3.995  0.4528 -0.7196  1.0335
  937MOL0     C26408  10.220   7.205   3.964 -0.4227 -0.9860 -0.1293
  937MOL0     C26409  10.091   7.183   3.913  0.1134  0.3622 -0.0448
  937MOL0     N26410   9.453   6.974   4.111  0.4790 -0.0574 -0.0361
  937MOL0     N26411   9.380   7.002   4.211 -0.0825 -0.3893  0.4947
  937MOL0     C26412   8.610   7.269   5.036  0.0669  0.0135 -0.4025
  937MOL0     C26413   8.489   7.301   5.104 -0.9203 -0.3110  0.3130
  937MOL0     C26414   8.043   7.248   5.095  0.5250 -0.0500  0.4347
  937MOL0     C26415   7.957   7.199   5.192 -0.4151  0.6061  0.3835
  937MOL0     C26416   7.820   7.196   5.166  1.0683 -0.1365 -0.2967
  937MOL0     C26417   7.769   7.249   5.051 -0.1903 -0.1081 -0.3866
  937MOL0     O26418   7.631   7.219   5.032 -0.7523 -0.2366 -0.4849
  937MOL0     C26419   7.546   7.329   5.005  0.3270 -0.2504  0.4113
  937MOL0     C26420   7.395   7.288   5.036 -0.6496  0.2616 -0.5316
  937MOL0     C26421   7.320   7.269   4.908  0.5311 -0.5677  0.5197
  937MOL0     C26422   7.172   7.230   4.935 -0.0151  0.1709  0.5590
  937MOL0     C26423   7.130   7.135   4.830  0.2136 -0.1167  0.5160
  937MOL0     C26424   7.099   7.055   4.744  1.0871 -0.4635 -0.3741
  937MOL0     C26425   7.846   7.301   4.951 -0.6377  0.0871  0.3168
  937MOL0     C26426   7.985   7.304   4.976 -0.2383 -0.1276  0.2975
  937MOL0     C26427   8.076   7.348   4.862  0.2865 -0.2936  0.1724
  937MOL0     H26428   8.344   7.448   4.850  0.1436  0.4481  0.6163
  937MOL0     H26429   8.536   7.368   4.726 -1.2421 -0.8705 -1.2659
  937MOL0     H26430   8.787   7.156   4.675 -0.2537  0.4729 -0.4707
  937MOL0     H26431   8.757   7.321   4.652 -0.8325  0.1771  1.0131
  937MOL0     H26432   9.010   7.205   4.801 -1.9546 -0.8486  1.5851
  937MOL0     H26433   8.980   7.373   4.772  0.0291  0.9612 -1.5988
  937MOL0     H26434   8.990   7.328   4.522  1.6566  0.3264 -0.4845
  937MOL0     H26435   8.992   7.151   4.551  1.3945  0.5266 -1.4438
  937MOL0     H26436   9.203   7.306   4.687  1.9084 -1.2590 -0.2405
  937MOL0     H26437   9.186   7.141   4.646  0.3875  0.7275  1.4189
  937MOL0     H26438   9.202   7.215   4.404 -0.4477 -1.2934  2.6458
  937MOL0     H26439   9.207   7.379   4.454 -0.7120 -0.9189 -2.0361
  937MOL0     H26440   9.436   7.292   4.365 -2.5236 -0.4765 -0.8834
  937MOL0     H26441   9.453   7.361   4.523  0.5653  1.8387 -1.7988
  937MOL0     H26442   9.426   7.139   4.638 -0.4955 -0.0734  0.3286
  937MOL0     H26443   9.568   7.153   4.522 -0.2947 -0.7049 -2.7121
  937MOL0     H26444   9.451   6.940   4.510 -0.9209  0.4657 -0.0860
  937MOL0     H26445   9.309   7.028   4.454 -0.2952 -1.2256  1.5361
  937MOL0     H26446   9.675   7.008   4.338 -1.2085  1.2151  1.1056
  937MOL0     H26447   9.766   6.870   4.138 -0.6973 -0.7817 -0.9847
  937MOL0     H26448   9.666   6.850   3.988 -0.7301  2.3779 -2.1348
  937MOL0     H26449   9.847   7.087   4.069  0.9231 -0.6483  0.4132
  937MOL0     H26450   9.877   6.967   3.950 -2.1712  0.9869 -4.0197
  937MOL0     H26451   9.657   7.176   3.934  0.4923  3.1647 -2.8876
  937MOL0     H26452   9.673   7.038   3.818  2.8330 -1.8818 -0.3249
  937MOL0     H26453   9.769   7.211   3.701 -0.8280 -0.8590 -0.2083
  937MOL0     H26454   9.902   7.109   3.754  0.5998  1.7893 -2.2613
  937MOL0     H26455  10.014   7.512   3.875  0.6229 -0.0476 -1.4143
  937MOL0     H26456  10.230   7.546   3.945 -1.5091  1.4453 -2.2902
  937MOL0     H26457  10.624   7.489   4.165 -0.5790 -0.6021 -0.0027
  937MOL0     H26458  10.873   7.479   4.230  2.3161 -0.6577  0.1833
  937MOL0     H26459  11.105   7.365   4.123 -1.0798 -3.2967 -0.8637
  937MOL0     H26460  11.068   7.451   4.285 -3.2505 -2.3066  3.3045
  937MOL0     H26461  11.241   7.316   4.372  2.7720  2.6721  0.3653
  937MOL0     H26462  11.275   7.230   4.215 -1.2704 -2.8711  3.2403
  937MOL0     H26463  11.315   7.447   4.107 -2.0763 -0.7838  0.7623
  937MOL0     H26464  11.314   7.534   4.262  3.7888  0.6279 -0.5708
  937MOL0     H26465  11.486   7.291   4.206  1.8389 -0.3945  0.8486
  937MOL0     H26466  11.491   7.392   4.351 -0.3095 -2.8078  0.1715
  937MOL0     H26467  11.547   7.594   4.231 -0.1028  0.0762 -0.2878
  937MOL0     H26468  11.545   7.506   4.079 -0.2128 -1.5958 -0.0998
  937MOL0     H26469  11.738   7.436   4.299  0.5775 -1.6508 -0.1299
  937MOL0     H26470  11.709   7.345   4.153  0.0125 -0.2457  0.6320
  937MOL0     H26471  11.812   7.641   4.142 -0.2727  0.1588 -2.1529
  937MOL0     H26472  11.806   7.527   4.009 -1.4240  0.9914  0.5850
  937MOL0     H26473  11.982   7.515   4.254  1.4388  4.1179 -2.0971
  937MOL0     H26474  11.969   7.377   4.133 -1.6183 -1.4304  1.6496
  937MOL0     H26475  10.862   7.058   4.224  2.3731  2.0105  1.4875
  937MOL0     H26476  10.637   7.062   4.114 -0.9926  0.0078 -0.8071
  937MOL0     H26477  10.280   7.125   4.008 -0.6896 -1.4126 -0.5273
  937MOL0     H26478  10.050   7.085   3.935 -0.2960  0.4688 -0.3299
  937MOL0     H26479   8.694   7.220   5.084  0.3744 -0.0813 -1.0303
  937MOL0     H26480   8.489   7.274   5.209  2.3620 -0.8786  0.2864
  937MOL0     H26481   8.000   7.156   5.283 -1.5972  2.4445  1.8911
  937MOL0     H26482   7.748   7.152   5.235  1.8857  1.4513  1.6912
  937MOL0     H26483   7.548   7.356   4.900 -3.1229 -0.6813  0.1120
  937MOL0     H26484   7.568   7.413   5.072 -1.0444 -0.1152  0.7140
  937MOL0     H26485   7.359   7.362   5.107  2.2053 -0.1765  1.5688
  937MOL0     H26486   7.391   7.201   5.102 -2.3819  1.4834  1.0769
  937MOL0     H26487   7.371   7.200   4.840 -1.0847 -2.3838  1.0779
  937MOL0     H26488   7.313   7.368   4.860 -0.4352 -0.3413  1.1020
  937MOL0     H26489   7.163   7.191   5.037  0.1761  1.4017  1.0622
  937MOL0     H26490   7.103   7.315   4.934  0.7738  0.8369  1.2209
  937MOL0     H26491   7.069   6.982   4.672  2.1010 -2.2240  0.9038
  937MOL0     H26492   7.815   7.344   4.856  2.1683  1.5730 -0.0277
  937MOL0     H26493   8.125   7.444   4.880 -1.8207  0.7192  0.8308
  937MOL0     H26494   8.156   7.274   4.853 -0.7246 -1.5594  1.0302
  937MOL0     H26495   8.017   7.353   4.769  1.2795  3.0009 -0.3958
  938MOL0     O26496   5.321   7.610   4.250  0.0908  0.2066 -0.1821
  938MOL0     C26497   5.331   7.487   4.254  0.2535  0.0142  0.0707
  938MOL0     O26498   5.448   7.421   4.240 -0.8439 -0.4698  0.4162
  938MOL0     C26499   5.562   7.476   4.276  0.5029  0.8235 -0.5128
  938MOL0     C26500   5.583   7.549   4.388  0.1821 -0.4752  1.2969
  938MOL0     C26501   5.713   7.594   4.419  0.0016  0.1242  0.3342
  938MOL0     C26502   5.824   7.543   4.346 -0.7470 -0.7458 -0.5467
  938MOL0     O26503   5.944   7.554   4.398  0.3495 -0.2196  1.0536
  938MOL0     C26504   6.055   7.591   4.311  0.0099  0.4402 -1.1782
  938MOL0     C26505   6.121   7.715   4.371  0.4974  0.5305  0.6617
  938MOL0     C26506   6.201   7.780   4.251 -0.1429 -0.6990  0.5067
  938MOL0     C26507   6.304   7.865   4.316  0.3754  0.1817 -0.3193
  938MOL0     C26508   6.373   7.956   4.208 -0.0521  0.7022  0.1125
  938MOL0     C26509   6.472   8.057   4.256  0.4019  0.2225  0.8011
  938MOL0     C26510   6.421   8.180   4.325 -1.2832  0.2933  0.4874
  938MOL0     C26511   6.528   8.255   4.402  0.6076  1.0452  0.3570
  938MOL0     N26512   6.633   8.321   4.322 -0.7783 -0.9905 -0.1869
  938MOL0     C26513   6.766   8.317   4.355  0.0372 -0.0706 -0.6920
  938MOL0     C26514   6.821   8.418   4.289 -0.4730 -0.1512  0.5209
  938MOL0     C26515   6.965   8.440   4.267  0.1888 -0.6334  0.4687
  938MOL0     C26516   7.009   8.539   4.372  0.7722  0.4979  0.1647
  938MOL0     C26517   7.162   8.554   4.380 -0.2393  0.0718  0.0511
  938MOL0     C26518   7.218   8.612   4.245  0.1835 -0.5903 -0.7378
  938MOL0     O26519   7.348   8.673   4.286 -0.0557  0.1194  0.7776
  938MOL0     C26520   7.464   8.600   4.291  0.4476  0.1271  0.4503
  938MOL0     C26521   7.584   8.668   4.345 -0.6478  0.4780  0.1131
  938MOL0     C26522   7.706   8.603   4.348  1.2647  0.3990 -0.5644
  938MOL0     C26523   7.724   8.471   4.312  0.1992 -0.8046  0.6722
  938MOL0     C26524   7.847   8.403   4.329  0.5850 -0.0764  1.0875
  938MOL0     O26525   7.856   8.271   4.392  0.2247 -0.3891 -0.0158
  938MOL0     C26526   7.977   8.197   4.399  0.3802 -0.1594 -0.2400
  938MOL0     C26527   7.987   8.100   4.503 -1.0421 -0.0795  0.0846
  938MOL0     C26528   8.101   8.031   4.532  0.2034  0.0420  0.5072
  938MOL0     C26529   8.221   8.053   4.460 -1.2203  1.3511 -0.3382
  938MOL0     O26530   8.336   7.984   4.485  0.4013 -0.7809  0.0492
  938MOL0     C26531   8.450   8.077   4.503 -0.2219 -0.2586  0.4690
  938MOL0     C26532   8.575   7.989   4.494  0.5080 -0.2588  0.0586
  938MOL0     C26533   8.708   8.066   4.469 -0.0652  0.4868  0.3571
  938MOL0     C26534   8.754   8.140   4.595 -0.6360 -0.4223 -0.7790
  938MOL0     C26535   8.900   8.156   4.574 -0.5739 -0.3135 -0.7824
  938MOL0     C26536   8.950   8.217   4.437  0.5310  0.0986 -0.7802
  938MOL0     C26537   9.104   8.242   4.436  0.0399  1.2096 -0.1760
  938MOL0     C26538   9.149   8.295   4.301 -0.3775 -0.7050  0.2644
  938MOL0    Cl26539   9.326   8.318   4.278  0.1042 -0.2658 -0.1537
  938MOL0     C26540   8.213   8.145   4.355  0.4996 -0.1770 -0.5561
  938MOL0     C26541   8.092   8.216   4.329 -0.4513 -0.4857  0.3924
  938MOL0     O26542   7.944   8.467   4.297 -0.3630  0.0264 -0.2677
  938MOL0     C26543   7.614   8.406   4.254 -0.3322  0.1298  0.3655
  938MOL0     C26544   7.484   8.464   4.250  0.6307  0.2700 -0.5909
  938MOL0     N26545   6.718   8.493   4.229  0.0583  0.3934 -0.2500
  938MOL0     N26546   6.610   8.435   4.254 -0.4044 -0.7564  0.1369
  938MOL0     C26547   5.805   7.463   4.232  1.0465  0.6664 -0.4131
  938MOL0     C26548   5.670   7.439   4.194 -0.3684  0.5732  0.5441
  938MOL0     C26549   5.208   7.403   4.246  0.1206  0.6974  0.9438
  938MOL0     C26550   5.220   7.267   4.211 -0.1654 -0.1198 -0.1010
  938MOL0     C26551   5.115   7.177   4.199 -0.1671  0.0145 -0.7178
  938MOL0     C26552   4.982   7.219   4.225  0.7504 -0.1292  0.6443
  938MOL0     O26553   4.875   7.130   4.211 -0.0557 -0.6468 -0.2897
  938MOL0     C26554   4.745   7.172   4.161  0.3412 -1.1390  0.4102
  938MOL0     C26555   4.643   7.188   4.276 -0.6992  0.4962  0.1254
  938MOL0     C26556   4.505   7.236   4.237 -0.8636 -0.2931 -0.0339
  938MOL0     C26557   4.403   7.244   4.360 -0.5393  0.2159  0.5344
  938MOL0     C26558   4.342   7.113   4.408  0.2824 -0.6947  0.4131
  938MOL0     C26559   4.288   7.006   4.446 -0.1610 -0.2008 -0.0101
  938MOL0     C26560   4.966   7.356   4.260  0.6075  0.2320 -0.8613
  938MOL0     C26561   5.076   7.444   4.269 -0.1233 -1.3429 -0.7419
  938MOL0     C26562   5.039   7.590   4.278  1.0965 -0.1647 -1.0409
  938MOL0     H26563   5.502   7.583   4.452 -1.5881 -0.6798 -0.7420
  938MOL0     H26564   5.730   7.655   4.507 -2.4051  2.4284 -0.6778
  938MOL0     H26565   6.127   7.510   4.296  2.3542  2.5075 -1.8680
  938MOL0     H26566   6.013   7.622   4.215 -0.0160  0.8445 -1.0406
  938MOL0     H26567   6.182   7.688   4.458 -0.7607  0.8288  1.6641
  938MOL0     H26568   6.039   7.776   4.411 -2.0546 -1.9398 -0.4880
  938MOL0     H26569   6.143   7.836   4.177  1.5742  2.5193  1.4046
  938MOL0     H26570   6.250   7.699   4.196  1.5062  0.7767 -0.2921
  938MOL0     H26571   6.247   7.933   4.380 -3.3047  1.7409 -4.6883
  938MOL0     H26572   6.377   7.802   4.368  0.4333 -0.9501 -1.7062
  938MOL0     H26573   6.429   7.892   4.140  1.2778  1.1877  0.7335
  938MOL0     H26574   6.305   8.012   4.143 -2.2324 -3.0900 -1.2410
  938MOL0     H26575   6.550   8.005   4.312 -0.0812 -2.5685 -0.9109
  938MOL0     H26576   6.529   8.093   4.170  0.3234 -2.0141 -0.2776
  938MOL0     H26577   6.365   8.139   4.410 -2.1395 -2.5945 -1.3508
  938MOL0     H26578   6.360   8.237   4.254  1.3578 -0.3185 -2.4789
  938MOL0     H26579   6.487   8.342   4.453  3.3993  2.3796  0.5086
  938MOL0     H26580   6.569   8.186   4.476 -1.5474 -2.3011 -1.2837
  938MOL0     H26581   6.824   8.255   4.423 -0.7663 -1.2488 -1.0437
  938MOL0     H26582   7.030   8.352   4.270  3.3371  1.3530 -2.3137
  938MOL0     H26583   6.973   8.475   4.163 -0.8721 -0.9517  0.2673
  938MOL0     H26584   6.962   8.637   4.359  0.6233  0.7923  2.4322
  938MOL0     H26585   6.980   8.500   4.470  2.2348 -3.6410 -0.8574
  938MOL0     H26586   7.214   8.460   4.401  1.7585  1.7003  3.2211
  938MOL0     H26587   7.187   8.626   4.458 -0.2919 -0.7946  0.8843
  938MOL0     H26588   7.156   8.699   4.220  0.4819 -0.1684 -0.0372
  938MOL0     H26589   7.224   8.531   4.171 -0.9089 -0.1376 -1.3521
  938MOL0     H26590   7.582   8.774   4.371  0.4542  0.4118  0.5270
  938MOL0     H26591   7.794   8.656   4.383  1.5458  0.8425 -1.9229
  938MOL0     H26592   7.898   8.089   4.563 -0.9196  0.3811  0.3560
  938MOL0     H26593   8.104   7.982   4.629  2.4837  1.7489  1.4132
  938MOL0     H26594   8.463   8.166   4.440 -0.1012 -0.3661  0.3412
  938MOL0     H26595   8.429   8.118   4.602 -2.2109 -2.2801  0.9764
  938MOL0     H26596   8.593   7.924   4.580  0.3561 -2.0455 -1.2030
  938MOL0     H26597   8.578   7.939   4.397  3.4460  0.4500 -0.2986
  938MOL0     H26598   8.780   7.994   4.429 -0.7367  0.3751 -0.6898
  938MOL0     H26599   8.690   8.134   4.385 -1.3293  1.7066  1.5610
  938MOL0     H26600   8.736   8.084   4.687  1.0282 -0.3759 -0.4018
  938MOL0     H26601   8.704   8.236   4.616 -1.6693 -1.2437  0.7619
  938MOL0     H26602   8.958   8.067   4.599 -2.6506 -1.7918 -0.9271
  938MOL0     H26603   8.925   8.232   4.649 -0.9405 -1.5565  0.6663
  938MOL0     H26604   8.923   8.152   4.354 -1.0933 -1.9403  1.2054
  938MOL0     H26605   8.916   8.318   4.413 -0.3292 -0.4021 -1.7345
  938MOL0     H26606   9.153   8.145   4.442 -2.3921 -0.3211 -2.7296
  938MOL0     H26607   9.128   8.312   4.517 -0.4372  1.7849 -0.5179
  938MOL0     H26608   9.107   8.232   4.221 -0.4360  1.5869 -1.6372
  938MOL0     H26609   9.108   8.394   4.277  1.6447 -0.1816 -1.3956
  938MOL0     H26610   8.299   8.148   4.289  0.9755  2.8282  0.0476
  938MOL0     H26611   8.083   8.276   4.239  0.6349 -1.3489 -0.3042
  938MOL0     H26612   7.632   8.303   4.224  3.8147  0.8096 -0.0354
  938MOL0     H26613   7.402   8.405   4.212  1.1307 -0.2271 -0.9043
  938MOL0     H26614   5.879   7.397   4.189  1.0558 -0.3725  1.1496
  938MOL0     H26615   5.643   7.362   4.123  1.2176  1.0786 -0.6739
  938MOL0     H26616   5.323   7.232   4.211 -0.8599 -2.2636  0.3933
  938MOL0     H26617   5.133   7.076   4.163  1.6518  1.1535 -3.2720
  938MOL0     H26618   4.697   7.105   4.089 -1.1262  1.0153 -0.7208
  938MOL0     H26619   4.759   7.273   4.122  0.6633  0.6314  4.5926
  938MOL0     H26620   4.687   7.245   4.360 -1.0804 -0.0853  0.7259
  938MOL0     H26621   4.620   7.091   4.320  1.5544  0.8194  2.2420
  938MOL0     H26622   4.456   7.177   4.159 -1.4039 -0.3263  0.3230
  938MOL0     H26623   4.510   7.338   4.197 -1.2939 -0.7125 -1.1956
  938MOL0     H26624   4.453   7.305   4.435  2.3184 -0.8681 -0.3482
  938MOL0     H26625   4.315   7.302   4.330 -0.8804 -0.1148  0.8920
  938MOL0     H26626   4.252   6.907   4.466 -0.9612 -0.1355 -1.0486
  938MOL0     H26627   4.864   7.389   4.279 -0.1925 -2.7042  0.5493
  938MOL0     H26628   5.092   7.636   4.363  0.3896 -1.7241  0.2951
  938MOL0     H26629   5.065   7.643   4.186 -1.1322 -0.8129 -2.0912
  938MOL0     H26630   4.933   7.602   4.300  1.6835  2.7455  0.7582
  939MOL0     O26631   1.105   5.410   5.932 -0.2775 -0.9984 -0.2980
  939MOL0     C26632   1.170   5.452   6.035  0.5400 -0.2312  0.8246
  939MOL0     O26633   1.259   5.553   6.040  0.0451  0.1276  0.3487
  939MOL0     C26634   1.306   5.586   5.914 -0.9224  0.1035 -0.8238
  939MOL0     C26635   1.384   5.492   5.845  0.5891  0.3005  0.7303
  939MOL0     C26636   1.461   5.528   5.734 -0.9489  0.0632  0.4681
  939MOL0     C26637   1.474   5.670   5.697  0.9265  0.4508 -0.0031
  939MOL0     O26638   1.539   5.731   5.596  0.0646  0.1592  0.2558
  939MOL0     C26639   1.642   5.648   5.531  0.0557 -1.1063 -0.5260
  939MOL0     C26640   1.730   5.729   5.439 -0.6902 -0.3335  0.3502
  939MOL0     C26641   1.661   5.842   5.347 -0.0275  0.2031 -0.0784
  939MOL0     C26642   1.769   5.946   5.301 -0.0416 -0.1515  0.8203
  939MOL0     C26643   1.805   6.044   5.415  0.0717  1.0889  0.0034
  939MOL0     C26644   1.951   6.090   5.421  0.1551  0.2270 -0.3203
  939MOL0     C26645   1.997   6.169   5.300  0.1663 -0.8459  0.3054
  939MOL0     C26646   2.122   6.110   5.252 -0.1065 -0.5469  0.4049
  939MOL0     N26647   2.154   6.183   5.127  0.0133  0.2586  0.2778
  939MOL0     C26648   2.139   6.138   5.000 -0.5127  0.4388  1.0368
  939MOL0     C26649   2.195   6.235   4.923 -0.5272  0.1246 -0.0431
  939MOL0     C26650   2.212   6.239   4.776  0.2645 -0.6097 -0.0675
  939MOL0     C26651   2.362   6.207   4.762  0.5973 -0.1435  0.1623
  939MOL0     C26652   2.423   6.235   4.619 -0.2343  0.3223 -0.7733
  939MOL0     C26653   2.578   6.223   4.627 -0.8838  0.4903 -0.0967
  939MOL0     O26654   2.629   6.204   4.500  0.3400 -0.0907  0.2019
  939MOL0     C26655   2.759   6.235   4.491  0.2200 -0.6585 -0.1342
  939MOL0     C26656   2.799   6.347   4.411  0.1473  0.6483  1.0437
  939MOL0     C26657   2.927   6.381   4.404 -0.4009  0.7115  0.0196
  939MOL0     C26658   3.028   6.318   4.475  0.3543 -0.5777  0.2686
  939MOL0     C26659   3.175   6.361   4.465  0.5669 -0.1603  0.2949
  939MOL0     O26660   3.203   6.493   4.430  0.0983  0.2277  0.2954
  939MOL0     C26661   3.330   6.525   4.394 -1.0537 -1.3339 -0.1181
  939MOL0     C26662   3.361   6.591   4.275  0.5480 -0.5446  0.5087
  939MOL0     C26663   3.490   6.612   4.229  0.4055 -0.2201 -0.6230
  939MOL0     C26664   3.597   6.580   4.304 -0.3534 -0.1570 -0.4345
  939MOL0     O26665   3.729   6.616   4.277 -0.0799 -0.2276  1.0545
  939MOL0     C26666   3.764   6.636   4.134  0.0883  1.1575 -0.1608
  939MOL0     C26667   3.888   6.558   4.098 -0.5074  0.2866  0.0430
  939MOL0     C26668   4.014   6.593   4.185  0.0952  0.4480 -0.2658
  939MOL0     C26669   4.149   6.539   4.131 -0.0096 -0.4362 -0.7153
  939MOL0     C26670   4.272   6.616   4.179 -0.7640 -0.1955 -0.4291
  939MOL0     C26671   4.400   6.560   4.129 -0.9409 -0.0042 -0.0941
  939MOL0     C26672   4.504   6.674   4.136 -0.3326 -0.1860  0.1650
  939MOL0     C26673   4.561   6.698   4.279  0.3757 -0.4581  0.3109
  939MOL0    Cl26674   4.655   6.850   4.255 -0.1450  0.0295 -0.2545
  939MOL0     C26675   3.576   6.520   4.429 -0.5232  0.7714 -0.4472
  939MOL0     C26676   3.443   6.486   4.472 -0.7710 -0.1939 -0.0671
  939MOL0     O26677   3.256   6.277   4.500 -0.1890  0.6589  0.2129
  939MOL0     C26678   2.992   6.207   4.555 -0.7835 -0.4797 -1.0513
  939MOL0     C26679   2.856   6.163   4.568  0.1108  0.3479 -0.5443
  939MOL0     N26680   2.236   6.340   5.002  0.5570 -0.8528  0.6371
  939MOL0     N26681   2.209   6.306   5.121 -0.2871 -0.1049  0.7493
  939MOL0     C26682   1.400   5.758   5.771  0.6229  0.5181 -0.2111
  939MOL0     C26683   1.322   5.718   5.880 -0.1487 -0.3509  0.3812
  939MOL0     C26684   1.135   5.383   6.162  1.2196 -0.0689 -0.0856
  939MOL0     C26685   1.004   5.329   6.173 -0.5162  0.6515 -0.9994
  939MOL0     C26686   0.952   5.265   6.293 -0.9529  0.0053 -0.3434
  939MOL0     C26687   1.036   5.239   6.405 -0.0730  0.7687 -0.6418
  939MOL0     O26688   1.013   5.167   6.519 -0.2052  1.1372  1.0969
  939MOL0     C26689   0.899   5.099   6.532 -0.1960  0.8199 -0.0774
  939MOL0     C26690   0.897   4.961   6.448  0.0833  0.2585  0.1737
  939MOL0     C26691   0.762   4.874   6.449 -0.0330 -0.5700  0.5278
  939MOL0     C26692   0.692   4.865   6.310 -0.5762  0.9329 -0.7049
  939MOL0     C26693   0.645   4.999   6.270 -0.6915  0.4133  0.9776
  939MOL0     C26694   0.597   5.107   6.234  0.3599  0.4078 -0.6026
  939MOL0     C26695   1.159   5.298   6.400 -0.1592 -0.0290 -0.2013
  939MOL0     C26696   1.210   5.370   6.282 -0.0539 -0.1193 -0.7637
  939MOL0     C26697   1.334   5.451   6.298 -0.8312  0.1618 -0.4496
  939MOL0     H26698   1.403   5.387   5.866  3.5671  0.4219 -0.8234
  939MOL0     H26699   1.525   5.452   5.691  4.6344  3.2507  2.1308
  939MOL0     H26700   1.702   5.609   5.614 -1.8559 -1.5313  0.7051
  939MOL0     H26701   1.595   5.560   5.486  2.3906 -2.7015 -0.0323
  939MOL0     H26702   1.780   5.660   5.371  0.2680 -0.6369  1.3448
  939MOL0     H26703   1.804   5.774   5.506  0.5306 -4.0404  1.7498
  939MOL0     H26704   1.589   5.893   5.411  0.6075 -1.7571  2.3708
  939MOL0     H26705   1.619   5.793   5.259  1.4828  0.0948 -0.7696
  939MOL0     H26706   1.855   5.897   5.255  0.3896  1.9576 -0.8059
  939MOL0     H26707   1.722   6.008   5.224  0.4457  0.4053  0.9589
  939MOL0     H26708   1.739   6.131   5.420  0.8842  1.8708 -1.8266
  939MOL0     H26709   1.792   5.989   5.509  1.6975 -1.1937 -1.0119
  939MOL0     H26710   1.959   6.167   5.499  0.4058  0.8144 -0.9129
  939MOL0     H26711   2.004   5.998   5.445  0.4097  0.9217  2.0609
  939MOL0     H26712   2.007   6.276   5.318 -2.2313 -0.2295 -1.5645
  939MOL0     H26713   1.911   6.170   5.233  1.0761  4.0762 -1.1321
  939MOL0     H26714   2.204   6.103   5.323 -1.8211 -3.2421  2.3238
  939MOL0     H26715   2.096   6.012   5.211 -1.1725  1.0802 -3.2749
  939MOL0     H26716   2.101   6.042   4.967  1.0312 -0.5203  1.9336
  939MOL0     H26717   2.154   6.168   4.717 -2.3316  1.0900  0.2062
  939MOL0     H26718   2.190   6.337   4.732 -3.1490 -1.2789 -0.1343
  939MOL0     H26719   2.423   6.270   4.826  1.4520  2.4049 -2.8707
  939MOL0     H26720   2.381   6.101   4.782  1.6207  0.1084  0.5567
  939MOL0     H26721   2.392   6.330   4.574 -0.6666  0.8164  0.5243
  939MOL0     H26722   2.380   6.162   4.549 -1.5814  0.4900 -0.1501
  939MOL0     H26723   2.605   6.131   4.679 -0.0458  0.6198 -0.2938
  939MOL0     H26724   2.624   6.308   4.678 -0.4813 -0.1047  0.5628
  939MOL0     H26725   2.723   6.407   4.362  1.7903  2.5096  0.6986
  939MOL0     H26726   2.946   6.464   4.336 -0.3496  0.1518 -0.6729
  939MOL0     H26727   3.278   6.623   4.213  1.3574 -1.8743 -1.3726
  939MOL0     H26728   3.495   6.667   4.136 -0.7338 -0.5040 -0.8631
  939MOL0     H26729   3.691   6.604   4.059  1.4682 -1.1678 -0.6390
  939MOL0     H26730   3.775   6.742   4.110  1.2669  0.6696 -2.0140
  939MOL0     H26731   3.863   6.453   4.111 -0.8368  0.6511  3.2705
  939MOL0     H26732   3.912   6.572   3.993 -0.6087 -1.4394 -0.2356
  939MOL0     H26733   4.029   6.701   4.190 -1.5223  0.6564  0.6182
  939MOL0     H26734   3.998   6.562   4.288  1.3573  1.8664  0.3950
  939MOL0     H26735   4.149   6.531   4.022  2.5308  0.4912 -0.8468
  939MOL0     H26736   4.170   6.436   4.162  0.8620  0.0419  0.3643
  939MOL0     H26737   4.263   6.620   4.288 -0.7296 -0.5675 -0.4117
  939MOL0     H26738   4.267   6.719   4.145  1.4092 -0.0567 -0.4715
  939MOL0     H26739   4.429   6.477   4.195  0.3451 -0.3599 -1.0658
  939MOL0     H26740   4.390   6.530   4.024  2.3006 -2.0077  0.0371
  939MOL0     H26741   4.464   6.769   4.099 -1.5504 -0.6394  0.2576
  939MOL0     H26742   4.588   6.638   4.077  1.9904  1.1924  2.4112
  939MOL0     H26743   4.489   6.716   4.359  0.5486 -1.4219  0.6991
  939MOL0     H26744   4.627   6.618   4.311  2.6651  1.2283  0.0936
  939MOL0     H26745   3.654   6.530   4.505 -2.4167 -3.6091  2.4316
  939MOL0     H26746   3.441   6.452   4.575 -0.3273 -0.4893 -0.1489
  939MOL0     H26747   3.080   6.173   4.611 -1.9634  0.6688  1.6882
  939MOL0     H26748   2.822   6.087   4.638 -0.2776  0.4301 -0.6420
  939MOL0     H26749   1.391   5.861   5.738 -0.2226  0.7053  0.5618
  939MOL0     H26750   1.258   5.796   5.922 -1.5286 -1.2868  0.0887
  939MOL0     H26751   0.938   5.333   6.088 -2.5124 -3.1009  0.1330
  939MOL0     H26752   0.848   5.234   6.295 -0.7420 -0.7559 -0.6871
  939MOL0     H26753   0.807   5.153   6.508 -1.7789 -2.0411 -0.9794
  939MOL0     H26754   0.898   5.061   6.635  1.7107 -1.9255 -0.9887
  939MOL0     H26755   0.986   4.906   6.480  1.5660  1.8095 -1.0385
  939MOL0     H26756   0.917   4.985   6.343 -1.0368 -2.7039 -0.8015
  939MOL0     H26757   0.684   4.903   6.520 -1.7453 -3.2403 -0.1492
  939MOL0     H26758   0.803   4.779   6.483 -1.5364 -1.0721  0.9878
  939MOL0     H26759   0.764   4.828   6.237  2.1502  2.0992  1.2389
  939MOL0     H26760   0.608   4.796   6.324  2.1728 -2.9111 -1.6609
  939MOL0     H26761   0.547   5.202   6.227 -0.9300 -0.1054  1.1220
  939MOL0     H26762   1.232   5.302   6.481 -1.0778  1.1113  0.5954
  939MOL0     H26763   1.319   5.558   6.316  1.9789  0.3456  1.5070
  939MOL0     H26764   1.387   5.410   6.385  0.9989  1.7680 -0.7351
  939MOL0     H26765   1.401   5.444   6.213  1.1648  0.6431  1.0084
  940MOL0     O26766  10.424   4.867   3.045 -0.3636 -0.6847 -0.4613
  940MOL0     C26767  10.403   4.951   2.962  0.0478 -0.6313  0.2739
  940MOL0     O26768  10.508   5.025   2.893  0.1325 -0.0561 -0.8056
  940MOL0     C26769  10.639   5.013   2.913 -0.2163 -0.3988  0.0343
  940MOL0     C26770  10.716   5.126   2.880  0.5533  0.0649 -0.2808
  940MOL0     C26771  10.858   5.116   2.894 -0.3893  0.3155 -0.1350
  940MOL0     C26772  10.926   4.998   2.936 -0.1337  0.1853  0.6188
  940MOL0     O26773  11.065   5.006   2.946 -0.2598  0.6929  0.4425
  940MOL0     C26774  11.139   4.879   2.967  0.3014 -0.3314  0.3937
  940MOL0     C26775  11.301   4.907   2.968  0.2044 -0.9162  0.9297
  940MOL0     C26776  11.372   4.776   3.021  0.3288  0.3000 -0.2108
  940MOL0     C26777  11.518   4.749   2.994  0.6104 -0.5904 -0.1282
  940MOL0     C26778  11.561   4.625   3.062 -1.0955 -0.2290  0.0838
  940MOL0     C26779  11.711   4.646   3.109  0.2017  0.1429 -0.0230
  940MOL0     C26780  11.751   4.529   3.201  0.1821 -0.3517 -1.1768
  940MOL0     C26781  11.890   4.542   3.262 -0.0891  0.0735 -0.3593
  940MOL0     N26782  12.000   4.569   3.174  0.6380 -0.8615  0.2631
  940MOL0     C26783  12.058   4.487   3.080  0.2289  0.1308  0.5832
  940MOL0     C26784  12.139   4.560   3.007  0.2510  0.2713 -0.2127
  940MOL0     C26785  12.220   4.494   2.900  0.4133  0.8128 -0.6841
  940MOL0     C26786  12.355   4.440   2.948 -0.2374 -0.1422 -0.5998
  940MOL0     C26787  12.448   4.553   2.989 -0.6661 -0.1434 -0.0580
  940MOL0     C26788  12.581   4.506   3.050 -0.1822  0.3059  0.6965
  940MOL0     O26789  12.650   4.617   3.102  0.1831 -0.4903 -0.0260
  940MOL0     C26790  12.768   4.599   3.170 -0.0150  0.2559  0.2362
  940MOL0     C26791  12.832   4.716   3.188 -0.7715  0.6942  0.4718
  940MOL0     C26792  12.953   4.723   3.258  0.0632  0.1167 -0.4789
  940MOL0     C26793  13.004   4.605   3.313 -0.7667  0.1823  0.0511
  940MOL0     C26794  13.145   4.610   3.370 -0.3654  0.0199  0.1028
  940MOL0     O26795  13.215   4.726   3.354  0.6604  0.0417 -0.4873
  940MOL0     C26796  13.325   4.758   3.423  0.1276 -0.1499 -0.2579
  940MOL0     C26797  13.349   4.889   3.416  1.0309  0.1098 -0.7737
  940MOL0     C26798  13.459   4.940   3.479  0.2862  0.0386 -0.5529
  940MOL0     C26799  13.552   4.859   3.544  0.1390 -0.2722 -0.3612
  940MOL0     O26800  13.656   4.930   3.590  0.0904 -0.5479 -0.7095
  940MOL0     C26801  13.745   4.857   3.676  0.5632 -0.1045 -0.0766
  940MOL0     C26802  13.866   4.947   3.719  1.0697  0.0477  0.1328
  940MOL0     C26803  13.825   5.057   3.823 -0.5552 -0.4145 -0.7262
  940MOL0     C26804  13.940   5.159   3.837 -0.1160 -0.3935  0.0328
  940MOL0     C26805  13.884   5.289   3.892 -0.8351 -1.1051 -0.7542
  940MOL0     C26806  13.853   5.264   4.042  0.2556  0.0373 -0.0263
  940MOL0     C26807  13.813   5.396   4.109  0.2964 -0.7777 -0.0780
  940MOL0     C26808  13.725   5.386   4.226  0.7811  0.3508  0.3092
  940MOL0    Cl26809  13.767   5.240   4.323 -0.5790 -0.4830 -0.1643
  940MOL0     C26810  13.528   4.727   3.560  0.9163  0.1007  0.0228
  940MOL0     C26811  13.413   4.673   3.498  0.5454  0.4258 -0.3496
  940MOL0     O26812  13.183   4.510   3.427 -0.3430  0.0018 -0.6109
  940MOL0     C26813  12.938   4.490   3.298  0.7012  0.0248 -0.0706
  940MOL0     C26814  12.815   4.493   3.235  0.3392  0.2273 -0.0975
  940MOL0     N26815  12.142   4.688   3.060 -0.3223  0.0906 -0.0965
  940MOL0     N26816  12.057   4.693   3.160 -0.1992  0.6432 -0.7313
  940MOL0     C26817  10.845   4.888   2.961 -0.2974  0.1746 -0.0598
  940MOL0     C26818  10.703   4.894   2.953 -0.3707  0.2354  0.8916
  940MOL0     C26819  10.261   4.982   2.919 -0.2349  0.3040 -0.5416
  940MOL0     C26820  10.246   5.110   2.878 -0.1843 -0.5437 -0.2339
  940MOL0     C26821  10.125   5.161   2.839  0.9583  0.2205  0.6420
  940MOL0     C26822  10.006   5.071   2.828 -1.2774 -0.1097  0.3870
  940MOL0     O26823   9.890   5.119   2.767  0.2476 -0.3386  0.2570
  940MOL0     C26824   9.757   5.045   2.794  0.5472  0.5351  0.8962
  940MOL0     C26825   9.641   5.121   2.727 -0.0025 -0.5054  0.3970
  940MOL0     C26826   9.631   5.273   2.761  0.1799 -1.0603  0.1476
  940MOL0     C26827   9.631   5.309   2.911 -0.0177  0.6089 -0.6633
  940MOL0     C26828   9.526   5.245   2.993 -1.2839 -0.1365 -0.2706
  940MOL0     C26829   9.426   5.204   3.055  0.2308  0.4040 -0.1659
  940MOL0     C26830  10.031   4.936   2.865 -0.1394 -1.0367 -0.0660
  940MOL0     C26831  10.150   4.894   2.912 -0.3188 -1.3016  0.5963
  940MOL0     C26832  10.148   4.746   2.956  0.0568 -0.3874 -0.1877
  940MOL0     H26833  10.664   5.217   2.853 -2.5555 -2.3733 -3.5322
  940MOL0     H26834  10.918   5.205   2.879  2.4265 -1.3170  0.7866
  940MOL0     H26835  11.104   4.840   3.063  1.0599 -1.1668  0.3362
  940MOL0     H26836  11.100   4.814   2.888 -0.1480  1.9935 -1.3985
  940MOL0     H26837  11.333   4.992   3.030  1.4428  2.5329 -3.8674
  940MOL0     H26838  11.341   4.941   2.872  1.2552  0.8948  1.9418
  940MOL0     H26839  11.317   4.687   2.985 -2.2182  1.5041  0.4494
  940MOL0     H26840  11.359   4.784   3.129 -2.2082 -1.1342 -0.3135
  940MOL0     H26841  11.524   4.745   2.885  2.5530  1.9263 -0.2107
  940MOL0     H26842  11.574   4.842   3.013 -0.5414  0.4718 -1.7371
  940MOL0     H26843  11.501   4.606   3.151  0.8410 -0.9237  1.3097
  940MOL0     H26844  11.559   4.539   2.995 -0.3226  0.8420 -1.3793
  940MOL0     H26845  11.777   4.646   3.021 -1.8199 -1.1731 -1.6437
  940MOL0     H26846  11.717   4.743   3.158 -0.3782  0.1541  0.0388
  940MOL0     H26847  11.740   4.431   3.154  1.3946  0.3935 -3.1937
  940MOL0     H26848  11.676   4.532   3.280 -2.4938  0.4194 -3.5533
  940MOL0     H26849  11.886   4.626   3.332 -1.1270 -1.7056  1.8527
  940MOL0     H26850  11.907   4.449   3.317  1.4458 -0.4013 -1.5463
  940MOL0     H26851  12.044   4.379   3.074  0.3421  0.1592 -0.4643
  940MOL0     H26852  12.158   4.416   2.854 -0.6452  1.5112 -0.4785
  940MOL0     H26853  12.242   4.555   2.812 -0.2312  1.0918 -0.6572
  940MOL0     H26854  12.335   4.380   3.037 -2.7030  1.0997 -0.2276
  940MOL0     H26855  12.392   4.380   2.865 -0.9011  1.5275 -2.1725
  940MOL0     H26856  12.404   4.619   3.064  3.7577  0.3680  2.4478
  940MOL0     H26857  12.468   4.612   2.899  0.5403 -0.7775 -0.2306
  940MOL0     H26858  12.632   4.456   2.968  0.3137  0.7641  0.7229
  940MOL0     H26859  12.550   4.428   3.120 -2.3162  1.0295  0.6567
  940MOL0     H26860  12.790   4.800   3.133 -1.0971 -1.9548 -3.7862
  940MOL0     H26861  13.017   4.811   3.262  0.3071  0.0461 -2.2751
  940MOL0     H26862  13.281   4.955   3.362  0.9576  1.6654  1.0892
  940MOL0     H26863  13.482   5.046   3.474  1.5807 -0.1485  0.7596
  940MOL0     H26864  13.695   4.799   3.755 -1.0050 -0.6480 -1.4005
  940MOL0     H26865  13.803   4.781   3.622  2.2274  0.3257  1.0497
  940MOL0     H26866  13.952   4.896   3.763  1.0131  0.2475  0.4849
  940MOL0     H26867  13.895   4.989   3.622  1.5653 -0.2363  0.1562
  940MOL0     H26868  13.734   5.111   3.796 -1.6414 -0.9644  1.6048
  940MOL0     H26869  13.811   5.003   3.918 -0.2985 -1.6413 -1.3653
  940MOL0     H26870  13.975   5.159   3.733  1.9330 -2.2081  0.6327
  940MOL0     H26871  14.029   5.129   3.894  0.2120  0.1792 -0.1694
  940MOL0     H26872  13.793   5.321   3.842 -0.9613  0.7590  0.5610
  940MOL0     H26873  13.954   5.373   3.893 -1.0474 -0.7413  3.5759
  940MOL0     H26874  13.770   5.194   4.059 -0.8396  1.4869  0.7419
  940MOL0     H26875  13.937   5.218   4.096  0.0822  0.3148  0.4846
  940MOL0     H26876  13.778   5.462   4.029  1.6528 -0.8413 -0.7447
  940MOL0     H26877  13.913   5.432   4.136  0.1553  0.0067 -0.5566
  940MOL0     H26878  13.709   5.471   4.293 -1.6171 -0.3602  0.7144
  940MOL0     H26879  13.625   5.373   4.183  1.3047 -1.3396 -0.4833
  940MOL0     H26880  13.595   4.663   3.617  1.2135 -1.3097 -1.7995
  940MOL0     H26881  13.391   4.568   3.508 -0.8113  0.6739 -0.5452
  940MOL0     H26882  12.978   4.399   3.340 -0.6595 -1.7353 -2.3585
  940MOL0     H26883  12.751   4.406   3.237 -0.6946  0.9670  2.1529
  940MOL0     H26884  10.892   4.794   2.988  2.1421  1.4827  0.5652
  940MOL0     H26885  10.645   4.806   2.982 -0.9772  0.3845  0.1769
  940MOL0     H26886  10.333   5.175   2.872 -0.4124  0.8211  5.5172
  940MOL0     H26887  10.107   5.266   2.818  3.2235  0.4527 -0.4073
  940MOL0     H26888   9.737   5.032   2.900  0.8454  0.1113  0.9071
  940MOL0     H26889   9.770   4.947   2.745 -0.1213  0.6466  0.4953
  940MOL0     H26890   9.548   5.065   2.738 -1.0290  1.1199  0.3039
  940MOL0     H26891   9.664   5.113   2.620 -0.8400 -1.8263  0.2956
  940MOL0     H26892   9.539   5.316   2.720  2.1595  1.6756 -1.8200
  940MOL0     H26893   9.715   5.324   2.712 -1.7326  0.7360 -1.4493
  940MOL0     H26894   9.727   5.287   2.959  1.4126  2.0847 -2.6937
  940MOL0     H26895   9.609   5.415   2.917 -3.5999 -0.0818  1.5464
  940MOL0     H26896   9.334   5.176   3.103  0.5186  1.5184  1.0807
  940MOL0     H26897   9.953   4.864   2.845  2.0957 -2.9571 -2.7936
  940MOL0     H26898  10.195   4.733   3.053 -0.5377 -3.4466 -0.1794
  940MOL0     H26899  10.047   4.705   2.966  0.8059 -2.8160 -1.5952
  940MOL0     H26900  10.205   4.683   2.886  1.7622 -2.7007  3.0307
  941MOL0     O26901   8.104   7.365  10.487  0.0992 -0.4118  0.3037
  941MOL0     C26902   8.220   7.377  10.445  0.3552  0.7473 -0.0800
  941MOL0     O26903   8.248   7.381  10.310  0.0255 -0.5232 -0.6677
  941MOL0     C26904   8.179   7.321  10.213  0.6509 -1.0355 -0.2553
  941MOL0     C26905   8.039   7.344  10.186 -0.2349 -1.0150  0.2578
  941MOL0     C26906   7.972   7.281  10.081  0.0441 -1.1101  0.7522
  941MOL0     C26907   8.038   7.180  10.010 -0.4273  0.3282 -0.3039
  941MOL0     O26908   7.965   7.118   9.907  0.5621 -0.4307 -0.4045
  941MOL0     C26909   8.012   6.994   9.855  0.4399 -0.5321 -0.1990
  941MOL0     C26910   7.926   6.940   9.742 -0.3727 -0.1894 -1.0483
  941MOL0     C26911   7.892   7.043   9.629  0.1486  0.9690 -0.0483
  941MOL0     C26912   7.803   6.982   9.522 -0.1879  0.6452 -0.6468
  941MOL0     C26913   7.796   7.061   9.398  0.7149 -0.0701 -0.3671
  941MOL0     C26914   7.746   7.211   9.410 -0.2507  1.3361 -0.6726
  941MOL0     C26915   7.603   7.228   9.462 -0.9029  0.3454  0.3061
  941MOL0     C26916   7.581   7.372   9.491  0.2443 -0.0084  0.4102
  941MOL0     N26917   7.443   7.396   9.519 -0.1251  0.3904  0.2400
  941MOL0     C26918   7.395   7.405   9.644  0.8585  0.3394 -1.0108
  941MOL0     C26919   7.262   7.426   9.632  0.1701  0.5980 -0.0650
  941MOL0     C26920   7.157   7.441   9.750 -0.3986 -0.1934  0.2470
  941MOL0     C26921   7.120   7.586   9.782 -0.9525 -0.4961 -0.4212
  941MOL0     C26922   7.253   7.655   9.820 -0.1252 -0.4020  0.4192
  941MOL0     C26923   7.247   7.801   9.845  0.0092 -0.1063  0.3269
  941MOL0     O26924   7.383   7.855   9.849  1.0428 -0.3189 -0.4210
  941MOL0     C26925   7.411   7.991   9.867  1.0155  0.4652 -0.1062
  941MOL0     C26926   7.307   8.077   9.898  0.3238 -0.2216  0.4935
  941MOL0     C26927   7.321   8.216   9.910  0.1862 -0.2225 -0.2695
  941MOL0     C26928   7.449   8.270   9.891  0.3380  0.0085  0.0970
  941MOL0     C26929   7.467   8.415   9.896 -0.6812 -0.3974 -0.0357
  941MOL0     O26930   7.362   8.490   9.877  0.2278 -0.7838  0.5251
  941MOL0     C26931   7.366   8.628   9.903 -0.7167 -1.0907 -0.0806
  941MOL0     C26932   7.272   8.689   9.989  0.2832  0.3572 -0.2588
  941MOL0     C26933   7.265   8.830  10.011  0.0384 -0.0616  0.3676
  941MOL0     C26934   7.355   8.908   9.947  0.6609  0.0385  0.5476
  941MOL0     O26935   7.363   9.037   9.958 -0.3960 -0.6218  0.4675
  941MOL0     C26936   7.297   9.112  10.066  0.1017  0.7198  0.1410
  941MOL0     C26937   7.309   9.269  10.072 -0.8242 -0.5260  0.5797
  941MOL0     C26938   7.455   9.315  10.095  0.1838 -0.3697 -0.5364
  941MOL0     C26939   7.472   9.459  10.052  0.1642  0.1135 -0.2266
  941MOL0     C26940   7.618   9.496  10.046  0.0339  1.4181 -0.6404
  941MOL0     C26941   7.685   9.444   9.919 -0.0933 -0.7722  0.6012
  941MOL0     C26942   7.792   9.555   9.881 -0.8725 -0.3575  0.8837
  941MOL0     C26943   7.865   9.512   9.752 -1.6807 -0.4825 -1.6269
  941MOL0    Cl26944   7.971   9.652   9.710  0.2272  0.0058  0.0402
  941MOL0     C26945   7.444   8.846   9.857 -0.0647  0.7258  0.2715
  941MOL0     C26946   7.452   8.710   9.841 -0.4747 -0.1690  0.6576
  941MOL0     O26947   7.574   8.459   9.938 -0.2308 -0.1257 -0.2714
  941MOL0     C26948   7.549   8.187   9.855 -0.0104  0.4757 -0.0954
  941MOL0     C26949   7.538   8.046   9.846  0.3656  0.9536 -0.4741
  941MOL0     N26950   7.232   7.425   9.498 -0.1139 -0.0228 -0.2846
  941MOL0     N26951   7.343   7.411   9.430  0.3168  0.1392 -0.9642
  941MOL0     C26952   8.174   7.154  10.042  1.4207  0.2762 -0.4275
  941MOL0     C26953   8.239   7.225  10.139  0.4379 -0.1681 -0.8549
  941MOL0     C26954   8.327   7.383  10.548  0.2242 -0.0093 -1.2757
  941MOL0     C26955   8.455   7.380  10.501 -0.2919  0.6035  0.4588
  941MOL0     C26956   8.571   7.381  10.582  0.4771 -0.0011 -0.1372
  941MOL0     C26957   8.546   7.385  10.727 -0.7078  0.3704 -0.0551
  941MOL0     O26958   8.646   7.379  10.821 -0.6423 -0.1163  0.0727
  941MOL0     C26959   8.784   7.363  10.787 -0.2666 -0.1338 -0.0341
  941MOL0     C26960   8.866   7.495  10.780  0.2555  0.1608 -0.0574
  941MOL0     C26961   9.026   7.465  10.772  0.1771 -1.1013  0.6866
  941MOL0     C26962   9.107   7.580  10.821 -0.4196 -0.1071  0.0269
  941MOL0     C26963   9.110   7.589  10.964  0.6176  1.2189  0.5612
  941MOL0     C26964   9.103   7.588  11.090  0.0649 -1.0445 -0.3629
  941MOL0     C26965   8.424   7.396  10.777 -0.6027  0.4604  0.3632
  941MOL0     C26966   8.309   7.388  10.695  0.3283  0.2569  0.8224
  941MOL0     C26967   8.174   7.407  10.767 -0.6398 -0.4915 -0.4660
  941MOL0     H26968   7.983   7.413  10.248  1.4461 -0.7258  1.5092
  941MOL0     H26969   7.866   7.298  10.064  0.2475 -1.1096 -0.6360
  941MOL0     H26970   8.109   7.025   9.814  0.0759  1.3629  0.2865
  941MOL0     H26971   8.016   6.923   9.938  0.9767 -2.4971 -1.8252
  941MOL0     H26972   7.839   6.916   9.805  1.0777 -0.5447  0.9110
  941MOL0     H26973   7.961   6.846   9.699 -1.7071 -1.2006 -0.0271
  941MOL0     H26974   7.982   7.092   9.594  3.0097 -1.2151  3.4459
  941MOL0     H26975   7.830   7.121   9.675 -1.3270 -2.4484  4.6465
  941MOL0     H26976   7.845   6.891   9.478 -0.1262  1.0700 -1.4873
  941MOL0     H26977   7.703   6.953   9.556  0.6286 -1.7192 -0.0227
  941MOL0     H26978   7.894   7.058   9.349  1.3983  2.8392  0.6281
  941MOL0     H26979   7.729   7.007   9.330 -1.0720  2.9838 -1.1910
  941MOL0     H26980   7.816   7.260   9.478  2.0938 -0.7764 -1.3955
  941MOL0     H26981   7.758   7.249   9.308 -3.2946  3.2296 -0.4516
  941MOL0     H26982   7.586   7.165   9.549  0.3557  0.5270  0.7015
  941MOL0     H26983   7.535   7.198   9.382 -0.5300  0.9391 -0.2466
  941MOL0     H26984   7.641   7.401   9.578  1.6418 -0.1403 -0.4829
  941MOL0     H26985   7.604   7.428   9.400  2.2886 -4.3605 -2.0681
  941MOL0     H26986   7.444   7.385   9.739 -1.9603 -0.4124  0.3918
  941MOL0     H26987   7.062   7.399   9.714 -1.8907  1.4594  2.0056
  941MOL0     H26988   7.197   7.396   9.842 -1.3742  1.5407  1.5936
  941MOL0     H26989   7.077   7.631   9.692 -0.2831 -0.0185 -0.5138
  941MOL0     H26990   7.047   7.585   9.864 -2.4260  0.0586 -1.6769
  941MOL0     H26991   7.329   7.640   9.743  0.9317 -0.9388  1.5150
  941MOL0     H26992   7.299   7.601   9.904 -0.1460 -0.3789  0.4453
  941MOL0     H26993   7.184   7.821   9.932 -0.9677 -0.3958 -0.2968
  941MOL0     H26994   7.203   7.852   9.759  0.8673  3.1530  1.6886
  941MOL0     H26995   7.208   8.046   9.931 -0.0638  1.4906  1.0545
  941MOL0     H26996   7.238   8.286   9.914  1.7497  1.7453 -0.5135
  941MOL0     H26997   7.193   8.628  10.031  0.0463 -0.4706 -1.8519
  941MOL0     H26998   7.185   8.870  10.073 -1.0601  0.7859 -1.5268
  941MOL0     H26999   7.192   9.083  10.064  0.8536 -2.3804 -1.4974
  941MOL0     H27000   7.335   9.074  10.161 -1.4946 -0.2160  0.4443
  941MOL0     H27001   7.270   9.295   9.973  0.6137  2.4341  0.6719
  941MOL0     H27002   7.244   9.317  10.146 -2.0257  3.8490 -2.8676
  941MOL0     H27003   7.484   9.300  10.199  1.8667  0.0239 -0.9178
  941MOL0     H27004   7.516   9.246  10.036 -1.0743 -0.7210 -1.4672
  941MOL0     H27005   7.422   9.523  10.126 -0.2952  0.6260 -0.9587
  941MOL0     H27006   7.413   9.492   9.967 -0.7856  4.4974  1.8482
  941MOL0     H27007   7.669   9.445  10.128 -0.0027  1.0831 -0.8262
  941MOL0     H27008   7.613   9.605  10.061  1.0739  1.4631 -0.5600
  941MOL0     H27009   7.738   9.348   9.927  1.7803  0.3754  3.0354
  941MOL0     H27010   7.608   9.431   9.841  1.2161 -2.1663 -0.5200
  941MOL0     H27011   7.865   9.573   9.959 -1.2910 -1.0538  1.4486
  941MOL0     H27012   7.729   9.639   9.852 -2.7358 -2.4428 -1.6203
  941MOL0     H27013   7.937   9.434   9.777 -0.6338  0.8972 -0.0610
  941MOL0     H27014   7.790   9.489   9.676 -0.7962 -0.4034 -2.5569
  941MOL0     H27015   7.513   8.915   9.811  1.8764 -2.1297 -1.4329
  941MOL0     H27016   7.530   8.668   9.777 -0.4774  0.1048  0.4745
  941MOL0     H27017   7.648   8.231   9.843  0.7568 -1.3305 -0.8191
  941MOL0     H27018   7.626   7.986   9.827 -0.8126 -0.9030 -0.3274
  941MOL0     H27019   8.247   7.088   9.996  1.7063 -0.5435  1.1366
  941MOL0     H27020   8.345   7.203  10.141  0.3032 -0.8039 -0.3043
  941MOL0     H27021   8.464   7.388  10.394  0.0779  1.4781  0.5481
  941MOL0     H27022   8.672   7.368  10.544 -0.0585 -0.8676 -1.3472
  941MOL0     H27023   8.801   7.301  10.698  2.5726 -1.1728  1.0958
  941MOL0     H27024   8.824   7.301  10.868 -0.5673  2.5010  2.2757
  941MOL0     H27025   8.846   7.553  10.871  2.8337 -2.3049  2.2489
  941MOL0     H27026   8.833   7.549  10.691 -2.8959  0.6493  1.2518
  941MOL0     H27027   9.046   7.457  10.665 -0.8838  1.0964  0.2763
  941MOL0     H27028   9.051   7.370  10.820  0.2989 -0.4460  1.9588
  941MOL0     H27029   9.211   7.575  10.789 -0.4492 -0.4287 -0.0225
  941MOL0     H27030   9.066   7.678  10.796 -0.8484  0.0568  1.2811
  941MOL0     H27031   9.107   7.591  11.197 -3.0742 -0.5455 -0.1869
  941MOL0     H27032   8.413   7.396  10.885  1.2263  2.5321  0.6162
  941MOL0     H27033   8.133   7.500  10.727  0.6985  0.7608  0.9149
  941MOL0     H27034   8.116   7.317  10.746 -0.8880 -1.1668  2.6301
  941MOL0     H27035   8.182   7.416  10.876 -1.0566 -0.7536 -0.4122
  942MOL0     O27036   0.174   0.769   7.342 -0.1825  0.8046  0.6150
  942MOL0     C27037   0.076   0.722   7.410  0.1461 -0.1033 -0.5839
  942MOL0     O27038   0.086   0.598   7.480  0.8587 -0.2745 -0.5289
  942MOL0     C27039   0.193   0.518   7.454 -0.4682 -0.2354 -0.2004
  942MOL0     C27040   0.315   0.564   7.506 -0.8454 -0.0584  0.0804
  942MOL0     C27041   0.438   0.495   7.471  0.8053 -0.7681  0.3354
  942MOL0     C27042   0.442   0.389   7.381  0.8321  0.3733  0.1517
  942MOL0     O27043   0.545   0.332   7.312 -0.2777  0.1973 -0.2487
  942MOL0     C27044   0.690   0.358   7.354  0.4573  0.2565  0.4781
  942MOL0     C27045   0.716   0.254   7.466 -0.0336  0.4917 -0.3728
  942MOL0     C27046   0.865   0.264   7.509  0.1164 -0.2917  0.3014
  942MOL0     C27047   0.884   0.216   7.662  0.2126 -0.1715  0.4754
  942MOL0     C27048   1.016   0.269   7.719  0.3892 -0.7316 -0.3844
  942MOL0     C27049   1.140   0.216   7.659 -0.4783  0.0064 -0.1671
  942MOL0     C27050   1.169   0.068   7.683 -0.1458  0.4231  0.8908
  942MOL0     C27051   1.278   0.010   7.590  0.9798  0.2439 -0.6585
  942MOL0     N27052   1.415   0.031   7.637  0.7124  0.5379  0.3104
  942MOL0     C27053   1.503  -0.054   7.697 -0.3979 -0.4139  0.2287
  942MOL0     C27054   1.609   0.024   7.720 -0.2192 -0.0079  0.1938
  942MOL0     C27055   1.730  -0.018   7.793 -0.4529  0.3953 -0.6519
  942MOL0     C27056   1.749   0.049   7.932  1.0265  0.2902  0.7561
  942MOL0     C27057   1.888   0.019   7.989  0.0978 -0.6423  0.0830
  942MOL0     C27058   1.905  -0.124   8.047 -0.5882 -0.6808 -0.3587
  942MOL0     O27059   2.013  -0.124   8.142  0.1458 -0.1906 -0.6062
  942MOL0     C27060   2.134  -0.183   8.107 -0.2296  0.2375  0.6633
  942MOL0     C27061   2.156  -0.319   8.073  0.5576  0.2910  0.4217
  942MOL0     C27062   2.274  -0.378   8.027 -0.5386 -0.2897 -0.0040
  942MOL0     C27063   2.385  -0.295   8.032  0.0684  0.2794  0.3211
  942MOL0     C27064   2.519  -0.358   8.010 -0.3655  0.3248 -0.4648
  942MOL0     O27065   2.626  -0.265   8.008 -0.5959 -0.4641 -0.3696
  942MOL0     C27066   2.759  -0.298   7.974  0.3795 -0.3014  0.2928
  942MOL0     C27067   2.865  -0.213   8.028  0.3567 -0.1420  0.1296
  942MOL0     C27068   2.998  -0.245   8.002 -0.4277 -0.6295  0.4250
  942MOL0     C27069   3.029  -0.362   7.929  0.0776  0.4181  0.0122
  942MOL0     O27070   3.151  -0.413   7.909  0.0777 -0.5007 -0.0734
  942MOL0     C27071   3.265  -0.340   7.958  0.4874  0.1540  0.0407
  942MOL0     C27072   3.390  -0.395   7.882  0.6425  0.4867  0.1899
  942MOL0     C27073   3.517  -0.364   7.957 -0.1191  0.1395  0.1512
  942MOL0     C27074   3.639  -0.427   7.885  0.0820 -0.6023 -0.6424
  942MOL0     C27075   3.761  -0.413   7.974  0.2397 -0.0563  0.7101
  942MOL0     C27076   3.877  -0.477   7.898 -0.1692  0.4350 -0.0642
  942MOL0     C27077   3.877  -0.630   7.887 -0.2554  0.1457 -0.1407
  942MOL0     C27078   4.006  -0.671   7.823 -0.2651 -0.5027  0.6145
  942MOL0    Cl27079   4.028  -0.850   7.809  0.1413  0.3622 -0.1218
  942MOL0     C27080   2.922  -0.432   7.873 -0.1821  0.0360  0.3896
  942MOL0     C27081   2.792  -0.403   7.888  0.5226  0.2325  0.1450
  942MOL0     O27082   2.533  -0.478   7.998  0.7359  0.5643  0.3910
  942MOL0     C27083   2.371  -0.157   8.051  0.8189 -0.1102 -0.3385
  942MOL0     C27084   2.242  -0.102   8.084 -0.3564  0.1166 -0.3686
  942MOL0     N27085   1.579   0.157   7.698 -0.1574 -0.3680 -0.3955
  942MOL0     N27086   1.467   0.158   7.633 -0.3697  0.4566 -0.2959
  942MOL0     C27087   0.314   0.347   7.335 -0.0065 -0.2903  0.7524
  942MOL0     C27088   0.191   0.404   7.373  0.2182 -0.3093  0.7299
  942MOL0     C27089  -0.060   0.803   7.413 -0.2664 -0.3561  0.3220
  942MOL0     C27090  -0.150   0.762   7.502  0.6383 -0.4939 -0.2577
  942MOL0     C27091  -0.270   0.827   7.523 -1.0944 -0.6208 -0.8030
  942MOL0     C27092  -0.309   0.934   7.446  0.7059  0.3854  0.7465
  942MOL0     O27093  -0.436   0.993   7.476  0.0353  0.6043 -0.5956
  942MOL0     C27094  -0.482   1.112   7.413  0.4641  0.2926  0.5505
  942MOL0     C27095  -0.629   1.128   7.409  0.1098 -0.0402  0.4688
  942MOL0     C27096  -0.683   1.266   7.381  0.2827  0.7327 -0.8610
  942MOL0     C27097  -0.634   1.329   7.243 -0.8238 -0.3722  0.0994
  942MOL0     C27098  -0.712   1.450   7.219  0.4545  0.0552 -0.2483
  942MOL0     C27099  -0.777   1.553   7.201  1.3302 -0.8804 -0.5175
  942MOL0     C27100  -0.217   0.985   7.351 -0.2592  0.0098  0.1522
  942MOL0     C27101  -0.090   0.924   7.339  0.4506 -0.1099  0.1366
  942MOL0     C27102   0.013   1.003   7.263 -0.2979 -0.4547  0.7201
  942MOL0     H27103   0.315   0.658   7.560 -1.0367 -0.3710  0.6315
  942MOL0     H27104   0.529   0.542   7.505 -0.8921  3.4532 -0.4076
  942MOL0     H27105   0.764   0.348   7.274  2.5188 -1.0840  2.4498
  942MOL0     H27106   0.705   0.459   7.392 -1.9436  1.4910 -1.5138
  942MOL0     H27107   0.690   0.150   7.443 -1.5138  0.3868  1.5513
  942MOL0     H27108   0.649   0.276   7.549  1.5547 -1.3552  1.5121
  942MOL0     H27109   0.905   0.364   7.489 -5.4433  2.6095  1.8805
  942MOL0     H27110   0.922   0.184   7.459  0.3473 -0.4931  0.8811
  942MOL0     H27111   0.803   0.270   7.712 -1.0346 -1.2533 -0.3073
  942MOL0     H27112   0.866   0.110   7.684  3.2940 -0.5644  1.5697
  942MOL0     H27113   1.010   0.378   7.709 -2.2652 -0.8358 -0.7561
  942MOL0     H27114   1.010   0.243   7.825 -0.5535 -0.4695 -0.3650
  942MOL0     H27115   1.148   0.239   7.552  2.3086  0.7666  0.1015
  942MOL0     H27116   1.225   0.271   7.702 -0.8781  0.2894  0.2711
  942MOL0     H27117   1.085   0.007   7.647  1.3307 -0.8810 -0.5186
  942MOL0     H27118   1.183   0.045   7.789 -2.0552  2.4086  1.6519
  942MOL0     H27119   1.264  -0.096   7.568 -1.7746  0.4477 -0.2455
  942MOL0     H27120   1.262   0.046   7.488  3.2882 -0.4590 -1.3310
  942MOL0     H27121   1.484  -0.155   7.731  0.4249 -0.0541  1.8646
  942MOL0     H27122   1.717  -0.124   7.816  1.9378  0.5231  1.6041
  942MOL0     H27123   1.813   0.008   7.726 -0.3858  1.8250 -0.0427
  942MOL0     H27124   1.729   0.157   7.929  1.5963  0.3852 -1.6810
  942MOL0     H27125   1.676   0.024   8.010  0.1982  0.9407  0.2101
  942MOL0     H27126   1.908   0.094   8.066  2.1883  0.0481 -1.0418
  942MOL0     H27127   1.966   0.035   7.914  2.0370 -1.1436  1.8771
  942MOL0     H27128   1.939  -0.193   7.969  2.9129 -0.7835  1.0804
  942MOL0     H27129   1.807  -0.155   8.084 -0.4753 -0.9558 -0.2875
  942MOL0     H27130   2.066  -0.380   8.077  0.2500  0.4853 -2.0408
  942MOL0     H27131   2.282  -0.484   8.004  0.6539 -0.4280  0.9401
  942MOL0     H27132   2.850  -0.128   8.093 -0.1829 -0.6006  0.6047
  942MOL0     H27133   3.072  -0.175   8.039 -0.4147 -1.1367  1.4043
  942MOL0     H27134   3.265  -0.232   7.940  4.0606 -0.0019 -1.7513
  942MOL0     H27135   3.262  -0.368   8.063 -0.6548  2.0186  0.5484
  942MOL0     H27136   3.383  -0.503   7.865  0.9101  0.1146  2.1224
  942MOL0     H27137   3.388  -0.339   7.788 -0.5949  2.6051  1.4024
  942MOL0     H27138   3.516  -0.256   7.970  1.6011  0.6106 -2.7205
  942MOL0     H27139   3.514  -0.398   8.061 -2.0184  1.8849  0.7459
  942MOL0     H27140   3.654  -0.381   7.787  1.7371 -3.8513 -2.0586
  942MOL0     H27141   3.619  -0.533   7.867 -3.6962  0.2857 -2.7891
  942MOL0     H27142   3.757  -0.459   8.074  0.9851 -0.0612  0.7407
  942MOL0     H27143   3.792  -0.309   7.981  0.3280 -0.0176 -0.2013
  942MOL0     H27144   3.891  -0.437   7.797 -0.0148 -1.5047 -0.8529
  942MOL0     H27145   3.963  -0.449   7.959  0.2836 -4.2480  1.8463
  942MOL0     H27146   3.796  -0.674   7.828 -0.2144 -1.5009  0.9438
  942MOL0     H27147   3.866  -0.678   7.985  1.6179 -2.4057 -1.0485
  942MOL0     H27148   4.019  -0.630   7.722 -0.1905  3.5394  2.0677
  942MOL0     H27149   4.088  -0.618   7.873 -1.6463  2.6989 -0.2543
  942MOL0     H27150   2.948  -0.518   7.812  3.2514  1.8082 -0.9740
  942MOL0     H27151   2.718  -0.467   7.841  0.5291 -1.3298  2.1551
  942MOL0     H27152   2.459  -0.093   8.043 -0.7606  2.1563 -0.4433
  942MOL0     H27153   2.224  -0.002   8.121  1.7245  0.1414  0.6965
  942MOL0     H27154   0.322   0.260   7.269  1.0126  0.6947 -0.4808
  942MOL0     H27155   0.103   0.381   7.313  0.3285 -0.5750  0.6695
  942MOL0     H27156  -0.131   0.672   7.561  2.4698 -1.5150 -2.2662
  942MOL0     H27157  -0.331   0.804   7.609 -1.6054  1.9606 -0.3897
  942MOL0     H27158  -0.456   1.118   7.307 -0.8838  1.7629  0.2648
  942MOL0     H27159  -0.443   1.194   7.475  1.0848 -0.1918  0.8193
  942MOL0     H27160  -0.677   1.097   7.502  1.5916  0.3840  1.3991
  942MOL0     H27161  -0.658   1.056   7.331  0.1101  1.2543 -0.7766
  942MOL0     H27162  -0.650   1.336   7.459 -0.9284  2.7171 -2.0349
  942MOL0     H27163  -0.792   1.266   7.388  0.0356 -3.2025 -2.0828
  942MOL0     H27164  -0.527   1.355   7.247 -0.6371 -1.0125 -0.4020
  942MOL0     H27165  -0.640   1.258   7.160  1.2133 -1.1323  0.5225
  942MOL0     H27166  -0.842   1.638   7.200  3.7840  1.1029 -0.4957
  942MOL0     H27167  -0.246   1.073   7.295 -0.1582 -0.6305 -0.9384
  942MOL0     H27168   0.100   1.014   7.328 -0.2069  0.2285  0.4878
  942MOL0     H27169   0.032   0.946   7.171  0.5936 -1.7011  1.6484
  942MOL0     H27170  -0.017   1.103   7.231  4.0964  0.4467 -1.3897
  943MOL0     O27171   9.807  10.092   5.308  0.1940  0.4906  0.2857
  943MOL0     C27172   9.831  10.003   5.386 -0.0773  1.0208 -0.0175
  943MOL0     O27173   9.956   9.964   5.415 -0.4182 -0.0315  0.5872
  943MOL0     C27174  10.072  10.027   5.367 -0.7170 -0.2276  0.0866
  943MOL0     C27175  10.189   9.952   5.388 -0.2095 -1.0554 -0.0679
  943MOL0     C27176  10.313   9.992   5.355  0.6348  0.0795  0.0433
  943MOL0     C27177  10.331  10.117   5.299 -0.0064  0.3270  0.7745
  943MOL0     O27178  10.459  10.144   5.253  0.0374  0.0244  0.4505
  943MOL0     C27179  10.475  10.266   5.179  0.1934 -0.6217  0.2991
  943MOL0     C27180  10.612  10.268   5.117 -0.4198 -0.2874  0.0304
  943MOL0     C27181  10.644  10.408   5.056  0.7885 -0.1512 -0.0790
  943MOL0     C27182  10.694  10.507   5.173 -0.0845 -0.4576  0.3763
  943MOL0     C27183  10.839  10.544   5.149  0.6726  0.1004 -0.3275
  943MOL0     C27184  10.900  10.611   5.272 -1.3980  0.3534  0.4359
  943MOL0     C27185  10.854  10.754   5.312 -0.3753  0.9746  0.0846
  943MOL0     C27186  10.929  10.811   5.437 -0.3222  0.4330  0.7783
  943MOL0     N27187  11.068  10.855   5.410  0.6065  0.3494  0.2504
  943MOL0     C27188  11.178  10.781   5.444  0.3784 -1.0794 -0.3548
  943MOL0     C27189  11.274  10.875   5.416 -0.4192 -0.3107  0.9485
  943MOL0     C27190  11.423  10.866   5.460 -0.5488  0.1330  0.4705
  943MOL0     C27191  11.503  10.769   5.378  0.7610 -0.1128  0.3877
  943MOL0     C27192  11.500  10.803   5.226 -0.0503 -0.1845 -0.3488
  943MOL0     C27193  11.571  10.697   5.138 -0.0374  1.6193 -0.4083
  943MOL0     O27194  11.715  10.690   5.172 -0.2135  0.5743  0.4168
  943MOL0     C27195  11.808  10.792   5.149  0.5384  0.4251 -0.1383
  943MOL0     C27196  11.935  10.776   5.214 -0.3882  0.5027  0.9268
  943MOL0     C27197  12.022  10.884   5.201 -0.6065  0.6378  0.9109
  943MOL0     C27198  12.003  10.993   5.120 -0.2272 -0.2165 -0.9188
  943MOL0     C27199  12.107  11.103   5.116 -0.7675  0.2355 -0.5452
  943MOL0     O27200  12.204  11.083   5.205 -0.0001 -0.6879  0.6729
  943MOL0     C27201  12.297  11.182   5.221  0.0527 -0.9242 -0.3327
  943MOL0     C27202  12.418  11.197   5.146  0.0020  0.1937  0.3368
  943MOL0     C27203  12.512  11.295   5.180  0.2770  0.1432 -0.0494
  943MOL0     C27204  12.487  11.383   5.286  0.8777 -1.0030  0.5085
  943MOL0     O27205  12.578  11.484   5.300  0.2188 -0.1361 -0.5238
  943MOL0     C27206  12.533  11.619   5.339  0.0486 -0.3462 -0.5507
  943MOL0     C27207  12.631  11.711   5.254 -0.2429 -0.0352  0.2736
  943MOL0     C27208  12.775  11.696   5.306 -0.3837  1.0367  0.1819
  943MOL0     C27209  12.892  11.786   5.254  0.4000  0.6952  0.2543
  943MOL0     C27210  12.894  11.935   5.314  0.7082  0.2102  0.2145
  943MOL0     C27211  12.991  11.948   5.437  0.7588  0.3138 -1.0108
  943MOL0     C27212  13.041  12.091   5.465 -0.5314  0.3002 -0.6361
  943MOL0     C27213  13.162  12.093   5.558  0.1353  0.3369  0.9067
  943MOL0    Cl27214  13.126  12.060   5.728 -0.1488 -0.7289  0.4919
  943MOL0     C27215  12.378  11.359   5.368 -0.5904  0.5425  0.7144
  943MOL0     C27216  12.283  11.260   5.335 -0.3327  0.2736 -1.0813
  943MOL0     O27217  12.086  11.204   5.047 -0.0870 -0.5284  0.2162
  943MOL0     C27218  11.878  11.000   5.050  0.4499 -0.1796 -0.4666
  943MOL0     C27219  11.784  10.898   5.058  0.6184  0.1275 -0.3279
  943MOL0     N27220  11.222  10.982   5.347 -0.5248  0.5560  0.3505
  943MOL0     N27221  11.094  10.969   5.347  0.5224  0.5955  0.3764
  943MOL0     C27222  10.216  10.188   5.255  0.3125 -0.6989  0.1266
  943MOL0     C27223  10.087  10.143   5.296 -0.6020 -0.0684 -1.0252
  943MOL0     C27224   9.723   9.932   5.469 -1.4719  0.5062 -0.2967
  943MOL0     C27225   9.760   9.851   5.574 -0.5205 -0.5599  0.2912
  943MOL0     C27226   9.667   9.795   5.660 -0.1983  0.2799 -0.1582
  943MOL0     C27227   9.533   9.820   5.647 -0.8696 -0.0082  0.5469
  943MOL0     O27228   9.450   9.747   5.726  0.0302  0.4064  0.4688
  943MOL0     C27229   9.312   9.773   5.721  1.1724  0.2267  0.8969
  943MOL0     C27230   9.287   9.914   5.780 -0.0212  0.3338 -0.3371
  943MOL0     C27231   9.140   9.947   5.820  0.0694  0.1252 -0.5212
  943MOL0     C27232   9.099   9.888   5.954 -0.0485 -0.5071 -0.3916
  943MOL0     C27233   8.965   9.825   5.951  0.0737  1.0973  1.0536
  943MOL0     C27234   8.865   9.759   5.926  0.9986 -0.3393 -0.4356
  943MOL0     C27235   9.491   9.898   5.534 -0.0958 -0.0329 -0.4572
  943MOL0     C27236   9.589   9.939   5.433  0.3663 -0.7150  0.0224
  943MOL0     C27237   9.521  10.003   5.316  0.4951 -0.6453 -0.2104
  943MOL0     H27238  10.180   9.852   5.429  1.9744 -2.3481 -2.4465
  943MOL0     H27239  10.399   9.934   5.387  2.9837  3.1136 -0.2722
  943MOL0     H27240  10.412  10.256   5.090  1.6974 -0.4207 -0.8107
  943MOL0     H27241  10.452  10.345   5.251 -1.5828 -0.8675  0.0551
  943MOL0     H27242  10.615  10.187   5.044 -0.5792 -1.9091  1.7420
  943MOL0     H27243  10.681  10.242   5.198 -0.2076  1.1770  0.3428
  943MOL0     H27244  10.552  10.444   5.009 -0.8706 -0.8726  2.4575
  943MOL0     H27245  10.720  10.403   4.977  0.3757 -3.4040 -0.4071
  943MOL0     H27246  10.640  10.601   5.170 -1.3111 -1.1561 -2.4125
  943MOL0     H27247  10.692  10.457   5.271  2.5754  1.3918  1.5132
  943MOL0     H27248  10.887  10.448   5.129 -0.9738 -1.5283  2.8096
  943MOL0     H27249  10.852  10.619   5.071  2.2539  3.1857  2.6117
  943MOL0     H27250  10.898  10.540   5.356  1.1495  0.5318  0.7090
  943MOL0     H27251  11.006  10.626   5.251 -1.9807  0.2966 -2.9948
  943MOL0     H27252  10.751  10.739   5.345  0.0856  1.2588  1.7415
  943MOL0     H27253  10.859  10.831   5.235  0.6945  2.6584  1.7617
  943MOL0     H27254  10.877  10.902   5.469  0.3013  0.6965  1.0406
  943MOL0     H27255  10.925  10.741   5.521 -3.2799 -0.2074  0.2108
  943MOL0     H27256  11.188  10.686   5.496  1.9980 -0.9874 -0.4394
  943MOL0     H27257  11.464  10.967   5.453 -0.5476  0.0335 -1.8217
  943MOL0     H27258  11.426  10.837   5.565  0.4549  0.2457  0.4827
  943MOL0     H27259  11.608  10.768   5.411  0.5093 -1.7572  1.2022
  943MOL0     H27260  11.457  10.671   5.392 -0.2607  0.4168  0.7608
  943MOL0     H27261  11.533  10.906   5.213 -0.3829  0.1331  1.1556
  943MOL0     H27262  11.393  10.792   5.203  0.1373 -3.0317 -0.2674
  943MOL0     H27263  11.548  10.707   5.031  0.9166 -0.4571 -0.8581
  943MOL0     H27264  11.525  10.602   5.167  1.2139  1.1164  0.0165
  943MOL0     H27265  11.951  10.684   5.269  0.4408 -0.6488 -1.1267
  943MOL0     H27266  12.117  10.875   5.253 -0.8137 -0.9366  1.0502
  943MOL0     H27267  12.438  11.124   5.068  0.9100  0.5283  0.2516
  943MOL0     H27268  12.592  11.320   5.112  0.0493  0.2089 -0.2935
  943MOL0     H27269  12.424  11.625   5.323 -0.3146  0.8009  1.8500
  943MOL0     H27270  12.555  11.644   5.443 -1.1994 -1.9998  0.1719
  943MOL0     H27271  12.642  11.694   5.146 -0.7336  0.7397  0.0976
  943MOL0     H27272  12.585  11.809   5.265 -0.6176 -0.0387 -1.0519
  943MOL0     H27273  12.780  11.698   5.415  1.7313 -0.1989  0.1762
  943MOL0     H27274  12.803  11.593   5.281 -1.4486  0.6915  0.3871
  943MOL0     H27275  12.873  11.795   5.147  3.1156 -1.5341 -0.5378
  943MOL0     H27276  12.991  11.741   5.269  0.9424  1.8919  0.3972
  943MOL0     H27277  12.794  11.976   5.335  0.8680  0.3027  0.8081
  943MOL0     H27278  12.923  11.995   5.227  2.8007  1.3537  1.6244
  943MOL0     H27279  12.934  11.917   5.525 -0.8565  5.7024  0.1895
  943MOL0     H27280  13.081  11.887   5.424  0.2065 -1.4453  2.3208
  943MOL0     H27281  12.972  12.145   5.530  3.6886  2.4553  2.5795
  943MOL0     H27282  13.064  12.146   5.374 -1.1951 -1.1904 -1.7562
  943MOL0     H27283  13.235  12.022   5.517  0.9100  1.2131  0.7492
  943MOL0     H27284  13.202  12.194   5.550  0.3826  0.2436  0.9570
  943MOL0     H27285  12.360  11.430   5.448  2.7000  1.3081  0.8872
  943MOL0     H27286  12.196  11.235   5.393 -0.4951 -0.1580 -1.5059
  943MOL0     H27287  11.871  11.079   4.975  0.6191  0.5235  0.2447
  943MOL0     H27288  11.696  10.906   4.995  0.1094  2.1078  0.5386
  943MOL0     H27289  10.217  10.261   5.174 -6.2084  0.6691  0.7108
  943MOL0     H27290  10.003  10.212   5.283  0.0330  0.8442 -0.3750
  943MOL0     H27291   9.864   9.831   5.598  0.2181  1.3328 -1.0516
  943MOL0     H27292   9.696   9.732   5.743 -0.9938  1.8647  1.3747
  943MOL0     H27293   9.252   9.694   5.768 -2.1533  1.0746 -1.5492
  943MOL0     H27294   9.275   9.765   5.618  1.0669 -1.1856  1.0182
  943MOL0     H27295   9.319   9.987   5.704 -1.3932 -0.1896 -1.4520
  943MOL0     H27296   9.351   9.923   5.868 -0.3733  0.4993 -0.0963
  943MOL0     H27297   9.083   9.909   5.735 -0.5808 -0.2892  0.0904
  943MOL0     H27298   9.129  10.055   5.828 -0.8194 -0.1041  2.4676
  943MOL0     H27299   9.172   9.815   5.991 -0.7711 -2.9909 -3.4828
  943MOL0     H27300   9.094   9.969   6.028  1.2462  0.5415 -1.3929
  943MOL0     H27301   8.782   9.698   5.895  0.7290 -0.3218  0.2394
  943MOL0     H27302   9.383   9.905   5.522 -0.4598 -4.4823 -1.5172
  943MOL0     H27303   9.571  10.100   5.310 -1.4297  0.3614 -0.6711
  943MOL0     H27304   9.543   9.955   5.220 -1.9964 -1.8474 -0.2415
  943MOL0     H27305   9.418  10.035   5.330  0.8851  1.7356 -2.1500
  944MOL0     O27306   6.973   9.911  10.431  0.3515 -0.2499 -0.2592
  944MOL0     C27307   6.943   9.792  10.428 -0.3853  0.1161 -0.8697
  944MOL0     O27308   7.022   9.687  10.473  0.4286  0.0880  0.9062
  944MOL0     C27309   7.139   9.710  10.533 -0.5892 -0.1808  0.6282
  944MOL0     C27310   7.258   9.667  10.479 -0.0543  0.1433  0.3574
  944MOL0     C27311   7.379   9.690  10.551  0.2604 -0.9101  0.0446
  944MOL0     C27312   7.375   9.743  10.684 -0.0698 -0.6607  0.2636
  944MOL0     O27313   7.498   9.759  10.765  0.5563 -0.3676  0.4186
  944MOL0     C27314   7.597   9.811  10.673  0.7496  0.2188 -0.0395
  944MOL0     C27315   7.692   9.897  10.748 -0.5338 -0.6602 -0.1307
  944MOL0     C27316   7.741   9.847  10.882 -0.3080 -0.3389  0.0666
  944MOL0     C27317   7.876   9.910  10.937  0.2553  0.4278 -0.1718
  944MOL0     C27318   7.924   9.823  11.057  0.6094 -0.2239 -0.1612
  944MOL0     C27319   8.058   9.852  11.124 -0.3480  0.1728 -0.5204
  944MOL0     C27320   8.080   9.797  11.262  0.3756  0.7266  0.1685
  944MOL0     C27321   8.097   9.913  11.364  0.0900  0.3932  0.7992
  944MOL0     N27322   8.122   9.876  11.504 -0.2376  0.0940 -0.5275
  944MOL0     C27323   8.021   9.854  11.591 -0.0044 -0.1337  0.1886
  944MOL0     C27324   8.076   9.845  11.710 -0.1985 -0.3531  0.1424
  944MOL0     C27325   7.999   9.853  11.836 -0.5386 -0.4746 -0.2650
  944MOL0     C27326   7.969   9.718  11.882 -0.1044  0.1380 -0.1501
  944MOL0     C27327   8.097   9.657  11.946  0.9396 -0.1146 -0.2969
  944MOL0     C27328   8.091   9.506  11.953 -0.4760  0.3541 -0.0273
  944MOL0     O27329   8.151   9.444  11.838  0.8672  0.5146  1.0947
  944MOL0     C27330   8.281   9.437  11.841 -0.6779  0.3309 -0.0013
  944MOL0     C27331   8.381   9.491  11.931 -0.1350 -0.1398 -0.2763
  944MOL0     C27332   8.520   9.469  11.908 -0.2183  0.1361 -0.1030
  944MOL0     C27333   8.572   9.392  11.802  0.2996 -0.9141  0.0094
  944MOL0     C27334   8.713   9.400  11.768 -0.7078 -0.0132 -0.2410
  944MOL0     O27335   8.798   9.449  11.863  0.2744 -0.0722  0.0054
  944MOL0     C27336   8.927   9.472  11.843 -0.6005  0.4925  0.2441
  944MOL0     C27337   8.958   9.601  11.812  0.1596  0.1089 -0.3923
  944MOL0     C27338   9.085   9.635  11.775 -0.1878 -0.3013 -0.2105
  944MOL0     C27339   9.186   9.540  11.778 -0.5288  0.3685  1.1846
  944MOL0     O27340   9.313   9.587  11.755  0.4647 -0.6836  0.2485
  944MOL0     C27341   9.420   9.498  11.728  0.1784 -0.1303 -0.4391
  944MOL0     C27342   9.484   9.446  11.853 -0.2663 -0.1470 -0.1481
  944MOL0     C27343   9.570   9.328  11.815  0.8688  0.0796  0.1100
  944MOL0     C27344   9.639   9.277  11.945  0.0691 -0.9725  0.7113
  944MOL0     C27345   9.693   9.137  11.903  0.8023 -0.2146  0.0860
  944MOL0     C27346   9.800   9.094  11.996  0.9979  0.2020  1.0066
  944MOL0     C27347   9.730   9.064  12.131 -0.5107 -0.7430  0.6570
  944MOL0     C27348   9.823   8.968  12.204  0.2612  0.6920  0.4673
  944MOL0    Cl27349   9.967   9.066  12.221 -0.2916 -0.1688  0.1631
  944MOL0     C27350   9.160   9.403  11.799  1.2070 -0.3777 -0.3717
  944MOL0     C27351   9.027   9.368  11.842  0.5042  0.5348  0.1720
  944MOL0     O27352   8.741   9.361  11.655 -0.5455  0.0342 -0.0791
  944MOL0     C27353   8.478   9.335  11.713  0.5073 -0.2778 -0.1578
  944MOL0     C27354   8.341   9.360  11.745 -0.8875 -0.0875 -0.5106
  944MOL0     N27355   8.215   9.848  11.693 -1.1852 -1.1614 -0.4813
  944MOL0     N27356   8.240   9.884  11.569 -0.1374  0.1265 -0.1064
  944MOL0     C27357   7.255   9.767  10.740 -0.1305 -0.6215  0.0999
  944MOL0     C27358   7.140   9.760  10.665 -0.5592 -0.0904  1.1534
  944MOL0     C27359   6.817   9.754  10.354 -0.4054  0.0793  0.5881
  944MOL0     C27360   6.794   9.615  10.318  0.1514  0.8936  0.3559
  944MOL0     C27361   6.678   9.572  10.253 -0.7528  0.4288 -0.1405
  944MOL0     C27362   6.589   9.663  10.203 -0.0334  0.3028  0.2958
  944MOL0     O27363   6.487   9.612  10.130  0.5095  1.3297 -0.1699
  944MOL0     C27364   6.414   9.699  10.041 -0.3341 -0.2582  0.3065
  944MOL0     C27365   6.440   9.672   9.895  1.2798 -0.0651  0.0841
  944MOL0     C27366   6.581   9.635   9.856  0.3139  0.1307 -1.0076
  944MOL0     C27367   6.597   9.604   9.714  0.4614  0.2880 -0.1156
  944MOL0     C27368   6.735   9.609   9.671 -0.2089 -0.0179 -0.2663
  944MOL0     C27369   6.855   9.609   9.638  0.2768 -0.5370 -0.1763
  944MOL0     C27370   6.606   9.798  10.234 -0.4473 -0.0433 -0.2734
  944MOL0     C27371   6.718   9.844  10.303 -0.4400  0.3903 -0.7001
  944MOL0     C27372   6.713   9.991  10.338 -0.5363  0.6348 -0.1090
  944MOL0     H27373   7.250   9.617  10.383  2.0840  2.5828 -1.2147
  944MOL0     H27374   7.472   9.665  10.501  1.2319  2.5233 -0.1259
  944MOL0     H27375   7.639   9.730  10.613  0.7006  0.8092 -0.8844
  944MOL0     H27376   7.551   9.876  10.599  0.6306  0.5964  0.3610
  944MOL0     H27377   7.668  10.003  10.749  1.1133 -0.0513 -4.0615
  944MOL0     H27378   7.780   9.894  10.683  0.9498  0.7491  1.7133
  944MOL0     H27379   7.765   9.740  10.877  0.8368 -0.2357  2.1791
  944MOL0     H27380   7.662   9.869  10.955 -1.2330  0.3538 -1.1187
  944MOL0     H27381   7.954   9.913  10.861  0.0887  1.6112 -0.3095
  944MOL0     H27382   7.858  10.010  10.977 -0.4922 -0.0166  0.6525
  944MOL0     H27383   7.841   9.833  11.128 -0.5530 -1.0906 -1.3381
  944MOL0     H27384   7.927   9.723  11.014  1.8742 -0.0554 -0.4932
  944MOL0     H27385   8.137   9.808  11.062  0.5679  1.9088 -0.6452
  944MOL0     H27386   8.079   9.960  11.126 -0.3294  0.2913  4.4867
  944MOL0     H27387   8.175   9.743  11.265  0.1958  0.2084 -1.9455
  944MOL0     H27388   8.003   9.730  11.301 -0.6831  1.3238 -0.8375
  944MOL0     H27389   8.179   9.970  11.319 -1.0966 -0.2901 -2.5313
  944MOL0     H27390   8.006   9.973  11.362 -0.7290 -0.7400 -2.4211
  944MOL0     H27391   7.915   9.864  11.572 -0.7461  0.7019  4.0183
  944MOL0     H27392   8.056   9.916  11.906  0.8551  0.1022 -1.8370
  944MOL0     H27393   7.900   9.899  11.835 -0.5370 -0.4094  1.0968
  944MOL0     H27394   7.884   9.713  11.950 -0.7195 -2.3836 -0.9960
  944MOL0     H27395   7.935   9.667  11.791  0.0369  0.7758 -0.5674
  944MOL0     H27396   8.102   9.703  12.045  0.8473  2.3937 -1.3834
  944MOL0     H27397   8.186   9.690  11.891  0.8799 -0.1363 -0.4065
  944MOL0     H27398   7.987   9.472  11.963 -1.4922  3.0826 -0.3287
  944MOL0     H27399   8.154   9.483  12.039 -0.3512  0.7814 -0.0001
  944MOL0     H27400   8.361   9.552  12.019 -2.6236  0.4440 -1.1533
  944MOL0     H27401   8.594   9.503  11.980 -1.9200  1.5403  1.0504
  944MOL0     H27402   8.885   9.682  11.814 -1.1415 -1.0549  0.4229
  944MOL0     H27403   9.109   9.741  11.778 -3.4362  0.5892 -1.4626
  944MOL0     H27404   9.406   9.429  11.645  2.5711  0.5746 -1.5232
  944MOL0     H27405   9.496   9.565  11.685  0.5538 -1.7967 -2.5498
  944MOL0     H27406   9.552   9.521  11.895 -1.0753 -0.2624  1.4098
  944MOL0     H27407   9.420   9.428  11.939 -0.7801  0.3745 -0.4148
  944MOL0     H27408   9.515   9.248  11.766 -1.8130  0.0714  2.8552
  944MOL0     H27409   9.643   9.358  11.739 -0.5268 -2.4563 -2.4185
  944MOL0     H27410   9.566   9.267  12.026 -1.0447 -3.6836 -0.5023
  944MOL0     H27411   9.717   9.350  11.970 -0.5730 -0.7614  2.1790
  944MOL0     H27412   9.735   9.135  11.802  0.1577  0.4196 -0.2054
  944MOL0     H27413   9.614   9.061  11.901  2.1542 -1.6623 -1.3362
  944MOL0     H27414   9.837   9.002  11.949  3.5590  1.7291 -0.1775
  944MOL0     H27415   9.886   9.161  11.993  0.9719  0.2094 -0.7498
  944MOL0     H27416   9.632   9.015  12.124 -1.5201  1.2507 -0.0886
  944MOL0     H27417   9.728   9.158  12.186 -0.4095 -1.2911  1.6205
  944MOL0     H27418   9.794   8.959  12.309 -0.2424  2.1722  0.4749
  944MOL0     H27419   9.831   8.867  12.164 -0.8619 -0.5749  3.1713
  944MOL0     H27420   9.227   9.318  11.793  1.7346  0.0856 -1.0686
  944MOL0     H27421   8.994   9.266  11.857  2.1985 -0.0994 -0.1510
  944MOL0     H27422   8.507   9.267  11.633 -1.5680 -2.6772  0.9862
  944MOL0     H27423   8.268   9.307  11.686 -1.8912 -1.0544  1.4770
  944MOL0     H27424   7.266   9.805  10.841 -0.9821  2.6525 -0.9171
  944MOL0     H27425   7.049   9.800  10.708 -2.1876 -0.4344 -1.6748
  944MOL0     H27426   6.862   9.534  10.342 -0.6880 -0.9273 -2.8419
  944MOL0     H27427   6.659   9.466  10.239  0.6796  0.2799 -1.2462
  944MOL0     H27428   6.432   9.805  10.062  0.8271 -0.1951 -0.9192
  944MOL0     H27429   6.307   9.685  10.061 -0.5705 -0.3647 -0.9609
  944MOL0     H27430   6.415   9.763   9.839 -1.7062  0.2341  1.6872
  944MOL0     H27431   6.375   9.590   9.863  2.5461 -1.9174  2.0204
  944MOL0     H27432   6.622   9.561   9.926 -1.7949  1.5538  2.0033
  944MOL0     H27433   6.635   9.726   9.882  0.9838 -0.7582  0.8692
  944MOL0     H27434   6.560   9.502   9.700 -0.0235  0.4255  0.1637
  944MOL0     H27435   6.531   9.668   9.656 -3.0617 -2.0902  0.9383
  944MOL0     H27436   6.955   9.614   9.600 -0.7098  2.3108 -2.7514
  944MOL0     H27437   6.535   9.878  10.215 -0.5622  0.3187  1.5276
  944MOL0     H27438   6.736  10.010  10.443  0.9013  2.0648 -0.6427
  944MOL0     H27439   6.788  10.048  10.284 -0.4179  1.3223  0.7536
  944MOL0     H27440   6.618  10.044  10.323  0.5567  2.9562  0.8149
  945MOL0     O27441   8.092   6.992  10.720 -0.1192  0.1297  0.4997
  945MOL0     C27442   8.102   6.992  10.596  0.4076  0.1021 -0.6790
  945MOL0     O27443   8.216   7.000  10.517 -0.2811  0.6726 -0.0183
  945MOL0     C27444   8.349   7.008  10.572 -0.8845 -0.2082  0.7550
  945MOL0     C27445   8.388   6.989  10.711  0.5991 -0.2952 -0.9873
  945MOL0     C27446   8.528   6.976  10.748  0.1280 -0.5467 -0.6201
  945MOL0     C27447   8.628   7.001  10.648 -0.7296  0.6478  0.0172
  945MOL0     O27448   8.766   7.005  10.679 -0.4083  0.0322 -0.0586
  945MOL0     C27449   8.810   6.953  10.814 -0.0553 -0.2848  0.9756
  945MOL0     C27450   8.958   6.942  10.827  0.5762 -0.4865  0.5078
  945MOL0     C27451   9.012   7.082  10.837 -0.3866 -1.0862  0.2056
  945MOL0     C27452   9.170   7.077  10.837  0.1981 -0.7459 -0.1107
  945MOL0     C27453   9.239   6.998  10.720 -0.2724  0.6118  0.8721
  945MOL0     C27454   9.381   7.024  10.693 -0.4895  0.1056 -0.0382
  945MOL0     C27455   9.477   6.981  10.804  0.9086 -0.6403 -0.2311
  945MOL0     C27456   9.615   6.993  10.746 -0.1772 -0.3903  0.0019
  945MOL0     N27457   9.727   6.945  10.825  0.0943  0.1663 -0.2530
  945MOL0     C27458   9.775   6.820  10.835  0.1040  0.4055 -0.2464
  945MOL0     C27459   9.875   6.834  10.921  0.6731  0.0498 -0.5791
  945MOL0     C27460   9.953   6.718  10.955  0.0394  0.5181  0.3163
  945MOL0     C27461  10.098   6.737  10.933  0.5947  0.1289 -0.0236
  945MOL0     C27462  10.139   6.739  10.785 -0.5952 -0.1624  0.1680
  945MOL0     C27463  10.295   6.756  10.774  0.2495 -0.1904  0.4483
  945MOL0     O27464  10.319   6.807  10.642 -0.2647 -0.0496 -0.3253
  945MOL0     C27465  10.440   6.850  10.605  0.5633  0.3822 -0.1883
  945MOL0     C27466  10.557   6.794  10.666  1.1499  0.3834  0.8129
  945MOL0     C27467  10.679   6.847  10.623 -0.4924 -0.1713  0.6113
  945MOL0     C27468  10.690   6.948  10.525 -0.1642 -0.2971  0.2500
  945MOL0     C27469  10.815   6.995  10.468 -0.7452 -0.5102 -0.3176
  945MOL0     O27470  10.909   6.888  10.449  1.0998 -0.5488 -0.3231
  945MOL0     C27471  11.033   6.919  10.399  0.3532 -0.0041  0.0462
  945MOL0     C27472  11.138   6.842  10.450  0.4870 -0.9333 -0.6346
  945MOL0     C27473  11.269   6.854  10.402 -0.3824  0.6500  0.7913
  945MOL0     C27474  11.300   6.941  10.295  0.5657 -0.3804 -0.0920
  945MOL0     O27475  11.423   6.968  10.249  0.0391 -0.2853 -0.5800
  945MOL0     C27476  11.512   6.857  10.252 -0.5547 -0.2423 -0.0632
  945MOL0     C27477  11.632   6.912  10.174  0.2782  0.3275 -0.2842
  945MOL0     C27478  11.757   6.814  10.193 -0.3791  0.2357 -0.3625
  945MOL0     C27479  11.727   6.667  10.153 -0.0724  0.3503 -0.2540
  945MOL0     C27480  11.864   6.596  10.130 -0.8467  0.0698 -0.3461
  945MOL0     C27481  11.934   6.625   9.996 -0.2933  0.7682 -0.4600
  945MOL0     C27482  12.071   6.577   9.996  0.1351  0.0057 -0.6111
  945MOL0     C27483  12.112   6.539   9.856 -0.7081 -0.0615 -0.1384
  945MOL0    Cl27484  12.291   6.550   9.823  0.1757 -0.0933  0.3378
  945MOL0     C27485  11.190   7.019  10.243  0.2778 -0.3614  0.0075
  945MOL0     C27486  11.060   7.009  10.291  0.7780  0.2088  0.0260
  945MOL0     O27487  10.834   7.116  10.441 -0.0083  0.6275  0.5180
  945MOL0     C27488  10.574   6.999  10.476  0.5874 -0.1971  0.7228
  945MOL0     C27489  10.450   6.952  10.503  0.6267  0.6472  0.1386
  945MOL0     N27490   9.894   6.961  10.945 -0.4059 -0.8727 -0.7812
  945MOL0     N27491   9.805   7.031  10.889  0.0071  0.2424 -0.2292
  945MOL0     C27492   8.585   7.015  10.516  0.2732 -0.0630  0.0956
  945MOL0     C27493   8.449   7.022  10.476  0.6707 -0.9904  0.7032
  945MOL0     C27494   7.983   6.959  10.505  0.4140 -0.9584  0.0957
  945MOL0     C27495   8.007   6.929  10.366  0.4069  0.6841  0.0993
  945MOL0     C27496   7.907   6.910  10.274  0.4827 -0.1267  0.3168
  945MOL0     C27497   7.775   6.910  10.317  1.2603 -1.4287  0.4347
  945MOL0     O27498   7.670   6.894  10.234  1.0028  0.0457 -0.1843
  945MOL0     C27499   7.676   6.863  10.091  0.7669 -0.2044  0.5063
  945MOL0     C27500   7.526   6.854  10.043 -0.0950 -0.5159  1.0723
  945MOL0     C27501   7.450   6.986  10.019  0.9868  0.7385  0.8328
  945MOL0     C27502   7.503   7.048   9.887 -0.4679 -0.2636 -0.2012
  945MOL0     C27503   7.557   7.181   9.918  0.7616 -0.7633  1.0723
  945MOL0     C27504   7.601   7.289   9.955  0.9642  0.0689 -0.4539
  945MOL0     C27505   7.749   6.938  10.449 -0.2547  0.1726  0.3935
  945MOL0     C27506   7.844   6.959  10.543 -0.8430 -0.6355  0.1663
  945MOL0     C27507   7.804   6.971  10.687  0.1661 -0.1605 -0.0714
  945MOL0     H27508   8.314   6.971  10.788  0.8478  0.0079 -0.6705
  945MOL0     H27509   8.559   6.950  10.849  2.5699 -1.2913 -1.4950
  945MOL0     H27510   8.765   7.004  10.900  0.1921  2.0078 -0.1818
  945MOL0     H27511   8.779   6.849  10.831  0.2873 -0.6813 -0.6625
  945MOL0     H27512   8.999   6.891  10.739  2.3759 -2.3662  2.3299
  945MOL0     H27513   8.998   6.894  10.917  2.7514  1.6546  0.8113
  945MOL0     H27514   8.972   7.143  10.919  0.2659 -0.4546  0.0671
  945MOL0     H27515   8.978   7.141  10.752 -3.3396  0.9612  2.6087
  945MOL0     H27516   9.189   7.184  10.829 -4.7382  0.3326 -0.3430
  945MOL0     H27517   9.204   7.047  10.937  1.9224 -0.4162 -0.5602
  945MOL0     H27518   9.211   6.894  10.739 -6.0560  1.4214 -1.2963
  945MOL0     H27519   9.193   7.021  10.624  1.6895  0.1518 -0.2092
  945MOL0     H27520   9.404   6.972  10.600 -2.2154  1.8665 -1.5318
  945MOL0     H27521   9.395   7.129  10.665  0.4778  0.2642  0.9581
  945MOL0     H27522   9.447   6.880  10.834 -0.1251 -0.6226 -1.1386
  945MOL0     H27523   9.466   7.046  10.890 -2.6365  1.2361 -1.9062
  945MOL0     H27524   9.632   6.930  10.658  1.0725  0.2126 -0.2194
  945MOL0     H27525   9.633   7.097  10.720 -0.2429 -0.5690 -0.7876
  945MOL0     H27526   9.745   6.730  10.782  1.5274  2.1775 -4.4588
  945MOL0     H27527   9.945   6.697  11.062  2.4480 -2.5693  0.0377
  945MOL0     H27528   9.911   6.634  10.899 -0.0165  1.8587 -1.7539
  945MOL0     H27529  10.141   6.828  10.976  1.8484  0.4615 -1.8517
  945MOL0     H27530  10.152   6.654  10.980 -1.7040 -1.1160  0.5265
  945MOL0     H27531  10.098   6.823  10.727 -1.6752 -2.4226 -2.6154
  945MOL0     H27532  10.108   6.647  10.734 -0.1335  0.8845 -2.1538
  945MOL0     H27533  10.339   6.656  10.780  1.0440  0.0534 -0.8761
  945MOL0     H27534  10.335   6.828  10.846 -2.7500  0.2876  1.7813
  945MOL0     H27535  10.543   6.712  10.736 -2.1721  0.7263  0.7143
  945MOL0     H27536  10.770   6.800  10.659 -0.3188 -1.7592 -1.6916
  945MOL0     H27537  11.120   6.767  10.526  1.0720  0.1204  0.5831
  945MOL0     H27538  11.340   6.789  10.454 -2.4781 -1.3328  1.3499
  945MOL0     H27539  11.551   6.825  10.349 -2.8247  0.0585  1.0112
  945MOL0     H27540  11.474   6.775  10.191 -2.0455  0.8321 -0.6403
  945MOL0     H27541  11.612   6.918  10.067  1.3993  0.2579 -0.5066
  945MOL0     H27542  11.664   7.010  10.209  0.2414  0.1493  0.2668
  945MOL0     H27543  11.831   6.868  10.133 -0.2756  1.5765  0.8988
  945MOL0     H27544  11.783   6.814  10.300 -2.6202  2.1573  0.2564
  945MOL0     H27545  11.665   6.669  10.064 -1.9195  1.7206  0.9821
  945MOL0     H27546  11.667   6.617  10.229 -1.9892  1.1562 -1.1914
  945MOL0     H27547  11.864   6.489  10.155  1.8351  0.6133  2.6013
  945MOL0     H27548  11.921   6.637  10.213 -0.8017  0.4600 -0.5681
  945MOL0     H27549  11.873   6.587   9.913 -2.4236  2.6461  0.1209
  945MOL0     H27550  11.946   6.733   9.980 -0.0118  0.5605 -1.7763
  945MOL0     H27551  12.090   6.505  10.076  3.6140  0.7443 -0.6077
  945MOL0     H27552  12.139   6.659  10.023  0.7052  0.5558 -3.3947
  945MOL0     H27553  12.076   6.441   9.823 -4.1557  0.8094  0.6735
  945MOL0     H27554  12.072   6.615   9.788 -0.1448  0.7676  0.4366
  945MOL0     H27555  11.213   7.087  10.162 -2.5181 -0.6744 -1.1826
  945MOL0     H27556  10.983   7.071  10.246 -1.5530 -1.2004  1.7786
  945MOL0     H27557  10.577   7.087  10.412 -0.7096 -1.2602 -0.8872
  945MOL0     H27558  10.357   6.979  10.453 -1.0696 -0.2033  2.6248
  945MOL0     H27559   8.664   7.029  10.442 -0.5834  0.4696 -0.7476
  945MOL0     H27560   8.423   7.050  10.374  3.0798  3.0641  0.9778
  945MOL0     H27561   8.109   6.915  10.332 -0.0261 -1.1686 -0.5679
  945MOL0     H27562   7.934   6.897  10.169 -1.7850 -1.8124 -0.1408
  945MOL0     H27563   7.738   6.774  10.077 -2.5382 -2.5320 -0.4595
  945MOL0     H27564   7.723   6.952  10.048  2.5545 -2.0461 -1.6588
  945MOL0     H27565   7.480   6.791  10.120  0.0470 -2.6382 -0.4864
  945MOL0     H27566   7.534   6.791   9.954  0.3887 -1.7019  1.9238
  945MOL0     H27567   7.450   7.056  10.103  3.6659  1.4298  0.3798
  945MOL0     H27568   7.344   6.967  10.002  1.5761 -0.8650 -1.4810
  945MOL0     H27569   7.581   6.991   9.837 -2.1658 -1.3058 -1.8153
  945MOL0     H27570   7.421   7.049   9.814 -1.7292 -0.5241  1.1598
  945MOL0     H27571   7.650   7.379   9.988  1.5531  1.1560 -3.9048
  945MOL0     H27572   7.645   6.946  10.481 -0.1139  0.1214  0.8684
  945MOL0     H27573   7.818   7.070  10.732 -2.2583 -0.1767  0.9032
  945MOL0     H27574   7.697   6.955  10.702 -0.7582  3.8262 -1.3774
  945MOL0     H27575   7.854   6.898  10.752 -1.2689 -1.3669 -0.2552
  946MOL0     O27576   4.702  10.919   5.887  0.7333 -0.1684 -0.5556
  946MOL0     C27577   4.772  10.976   5.801  0.4007  0.2687  0.0531
  946MOL0     O27578   4.876  11.057   5.830 -0.2614  0.2304 -0.4195
  946MOL0     C27579   4.936  11.068   5.956  0.7229  1.1171  0.0032
  946MOL0     C27580   5.077  11.050   5.983  0.0120  0.1899  0.4512
  946MOL0     C27581   5.126  11.057   6.115  0.0455  0.0608 -0.2354
  946MOL0     C27582   5.044  11.083   6.226 -0.3791 -1.1795  1.4347
  946MOL0     O27583   5.090  11.106   6.355  0.4770  0.2338  0.2372
  946MOL0     C27584   5.221  11.056   6.393 -0.4352 -0.7354  0.0503
  946MOL0     C27585   5.316  11.182   6.416  0.0735  0.5389 -0.3454
  946MOL0     C27586   5.460  11.144   6.458  0.7516 -0.4322 -0.5363
  946MOL0     C27587   5.538  11.084   6.348  0.0579 -0.0816  0.4549
  946MOL0     C27588   5.682  11.102   6.388  0.3176  0.2727  0.2803
  946MOL0     C27589   5.769  11.031   6.281  0.5148  0.0395  0.1916
  946MOL0     C27590   5.912  11.040   6.319  0.0159 -1.1034 -0.1813
  946MOL0     C27591   5.955  10.935   6.424  0.4316 -0.2091 -0.2625
  946MOL0     N27592   6.090  10.885   6.398  0.8642  0.5288 -0.0843
  946MOL0     C27593   6.213  10.944   6.447  1.1625  0.9140  0.2379
  946MOL0     C27594   6.310  10.869   6.388  0.2882  0.3486 -0.1580
  946MOL0     C27595   6.455  10.891   6.406  0.2772  0.2810 -1.1642
  946MOL0     C27596   6.512  10.860   6.546 -0.8997  0.3411  0.7938
  946MOL0     C27597   6.512  10.720   6.594 -0.2560 -0.8000  0.7832
  946MOL0     C27598   6.586  10.625   6.492  0.7881  0.9545  0.1334
  946MOL0     O27599   6.726  10.654   6.482 -0.4403 -0.5170 -1.1628
  946MOL0     C27600   6.797  10.567   6.565 -0.1963 -0.3746 -0.1579
  946MOL0     C27601   6.808  10.438   6.526 -0.0850  0.8370  1.0189
  946MOL0     C27602   6.869  10.341   6.613  0.2768 -0.5057 -0.7452
  946MOL0     C27603   6.935  10.378   6.735 -0.0244 -0.0480 -0.0840
  946MOL0     C27604   7.014  10.285   6.823  1.0287  0.1982  0.0197
  946MOL0     O27605   7.042  10.304   6.947 -0.1521 -0.2600  0.2712
  946MOL0     C27606   7.147  10.229   7.004  0.0787 -1.0970 -0.2955
  946MOL0     C27607   7.272  10.291   7.019 -0.1004 -0.0348 -0.2308
  946MOL0     C27608   7.384  10.217   7.077  0.2998 -0.1708  0.3002
  946MOL0     C27609   7.364  10.091   7.131  0.1643  0.0099  0.3938
  946MOL0     O27610   7.472  10.038   7.202 -0.8913 -0.5950  0.7326
  946MOL0     C27611   7.444   9.914   7.274 -0.0813 -0.5888 -0.3332
  946MOL0     C27612   7.569   9.865   7.339 -0.2042  0.6196 -0.5800
  946MOL0     C27613   7.538   9.759   7.456  0.0956 -0.4637 -1.2453
  946MOL0     C27614   7.458   9.636   7.394 -0.6916  0.3803 -0.4046
  946MOL0     C27615   7.432   9.523   7.497  0.5420 -0.5285  0.8005
  946MOL0     C27616   7.559   9.468   7.573  0.2883  0.0124 -0.7099
  946MOL0     C27617   7.638   9.381   7.470 -0.1056  0.8419 -0.1534
  946MOL0     C27618   7.750   9.301   7.554  0.1314 -0.2426  0.0240
  946MOL0    Cl27619   7.699   9.145   7.617  0.0911  0.1767  0.4532
  946MOL0     C27620   7.236  10.039   7.125  0.2705 -0.3282  0.2930
  946MOL0     C27621   7.126  10.105   7.065 -0.0407  0.3413 -0.2546
  946MOL0     O27622   7.048  10.183   6.763  0.2780 -0.6173  0.4143
  946MOL0     C27623   6.915  10.510   6.777  0.0417  0.9905 -1.1784
  946MOL0     C27624   6.843  10.604   6.694 -0.3916  0.3225 -1.0623
  946MOL0     N27625   6.251  10.766   6.316 -0.6741  0.8672  0.4241
  946MOL0     N27626   6.124  10.779   6.315  1.0121  0.1258  0.3266
  946MOL0     C27627   4.909  11.113   6.190 -0.1341 -0.7418  0.5668
  946MOL0     C27628   4.856  11.108   6.064 -0.6212  0.1000 -0.5060
  946MOL0     C27629   4.752  10.964   5.650  0.1240  0.5953 -0.0868
  946MOL0     C27630   4.839  11.026   5.557 -0.1281  0.2943 -0.7092
  946MOL0     C27631   4.814  11.013   5.421 -0.4312  0.1569  0.3969
  946MOL0     C27632   4.711  10.943   5.370  0.9487  0.5477 -0.5875
  946MOL0     O27633   4.698  10.939   5.232 -0.1065 -0.6876  0.3896
  946MOL0     C27634   4.585  10.881   5.165  0.4057  0.4164 -0.6549
  946MOL0     C27635   4.620  10.835   5.025 -0.5503 -0.2647  0.9732
  946MOL0     C27636   4.739  10.733   5.018  0.1229  0.4128  0.3069
  946MOL0     C27637   4.740  10.670   4.876  0.4725 -0.3868  0.0073
  946MOL0     C27638   4.765  10.777   4.784 -0.5118  0.4756  0.5440
  946MOL0     C27639   4.780  10.882   4.722  0.0395  0.5657 -0.4204
  946MOL0     C27640   4.617  10.885   5.459  0.1402  0.0473 -0.4536
  946MOL0     C27641   4.638  10.892   5.599 -0.5036 -1.0433 -0.2994
  946MOL0     C27642   4.527  10.832   5.687 -0.0536  0.9290  0.2683
  946MOL0     H27643   5.149  11.034   5.904 -1.2844  0.5839 -0.8566
  946MOL0     H27644   5.234  11.065   6.121 -0.1278  3.0876  0.6509
  946MOL0     H27645   5.213  10.993   6.481  2.2512 -1.4994 -0.1837
  946MOL0     H27646   5.258  10.980   6.324 -3.1219 -0.4794 -1.8236
  946MOL0     H27647   5.264  11.242   6.491  1.4502 -0.1741  1.2222
  946MOL0     H27648   5.316  11.239   6.322  0.2787 -1.4355 -1.5981
  946MOL0     H27649   5.444  11.076   6.542 -0.2177  0.0285 -0.3330
  946MOL0     H27650   5.510  11.234   6.497 -0.8051  0.3602 -0.2933
  946MOL0     H27651   5.505  10.980   6.343 -0.1268 -0.0674  1.2004
  946MOL0     H27652   5.515  11.122   6.248  1.1055 -0.6214 -0.0088
  946MOL0     H27653   5.710  11.207   6.388  1.2298  0.0365  0.5256
  946MOL0     H27654   5.683  11.048   6.483 -2.0346 -1.7701 -0.7251
  946MOL0     H27655   5.733  10.928   6.275  3.4813 -1.3624  3.1608
  946MOL0     H27656   5.751  11.084   6.187  0.1277 -0.3867  0.0225
  946MOL0     H27657   5.943  11.138   6.355 -1.6139 -0.0225 -1.5518
  946MOL0     H27658   5.975  11.020   6.232 -1.0520 -0.2207 -1.1894
  946MOL0     H27659   5.950  10.965   6.529 -1.9352 -3.7993  0.8417
  946MOL0     H27660   5.886  10.850   6.427 -3.0445  2.4099  1.5376
  946MOL0     H27661   6.219  11.022   6.522  2.1519  1.2384 -0.1695
  946MOL0     H27662   6.507  10.835   6.328 -0.3564 -0.3013 -1.1701
  946MOL0     H27663   6.472  10.999   6.393  1.1588 -0.0583 -3.2719
  946MOL0     H27664   6.616  10.894   6.549 -0.4203 -0.2895 -3.1673
  946MOL0     H27665   6.463  10.925   6.620 -0.0378 -0.0824  1.7603
  946MOL0     H27666   6.410  10.686   6.616  0.1014 -1.6122  1.2315
  946MOL0     H27667   6.562  10.717   6.692  3.1098 -0.0654 -0.7754
  946MOL0     H27668   6.539  10.603   6.396 -2.5747 -1.8864  2.1839
  946MOL0     H27669   6.567  10.530   6.544  0.4455  1.0399  0.1654
  946MOL0     H27670   6.777  10.410   6.426  1.8660 -2.0770  1.1206
  946MOL0     H27671   6.875  10.235   6.594 -0.6589 -0.7531  0.2297
  946MOL0     H27672   7.279  10.394   6.985 -1.3435  1.2614  2.9507
  946MOL0     H27673   7.484  10.261   7.075  1.1346 -1.9589 -1.6663
  946MOL0     H27674   7.368   9.934   7.350  0.6685  0.2009  0.2254
  946MOL0     H27675   7.420   9.830   7.208  0.6033 -1.0121 -0.0622
  946MOL0     H27676   7.644   9.837   7.264 -0.4289  0.5266 -0.7723
  946MOL0     H27677   7.610   9.951   7.392  1.5480 -0.1737 -0.5642
  946MOL0     H27678   7.622   9.735   7.522 -1.3257  1.3267  1.3816
  946MOL0     H27679   7.464   9.802   7.524 -1.0856  0.4517 -3.0133
  946MOL0     H27680   7.512   9.593   7.309 -0.8634  0.0015 -0.3235
  946MOL0     H27681   7.358   9.672   7.365 -0.8759  0.0789 -0.1552
  946MOL0     H27682   7.385   9.437   7.449 -1.0607  1.1012 -0.6929
  946MOL0     H27683   7.362   9.555   7.575 -0.3988 -0.8894  0.1234
  946MOL0     H27684   7.628   9.536   7.622 -0.4515  0.6748 -0.5647
  946MOL0     H27685   7.528   9.407   7.658 -0.0399  0.2887 -0.6269
  946MOL0     H27686   7.678   9.456   7.402 -2.8844  0.8561 -1.9388
  946MOL0     H27687   7.582   9.310   7.409  1.8483  0.1812 -1.2717
  946MOL0     H27688   7.841   9.298   7.494  0.9638 -1.8262  1.2884
  946MOL0     H27689   7.786   9.360   7.639  3.3928 -3.4144  1.1314
  946MOL0     H27690   7.208   9.946   7.174 -2.2730  0.0702 -0.2582
  946MOL0     H27691   7.029  10.059   7.044 -0.1353  0.7888 -0.8010
  946MOL0     H27692   6.970  10.541   6.865  0.9573  1.5686 -1.9409
  946MOL0     H27693   6.843  10.711   6.711  0.7012  0.3305 -1.0314
  946MOL0     H27694   4.847  11.139   6.275  2.2613 -0.5323  2.3336
  946MOL0     H27695   4.754  11.126   6.031 -0.6796 -0.4707 -0.6464
  946MOL0     H27696   4.919  11.092   5.590 -1.9943  1.8379  0.9963
  946MOL0     H27697   4.875  11.065   5.347 -0.4732  0.5355  0.6249
  946MOL0     H27698   4.505  10.955   5.165  1.5586  1.7101 -1.7559
  946MOL0     H27699   4.540  10.791   5.208 -1.0487  1.1283 -0.6388
  946MOL0     H27700   4.646  10.921   4.963  1.2411 -1.4747 -0.0716
  946MOL0     H27701   4.531  10.790   4.980 -0.2434 -1.1525  1.2355
  946MOL0     H27702   4.740  10.651   5.090  0.4523  0.9779  0.9473
  946MOL0     H27703   4.829  10.793   5.034  1.1612 -0.8674 -0.4842
  946MOL0     H27704   4.820  10.595   4.869 -1.3872 -2.4080 -1.0989
  946MOL0     H27705   4.647  10.618   4.852 -0.1812  1.3920 -1.5928
  946MOL0     H27706   4.783  10.982   4.683 -0.2630  0.2340 -1.3119
  946MOL0     H27707   4.525  10.834   5.431  1.4978 -1.0428 -3.2873
  946MOL0     H27708   4.565  10.752   5.751  2.4994  1.2614 -0.7178
  946MOL0     H27709   4.499  10.912   5.757 -2.2311  0.8296 -0.4196
  946MOL0     H27710   4.445  10.800   5.622 -0.9299  4.0914 -0.3688
  947MOL0     O27711  10.652  10.347   0.166  1.1231  0.2750  0.5131
  947MOL0     C27712  10.665  10.257   0.081  0.7124  0.6755  1.0291
  947MOL0     O27713  10.763  10.164   0.080  0.1936 -0.1817  0.3230
  947MOL0     C27714  10.822  10.128   0.200 -0.6079  0.9207  0.3796
  947MOL0     C27715  10.958  10.142   0.213  0.2965 -0.0975 -0.2400
  947MOL0     C27716  11.022  10.121   0.337  0.3535 -1.1039 -1.0707
  947MOL0     C27717  10.951  10.073   0.444  0.6616  0.4713 -0.2504
  947MOL0     O27718  11.022  10.052   0.568  0.3963 -0.3271 -0.6230
  947MOL0     C27719  10.951  10.001   0.684 -0.0082  0.2700 -0.5315
  947MOL0     C27720  10.926   9.854   0.667  0.0143  0.7558 -0.1413
  947MOL0     C27721  10.850   9.794   0.791  0.0627 -0.8412  0.1144
  947MOL0     C27722  10.691   9.805   0.792  0.7136 -0.4362 -0.2128
  947MOL0     C27723  10.636   9.761   0.933  0.7573 -0.5240 -0.0583
  947MOL0     C27724  10.507   9.842   0.971 -0.8981  0.0495 -0.5150
  947MOL0     C27725  10.391   9.820   0.879 -0.2210  0.4295  0.1636
  947MOL0     C27726  10.260   9.858   0.965 -0.6848 -0.5288  0.5169
  947MOL0     N27727  10.265   9.997   1.019 -0.8901  0.1765 -0.1157
  947MOL0     C27728  10.317  10.037   1.140  0.0136 -0.3831 -0.6847
  947MOL0     C27729  10.306  10.166   1.130  0.1619  0.1344 -0.0051
  947MOL0     C27730  10.355  10.261   1.231 -0.9729  0.1534  0.5068
  947MOL0     C27731  10.506  10.289   1.223 -0.7368 -0.3246 -0.3697
  947MOL0     C27732  10.549  10.332   1.091 -0.9983  0.0296 -0.2732
  947MOL0     C27733  10.489  10.466   1.040 -0.6925  0.0462 -0.7992
  947MOL0     O27734  10.517  10.582   1.125  0.2143 -0.4151  0.3135
  947MOL0     C27735  10.644  10.632   1.135 -0.2320 -0.3624 -0.0225
  947MOL0     C27736  10.664  10.733   1.235  0.2617  0.2410  1.1739
  947MOL0     C27737  10.795  10.781   1.263 -0.3840  0.0807  0.6548
  947MOL0     C27738  10.903  10.739   1.184  0.5178 -0.3030 -0.1440
  947MOL0     C27739  11.043  10.790   1.204  0.9980 -0.4813 -0.1291
  947MOL0     O27740  11.115  10.807   1.089  0.3623 -0.6547 -0.4889
  947MOL0     C27741  11.238  10.849   1.108 -1.1711  0.2890  0.0852
  947MOL0     C27742  11.335  10.777   1.168 -0.1274 -1.2411 -0.7188
  947MOL0     C27743  11.473  10.811   1.158 -0.2127 -0.1243 -0.2178
  947MOL0     C27744  11.513  10.930   1.096 -0.1491 -0.0750  0.3397
  947MOL0     O27745  11.650  10.951   1.087 -0.6611 -0.0798 -0.0455
  947MOL0     C27746  11.697  11.052   0.995 -0.6100  0.2862 -1.1162
  947MOL0     C27747  11.856  11.037   0.982 -0.0378 -0.2551  0.1485
  947MOL0     C27748  11.874  10.894   0.920  0.1135  0.5317  0.5006
  947MOL0     C27749  12.021  10.847   0.890  1.1913  0.0118  0.4292
  947MOL0     C27750  12.089  10.804   1.026 -1.1221  0.0565 -0.6174
  947MOL0     C27751  12.231  10.780   1.007 -0.1400 -0.7374 -0.0467
  947MOL0     C27752  12.296  10.726   1.137 -0.0809 -0.4320  0.3929
  947MOL0     C27753  12.442  10.744   1.143  0.0363 -0.4522 -0.2762
  947MOL0    Cl27754  12.518  10.606   1.223  0.1523 -0.1312 -0.3879
  947MOL0     C27755  11.414  11.017   1.055  0.4902  0.3506  0.2594
  947MOL0     C27756  11.275  10.972   1.062 -0.5489 -0.3355 -0.0990
  947MOL0     O27757  11.078  10.827   1.319 -0.0628 -0.4011 -0.8370
  947MOL0     C27758  10.874  10.648   1.071  0.6857  0.0810  0.9124
  947MOL0     C27759  10.750  10.583   1.052  0.0106 -0.2812  0.1478
  947MOL0     N27760  10.254  10.209   1.015  1.0165 -0.4474  0.0349
  947MOL0     N27761  10.234  10.106   0.941  0.3357  0.2120  0.2251
  947MOL0     C27762  10.813  10.047   0.435  0.5538  0.3366  0.3379
  947MOL0     C27763  10.751  10.073   0.308  0.5248 -0.0932  0.1006
  947MOL0     C27764  10.579  10.239  -0.042 -0.5822 -0.1681 -0.7058
  947MOL0     C27765  10.621  10.169  -0.158  0.4152 -0.2710  0.6808
  947MOL0     C27766  10.540  10.129  -0.260  0.5817 -1.0617 -0.0083
  947MOL0     C27767  10.408  10.175  -0.260  0.5859 -0.2558  0.3001
  947MOL0     O27768  10.328  10.161  -0.375 -0.5052 -0.1166 -0.5443
  947MOL0     C27769  10.374  10.083  -0.489 -0.9907  0.8083 -0.1085
  947MOL0     C27770  10.376   9.931  -0.479 -0.3121  0.5295 -0.4111
  947MOL0     C27771  10.246   9.882  -0.410 -1.1368 -0.9124  0.5192
  947MOL0     C27772  10.249   9.725  -0.406 -0.2797 -0.1996  0.3209
  947MOL0     C27773  10.213   9.671  -0.534 -0.6781 -0.1827  0.4982
  947MOL0     C27774  10.188   9.624  -0.640  0.3194 -0.0012  0.7256
  947MOL0     C27775  10.369  10.262  -0.156  0.6723  0.1599 -0.3715
  947MOL0     C27776  10.447  10.285  -0.041 -0.5087  0.3234  0.3586
  947MOL0     C27777  10.391  10.372   0.075  0.5694  0.4138 -0.4784
  947MOL0     H27778  11.004  10.190   0.127 -1.3761  0.3402 -0.9342
  947MOL0     H27779  11.127  10.138   0.360 -0.8176  2.0294  3.5695
  947MOL0     H27780  11.009  10.028   0.773  3.6909 -0.1984 -2.5856
  947MOL0     H27781  10.859  10.059   0.699  1.8045  2.9571  1.1712
  947MOL0     H27782  11.018   9.796   0.662  0.1989  1.0773 -0.5215
  947MOL0     H27783  10.876   9.835   0.572 -0.0261  2.8027 -0.5642
  947MOL0     H27784  10.885   9.851   0.878 -1.3521  0.3956 -0.0679
  947MOL0     H27785  10.870   9.689   0.814  2.3514  0.2679  4.0543
  947MOL0     H27786  10.657   9.910   0.788 -0.0076 -0.5922  1.1361
  947MOL0     H27787  10.645   9.754   0.707  1.1220  0.8109 -1.2267
  947MOL0     H27788  10.614   9.654   0.925  0.5216 -0.5603  0.9223
  947MOL0     H27789  10.709   9.776   1.013 -0.4615 -0.1896  1.0314
  947MOL0     H27790  10.479   9.798   1.068  3.1816  0.5651  1.1026
  947MOL0     H27791  10.513   9.951   0.979 -2.8407  0.1731 -0.1387
  947MOL0     H27792  10.379   9.719   0.839  0.2128  0.1097  0.8155
  947MOL0     H27793  10.402   9.882   0.790 -0.2655  0.1080 -0.0692
  947MOL0     H27794  10.172   9.851   0.900  1.0181 -1.4810 -1.8369
  947MOL0     H27795  10.243   9.789   1.047 -1.4865 -0.1720  0.6644
  947MOL0     H27796  10.336   9.983   1.233  0.7195 -1.0667 -1.2128
  947MOL0     H27797  10.300  10.354   1.212 -2.3167 -0.8252 -0.5929
  947MOL0     H27798  10.332  10.222   1.330 -0.8945 -0.7204  0.1835
  947MOL0     H27799  10.538  10.359   1.301 -0.7744 -3.2685  2.4639
  947MOL0     H27800  10.554  10.192   1.238  2.7771  1.5161  1.5283
  947MOL0     H27801  10.535  10.252   1.017  1.7696 -0.0043 -0.8696
  947MOL0     H27802  10.658  10.343   1.098 -0.9916  1.2057 -1.6654
  947MOL0     H27803  10.380  10.467   1.033 -0.6241 -0.3187 -2.3970
  947MOL0     H27804  10.520  10.479   0.935 -1.5449  1.3977 -0.9084
  947MOL0     H27805  10.574  10.766   1.286 -2.6588 -3.1005 -1.2960
  947MOL0     H27806  10.798  10.833   1.359  0.7662 -1.3312  1.4228
  947MOL0     H27807  11.297  10.697   1.230 -1.6426  0.4758  0.7104
  947MOL0     H27808  11.547  10.742   1.196 -0.6932  0.0541  1.0976
  947MOL0     H27809  11.657  11.052   0.893  1.4468 -2.0007 -2.0313
  947MOL0     H27810  11.678  11.143   1.052  2.2036 -0.9594  2.1935
  947MOL0     H27811  11.910  11.111   0.922  0.1022  2.4210  3.3020
  947MOL0     H27812  11.900  11.045   1.081  1.6785 -0.9570 -0.5230
  947MOL0     H27813  11.825  10.824   0.988 -0.3903  0.8481  0.4727
  947MOL0     H27814  11.815  10.894   0.827  3.1734  1.7405 -1.5957
  947MOL0     H27815  12.077  10.923   0.834 -3.2516  1.9560 -1.8975
  947MOL0     H27816  12.027  10.765   0.818 -0.5128  1.5603 -1.6173
  947MOL0     H27817  12.032  10.719   1.065 -0.8346  0.6386  1.2057
  947MOL0     H27818  12.091  10.881   1.103  2.1343  0.2785 -0.7826
  947MOL0     H27819  12.247  10.699   0.935 -1.7368  0.3590 -1.7059
  947MOL0     H27820  12.266  10.878   0.975  0.2866 -0.5147  1.0784
  947MOL0     H27821  12.267  10.622   1.157  1.2975 -0.8578  0.3007
  947MOL0     H27822  12.264  10.789   1.220 -2.0727  1.8021 -1.8899
  947MOL0     H27823  12.479  10.745   1.040  0.7106 -1.6831 -0.0694
  947MOL0     H27824  12.468  10.839   1.190  0.1834  0.1858 -1.5844
  947MOL0     H27825  11.439  11.113   1.009  0.9580 -1.0787 -2.7156
  947MOL0     H27826  11.197  11.038   1.025 -0.4991  0.9743  1.9654
  947MOL0     H27827  10.955  10.626   1.001  0.0500 -2.1772  0.8186
  947MOL0     H27828  10.722  10.527   0.964  0.2673  0.8097 -0.6567
  947MOL0     H27829  10.751  10.014   0.518  0.2008 -2.6534 -0.9553
  947MOL0     H27830  10.644  10.060   0.306  0.5457 -0.5604  1.3646
  947MOL0     H27831  10.719  10.124  -0.172 -0.0794 -1.6067  1.3970
  947MOL0     H27832  10.582  10.068  -0.340 -2.7074 -1.2218 -1.7668
  947MOL0     H27833  10.475  10.121  -0.506 -1.4953  1.6159 -1.4498
  947MOL0     H27834  10.318  10.107  -0.580 -1.4405 -0.1230 -0.0963
  947MOL0     H27835  10.461   9.895  -0.421 -0.8726  0.5399  0.4373
  947MOL0     H27836  10.382   9.905  -0.585  0.9497  0.3703 -0.3140
  947MOL0     H27837  10.156   9.922  -0.458  0.1781 -0.0941 -1.4042
  947MOL0     H27838  10.257   9.919  -0.308  1.6888 -3.6713  1.3705
  947MOL0     H27839  10.343   9.676  -0.381 -0.4136 -0.4157  0.4042
  947MOL0     H27840  10.175   9.683  -0.337  0.4570  0.7160  1.7317
  947MOL0     H27841  10.156   9.590  -0.737 -1.4895 -1.4804  1.7647
  947MOL0     H27842  10.267  10.301  -0.157  1.4185  2.2388 -0.3533
  947MOL0     H27843  10.388  10.330   0.176 -1.3886 -3.2245 -1.8499
  947MOL0     H27844  10.427  10.475   0.074 -0.7941  1.0451  2.5906
  947MOL0     H27845  10.287  10.395   0.049  0.8517 -0.1424 -2.1662
  948MOL0     O27846   8.689  10.317   2.438  0.5792  0.7738 -0.8286
  948MOL0     C27847   8.614  10.321   2.535 -1.1117 -0.0556 -0.9847
  948MOL0     O27848   8.582  10.433   2.600  0.2399 -0.9089  0.3547
  948MOL0     C27849   8.641  10.550   2.551  0.8183  0.1312  0.3915
  948MOL0     C27850   8.765  10.588   2.598 -0.2319 -0.6361 -1.0889
  948MOL0     C27851   8.818  10.713   2.563  0.1952  0.7296  0.8651
  948MOL0     C27852   8.743  10.801   2.492 -0.1528  0.1517  0.3063
  948MOL0     O27853   8.792  10.927   2.488 -1.2875  0.5556  0.2684
  948MOL0     C27854   8.708  11.027   2.434 -0.3184 -0.5751  0.1625
  948MOL0     C27855   8.774  11.163   2.465  0.0668  0.4081 -0.3813
  948MOL0     C27856   8.906  11.184   2.394 -0.0935 -0.4310  0.2181
  948MOL0     C27857   9.037  11.173   2.485 -0.0025  0.4517  1.5430
  948MOL0     C27858   9.161  11.174   2.392 -0.2124  0.6638 -0.3025
  948MOL0     C27859   9.291  11.189   2.475  0.7406  0.2646 -1.5748
  948MOL0     C27860   9.423  11.185   2.404  0.2868 -0.2174  0.1827
  948MOL0     C27861   9.536  11.193   2.504 -0.0699 -0.3557  0.1635
  948MOL0     N27862   9.661  11.142   2.438 -0.1195 -0.1979  0.4166
  948MOL0     C27863   9.711  11.013   2.455  0.7361  0.6458 -0.7652
  948MOL0     C27864   9.834  11.019   2.404  0.9295 -0.7002 -0.5773
  948MOL0     C27865   9.937  10.914   2.415 -0.1493  0.2843 -0.0043
  948MOL0     C27866  10.085  10.965   2.430 -0.2423  0.0283 -0.7765
  948MOL0     C27867  10.136  10.950   2.576 -0.3317 -0.9358 -0.0466
  948MOL0     C27868  10.281  10.975   2.612  0.7220  0.2737 -0.6025
  948MOL0     O27869  10.364  10.919   2.510  0.5706 -0.8304  0.0273
  948MOL0     C27870  10.502  10.932   2.526 -0.1353 -0.3928  0.2451
  948MOL0     C27871  10.567  10.983   2.646  0.5940 -0.8394 -0.0973
  948MOL0     C27872  10.708  10.975   2.655 -0.7368  0.4552  0.3048
  948MOL0     C27873  10.782  10.917   2.560 -0.1521 -0.9881  0.5109
  948MOL0     C27874  10.929  10.897   2.573  0.2580  0.1296 -0.5084
  948MOL0     O27875  11.003  10.826   2.484 -0.1822 -0.5177  0.2225
  948MOL0     C27876  11.136  10.806   2.511 -0.0568  1.2225  0.5655
  948MOL0     C27877  11.233  10.868   2.436 -0.0973 -0.6974 -0.3063
  948MOL0     C27878  11.369  10.848   2.452  0.2321  0.6047 -0.3377
  948MOL0     C27879  11.418  10.757   2.558  0.1112 -0.7356  0.5818
  948MOL0     O27880  11.551  10.744   2.563 -0.5913 -0.3979 -0.5279
  948MOL0     C27881  11.604  10.633   2.634  0.3513 -0.5229 -0.8927
  948MOL0     C27882  11.757  10.640   2.608 -0.3065  0.0465 -0.6752
  948MOL0     C27883  11.818  10.536   2.702  0.4083  0.1972  1.0203
  948MOL0     C27884  11.971  10.509   2.671 -0.1214  0.1423  0.0129
  948MOL0     C27885  12.046  10.423   2.778 -0.1185 -0.8843  0.7739
  948MOL0     C27886  12.200  10.392   2.759  0.3422  0.0581  0.5028
  948MOL0     C27887  12.245  10.289   2.857 -0.7457 -0.3929  0.0799
  948MOL0     C27888  12.403  10.256   2.845  0.1155  0.5620  0.1884
  948MOL0    Cl27889  12.493  10.369   2.941  0.1465 -0.4025 -0.4085
  948MOL0     C27890  11.320  10.708   2.651 -0.4739 -0.4851 -0.1186
  948MOL0     C27891  11.179  10.713   2.617 -0.2966 -0.2643  0.9790
  948MOL0     O27892  10.980  10.942   2.675  0.2995 -0.0100 -0.3370
  948MOL0     C27893  10.716  10.869   2.447  0.2260  0.1181  0.5675
  948MOL0     C27894  10.579  10.882   2.429 -0.0363  0.6767  0.3385
  948MOL0     N27895   9.842  11.132   2.325  0.0925 -0.1707  0.2360
  948MOL0     N27896   9.739  11.206   2.351 -0.5142  0.3890  0.8974
  948MOL0     C27897   8.616  10.761   2.442  0.1078  0.2664  0.1022
  948MOL0     C27898   8.563  10.636   2.474 -0.4542  0.3049 -0.2133
  948MOL0     C27899   8.570  10.195   2.605  0.4421 -0.1376  0.5184
  948MOL0     C27900   8.465  10.214   2.701 -0.7682  0.3259  0.6660
  948MOL0     C27901   8.394  10.106   2.750  0.6503 -0.6463  0.2576
  948MOL0     C27902   8.436   9.976   2.732 -0.2885  0.7311  0.2776
  948MOL0     O27903   8.362   9.883   2.786  0.4956 -0.6070 -0.5691
  948MOL0     C27904   8.399   9.751   2.755 -0.6322 -0.9966 -0.6570
  948MOL0     C27905   8.294   9.669   2.817 -0.1765  0.1839  0.4887
  948MOL0     C27906   8.174   9.660   2.722 -0.2459 -0.4232 -0.2996
  948MOL0     C27907   8.056   9.601   2.796 -0.0944  0.0118  0.3408
  948MOL0     C27908   7.954   9.572   2.710  0.0799 -0.6879 -0.2556
  948MOL0     C27909   7.865   9.559   2.627  0.7618  0.6071  0.1396
  948MOL0     C27910   8.548   9.958   2.647 -0.5172  0.9635 -0.6647
  948MOL0     C27911   8.619  10.062   2.586 -0.5650 -0.5080  0.3812
  948MOL0     C27912   8.728  10.029   2.485 -0.3582  0.1905 -0.5252
  948MOL0     H27913   8.813  10.509   2.656 -1.9734 -0.4201  0.7477
  948MOL0     H27914   8.920  10.738   2.589  0.4225 -0.1245  0.7988
  948MOL0     H27915   8.677  11.013   2.330  1.1482  3.3072 -0.9850
  948MOL0     H27916   8.616  11.030   2.494  0.3142 -0.8817  1.1768
  948MOL0     H27917   8.793  11.168   2.572  4.6976  1.2058 -1.0364
  948MOL0     H27918   8.713  11.248   2.433 -0.4313  0.2289  0.0905
  948MOL0     H27919   8.906  11.284   2.349 -2.8046 -1.0089 -1.3260
  948MOL0     H27920   8.912  11.112   2.312 -3.6944 -0.3403 -0.2947
  948MOL0     H27921   9.038  11.260   2.550  1.5346  2.4692 -0.9778
  948MOL0     H27922   9.038  11.076   2.536 -0.5882 -0.4058  0.0189
  948MOL0     H27923   9.159  11.076   2.343  1.2878  0.7719 -0.6014
  948MOL0     H27924   9.150  11.251   2.316 -0.5674  2.1494  1.1887
  948MOL0     H27925   9.287  11.288   2.522 -1.1938 -0.6216  0.2853
  948MOL0     H27926   9.297  11.121   2.561 -0.5402  1.2132 -0.6882
  948MOL0     H27927   9.424  11.282   2.353  2.9762  0.6298  1.6852
  948MOL0     H27928   9.424  11.098   2.338 -4.2046 -1.0543  0.8972
  948MOL0     H27929   9.556  11.300   2.519  0.4187 -0.5584  0.9958
  948MOL0     H27930   9.521  11.147   2.602 -1.4866  0.7198  0.4928
  948MOL0     H27931   9.667  10.930   2.509  0.3142  0.0883 -1.9348
  948MOL0     H27932   9.912  10.852   2.502  0.9480 -1.6730 -0.9910
  948MOL0     H27933   9.935  10.839   2.335 -3.5976 -3.2154  2.9196
  948MOL0     H27934  10.148  10.906   2.362 -1.6875 -0.6257 -1.5950
  948MOL0     H27935  10.094  11.071   2.403  4.4215 -0.7975 -3.6542
  948MOL0     H27936  10.123  10.846   2.607  2.1041 -1.5863 -1.0279
  948MOL0     H27937  10.073  11.014   2.638 -2.2986  0.5169 -3.2825
  948MOL0     H27938  10.303  10.920   2.704  1.4950  0.7229 -0.5134
  948MOL0     H27939  10.305  11.080   2.631  0.4445  0.3983 -0.9173
  948MOL0     H27940  10.510  11.025   2.729  0.2559 -0.8035 -0.3483
  948MOL0     H27941  10.755  11.019   2.742 -1.4089 -0.8379  1.3416
  948MOL0     H27942  11.208  10.945   2.365 -1.4987  0.7657  1.6682
  948MOL0     H27943  11.446  10.897   2.394  0.5853  0.4671  0.0117
  948MOL0     H27944  11.569  10.618   2.737 -0.6518 -0.1523 -1.1697
  948MOL0     H27945  11.563  10.544   2.586  0.6539 -1.0122 -0.2715
  948MOL0     H27946  11.774  10.618   2.502  2.4197 -1.9132  0.0783
  948MOL0     H27947  11.805  10.738   2.617  0.4001 -0.2062 -1.5563
  948MOL0     H27948  11.810  10.565   2.807 -0.6078  3.1637  0.2064
  948MOL0     H27949  11.775  10.436   2.694  0.1565  0.3925 -0.2888
  948MOL0     H27950  12.031  10.597   2.646 -3.2018  2.6301  0.7854
  948MOL0     H27951  11.967  10.454   2.577 -1.8696  1.4663 -0.7349
  948MOL0     H27952  11.997  10.326   2.785 -1.6615 -0.1095  1.3788
  948MOL0     H27953  12.038  10.481   2.870  1.6856  0.7332 -0.0251
  948MOL0     H27954  12.228  10.351   2.661 -1.8005  0.3824 -0.3052
  948MOL0     H27955  12.258  10.485   2.764 -0.6623  0.8649 -1.5527
  948MOL0     H27956  12.191  10.201   2.822 -1.7324  0.5597 -0.8913
  948MOL0     H27957  12.213  10.313   2.959 -2.4936 -2.6868  0.1597
  948MOL0     H27958  12.426  10.165   2.900 -1.6651  0.7830  1.3812
  948MOL0     H27959  12.434  10.238   2.742 -0.8381 -0.6659  0.0891
  948MOL0     H27960  11.340  10.633   2.726  0.3303  1.4686  1.7215
  948MOL0     H27961  11.109  10.653   2.673 -1.0175  1.3154  1.8402
  948MOL0     H27962  10.773  10.832   2.362  0.5785  1.8346  0.0182
  948MOL0     H27963  10.531  10.849   2.337 -1.3094 -1.4016  1.6700
  948MOL0     H27964   8.556  10.828   2.383  0.1634  1.1091  0.9796
  948MOL0     H27965   8.464  10.611   2.437 -0.2743  0.7119 -0.9914
  948MOL0     H27966   8.431  10.316   2.718  1.2448  1.0484  0.6745
  948MOL0     H27967   8.317  10.140   2.818  0.3593 -1.7570  0.5105
  948MOL0     H27968   8.496   9.732   2.803 -1.1655  2.1185  2.0257
  948MOL0     H27969   8.393   9.739   2.647 -0.0882  0.1610 -0.8285
  948MOL0     H27970   8.253   9.718   2.906 -1.7227  0.6558 -0.4384
  948MOL0     H27971   8.321   9.570   2.854  0.7202  0.3840  0.4005
  948MOL0     H27972   8.196   9.593   2.638  0.2386  2.4679 -2.6248
  948MOL0     H27973   8.146   9.753   2.674 -1.5150 -1.2928 -1.3003
  948MOL0     H27974   8.081   9.516   2.861  2.1023  0.9410  0.8191
  948MOL0     H27975   8.036   9.680   2.868  0.9216 -1.5667  2.4885
  948MOL0     H27976   7.787   9.537   2.557  1.9792 -0.6052 -0.9121
  948MOL0     H27977   8.573   9.855   2.626  0.5959  0.1279  3.7408
  948MOL0     H27978   8.821  10.081   2.511 -0.4927 -0.8193  2.2295
  948MOL0     H27979   8.756   9.924   2.476 -0.4195  0.1226  0.0965
  948MOL0     H27980   8.701  10.062   2.384 -0.2865  2.3278  0.0995
  949MOL0     O27981   8.687   6.251  10.512  0.2310 -0.4583  0.0646
  949MOL0     C27982   8.590   6.184  10.534 -0.7333 -0.8438 -0.4093
  949MOL0     O27983   8.582   6.092  10.640  0.0793  0.2116  0.3456
  949MOL0     C27984   8.690   6.085  10.722  0.2755 -0.2320  0.0758
  949MOL0     C27985   8.795   5.993  10.697 -0.5518 -1.2648 -0.5603
  949MOL0     C27986   8.894   5.978  10.797  0.3054  0.1458 -0.1914
  949MOL0     C27987   8.901   6.061  10.918 -1.2931 -0.6628 -0.1424
  949MOL0     O27988   8.992   6.058  11.025  0.3925  0.3149  0.2763
  949MOL0     C27989   9.109   5.978  10.997  0.8608  0.5027  0.3615
  949MOL0     C27990   9.159   5.914  11.128 -0.2977 -0.0864  0.9043
  949MOL0     C27991   9.293   5.837  11.094  0.7007 -0.2568  0.5151
  949MOL0     C27992   9.344   5.744  11.213  0.2205 -0.5995  0.5588
  949MOL0     C27993   9.419   5.842  11.311  0.4521  0.4522 -0.3433
  949MOL0     C27994   9.479   5.765  11.432  0.0102 -0.0123 -0.7631
  949MOL0     C27995   9.562   5.867  11.513 -0.6897 -0.7202 -0.6941
  949MOL0     C27996   9.634   5.782  11.618 -0.7311  0.7879  0.1722
  949MOL0     N27997   9.758   5.846  11.659  0.0000 -0.0242  0.0431
  949MOL0     C27998   9.765   5.953  11.751 -0.7769  0.9761  0.1474
  949MOL0     C27999   9.895   5.977  11.751  0.7396  0.0668 -0.2519
  949MOL0     C28000   9.956   6.096  11.812 -0.2472  0.7368  0.3573
  949MOL0     C28001  10.010   6.066  11.944 -0.1009 -0.0716 -0.5246
  949MOL0     C28002  10.080   6.195  11.992 -0.3950  0.2383 -0.8066
  949MOL0     C28003  10.211   6.238  11.926 -0.1068  0.0079 -0.5718
  949MOL0     O28004  10.248   6.357  12.002  0.9923  0.4006 -0.6848
  949MOL0     C28005  10.374   6.410  11.990 -1.2478  0.1555  0.1199
  949MOL0     C28006  10.394   6.530  12.051 -0.2992 -0.6596 -0.6935
  949MOL0     C28007  10.524   6.587  12.030 -0.5465 -0.0986 -0.8175
  949MOL0     C28008  10.633   6.526  11.962 -0.8167  0.0694  0.5581
  949MOL0     C28009  10.768   6.593  11.951 -0.5736  0.4845 -0.3512
  949MOL0     O28010  10.782   6.711  12.010  0.1729  0.0915  0.4542
  949MOL0     C28011  10.903   6.774  11.999  0.1759  0.5742  0.4857
  949MOL0     C28012  10.929   6.910  11.968 -0.4968 -1.6731 -0.5582
  949MOL0     C28013  11.049   6.971  11.974 -1.0212  0.0844  0.0470
  949MOL0     C28014  11.170   6.900  12.009  0.4171 -0.5374  0.3897
  949MOL0     O28015  11.280   6.968  12.012 -1.0956 -0.3811  0.9630
  949MOL0     C28016  11.348   6.947  11.885  0.5766  0.0957  0.2221
  949MOL0     C28017  11.467   7.040  11.872  0.5566 -0.5537  0.4545
  949MOL0     C28018  11.419   7.189  11.871  0.3488 -0.9119 -0.6379
  949MOL0     C28019  11.528   7.291  11.846 -0.7939  0.4314 -1.5121
  949MOL0     C28020  11.469   7.433  11.826 -0.5371  0.3888 -0.4166
  949MOL0     C28021  11.579   7.530  11.794  0.3731  0.3155  0.0805
  949MOL0     C28022  11.541   7.678  11.828 -1.1022  0.6861 -0.4437
  949MOL0     C28023  11.426   7.730  11.755  0.1095  0.1248  1.2785
  949MOL0    Cl28024  11.374   7.882  11.834 -0.2179  0.3609 -0.1123
  949MOL0     C28025  11.149   6.774  12.063 -0.3255  0.3400  0.3867
  949MOL0     C28026  11.022   6.707  12.050  0.5812  0.0823 -0.0017
  949MOL0     O28027  10.856   6.530  11.888  0.0687  0.0948 -0.8542
  949MOL0     C28028  10.611   6.396  11.920  0.6240 -0.9577  0.7240
  949MOL0     C28029  10.482   6.341  11.936 -0.2806 -0.1028  0.0170
  949MOL0     N28030   9.960   5.888  11.664 -0.5633 -0.0403  0.4295
  949MOL0     N28031   9.875   5.808  11.604 -0.7368  0.0659 -0.2082
  949MOL0     C28032   8.794   6.149  10.933  0.3893 -0.8161  0.7292
  949MOL0     C28033   8.689   6.163  10.839  0.6838  0.0761 -0.2930
  949MOL0     C28034   8.480   6.201  10.445  1.1347  0.2386  0.6294
  949MOL0     C28035   8.496   6.200  10.312 -0.2638  0.0035  0.7404
  949MOL0     C28036   8.389   6.206  10.220 -0.5020  0.3003  0.0963
  949MOL0     C28037   8.253   6.215  10.264  0.7664  0.0483  0.1058
  949MOL0     O28038   8.135   6.216  10.191  0.6543 -0.2871  1.0838
  949MOL0     C28039   8.149   6.192  10.055  1.0677  0.0643  1.3788
  949MOL0     C28040   8.015   6.222   9.976  1.3418  0.2956  0.0229
  949MOL0     C28041   7.887   6.163  10.028 -0.4639  0.4155 -1.1312
  949MOL0     C28042   7.881   6.010  10.014  0.6973 -0.1324 -0.7558
  949MOL0     C28043   7.920   5.956   9.888 -0.3270 -0.3495 -0.5119
  949MOL0     C28044   7.938   5.926   9.769  0.5269  0.4563 -0.3926
  949MOL0     C28045   8.234   6.212  10.399 -0.3987  0.0616  0.0570
  949MOL0     C28046   8.346   6.208  10.484 -0.0559 -0.2141 -0.1574
  949MOL0     C28047   8.308   6.209  10.637 -0.6102  0.3809  0.3289
  949MOL0     H28048   8.797   5.951  10.597 -0.3265 -1.2292 -0.5725
  949MOL0     H28049   8.973   5.910  10.767 -0.0297 -1.4147  2.2079
  949MOL0     H28050   9.088   5.895  10.929  3.0092 -0.3584  0.6667
  949MOL0     H28051   9.185   6.034  10.942  0.2140 -0.5875 -1.7626
  949MOL0     H28052   9.075   5.850  11.157 -1.4851 -0.2769 -2.5324
  949MOL0     H28053   9.168   5.987  11.208  0.6304  0.1154  0.6371
  949MOL0     H28054   9.363   5.910  11.054 -1.5349  1.3212 -0.7188
  949MOL0     H28055   9.264   5.769  11.013  1.5821 -1.7434  1.3921
  949MOL0     H28056   9.272   5.680  11.264 -1.3053 -0.3270 -1.1599
  949MOL0     H28057   9.416   5.673  11.172 -1.7993 -1.6376 -1.3645
  949MOL0     H28058   9.499   5.896  11.260  0.8907  1.5367  1.4153
  949MOL0     H28059   9.360   5.927  11.345  0.5770 -0.0056  1.1031
  949MOL0     H28060   9.400   5.723  11.494  0.1421  0.3004 -0.3828
  949MOL0     H28061   9.539   5.679  11.401  3.4927  1.6062  0.8662
  949MOL0     H28062   9.500   5.933  11.574  1.6891 -1.4216  2.7575
  949MOL0     H28063   9.628   5.917  11.441 -1.4690 -0.5033 -1.2729
  949MOL0     H28064   9.559   5.783  11.698  0.7134 -0.7929  1.6042
  949MOL0     H28065   9.642   5.678  11.586 -0.6161  1.1503 -1.0255
  949MOL0     H28066   9.683   6.014  11.788 -0.9615  1.9775 -1.7542
  949MOL0     H28067  10.042   6.121  11.748 -0.7471 -1.3436 -1.2343
  949MOL0     H28068   9.886   6.179  11.809 -0.8830  0.2076 -2.5523
  949MOL0     H28069   9.929   6.038  12.012  2.1272 -4.1422  0.8546
  949MOL0     H28070  10.081   5.982  11.938 -0.1642 -0.0015 -3.6434
  949MOL0     H28071  10.097   6.186  12.100 -0.9890 -0.4653 -0.7653
  949MOL0     H28072   9.999   6.268  11.985 -0.7099  0.2120  1.5145
  949MOL0     H28073  10.195   6.262  11.821  0.1978 -0.5291 -0.7400
  949MOL0     H28074  10.285   6.160  11.943 -2.1463 -1.8508  0.3792
  949MOL0     H28075  10.318   6.590  12.101 -1.3592  0.8761 -3.8931
  949MOL0     H28076  10.530   6.685  12.076  1.2628 -0.9116  0.8490
  949MOL0     H28077  10.857   6.983  11.932 -1.3476 -1.4562  1.4913
  949MOL0     H28078  11.070   7.076  11.955 -1.3599  0.0862 -0.3255
  949MOL0     H28079  11.381   6.844  11.870  0.3979  0.1522 -0.6721
  949MOL0     H28080  11.276   6.967  11.804  0.1099 -2.5600 -0.1108
  949MOL0     H28081  11.539   7.026  11.953  0.0840  1.1255  1.2069
  949MOL0     H28082  11.525   7.023  11.781 -0.3259 -0.0495 -0.2194
  949MOL0     H28083  11.341   7.190  11.794  0.1914  1.0226 -0.4970
  949MOL0     H28084  11.373   7.227  11.963 -3.2559  2.0022 -3.3737
  949MOL0     H28085  11.590   7.256  11.762  0.6347 -0.4285 -0.1563
  949MOL0     H28086  11.587   7.300  11.938 -3.1359  3.1870 -0.1324
  949MOL0     H28087  11.425   7.474  11.918 -1.1042 -1.2505  0.0732
  949MOL0     H28088  11.398   7.423  11.744  1.0429 -3.3652 -1.5280
  949MOL0     H28089  11.674   7.504  11.842  1.2508 -0.5238 -1.9708
  949MOL0     H28090  11.607   7.521  11.688  0.8155 -0.4664  0.2505
  949MOL0     H28091  11.631   7.738  11.810 -0.8270 -0.1263 -1.9258
  949MOL0     H28092  11.526   7.678  11.936 -0.9824 -0.5318 -0.4133
  949MOL0     H28093  11.446   7.736  11.648 -1.2610 -1.1027  0.9130
  949MOL0     H28094  11.347   7.654  11.766  0.1684  0.2422  2.8144
  949MOL0     H28095  11.233   6.715  12.100 -0.5711 -0.6710 -0.5943
  949MOL0     H28096  11.000   6.605  12.079 -3.4662  1.2719  1.7591
  949MOL0     H28097  10.682   6.323  11.881  1.4131 -0.1546  0.6328
  949MOL0     H28098  10.469   6.238  11.903 -1.2954  0.3728 -1.1325
  949MOL0     H28099   8.801   6.204  11.026  0.1660  0.8819 -0.2231
  949MOL0     H28100   8.597   6.217  10.856 -1.3384 -3.4748  1.1601
  949MOL0     H28101   8.597   6.190  10.273 -1.1617  2.8737 -2.9123
  949MOL0     H28102   8.408   6.196  10.113  3.1228 -0.7926  0.7195
  949MOL0     H28103   8.171   6.089  10.025  0.7582  0.1826  0.7260
  949MOL0     H28104   8.229   6.255  10.015  0.3497 -0.7307 -1.5751
  949MOL0     H28105   8.028   6.185   9.874 -2.7946 -0.3363 -0.4538
  949MOL0     H28106   7.987   6.327   9.969  0.3640  0.0255 -0.3610
  949MOL0     H28107   7.799   6.199   9.974 -0.8865  1.3368  0.1190
  949MOL0     H28108   7.869   6.196  10.131  1.3358 -0.1538 -0.6014
  949MOL0     H28109   7.943   5.959  10.088  0.1539 -2.6241 -1.9269
  949MOL0     H28110   7.778   5.979  10.034  0.5077  0.2373 -1.1420
  949MOL0     H28111   7.941   5.912   9.662  0.2503  3.0438 -0.8120
  949MOL0     H28112   8.134   6.231  10.435 -0.1170  1.9201 -0.0240
  949MOL0     H28113   8.259   6.114  10.658 -0.6219  0.1452 -0.7291
  949MOL0     H28114   8.396   6.227  10.700 -0.5297  1.1979  0.0028
  949MOL0     H28115   8.245   6.288  10.680  1.1212 -0.6308  5.4150
  950MOL0     O28116   0.418   6.108   9.592  0.5776 -0.2390  0.7938
  950MOL0     C28117   0.437   6.100   9.475 -0.5601 -0.0881  0.0521
  950MOL0     O28118   0.557   6.090   9.418 -0.5096  0.0316 -0.7916
  950MOL0     C28119   0.664   6.090   9.500  0.5064  0.2721 -0.6709
  950MOL0     C28120   0.726   5.967   9.523 -0.1278  0.9983 -0.3271
  950MOL0     C28121   0.844   5.958   9.587 -0.3692 -0.2970 -0.3343
  950MOL0     C28122   0.914   6.074   9.629 -0.3532  0.1483  0.3309
  950MOL0     O28123   1.034   6.071   9.692  0.3363  0.0558 -0.9025
  950MOL0     C28124   1.127   5.965   9.659 -0.4198  0.5194  0.6830
  950MOL0     C28125   1.265   5.973   9.732  0.3930 -0.2456  0.2385
  950MOL0     C28126   1.360   5.872   9.677  0.2157 -0.2283 -0.0385
  950MOL0     C28127   1.492   5.885   9.754 -0.1228  0.3090 -0.6177
  950MOL0     C28128   1.614   5.820   9.685 -0.4533 -0.3772 -0.4362
  950MOL0     C28129   1.579   5.683   9.623  0.3780  0.2582 -0.0423
  950MOL0     C28130   1.700   5.599   9.570  0.1370  0.0427  0.5763
  950MOL0     C28131   1.641   5.465   9.512 -0.5809 -0.0273 -0.6707
  950MOL0     N28132   1.751   5.360   9.519  0.0549 -0.5000  0.6975
  950MOL0     C28133   1.866   5.372   9.448 -0.4009  0.0439  0.4345
  950MOL0     C28134   1.945   5.269   9.492  0.3568 -0.0474  0.3521
  950MOL0     C28135   2.083   5.238   9.443 -0.2040  0.2122  0.2988
  950MOL0     C28136   2.083   5.199   9.296  0.8316  0.9210  0.2580
  950MOL0     C28137   2.070   5.046   9.288 -0.2441 -0.2547  0.2624
  950MOL0     C28138   2.095   4.978   9.147 -0.2377  0.6496 -0.4121
  950MOL0     O28139   2.228   5.004   9.094 -0.0953 -0.2639 -0.9908
  950MOL0     C28140   2.245   4.981   8.964  0.2186  0.3760  0.2994
  950MOL0     C28141   2.359   5.044   8.910  1.1981  0.9660  0.6497
  950MOL0     C28142   2.395   5.014   8.780  0.1384 -1.0641  0.2391
  950MOL0     C28143   2.330   4.910   8.702  0.9049 -0.6273  0.6663
  950MOL0     C28144   2.364   4.888   8.561 -0.5972 -0.4636 -0.0845
  950MOL0     O28145   2.492   4.898   8.529 -0.4407 -0.1020 -0.3391
  950MOL0     C28146   2.521   4.884   8.393 -0.3133 -0.2500  0.9262
  950MOL0     C28147   2.489   4.987   8.296 -0.8519  0.0860 -0.2802
  950MOL0     C28148   2.535   4.967   8.162  0.2971  0.3117 -0.5810
  950MOL0     C28149   2.608   4.851   8.131  0.0950 -0.5302  0.4323
  950MOL0     O28150   2.652   4.835   7.998 -0.3168  0.1802 -0.0824
  950MOL0     C28151   2.563   4.883   7.896  0.0239 -0.5752  0.5645
  950MOL0     C28152   2.574   4.786   7.773  0.1748  0.0203 -0.3578
  950MOL0     C28153   2.546   4.644   7.816 -0.2324 -0.9074 -0.4447
  950MOL0     C28154   2.505   4.554   7.702  0.9739  0.5705 -0.1072
  950MOL0     C28155   2.617   4.530   7.601 -0.1654  0.9451  0.4052
  950MOL0     C28156   2.756   4.489   7.664 -0.0418 -0.1831  1.2739
  950MOL0     C28157   2.856   4.425   7.558 -0.2989 -0.2366 -0.6045
  950MOL0     C28158   2.983   4.401   7.631 -1.0975  1.1287  0.3407
  950MOL0    Cl28159   3.082   4.543   7.639  0.0383 -0.7773 -0.2778
  950MOL0     C28160   2.650   4.754   8.227 -0.1214 -0.9582 -0.1517
  950MOL0     C28161   2.592   4.771   8.354  0.3436 -0.2781  0.3195
  950MOL0     O28162   2.273   4.853   8.487 -0.1099 -0.0045 -0.4012
  950MOL0     C28163   2.216   4.850   8.759  0.5967  0.2972 -0.8503
  950MOL0     C28164   2.169   4.892   8.889  0.1654 -0.5856  0.6947
  950MOL0     N28165   1.881   5.212   9.595 -0.2927  0.2611 -1.7170
  950MOL0     N28166   1.767   5.259   9.608 -0.0811  1.3219 -1.0412
  950MOL0     C28167   0.855   6.200   9.605  0.3020 -0.5230  0.3115
  950MOL0     C28168   0.729   6.203   9.538 -0.0330 -0.2103 -0.3047
  950MOL0     C28169   0.319   6.098   9.391 -0.2999 -0.3669  0.0648
  950MOL0     C28170   0.217   6.190   9.428  0.1347  0.0487  0.8915
  950MOL0     C28171   0.096   6.200   9.355  0.0599 -0.2335  0.2055
  950MOL0     C28172   0.075   6.119   9.245  0.6518 -0.1073  0.6620
  950MOL0     O28173  -0.035   6.145   9.177 -0.0598  0.2703  0.7918
  950MOL0     C28174  -0.125   6.035   9.179 -0.4713 -0.3870  0.5088
  950MOL0     C28175  -0.244   6.043   9.267  0.8861 -1.0361 -0.1410
  950MOL0     C28176  -0.345   6.156   9.221  1.0589 -0.4208 -0.0347
  950MOL0     C28177  -0.481   6.161   9.307 -0.3012  0.6706  0.1596
  950MOL0     C28178  -0.576   6.244   9.230  0.1426  0.3357 -0.4437
  950MOL0     C28179  -0.657   6.315   9.178  0.3325  0.6857 -0.6059
  950MOL0     C28180   0.175   6.032   9.202  0.3794 -0.7084  0.0625
  950MOL0     C28181   0.297   6.017   9.272  0.3208 -0.1460  0.5201
  950MOL0     C28182   0.396   5.919   9.221 -0.2700  0.0868 -0.1383
  950MOL0     H28183   0.673   5.882   9.482  0.1424  0.2413  0.8472
  950MOL0     H28184   0.883   5.860   9.612  0.1094  0.1309  0.6404
  950MOL0     H28185   1.080   5.869   9.684  0.2511  0.3472  1.3149
  950MOL0     H28186   1.141   5.975   9.551 -1.2449  2.2991  0.7037
  950MOL0     H28187   1.251   5.951   9.838 -0.3715 -1.5832 -0.1148
  950MOL0     H28188   1.297   6.077   9.735 -0.2510 -0.0630  1.0258
  950MOL0     H28189   1.370   5.905   9.573  1.6873 -1.4066 -0.3163
  950MOL0     H28190   1.316   5.772   9.682  0.0589 -0.1482  0.1981
  950MOL0     H28191   1.515   5.992   9.758 -1.1840  0.5961 -1.5985
  950MOL0     H28192   1.484   5.836   9.852 -0.8904 -0.8659 -1.2397
  950MOL0     H28193   1.653   5.889   9.610  0.4713 -0.3652  0.0466
  950MOL0     H28194   1.695   5.810   9.757 -1.3250  5.1780  1.8296
  950MOL0     H28195   1.534   5.622   9.701  1.2488 -0.3458  0.0099
  950MOL0     H28196   1.512   5.719   9.545  1.0552  4.1171  0.9605
  950MOL0     H28197   1.765   5.577   9.655  1.8146  1.2904 -0.3082
  950MOL0     H28198   1.772   5.655   9.508  1.7490 -0.7783  1.6266
  950MOL0     H28199   1.557   5.422   9.568 -0.8066  2.2701  0.8790
  950MOL0     H28200   1.603   5.486   9.412 -1.3942 -2.0781 -0.8569
  950MOL0     H28201   1.897   5.445   9.375  1.1575  1.4106  2.3283
  950MOL0     H28202   2.139   5.331   9.457 -0.4383  0.1192  2.1472
  950MOL0     H28203   2.127   5.166   9.512  1.2507 -0.5623 -1.3750
  950MOL0     H28204   2.003   5.248   9.241 -0.8993 -3.5235 -1.6458
  950MOL0     H28205   2.180   5.217   9.248  0.1331  1.4415 -1.0037
  950MOL0     H28206   1.975   5.018   9.335 -0.2439 -3.0273 -1.2172
  950MOL0     H28207   2.146   4.990   9.342  1.4677  0.6720 -1.0599
  950MOL0     H28208   2.018   5.015   9.078  0.0043  0.0281 -1.0330
  950MOL0     H28209   2.088   4.869   9.160 -1.4313  0.9113  1.4921
  950MOL0     H28210   2.412   5.120   8.967 -0.8255  0.5910  3.2420
  950MOL0     H28211   2.479   5.068   8.738 -0.7933  1.6143  1.5669
  950MOL0     H28212   2.436   5.077   8.325 -0.1368  0.9057 -1.4169
  950MOL0     H28213   2.514   5.046   8.090  0.5780  1.7065  0.8218
  950MOL0     H28214   2.457   4.885   7.921 -0.2289  0.7279 -0.5134
  950MOL0     H28215   2.593   4.985   7.871 -0.2899 -0.0799  2.1185
  950MOL0     H28216   2.507   4.813   7.691  2.0632  3.5568 -0.9392
  950MOL0     H28217   2.673   4.798   7.728  1.4235 -0.2808  2.1410
  950MOL0     H28218   2.638   4.613   7.867 -0.0457  0.1358 -0.1142
  950MOL0     H28219   2.468   4.640   7.893  1.2321 -3.0781  1.0347
  950MOL0     H28220   2.418   4.594   7.650  1.3340 -1.6253 -2.6092
  950MOL0     H28221   2.481   4.457   7.747  1.4654 -0.1830 -1.4223
  950MOL0     H28222   2.616   4.615   7.533 -0.7208  1.0413  0.5303
  950MOL0     H28223   2.587   4.440   7.546 -0.9593 -0.9715  3.6858
  950MOL0     H28224   2.806   4.579   7.700 -1.5152  0.3126  2.1237
  950MOL0     H28225   2.740   4.411   7.739  0.8521 -1.6828 -0.0106
  950MOL0     H28226   2.871   4.497   7.478  0.1059 -2.2538 -2.4203
  950MOL0     H28227   2.817   4.335   7.509 -2.2150  1.0375 -1.5118
  950MOL0     H28228   2.971   4.366   7.734  2.4897 -0.6597  0.3058
  950MOL0     H28229   3.052   4.325   7.595  0.1395  2.5383 -0.3743
  950MOL0     H28230   2.711   4.675   8.186  1.5286  1.2021 -2.1090
  950MOL0     H28231   2.621   4.708   8.437  1.6136  1.2228  1.0546
  950MOL0     H28232   2.150   4.779   8.709 -3.5364  2.6320  0.8020
  950MOL0     H28233   2.081   4.845   8.932  1.6461 -1.2279  3.2642
  950MOL0     H28234   0.898   6.292   9.646  1.0069  0.1206 -1.7507
  950MOL0     H28235   0.693   6.305   9.529 -0.6929 -0.6021 -2.9789
  950MOL0     H28236   0.240   6.263   9.504 -3.0470 -0.5708  2.6400
  950MOL0     H28237   0.029   6.276   9.393  1.9228  0.7995  1.6153
  950MOL0     H28238  -0.081   5.940   9.211  1.2501  0.4366  0.6814
  950MOL0     H28239  -0.162   6.023   9.077  1.3376 -1.6810 -0.0393
  950MOL0     H28240  -0.209   6.068   9.367 -0.2801 -1.5108  0.4012
  950MOL0     H28241  -0.300   5.949   9.265  1.6770 -1.5024 -1.0355
  950MOL0     H28242  -0.365   6.148   9.114 -1.9474  0.3451  0.3824
  950MOL0     H28243  -0.289   6.246   9.249 -0.5795  0.4892  0.4780
  950MOL0     H28244  -0.521   6.063   9.332 -0.1326  0.4270 -0.4963
  950MOL0     H28245  -0.450   6.210   9.399  0.5830 -2.0282  1.4035
  950MOL0     H28246  -0.731   6.371   9.126 -1.1915 -2.3856 -1.9931
  950MOL0     H28247   0.155   5.972   9.114  1.3036 -1.0473  0.0764
  950MOL0     H28248   0.452   5.882   9.307  0.2152 -0.7208 -0.7957
  950MOL0     H28249   0.344   5.831   9.182 -0.3221 -1.9892  4.0916
  950MOL0     H28250   0.451   5.959   9.135 -0.3679 -1.1855 -0.8178
  951MOL0     O28251   6.334   1.996   4.347 -0.6378 -0.2893  1.3700
  951MOL0     C28252   6.263   1.905   4.391 -0.0585  0.7145  0.9453
  951MOL0     O28253   6.282   1.832   4.515 -0.0138 -0.9393 -0.1579
  951MOL0     C28254   6.402   1.861   4.571  0.0552  0.4669 -0.1664
  951MOL0     C28255   6.524   1.823   4.520  0.1841 -0.3578  1.1909
  951MOL0     C28256   6.635   1.838   4.597 -0.2419  0.1928  0.1287
  951MOL0     C28257   6.634   1.886   4.731  0.2350  0.0656  0.4458
  951MOL0     O28258   6.742   1.897   4.821 -0.1566 -0.7218  0.6288
  951MOL0     C28259   6.859   1.814   4.802  0.6637 -0.7420  0.4525
  951MOL0     C28260   6.981   1.898   4.786  0.7762 -0.4254 -0.2839
  951MOL0     C28261   7.040   1.878   4.644  0.2801  0.0490 -0.7803
  951MOL0     C28262   7.171   1.963   4.622 -0.7362 -1.2354 -0.4696
  951MOL0     C28263   7.149   2.113   4.616 -0.3563  0.4803 -0.0062
  951MOL0     C28264   7.275   2.185   4.652 -1.1598 -0.3743 -0.2242
  951MOL0     C28265   7.413   2.136   4.614  0.3547 -0.3859 -0.4382
  951MOL0     C28266   7.512   2.232   4.683  0.5571  0.3597 -0.2375
  951MOL0     N28267   7.652   2.220   4.631  1.0279 -0.6064  0.7850
  951MOL0     C28268   7.705   2.326   4.554 -0.3407  0.1161  0.4182
  951MOL0     C28269   7.842   2.301   4.555 -0.0674  0.2761 -0.0076
  951MOL0     C28270   7.944   2.375   4.474  0.1867  1.0750 -0.4248
  951MOL0     C28271   8.088   2.338   4.517 -0.0442  0.1685 -0.5338
  951MOL0     C28272   8.179   2.433   4.436 -0.5498  0.1700 -0.4330
  951MOL0     C28273   8.326   2.413   4.485  0.0343  0.1466  0.0944
  951MOL0     O28274   8.422   2.491   4.414 -0.1492 -0.7017  0.2939
  951MOL0     C28275   8.477   2.451   4.298  0.2126  0.1053  1.0403
  951MOL0     C28276   8.588   2.515   4.249 -0.3857 -0.3072 -0.0465
  951MOL0     C28277   8.654   2.485   4.134 -0.0674  0.4137  1.2431
  951MOL0     C28278   8.608   2.369   4.059 -0.1481 -0.8514 -0.7608
  951MOL0     C28279   8.669   2.322   3.928  0.2900 -0.5241 -0.2028
  951MOL0     O28280   8.737   2.412   3.852 -0.3428  0.2648 -0.8050
  951MOL0     C28281   8.820   2.384   3.747 -0.3802  0.2598  0.7882
  951MOL0     C28282   8.885   2.496   3.698  0.0348  0.4235  0.1503
  951MOL0     C28283   8.942   2.498   3.572 -0.1588 -0.1469  0.0250
  951MOL0     C28284   8.957   2.385   3.505  0.5822  1.2018 -0.1214
  951MOL0     O28285   9.009   2.402   3.374  0.4671 -0.1417 -0.6095
  951MOL0     C28286   8.993   2.291   3.282 -0.2795  0.1029  0.3916
  951MOL0     C28287   9.041   2.351   3.146 -0.6026 -0.0695  0.5739
  951MOL0     C28288   9.181   2.409   3.147  0.7626 -0.1340 -0.7102
  951MOL0     C28289   9.240   2.438   3.008  0.4261  0.1568  0.0348
  951MOL0     C28290   9.392   2.434   3.017  0.6294  0.5055  1.1500
  951MOL0     C28291   9.480   2.432   2.888  0.6653  0.0613 -0.5212
  951MOL0     C28292   9.629   2.448   2.924  0.4201  0.8735 -0.1444
  951MOL0     C28293   9.709   2.444   2.792  0.2791 -0.4574 -0.8598
  951MOL0    Cl28294   9.710   2.615   2.711 -0.4330  0.1989 -0.3916
  951MOL0     C28295   8.911   2.257   3.552 -0.0668 -1.0828 -0.2161
  951MOL0     C28296   8.836   2.267   3.672  0.5299  0.1407 -0.2695
  951MOL0     O28297   8.634   2.212   3.894 -0.5310  0.0501  0.0036
  951MOL0     C28298   8.492   2.305   4.105 -0.6236 -0.9158  0.0979
  951MOL0     C28299   8.423   2.349   4.208 -0.0046 -2.0641  0.4496
  951MOL0     N28300   7.866   2.185   4.633  0.2568  0.6077 -0.4135
  951MOL0     N28301   7.751   2.147   4.682  0.1547  0.1575  0.1811
  951MOL0     C28302   6.516   1.924   4.778  0.6327 -0.0744 -0.5142
  951MOL0     C28303   6.397   1.910   4.702 -0.2417 -0.0056 -0.7020
  951MOL0     C28304   6.152   1.860   4.294  0.2348  0.5805  0.2383
  951MOL0     C28305   6.030   1.806   4.355 -0.1251  1.5828  0.6423
  951MOL0     C28306   5.924   1.759   4.272  0.4341  0.0513  0.3679
  951MOL0     C28307   5.929   1.763   4.137 -0.2246 -0.1175 -0.4137
  951MOL0     O28308   5.825   1.728   4.049 -0.2619 -0.4828 -0.2943
  951MOL0     C28309   5.707   1.682   4.104  0.1547  0.1481  0.0968
  951MOL0     C28310   5.606   1.675   3.996  0.9142 -0.1255 -0.4678
  951MOL0     C28311   5.512   1.798   3.993 -0.8229  0.4059  0.5985
  951MOL0     C28312   5.416   1.789   3.872 -0.5277  0.6682  0.2665
  951MOL0     C28313   5.306   1.705   3.893 -0.4534 -0.1883 -0.1602
  951MOL0     C28314   5.209   1.640   3.927 -0.5790  0.0659 -0.2906
  951MOL0     C28315   6.044   1.816   4.077 -0.5983 -1.5560  0.0417
  951MOL0     C28316   6.148   1.873   4.148  0.3250  1.3152  0.7041
  951MOL0     C28317   6.262   1.931   4.070 -0.0036 -0.1874 -0.5650
  951MOL0     H28318   6.534   1.773   4.424  1.5410 -0.9428  1.6092
  951MOL0     H28319   6.732   1.819   4.553  0.7700  2.1166  1.4049
  951MOL0     H28320   6.876   1.757   4.893 -0.3341  0.9410  1.7715
  951MOL0     H28321   6.843   1.742   4.721 -1.9204 -1.2936  1.3498
  951MOL0     H28322   7.057   1.869   4.859  1.8027  1.4810 -0.5410
  951MOL0     H28323   6.954   2.004   4.795  2.4683  0.2252 -2.1879
  951MOL0     H28324   6.974   1.909   4.563  0.6428  2.8666 -0.0905
  951MOL0     H28325   7.072   1.774   4.629 -0.6114  0.1762 -4.1762
  951MOL0     H28326   7.235   1.935   4.707 -1.9336  1.8174  1.5780
  951MOL0     H28327   7.236   1.932   4.540  0.9787  3.0925 -1.0005
  951MOL0     H28328   7.127   2.142   4.513  4.0562  1.7639 -0.8241
  951MOL0     H28329   7.076   2.151   4.688  1.6869  0.4137  2.2607
  951MOL0     H28330   7.262   2.282   4.602  1.1492  0.0519 -0.1134
  951MOL0     H28331   7.269   2.200   4.760  0.5123  0.9501 -0.2693
  951MOL0     H28332   7.436   2.133   4.508  1.0830 -1.5081 -0.2649
  951MOL0     H28333   7.438   2.039   4.658  0.1391 -0.0558  0.4507
  951MOL0     H28334   7.475   2.334   4.671 -1.5262 -0.6331 -3.7519
  951MOL0     H28335   7.517   2.206   4.789  0.2480 -1.8568 -0.7125
  951MOL0     H28336   7.652   2.398   4.493 -2.9311 -1.6731  0.3621
  951MOL0     H28337   7.919   2.344   4.372 -1.9215 -1.5176  0.7386
  951MOL0     H28338   7.927   2.483   4.479  0.2036  1.0546  0.1779
  951MOL0     H28339   8.097   2.344   4.626 -3.9042  1.0600 -0.1074
  951MOL0     H28340   8.088   2.232   4.490  1.5486  0.3956 -1.5247
  951MOL0     H28341   8.143   2.537   4.441 -0.4215  0.2783 -1.5785
  951MOL0     H28342   8.175   2.407   4.330 -1.0239  3.7339 -1.4361
  951MOL0     H28343   8.349   2.306   4.481  0.7232  0.3240 -1.7434
  951MOL0     H28344   8.332   2.447   4.589  1.3926  0.1231  0.0396
  951MOL0     H28345   8.642   2.582   4.316  1.4681 -2.2358  0.5134
  951MOL0     H28346   8.746   2.531   4.100  0.6018 -1.6887  0.0075
  951MOL0     H28347   8.888   2.580   3.768  2.0949  1.5523 -1.1844
  951MOL0     H28348   8.972   2.592   3.529 -3.2013 -0.1211 -2.4193
  951MOL0     H28349   9.061   2.211   3.312  1.4026  1.4037  0.1692
  951MOL0     H28350   8.893   2.248   3.270 -0.1044 -0.2079  0.0085
  951MOL0     H28351   9.037   2.286   3.059  1.0943 -1.2733  1.3517
  951MOL0     H28352   8.976   2.437   3.125  2.6167  3.2834  3.0088
  951MOL0     H28353   9.167   2.508   3.191 -0.0708 -0.6027  0.1241
  951MOL0     H28354   9.244   2.346   3.210 -1.6788 -0.0762  1.9999
  951MOL0     H28355   9.218   2.538   2.971  2.7400  0.5049 -0.5256
  951MOL0     H28356   9.203   2.370   2.930 -2.1115  0.9623  0.4516
  951MOL0     H28357   9.420   2.341   3.067  0.3036 -0.6357 -0.7199
  951MOL0     H28358   9.422   2.524   3.072  0.2075  1.6642 -0.4372
  951MOL0     H28359   9.467   2.334   2.842  0.2658 -0.2448  0.2257
  951MOL0     H28360   9.446   2.512   2.822 -1.3737  0.9620  1.5020
  951MOL0     H28361   9.660   2.357   2.976  1.9217  0.3734 -1.7814
  951MOL0     H28362   9.656   2.528   2.994  0.6838 -0.9908  2.0059
  951MOL0     H28363   9.813   2.424   2.818  0.6152  0.6460 -1.2779
  951MOL0     H28364   9.669   2.370   2.722 -0.9413 -0.8860  0.2482
  951MOL0     H28365   8.918   2.166   3.493  1.2696 -0.8421 -0.4645
  951MOL0     H28366   8.774   2.185   3.708 -1.0020  1.8595  1.2322
  951MOL0     H28367   8.441   2.228   4.048 -0.9802  0.3339 -1.3256
  951MOL0     H28368   8.327   2.308   4.235 -0.8256 -0.1714  0.5562
  951MOL0     H28369   6.500   1.951   4.882 -1.6723 -2.0748 -0.2721
  951MOL0     H28370   6.304   1.947   4.744 -0.7773  2.4066 -3.6756
  951MOL0     H28371   6.007   1.794   4.460  0.5725  1.5626  0.7983
  951MOL0     H28372   5.846   1.725   4.339  0.5888  1.0282  1.0665
  951MOL0     H28373   5.664   1.746   4.182 -1.1243 -0.0475 -0.4356
  951MOL0     H28374   5.723   1.583   4.148 -0.5693  0.0992  0.2566
  951MOL0     H28375   5.534   1.596   4.023 -0.1042 -0.2436 -3.2249
  951MOL0     H28376   5.651   1.645   3.901 -0.0008 -0.2111 -0.8828
  951MOL0     H28377   5.577   1.883   3.970  3.5487 -2.6665  0.3888
  951MOL0     H28378   5.472   1.804   4.095  2.4909 -1.3452  2.1700
  951MOL0     H28379   5.369   1.886   3.855  0.4063  0.9854 -0.6193
  951MOL0     H28380   5.465   1.766   3.777 -0.8965 -1.2455  0.5024
  951MOL0     H28381   5.130   1.576   3.960  0.1969 -2.5080 -3.0045
  951MOL0     H28382   6.058   1.813   3.969  0.5882 -1.6960  0.1759
  951MOL0     H28383   6.287   1.876   3.978  1.7570 -1.2599  0.4922
  951MOL0     H28384   6.233   2.036   4.059 -2.2747 -0.4884  1.6071
  951MOL0     H28385   6.358   1.929   4.122  0.5706  2.6170 -1.3328
  952MOL0     O28386   1.981   1.990   0.778  0.4589  0.4247 -0.5221
  952MOL0     C28387   1.880   2.041   0.832 -0.6316  0.1716  1.2023
  952MOL0     O28388   1.770   2.073   0.753 -0.4990  0.1410  0.1733
  952MOL0     C28389   1.786   2.080   0.618 -0.8353 -0.0854  1.0761
  952MOL0     C28390   1.699   1.998   0.534 -0.5871  0.4456  0.0072
  952MOL0     C28391   1.694   2.017   0.390 -0.1865  0.2810 -0.2224
  952MOL0     C28392   1.759   2.125   0.335  0.0737 -0.3871 -0.3942
  952MOL0     O28393   1.754   2.168   0.203 -0.2397 -0.1500  0.0125
  952MOL0     C28394   1.672   2.096   0.116 -0.9877  0.3789 -0.5436
  952MOL0     C28395   1.655   2.195  -0.000  0.0163 -0.0139 -0.9611
  952MOL0     C28396   1.577   2.317   0.037 -0.0206  1.1601  0.4092
  952MOL0     C28397   1.544   2.380  -0.103 -0.7226 -0.4900 -0.0107
  952MOL0     C28398   1.407   2.336  -0.149 -0.2528  0.4311  1.1143
  952MOL0     C28399   1.351   2.398  -0.278  0.9221 -0.0617 -0.7904
  952MOL0     C28400   1.420   2.324  -0.397  0.2470 -1.0817 -0.3437
  952MOL0     C28401   1.388   2.399  -0.529 -0.9233  0.2985  0.4213
  952MOL0     N28402   1.496   2.368  -0.624 -0.6459 -0.2968 -0.6173
  952MOL0     C28403   1.598   2.448  -0.652 -1.6007  0.0046 -0.2528
  952MOL0     C28404   1.666   2.388  -0.752  0.6813  0.5380 -1.0103
  952MOL0     C28405   1.779   2.437  -0.832 -0.8069 -1.4467  0.3937
  952MOL0     C28406   1.901   2.461  -0.748  1.4258  0.1739 -0.2348
  952MOL0     C28407   2.025   2.510  -0.837  0.7253 -0.4632 -0.9811
  952MOL0     C28408   2.131   2.606  -0.768 -0.4200  0.6637  0.0894
  952MOL0     O28409   2.236   2.516  -0.730 -0.6202 -0.7353 -0.5790
  952MOL0     C28410   2.352   2.580  -0.679 -0.0196 -1.3420  0.2695
  952MOL0     C28411   2.460   2.497  -0.651 -0.3382 -0.2112 -0.1069
  952MOL0     C28412   2.589   2.551  -0.624 -0.6570  0.2403  0.6222
  952MOL0     C28413   2.619   2.683  -0.618  0.3286 -0.9754 -0.7128
  952MOL0     C28414   2.765   2.724  -0.608  0.4882  1.2038 -0.1421
  952MOL0     O28415   2.860   2.626  -0.594  0.1242 -0.5845 -0.0752
  952MOL0     C28416   2.988   2.670  -0.601 -0.4321 -0.2078 -0.2705
  952MOL0     C28417   3.069   2.629  -0.492  0.3120  0.2466  0.0735
  952MOL0     C28418   3.207   2.651  -0.482  0.3154 -0.5110  0.2445
  952MOL0     C28419   3.258   2.737  -0.579  0.0647  0.6072  0.2329
  952MOL0     O28420   3.388   2.777  -0.559 -0.4091 -0.1397  0.1807
  952MOL0     C28421   3.456   2.870  -0.649  0.7461  0.0162 -0.0487
  952MOL0     C28422   3.601   2.905  -0.606 -0.5840  0.3167 -0.4383
  952MOL0     C28423   3.653   3.022  -0.680  0.0960 -0.0404 -0.7491
  952MOL0     C28424   3.807   3.033  -0.642  0.0940 -0.0886 -0.4409
  952MOL0     C28425   3.864   3.137  -0.740 -0.1966  0.0550  0.0251
  952MOL0     C28426   4.012   3.148  -0.727  0.1468  0.0139  0.8066
  952MOL0     C28427   4.076   3.239  -0.841 -0.0061 -0.3339  0.5505
  952MOL0     C28428   4.027   3.207  -0.986 -0.1425  0.5632  0.1410
  952MOL0    Cl28429   4.033   3.035  -1.038  0.1208 -0.4221 -0.5439
  952MOL0     C28430   3.186   2.775  -0.698  0.3259 -0.5672  1.2559
  952MOL0     C28431   3.049   2.736  -0.712 -0.2696  0.3783 -0.6742
  952MOL0     O28432   2.788   2.848  -0.605  0.3079  0.9244  0.2140
  952MOL0     C28433   2.510   2.770  -0.643  0.0888 -0.1229 -0.6005
  952MOL0     C28434   2.381   2.720  -0.674  0.6505  0.0872 -0.3541
  952MOL0     N28435   1.605   2.269  -0.780  0.8447  0.1353  0.1758
  952MOL0     N28436   1.510   2.248  -0.693 -0.2113 -0.9030  0.2103
  952MOL0     C28437   1.841   2.203   0.418 -0.0490 -0.4406 -0.3585
  952MOL0     C28438   1.861   2.180   0.556 -0.0756  0.0245 -0.9684
  952MOL0     C28439   1.883   2.069   0.982 -0.0265 -0.3729  0.4320
  952MOL0     C28440   1.965   1.992   1.069 -0.7638 -0.4125 -0.0711
  952MOL0     C28441   1.980   2.035   1.198  0.0821 -0.0888  0.3737
  952MOL0     C28442   1.907   2.140   1.259 -0.3626 -1.5150 -0.1451
  952MOL0     O28443   1.911   2.179   1.389 -0.3939 -0.4396 -0.6080
  952MOL0     C28444   1.970   2.081   1.491 -0.1394  0.0717  0.6234
  952MOL0     C28445   1.874   1.962   1.503  0.2033  0.1497  0.2001
  952MOL0     C28446   1.732   1.997   1.534  0.3686 -0.1033  0.2661
  952MOL0     C28447   1.630   1.881   1.544 -0.8915 -0.0674 -1.0292
  952MOL0     C28448   1.684   1.793   1.655  1.5868  0.8181 -0.0777
  952MOL0     C28449   1.737   1.733   1.741 -0.6622 -0.3802  0.0212
  952MOL0     C28450   1.835   2.216   1.170  1.1050  0.1044  0.7004
  952MOL0     C28451   1.817   2.183   1.034 -0.9344  0.5668  0.2556
  952MOL0     C28452   1.719   2.271   0.957  0.4090  0.5108 -0.2571
  952MOL0     H28453   1.635   1.915   0.561  0.8662 -0.5044  0.7398
  952MOL0     H28454   1.627   1.954   0.332 -1.1141  1.3088 -0.3080
  952MOL0     H28455   1.717   2.000   0.091 -4.5334 -1.0768 -1.9153
  952MOL0     H28456   1.574   2.066   0.154  0.5548 -2.4580  1.6420
  952MOL0     H28457   1.618   2.140  -0.088  1.9257 -1.7953 -0.7263
  952MOL0     H28458   1.757   2.223  -0.027  1.0661 -2.5461  0.0508
  952MOL0     H28459   1.638   2.380   0.102  0.9349  0.4883  0.1942
  952MOL0     H28460   1.483   2.285   0.084  1.4969 -1.8585  1.7399
  952MOL0     H28461   1.536   2.489  -0.093 -2.2806 -0.5161 -0.6665
  952MOL0     H28462   1.622   2.352  -0.175  2.2232  3.6239  1.1819
  952MOL0     H28463   1.411   2.228  -0.166  1.0555  0.4808  1.0404
  952MOL0     H28464   1.346   2.348  -0.059  0.7642 -0.8545  2.0074
  952MOL0     H28465   1.243   2.395  -0.295  0.3589  0.5783  2.1276
  952MOL0     H28466   1.376   2.504  -0.271  1.9675 -0.4220  2.7829
  952MOL0     H28467   1.378   2.223  -0.402  1.4728 -1.5622 -4.5256
  952MOL0     H28468   1.528   2.328  -0.379  0.0133 -0.7409  1.1071
  952MOL0     H28469   1.296   2.371  -0.582 -3.0088  2.9488  2.3562
  952MOL0     H28470   1.377   2.505  -0.504  3.3990  1.0272 -0.0587
  952MOL0     H28471   1.648   2.536  -0.612 -0.4907 -0.7444  0.0653
  952MOL0     H28472   1.829   2.371  -0.904  3.7210  2.1746 -0.2528
  952MOL0     H28473   1.749   2.520  -0.896  0.7563 -0.0861  1.3473
  952MOL0     H28474   1.879   2.541  -0.676 -0.7965 -1.7835  1.4161
  952MOL0     H28475   1.934   2.373  -0.690 -0.6647 -0.3545  0.2254
  952MOL0     H28476   1.992   2.574  -0.919  3.9301  0.5990 -1.5985
  952MOL0     H28477   2.081   2.420  -0.864 -1.1129 -3.9439  4.9533
  952MOL0     H28478   2.086   2.659  -0.684 -2.2956 -1.9944  0.9015
  952MOL0     H28479   2.180   2.678  -0.834  3.3373  0.4357  2.3870
  952MOL0     H28480   2.443   2.392  -0.673  0.2895 -0.1566 -0.9262
  952MOL0     H28481   2.674   2.484  -0.616 -1.1077 -0.3510  0.5055
  952MOL0     H28482   3.022   2.580  -0.408 -1.6760  0.7934 -0.6546
  952MOL0     H28483   3.276   2.629  -0.401  2.6859 -2.4450 -2.1120
  952MOL0     H28484   3.465   2.825  -0.749  1.9382 -0.1426  0.1081
  952MOL0     H28485   3.405   2.966  -0.662  1.1329  0.3353  0.7794
  952MOL0     H28486   3.602   2.922  -0.498 -1.4421 -3.0897  0.2372
  952MOL0     H28487   3.670   2.820  -0.605  1.3800  1.7787  2.1403
  952MOL0     H28488   3.638   3.004  -0.787 -3.1791 -2.6162 -0.0314
  952MOL0     H28489   3.600   3.112  -0.648  3.1099  2.0241 -1.1759
  952MOL0     H28490   3.839   2.930  -0.658 -3.9684 -1.8953  1.6982
  952MOL0     H28491   3.823   3.062  -0.538  2.1282  0.8483 -0.9563
  952MOL0     H28492   3.814   3.233  -0.723 -0.8233 -0.3867  0.7390
  952MOL0     H28493   3.839   3.111  -0.843  3.2425 -0.8254 -0.6853
  952MOL0     H28494   4.032   3.191  -0.628  1.5893  1.5012 -0.0730
  952MOL0     H28495   4.053   3.047  -0.737  1.4952  0.2708  3.0218
  952MOL0     H28496   4.182   3.236  -0.813 -0.2363  3.5708  2.4332
  952MOL0     H28497   4.052   3.345  -0.830 -2.3727 -0.7597  0.1944
  952MOL0     H28498   3.925   3.245  -0.992  0.0416  1.3062  1.2991
  952MOL0     H28499   4.087   3.265  -1.056 -0.2878  1.9188  1.0928
  952MOL0     H28500   3.223   2.844  -0.773  1.4247 -0.8552  1.5183
  952MOL0     H28501   2.991   2.766  -0.799  3.3212 -1.5502 -4.0747
  952MOL0     H28502   2.531   2.876  -0.641  0.4781 -0.1983  0.9466
  952MOL0     H28503   2.299   2.788  -0.693  1.0292  0.3194 -1.2261
  952MOL0     H28504   1.897   2.280   0.367 -3.1939  3.9596  2.2043
  952MOL0     H28505   1.918   2.246   0.621 -1.2304  1.9698 -1.8517
  952MOL0     H28506   2.020   1.909   1.027  2.0287  0.9503  0.6790
  952MOL0     H28507   2.046   1.976   1.262  3.8161  1.0936 -2.0232
  952MOL0     H28508   1.977   2.136   1.585 -0.8055 -1.3622  1.5430
  952MOL0     H28509   2.078   2.069   1.477  0.2041  3.5294 -0.7192
  952MOL0     H28510   1.914   1.912   1.592 -0.1873  0.5934  0.6398
  952MOL0     H28511   1.889   1.901   1.414 -0.0478 -0.1978  0.3958
  952MOL0     H28512   1.698   2.065   1.455 -0.2454  0.4723  1.0138
  952MOL0     H28513   1.734   2.056   1.626  0.7948  2.4260 -1.2615
  952MOL0     H28514   1.529   1.922   1.557 -1.2218 -1.2168  0.2705
  952MOL0     H28515   1.629   1.827   1.449 -0.9898  2.0367 -2.2805
  952MOL0     H28516   1.791   1.672   1.811 -0.9046 -3.1948 -2.0402
  952MOL0     H28517   1.767   2.286   1.217  0.8682  1.1319 -1.0643
  952MOL0     H28518   1.694   2.360   1.015  2.5111  0.0136  1.5340
  952MOL0     H28519   1.756   2.293   0.856  0.0282  0.3630 -0.4314
  952MOL0     H28520   1.627   2.212   0.952  0.3414  0.4279  1.5951
  953MOL0     O28521   2.454   4.550   3.558  0.4357  0.4273  0.3944
  953MOL0     C28522   2.534   4.458   3.541  0.0821  0.0214 -0.6627
  953MOL0     O28523   2.502   4.333   3.493  0.3158  0.4539 -0.1541
  953MOL0     C28524   2.367   4.306   3.492  0.5431 -0.4322  0.6562
  953MOL0     C28525   2.305   4.252   3.379 -0.3080  0.1614 -0.6283
  953MOL0     C28526   2.165   4.232   3.386  0.5492  0.3556  0.0915
  953MOL0     C28527   2.084   4.272   3.495  0.1961 -0.6871  0.4952
  953MOL0     O28528   1.946   4.251   3.489  0.2436  0.2858  0.5040
  953MOL0     C28529   1.857   4.249   3.606  0.6321  0.1300 -0.2010
  953MOL0     C28530   1.717   4.173   3.589 -0.2554  0.3879 -0.5677
  953MOL0     C28531   1.651   4.109   3.713  0.2794  0.4416  0.7920
  953MOL0     C28532   1.518   4.040   3.670 -0.3416  0.4833 -0.6018
  953MOL0     C28533   1.447   3.990   3.795  0.4694 -0.2253  0.1086
  953MOL0     C28534   1.347   3.892   3.753  0.1192  0.4028  0.5358
  953MOL0     C28535   1.250   3.832   3.862  1.3019  0.5449 -0.7267
  953MOL0     C28536   1.320   3.794   3.997 -0.1716 -0.8978  0.2575
  953MOL0     N28537   1.220   3.758   4.096 -0.1811 -0.4309  0.0768
  953MOL0     C28538   1.182   3.846   4.193 -0.3658 -0.7041 -0.2812
  953MOL0     C28539   1.106   3.773   4.280  0.3155  0.8058 -0.8916
  953MOL0     C28540   1.063   3.807   4.422 -0.2020 -0.2401  1.3986
  953MOL0     C28541   1.143   3.935   4.470  0.2914 -0.8876  0.6951
  953MOL0     C28542   1.119   3.971   4.620 -0.5338 -0.0085  0.0024
  953MOL0     C28543   1.135   4.115   4.661 -0.0626 -0.4824 -0.4365
  953MOL0     O28544   1.047   4.188   4.578  0.2751 -0.1474  0.1309
  953MOL0     C28545   1.089   4.319   4.550 -0.8344  0.0145  0.1044
  953MOL0     C28546   1.042   4.386   4.429  0.1498 -0.2098 -0.2510
  953MOL0     C28547   1.089   4.513   4.388  0.4953  0.6457 -0.2259
  953MOL0     C28548   1.185   4.581   4.460  0.9082  0.1318 -0.1219
  953MOL0     C28549   1.245   4.698   4.405  0.0732 -1.8148 -0.4505
  953MOL0     O28550   1.326   4.762   4.494  0.5206  0.4512 -0.5560
  953MOL0     C28551   1.371   4.878   4.445 -0.0281  0.4760  0.1586
  953MOL0     C28552   1.318   4.993   4.508  0.0497  0.1096  0.7754
  953MOL0     C28553   1.363   5.115   4.466  0.4273 -0.4745  0.3850
  953MOL0     C28554   1.481   5.121   4.379 -0.1562 -1.2845 -0.4383
  953MOL0     O28555   1.537   5.243   4.340 -0.0246  0.1923 -0.1461
  953MOL0     C28556   1.617   5.306   4.440  0.1046 -0.2607 -0.5393
  953MOL0     C28557   1.708   5.214   4.510  0.0567  0.7720  1.2007
  953MOL0     C28558   1.827   5.290   4.574 -0.5285 -0.5964  1.4949
  953MOL0     C28559   1.917   5.188   4.631  1.1971  0.7308  0.6956
  953MOL0     C28560   2.037   5.260   4.683  0.7577 -0.6505 -0.6683
  953MOL0     C28561   2.132   5.283   4.565 -0.2383  0.8087 -0.2847
  953MOL0     C28562   2.242   5.386   4.591  0.7211 -0.0667 -0.0695
  953MOL0     C28563   2.341   5.326   4.687  0.6063  0.6141  0.2164
  953MOL0    Cl28564   2.497   5.425   4.731 -0.0186  0.5808 -0.1646
  953MOL0     C28565   1.539   5.014   4.321 -0.1553  0.1718 -0.1322
  953MOL0     C28566   1.481   4.889   4.353 -0.1212 -0.4881  0.0456
  953MOL0     O28567   1.237   4.716   4.285  0.3630  0.4509  0.0823
  953MOL0     C28568   1.223   4.522   4.584  0.4806 -0.5962  0.1447
  953MOL0     C28569   1.178   4.400   4.630  0.7402 -0.1401 -0.9564
  953MOL0     N28570   1.095   3.641   4.233  0.0407 -0.0441 -1.0083
  953MOL0     N28571   1.160   3.637   4.123  0.7236  0.0164 -0.2006
  953MOL0     C28572   2.149   4.321   3.601  0.3076  0.5773 -0.1288
  953MOL0     C28573   2.284   4.331   3.609 -0.0995  0.0298  0.2258
  953MOL0     C28574   2.661   4.495   3.589 -0.6852 -0.0539  1.2784
  953MOL0     C28575   2.708   4.624   3.556 -0.0173 -0.3833 -0.7125
  953MOL0     C28576   2.835   4.668   3.606  0.6739 -0.3264 -0.2041
  953MOL0     C28577   2.921   4.582   3.679  0.1575  0.0163 -0.0750
  953MOL0     O28578   3.032   4.629   3.744 -0.6666 -0.3428  0.1285
  953MOL0     C28579   3.120   4.557   3.832  0.7243  0.0621  0.0762
  953MOL0     C28580   3.238   4.647   3.872  1.2272  0.5186 -0.0524
  953MOL0     C28581   3.187   4.759   3.956 -0.0847  0.1583 -0.5001
  953MOL0     C28582   3.313   4.847   3.998  0.1848 -0.8467  0.5196
  953MOL0     C28583   3.411   4.779   4.080  0.0563 -0.1029  0.1297
  953MOL0     C28584   3.479   4.734   4.174 -0.3338  0.0460  0.1112
  953MOL0     C28585   2.877   4.452   3.695  0.7148  0.4234 -0.0973
  953MOL0     C28586   2.752   4.402   3.655  0.2535  0.0087 -0.2883
  953MOL0     C28587   2.719   4.258   3.691 -0.3589 -0.4151 -0.4061
  953MOL0     H28588   2.361   4.230   3.289  1.7658 -1.0779  0.8804
  953MOL0     H28589   2.114   4.191   3.300  0.9966  1.4368 -0.7098
  953MOL0     H28590   1.910   4.199   3.688  1.0004 -1.2523 -1.2556
  953MOL0     H28591   1.837   4.354   3.629  0.8926  0.3210 -0.8202
  953MOL0     H28592   1.716   4.091   3.517 -0.1214  1.0817 -1.3818
  953MOL0     H28593   1.654   4.250   3.543 -1.4912  0.9056  1.8338
  953MOL0     H28594   1.634   4.188   3.787 -1.6223  1.4956 -0.6742
  953MOL0     H28595   1.719   4.036   3.757  0.8771 -0.3631 -1.3508
  953MOL0     H28596   1.456   4.115   3.619  1.4631  1.1395 -1.9673
  953MOL0     H28597   1.536   3.958   3.600  1.6664 -0.7754  1.2521
  953MOL0     H28598   1.515   3.939   3.865 -2.3190 -0.5873  2.7652
  953MOL0     H28599   1.406   4.079   3.843  1.8021  1.3157 -1.4826
  953MOL0     H28600   1.289   3.932   3.670 -0.1862 -2.6310 -0.8636
  953MOL0     H28601   1.394   3.802   3.710  0.5746  2.0284 -2.6549
  953MOL0     H28602   1.198   3.746   3.818  0.5177 -1.4805  3.6358
  953MOL0     H28603   1.181   3.914   3.885 -0.2362 -0.2058 -2.4687
  953MOL0     H28604   1.381   3.707   3.972 -0.0302 -0.4954 -0.8191
  953MOL0     H28605   1.384   3.877   4.028 -1.6276  0.9468 -1.4138
  953MOL0     H28606   1.221   3.945   4.213  4.7983 -1.7698 -3.3331
  953MOL0     H28607   0.956   3.832   4.427  0.3741  2.8371  0.4458
  953MOL0     H28608   1.069   3.724   4.493 -0.2164 -1.2803  0.2302
  953MOL0     H28609   1.252   3.932   4.467  0.5445  3.0064 -1.7635
  953MOL0     H28610   1.096   4.003   4.398  0.2899 -2.0873 -0.4650
  953MOL0     H28611   1.191   3.909   4.674 -0.3303 -0.8941 -1.2380
  953MOL0     H28612   1.018   3.941   4.652 -1.2149  1.0544 -1.0410
  953MOL0     H28613   1.243   4.134   4.650  1.5492 -6.9996 -0.1665
  953MOL0     H28614   1.114   4.125   4.768  0.8793 -1.9076 -0.0964
  953MOL0     H28615   0.964   4.334   4.374 -2.7507  1.7007  1.7629
  953MOL0     H28616   1.052   4.558   4.297 -1.7331 -0.3718  0.1149
  953MOL0     H28617   1.238   4.992   4.582  0.6131 -1.9288  1.4292
  953MOL0     H28618   1.299   5.198   4.493 -1.3058 -1.7333  0.3399
  953MOL0     H28619   1.659   5.400   4.402 -3.8370  1.8177 -0.3071
  953MOL0     H28620   1.546   5.352   4.510 -1.1897 -2.1339 -0.5618
  953MOL0     H28621   1.653   5.172   4.596  0.8559  3.3131  3.0797
  953MOL0     H28622   1.738   5.137   4.438 -3.8689 -1.0962  1.2774
  953MOL0     H28623   1.875   5.326   4.482  0.2267 -3.5474  0.6210
  953MOL0     H28624   1.798   5.372   4.641 -2.1662  0.9847 -0.9359
  953MOL0     H28625   1.942   5.108   4.561  0.8074  0.1990  1.1543
  953MOL0     H28626   1.866   5.141   4.716  2.3392  1.4926  1.8566
  953MOL0     H28627   2.090   5.209   4.764 -0.1777  3.5703  2.9143
  953MOL0     H28628   2.003   5.360   4.710 -1.7930 -1.6689  0.1575
  953MOL0     H28629   2.174   5.186   4.540  1.6341  2.1291 -2.6554
  953MOL0     H28630   2.082   5.305   4.470 -0.9819 -4.5433 -1.4186
  953MOL0     H28631   2.199   5.481   4.624 -1.6144 -0.3455 -1.9984
  953MOL0     H28632   2.290   5.403   4.494  3.5357  0.6643  1.3697
  953MOL0     H28633   2.285   5.309   4.779 -0.3601 -0.9193 -0.6118
  953MOL0     H28634   2.371   5.227   4.652  2.5947  0.4677  2.1184
  953MOL0     H28635   1.622   5.024   4.251 -1.0539 -1.8426 -1.5791
  953MOL0     H28636   1.531   4.802   4.311  3.8404  0.8644  1.5837
  953MOL0     H28637   1.290   4.578   4.648 -1.2246  1.5185  0.1958
  953MOL0     H28638   1.229   4.354   4.714 -1.0513 -2.4941 -1.0419
  953MOL0     H28639   2.092   4.353   3.688  0.6634 -2.7402  1.4451
  953MOL0     H28640   2.329   4.358   3.704 -2.4881 -4.3486  2.9330
  953MOL0     H28641   2.652   4.695   3.495  0.5070  2.0774  1.4725
  953MOL0     H28642   2.865   4.769   3.578 -0.9201  0.6796  1.5108
  953MOL0     H28643   3.150   4.465   3.781 -1.2973 -1.0693  0.7957
  953MOL0     H28644   3.081   4.529   3.931  1.3296 -0.5660  0.1490
  953MOL0     H28645   3.292   4.677   3.781  2.1729 -1.4007 -0.1799
  953MOL0     H28646   3.304   4.577   3.924  0.3946  0.6450  1.2069
  953MOL0     H28647   3.132   4.715   4.040  0.8420 -0.8952 -0.4227
  953MOL0     H28648   3.124   4.824   3.894 -2.0625 -0.0740  1.1489
  953MOL0     H28649   3.354   4.885   3.904  1.7597 -0.3965  1.3599
  953MOL0     H28650   3.281   4.939   4.047 -0.9850 -1.0431  0.1643
  953MOL0     H28651   3.533   4.692   4.257 -0.7607  1.4275  1.1288
  953MOL0     H28652   2.941   4.384   3.749  1.4101  1.8807  0.9616
  953MOL0     H28653   2.705   4.187   3.609  3.3159 -1.6844 -0.1415
  953MOL0     H28654   2.795   4.226   3.763  0.2538 -0.4148 -1.0471
  953MOL0     H28655   2.628   4.264   3.751  1.0621  2.2090  1.6879
  954MOL0     O28656   4.422   9.854  10.123 -0.0983 -0.0265 -0.4372
  954MOL0     C28657   4.400   9.820  10.010  0.3843 -0.3970  0.9387
  954MOL0     O28658   4.453   9.714   9.946  0.7342 -0.5151  0.0433
  954MOL0     C28659   4.581   9.682   9.966 -0.5168  0.6191 -0.5455
  954MOL0     C28660   4.600   9.543   9.990 -0.6287 -0.7237 -0.3428
  954MOL0     C28661   4.733   9.490   9.998  0.7142  0.6585  0.5202
  954MOL0     C28662   4.847   9.570   9.986 -0.3001 -0.1373 -0.2422
  954MOL0     O28663   4.974   9.526   9.982 -0.1303  0.0336  0.2607
  954MOL0     C28664   5.001   9.392  10.005  0.4982 -0.2432  0.7001
  954MOL0     C28665   5.148   9.374  10.013 -0.6368 -0.0568  0.3157
  954MOL0     C28666   5.175   9.244  10.076 -0.3558  0.0704  0.2196
  954MOL0     C28667   5.326   9.241  10.103 -0.4338  0.1629  0.5779
  954MOL0     C28668   5.376   9.089  10.105 -0.6435 -0.1895  0.0901
  954MOL0     C28669   5.521   9.087  10.160 -0.5918 -0.0634 -0.5051
  954MOL0     C28670   5.579   8.946  10.178 -0.3750 -0.2039 -0.4155
  954MOL0     C28671   5.684   8.955  10.287  0.9206 -0.3900  0.4268
  954MOL0     N28672   5.759   8.831  10.299 -0.2189  0.0830 -0.6088
  954MOL0     C28673   5.731   8.711  10.352  0.7568 -0.2217 -0.4147
  954MOL0     C28674   5.846   8.647  10.352 -0.7255 -0.4138  1.0918
  954MOL0     C28675   5.859   8.501  10.379 -0.9198  1.0539 -1.0041
  954MOL0     C28676   5.968   8.468  10.478  0.8425 -0.0980  0.7775
  954MOL0     C28677   5.956   8.328  10.518  1.0407 -0.3541  0.1104
  954MOL0     C28678   6.012   8.277  10.646 -0.0731 -0.6676  0.6144
  954MOL0     O28679   6.024   8.138  10.643  1.1614 -0.5469 -0.6015
  954MOL0     C28680   5.916   8.068  10.675 -0.1414  0.1707 -0.1497
  954MOL0     C28681   5.842   8.100  10.787 -0.3080  0.1198  0.4567
  954MOL0     C28682   5.723   8.031  10.820  0.6848  0.9158  0.3267
  954MOL0     C28683   5.687   7.912  10.749  0.8798 -0.7898 -0.3786
  954MOL0     C28684   5.570   7.821  10.793 -0.9890  0.3924  0.2112
  954MOL0     O28685   5.556   7.700  10.738  0.0187  0.6452  0.4562
  954MOL0     C28686   5.470   7.613  10.800 -0.1552 -0.7194 -0.9760
  954MOL0     C28687   5.511   7.486  10.853 -0.1177  0.0908  0.7701
  954MOL0     C28688   5.415   7.393  10.892 -0.3657 -0.5059  0.0989
  954MOL0     C28689   5.280   7.426  10.914 -0.4078  0.3700  0.1622
  954MOL0     O28690   5.188   7.339  10.972  0.6409 -0.2393 -0.3880
  954MOL0     C28691   5.227   7.280  11.097  0.2893 -0.0083 -0.1696
  954MOL0     C28692   5.101   7.269  11.192 -0.3977 -0.0034 -0.1015
  954MOL0     C28693   4.991   7.182  11.130 -0.0304  0.4634 -0.0452
  954MOL0     C28694   5.005   7.024  11.136  0.4766 -0.1146  0.3120
  954MOL0     C28695   4.895   6.965  11.040 -0.1585 -0.4498  0.8087
  954MOL0     C28696   4.933   6.983  10.887  0.9135 -0.0691 -0.0477
  954MOL0     C28697   4.839   6.912  10.794  0.1973  0.0519  0.2250
  954MOL0     C28698   4.696   6.953  10.816 -0.4375  0.1065  0.3319
  954MOL0    Cl28699   4.592   6.919  10.669  0.0437 -0.1748  0.1746
  954MOL0     C28700   5.241   7.552  10.870  0.6367  0.4746 -0.3505
  954MOL0     C28701   5.334   7.640  10.805 -0.3848 -0.3589 -0.5509
  954MOL0     O28702   5.500   7.864  10.887 -0.0670  0.3405  0.1376
  954MOL0     C28703   5.767   7.878  10.638  0.5342 -0.3244  0.3262
  954MOL0     C28704   5.879   7.943  10.605  0.3298 -0.0686 -0.1655
  954MOL0     N28705   5.951   8.725  10.293 -0.1149 -0.3821 -0.2558
  954MOL0     N28706   5.897   8.843  10.284  0.4285  0.0931  0.3369
  954MOL0     C28707   4.824   9.707   9.959  0.6308 -0.3322 -0.0424
  954MOL0     C28708   4.697   9.761   9.958  0.1037  0.7408  0.9194
  954MOL0     C28709   4.300   9.899   9.928 -1.0236  0.5524 -0.5058
  954MOL0     C28710   4.211   9.985   9.998  0.7409  0.5163 -0.1498
  954MOL0     C28711   4.116  10.063   9.944  0.4154 -0.3962  1.1141
  954MOL0     C28712   4.087  10.062   9.808 -0.0428  0.1066 -0.0874
  954MOL0     O28713   3.983  10.120   9.746 -0.1092 -0.3541 -0.5170
  954MOL0     C28714   3.906  10.205   9.831 -0.2658  0.3583 -0.3854
  954MOL0     C28715   3.831  10.299   9.745  1.3263  0.5478  0.3007
  954MOL0     C28716   3.724  10.355   9.830  0.6207 -0.4201  0.6956
  954MOL0     C28717   3.648  10.477   9.771 -0.0778 -0.6076  0.7478
  954MOL0     C28718   3.551  10.544   9.862  0.0415  0.2698  0.4793
  954MOL0     C28719   3.482  10.588   9.954 -0.0122  0.3098 -0.1955
  954MOL0     C28720   4.176   9.983   9.732 -0.2163  0.6673  0.2064
  954MOL0     C28721   4.275   9.901   9.786 -0.5284  0.0847 -0.0330
  954MOL0     C28722   4.360   9.832   9.689 -0.6835  0.1905  0.5600
  954MOL0     H28723   4.508   9.485   9.992 -1.9773  1.3131  0.4631
  954MOL0     H28724   4.741   9.382  10.013 -0.8945  0.4566  0.1646
  954MOL0     H28725   4.953   9.350  10.094  0.0920  0.1607  0.6758
  954MOL0     H28726   4.959   9.330   9.925 -1.4531 -0.7753  2.0659
  954MOL0     H28727   5.195   9.450  10.076  2.0986 -2.6081  1.5923
  954MOL0     H28728   5.195   9.384   9.915  1.5450  3.4598  1.5435
  954MOL0     H28729   5.143   9.157  10.018  0.4596 -0.7139  0.9195
  954MOL0     H28730   5.121   9.235  10.170  0.4990 -0.3263  0.6821
  954MOL0     H28731   5.384   9.288  10.023  0.9734 -2.0046  0.2415
  954MOL0     H28732   5.354   9.287  10.199  4.6316  1.7442 -1.2949
  954MOL0     H28733   5.306   9.037  10.172 -0.2719 -0.1563  0.5075
  954MOL0     H28734   5.378   9.038  10.009  3.4910  0.9036 -0.5903
  954MOL0     H28735   5.582   9.151  10.095  2.6884  0.1069  2.4410
  954MOL0     H28736   5.534   9.140  10.255  3.2039  0.5874 -1.2341
  954MOL0     H28737   5.633   8.901  10.094 -0.6049 -1.4947  0.1012
  954MOL0     H28738   5.505   8.870  10.203 -1.7078  0.7293 -1.3393
  954MOL0     H28739   5.757   9.035  10.268  1.5156 -0.9986  0.1046
  954MOL0     H28740   5.622   8.967  10.376 -1.5893 -1.0917 -1.1123
  954MOL0     H28741   5.632   8.674  10.376  0.9138 -0.6160 -0.3522
  954MOL0     H28742   5.768   8.461  10.423  1.1906 -3.1051  0.0283
  954MOL0     H28743   5.871   8.460  10.279 -0.1871 -2.4292  0.3933
  954MOL0     H28744   6.068   8.504  10.449  1.0133 -1.5481 -0.5561
  954MOL0     H28745   5.952   8.522  10.572  1.3036  0.9795  0.2584
  954MOL0     H28746   5.992   8.266  10.435  0.8177 -0.2612 -0.0559
  954MOL0     H28747   5.848   8.317  10.529  0.5215  2.5806 -1.0421
  954MOL0     H28748   5.953   8.324  10.724  0.0520 -1.3166  1.1058
  954MOL0     H28749   6.111   8.322  10.654  0.1464 -1.0626  0.2051
  954MOL0     H28750   5.855   8.185  10.853  0.0152  1.1158 -0.8794
  954MOL0     H28751   5.675   8.084  10.902 -0.8740  2.5930 -1.5555
  954MOL0     H28752   5.616   7.462  10.841 -0.2669 -0.8400  1.2930
  954MOL0     H28753   5.439   7.292  10.926 -0.9644 -0.5836  0.2916
  954MOL0     H28754   5.276   7.186  11.069 -1.9591 -0.8054 -1.7091
  954MOL0     H28755   5.303   7.345  11.141  2.5628 -2.4564 -0.1929
  954MOL0     H28756   5.119   7.228  11.292 -1.3870 -1.1822 -0.3857
  954MOL0     H28757   5.061   7.369  11.210  1.4608  0.2833  3.3076
  954MOL0     H28758   4.896   7.220  11.168 -0.6727  2.5183 -3.2822
  954MOL0     H28759   4.990   7.210  11.024 -0.1199  1.8690  0.3102
  954MOL0     H28760   4.972   6.991  11.235  1.0149  0.3486  0.6550
  954MOL0     H28761   5.106   6.993  11.109  0.5912  1.0428 -0.7251
  954MOL0     H28762   4.803   7.024  11.048  0.9206  2.0875 -2.8955
  954MOL0     H28763   4.879   6.859  11.063  0.4096 -1.3735 -2.6176
  954MOL0     H28764   4.921   7.088  10.860 -1.0668  0.0477  1.0681
  954MOL0     H28765   5.038   6.956  10.869  0.1043 -2.5994 -1.4559
  954MOL0     H28766   4.848   6.803  10.799 -0.1193 -0.1496 -2.2933
  954MOL0     H28767   4.874   6.947  10.697  0.0979 -0.1681  0.1073
  954MOL0     H28768   4.657   6.899  10.903 -0.5358  0.5385  0.5582
  954MOL0     H28769   4.702   7.061  10.830  3.3660 -0.0583  1.1685
  954MOL0     H28770   5.135   7.571  10.867 -0.6448 -4.9913 -1.3533
  954MOL0     H28771   5.299   7.720  10.740  4.9210  0.8563 -2.4670
  954MOL0     H28772   5.723   7.805  10.571 -2.0886  1.1619  0.3040
  954MOL0     H28773   5.945   7.915  10.524  1.6356  0.2990  0.7491
  954MOL0     H28774   4.908   9.774   9.946  0.7236 -0.1231  1.4976
  954MOL0     H28775   4.680   9.868   9.945 -0.6463  0.4637 -0.6206
  954MOL0     H28776   4.242  10.021  10.096  2.2952 -1.5612  0.1918
  954MOL0     H28777   4.069  10.125  10.019  1.8057  1.6591  0.3653
  954MOL0     H28778   3.966  10.257   9.907  0.0503  1.7590 -1.5445
  954MOL0     H28779   3.835  10.138   9.880 -1.2221  0.8525 -1.0837
  954MOL0     H28780   3.781  10.247   9.662 -2.2684  0.3618  2.3406
  954MOL0     H28781   3.901  10.366   9.695  1.7236 -1.2920 -1.7624
  954MOL0     H28782   3.752  10.373   9.935 -0.8841  1.1328  0.8690
  954MOL0     H28783   3.646  10.280   9.845 -0.5635  0.7582  0.6311
  954MOL0     H28784   3.730  10.544   9.741 -0.8211  0.8142  1.7521
  954MOL0     H28785   3.583  10.449   9.687  3.5332  0.7654 -2.8555
  954MOL0     H28786   3.418  10.622  10.032  1.8203 -0.3309  1.6801
  954MOL0     H28787   4.168   9.987   9.624  1.5837  1.3988  0.0738
  954MOL0     H28788   4.368   9.876   9.589  0.6427  0.1964  0.6596
  954MOL0     H28789   4.464   9.825   9.720  0.3844  2.9792 -1.9084
  954MOL0     H28790   4.306   9.737   9.693  1.3637 -0.9578  2.0232
  955MOL0     O28791   1.281   1.043   1.671  0.0265  0.2130 -0.2501
  955MOL0     C28792   1.301   1.011   1.787  0.2000  0.5645 -0.0844
  955MOL0     O28793   1.205   0.971   1.872 -0.0319  0.2210 -0.2394
  955MOL0     C28794   1.075   0.956   1.856  0.1488 -0.4667  0.0078
  955MOL0     C28795   1.014   0.856   1.935 -0.3226  0.8698 -0.3959
  955MOL0     C28796   0.874   0.830   1.931 -0.9919 -0.2198 -0.3381
  955MOL0     C28797   0.789   0.908   1.846  0.6165  0.2123  0.8225
  955MOL0     O28798   0.646   0.883   1.846  0.0910  0.2355 -0.4168
  955MOL0     C28799   0.558   0.942   1.744 -1.3498  0.6701  0.0884
  955MOL0     C28800   0.415   0.898   1.772  0.8151  0.1616 -0.0886
  955MOL0     C28801   0.358   0.964   1.894 -0.2544 -0.1678  0.7582
  955MOL0     C28802   0.359   0.889   2.027 -1.3923  0.3504  0.6528
  955MOL0     C28803   0.374   0.988   2.139 -0.1208 -0.4934 -0.2852
  955MOL0     C28804   0.321   0.933   2.271  0.5939 -0.2792 -1.5271
  955MOL0     C28805   0.180   0.880   2.279  0.3630 -0.3658  0.6585
  955MOL0     C28806   0.089   0.982   2.227 -0.3111  0.2133  0.9344
  955MOL0     N28807  -0.046   0.918   2.214 -0.6161  0.1388 -0.4950
  955MOL0     C28808  -0.134   0.871   2.312 -0.5879 -0.6832 -0.3067
  955MOL0     C28809  -0.241   0.810   2.256  0.5025 -0.0688 -0.7457
  955MOL0     C28810  -0.365   0.754   2.331 -0.1198 -0.1784  0.5564
  955MOL0     C28811  -0.325   0.657   2.442 -0.6429  0.6400 -0.1253
  955MOL0     C28812  -0.237   0.540   2.391 -0.4292 -0.1959 -0.5052
  955MOL0     C28813  -0.199   0.451   2.516 -0.3691 -0.2432  0.3169
  955MOL0     O28814  -0.084   0.373   2.497  0.3268  0.4705  0.2936
  955MOL0     C28815   0.038   0.438   2.496  0.1598 -0.2895  0.3144
  955MOL0     C28816   0.145   0.379   2.427 -0.0857  0.4155 -0.2227
  955MOL0     C28817   0.274   0.443   2.422 -0.7843  0.2400  0.0165
  955MOL0     C28818   0.298   0.565   2.485  0.5594  0.4615  0.1367
  955MOL0     C28819   0.428   0.639   2.485 -0.4494  0.1360  0.2185
  955MOL0     O28820   0.516   0.605   2.389 -0.1502 -0.2653  0.7545
  955MOL0     C28821   0.642   0.665   2.399 -0.5090  0.6043  0.4732
  955MOL0     C28822   0.727   0.651   2.500  0.2993 -0.1337  0.1073
  955MOL0     C28823   0.840   0.731   2.508  0.1384 -0.0441 -0.2840
  955MOL0     C28824   0.889   0.804   2.398 -1.2142  0.8213 -0.3261
  955MOL0     O28825   1.005   0.883   2.386  0.3860 -0.7597 -0.8271
  955MOL0     C28826   1.112   0.835   2.465 -0.1853  0.6326 -0.5930
  955MOL0     C28827   1.248   0.858   2.388 -0.4027 -0.3677 -0.2038
  955MOL0     C28828   1.377   0.793   2.444 -0.3485  0.5039 -0.2087
  955MOL0     C28829   1.484   0.879   2.376 -0.8371 -0.0968 -0.1619
  955MOL0     C28830   1.621   0.820   2.418 -0.0902 -0.1547  0.0591
  955MOL0     C28831   1.735   0.920   2.377 -0.5325  0.5631 -0.2566
  955MOL0     C28832   1.863   0.839   2.348  0.4584  0.1167 -1.3148
  955MOL0     C28833   1.965   0.919   2.263 -0.0983  0.4676  0.2130
  955MOL0    Cl28834   2.126   0.935   2.343  0.3714  0.4935  0.4487
  955MOL0     C28835   0.809   0.802   2.291  0.2011  0.5621 -0.2344
  955MOL0     C28836   0.685   0.743   2.290  0.2788  1.0880 -0.3765
  955MOL0     O28837   0.446   0.732   2.561  0.1378  0.3093  0.9354
  955MOL0     C28838   0.186   0.622   2.556  0.1405  0.4962  0.0329
  955MOL0     C28839   0.064   0.562   2.568  0.5343 -0.5419 -0.5819
  955MOL0     N28840  -0.217   0.835   2.121 -0.2593 -0.9223  0.5117
  955MOL0     N28841  -0.106   0.901   2.100 -0.3043 -0.8031  0.6062
  955MOL0     C28842   0.847   0.992   1.758  0.7991 -0.1757 -0.2755
  955MOL0     C28843   0.983   1.027   1.766 -0.0650  0.1239 -0.4375
  955MOL0     C28844   1.438   0.983   1.819 -0.8842  0.7616 -0.0146
  955MOL0     C28845   1.519   0.926   1.714  0.7278  0.3346 -0.8850
  955MOL0     C28846   1.645   0.883   1.741 -0.8525 -0.6687 -0.5092
  955MOL0     C28847   1.706   0.902   1.863 -0.3054  0.1154 -0.0178
  955MOL0     O28848   1.838   0.883   1.895 -0.0814 -0.7476  0.2216
  955MOL0     C28849   1.922   0.978   1.817  0.7423  0.4043  0.2782
  955MOL0     C28850   2.056   0.924   1.751 -0.3549 -0.0377  0.4862
  955MOL0     C28851   2.156   1.022   1.684 -0.5298  0.8897 -0.2172
  955MOL0     C28852   2.259   1.076   1.784 -0.4264 -0.8018 -0.3463
  955MOL0     C28853   2.204   1.114   1.914 -1.0974  0.1724  0.2285
  955MOL0     C28854   2.168   1.142   2.018  0.0072  0.0451 -0.0982
  955MOL0     C28855   1.631   0.950   1.962 -0.1330  0.9584 -1.0025
  955MOL0     C28856   1.501   0.990   1.950  0.0046  0.1814 -0.1151
  955MOL0     C28857   1.420   1.057   2.062 -0.0081 -0.0179 -0.3180
  955MOL0     H28858   1.074   0.804   2.008 -1.0810 -1.9458 -1.6589
  955MOL0     H28859   0.835   0.760   2.004  1.5483 -0.9579  0.4254
  955MOL0     H28860   0.543   1.050   1.741  2.2060  1.2459 -1.8381
  955MOL0     H28861   0.599   0.908   1.649  2.9190 -0.5722  2.1397
  955MOL0     H28862   0.416   0.791   1.795 -0.1763 -0.0832 -1.1065
  955MOL0     H28863   0.354   0.913   1.683  0.2512  0.7817  0.3914
  955MOL0     H28864   0.251   0.980   1.878 -0.2115  0.6766  1.2071
  955MOL0     H28865   0.410   1.059   1.912  2.2817 -0.9406 -1.8100
  955MOL0     H28866   0.257   0.849   2.034 -1.5817  1.0099  1.7427
  955MOL0     H28867   0.445   0.822   2.022 -0.1621  1.7596  2.2623
  955MOL0     H28868   0.480   1.008   2.157 -0.7025  3.3481 -0.4147
  955MOL0     H28869   0.332   1.087   2.118 -0.3488 -0.2582  1.1823
  955MOL0     H28870   0.393   0.857   2.304 -0.9326 -0.4304  1.9031
  955MOL0     H28871   0.322   1.012   2.347 -1.8534  1.7384 -3.4204
  955MOL0     H28872   0.153   0.854   2.382 -2.8271  1.6393  0.4916
  955MOL0     H28873   0.179   0.795   2.211  1.5113  2.5968 -3.4929
  955MOL0     H28874   0.081   1.071   2.290  0.8902  1.1864 -0.2347
  955MOL0     H28875   0.121   1.015   2.128  4.0685 -2.3953  1.2179
  955MOL0     H28876  -0.125   0.862   2.420  3.0067  2.9386 -0.0486
  955MOL0     H28877  -0.433   0.834   2.362  0.3171  0.9942 -1.3587
  955MOL0     H28878  -0.419   0.686   2.265  0.0455 -1.3619  1.5830
  955MOL0     H28879  -0.270   0.708   2.521  1.0835 -1.2387 -0.0181
  955MOL0     H28880  -0.420   0.623   2.485 -1.2276  1.2735 -0.9018
  955MOL0     H28881  -0.149   0.588   2.346 -0.2259  0.8387  0.9340
  955MOL0     H28882  -0.281   0.480   2.311  0.6029  1.7806 -2.6825
  955MOL0     H28883  -0.283   0.387   2.542  0.7437 -2.8531 -2.0617
  955MOL0     H28884  -0.179   0.516   2.603 -2.7465 -0.0116  0.7592
  955MOL0     H28885   0.123   0.286   2.376 -0.7741  1.3857 -1.7502
  955MOL0     H28886   0.349   0.383   2.371  0.2901  0.6902  1.0179
  955MOL0     H28887   0.717   0.579   2.581 -0.7475  1.2035  1.2247
  955MOL0     H28888   0.897   0.723   2.600 -2.4361  0.5814  1.4756
  955MOL0     H28889   1.118   0.892   2.558  1.8138  0.0838 -0.3546
  955MOL0     H28890   1.097   0.727   2.471 -0.6500  0.6594 -1.1168
  955MOL0     H28891   1.223   0.833   2.284  0.7626 -1.2627 -0.2945
  955MOL0     H28892   1.257   0.966   2.378 -1.3894 -0.2988 -0.5079
  955MOL0     H28893   1.373   0.807   2.552 -1.0634 -0.8092 -0.0441
  955MOL0     H28894   1.394   0.693   2.402  1.0338  0.4549  0.3927
  955MOL0     H28895   1.477   0.985   2.400 -0.6546  0.4741 -2.4159
  955MOL0     H28896   1.480   0.863   2.268  0.5654  0.0013 -0.2489
  955MOL0     H28897   1.633   0.724   2.367  0.0021  2.3754 -5.4797
  955MOL0     H28898   1.626   0.809   2.526  1.8517 -0.4967 -0.0402
  955MOL0     H28899   1.711   0.971   2.283  0.1053  1.3657  0.0013
  955MOL0     H28900   1.751   0.986   2.463 -2.1151 -0.1500  0.6358
  955MOL0     H28901   1.843   0.739   2.310  0.1086 -0.5452  0.5440
  955MOL0     H28902   1.900   0.845   2.450  0.2538  1.6721 -1.3028
  955MOL0     H28903   1.978   0.866   2.169  0.7408  1.2629 -0.1328
  955MOL0     H28904   1.923   1.017   2.238  0.4552  0.6674  0.0513
  955MOL0     H28905   0.842   0.855   2.202 -1.0602  0.0520 -1.0229
  955MOL0     H28906   0.617   0.764   2.208 -0.0254  0.0193 -0.4046
  955MOL0     H28907   0.202   0.709   2.618 -0.3269 -0.6889  1.8809
  955MOL0     H28908  -0.013   0.612   2.626  0.2332 -1.4479 -0.1806
  955MOL0     H28909   0.785   1.042   1.684 -1.6351 -1.8234  0.5518
  955MOL0     H28910   1.027   1.107   1.708 -0.5929 -0.1095 -1.1898
  955MOL0     H28911   1.473   0.897   1.620  3.8476 -0.4251 -2.2914
  955MOL0     H28912   1.716   0.849   1.667  2.1547  0.9319  1.4464
  955MOL0     H28913   1.941   1.058   1.889 -4.6978 -0.3048  3.0391
  955MOL0     H28914   1.860   1.017   1.736 -0.7532  0.0484  1.2236
  955MOL0     H28915   2.017   0.857   1.674  2.7681  0.7972 -2.0475
  955MOL0     H28916   2.102   0.861   1.828 -1.6189  0.9346  2.0943
  955MOL0     H28917   2.102   1.109   1.645  1.1995  1.3387 -1.8014
  955MOL0     H28918   2.206   0.981   1.595  0.0776 -2.3267  1.4657
  955MOL0     H28919   2.339   1.002   1.794 -0.0539 -0.3270  0.3562
  955MOL0     H28920   2.306   1.170   1.753 -2.2290 -0.1379 -1.1706
  955MOL0     H28921   2.143   1.163   2.120 -1.3826  0.0813 -0.4242
  955MOL0     H28922   1.676   0.970   2.058 -1.1916 -2.9954  0.4898
  955MOL0     H28923   1.468   1.060   2.161 -1.2776 -2.9964  0.5138
  955MOL0     H28924   1.391   1.157   2.029  0.8408  0.4462  0.2799
  955MOL0     H28925   1.328   0.998   2.070 -0.2795  0.4143 -0.2408
  956MOL0     O28926   8.976   8.769   4.908 -0.1947  0.2757  1.3935
  956MOL0     C28927   8.873   8.766   4.841 -0.7670 -0.1362 -0.0309
  956MOL0     O28928   8.817   8.651   4.791 -0.1837  0.2275 -0.1170
  956MOL0     C28929   8.873   8.533   4.829 -0.2448 -0.1831  0.0266
  956MOL0     C28930   8.787   8.429   4.871  0.5014  0.2403 -0.3113
  956MOL0     C28931   8.837   8.309   4.914 -0.3300  1.0274 -0.5137
  956MOL0     C28932   8.976   8.279   4.915  0.1191  0.3567 -0.1514
  956MOL0     O28933   9.020   8.161   4.969  0.2966 -0.2339  0.7882
  956MOL0     C28934   9.149   8.122   4.953 -0.4816  0.4021  0.1277
  956MOL0     C28935   9.155   7.987   5.019 -0.5003 -0.8367 -0.2797
  956MOL0     C28936   9.291   7.945   4.992  0.8832 -0.0994 -0.6462
  956MOL0     C28937   9.330   7.811   5.064 -0.3146  0.2327  0.1812
  956MOL0     C28938   9.476   7.771   5.050  0.6770  0.4044 -0.0917
  956MOL0     C28939   9.521   7.641   5.122 -0.0195  0.8292  0.9514
  956MOL0     C28940   9.665   7.600   5.091 -0.1256  0.2694  0.8270
  956MOL0     C28941   9.726   7.512   5.194  0.5528 -0.5820  0.1749
  956MOL0     N28942   9.862   7.509   5.168  0.0974  0.2111 -0.6032
  956MOL0     C28943   9.959   7.589   5.220  0.3113  0.0511  0.4069
  956MOL0     C28944  10.074   7.522   5.213 -0.3707 -0.0764 -0.2969
  956MOL0     C28945  10.194   7.581   5.283  0.2467 -0.3983 -0.2038
  956MOL0     C28946  10.320   7.509   5.249 -0.9113  0.2364 -0.3279
  956MOL0     C28947  10.348   7.387   5.347  0.1431  0.0770  0.9182
  956MOL0     C28948  10.385   7.428   5.484  0.2596  0.1129 -0.2717
  956MOL0     O28949  10.422   7.299   5.542  0.8440 -0.2309  0.5420
  956MOL0     C28950  10.425   7.293   5.680 -0.5907  0.6512 -0.6146
  956MOL0     C28951  10.471   7.404   5.742 -0.7869 -0.3369  0.1892
  956MOL0     C28952  10.488   7.403   5.879  0.6614 -0.1772  0.6295
  956MOL0     C28953  10.495   7.282   5.956 -0.0479  0.5108  0.8731
  956MOL0     C28954  10.548   7.267   6.089 -0.3638 -0.3570 -0.0678
  956MOL0     O28955  10.588   7.144   6.126 -0.9756  0.0293  0.7175
  956MOL0     C28956  10.651   7.117   6.244 -0.3449 -0.0197  0.0623
  956MOL0     C28957  10.582   7.045   6.341  0.8403  0.4951  0.3574
  956MOL0     C28958  10.656   6.996   6.456  0.3182  0.4521  1.0079
  956MOL0     C28959  10.793   7.031   6.469 -0.3569 -0.4766 -0.2348
  956MOL0     O28960  10.879   6.988   6.565  0.0983  1.5179 -0.2060
  956MOL0     C28961  10.827   6.944   6.678  0.2057 -0.2452 -0.8251
  956MOL0     C28962  10.924   6.949   6.797 -0.3322 -0.1585  0.0275
  956MOL0     C28963  11.032   6.839   6.785 -0.7919  0.3239 -1.0558
  956MOL0     C28964  11.145   6.850   6.881 -0.4981  0.0853  0.2046
  956MOL0     C28965  11.245   6.967   6.849  0.7161 -0.6909 -0.1727
  956MOL0     C28966  11.381   6.932   6.897  0.0758 -0.8897 -0.0541
  956MOL0     C28967  11.465   7.064   6.885 -0.0643  0.8212 -0.0783
  956MOL0     C28968  11.614   7.036   6.934  0.2823 -1.0027  0.1249
  956MOL0    Cl28969  11.700   7.197   6.924 -0.3591 -0.5473 -0.6120
  956MOL0     C28970  10.854   7.122   6.371  0.3176 -0.1271 -0.5720
  956MOL0     C28971  10.781   7.163   6.262 -0.0558  0.0181 -0.0040
  956MOL0     O28972  10.564   7.368   6.156  0.2799 -0.4489  0.5171
  956MOL0     C28973  10.471   7.166   5.891 -0.5457 -0.3300 -0.1910
  956MOL0     C28974  10.426   7.171   5.758  0.1238  0.4727  0.2180
  956MOL0     N28975  10.053   7.398   5.152  0.5245 -0.7110 -0.0749
  956MOL0     N28976   9.924   7.392   5.133 -0.0557  0.3084  0.6601
  956MOL0     C28977   9.068   8.389   4.869  0.6298  0.4857 -0.1056
  956MOL0     C28978   9.014   8.504   4.814  0.2931 -0.2402 -1.3914
  956MOL0     C28979   8.814   8.902   4.799  0.1510  0.4626 -0.1811
  956MOL0     C28980   8.887   9.020   4.826  0.3965 -0.0202  0.5101
  956MOL0     C28981   8.849   9.142   4.768 -0.2875  0.3324  0.2548
  956MOL0     C28982   8.732   9.142   4.693  0.3541 -0.0706 -0.8364
  956MOL0     O28983   8.695   9.249   4.611  0.4722 -0.2001 -0.0735
  956MOL0     C28984   8.755   9.376   4.633 -0.2057 -0.0884  0.3791
  956MOL0     C28985   8.698   9.492   4.546 -0.1411 -0.1955  0.1615
  956MOL0     C28986   8.793   9.614   4.565 -0.8199  0.1972  0.4519
  956MOL0     C28987   8.738   9.747   4.508  0.5961  0.4094 -0.3184
  956MOL0     C28988   8.715   9.756   4.369  0.1719 -1.3178  0.2013
  956MOL0     C28989   8.702   9.778   4.251  0.5825 -0.9175 -0.0228
  956MOL0     C28990   8.655   9.027   4.670  0.6083  0.3021  0.1640
  956MOL0     C28991   8.689   8.906   4.727  0.4007 -0.1775  0.1314
  956MOL0     C28992   8.579   8.800   4.719  0.1086  0.3518 -0.3070
  956MOL0     H28993   8.679   8.442   4.869  0.5785  1.0320 -3.2344
  956MOL0     H28994   8.768   8.237   4.958  1.6367 -0.6646 -0.0384
  956MOL0     H28995   9.172   8.103   4.848 -2.8264  1.3425 -0.6224
  956MOL0     H28996   9.215   8.196   5.000 -0.9943  1.0102 -0.0981
  956MOL0     H28997   9.071   7.923   4.989 -1.6128  0.9640 -1.1879
  956MOL0     H28998   9.151   8.003   5.128  4.1936  0.0654 -0.0296
  956MOL0     H28999   9.358   8.019   5.037 -2.2831  3.1767 -0.9061
  956MOL0     H29000   9.304   7.934   4.884  1.7156 -1.0457 -0.4589
  956MOL0     H29001   9.307   7.812   5.171 -1.2699  0.6474 -0.0140
  956MOL0     H29002   9.267   7.731   5.024  0.0241  0.0177  0.0764
  956MOL0     H29003   9.499   7.776   4.943  1.1666  2.5643  0.0646
  956MOL0     H29004   9.542   7.849   5.088  1.6588 -0.5675  0.2412
  956MOL0     H29005   9.503   7.655   5.229  0.0054 -1.3468  1.2966
  956MOL0     H29006   9.452   7.566   5.082  0.8391  0.8707 -0.6939
  956MOL0     H29007   9.727   7.689   5.074 -2.4112  1.5712 -1.2883
  956MOL0     H29008   9.669   7.547   4.996 -0.8788 -2.0914  2.0476
  956MOL0     H29009   9.708   7.558   5.291  1.0630  1.6440 -0.7168
  956MOL0     H29010   9.673   7.416   5.186  2.2563 -1.6957  1.6715
  956MOL0     H29011   9.941   7.681   5.275  1.8202  0.6459 -0.0436
  956MOL0     H29012  10.211   7.682   5.244 -0.9172  0.0332  0.3493
  956MOL0     H29013  10.173   7.586   5.390 -2.1573  0.4738 -0.6358
  956MOL0     H29014  10.314   7.471   5.146  0.5714  2.9533 -1.4981
  956MOL0     H29015  10.408   7.572   5.240  1.2541 -2.6595 -0.8534
  956MOL0     H29016  10.429   7.326   5.304  2.9962  2.2716  2.7856
  956MOL0     H29017  10.253   7.333   5.346  1.1924 -1.8902 -0.1874
  956MOL0     H29018  10.297   7.472   5.532 -1.5662 -0.4781 -2.9068
  956MOL0     H29019  10.468   7.500   5.484 -1.4318  2.1820  1.1520
  956MOL0     H29020  10.493   7.498   5.692 -3.1593 -0.6506 -1.6039
  956MOL0     H29021  10.501   7.492   5.940 -3.7458  0.2258  1.2835
  956MOL0     H29022  10.476   7.025   6.326  0.6990 -0.4683  2.3815
  956MOL0     H29023  10.599   6.927   6.517  0.8166 -0.7154  0.1998
  956MOL0     H29024  10.750   7.014   6.711 -0.3760 -0.1436 -2.2940
  956MOL0     H29025  10.777   6.849   6.656 -3.1565  1.6157 -2.0281
  956MOL0     H29026  10.972   7.047   6.807 -1.4704  0.4592 -0.3765
  956MOL0     H29027  10.862   6.937   6.886  3.1901 -0.5342  2.6195
  956MOL0     H29028  10.976   6.746   6.785 -4.3426  2.1162  3.0005
  956MOL0     H29029  11.072   6.845   6.684  1.1168  0.1170 -0.3666
  956MOL0     H29030  11.203   6.758   6.894  1.5197  1.1864 -0.6006
  956MOL0     H29031  11.108   6.877   6.980 -1.9199  1.1279 -0.5722
  956MOL0     H29032  11.210   7.060   6.897 -0.2678 -0.3259 -1.5367
  956MOL0     H29033  11.256   6.981   6.741  0.7750 -3.0426 -0.5119
  956MOL0     H29034  11.378   6.897   7.001 -1.4463 -0.1230  0.1772
  956MOL0     H29035  11.432   6.860   6.832  0.4551  0.0021 -0.7685
  956MOL0     H29036  11.431   7.140   6.955 -0.4336  0.6642 -0.0863
  956MOL0     H29037  11.472   7.105   6.784 -1.3538  1.2431 -0.0164
  956MOL0     H29038  11.605   7.009   7.040 -0.3115 -1.4745 -0.0402
  956MOL0     H29039  11.659   6.962   6.867 -1.7330 -2.2344  0.0592
  956MOL0     H29040  10.959   7.150   6.380  0.4112 -1.0138  1.6692
  956MOL0     H29041  10.826   7.228   6.188 -0.0539 -2.0612 -1.9266
  956MOL0     H29042  10.492   7.068   5.933  2.0125  0.6016  0.9018
  956MOL0     H29043  10.412   7.081   5.700 -0.0367 -0.1539  1.2117
  956MOL0     H29044   9.175   8.372   4.876  0.7592  0.4201 -1.8156
  956MOL0     H29045   9.087   8.570   4.768 -0.2630  0.6664 -0.9814
  956MOL0     H29046   8.976   9.030   4.889 -0.5470  1.5599  1.6650
  956MOL0     H29047   8.903   9.234   4.787 -2.9690  2.2401 -0.7939
  956MOL0     H29048   8.863   9.370   4.620 -0.0730 -1.0134  1.7343
  956MOL0     H29049   8.730   9.407   4.735 -0.4622 -1.4960  0.7586
  956MOL0     H29050   8.603   9.522   4.590  0.0012 -2.3088  2.1026
  956MOL0     H29051   8.689   9.470   4.439  1.0955 -0.8360  0.1555
  956MOL0     H29052   8.885   9.579   4.519  0.1290  3.2289 -0.1589
  956MOL0     H29053   8.807   9.633   4.672  2.6737 -1.5876  0.4297
  956MOL0     H29054   8.637   9.760   4.549 -0.3575  0.8465 -2.6646
  956MOL0     H29055   8.803   9.833   4.530  3.7470 -1.2614 -2.3218
  956MOL0     H29056   8.700   9.796   4.145  0.5571  0.4957  0.2002
  956MOL0     H29057   8.557   9.026   4.624 -0.6332 -0.0967  2.6747
  956MOL0     H29058   8.482   8.849   4.707 -1.4220 -1.8974  2.0207
  956MOL0     H29059   8.592   8.732   4.634  0.8097  0.3288 -0.1926
  956MOL0     H29060   8.571   8.745   4.813  2.8756 -1.9918 -1.3080
  957MOL0     O29061   3.493   2.455   6.448  0.5334  0.1888 -0.6991
  957MOL0     C29062   3.439   2.536   6.370  0.2171  0.2158  0.1528
  957MOL0     O29063   3.498   2.622   6.290  0.0791  0.0510  0.1676
  957MOL0     C29064   3.640   2.625   6.288  1.2229  0.4504  0.2844
  957MOL0     C29065   3.701   2.741   6.256  0.4080 -0.6295 -0.2499
  957MOL0     C29066   3.841   2.748   6.247  0.0068 -0.0055 -0.2332
  957MOL0     C29067   3.928   2.648   6.283  0.6507 -0.2439  0.1542
  957MOL0     O29068   4.065   2.650   6.272  0.2765 -0.0237 -0.5501
  957MOL0     C29069   4.128   2.748   6.356 -0.1191 -0.9985  0.5597
  957MOL0     C29070   4.183   2.848   6.266 -0.2660 -0.4884 -0.5753
  957MOL0     C29071   4.237   2.972   6.353 -0.1010  0.6128  0.5979
  957MOL0     C29072   4.338   3.054   6.272  0.6869  0.7584  0.1742
  957MOL0     C29073   4.483   3.009   6.322 -0.0136  0.0409 -0.0711
  957MOL0     C29074   4.594   3.090   6.249  0.6754 -0.4234 -0.7505
  957MOL0     C29075   4.731   3.084   6.317  0.6845  0.6985  0.9877
  957MOL0     C29076   4.789   2.942   6.307  0.6753 -0.6396  0.4202
  957MOL0     N29077   4.874   2.897   6.410 -0.1473  0.3036 -0.4399
  957MOL0     C29078   4.983   2.806   6.403  0.7716 -0.0488 -0.4182
  957MOL0     C29079   5.035   2.812   6.522  0.3532 -0.0497 -0.0958
  957MOL0     C29080   5.169   2.746   6.562  0.8326  0.3613 -0.1980
  957MOL0     C29081   5.302   2.821   6.563  0.1057 -0.1554 -0.0855
  957MOL0     C29082   5.370   2.853   6.423  0.0709  0.7110  0.1764
  957MOL0     C29083   5.513   2.912   6.445  0.3094  0.5993  0.3458
  957MOL0     O29084   5.513   3.036   6.502  0.5473  0.0517  0.1205
  957MOL0     C29085   5.619   3.087   6.569  0.0206  0.1162  0.5875
  957MOL0     C29086   5.752   3.040   6.555  0.0547 -0.6060 -0.5394
  957MOL0     C29087   5.850   3.102   6.644  0.2406  0.1564  0.5838
  957MOL0     C29088   5.821   3.203   6.728  0.0945  0.5569  0.2121
  957MOL0     C29089   5.923   3.262   6.812 -0.3878  0.5515  0.8862
  957MOL0     O29090   6.032   3.192   6.832 -0.0174 -0.3659  0.0624
  957MOL0     C29091   6.142   3.240   6.897  0.3549 -0.3620  0.2292
  957MOL0     C29092   6.210   3.134   6.956 -0.2009  0.5163 -0.7841
  957MOL0     C29093   6.339   3.163   7.003  0.1903 -0.0676 -0.7474
  957MOL0     C29094   6.392   3.295   7.003  0.5857  0.8855 -1.3232
  957MOL0     O29095   6.513   3.307   7.061 -0.4866  0.0071 -0.1341
  957MOL0     C29096   6.605   3.403   7.013 -0.2779 -0.5349 -0.6965
  957MOL0     C29097   6.740   3.373   7.075  0.0194 -0.2517  0.1825
  957MOL0     C29098   6.842   3.487   7.047  0.3906  1.2380 -0.2262
  957MOL0     C29099   6.969   3.459   7.128 -0.7924  0.1681  0.5860
  957MOL0     C29100   7.079   3.553   7.082  0.2506 -0.3110 -0.7749
  957MOL0     C29101   7.201   3.546   7.187  0.4425  1.4628  0.4547
  957MOL0     C29102   7.166   3.636   7.313  0.0480  0.2370  0.9735
  957MOL0     C29103   7.294   3.666   7.398 -0.2474  0.4684 -0.9317
  957MOL0    Cl29104   7.270   3.816   7.499  0.2561 -0.1003 -0.3845
  957MOL0     C29105   6.315   3.404   6.960 -0.5579  0.5343 -0.0145
  957MOL0     C29106   6.194   3.373   6.898  0.5364  0.1111 -0.1579
  957MOL0     O29107   5.906   3.372   6.849 -0.1541 -0.5928  0.7631
  957MOL0     C29108   5.691   3.255   6.726 -1.1079 -0.2519  0.6846
  957MOL0     C29109   5.588   3.196   6.652 -0.6227 -0.0250  1.0300
  957MOL0     N29110   4.965   2.892   6.600 -0.5385 -0.9596 -0.8538
  957MOL0     N29111   4.877   2.952   6.533 -0.1298  0.1194 -0.1188
  957MOL0     C29112   3.865   2.530   6.312 -0.3278 -0.8105 -0.1196
  957MOL0     C29113   3.729   2.518   6.311  0.3566 -0.0058 -0.1715
  957MOL0     C29114   3.294   2.532   6.367  0.5731  0.5023  0.7932
  957MOL0     C29115   3.227   2.500   6.492  0.0032  0.3858  0.3890
  957MOL0     C29116   3.094   2.507   6.499  0.3485 -0.3734  0.5642
  957MOL0     C29117   3.019   2.544   6.381  0.1148 -0.5385 -0.5427
  957MOL0     O29118   2.886   2.569   6.409  0.1551 -0.6452  0.6627
  957MOL0     C29119   2.794   2.595   6.302 -0.1428 -0.4521  0.6999
  957MOL0     C29120   2.663   2.641   6.358 -0.3568  0.5327  0.1113
  957MOL0     C29121   2.557   2.671   6.250 -0.2507  0.2758 -0.8629
  957MOL0     C29122   2.436   2.711   6.333 -0.1457 -0.2732  0.2561
  957MOL0     C29123   2.336   2.769   6.232  0.0752 -0.1046  0.5141
  957MOL0     C29124   2.274   2.826   6.147 -0.4783 -0.6524  0.2901
  957MOL0     C29125   3.083   2.581   6.265  0.7074  1.4427 -0.2145
  957MOL0     C29126   3.221   2.566   6.257 -0.4380  0.7179  0.1332
  957MOL0     C29127   3.285   2.591   6.121 -0.1431 -0.2950  0.5314
  957MOL0     H29128   3.637   2.820   6.219  2.3652  0.1091 -2.2545
  957MOL0     H29129   3.871   2.845   6.210  2.2213  0.3770  2.2584
  957MOL0     H29130   4.072   2.792   6.439 -0.4416  0.3210 -0.3328
  957MOL0     H29131   4.205   2.685   6.402  2.7493 -0.4772 -3.0615
  957MOL0     H29132   4.099   2.883   6.205  0.2540 -0.1462 -1.1183
  957MOL0     H29133   4.259   2.799   6.204  0.5068 -0.9064  0.6750
  957MOL0     H29134   4.277   2.938   6.449  1.1386  1.3329  0.3664
  957MOL0     H29135   4.145   3.023   6.383 -0.4385 -1.3474  3.3028
  957MOL0     H29136   4.311   3.033   6.167 -2.6031 -1.0936  1.2400
  957MOL0     H29137   4.319   3.156   6.305  0.0269  1.1724 -1.3800
  957MOL0     H29138   4.495   3.046   6.424 -2.3420 -1.5017  0.8395
  957MOL0     H29139   4.493   2.901   6.312 -0.6674  0.0758 -1.2877
  957MOL0     H29140   4.595   3.066   6.142  2.5258  1.3848 -1.2044
  957MOL0     H29141   4.573   3.197   6.245  1.4846 -0.2705 -1.0813
  957MOL0     H29142   4.727   3.119   6.421  1.9016  0.5555  1.1017
  957MOL0     H29143   4.799   3.143   6.254 -1.4324 -0.6304 -2.8516
  957MOL0     H29144   4.707   2.875   6.279  0.7175 -0.5213 -0.0038
  957MOL0     H29145   4.850   2.936   6.216 -0.5705 -0.0553 -0.5013
  957MOL0     H29146   5.023   2.742   6.326 -1.9341 -3.2005  0.5355
  957MOL0     H29147   5.146   2.691   6.654  1.8267 -0.6057 -0.5066
  957MOL0     H29148   5.184   2.667   6.487  1.4849  0.1685  0.1274
  957MOL0     H29149   5.285   2.912   6.622 -0.4088 -0.6930  0.5950
  957MOL0     H29150   5.373   2.762   6.621  0.4107  2.5035  2.4906
  957MOL0     H29151   5.315   2.937   6.378 -3.2994 -1.3067  0.2112
  957MOL0     H29152   5.366   2.765   6.358 -1.3607 -0.2478  1.4770
  957MOL0     H29153   5.563   2.923   6.349  1.6768 -0.7411  0.8622
  957MOL0     H29154   5.570   2.842   6.506 -1.4974 -0.6562  0.6582
  957MOL0     H29155   5.788   2.957   6.495 -1.4333 -1.9883  0.3754
  957MOL0     H29156   5.954   3.077   6.625  0.8488  3.2617 -0.8450
  957MOL0     H29157   6.169   3.034   6.946 -0.5417  0.8446 -3.4265
  957MOL0     H29158   6.413   3.091   7.035 -0.1635 -0.5397 -0.9716
  957MOL0     H29159   6.604   3.399   6.904  0.8040 -1.6770 -0.6925
  957MOL0     H29160   6.575   3.501   7.052 -1.6850 -1.2405  0.0997
  957MOL0     H29161   6.733   3.355   7.183  1.4172 -1.2377  0.1201
  957MOL0     H29162   6.790   3.282   7.044  2.6893  1.6927 -1.6640
  957MOL0     H29163   6.869   3.478   6.942 -1.4353 -0.8871 -0.5873
  957MOL0     H29164   6.810   3.588   7.076  0.3058  0.7734  1.4082
  957MOL0     H29165   7.007   3.357   7.120 -0.2282  0.5298 -2.9015
  957MOL0     H29166   6.943   3.477   7.233 -0.0633  1.1793  0.6080
  957MOL0     H29167   7.038   3.654   7.087 -0.8041 -0.7626  0.3547
  957MOL0     H29168   7.118   3.525   6.984  1.7826 -1.4877  0.1322
  957MOL0     H29169   7.217   3.441   7.216  3.6654  0.0134 -5.0435
  957MOL0     H29170   7.294   3.571   7.135 -0.0303  1.7206 -0.2708
  957MOL0     H29171   7.095   3.598   7.387 -1.6345  3.5401  1.2615
  957MOL0     H29172   7.131   3.728   7.266 -1.4520 -0.3650  0.8709
  957MOL0     H29173   7.302   3.577   7.462 -2.7351 -0.0952 -1.2939
  957MOL0     H29174   7.384   3.665   7.336 -1.1374 -0.9581 -2.2764
  957MOL0     H29175   6.338   3.509   6.974 -0.0767  0.1370  2.7591
  957MOL0     H29176   6.138   3.454   6.852  0.4746  0.9578  1.3385
  957MOL0     H29177   5.673   3.348   6.780 -0.8653 -0.3104  0.8671
  957MOL0     H29178   5.491   3.239   6.673 -0.8626  1.0094 -1.8241
  957MOL0     H29179   3.929   2.443   6.325  2.6810  1.1787 -0.5381
  957MOL0     H29180   3.687   2.419   6.328 -0.5787  0.6414  1.4689
  957MOL0     H29181   3.276   2.475   6.585 -0.5780 -0.5143  0.4674
  957MOL0     H29182   3.049   2.480   6.594 -2.2319 -3.1836 -1.2612
  957MOL0     H29183   2.778   2.512   6.232  1.5024 -1.6986  1.7186
  957MOL0     H29184   2.835   2.679   6.245  0.3077  0.0503  1.7398
  957MOL0     H29185   2.692   2.734   6.409 -0.0114 -0.2821  1.4412
  957MOL0     H29186   2.631   2.565   6.430 -0.2246 -0.6259 -1.0325
  957MOL0     H29187   2.552   2.579   6.192 -1.6504 -0.6418  0.6090
  957MOL0     H29188   2.588   2.759   6.195 -0.1524  1.4452  0.9670
  957MOL0     H29189   2.379   2.630   6.380 -1.1359 -0.5636 -1.3683
  957MOL0     H29190   2.461   2.793   6.401 -0.6328  0.9220 -0.9499
  957MOL0     H29191   2.206   2.880   6.084  0.3481 -2.2677 -2.1164
  957MOL0     H29192   3.023   2.614   6.181  1.7258 -1.0011 -2.0363
  957MOL0     H29193   3.226   2.549   6.039  0.8587 -0.2284 -0.2410
  957MOL0     H29194   3.290   2.699   6.109  1.9271 -0.0334  2.9048
  957MOL0     H29195   3.382   2.544   6.102 -0.5409 -0.3718 -1.5126
  958MOL0     O29196   4.379   2.365  11.391 -0.4756  0.2112  0.2595
  958MOL0     C29197   4.281   2.351  11.319 -0.3358 -0.5432 -0.9596
  958MOL0     O29198   4.288   2.335  11.184  0.3521  0.1605 -0.4748
  958MOL0     C29199   4.406   2.314  11.118 -0.4316  0.5224  0.0528
  958MOL0     C29200   4.413   2.224  11.005 -0.8659 -0.0631 -0.5068
  958MOL0     C29201   4.531   2.213  10.927  0.2107 -0.2703 -1.3956
  958MOL0     C29202   4.651   2.269  10.969 -0.0692 -0.0893  1.0121
  958MOL0     O29203   4.760   2.279  10.894 -0.1323  1.1294 -0.5942
  958MOL0     C29204   4.824   2.159  10.856  0.0909 -0.1806  0.7943
  958MOL0     C29205   4.960   2.197  10.810  0.4917 -0.8755 -0.3474
  958MOL0     C29206   4.954   2.260  10.666 -0.2376 -0.0260  0.2450
  958MOL0     C29207   5.083   2.317  10.608  0.0434  0.7732  0.3504
  958MOL0     C29208   5.075   2.340  10.454 -0.3393  0.4304  1.0688
  958MOL0     C29209   5.070   2.486  10.414  0.1329 -0.1502  0.8507
  958MOL0     C29210   5.016   2.505  10.273  0.2421  1.0837  0.3466
  958MOL0     C29211   5.111   2.459  10.162 -0.0435 -1.0618  0.2357
  958MOL0     N29212   5.237   2.538  10.168 -0.5187 -0.0712 -0.0801
  958MOL0     C29213   5.265   2.645  10.087 -0.1613  0.7810  0.6409
  958MOL0     C29214   5.393   2.672  10.101  0.5898  0.5206 -0.0056
  958MOL0     C29215   5.459   2.800  10.065  0.1700  0.3045  0.5177
  958MOL0     C29216   5.391   2.926  10.124  0.1710 -0.6607 -0.6801
  958MOL0     C29217   5.432   2.924  10.269  0.2021  0.0180 -0.4346
  958MOL0     C29218   5.377   3.028  10.356  0.9131  0.3437  0.4227
  958MOL0     O29219   5.422   3.155  10.305  0.8262 -0.4715 -0.1209
  958MOL0     C29220   5.520   3.212  10.377  0.3113  0.7464  0.1112
  958MOL0     C29221   5.652   3.207  10.339 -0.0182 -0.2389  0.5622
  958MOL0     C29222   5.760   3.260  10.412 -0.5780  0.8693 -0.0149
  958MOL0     C29223   5.732   3.320  10.529 -0.6111 -0.4804 -0.9129
  958MOL0     C29224   5.837   3.396  10.601  0.1470  0.0516 -0.1815
  958MOL0     O29225   5.956   3.423  10.539 -0.0489 -0.0995  0.1024
  958MOL0     C29226   6.059   3.502  10.589 -0.9352  0.1342 -1.1959
  958MOL0     C29227   6.155   3.561  10.505  0.0244  0.9036  0.8924
  958MOL0     C29228   6.270   3.633  10.546  0.3722  0.3470  0.1408
  958MOL0     C29229   6.304   3.636  10.682  0.6431  0.3418 -0.7543
  958MOL0     O29230   6.420   3.689  10.734 -0.4758  0.1746 -0.6834
  958MOL0     C29231   6.513   3.762  10.652  0.8383 -0.3260 -0.7586
  958MOL0     C29232   6.497   3.917  10.662  0.1804 -0.6269  0.5606
  958MOL0     C29233   6.612   3.987  10.577  0.2343  0.1524 -0.2570
  958MOL0     C29234   6.590   4.139  10.561  0.5390  0.3684  0.4738
  958MOL0     C29235   6.718   4.211  10.524  0.2387 -0.3634 -0.5177
  958MOL0     C29236   6.700   4.361  10.493 -0.0557 -0.1025 -0.3567
  958MOL0     C29237   6.655   4.434  10.623  0.0687  0.9116 -0.0156
  958MOL0     C29238   6.638   4.580  10.595  0.1377  0.3191  0.2180
  958MOL0    Cl29239   6.501   4.630  10.489 -0.1824 -0.1386  0.3002
  958MOL0     C29240   6.211   3.577  10.773 -0.4600  0.2587  0.6891
  958MOL0     C29241   6.098   3.510  10.721  0.3980 -0.9226  0.1086
  958MOL0     O29242   5.804   3.441  10.709  0.2345  0.0254  0.1924
  958MOL0     C29243   5.601   3.328  10.578  0.2311 -0.2326 -0.1822
  958MOL0     C29244   5.495   3.272  10.496 -0.7456  0.2702 -0.0007
  958MOL0     N29245   5.456   2.585  10.185 -0.0125 -0.3026 -0.3340
  958MOL0     N29246   5.360   2.498  10.221 -0.0816  0.3435 -0.0870
  958MOL0     C29247   4.651   2.349  11.086  0.3299  0.4537 -0.3565
  958MOL0     C29248   4.528   2.371  11.153  0.1895 -0.0638 -0.8785
  958MOL0     C29249   4.143   2.377  11.371  0.0408  0.3336  0.0037
  958MOL0     C29250   4.042   2.423  11.279 -0.4855  0.4655 -0.1945
  958MOL0     C29251   3.914   2.454  11.320 -0.1970  0.8662  0.3563
  958MOL0     C29252   3.872   2.441  11.453  0.6712 -1.0763 -0.0416
  958MOL0     O29253   3.736   2.457  11.491  0.0642  0.3141 -0.3046
  958MOL0     C29254   3.654   2.531  11.402  0.8033 -0.2746 -0.1072
  958MOL0     C29255   3.519   2.542  11.480 -0.4654 -0.1037 -0.4129
  958MOL0     C29256   3.400   2.586  11.394  0.0975  0.1261 -0.5867
  958MOL0     C29257   3.393   2.729  11.357  0.2613 -0.3732  0.5383
  958MOL0     C29258   3.485   2.770  11.263 -0.8666  0.1000  0.7252
  958MOL0     C29259   3.570   2.803  11.183  0.3172 -0.6316 -0.1362
  958MOL0     C29260   3.962   2.403  11.544 -0.7723  0.6374 -1.1183
  958MOL0     C29261   4.099   2.368  11.513  0.2841  0.6927 -0.7352
  958MOL0     C29262   4.182   2.302  11.624  0.3075  0.8118 -0.1702
  958MOL0     H29263   4.318   2.179  10.979 -0.7005  0.7009 -2.6636
  958MOL0     H29264   4.527   2.153  10.838 -2.9045 -0.1010 -1.4798
  958MOL0     H29265   4.838   2.086  10.937  0.4573 -0.7542  0.2184
  958MOL0     H29266   4.773   2.108  10.774 -0.1089  0.1918  0.6862
  958MOL0     H29267   5.016   2.103  10.811  1.1567 -0.5403  2.3255
  958MOL0     H29268   5.013   2.270  10.873  0.6499 -0.7556 -0.6199
  958MOL0     H29269   4.890   2.349  10.663  2.3512  1.9061 -0.9255
  958MOL0     H29270   4.919   2.179  10.601 -1.2058  0.0624  0.6407
  958MOL0     H29271   5.128   2.408  10.651  3.0729  1.4426 -3.6216
  958MOL0     H29272   5.154   2.234  10.616  1.1822  1.4945 -1.7437
  958MOL0     H29273   5.167   2.301  10.409 -0.0434  3.0794 -0.8779
  958MOL0     H29274   4.988   2.288  10.415 -0.2261  1.0513 -0.0775
  958MOL0     H29275   4.996   2.539  10.475  0.9055  4.4359 -1.7600
  958MOL0     H29276   5.163   2.543  10.426  0.1582 -0.2649  1.2072
  958MOL0     H29277   4.994   2.612  10.266 -1.3278  0.7421 -0.5749
  958MOL0     H29278   4.931   2.439  10.254  2.1755 -2.0207  1.7968
  958MOL0     H29279   5.128   2.351  10.166  1.4243 -0.7994  1.8852
  958MOL0     H29280   5.060   2.488  10.070 -4.5525  0.8128  2.9978
  958MOL0     H29281   5.192   2.709  10.038 -0.3983  1.2647  1.5979
  958MOL0     H29282   5.568   2.804  10.079  0.0388  2.4441  1.3824
  958MOL0     H29283   5.449   2.811   9.957 -2.5210 -1.6966  0.4603
  958MOL0     H29284   5.427   3.021  10.084 -3.0175  0.2594 -1.7035
  958MOL0     H29285   5.283   2.937  10.107  0.0513  1.2308  0.9583
  958MOL0     H29286   5.540   2.919  10.287  0.1270 -2.0776 -0.3276
  958MOL0     H29287   5.386   2.831  10.303 -1.9236  0.6766 -1.3662
  958MOL0     H29288   5.416   3.006  10.456 -0.7795 -1.9664  0.6447
  958MOL0     H29289   5.269   3.025  10.341  1.0739 -0.2386 -0.6784
  958MOL0     H29290   5.684   3.172  10.241  0.1810 -1.6129  1.1047
  958MOL0     H29291   5.858   3.269  10.364  0.3910 -0.4917  1.6132
  958MOL0     H29292   6.125   3.570  10.401  0.5557  0.9150  0.7382
  958MOL0     H29293   6.335   3.678  10.471  1.5984 -0.3549  0.7534
  958MOL0     H29294   6.613   3.736  10.687  1.1199  0.8233 -0.6759
  958MOL0     H29295   6.515   3.734  10.546 -0.8377 -2.4786 -0.2945
  958MOL0     H29296   6.401   3.952  10.623 -0.1887 -0.1963  1.8092
  958MOL0     H29297   6.514   3.959  10.762 -1.0562 -1.5397  1.1876
  958MOL0     H29298   6.706   3.970  10.632 -0.5422 -0.9423  0.7926
  958MOL0     H29299   6.627   3.936  10.482  4.0477  0.3877  0.0763
  958MOL0     H29300   6.556   4.183  10.655 -0.2608  1.4868 -0.3116
  958MOL0     H29301   6.508   4.152  10.490  0.8495 -1.4614 -0.2733
  958MOL0     H29302   6.766   4.172  10.433  2.0714  0.7594 -0.0815
  958MOL0     H29303   6.780   4.194  10.612 -0.0436 -0.2328 -0.2953
  958MOL0     H29304   6.788   4.403  10.442 -2.0822  2.4537 -2.0257
  958MOL0     H29305   6.628   4.366  10.411  2.6854 -1.0606 -2.9996
  958MOL0     H29306   6.726   4.408  10.702  1.5696  2.7826 -0.6633
  958MOL0     H29307   6.554   4.398  10.645  0.8772 -1.1690  0.5002
  958MOL0     H29308   6.633   4.631  10.691  3.4445  0.1118  0.6277
  958MOL0     H29309   6.732   4.615  10.551  1.6313 -2.4002  0.9728
  958MOL0     H29310   6.237   3.577  10.878 -0.6115  3.7792  0.8313
  958MOL0     H29311   6.025   3.477  10.794 -0.3633  2.1057  0.8664
  958MOL0     H29312   5.582   3.370  10.676  1.0872  1.4869 -0.7046
  958MOL0     H29313   5.396   3.292  10.537 -0.7979 -1.3791  0.7303
  958MOL0     H29314   4.738   2.404  11.121  0.8617 -0.6061  0.0257
  958MOL0     H29315   4.533   2.440  11.237  3.5801  0.1653 -1.1340
  958MOL0     H29316   4.064   2.430  11.173  0.9919 -0.5893  0.0053
  958MOL0     H29317   3.852   2.490  11.239  0.7931 -0.2118 -0.9378
  958MOL0     H29318   3.639   2.483  11.305 -2.3938  1.5772 -0.6687
  958MOL0     H29319   3.714   2.622  11.390 -0.0574  0.3819  0.4012
  958MOL0     H29320   3.536   2.612  11.562 -3.4658  1.0225 -0.6351
  958MOL0     H29321   3.495   2.447  11.530 -0.7338  1.3521  2.4415
  958MOL0     H29322   3.320   2.569  11.467  1.7022  1.7200  1.6974
  958MOL0     H29323   3.390   2.520  11.308 -0.9114 -0.3998 -0.0860
  958MOL0     H29324   3.294   2.749  11.317  0.0178 -1.3210  0.6280
  958MOL0     H29325   3.409   2.788  11.448 -0.2190  0.8857 -0.1771
  958MOL0     H29326   3.641   2.826  11.106  2.5306 -0.8469  1.7076
  958MOL0     H29327   3.911   2.387  11.638 -0.5165  0.6017 -0.9828
  958MOL0     H29328   4.247   2.233  11.569 -1.2023  2.2577 -4.1792
  958MOL0     H29329   4.239   2.381  11.674  1.4957  0.0206 -0.2406
  958MOL0     H29330   4.126   2.242  11.696  0.1498  1.5857  0.3669
  959MOL0     O29331   6.608   0.193   5.767  0.7438 -0.2772  0.1505
  959MOL0     C29332   6.531   0.113   5.714 -0.2081  0.8988  0.5182
  959MOL0     O29333   6.567  -0.006   5.663  1.1052 -0.2850  0.5967
  959MOL0     C29334   6.693  -0.059   5.671  0.4302 -0.0794  0.1116
  959MOL0     C29335   6.761  -0.091   5.559 -0.3662  0.8700  0.4797
  959MOL0     C29336   6.895  -0.125   5.559 -0.0030 -0.1473 -0.8403
  959MOL0     C29337   6.967  -0.118   5.679  0.4259  1.0382 -0.1114
  959MOL0     O29338   7.099  -0.162   5.688 -0.6104  0.7563 -0.0624
  959MOL0     C29339   7.189  -0.071   5.617  0.3936  0.3955 -0.0500
  959MOL0     C29340   7.323  -0.083   5.689  1.3708  0.9165 -1.3006
  959MOL0     C29341   7.428  -0.015   5.602 -0.4541  0.0249 -0.6156
  959MOL0     C29342   7.402   0.139   5.592 -0.0947  0.7925  0.3952
  959MOL0     C29343   7.535   0.212   5.597  0.2892  0.8190  0.1867
  959MOL0     C29344   7.531   0.335   5.514  0.0914 -0.8322 -0.2690
  959MOL0     C29345   7.673   0.410   5.533  0.4232  0.6908  0.3740
  959MOL0     C29346   7.775   0.363   5.428  0.0764  0.4813  0.2899
  959MOL0     N29347   7.901   0.436   5.431  0.3667  0.2469 -0.2128
  959MOL0     C29348   7.930   0.563   5.463  0.0203  0.3189  0.8226
  959MOL0     C29349   8.061   0.576   5.423  0.3293  0.1833 -0.2703
  959MOL0     C29350   8.163   0.683   5.462  0.6083  0.4053 -0.9741
  959MOL0     C29351   8.169   0.692   5.614  0.5524 -0.2830 -0.0312
  959MOL0     C29352   8.205   0.829   5.662 -0.3061  0.3133 -0.0318
  959MOL0     C29353   8.327   0.891   5.596 -0.0058  0.6694 -1.0367
  959MOL0     O29354   8.441   0.824   5.645  0.4410 -0.8967  0.3956
  959MOL0     C29355   8.565   0.860   5.587  0.0810 -0.1282  0.6268
  959MOL0     C29356   8.603   0.982   5.528  0.7647  0.0394 -0.8315
  959MOL0     C29357   8.731   0.997   5.479 -0.2026  0.0812  0.0527
  959MOL0     C29358   8.819   0.890   5.477  0.0602 -0.1869 -0.0778
  959MOL0     C29359   8.952   0.910   5.421 -0.3013  0.2898  0.4647
  959MOL0     O29360   9.046   0.860   5.504 -0.2545  0.1182 -0.5745
  959MOL0     C29361   9.181   0.885   5.469  0.5358  0.0407 -0.0551
  959MOL0     C29362   9.234   0.798   5.383  0.8334  0.5206 -0.5567
  959MOL0     C29363   9.366   0.808   5.334  0.3799  0.2293  0.6161
  959MOL0     C29364   9.447   0.914   5.376 -0.7329  0.8094  0.2753
  959MOL0     O29365   9.579   0.931   5.344  0.1742  0.2295  0.3044
  959MOL0     C29366   9.637   0.835   5.258  0.0960 -0.3035 -0.3918
  959MOL0     C29367   9.787   0.862   5.243 -0.5271  0.0301 -0.3837
  959MOL0     C29368   9.871   0.874   5.365  0.2657 -0.3942 -0.3945
  959MOL0     C29369  10.018   0.872   5.350 -0.1259 -0.6782 -0.4253
  959MOL0     C29370  10.086   0.808   5.478  0.3939 -0.3653 -0.0234
  959MOL0     C29371  10.238   0.808   5.476 -1.2378  0.1716 -0.5104
  959MOL0     C29372  10.306   0.757   5.609  0.2745 -0.4783  0.5018
  959MOL0     C29373  10.276   0.610   5.644  1.1140 -0.6564  0.2666
  959MOL0    Cl29374  10.387   0.512   5.528  0.2106  0.5001 -0.1718
  959MOL0     C29375   9.386   1.009   5.463 -0.1196  0.0393  0.5999
  959MOL0     C29376   9.254   1.002   5.498  0.4127  0.5330 -0.0343
  959MOL0     O29377   8.979   0.979   5.320  0.1012  0.3776 -0.1838
  959MOL0     C29378   8.789   0.778   5.546  0.2945  0.8900 -0.5325
  959MOL0     C29379   8.663   0.757   5.607  0.2281 -0.2724 -0.2498
  959MOL0     N29380   8.091   0.462   5.351  0.4882 -0.2296 -0.1771
  959MOL0     N29381   7.997   0.379   5.361  0.3100  0.1376  0.8470
  959MOL0     C29382   6.893  -0.093   5.797  0.1632 -0.3871  0.6032
  959MOL0     C29383   6.757  -0.051   5.791  0.2620 -0.8739 -0.2545
  959MOL0     C29384   6.396   0.152   5.705 -0.2853  0.9782 -0.4540
  959MOL0     C29385   6.321   0.158   5.828  0.1920  0.4893 -0.1743
  959MOL0     C29386   6.191   0.198   5.831  0.4925 -0.0979  0.0249
  959MOL0     C29387   6.128   0.230   5.714  0.2739 -0.2686 -0.8045
  959MOL0     O29388   5.989   0.265   5.710 -0.0954  0.8586 -0.2469
  959MOL0     C29389   5.894   0.197   5.791 -0.6230 -0.9184 -0.1833
  959MOL0     C29390   5.770   0.276   5.820 -0.1396  0.1512 -0.2799
  959MOL0     C29391   5.804   0.393   5.900  0.1247 -0.3905 -0.0168
  959MOL0     C29392   5.691   0.487   5.940  0.1885  0.2264 -1.0207
  959MOL0     C29393   5.664   0.582   5.833  1.1154  0.2273 -0.2207
  959MOL0     C29394   5.628   0.653   5.738 -0.1011 -0.4228 -0.4258
  959MOL0     C29395   6.197   0.220   5.592 -0.0690  0.1112 -0.0611
  959MOL0     C29396   6.332   0.181   5.582 -0.9186 -0.3908 -0.5945
  959MOL0     C29397   6.394   0.175   5.448 -0.5360  0.3124  0.1912
  959MOL0     H29398   6.705  -0.109   5.468  0.3702 -0.6932  0.3046
  959MOL0     H29399   6.952  -0.155   5.471 -2.2107  0.9736 -2.7726
  959MOL0     H29400   7.187  -0.090   5.510 -3.3313  0.1624 -0.0788
  959MOL0     H29401   7.148   0.030   5.622  1.2293  0.7769 -0.7416
  959MOL0     H29402   7.351  -0.187   5.706 -1.2635  0.2021 -0.9177
  959MOL0     H29403   7.303  -0.030   5.783 -1.6505 -1.0831 -0.6732
  959MOL0     H29404   7.435  -0.064   5.505  2.3282 -0.6423 -0.1693
  959MOL0     H29405   7.529  -0.024   5.645  0.7104  1.0426 -2.9915
  959MOL0     H29406   7.349   0.158   5.499  0.8680 -0.5342 -0.4649
  959MOL0     H29407   7.338   0.172   5.675 -2.3178  0.7479 -1.2202
  959MOL0     H29408   7.554   0.232   5.703 -0.3992 -1.0181  0.6915
  959MOL0     H29409   7.613   0.143   5.565 -1.8207 -1.0538 -1.1983
  959MOL0     H29410   7.503   0.327   5.409  0.4927  0.3754 -0.4835
  959MOL0     H29411   7.453   0.393   5.565  0.7999  1.7948 -1.9402
  959MOL0     H29412   7.713   0.389   5.632 -2.8084 -2.8384  1.1473
  959MOL0     H29413   7.658   0.518   5.520  0.1685  0.7394  1.0361
  959MOL0     H29414   7.797   0.257   5.445 -1.8267 -0.2572 -1.3538
  959MOL0     H29415   7.722   0.361   5.332  1.4511  0.7527 -0.5018
  959MOL0     H29416   7.861   0.622   5.523 -1.0641  1.5791 -1.5221
  959MOL0     H29417   8.260   0.670   5.415  1.0366 -2.4789  0.4698
  959MOL0     H29418   8.120   0.774   5.418 -1.9336  0.0578  0.5586
  959MOL0     H29419   8.073   0.671   5.663  0.6968  0.8912  0.7854
  959MOL0     H29420   8.247   0.624   5.649  1.4606 -0.5746 -2.4210
  959MOL0     H29421   8.223   0.826   5.769  0.5237  1.9755 -0.1000
  959MOL0     H29422   8.125   0.899   5.638  0.5625  1.4912  0.3944
  959MOL0     H29423   8.341   0.991   5.637 -0.9267 -0.6731  3.0023
  959MOL0     H29424   8.318   0.897   5.487 -3.4764 -2.0360 -1.0857
  959MOL0     H29425   8.534   1.063   5.507 -1.3573 -1.3090  0.5376
  959MOL0     H29426   8.753   1.095   5.437 -0.2981 -0.3311 -0.9964
  959MOL0     H29427   9.176   0.706   5.382 -0.2921  1.1767  0.8196
  959MOL0     H29428   9.399   0.740   5.256  2.3495 -1.1841  2.5613
  959MOL0     H29429   9.635   0.738   5.309  4.4444  0.4916  1.6700
  959MOL0     H29430   9.591   0.825   5.159  1.6121  0.6114 -1.2257
  959MOL0     H29431   9.829   0.788   5.175 -0.9929  1.1220 -1.9226
  959MOL0     H29432   9.809   0.953   5.185  3.3581 -1.6932 -1.9423
  959MOL0     H29433   9.849   0.964   5.423 -2.5054 -0.5870 -1.0217
  959MOL0     H29434   9.846   0.787   5.426  1.1700  0.2595  0.9816
  959MOL0     H29435  10.050   0.977   5.347  1.5090 -1.1685 -1.4086
  959MOL0     H29436  10.055   0.825   5.259  0.9176  2.4326 -1.7736
  959MOL0     H29437  10.060   0.702   5.483  1.0417 -0.5264 -0.0989
  959MOL0     H29438  10.054   0.861   5.569 -1.4521 -0.7029 -0.4326
  959MOL0     H29439  10.273   0.772   5.378 -1.5880 -0.1095 -0.5361
  959MOL0     H29440  10.272   0.912   5.474  2.9031 -0.9976 -0.9170
  959MOL0     H29441  10.261   0.820   5.687 -0.9656  0.3267 -0.8222
  959MOL0     H29442  10.414   0.774   5.612  0.1400  0.3622  1.0637
  959MOL0     H29443  10.300   0.589   5.748 -0.2099  2.1328  1.2415
  959MOL0     H29444  10.169   0.588   5.638  0.7232  1.0054  0.5456
  959MOL0     H29445   9.440   1.091   5.509  0.6037 -0.8143  1.2914
  959MOL0     H29446   9.206   1.070   5.568  0.1367  1.0165 -0.6890
  959MOL0     H29447   8.861   0.697   5.542 -0.5457 -0.1320  2.5405
  959MOL0     H29448   8.643   0.666   5.661 -0.2221  1.7319  3.2255
  959MOL0     H29449   6.947  -0.107   5.891 -2.0988 -0.5317  1.9594
  959MOL0     H29450   6.715  -0.022   5.886  2.0816 -0.5717  0.5031
  959MOL0     H29451   6.364   0.133   5.925  0.9697 -2.2579 -1.1457
  959MOL0     H29452   6.142   0.206   5.927  1.3514 -1.0210  0.5724
  959MOL0     H29453   5.944   0.168   5.884  1.0039  3.1783  0.4526
  959MOL0     H29454   5.865   0.104   5.742  0.7912 -1.2321 -0.4718
  959MOL0     H29455   5.704   0.205   5.871  0.6903 -0.7456 -0.4195
  959MOL0     H29456   5.725   0.287   5.721  0.0044 -2.5530 -0.7408
  959MOL0     H29457   5.874   0.451   5.840  1.3487 -1.1678  0.6078
  959MOL0     H29458   5.868   0.363   5.984 -0.4996 -0.7119  0.3492
  959MOL0     H29459   5.602   0.428   5.963  0.3415  0.0142 -0.9704
  959MOL0     H29460   5.721   0.532   6.035  0.3458  2.1749 -1.9553
  959MOL0     H29461   5.600   0.720   5.659  3.5071  2.8236  0.7401
  959MOL0     H29462   6.155   0.243   5.495  0.5878  0.1133 -0.3560
  959MOL0     H29463   6.495   0.219   5.455  0.2265 -1.4826  1.4739
  959MOL0     H29464   6.417   0.074   5.415  3.0395  0.5809  1.3582
  959MOL0     H29465   6.339   0.237   5.378  0.5503  0.9391 -0.1411
  960MOL0     O29466  10.109   5.379   5.494  0.4085  0.6619 -0.0635
  960MOL0     C29467  10.156   5.329   5.391  0.2117 -0.4049  0.5190
  960MOL0     O29468  10.259   5.230   5.385  0.2215  0.2586  0.2848
  960MOL0     C29469  10.332   5.184   5.502 -0.3114  0.0291  0.1932
  960MOL0     C29470  10.328   5.239   5.635  0.5190 -0.1908 -1.0827
  960MOL0     C29471  10.409   5.186   5.732 -0.0875 -0.2857  0.3341
  960MOL0     C29472  10.488   5.075   5.704 -0.4143  0.4305  0.8467
  960MOL0     O29473  10.560   5.007   5.797 -0.2046  0.1625 -0.2379
  960MOL0     C29474  10.502   4.993   5.928  0.5913  0.4402  0.5282
  960MOL0     C29475  10.575   4.892   6.011 -0.6063 -0.8787  0.0099
  960MOL0     C29476  10.591   4.760   5.938 -0.3093 -0.0659 -1.1964
  960MOL0     C29477  10.595   4.647   6.042  0.0789  0.5998  0.0483
  960MOL0     C29478  10.554   4.515   5.969 -0.6708 -0.4487 -0.4603
  960MOL0     C29479  10.621   4.480   5.839 -0.5291 -0.7597 -0.2013
  960MOL0     C29480  10.575   4.338   5.794 -0.5451  0.3505 -0.0456
  960MOL0     C29481  10.430   4.332   5.749  0.6105  0.3557  0.5418
  960MOL0     N29482  10.399   4.431   5.646 -0.2910 -0.6444 -0.2232
  960MOL0     C29483  10.292   4.516   5.648 -0.1058 -0.6166 -0.5237
  960MOL0     C29484  10.319   4.596   5.537 -1.0896  0.4561 -0.5962
  960MOL0     C29485  10.232   4.691   5.482 -1.0605 -0.8878  0.0381
  960MOL0     C29486  10.265   4.748   5.351 -0.4659 -0.4147 -0.4916
  960MOL0     C29487  10.153   4.836   5.292  0.1982 -0.3512 -0.0903
  960MOL0     C29488  10.041   4.753   5.233 -0.3756  0.3143  0.9137
  960MOL0     O29489  10.077   4.697   5.105 -0.1389  0.2084 -0.5683
  960MOL0     C29490   9.989   4.731   5.008  0.2536 -0.7461 -0.3578
  960MOL0     C29491   9.885   4.653   4.984 -0.0287  0.2878 -0.6020
  960MOL0     C29492   9.781   4.697   4.895  0.0571 -0.4592 -0.3016
  960MOL0     C29493   9.794   4.813   4.815 -0.2558 -0.2158 -0.4814
  960MOL0     C29494   9.708   4.842   4.704  0.6652 -0.1923  0.1591
  960MOL0     O29495   9.718   4.968   4.649  0.5416 -0.0432 -0.2505
  960MOL0     C29496   9.643   5.006   4.546 -0.0499  0.4299 -0.3478
  960MOL0     C29497   9.643   4.953   4.417 -0.2931  0.1330  0.8271
  960MOL0     C29498   9.577   5.018   4.313  0.6032  0.5502  1.2328
  960MOL0     C29499   9.494   5.129   4.325 -0.4556  0.4260 -0.7680
  960MOL0     O29500   9.443   5.177   4.208 -0.0062 -0.6391 -0.4415
  960MOL0     C29501   9.375   5.304   4.216 -0.0258  0.2889 -0.1684
  960MOL0     C29502   9.308   5.340   4.085  1.0629  0.1288 -0.5628
  960MOL0     C29503   9.233   5.468   4.076 -0.4621 -0.2834  0.3020
  960MOL0     C29504   9.084   5.459   4.117  0.3962  0.0425 -0.6450
  960MOL0     C29505   9.015   5.597   4.131  0.0966  0.8301 -0.7774
  960MOL0     C29506   8.863   5.572   4.130  0.1722 -0.5050  0.5303
  960MOL0     C29507   8.777   5.692   4.175 -0.1676  0.1829  0.0624
  960MOL0     C29508   8.628   5.660   4.172  0.1827  0.3566  0.6183
  960MOL0    Cl29509   8.564   5.620   4.000 -0.3646  0.1232  0.6243
  960MOL0     C29510   9.485   5.177   4.453 -0.5176  0.1188 -0.4711
  960MOL0     C29511   9.555   5.115   4.567 -0.1851 -0.7134  0.5239
  960MOL0     O29512   9.624   4.766   4.674  0.4922  0.3446  0.5885
  960MOL0     C29513   9.910   4.890   4.836 -0.1605 -0.2340  0.5637
  960MOL0     C29514  10.004   4.853   4.933  0.0737 -1.0507 -0.3978
  960MOL0     N29515  10.442   4.562   5.485  0.1874 -0.1390 -0.1257
  960MOL0     N29516  10.493   4.459   5.549 -0.6672 -0.0321  0.5158
  960MOL0     C29517  10.500   5.025   5.576 -0.2353 -0.3369  0.1169
  960MOL0     C29518  10.426   5.087   5.473  0.5669 -0.5988 -0.2424
  960MOL0     C29519  10.093   5.366   5.261 -0.5011 -0.8622 -0.6066
  960MOL0     C29520  10.170   5.319   5.148 -0.5501  0.3221  0.1274
  960MOL0     C29521  10.121   5.321   5.019 -0.4124  0.3272  0.3445
  960MOL0     C29522   9.999   5.376   4.998  0.7093 -0.4872 -0.0347
  960MOL0     O29523   9.958   5.383   4.864  0.3798 -0.2644  0.3020
  960MOL0     C29524   9.937   5.278   4.778 -0.8852 -0.7242  0.2666
  960MOL0     C29525   9.827   5.315   4.679  0.9982 -0.4320  0.0917
  960MOL0     C29526   9.825   5.459   4.639  0.1794 -0.1669 -0.0697
  960MOL0     C29527   9.693   5.484   4.565  0.1098 -0.4346  0.3525
  960MOL0     C29528   9.585   5.504   4.657  1.1511  0.4497 -0.0502
  960MOL0     C29529   9.495   5.507   4.741  0.1922 -1.5001  0.2442
  960MOL0     C29530   9.920   5.432   5.097 -0.7146 -0.4610 -0.1704
  960MOL0     C29531   9.963   5.420   5.234  0.7074  0.5537 -0.2517
  960MOL0     C29532   9.867   5.483   5.334 -0.4366  0.2669 -0.2208
  960MOL0     H29533  10.264   5.319   5.671 -1.1245  0.6692 -5.2602
  960MOL0     H29534  10.393   5.220   5.834 -2.7066  1.4846 -0.5816
  960MOL0     H29535  10.495   5.093   5.972 -3.9500  0.0819  1.1716
  960MOL0     H29536  10.399   4.959   5.914  0.8616  0.7277 -3.0810
  960MOL0     H29537  10.523   4.875   6.106 -1.3546  0.9934 -0.0281
  960MOL0     H29538  10.675   4.927   6.037  1.6965 -3.8650 -3.7363
  960MOL0     H29539  10.687   4.773   5.887  0.0654  1.4443 -0.1684
  960MOL0     H29540  10.508   4.753   5.868 -1.6757  1.2410  0.2085
  960MOL0     H29541  10.695   4.643   6.086  0.0057 -0.8049  0.1432
  960MOL0     H29542  10.526   4.654   6.126  1.2206 -0.0113  1.0788
  960MOL0     H29543  10.560   4.425   6.030  0.2341 -2.0952 -2.8111
  960MOL0     H29544  10.446   4.527   5.952 -0.8505  1.0746  1.4781
  960MOL0     H29545  10.611   4.550   5.756  0.5658  1.4083  1.3752
  960MOL0     H29546  10.727   4.476   5.867 -0.2342 -1.4663 -1.3466
  960MOL0     H29547  10.596   4.267   5.874  1.0174  0.4086 -0.3644
  960MOL0     H29548  10.639   4.312   5.708 -2.2395  0.0831 -1.2675
  960MOL0     H29549  10.402   4.235   5.706  3.4790 -1.3352  2.1392
  960MOL0     H29550  10.366   4.344   5.837 -0.0368 -1.1142  0.3022
  960MOL0     H29551  10.203   4.522   5.710 -0.5237  1.8700 -1.2474
  960MOL0     H29552  10.128   4.661   5.469 -2.6706  4.9705 -6.2089
  960MOL0     H29553  10.249   4.777   5.547  3.6099 -0.2793 -1.5760
  960MOL0     H29554  10.354   4.812   5.364 -0.6914 -0.1974 -0.0051
  960MOL0     H29555  10.301   4.678   5.275 -0.2635  0.0581 -0.8430
  960MOL0     H29556  10.197   4.907   5.221 -1.2434 -0.6958 -1.3839
  960MOL0     H29557  10.111   4.905   5.366 -0.8411 -0.5146 -0.5049
  960MOL0     H29558   9.957   4.822   5.221 -0.7220 -0.2864 -0.2665
  960MOL0     H29559  10.016   4.670   5.299 -1.8367  1.3643  1.7629
  960MOL0     H29560   9.884   4.557   5.033 -1.5439 -0.6416 -2.3408
  960MOL0     H29561   9.688   4.642   4.888  0.5901 -1.3219 -0.7312
  960MOL0     H29562   9.713   4.873   4.398  1.4919  1.7922  0.0751
  960MOL0     H29563   9.592   4.967   4.219  0.6751  2.7038  0.0083
  960MOL0     H29564   9.293   5.290   4.287 -0.3574 -0.8277 -0.7506
  960MOL0     H29565   9.429   5.377   4.277 -1.6797 -2.1317  4.7045
  960MOL0     H29566   9.386   5.341   4.008 -1.9261  1.3503 -3.8571
  960MOL0     H29567   9.234   5.263   4.063  0.0579  0.1890  2.1517
  960MOL0     H29568   9.288   5.541   4.136  1.7797 -0.4757 -1.3742
  960MOL0     H29569   9.235   5.491   3.969  2.9400 -0.2779  0.2579
  960MOL0     H29570   9.078   5.412   4.215 -1.5914 -1.4763 -1.4390
  960MOL0     H29571   9.026   5.394   4.051  0.1407  0.3122 -0.6847
  960MOL0     H29572   9.043   5.665   4.050  1.3390 -1.5597 -2.4776
  960MOL0     H29573   9.054   5.642   4.222  1.7335  1.8435 -1.9155
  960MOL0     H29574   8.839   5.530   4.032  1.3021  0.5629 -0.2284
  960MOL0     H29575   8.834   5.497   4.204 -2.7361  2.4026  2.6117
  960MOL0     H29576   8.807   5.770   4.105 -0.7321 -2.3580 -3.2801
  960MOL0     H29577   8.809   5.719   4.275  2.1496 -3.7397  0.5816
  960MOL0     H29578   8.603   5.576   4.238 -0.6193 -0.1378 -0.2788
  960MOL0     H29579   8.567   5.739   4.217 -2.3538 -1.1772  0.0815
  960MOL0     H29580   9.418   5.262   4.467 -0.1840  0.7953 -2.6072
  960MOL0     H29581   9.547   5.158   4.666 -0.1062 -1.8954  1.0519
  960MOL0     H29582   9.940   4.978   4.780 -0.0364  0.8999  2.3519
  960MOL0     H29583  10.090   4.918   4.944 -0.1519 -0.9621  1.0395
  960MOL0     H29584  10.564   4.940   5.553 -0.3333 -0.8565  1.6335
  960MOL0     H29585  10.423   5.049   5.371 -1.7871 -1.1805 -0.0029
  960MOL0     H29586  10.270   5.282   5.166 -2.2859 -3.5392  3.7293
  960MOL0     H29587  10.181   5.290   4.934  0.6984  4.6116 -0.7008
  960MOL0     H29588   9.924   5.183   4.830 -1.3985 -1.4736 -1.1826
  960MOL0     H29589  10.031   5.269   4.722 -2.0085 -0.4238 -1.7520
  960MOL0     H29590   9.735   5.288   4.732  0.5562 -1.8828 -1.3419
  960MOL0     H29591   9.822   5.255   4.588  0.6192  0.0748 -0.2255
  960MOL0     H29592   9.907   5.492   4.574  0.1678 -1.5952 -0.8351
  960MOL0     H29593   9.839   5.521   4.728 -0.4759 -1.4119  0.9279
  960MOL0     H29594   9.698   5.570   4.498  0.9538  0.8018  1.9185
  960MOL0     H29595   9.667   5.400   4.500 -0.7015  1.0358 -1.2694
  960MOL0     H29596   9.433   5.490   4.826 -0.1505  1.8475  0.8102
  960MOL0     H29597   9.827   5.481   5.069 -1.1256 -1.7596 -1.2117
  960MOL0     H29598   9.935   5.542   5.396 -0.8219 -0.4546  0.9082
  960MOL0     H29599   9.798   5.542   5.273  0.8300 -0.4014 -2.3904
  960MOL0     H29600   9.803   5.419   5.395 -2.9281  2.5546 -0.2469
  961MOL0     O29601   0.771   8.470   1.811 -0.0268  0.5132  0.3572
  961MOL0     C29602   0.895   8.483   1.810 -0.6794 -0.3588  0.2796
  961MOL0     O29603   0.954   8.589   1.881  0.1167 -0.2771  0.2009
  961MOL0     C29604   0.885   8.668   1.969 -0.3243 -0.1542 -0.5682
  961MOL0     C29605   0.847   8.617   2.093  0.0192  0.1124  0.7656
  961MOL0     C29606   0.764   8.697   2.167 -0.6229  0.2914 -0.5059
  961MOL0     C29607   0.717   8.823   2.130  0.7723  0.5402 -0.6124
  961MOL0     O29608   0.632   8.902   2.202 -0.1178 -0.4052 -0.0164
  961MOL0     C29609   0.505   8.928   2.135  0.5683 -0.6133  0.6878
  961MOL0     C29610   0.403   9.016   2.219  0.1920  0.5550  0.0754
  961MOL0     C29611   0.347   8.932   2.334 -0.2852 -0.0212 -0.0612
  961MOL0     C29612   0.375   9.003   2.464  0.1437  0.2651  0.2559
  961MOL0     C29613   0.357   8.942   2.603 -0.4559 -0.2725  0.5981
  961MOL0     C29614   0.391   8.797   2.604  0.4522  0.4502  0.7111
  961MOL0     C29615   0.534   8.758   2.568  0.9631  0.3727  0.1011
  961MOL0     C29616   0.529   8.605   2.546  0.6388  0.8220  0.3834
  961MOL0     N29617   0.668   8.559   2.557  0.1318  0.2073 -0.0468
  961MOL0     C29618   0.748   8.562   2.668 -0.6623  0.2049  0.0851
  961MOL0     C29619   0.853   8.477   2.648  0.5197 -0.1082  0.5910
  961MOL0     C29620   0.963   8.430   2.735 -0.4228 -0.4063 -0.1585
  961MOL0     C29621   1.033   8.542   2.809  0.4814 -0.2621  0.1086
  961MOL0     C29622   1.187   8.506   2.810 -0.6623 -0.1672 -1.3365
  961MOL0     C29623   1.269   8.633   2.839 -0.3985  0.1909 -0.6951
  961MOL0     O29624   1.276   8.651   2.985  0.0088  0.5457 -0.6208
  961MOL0     C29625   1.393   8.635   3.050  0.1179  0.4294 -0.6476
  961MOL0     C29626   1.527   8.631   2.994  0.2131 -0.0402  0.3094
  961MOL0     C29627   1.643   8.617   3.060 -0.0054 -0.3244  0.1320
  961MOL0     C29628   1.639   8.578   3.195 -0.4082  0.2077  0.3954
  961MOL0     C29629   1.768   8.563   3.280 -0.2068 -0.5176 -0.9793
  961MOL0     O29630   1.749   8.545   3.420 -0.1950 -0.5440  0.2211
  961MOL0     C29631   1.857   8.508   3.498 -0.0181  0.0757  0.4672
  961MOL0     C29632   1.843   8.397   3.571 -0.1093  0.0247  0.6098
  961MOL0     C29633   1.944   8.352   3.651 -0.1901  0.6108  0.7199
  961MOL0     C29634   2.066   8.420   3.664  0.3251  0.6103 -0.4577
  961MOL0     O29635   2.164   8.359   3.736 -0.5487  0.4959  0.0313
  961MOL0     C29636   2.240   8.448   3.828  0.7359 -0.0659 -0.2570
  961MOL0     C29637   2.326   8.359   3.913 -0.8903 -0.4801  0.5657
  961MOL0     C29638   2.455   8.300   3.838  0.0001 -0.8415 -0.6143
  961MOL0     C29639   2.546   8.414   3.783 -0.2739  0.7348 -0.1290
  961MOL0     C29640   2.684   8.346   3.754  0.5106 -0.7343  0.7397
  961MOL0     C29641   2.784   8.456   3.709  0.3494  0.4147  0.7405
  961MOL0     C29642   2.852   8.532   3.818 -0.2086 -0.4712 -0.5862
  961MOL0     C29643   2.928   8.449   3.913  0.0122  0.8641 -0.3310
  961MOL0    Cl29644   2.838   8.406   4.068 -0.2559  0.0505 -0.0639
  961MOL0     C29645   2.077   8.540   3.592  0.6318 -0.7372  0.4608
  961MOL0     C29646   1.972   8.585   3.513  0.4331  0.0097  0.4139
  961MOL0     O29647   1.876   8.577   3.229  0.0656 -0.5710  0.3151
  961MOL0     C29648   1.515   8.569   3.255  0.5543 -0.0545  0.1852
  961MOL0     C29649   1.393   8.602   3.186 -0.6224 -0.6478  0.0162
  961MOL0     N29650   0.831   8.420   2.518  0.0179 -0.3486  0.0791
  961MOL0     N29651   0.729   8.479   2.473  0.6829 -0.2693  0.2557
  961MOL0     C29652   0.770   8.881   2.018 -0.7089  0.6730 -0.6091
  961MOL0     C29653   0.855   8.800   1.932  0.1529 -0.3897 -0.4264
  961MOL0     C29654   0.978   8.388   1.720  0.2907  0.5202  0.3708
  961MOL0     C29655   1.113   8.404   1.712 -0.1567  0.4521  0.0874
  961MOL0     C29656   1.197   8.302   1.651  0.0820  0.0779 -0.1149
  961MOL0     C29657   1.136   8.199   1.586  0.5139 -0.5985 -0.2173
  961MOL0     O29658   1.200   8.097   1.514 -0.6463 -0.2415  0.0117
  961MOL0     C29659   1.339   8.073   1.549  0.4934  0.3149  0.0550
  961MOL0     C29660   1.404   7.961   1.463  0.0457 -0.1378  1.4577
  961MOL0     C29661   1.545   7.926   1.516 -0.9422  0.3040 -0.2267
  961MOL0     C29662   1.587   7.790   1.468 -0.3754  0.1882 -0.0968
  961MOL0     C29663   1.724   7.774   1.515 -0.0015 -0.3637 -0.3716
  961MOL0     C29664   1.846   7.763   1.546  0.2741  0.3462 -0.2507
  961MOL0     C29665   0.996   8.187   1.590 -0.1564  1.1345 -0.4231
  961MOL0     C29666   0.916   8.281   1.650 -0.2101  0.7855 -1.0941
  961MOL0     C29667   0.768   8.254   1.631  0.1005 -0.3027  0.2887
  961MOL0     H29668   0.877   8.520   2.131 -0.5454 -0.4591 -0.2199
  961MOL0     H29669   0.726   8.645   2.255 -0.7103 -0.1394 -0.7935
  961MOL0     H29670   0.521   8.976   2.038 -0.9557 -3.5428 -1.1617
  961MOL0     H29671   0.455   8.835   2.106 -0.5586  0.4201 -0.9061
  961MOL0     H29672   0.317   9.041   2.157 -1.3710  2.4228  2.7639
  961MOL0     H29673   0.453   9.110   2.243 -2.0162  2.3589 -1.9035
  961MOL0     H29674   0.398   8.836   2.328 -0.1077 -0.3624  4.3025
  961MOL0     H29675   0.238   8.924   2.328 -0.1208 -2.4408 -0.6785
  961MOL0     H29676   0.483   9.018   2.462  0.4466 -1.4227 -2.7993
  961MOL0     H29677   0.321   9.098   2.460  1.6241  1.1079 -0.5186
  961MOL0     H29678   0.423   8.987   2.678  0.6333 -1.7310  0.5529
  961MOL0     H29679   0.256   8.955   2.641 -0.9633 -2.3281  0.0606
  961MOL0     H29680   0.367   8.757   2.703  5.1047 -1.1577  1.4403
  961MOL0     H29681   0.309   8.747   2.550  1.1797 -0.2137  0.1975
  961MOL0     H29682   0.591   8.779   2.660 -1.2376 -1.5502  2.0348
  961MOL0     H29683   0.574   8.813   2.482 -0.2588  0.1884 -0.6011
  961MOL0     H29684   0.470   8.559   2.626 -1.6251  2.2383 -0.3738
  961MOL0     H29685   0.484   8.589   2.447 -1.3241  3.0246  0.8249
  961MOL0     H29686   0.748   8.625   2.756 -1.1508  1.1232 -0.5632
  961MOL0     H29687   0.925   8.357   2.807 -1.5970  0.7693  0.4793
  961MOL0     H29688   1.037   8.391   2.665 -0.0447 -1.9167  1.0324
  961MOL0     H29689   1.012   8.635   2.755 -0.8581 -2.0833 -2.7221
  961MOL0     H29690   1.003   8.561   2.912  3.2886  0.9877  0.8087
  961MOL0     H29691   1.224   8.474   2.712  0.5527 -0.3242 -0.8406
  961MOL0     H29692   1.198   8.425   2.882 -3.8826 -0.0819 -0.5755
  961MOL0     H29693   1.240   8.714   2.772  1.4964 -2.9701 -5.9000
  961MOL0     H29694   1.371   8.613   2.805  1.0445  1.6804  2.3525
  961MOL0     H29695   1.546   8.641   2.888 -1.3928  0.1100  0.0093
  961MOL0     H29696   1.743   8.608   3.019  0.3637  0.0075  0.9346
  961MOL0     H29697   1.768   8.330   3.532  0.7067 -1.6536  1.8040
  961MOL0     H29698   1.929   8.263   3.712 -0.2312  0.3950  0.3940
  961MOL0     H29699   2.297   8.518   3.766  1.2334  0.0840  0.3660
  961MOL0     H29700   2.177   8.502   3.899 -2.0044 -2.4470 -0.6775
  961MOL0     H29701   2.358   8.421   3.998 -1.8704  0.9359 -0.0538
  961MOL0     H29702   2.260   8.276   3.940 -2.3598  0.6559  0.6141
  961MOL0     H29703   2.507   8.239   3.912  0.6669 -0.7249 -0.9761
  961MOL0     H29704   2.433   8.244   3.747  3.0321  2.2302 -3.5251
  961MOL0     H29705   2.549   8.498   3.854  0.6916  1.8035 -1.3990
  961MOL0     H29706   2.510   8.462   3.692  0.2139  2.3991  0.5132
  961MOL0     H29707   2.673   8.276   3.671  0.4315 -0.5543  0.5997
  961MOL0     H29708   2.728   8.293   3.839 -0.7885  1.2910  2.7970
  961MOL0     H29709   2.861   8.404   3.651  0.7634  0.4778  1.2262
  961MOL0     H29710   2.733   8.530   3.646  1.2392  0.7845  0.4319
  961MOL0     H29711   2.775   8.580   3.880  1.0144  0.8281  0.0029
  961MOL0     H29712   2.916   8.604   3.766  1.1741  0.3777  2.0937
  961MOL0     H29713   2.969   8.360   3.865 -1.3069 -0.4501  0.8442
  961MOL0     H29714   3.009   8.513   3.952 -0.7847  1.3217  0.6387
  961MOL0     H29715   2.169   8.596   3.601 -1.2422  2.6843  0.1851
  961MOL0     H29716   1.980   8.677   3.456  2.0170 -0.8664 -0.8636
  961MOL0     H29717   1.505   8.524   3.353 -2.0836 -2.2695 -0.9711
  961MOL0     H29718   1.302   8.604   3.246 -1.3492 -1.0086 -1.0507
  961MOL0     H29719   0.740   8.976   1.974 -1.2161 -0.7550 -3.5479
  961MOL0     H29720   0.897   8.835   1.838  0.4874 -0.4517 -0.3017
  961MOL0     H29721   1.158   8.489   1.761  0.6061 -1.0561  2.1325
  961MOL0     H29722   1.301   8.328   1.641 -0.2458  1.2034 -0.8141
  961MOL0     H29723   1.331   8.044   1.654  2.1954 -1.4509 -0.2522
  961MOL0     H29724   1.407   8.159   1.538  2.4026 -1.1254  0.0826
  961MOL0     H29725   1.412   7.996   1.360  0.6582 -0.1741  1.4892
  961MOL0     H29726   1.349   7.866   1.469  1.1348 -1.0873 -1.6526
  961MOL0     H29727   1.544   7.907   1.624 -0.5806 -1.5233 -0.5104
  961MOL0     H29728   1.617   8.004   1.491 -0.8518  0.4162  0.3728
  961MOL0     H29729   1.521   7.712   1.508 -1.5015  1.0375 -0.2396
  961MOL0     H29730   1.585   7.781   1.359 -2.6967 -0.1934 -0.0826
  961MOL0     H29731   1.944   7.762   1.590 -0.2494  2.0222  1.0293
  961MOL0     H29732   0.966   8.100   1.533  1.7304  0.5328 -0.5587
  961MOL0     H29733   0.739   8.349   1.586  1.1918  0.0746  0.3563
  961MOL0     H29734   0.738   8.194   1.545 -0.6073  0.0066  0.3130
  961MOL0     H29735   0.722   8.228   1.727 -0.7240  0.5609  0.1432
  962MOL0     O29736   4.197   0.331   4.481 -0.3118  0.3015  0.3974
  962MOL0     C29737   4.199   0.250   4.393 -0.0237 -0.6910 -0.0141
  962MOL0     O29738   4.095   0.204   4.316 -0.0128  0.4389 -0.1977
  962MOL0     C29739   3.962   0.212   4.343 -0.3877  0.8517 -0.3323
  962MOL0     C29740   3.906   0.270   4.459  0.4714 -0.7157  0.1207
  962MOL0     C29741   3.768   0.255   4.483  0.0890  0.0498 -0.1048
  962MOL0     C29742   3.688   0.179   4.398  0.6245 -0.4506 -0.3796
  962MOL0     O29743   3.555   0.141   4.412  0.1712 -0.8547  0.1810
  962MOL0     C29744   3.473   0.215   4.514 -0.1752 -0.4164  0.0814
  962MOL0     C29745   3.331   0.161   4.509 -0.7653  0.3872 -0.0043
  962MOL0     C29746   3.233   0.238   4.591  0.0014  0.1048  0.7312
  962MOL0     C29747   3.111   0.169   4.636  0.4211 -0.7159 -0.3306
  962MOL0     C29748   3.021   0.257   4.719 -0.1967  0.5190 -0.9816
  962MOL0     C29749   2.882   0.196   4.738 -0.0067 -0.3698 -0.4674
  962MOL0     C29750   2.825   0.263   4.866  0.2805 -0.0256 -0.0125
  962MOL0     C29751   2.681   0.219   4.886  0.0928  0.2127 -0.2231
  962MOL0     N29752   2.625   0.295   4.994  0.2975 -0.2696 -0.1436
  962MOL0     C29753   2.624   0.250   5.118  0.1436 -0.4663 -0.9835
  962MOL0     C29754   2.577   0.345   5.198 -0.5654  0.4107  0.6265
  962MOL0     C29755   2.564   0.329   5.343 -0.7172 -0.0920 -0.1270
  962MOL0     C29756   2.694   0.378   5.414 -0.7767  0.2982  0.2234
  962MOL0     C29757   2.700   0.529   5.442  0.2325 -0.0247  0.5344
  962MOL0     C29758   2.840   0.575   5.444 -1.1836 -0.1875 -0.5123
  962MOL0     O29759   2.890   0.559   5.582  0.5701  0.4542  0.3608
  962MOL0     C29760   2.987   0.649   5.618 -0.5863  0.3273  0.0468
  962MOL0     C29761   2.980   0.693   5.752  0.1729 -0.6943  0.7816
  962MOL0     C29762   3.071   0.784   5.804 -0.7857 -0.7308  0.4209
  962MOL0     C29763   3.151   0.859   5.719  0.3708  0.2564  0.3146
  962MOL0     C29764   3.244   0.965   5.767  0.1369 -0.1060 -0.2647
  962MOL0     O29765   3.346   1.002   5.678  0.1221  0.0489 -0.5298
  962MOL0     C29766   3.452   1.080   5.711  0.3751  0.1204  0.8617
  962MOL0     C29767   3.516   1.088   5.837  0.1839  0.4468 -0.0663
  962MOL0     C29768   3.616   1.178   5.869  0.0590 -0.2346  0.4551
  962MOL0     C29769   3.680   1.242   5.761 -0.1829  0.0749 -1.2195
  962MOL0     O29770   3.795   1.319   5.783  0.1764  0.4274  0.0309
  962MOL0     C29771   3.879   1.352   5.673  0.1449 -0.1887 -0.1715
  962MOL0     C29772   4.015   1.400   5.726  0.2479 -0.1639 -0.8503
  962MOL0     C29773   4.120   1.416   5.614  0.4997  0.5416 -0.7048
  962MOL0     C29774   4.257   1.470   5.673  0.1583  0.6893  0.5674
  962MOL0     C29775   4.359   1.522   5.562  0.0536 -0.1135 -0.6206
  962MOL0     C29776   4.490   1.585   5.629  0.2740 -0.2674  0.1560
  962MOL0     C29777   4.551   1.675   5.523 -0.2625  0.4497  0.3393
  962MOL0     C29778   4.685   1.731   5.565 -0.8757  0.2160  0.1893
  962MOL0    Cl29779   4.738   1.893   5.502  0.3955  0.7451  0.1526
  962MOL0     C29780   3.629   1.223   5.637  0.4047  0.0612  0.9117
  962MOL0     C29781   3.510   1.154   5.605 -0.2331 -0.1124 -1.3945
  962MOL0     O29782   3.222   1.020   5.874  1.0077 -0.1457  0.3309
  962MOL0     C29783   3.159   0.818   5.586  0.1251 -0.3392  0.1999
  962MOL0     C29784   3.079   0.723   5.527  0.0899  0.6099 -0.7359
  962MOL0     N29785   2.544   0.447   5.113  0.3212 -0.3001  0.0175
  962MOL0     N29786   2.559   0.418   4.991  0.5295  0.0127 -0.0966
  962MOL0     C29787   3.739   0.133   4.271 -0.5111  0.3760 -0.8740
  962MOL0     C29788   3.873   0.161   4.248  0.1163  0.1922 -0.2192
  962MOL0     C29789   4.334   0.241   4.328  0.6971  0.3955  1.6373
  962MOL0     C29790   4.345   0.270   4.190 -0.3100  0.5292  0.3597
  962MOL0     C29791   4.476   0.288   4.136  0.2394  0.1534 -0.4695
  962MOL0     C29792   4.590   0.257   4.214  0.9396 -1.0009 -0.3425
  962MOL0     O29793   4.715   0.296   4.172  0.3751 -0.2041  0.3809
  962MOL0     C29794   4.827   0.307   4.253 -0.6444 -0.5932  0.0888
  962MOL0     C29795   4.835   0.450   4.299  0.8062 -0.4133 -0.0705
  962MOL0     C29796   4.971   0.481   4.364 -0.0154 -0.8988 -0.0421
  962MOL0     C29797   5.013   0.392   4.484  0.0961 -0.0029 -0.4009
  962MOL0     C29798   4.932   0.412   4.604 -0.2243 -0.3272  0.9618
  962MOL0     C29799   4.863   0.434   4.700  1.3212 -0.1305  0.3237
  962MOL0     C29800   4.564   0.211   4.341  0.5538 -0.1463  0.2955
  962MOL0     C29801   4.440   0.212   4.402  0.1116 -0.3321 -0.0480
  962MOL0     C29802   4.416   0.166   4.540 -0.2780 -0.1725  0.1709
  962MOL0     H29803   3.973   0.315   4.532  0.9745  0.5252 -1.0347
  962MOL0     H29804   3.729   0.299   4.575 -0.1248 -0.3639  0.0077
  962MOL0     H29805   3.516   0.195   4.612  2.8192  0.6528 -0.8976
  962MOL0     H29806   3.486   0.321   4.489 -0.1162 -0.5670 -0.5470
  962MOL0     H29807   3.334   0.054   4.533 -1.3932 -0.3367 -2.7972
  962MOL0     H29808   3.297   0.158   4.405 -1.3155  0.6930  0.1604
  962MOL0     H29809   3.206   0.328   4.534  1.4722 -0.4251 -0.8762
  962MOL0     H29810   3.285   0.286   4.674  1.5504  0.2547 -0.2852
  962MOL0     H29811   3.065   0.117   4.551 -0.3625 -1.4915  0.5376
  962MOL0     H29812   3.161   0.090   4.692  4.7242  1.0774 -1.2597
  962MOL0     H29813   3.071   0.269   4.816 -0.8533  1.1370 -0.7087
  962MOL0     H29814   3.000   0.359   4.684 -0.4594  0.6418 -0.4874
  962MOL0     H29815   2.822   0.220   4.649  0.8139 -2.2612 -1.5964
  962MOL0     H29816   2.886   0.087   4.747  1.1844 -0.4460 -1.6394
  962MOL0     H29817   2.817   0.371   4.851 -0.8656  0.0259  0.8470
  962MOL0     H29818   2.884   0.256   4.958 -1.9573 -0.3596  1.4664
  962MOL0     H29819   2.631   0.246   4.792  1.2486  2.0884 -0.3366
  962MOL0     H29820   2.678   0.110   4.895  0.1279  0.1902 -0.4695
  962MOL0     H29821   2.652   0.150   5.150 -0.8046 -0.6501 -0.7124
  962MOL0     H29822   2.484   0.400   5.367  0.5316  1.5753 -0.7688
  962MOL0     H29823   2.534   0.230   5.379 -1.2145  0.2911  0.5487
  962MOL0     H29824   2.705   0.321   5.507  1.0834 -1.7486 -1.1637
  962MOL0     H29825   2.781   0.350   5.354 -0.8059  0.2132  0.2205
  962MOL0     H29826   2.632   0.563   5.521 -0.5468  0.9717 -0.5292
  962MOL0     H29827   2.657   0.572   5.351  0.3319 -1.1774 -0.0819
  962MOL0     H29828   2.834   0.682   5.424 -0.6430 -0.1850 -0.6803
  962MOL0     H29829   2.914   0.538   5.373  0.3719 -1.5877  1.7006
  962MOL0     H29830   2.909   0.646   5.820 -2.7715  2.4009  0.1677
  962MOL0     H29831   3.063   0.804   5.910  2.4790 -0.3164  0.6939
  962MOL0     H29832   3.479   1.024   5.917  1.3916  0.7836  0.7980
  962MOL0     H29833   3.639   1.198   5.973  0.0107 -0.1837  0.4565
  962MOL0     H29834   3.893   1.261   5.614  1.2824 -0.7550  0.9131
  962MOL0     H29835   3.833   1.427   5.608 -0.5745  0.3334  0.8989
  962MOL0     H29836   4.015   1.497   5.778  1.1535 -1.1913  1.1987
  962MOL0     H29837   4.053   1.332   5.803 -3.0219  1.1581  2.2277
  962MOL0     H29838   4.137   1.325   5.555 -0.4781 -0.7403  0.9046
  962MOL0     H29839   4.076   1.492   5.548 -0.6969  1.0209  0.5861
  962MOL0     H29840   4.302   1.388   5.731 -0.9735  1.3805  2.5233
  962MOL0     H29841   4.239   1.561   5.731  1.9518  1.1838  0.4102
  962MOL0     H29842   4.314   1.590   5.490  1.4377 -1.4129 -2.8165
  962MOL0     H29843   4.392   1.441   5.497 -1.8849  0.0609 -1.9179
  962MOL0     H29844   4.471   1.634   5.724  3.6740  0.4837  0.5607
  962MOL0     H29845   4.544   1.494   5.655 -0.0205 -0.9443 -1.4142
  962MOL0     H29846   4.486   1.761   5.504 -1.2477 -0.4829 -0.6628
  962MOL0     H29847   4.561   1.618   5.430 -0.6631 -1.2421  1.2943
  962MOL0     H29848   4.675   1.744   5.673 -1.8985  0.4394  0.0843
  962MOL0     H29849   4.758   1.658   5.530 -0.8335  1.4429 -2.5468
  962MOL0     H29850   3.680   1.264   5.550 -1.0401 -0.6890 -0.3472
  962MOL0     H29851   3.467   1.152   5.505  1.4478  1.7656 -2.2342
  962MOL0     H29852   3.221   0.876   5.519  0.5386  0.9305  1.6165
  962MOL0     H29853   3.095   0.692   5.424  0.2332 -0.7506 -0.3246
  962MOL0     H29854   3.685   0.067   4.204  1.6032 -2.1708 -0.2100
  962MOL0     H29855   3.925   0.131   4.158  2.4064  3.3971 -0.1128
  962MOL0     H29856   4.256   0.290   4.132  0.7499  2.3747 -0.7148
  962MOL0     H29857   4.502   0.336   4.043  2.6193  0.2984  0.2051
  962MOL0     H29858   4.919   0.283   4.199 -0.0205 -1.8843  1.6499
  962MOL0     H29859   4.820   0.236   4.335 -1.0410 -0.4773  0.1576
  962MOL0     H29860   4.748   0.472   4.360 -1.2914 -2.2685 -2.1912
  962MOL0     H29861   4.826   0.510   4.208  2.4464 -0.1816 -0.1221
  962MOL0     H29862   4.971   0.588   4.387  0.9236 -1.6250  4.0918
  962MOL0     H29863   5.051   0.476   4.291  0.1818  0.9923 -0.0074
  962MOL0     H29864   5.023   0.287   4.457 -0.2877 -0.4454  1.0954
  962MOL0     H29865   5.112   0.433   4.505  0.3944 -0.1120 -1.5382
  962MOL0     H29866   4.800   0.445   4.787  1.4515 -0.4773  0.4624
  962MOL0     H29867   4.645   0.174   4.404 -0.1321 -1.2406  0.5573
  962MOL0     H29868   4.335   0.093   4.549 -1.2180  0.6419 -1.2646
  962MOL0     H29869   4.500   0.116   4.588 -0.2342  1.6305  2.1764
  962MOL0     H29870   4.385   0.242   4.613  1.1854 -0.4788  1.1645
  963MOL0     O29871  10.579  10.900  10.065  0.1484  0.1280 -0.3213
  963MOL0     C29872  10.578  11.010  10.128  0.1704 -0.3154  0.5445
  963MOL0     O29873  10.663  11.036  10.229 -0.5184  0.3036  0.3762
  963MOL0     C29874  10.775  10.952  10.238  1.4020  0.4134 -0.0322
  963MOL0     C29875  10.899  10.998  10.197 -0.1379  0.4832  0.3202
  963MOL0     C29876  11.022  10.912  10.214  0.0108  0.1573 -0.0052
  963MOL0     C29877  11.003  10.792  10.286  0.0132 -0.2357  0.7784
  963MOL0     O29878  11.120  10.734  10.315 -0.0122  0.0039  0.5334
  963MOL0     C29879  11.120  10.614  10.396  0.0696  0.5949 -1.2682
  963MOL0     C29880  11.092  10.486  10.319 -0.2230 -0.4198 -0.1876
  963MOL0     C29881  11.201  10.465  10.211  0.5542 -0.6341  0.6986
  963MOL0     C29882  11.277  10.326  10.218 -0.1502 -0.2515 -0.7337
  963MOL0     C29883  11.380  10.294  10.108  0.9142 -0.1949 -0.2647
  963MOL0     C29884  11.466  10.172  10.148 -0.8476 -0.2675 -0.1149
  963MOL0     C29885  11.585  10.153  10.050 -0.2715  0.6206  0.9933
  963MOL0     C29886  11.656  10.028  10.076  0.2724  0.2850  0.1078
  963MOL0     N29887  11.796  10.031  10.029  0.4530 -0.3289 -0.4061
  963MOL0     C29888  11.825  10.042   9.898  1.2555 -0.0537 -0.0711
  963MOL0     C29889  11.962  10.051   9.908 -0.2237 -0.5111  0.6318
  963MOL0     C29890  12.058  10.039   9.785  0.2687 -0.1127 -0.5324
  963MOL0     C29891  12.093   9.885   9.773 -0.6731 -0.5265  0.1828
  963MOL0     C29892  12.171   9.865   9.645  0.0807 -0.1831 -0.5001
  963MOL0     C29893  12.226   9.720   9.660  0.0351  0.1674  0.3581
  963MOL0     O29894  12.272   9.670   9.532  0.2480  0.8146  0.0149
  963MOL0     C29895  12.406   9.690   9.495  0.5993  0.2677  0.2443
  963MOL0     C29896  12.505   9.751   9.578  0.1834 -0.4434  0.5572
  963MOL0     C29897  12.638   9.734   9.555  0.1613  0.8987 -0.2845
  963MOL0     C29898  12.682   9.693   9.426  0.4928 -0.0209  1.3357
  963MOL0     C29899  12.833   9.704   9.398 -0.0253 -0.3265  0.4870
  963MOL0     O29900  12.869   9.668   9.279  0.6715 -0.6569 -0.7052
  963MOL0     C29901  12.964   9.737   9.214  0.7134  0.1106 -0.3222
  963MOL0     C29902  12.971   9.875   9.209 -0.0962 -0.1885  0.7612
  963MOL0     C29903  13.054   9.941   9.114 -0.3690 -0.5958  0.7571
  963MOL0     C29904  13.135   9.862   9.027 -0.1717  0.0821 -0.0726
  963MOL0     O29905  13.217   9.929   8.937  0.1670 -0.3417  0.2307
  963MOL0     C29906  13.256   9.866   8.813  0.6677  0.9931 -0.0442
  963MOL0     C29907  13.374   9.932   8.742  0.1232 -0.0617 -0.5395
  963MOL0     C29908  13.501   9.905   8.826 -0.5183 -0.5701 -0.5153
  963MOL0     C29909  13.619   9.965   8.746  0.0162 -0.5846  0.7865
  963MOL0     C29910  13.752   9.957   8.822  0.1376 -0.1454 -0.3671
  963MOL0     C29911  13.883   9.984   8.745  0.1460  0.8149  0.7830
  963MOL0     C29912  13.865  10.108   8.656 -0.4204  0.0116  0.6261
  963MOL0     C29913  14.000  10.154   8.585  0.2409  0.0570  0.0834
  963MOL0    Cl29914  13.992  10.269   8.443  0.1033 -0.0786 -0.4205
  963MOL0     C29915  13.120   9.722   9.028 -0.7277  0.2783 -0.2491
  963MOL0     C29916  13.036   9.659   9.124 -0.6137  0.6741 -0.3725
  963MOL0     O29917  12.906   9.766   9.481  0.5373  0.6818 -0.2086
  963MOL0     C29918  12.582   9.644   9.338 -0.9905  0.0296  0.5108
  963MOL0     C29919  12.447   9.636   9.372  0.0936  0.3449 -0.4600
  963MOL0     N29920  12.009  10.054  10.043  0.1273 -0.1348 -0.3789
  963MOL0     N29921  11.904  10.027  10.111 -0.6103  0.2865  0.2238
  963MOL0     C29922  10.873  10.745  10.310 -0.1591  0.2804 -0.0712
  963MOL0     C29923  10.762  10.820  10.299 -0.4799  0.3519  0.7325
  963MOL0     C29924  10.476  11.108  10.089  0.0375 -1.0889  0.7597
  963MOL0     C29925  10.416  11.107   9.956 -0.2860  0.7027  0.3892
  963MOL0     C29926  10.321  11.194   9.911  0.8962  0.3644 -0.1084
  963MOL0     C29927  10.274  11.289   9.999 -0.2755 -1.1969  0.0804
  963MOL0     O29928  10.166  11.363   9.955  0.0849 -0.1413  0.6384
  963MOL0     C29929  10.134  11.485  10.008  1.4791 -0.7554 -0.1684
  963MOL0     C29930  10.036  11.463  10.128 -0.1580 -0.9611 -0.0902
  963MOL0     C29931   9.925  11.363  10.108 -0.9505  0.3995  0.2226
  963MOL0     C29932   9.841  11.357  10.234  0.3657 -0.1375  0.0356
  963MOL0     C29933   9.704  11.356  10.192  0.3568 -0.5772 -0.5088
  963MOL0     C29934   9.588  11.340  10.175  0.5726 -0.4107 -0.8439
  963MOL0     C29935  10.326  11.299  10.126  0.4953  0.2718 -0.0958
  963MOL0     C29936  10.435  11.222  10.167 -0.9513  0.0915  0.0058
  963MOL0     C29937  10.505  11.268  10.283 -0.6744  0.2040  0.4659
  963MOL0     H29938  10.905  11.103  10.169 -0.0432  0.8476  1.6087
  963MOL0     H29939  11.117  10.954  10.180 -1.8748  3.2991 -1.8810
  963MOL0     H29940  11.223  10.595  10.429  0.3197 -1.1277 -2.8654
  963MOL0     H29941  11.046  10.608  10.476 -0.0807 -2.8635 -1.5328
  963MOL0     H29942  10.998  10.495  10.265 -1.3996  0.1643  1.8790
  963MOL0     H29943  11.082  10.395  10.379  1.0654 -0.3660  0.1538
  963MOL0     H29944  11.280  10.541  10.210  1.5007 -1.5607  2.3401
  963MOL0     H29945  11.141  10.457  10.119 -1.5478 -1.1739  2.0531
  963MOL0     H29946  11.331  10.311  10.311  0.6123  2.2390 -0.7161
  963MOL0     H29947  11.199  10.249  10.209 -1.2520  0.5426  1.3246
  963MOL0     H29948  11.354  10.292  10.002  2.2487 -2.0356 -0.6147
  963MOL0     H29949  11.441  10.384  10.121 -0.5201  0.8162 -0.2795
  963MOL0     H29950  11.513  10.189  10.245  1.3650 -1.4835 -0.8977
  963MOL0     H29951  11.414  10.076  10.154 -0.5413 -0.4918 -0.8566
  963MOL0     H29952  11.666  10.225  10.064  2.5670 -1.8435 -1.5725
  963MOL0     H29953  11.547  10.163   9.948  2.5096  1.9424 -0.0081
  963MOL0     H29954  11.666  10.012  10.183 -0.3882 -1.6556 -0.0873
  963MOL0     H29955  11.615   9.938  10.030 -0.6095 -0.0231  1.4325
  963MOL0     H29956  11.758  10.036   9.813  0.0547  0.1360  0.8229
  963MOL0     H29957  12.007  10.075   9.695 -0.1428 -3.4370 -1.7657
  963MOL0     H29958  12.145  10.103   9.804 -0.2917  0.7163 -0.7377
  963MOL0     H29959  12.145   9.854   9.864  1.2747  2.9158  0.4181
  963MOL0     H29960  12.005   9.821   9.762  0.1822 -2.1602  2.1529
  963MOL0     H29961  12.251   9.938   9.632  1.1880 -0.7598  2.3603
  963MOL0     H29962  12.099   9.859   9.563 -0.3874 -1.2992 -0.0316
  963MOL0     H29963  12.150   9.642   9.672  0.1522 -0.2458 -1.2737
  963MOL0     H29964  12.302   9.713   9.738  0.8466  1.0222 -0.3426
  963MOL0     H29965  12.487   9.801   9.673  3.0282 -0.4967  1.2023
  963MOL0     H29966  12.703   9.767   9.635  1.7965  0.3335 -1.3230
  963MOL0     H29967  12.922   9.949   9.272  0.6547 -0.2680  1.4424
  963MOL0     H29968  13.059  10.050   9.115 -0.3408 -0.5600  2.7666
  963MOL0     H29969  13.283   9.764   8.841  0.4613  1.3686  1.6171
  963MOL0     H29970  13.177   9.851   8.738  0.7472  0.4277 -0.0222
  963MOL0     H29971  13.380   9.882   8.644  0.1324 -0.6779 -0.2331
  963MOL0     H29972  13.349  10.038   8.730 -1.0899 -0.1993  0.5129
  963MOL0     H29973  13.496   9.956   8.923 -1.1837 -1.6222  0.0270
  963MOL0     H29974  13.508   9.796   8.838  0.2326 -0.2871  2.3673
  963MOL0     H29975  13.605  10.072   8.729 -0.9895 -0.6896  0.8647
  963MOL0     H29976  13.627   9.914   8.650 -0.5387 -1.4084  1.1592
  963MOL0     H29977  13.763   9.858   8.867  0.3124 -0.6098 -1.3882
  963MOL0     H29978  13.740  10.025   8.906  0.6999 -0.6687  0.1408
  963MOL0     H29979  13.969  10.005   8.810  2.3832 -2.8850 -0.6908
  963MOL0     H29980  13.901   9.891   8.691 -1.6249 -0.4018  2.1664
  963MOL0     H29981  13.824  10.195   8.708 -2.3363 -0.5546  0.1266
  963MOL0     H29982  13.790  10.093   8.578  0.7270 -2.4002 -0.1110
  963MOL0     H29983  14.054  10.212   8.661 -3.1909  2.1547  1.1326
  963MOL0     H29984  14.060  10.067   8.558  0.1831 -0.5191  1.6902
  963MOL0     H29985  13.174   9.659   8.959 -3.5914 -2.3006 -0.3336
  963MOL0     H29986  13.026   9.551   9.134  0.1121  0.5178 -1.2767
  963MOL0     H29987  12.612   9.617   9.237 -0.5559  0.9642  0.3820
  963MOL0     H29988  12.376   9.587   9.305 -1.1419  1.3749  0.0623
  963MOL0     H29989  10.855  10.643  10.345 -2.9234  1.3110  1.8362
  963MOL0     H29990  10.665  10.788  10.335 -2.2991  2.3039 -2.0418
  963MOL0     H29991  10.451  11.032   9.886  0.4432  0.2063  1.2630
  963MOL0     H29992  10.275  11.185   9.813  0.2034 -1.9146  0.3690
  963MOL0     H29993  10.071  11.533   9.932  0.7662  1.1042  1.4952
  963MOL0     H29994  10.219  11.547  10.038  0.0869  0.8970  0.5801
  963MOL0     H29995   9.992  11.558  10.162 -3.4959 -2.3431 -0.1971
  963MOL0     H29996  10.101  11.418  10.203 -0.3347  0.0776  0.7086
  963MOL0     H29997   9.983  11.270  10.098  1.2078  1.0686  4.3539
  963MOL0     H29998   9.868  11.385  10.017 -0.4657 -0.3450 -0.2794
  963MOL0     H29999   9.861  11.264  10.289 -0.9071 -0.6201 -0.2898
  963MOL0     H30000   9.874  11.436  10.302  0.7530  1.1502 -1.5920
  963MOL0     H30001   9.482  11.351  10.162  0.3578 -0.0896  0.9657
  963MOL0     H30002  10.305  11.393  10.175 -0.3604  2.1877 -3.7281
  963MOL0     H30003  10.501  11.205  10.373  1.7817 -0.9273 -0.1512
  963MOL0     H30004  10.611  11.271  10.259 -0.9754  0.0406 -0.9315
  963MOL0     H30005  10.482  11.372  10.307  2.0559  0.7703  0.9468
  964MOL0     O30006   5.033   1.879   7.726  1.3175  0.1089 -0.5325
  964MOL0     C30007   4.941   1.946   7.776  0.3302 -0.0672  0.0556
  964MOL0     O30008   4.938   2.082   7.794 -0.1431  0.6099 -0.1637
  964MOL0     C30009   5.066   2.142   7.781 -0.2652  0.7140 -0.8551
  964MOL0     C30010   5.112   2.217   7.890 -1.0921 -0.4466 -0.3141
  964MOL0     C30011   5.234   2.300   7.879  0.7529 -0.8904 -0.2869
  964MOL0     C30012   5.301   2.298   7.750 -0.2788  0.6660 -0.5994
  964MOL0     O30013   5.413   2.367   7.742 -0.3474  0.0905 -1.2828
  964MOL0     C30014   5.448   2.427   7.619 -0.8658 -0.4331 -0.1762
  964MOL0     C30015   5.571   2.527   7.629  0.0540 -0.2158  1.1654
  964MOL0     C30016   5.534   2.652   7.698  0.2407 -0.4317 -0.7187
  964MOL0     C30017   5.620   2.764   7.626 -0.3419 -0.1431 -0.3051
  964MOL0     C30018   5.607   2.905   7.685 -0.6268 -0.1225 -0.0142
  964MOL0     C30019   5.718   2.985   7.621  0.9194 -0.1727 -0.5702
  964MOL0     C30020   5.752   3.120   7.695  0.5985 -0.1901  0.8842
  964MOL0     C30021   5.631   3.212   7.682 -0.8085  0.2020 -0.2703
  964MOL0     N30022   5.664   3.348   7.726  0.6483  0.8145 -0.5401
  964MOL0     C30023   5.701   3.380   7.853 -0.3207 -0.2382 -0.1342
  964MOL0     C30024   5.721   3.515   7.848 -0.2934 -0.7510  0.6558
  964MOL0     C30025   5.778   3.601   7.962  0.2286  0.7357  0.2719
  964MOL0     C30026   5.926   3.581   7.991  0.1078  0.0520 -0.0971
  964MOL0     C30027   6.016   3.586   7.862  0.5646 -1.0895 -0.6012
  964MOL0     C30028   6.159   3.550   7.898  0.8273  0.4224 -0.4860
  964MOL0     O30029   6.212   3.642   7.995 -0.0913  0.0747  0.0498
  964MOL0     C30030   6.346   3.664   8.013 -0.2727 -0.0291 -0.2566
  964MOL0     C30031   6.394   3.752   8.109 -0.8662 -0.1276  0.6364
  964MOL0     C30032   6.524   3.762   8.132  0.2620  0.0921 -0.7299
  964MOL0     C30033   6.622   3.683   8.062 -0.3606  1.0099  0.3532
  964MOL0     C30034   6.774   3.680   8.093  0.1524  0.6722 -0.9101
  964MOL0     O30035   6.822   3.761   8.203 -0.1624  0.2381 -0.1355
  964MOL0     C30036   6.949   3.790   8.214 -0.9893  1.2795  0.1711
  964MOL0     C30037   6.979   3.908   8.281  0.4971 -0.0661 -0.2471
  964MOL0     C30038   7.111   3.939   8.321 -0.1527 -0.5435  0.2097
  964MOL0     C30039   7.216   3.860   8.286  0.1433  0.2052  0.3421
  964MOL0     O30040   7.344   3.900   8.325 -0.3338 -0.4613 -0.2270
  964MOL0     C30041   7.454   3.839   8.265  0.2304  0.3153 -0.1550
  964MOL0     C30042   7.584   3.920   8.305  0.5790 -1.1910 -0.8957
  964MOL0     C30043   7.706   3.829   8.252 -0.2597 -0.7565 -0.3718
  964MOL0     C30044   7.833   3.910   8.258 -0.8790  0.8243  0.2180
  964MOL0     C30045   7.943   3.827   8.197  0.1371 -0.0261  0.0839
  964MOL0     C30046   8.073   3.913   8.209 -0.1568 -0.4055  0.4169
  964MOL0     C30047   8.085   4.028   8.117 -0.7839 -0.8248  0.4236
  964MOL0     C30048   8.239   4.057   8.076 -0.3190 -0.5949  0.3316
  964MOL0    Cl30049   8.249   4.224   8.017 -0.1814  0.1615  0.1417
  964MOL0     C30050   7.193   3.750   8.207  0.3057  1.3285  0.0048
  964MOL0     C30051   7.060   3.712   8.168  0.5824 -0.2281 -1.1305
  964MOL0     O30052   6.842   3.605   8.029 -0.0670  0.1644 -0.1052
  964MOL0     C30053   6.574   3.602   7.954  0.8395 -0.7884 -0.3321
  964MOL0     C30054   6.438   3.594   7.935 -0.7021  0.0593 -0.1848
  964MOL0     N30055   5.697   3.562   7.724  0.4689 -0.1708  0.2729
  964MOL0     N30056   5.658   3.458   7.652 -0.0213 -0.4856 -0.0023
  964MOL0     C30057   5.259   2.207   7.654  0.7652  0.2726 -0.2928
  964MOL0     C30058   5.139   2.137   7.665  0.1892  0.3480 -0.1858
  964MOL0     C30059   4.821   1.878   7.831  0.8378  0.0294 -1.0066
  964MOL0     C30060   4.744   1.947   7.931  0.2502 -0.7092  0.7167
  964MOL0     C30061   4.626   1.889   7.980 -0.6852 -0.4390  0.2810
  964MOL0     C30062   4.592   1.756   7.942 -0.3759  0.3218  0.0237
  964MOL0     O30063   4.505   1.693   8.028 -0.2270 -0.2526 -0.3704
  964MOL0     C30064   4.478   1.554   8.028 -0.3689 -0.0874  0.0730
  964MOL0     C30065   4.339   1.537   8.101 -0.2545 -0.2687  0.4062
  964MOL0     C30066   4.304   1.385   8.113  0.4152  0.0614 -0.0458
  964MOL0     C30067   4.171   1.373   8.204  0.8101 -0.0646  0.2360
  964MOL0     C30068   4.063   1.426   8.113 -0.4983  1.1615 -0.0359
  964MOL0     C30069   3.979   1.477   8.047 -0.2359  0.1478  0.7208
  964MOL0     C30070   4.669   1.689   7.851 -0.6738 -0.4909 -0.2163
  964MOL0     C30071   4.784   1.740   7.793 -0.2109 -0.4103  0.6101
  964MOL0     C30072   4.851   1.659   7.687 -0.1242 -0.4361 -0.0357
  964MOL0     H30073   5.045   2.209   7.975 -2.3271 -1.4093 -1.3551
  964MOL0     H30074   5.260   2.366   7.961  1.8487  0.9288 -2.0123
  964MOL0     H30075   5.484   2.349   7.551  1.3171  0.3834 -0.0308
  964MOL0     H30076   5.365   2.484   7.575  1.1696  3.6686  0.8507
  964MOL0     H30077   5.597   2.553   7.526  2.8262  2.0123  2.3143
  964MOL0     H30078   5.665   2.487   7.669  1.2559  1.6085  0.3086
  964MOL0     H30079   5.538   2.653   7.807 -0.6734 -0.3921 -0.6758
  964MOL0     H30080   5.433   2.686   7.672 -2.0340 -5.0355  0.9623
  964MOL0     H30081   5.725   2.733   7.623  0.4100  2.0609  0.9508
  964MOL0     H30082   5.577   2.764   7.526  0.7289 -2.4597 -0.8223
  964MOL0     H30083   5.505   2.942   7.668 -0.9319 -0.8691  0.1592
  964MOL0     H30084   5.629   2.909   7.793  0.6253  0.6242 -0.2704
  964MOL0     H30085   5.806   2.919   7.624  2.4080  1.5756 -2.6173
  964MOL0     H30086   5.688   3.009   7.519 -0.7806 -0.4611 -0.1672
  964MOL0     H30087   5.845   3.153   7.647  1.6308 -1.0708  2.2001
  964MOL0     H30088   5.777   3.105   7.800 -0.6196 -2.0109  0.9550
  964MOL0     H30089   5.600   3.210   7.577  2.8774 -0.7889 -1.5050
  964MOL0     H30090   5.566   3.165   7.756  3.1981 -1.5698  2.4975
  964MOL0     H30091   5.730   3.306   7.927  1.9625  0.0556 -0.6593
  964MOL0     H30092   5.772   3.704   7.926 -1.3395  0.3097 -0.7646
  964MOL0     H30093   5.719   3.590   8.054 -1.1229 -0.8439 -0.7092
  964MOL0     H30094   5.960   3.660   8.058 -0.1442 -1.2101  1.5988
  964MOL0     H30095   5.934   3.481   8.035 -1.0096  0.4515  1.0774
  964MOL0     H30096   6.004   3.678   7.804 -1.2321 -2.1278 -1.9866
  964MOL0     H30097   5.970   3.520   7.788 -1.0596  2.3895 -2.9592
  964MOL0     H30098   6.215   3.559   7.804 -1.3548  2.2433 -1.6960
  964MOL0     H30099   6.148   3.451   7.942 -4.0950  0.8487 -0.1933
  964MOL0     H30100   6.329   3.820   8.162 -0.1209 -0.4984  2.0614
  964MOL0     H30101   6.558   3.832   8.207 -1.1710  1.8702 -1.6673
  964MOL0     H30102   6.898   3.974   8.308  0.6109  0.1998 -0.5418
  964MOL0     H30103   7.120   4.040   8.360 -0.0301  0.0405 -1.2353
  964MOL0     H30104   7.459   3.738   8.305  0.3350 -0.3616 -1.8156
  964MOL0     H30105   7.437   3.848   8.158 -1.3014  1.8359  0.1576
  964MOL0     H30106   7.584   4.016   8.252 -3.5530  1.0175  2.4532
  964MOL0     H30107   7.586   3.935   8.413  0.0573 -1.5993 -0.8291
  964MOL0     H30108   7.727   3.745   8.319 -0.8702 -2.2588 -1.9559
  964MOL0     H30109   7.683   3.777   8.158 -2.0845  2.8626 -2.1380
  964MOL0     H30110   7.845   3.936   8.363 -0.4117 -0.0314  0.3863
  964MOL0     H30111   7.821   4.005   8.205 -3.4071 -0.2335 -1.2825
  964MOL0     H30112   7.911   3.797   8.096 -0.1652 -2.1602  0.7551
  964MOL0     H30113   7.955   3.735   8.255  0.5790  1.3587  2.2809
  964MOL0     H30114   8.081   3.948   8.312 -3.5487  0.8524  0.3739
  964MOL0     H30115   8.149   3.837   8.188 -0.3939 -1.5122  3.1890
  964MOL0     H30116   8.040   4.117   8.161  0.9521  0.5899 -0.5579
  964MOL0     H30117   8.037   4.011   8.020  1.7526  0.0924 -1.0814
  964MOL0     H30118   8.297   4.053   8.169 -0.7589 -1.6364  0.5807
  964MOL0     H30119   8.274   3.992   7.995  3.0960  3.4571 -1.8805
  964MOL0     H30120   7.274   3.680   8.184 -1.1421 -0.0121 -1.2596
  964MOL0     H30121   7.044   3.616   8.118 -2.2033 -0.7917  0.6393
  964MOL0     H30122   6.634   3.551   7.879  0.4190 -0.0918 -1.1626
  964MOL0     H30123   6.421   3.527   7.851  3.4149  2.2104 -3.1156
  964MOL0     H30124   5.326   2.181   7.573 -0.7723 -2.2346 -0.8786
  964MOL0     H30125   5.107   2.076   7.581  0.4707 -0.3035  0.1718
  964MOL0     H30126   4.776   2.045   7.965 -3.0350  0.7514  0.0195
  964MOL0     H30127   4.573   1.950   8.052 -0.3329  0.9011 -0.5603
  964MOL0     H30128   4.553   1.496   8.082 -1.6463 -1.8212  0.0678
  964MOL0     H30129   4.464   1.520   7.925 -1.1889  0.4902 -0.0191
  964MOL0     H30130   4.264   1.600   8.050  0.5430  0.5733  0.2477
  964MOL0     H30131   4.349   1.579   8.201  0.0271  0.9376 -0.1050
  964MOL0     H30132   4.388   1.329   8.155  0.7039  0.0650 -0.6044
  964MOL0     H30133   4.290   1.355   8.009  3.4878  0.9229 -0.7953
  964MOL0     H30134   4.151   1.269   8.233  1.7444 -0.2586  0.1949
  964MOL0     H30135   4.169   1.429   8.297  1.2231  0.1044  0.1420
  964MOL0     H30136   3.903   1.510   7.980 -0.3942 -1.6537 -0.0152
  964MOL0     H30137   4.650   1.585   7.828  2.0739 -1.3763  1.1072
  964MOL0     H30138   4.784   1.585   7.643 -0.6409  0.1584 -0.2715
  964MOL0     H30139   4.875   1.733   7.610 -1.2473  0.1350  0.1407
  964MOL0     H30140   4.948   1.617   7.715  0.4802  0.6853 -0.3918
  965MOL0     O30141   5.132   3.112   4.665  0.3741 -0.5488  0.1227
  965MOL0     C30142   5.151   2.996   4.689 -0.4394  0.4462 -0.5107
  965MOL0     O30143   5.071   2.892   4.661  0.2247 -0.2484 -0.3199
  965MOL0     C30144   4.968   2.899   4.572  0.1428 -0.6638 -0.4500
  965MOL0     C30145   4.988   2.860   4.444 -0.6976  1.1329 -0.4005
  965MOL0     C30146   4.885   2.857   4.350 -0.0198  0.5866 -0.0171
  965MOL0     C30147   4.760   2.897   4.377  0.3530 -0.5115 -0.3862
  965MOL0     O30148   4.651   2.894   4.295 -0.3921 -0.6326 -0.5932
  965MOL0     C30149   4.668   2.820   4.171 -0.2239  0.2470 -0.3501
  965MOL0     C30150   4.524   2.785   4.118 -0.4450  1.0166  0.0445
  965MOL0     C30151   4.506   2.678   4.018  0.1418 -0.4493 -0.2974
  965MOL0     C30152   4.359   2.683   3.976  0.7950  0.5382 -0.1665
  965MOL0     C30153   4.328   2.566   3.872  0.4957  0.6427 -0.0503
  965MOL0     C30154   4.176   2.575   3.850  0.2992  0.3319  0.5602
  965MOL0     C30155   4.123   2.467   3.753 -0.3819  0.0769  0.2656
  965MOL0     C30156   4.115   2.329   3.822  0.6799 -0.4498 -0.3565
  965MOL0     N30157   4.050   2.229   3.736  0.2499 -0.0295 -0.1568
  965MOL0     C30158   4.098   2.179   3.622  0.3377 -0.3614 -0.1031
  965MOL0     C30159   4.005   2.089   3.574  1.2845 -0.6324 -0.5373
  965MOL0     C30160   3.998   2.014   3.446  0.1349 -0.5866 -0.3469
  965MOL0     C30161   4.109   1.909   3.440 -0.8313  0.7188  0.0923
  965MOL0     C30162   4.100   1.800   3.551  0.2364  0.2783 -0.4827
  965MOL0     C30163   4.224   1.719   3.549 -0.9566 -0.0037  0.1712
  965MOL0     O30164   4.227   1.602   3.632  0.1684 -0.5613 -0.0730
  965MOL0     C30165   4.239   1.619   3.769 -0.0205 -0.0801 -0.5067
  965MOL0     C30166   4.323   1.722   3.826 -0.2276  1.0444  0.3993
  965MOL0     C30167   4.352   1.721   3.962  0.6613  0.0075  0.4968
  965MOL0     C30168   4.294   1.632   4.050 -0.7335  0.0917 -0.2140
  965MOL0     C30169   4.312   1.643   4.193 -0.0898  0.5206 -0.2000
  965MOL0     O30170   4.241   1.555   4.263 -0.1572  0.0800  0.0622
  965MOL0     C30171   4.154   1.600   4.361 -0.2614 -0.1641  1.0983
  965MOL0     C30172   4.109   1.734   4.359 -0.4009 -0.0214 -0.0912
  965MOL0     C30173   4.015   1.779   4.450  0.2259 -0.5080 -0.4772
  965MOL0     C30174   3.961   1.691   4.549  0.2255  0.3600 -1.2266
  965MOL0     O30175   3.868   1.710   4.641 -0.0573  0.4485 -0.4445
  965MOL0     C30176   3.829   1.845   4.686 -0.0738  0.3650  0.0591
  965MOL0     C30177   3.717   1.849   4.783 -0.2874 -0.1500  0.7973
  965MOL0     C30178   3.586   1.866   4.699  0.8765  0.4312  0.1056
  965MOL0     C30179   3.459   1.872   4.800 -0.6366  0.1504 -0.3492
  965MOL0     C30180   3.333   1.897   4.712  0.3019  0.1745 -0.2662
  965MOL0     C30181   3.306   1.792   4.605 -0.1693 -0.0899  0.9057
  965MOL0     C30182   3.191   1.838   4.517 -0.8367  0.4813 -0.2419
  965MOL0     C30183   3.183   1.741   4.396 -0.6703  0.4825 -0.3091
  965MOL0    Cl30184   3.139   1.580   4.452 -0.1611  0.3005 -0.0039
  965MOL0     C30185   4.012   1.556   4.551 -0.4196  0.5518  0.7713
  965MOL0     C30186   4.098   1.510   4.450 -0.3447  0.1106 -1.2559
  965MOL0     O30187   4.383   1.730   4.236  0.4404 -1.0607 -0.6907
  965MOL0     C30188   4.210   1.532   4.000 -0.5488 -0.4359 -0.5426
  965MOL0     C30189   4.178   1.532   3.866 -0.4678  0.0429 -0.0811
  965MOL0     N30190   3.913   2.079   3.670 -0.1886 -0.9246  0.1290
  965MOL0     N30191   3.939   2.161   3.762 -0.3078 -0.2211  0.3698
  965MOL0     C30192   4.733   2.947   4.514 -0.1617 -1.4768 -0.2060
  965MOL0     C30193   4.838   2.942   4.608 -0.0666 -0.7910 -0.3888
  965MOL0     C30194   5.288   2.962   4.754  0.4006 -0.2383 -0.8357
  965MOL0     C30195   5.343   2.831   4.743 -0.9732  0.3964  0.2134
  965MOL0     C30196   5.463   2.793   4.799 -0.3911  0.3585  0.5241
  965MOL0     C30197   5.541   2.885   4.865 -0.3047 -0.9400 -0.1389
  965MOL0     O30198   5.663   2.842   4.908 -0.4605 -0.8540 -0.3581
  965MOL0     C30199   5.761   2.940   4.944 -0.1348  0.6215  1.0017
  965MOL0     C30200   5.752   2.961   5.097 -0.0398 -0.1379  0.4593
  965MOL0     C30201   5.854   2.867   5.169 -0.3196  0.4437  0.4761
  965MOL0     C30202   6.002   2.864   5.109  0.4155  0.3139 -0.2559
  965MOL0     C30203   6.062   2.998   5.090  0.3707  0.3595  0.3630
  965MOL0     C30204   6.129   3.089   5.046 -0.2824 -0.6759  0.5514
  965MOL0     C30205   5.484   3.014   4.883  0.5413  0.1894  0.6077
  965MOL0     C30206   5.363   3.054   4.826  0.5539  0.2973  0.0495
  965MOL0     C30207   5.310   3.204   4.866 -0.4839  0.7105  0.3598
  965MOL0     H30208   5.082   2.821   4.405 -0.4356  2.2409 -0.9205
  965MOL0     H30209   4.919   2.813   4.257  3.0506 -1.2830  1.8080
  965MOL0     H30210   4.730   2.868   4.095 -1.3250  2.5607  0.1045
  965MOL0     H30211   4.702   2.717   4.185 -0.0603  0.3617  0.1047
  965MOL0     H30212   4.478   2.880   4.087 -3.7809 -0.4827 -0.0600
  965MOL0     H30213   4.467   2.747   4.203 -1.6920 -1.2160 -1.6951
  965MOL0     H30214   4.518   2.579   4.063 -3.6152 -1.6472 -1.5313
  965MOL0     H30215   4.568   2.706   3.933  0.3626  3.0551  0.8417
  965MOL0     H30216   4.285   2.662   4.053  0.2532  3.8796  0.3961
  965MOL0     H30217   4.342   2.782   3.933  5.5086  1.0133 -1.5535
  965MOL0     H30218   4.391   2.592   3.786 -0.4200  4.6102  0.2523
  965MOL0     H30219   4.354   2.469   3.913  0.6003  0.5592 -0.3123
  965MOL0     H30220   4.110   2.571   3.937 -0.9157  1.3293 -0.2709
  965MOL0     H30221   4.158   2.675   3.810 -1.1566 -1.2414 -3.2116
  965MOL0     H30222   4.182   2.464   3.661 -1.7790 -1.2251 -0.6320
  965MOL0     H30223   4.022   2.486   3.714 -1.1912 -3.2341  0.4784
  965MOL0     H30224   4.214   2.295   3.853  0.7185  0.2080  0.2542
  965MOL0     H30225   4.051   2.330   3.910  2.0383 -1.0654  0.6694
  965MOL0     H30226   4.179   2.209   3.556  0.9082 -2.0352 -0.2066
  965MOL0     H30227   3.901   1.966   3.434  0.4698 -1.0217 -1.4876
  965MOL0     H30228   4.008   2.080   3.359 -0.6397 -2.3055 -1.7948
  965MOL0     H30229   4.117   1.864   3.341  1.1241  1.7765 -0.2902
  965MOL0     H30230   4.205   1.960   3.455 -0.2784 -0.0335 -0.8348
  965MOL0     H30231   4.018   1.733   3.523  0.4733 -0.9445  1.5891
  965MOL0     H30232   4.090   1.842   3.652  1.0341  2.7838 -1.3572
  965MOL0     H30233   4.310   1.784   3.568  0.7084 -0.3313 -4.7673
  965MOL0     H30234   4.239   1.674   3.450  0.0821 -0.2681  0.4345
  965MOL0     H30235   4.389   1.781   3.763 -0.5020 -2.1397 -3.2303
  965MOL0     H30236   4.427   1.792   3.995  2.5755 -2.7673  2.5446
  965MOL0     H30237   4.141   1.799   4.279 -0.6867  0.1948 -0.0309
  965MOL0     H30238   3.981   1.882   4.456  0.7706 -0.3356 -0.2662
  965MOL0     H30239   3.919   1.883   4.734  0.9314 -2.5663  0.7196
  965MOL0     H30240   3.806   1.919   4.609  4.6923  2.9118  0.6618
  965MOL0     H30241   3.716   1.750   4.830 -0.3596  1.2842  4.0937
  965MOL0     H30242   3.741   1.930   4.852  1.0556 -1.0000  1.3750
  965MOL0     H30243   3.602   1.960   4.646  3.0031 -0.7885 -1.5892
  965MOL0     H30244   3.568   1.787   4.626  0.3350  0.6252  0.0229
  965MOL0     H30245   3.464   1.952   4.874 -1.3539 -0.8822  0.8569
  965MOL0     H30246   3.457   1.782   4.863 -0.9575  1.0009  0.8764
  965MOL0     H30247   3.344   1.992   4.661 -1.2931  1.3556  1.4566
  965MOL0     H30248   3.244   1.901   4.776 -0.5402 -0.9936 -1.3180
  965MOL0     H30249   3.395   1.769   4.545  0.9633 -1.5351  2.9679
  965MOL0     H30250   3.269   1.701   4.653 -1.7615 -2.1635 -3.6853
  965MOL0     H30251   3.201   1.942   4.486  0.3282  0.4425 -0.0355
  965MOL0     H30252   3.099   1.834   4.576  0.4414  2.0506  2.0085
  965MOL0     H30253   3.103   1.770   4.327 -1.8498  0.4404  0.9853
  965MOL0     H30254   3.283   1.735   4.353 -0.7842  0.2170 -0.5439
  965MOL0     H30255   3.969   1.482   4.617  1.6546 -1.8301 -0.3813
  965MOL0     H30256   4.137   1.409   4.455  1.2667  0.5250  6.0416
  965MOL0     H30257   4.162   1.454   4.057  1.1293 -0.4446  0.9474
  965MOL0     H30258   4.107   1.464   3.821 -1.1071  0.4828  0.2489
  965MOL0     H30259   4.631   2.978   4.533 -0.3995 -1.0790 -1.9112
  965MOL0     H30260   4.818   2.946   4.714  0.9452  0.1539 -0.2238
  965MOL0     H30261   5.280   2.755   4.697 -1.2751  0.8783 -0.1900
  965MOL0     H30262   5.497   2.697   4.763  0.4889  1.5128 -2.0452
  965MOL0     H30263   5.748   3.036   4.893  2.5739  1.1377  1.1269
  965MOL0     H30264   5.859   2.912   4.905 -0.9701  0.9080 -1.4172
  965MOL0     H30265   5.650   2.953   5.136  0.5023 -1.0170  1.7442
  965MOL0     H30266   5.776   3.067   5.114 -0.8148 -0.1262  1.5679
  965MOL0     H30267   5.821   2.763   5.169  1.7345 -0.2567  0.5863
  965MOL0     H30268   5.848   2.886   5.277 -1.8609 -2.2076  0.9431
  965MOL0     H30269   6.067   2.809   5.177  2.4592  2.6238 -0.2080
  965MOL0     H30270   6.004   2.803   5.018  1.2900  0.2238 -0.1864
  965MOL0     H30271   6.182   3.165   4.992 -0.7433  0.1349  1.1975
  965MOL0     H30272   5.523   3.084   4.957 -1.5846  1.0879  0.9602
  965MOL0     H30273   5.325   3.270   4.780  2.0266  1.2948  1.1624
  965MOL0     H30274   5.206   3.207   4.897 -0.2103  3.2023  1.2482
  965MOL0     H30275   5.370   3.254   4.943  0.3373  2.3429 -1.2525
  966MOL0     O30276   4.513   2.991   7.227 -0.4065  1.0257  0.2350
  966MOL0     C30277   4.471   3.106   7.201 -0.5028 -0.4440 -0.4277
  966MOL0     O30278   4.466   3.206   7.300  0.1446  0.0186  0.2301
  966MOL0     C30279   4.562   3.202   7.400  0.0953  0.6566  0.5648
  966MOL0     C30280   4.694   3.154   7.373 -1.0060  0.0162 -0.3168
  966MOL0     C30281   4.793   3.166   7.471  0.2019 -0.5103 -0.7227
  966MOL0     C30282   4.764   3.238   7.595  0.9452 -0.1602  0.5799
  966MOL0     O30283   4.873   3.252   7.690  1.0261 -0.5929  0.5368
  966MOL0     C30284   4.857   3.325   7.810  0.5182 -0.8504 -0.1422
  966MOL0     C30285   4.787   3.247   7.921 -0.0091  0.2361 -0.6988
  966MOL0     C30286   4.755   3.323   8.046  0.2542  1.1979 -0.3031
  966MOL0     C30287   4.866   3.412   8.102 -0.0678  0.5589  0.7062
  966MOL0     C30288   4.988   3.314   8.143 -0.3711 -0.2769  0.8606
  966MOL0     C30289   5.116   3.385   8.193 -0.3345 -1.1740  1.4192
  966MOL0     C30290   5.175   3.488   8.097  0.6024 -0.4521  0.4636
  966MOL0     C30291   5.322   3.526   8.130 -0.4491 -0.1568 -0.4164
  966MOL0     N30292   5.343   3.580   8.263 -0.0220 -0.6101  0.1074
  966MOL0     C30293   5.298   3.710   8.290  0.8925  0.0711  0.2720
  966MOL0     C30294   5.318   3.713   8.423  0.2385 -0.7348 -1.0645
  966MOL0     C30295   5.290   3.837   8.508  0.3692 -0.2225  0.4474
  966MOL0     C30296   5.279   3.808   8.662  0.3430 -0.1515  0.5784
  966MOL0     C30297   5.265   3.939   8.737 -0.8365  0.5764 -0.0088
  966MOL0     C30298   5.126   3.992   8.742 -0.7474 -0.9591 -0.5018
  966MOL0     O30299   5.081   3.926   8.861  0.3716  0.3660 -0.6941
  966MOL0     C30300   4.946   3.915   8.874  0.7291 -0.3432  0.9052
  966MOL0     C30301   4.850   3.994   8.803 -0.5219  0.3422 -0.5078
  966MOL0     C30302   4.708   3.983   8.830 -0.1679  0.1871 -0.2425
  966MOL0     C30303   4.662   3.875   8.917 -0.0545 -0.3378 -0.0721
  966MOL0     C30304   4.519   3.844   8.937  0.4850 -0.2764 -0.4676
  966MOL0     O30305   4.438   3.918   8.853 -0.3019 -0.2141 -0.0759
  966MOL0     C30306   4.304   3.925   8.867  0.3404 -0.3593 -0.1731
  966MOL0     C30307   4.219   3.818   8.825 -0.1847  1.2740 -0.6664
  966MOL0     C30308   4.079   3.836   8.809 -0.1413  0.0701  0.4840
  966MOL0     C30309   4.028   3.964   8.830 -0.1727  0.9908 -0.1345
  966MOL0     O30310   3.896   3.972   8.801 -0.6620 -0.0983  1.1080
  966MOL0     C30311   3.811   4.057   8.878 -0.9220 -0.4693  0.5017
  966MOL0     C30312   3.671   4.057   8.814  0.0341 -0.0336 -0.1056
  966MOL0     C30313   3.578   4.171   8.866 -1.3101 -0.1955 -0.0008
  966MOL0     C30314   3.421   4.152   8.822  0.4611 -0.1354  0.0258
  966MOL0     C30315   3.332   4.271   8.870 -0.5663 -0.1188 -1.0413
  966MOL0     C30316   3.181   4.245   8.834  0.6399  0.3925 -0.3751
  966MOL0     C30317   3.094   4.350   8.880 -0.1492  0.3065  0.0390
  966MOL0     C30318   2.946   4.334   8.854 -0.6596 -0.5766  0.3966
  966MOL0    Cl30319   2.865   4.212   8.941 -0.0254  0.0603  0.4001
  966MOL0     C30320   4.111   4.067   8.868  0.2969  0.7517 -0.4477
  966MOL0     C30321   4.245   4.046   8.900  0.9421  0.9366 -0.4032
  966MOL0     O30322   4.488   3.764   9.025  0.0515  0.6125 -0.3111
  966MOL0     C30323   4.762   3.792   8.984  0.0510 -0.1226 -0.0897
  966MOL0     C30324   4.898   3.816   8.964 -0.0748  0.0078  0.2462
  966MOL0     N30325   5.363   3.591   8.470  0.1375  0.1616  0.3646
  966MOL0     N30326   5.394   3.518   8.374 -0.4667 -0.4111 -0.2978
  966MOL0     C30327   4.628   3.279   7.619  0.2948  0.0836  0.5634
  966MOL0     C30328   4.523   3.252   7.529 -0.5364  0.0550  0.2609
  966MOL0     C30329   4.412   3.123   7.063 -0.5399 -0.9088  0.2648
  966MOL0     C30330   4.335   3.248   7.044 -0.6511  0.2039 -0.4021
  966MOL0     C30331   4.283   3.286   6.921 -0.1617 -0.1734  0.8227
  966MOL0     C30332   4.288   3.197   6.812 -0.1741 -0.5331 -0.0879
  966MOL0     O30333   4.247   3.236   6.684 -0.3946  0.2564  0.5796
  966MOL0     C30334   4.209   3.373   6.656  0.6079  0.3849  0.5762
  966MOL0     C30335   4.070   3.378   6.593  0.3018 -0.5264 -0.2692
  966MOL0     C30336   4.071   3.346   6.439 -0.6706 -0.1757 -0.8188
  966MOL0     C30337   3.931   3.348   6.382  0.4148 -1.0118  0.2599
  966MOL0     C30338   3.840   3.245   6.438  0.3376  1.0360 -0.3305
  966MOL0     C30339   3.767   3.156   6.488  0.5110 -0.1375 -0.1428
  966MOL0     C30340   4.350   3.074   6.828 -0.2421 -0.4077  0.4504
  966MOL0     C30341   4.424   3.042   6.951  0.5723  0.6600 -0.0176
  966MOL0     C30342   4.504   2.916   6.952 -0.5500  0.4932 -0.0874
  966MOL0     H30343   4.722   3.131   7.271  1.3607  4.1610 -0.8154
  966MOL0     H30344   4.899   3.146   7.453  0.5905  0.6680  0.1292
  966MOL0     H30345   4.956   3.368   7.828  1.1384 -0.9714 -2.8593
  966MOL0     H30346   4.795   3.412   7.787  3.1866  1.0015 -0.7771
  966MOL0     H30347   4.847   3.158   7.942 -1.2460 -0.5305 -0.3529
  966MOL0     H30348   4.691   3.213   7.881 -2.2596  0.9248  3.5522
  966MOL0     H30349   4.718   3.256   8.124  0.0856  3.2302  1.4700
  966MOL0     H30350   4.671   3.389   8.024 -1.5838 -1.5410 -2.1825
  966MOL0     H30351   4.897   3.492   8.033  0.4196  0.4727  0.8181
  966MOL0     H30352   4.839   3.473   8.188 -0.0603  0.4621  0.7775
  966MOL0     H30353   4.958   3.252   8.228  3.8933 -2.2198  1.1745
  966MOL0     H30354   5.016   3.248   8.061 -3.5089 -1.5768  0.6670
  966MOL0     H30355   5.086   3.431   8.288 -1.4293  0.9426  0.1257
  966MOL0     H30356   5.191   3.309   8.219  1.2558 -0.6809 -1.3727
  966MOL0     H30357   5.113   3.578   8.108  0.9446  0.1672 -2.0689
  966MOL0     H30358   5.180   3.453   7.994  1.7082  3.1251 -0.8383
  966MOL0     H30359   5.380   3.437   8.106 -1.8346 -0.5151 -2.7904
  966MOL0     H30360   5.366   3.599   8.061  2.4904 -1.9911 -0.6252
  966MOL0     H30361   5.242   3.784   8.233  1.2362  0.8737  0.9532
  966MOL0     H30362   5.368   3.910   8.487 -2.9214  3.2507 -0.7920
  966MOL0     H30363   5.197   3.877   8.466 -0.1349  0.1710  1.8848
  966MOL0     H30364   5.199   3.738   8.686 -1.7911  1.9516 -0.0646
  966MOL0     H30365   5.380   3.777   8.691  0.6594 -1.1628 -1.4422
  966MOL0     H30366   5.347   4.008   8.718  0.6736 -0.3852  2.4247
  966MOL0     H30367   5.304   3.917   8.837 -1.2838 -1.7380 -0.2799
  966MOL0     H30368   5.065   3.964   8.656  0.0737  0.1835 -1.4883
  966MOL0     H30369   5.118   4.100   8.758 -1.1842 -1.1027  0.3272
  966MOL0     H30370   4.882   4.064   8.726 -1.4388 -3.4795 -4.8188
  966MOL0     H30371   4.638   4.050   8.782 -0.0142  1.3269  1.0488
  966MOL0     H30372   4.258   3.718   8.810 -0.2501  1.3176 -1.1511
  966MOL0     H30373   4.012   3.768   8.757  0.4256  2.3063 -3.6662
  966MOL0     H30374   3.803   4.029   8.984 -1.2213  1.7586  1.1263
  966MOL0     H30375   3.854   4.157   8.883  0.2626 -1.0262  2.6404
  966MOL0     H30376   3.690   4.069   8.707  0.3389 -2.1176 -0.3142
  966MOL0     H30377   3.625   3.960   8.832 -0.2578  0.2374  0.6213
  966MOL0     H30378   3.580   4.190   8.974 -0.1192  1.5541 -0.2856
  966MOL0     H30379   3.614   4.263   8.820 -1.1122  0.4937  1.4646
  966MOL0     H30380   3.383   4.062   8.871 -2.6645 -1.6653 -4.4939
  966MOL0     H30381   3.422   4.138   8.713  0.9862  1.0286 -0.1326
  966MOL0     H30382   3.367   4.365   8.827 -1.4027  0.0891 -1.2917
  966MOL0     H30383   3.340   4.271   8.979  3.3011 -2.2953 -1.1297
  966MOL0     H30384   3.157   4.226   8.729 -0.5274 -1.4981  0.1818
  966MOL0     H30385   3.151   4.154   8.887 -2.2796  2.3592  1.6486
  966MOL0     H30386   3.113   4.437   8.818 -1.1214 -0.0015 -0.7230
  966MOL0     H30387   3.123   4.373   8.983 -1.4953  0.5491  0.3816
  966MOL0     H30388   2.888   4.423   8.879  0.3929 -0.3817  2.3678
  966MOL0     H30389   2.932   4.314   8.748  1.5439  0.8967 -0.2410
  966MOL0     H30390   4.059   4.161   8.879  0.5259  1.0205 -1.5786
  966MOL0     H30391   4.307   4.135   8.913 -0.0205  1.6744 -0.6876
  966MOL0     H30392   4.730   3.708   9.046  4.3387 -0.7173  1.6649
  966MOL0     H30393   4.966   3.747   9.012  0.6393 -0.7062 -1.7143
  966MOL0     H30394   4.603   3.338   7.706  1.0757  1.2605  0.0194
  966MOL0     H30395   4.426   3.297   7.547 -0.1332  1.6695 -1.2724
  966MOL0     H30396   4.317   3.324   7.119 -0.7668  0.6683 -0.8991
  966MOL0     H30397   4.238   3.385   6.918  0.6110  0.3123 -4.2462
  966MOL0     H30398   4.286   3.412   6.589 -1.5304  1.3538 -1.4471
  966MOL0     H30399   4.201   3.444   6.739 -0.4232  2.5506 -1.2748
  966MOL0     H30400   4.035   3.481   6.605 -0.5763 -0.3745 -3.4389
  966MOL0     H30401   3.999   3.327   6.660  1.8915 -1.1589  1.0071
  966MOL0     H30402   4.104   3.243   6.421  0.3141  0.0282 -0.2357
  966MOL0     H30403   4.130   3.417   6.381 -0.7334 -1.1110 -2.0741
  966MOL0     H30404   3.884   3.443   6.409 -0.2975 -2.0212  2.7895
  966MOL0     H30405   3.934   3.328   6.274  2.9790 -3.1696  0.6362
  966MOL0     H30406   3.712   3.080   6.539 -2.0189 -0.8099 -3.5228
  966MOL0     H30407   4.362   3.006   6.744 -0.3067 -1.7870  1.5312
  966MOL0     H30408   4.468   2.830   7.010  1.8588 -1.5170 -1.3625
  966MOL0     H30409   4.522   2.873   6.853  3.9478  1.4562  0.0821
  966MOL0     H30410   4.607   2.943   6.976 -0.3052  0.3543 -0.9550
  967MOL0     O30411   9.439   8.117   1.065 -0.5644  0.4624  0.1249
  967MOL0     C30412   9.513   8.026   1.113  0.0531 -1.1586 -0.3536
  967MOL0     O30413   9.649   8.027   1.107  0.2714 -0.0537  0.2156
  967MOL0     C30414   9.703   8.141   1.060  0.3264 -0.2391  0.5403
  967MOL0     C30415   9.740   8.151   0.925 -0.0784  0.2406  0.0250
  967MOL0     C30416   9.774   8.268   0.867 -0.8232  0.1042  0.2332
  967MOL0     C30417   9.803   8.384   0.946  0.3887  0.4559  0.0834
  967MOL0     O30418   9.864   8.481   0.878  0.6305  0.0436 -0.1118
  967MOL0     C30419   9.929   8.588   0.952  0.2408 -0.2701 -0.4701
  967MOL0     C30420  10.022   8.661   0.865  0.4697 -0.8218  1.1353
  967MOL0     C30421  10.142   8.579   0.821 -0.5168  0.2922  0.3317
  967MOL0     C30422  10.254   8.611   0.926 -1.0362  0.5394 -0.0433
  967MOL0     C30423  10.370   8.514   0.900 -0.1379 -0.4383 -0.1932
  967MOL0     C30424  10.481   8.505   1.011 -0.3770 -0.2786 -0.0139
  967MOL0     C30425  10.601   8.417   0.972  0.9228  0.4911 -0.1807
  967MOL0     C30426  10.710   8.427   1.065 -0.4138 -0.6003  0.1067
  967MOL0     N30427  10.816   8.334   1.031 -1.3715 -0.2018  0.7185
  967MOL0     C30428  10.894   8.328   0.911 -0.1787  0.0845 -0.6400
  967MOL0     C30429  10.978   8.224   0.925  0.3842  0.3668 -0.1417
  967MOL0     C30430  11.055   8.166   0.809  0.3097 -0.6001 -0.5024
  967MOL0     C30431  11.099   8.021   0.845  0.1871 -0.9662  0.8713
  967MOL0     C30432  11.214   7.985   0.739  0.2483  0.5228 -0.3933
  967MOL0     C30433  11.328   7.916   0.804  0.3254 -0.2853  0.0349
  967MOL0     O30434  11.393   8.011   0.886  0.0229 -0.2276  0.4458
  967MOL0     C30435  11.525   8.042   0.847  0.6593 -0.3710  0.9692
  967MOL0     C30436  11.621   8.058   0.948  0.0620 -0.4702 -0.2426
  967MOL0     C30437  11.739   8.114   0.915 -0.1210 -0.6679  0.0501
  967MOL0     C30438  11.770   8.155   0.780 -0.6749  0.4599  0.6701
  967MOL0     C30439  11.910   8.188   0.737 -0.9901  0.0636  0.0337
  967MOL0     O30440  11.934   8.211   0.604  0.5461 -0.1328  0.2081
  967MOL0     C30441  12.062   8.243   0.570  0.2985  0.2968  0.1268
  967MOL0     C30442  12.151   8.147   0.528  0.2565 -0.3142  0.4207
  967MOL0     C30443  12.294   8.178   0.508  1.0163 -0.2126  0.4804
  967MOL0     C30444  12.339   8.313   0.514  0.4512  0.6420  0.7314
  967MOL0     O30445  12.469   8.358   0.482  0.6519 -0.5137 -0.4989
  967MOL0     C30446  12.548   8.343   0.593  0.0668  0.8293 -1.3465
  967MOL0     C30447  12.690   8.382   0.542 -0.2814  0.2360  0.9140
  967MOL0     C30448  12.795   8.376   0.657  0.4177  0.5315 -0.6671
  967MOL0     C30449  12.935   8.368   0.606 -0.3239 -0.4331 -0.1051
  967MOL0     C30450  13.039   8.338   0.713  0.1856  0.0766 -0.4553
  967MOL0     C30451  13.181   8.282   0.673 -0.7640 -0.5989  0.1648
  967MOL0     C30452  13.169   8.160   0.597  0.9157  0.7406  0.3311
  967MOL0     C30453  13.302   8.083   0.558 -0.9207  0.4358 -0.1757
  967MOL0    Cl30454  13.385   8.182   0.433 -0.1280 -0.1205  0.1161
  967MOL0     C30455  12.234   8.405   0.532  0.6233 -0.4720  0.6301
  967MOL0     C30456  12.100   8.375   0.570 -0.4993 -0.2206  1.1724
  967MOL0     O30457  11.997   8.196   0.828  0.9603  0.4636  0.2543
  967MOL0     C30458  11.673   8.142   0.685  0.0616 -0.4941 -0.0856
  967MOL0     C30459  11.545   8.096   0.721 -0.7290  1.0881 -0.1557
  967MOL0     N30460  10.975   8.193   1.056 -0.0480  0.4569 -0.1957
  967MOL0     N30461  10.887   8.265   1.124  0.8853  0.1862 -0.4749
  967MOL0     C30462   9.770   8.372   1.085 -0.2689 -0.1517  0.2649
  967MOL0     C30463   9.707   8.257   1.130  0.3133 -0.5504 -0.6014
  967MOL0     C30464   9.441   7.916   1.190  0.6734 -0.3228 -0.1339
  967MOL0     C30465   9.475   7.796   1.155  0.2417  0.1349  0.8937
  967MOL0     C30466   9.412   7.687   1.220  0.0577  0.5954  0.1834
  967MOL0     C30467   9.328   7.698   1.329 -0.3597  0.5081 -0.7538
  967MOL0     O30468   9.290   7.582   1.380 -0.2272  0.2478 -0.6210
  967MOL0     C30469   9.197   7.590   1.485  0.8607 -0.1821  0.2232
  967MOL0     C30470   9.187   7.452   1.547 -1.0527 -0.3649  0.6273
  967MOL0     C30471   9.301   7.439   1.658 -0.1997  0.0571  0.0917
  967MOL0     C30472   9.325   7.293   1.696 -0.2012 -0.2962 -0.0902
  967MOL0     C30473   9.368   7.212   1.586  0.0336  0.6408 -0.5103
  967MOL0     C30474   9.410   7.140   1.496 -0.1681  0.6065  0.2132
  967MOL0     C30475   9.289   7.829   1.364  0.1399 -0.0655 -0.0633
  967MOL0     C30476   9.339   7.934   1.287 -0.2151  0.0074 -0.4138
  967MOL0     C30477   9.270   8.069   1.316  0.2423 -0.2655 -0.2701
  967MOL0     H30478   9.737   8.064   0.861  1.3118  0.4067 -0.3016
  967MOL0     H30479   9.796   8.264   0.761  1.4311 -2.0417  0.6629
  967MOL0     H30480   9.854   8.655   0.995  0.1850 -0.3732 -0.4046
  967MOL0     H30481   9.976   8.555   1.045 -2.4832  1.6758  1.7583
  967MOL0     H30482  10.051   8.750   0.921  2.4297 -0.7759  0.1283
  967MOL0     H30483   9.972   8.700   0.777 -0.0574 -2.0466  0.8650
  967MOL0     H30484  10.182   8.612   0.725  0.4530  1.8300  1.2247
  967MOL0     H30485  10.120   8.473   0.808  2.8321 -0.2224 -2.4359
  967MOL0     H30486  10.300   8.708   0.905  0.8935 -0.2421  0.3185
  967MOL0     H30487  10.215   8.611   1.028  0.2766  1.7736  0.4931
  967MOL0     H30488  10.318   8.419   0.887 -1.1713  0.2134 -1.0097
  967MOL0     H30489  10.429   8.538   0.812 -2.8122  2.3054 -1.4351
  967MOL0     H30490  10.516   8.607   1.027 -1.8150 -0.1351  2.8362
  967MOL0     H30491  10.433   8.468   1.102  0.8430 -0.0497  0.7456
  967MOL0     H30492  10.634   8.464   0.879  0.5938  3.0678  0.9258
  967MOL0     H30493  10.572   8.313   0.958  2.4868 -0.1194  0.7989
  967MOL0     H30494  10.743   8.531   1.055 -4.2402  0.8578  0.8355
  967MOL0     H30495  10.668   8.405   1.164 -1.7391 -3.6042 -1.0204
  967MOL0     H30496  10.872   8.375   0.816  0.2602 -0.6356 -1.1069
  967MOL0     H30497  10.985   8.167   0.725  0.0536 -2.4176 -0.3463
  967MOL0     H30498  11.138   8.232   0.783 -1.7042  1.6529 -1.6019
  967MOL0     H30499  11.137   8.028   0.947 -0.4565  1.5960  0.9999
  967MOL0     H30500  11.017   7.948   0.845 -0.1522 -0.5919  2.1046
  967MOL0     H30501  11.244   8.074   0.683 -2.9625  1.8186 -0.2246
  967MOL0     H30502  11.166   7.916   0.669 -1.4194 -0.7380  1.8738
  967MOL0     H30503  11.401   7.868   0.738  1.3628 -1.0687  1.6703
  967MOL0     H30504  11.300   7.834   0.870  2.6341 -1.3303 -0.1860
  967MOL0     H30505  11.587   8.035   1.048 -2.1444  0.1756 -0.7882
  967MOL0     H30506  11.818   8.126   0.988 -1.7770  1.9366  1.5546
  967MOL0     H30507  12.111   8.047   0.541  2.9444 -2.2211 -3.8762
  967MOL0     H30508  12.361   8.092   0.507 -1.1057 -1.9659 -0.0710
  967MOL0     H30509  12.515   8.402   0.678  3.0862 -1.2874  1.5343
  967MOL0     H30510  12.557   8.240   0.629 -0.3505  0.2575 -2.7717
  967MOL0     H30511  12.712   8.313   0.461 -2.5155  0.0998  0.3659
  967MOL0     H30512  12.703   8.481   0.497 -3.6038  2.1287  3.6296
  967MOL0     H30513  12.779   8.464   0.720  0.7050 -0.7596  1.2663
  967MOL0     H30514  12.772   8.286   0.714  1.6453 -0.1292 -1.1733
  967MOL0     H30515  12.964   8.469   0.575  0.3618 -0.1985  1.2185
  967MOL0     H30516  12.942   8.288   0.531  1.5914 -3.2495  2.7799
  967MOL0     H30517  12.988   8.270   0.782  2.0703  0.0404  0.9789
  967MOL0     H30518  13.060   8.433   0.762  2.8452 -0.8135  0.3087
  967MOL0     H30519  13.239   8.359   0.622 -1.0208 -0.7405 -0.3487
  967MOL0     H30520  13.237   8.263   0.764  0.5306 -0.1481 -0.5131
  967MOL0     H30521  13.110   8.172   0.505 -0.3828 -0.7519  0.9195
  967MOL0     H30522  13.117   8.088   0.660  1.7204 -0.3057 -0.1715
  967MOL0     H30523  13.364   8.068   0.647 -0.1912 -2.9764 -1.0990
  967MOL0     H30524  13.278   7.982   0.524  1.5713 -0.7214  1.1719
  967MOL0     H30525  12.263   8.509   0.520  1.5654 -0.7659  0.2895
  967MOL0     H30526  12.028   8.454   0.587  0.8093  1.7179 -1.6116
  967MOL0     H30527  11.702   8.184   0.590 -0.4865  1.9114  0.7359
  967MOL0     H30528  11.466   8.097   0.647 -0.7609 -1.5828 -0.2535
  967MOL0     H30529   9.798   8.442   1.162  0.4328 -3.7085  3.5498
  967MOL0     H30530   9.678   8.271   1.234 -1.0690  0.3794 -1.0946
  967MOL0     H30531   9.542   7.765   1.075 -1.3853 -4.0110  0.9236
  967MOL0     H30532   9.456   7.592   1.192  0.6239  1.1762 -0.9795
  967MOL0     H30533   9.108   7.624   1.431  1.2103  2.5621  1.2263
  967MOL0     H30534   9.217   7.666   1.561 -2.0728  0.4407  0.4981
  967MOL0     H30535   9.199   7.371   1.475 -0.0664 -0.2943  0.7011
  967MOL0     H30536   9.087   7.443   1.592 -1.9641  3.2282 -0.3322
  967MOL0     H30537   9.267   7.498   1.743 -2.1075 -1.5934  0.5496
  967MOL0     H30538   9.402   7.473   1.630  0.8530 -1.6145  1.6013
  967MOL0     H30539   9.404   7.298   1.771  0.9498  0.1354 -1.2847
  967MOL0     H30540   9.236   7.241   1.733 -0.4820 -1.5628 -2.3506
  967MOL0     H30541   9.434   7.067   1.422 -1.1030  1.8860 -1.4348
  967MOL0     H30542   9.221   7.851   1.446 -2.0554  4.1178 -2.6808
  967MOL0     H30543   9.168   8.054   1.279  1.0728 -5.1699 -1.3854
  967MOL0     H30544   9.269   8.096   1.422 -4.1126  0.3583 -0.2725
  967MOL0     H30545   9.320   8.155   1.273  0.1655  1.1409  2.2437
  968MOL0     O30546   6.504   8.504   6.325  0.0949  0.4276  0.3266
  968MOL0     C30547   6.447   8.401   6.350  0.4985 -0.4033  0.5322
  968MOL0     O30548   6.497   8.299   6.419 -0.8725 -0.6471 -0.0776
  968MOL0     C30549   6.632   8.276   6.439  0.4387 -0.7556 -0.0610
  968MOL0     C30550   6.680   8.226   6.561  0.4716  0.2944 -0.2334
  968MOL0     C30551   6.808   8.196   6.591 -0.0696  0.0179  0.2779
  968MOL0     C30552   6.901   8.219   6.486 -0.4013 -0.9443 -0.1482
  968MOL0     O30553   7.038   8.196   6.484  0.1950 -0.6004  0.3208
  968MOL0     C30554   7.105   8.172   6.609 -0.2912  0.7093 -0.0956
  968MOL0     C30555   7.253   8.143   6.570  0.4922  0.0226 -1.1866
  968MOL0     C30556   7.340   8.106   6.701  0.0458 -0.1200 -0.2256
  968MOL0     C30557   7.477   8.140   6.692 -0.9843  0.1490  0.2873
  968MOL0     C30558   7.547   8.082   6.582  0.5253 -0.2431  1.0169
  968MOL0     C30559   7.575   7.933   6.585  0.6717  0.0016 -0.0898
  968MOL0     C30560   7.645   7.895   6.454  0.8543 -0.1611 -0.0782
  968MOL0     C30561   7.664   7.740   6.458 -0.2821 -0.4389  0.6693
  968MOL0     N30562   7.788   7.714   6.522  0.5066 -1.5218  0.4245
  968MOL0     C30563   7.816   7.695   6.659  0.2581  0.6804  0.3716
  968MOL0     C30564   7.944   7.653   6.665  0.3318  0.7835  0.2047
  968MOL0     C30565   8.012   7.600   6.793 -0.0274  0.0985  0.0557
  968MOL0     C30566   8.122   7.703   6.827  0.2010  0.7613 -0.9108
  968MOL0     C30567   8.233   7.635   6.915 -0.2124  0.1304 -0.0701
  968MOL0     C30568   8.366   7.702   6.940 -0.4793 -1.0287 -0.6212
  968MOL0     O30569   8.463   7.607   6.989  0.1777 -0.1638 -0.8960
  968MOL0     C30570   8.590   7.652   7.015  0.1288  0.5551 -0.6093
  968MOL0     C30571   8.641   7.782   7.022  1.0285 -0.1788 -0.1097
  968MOL0     C30572   8.777   7.800   7.053 -0.8141 -0.5595  0.2945
  968MOL0     C30573   8.855   7.689   7.091  0.3359 -0.3243  0.6291
  968MOL0     C30574   8.996   7.702   7.130 -0.1450  0.0841  0.5638
  968MOL0     O30575   9.049   7.600   7.192  0.0887  0.4375  0.5059
  968MOL0     C30576   9.180   7.606   7.224 -0.5966 -0.4649 -0.7469
  968MOL0     C30577   9.286   7.579   7.140 -1.2194  1.4968  0.8163
  968MOL0     C30578   9.416   7.571   7.183 -0.4027 -0.5757 -0.3774
  968MOL0     C30579   9.450   7.604   7.315  0.3559  0.1021 -1.2345
  968MOL0     O30580   9.576   7.596   7.369  0.8621  0.7740  0.7091
  968MOL0     C30581   9.685   7.650   7.298 -0.4552  0.1118  0.6185
  968MOL0     C30582   9.782   7.723   7.392 -0.4294  0.0534  0.0931
  968MOL0     C30583   9.708   7.838   7.456 -0.5663 -0.3966  0.0120
  968MOL0     C30584   9.776   7.961   7.406  0.7549 -0.2038 -0.3494
  968MOL0     C30585   9.693   8.091   7.435  0.2219 -0.9846 -0.6408
  968MOL0     C30586   9.670   8.125   7.582 -0.2675 -0.0048 -0.1197
  968MOL0     C30587   9.792   8.155   7.671  0.3369  1.3137  0.1839
  968MOL0     C30588   9.796   8.112   7.823  0.0520 -1.0207 -0.0717
  968MOL0    Cl30589   9.635   8.135   7.898  0.1495  0.4136 -0.4397
  968MOL0     C30590   9.345   7.640   7.403 -0.1665 -0.9868 -0.1356
  968MOL0     C30591   9.215   7.632   7.362  0.0061  0.1396 -0.3533
  968MOL0     O30592   9.053   7.807   7.114 -0.4853  0.0075  0.2162
  968MOL0     C30593   8.802   7.563   7.087  0.0045 -0.3201 -0.7511
  968MOL0     C30594   8.675   7.545   7.052 -0.0159 -0.5049 -0.2447
  968MOL0     N30595   7.982   7.629   6.533  0.4676  0.1964 -0.9855
  968MOL0     N30596   7.893   7.677   6.451 -0.4866  0.6103  0.2297
  968MOL0     C30597   6.866   8.276   6.362 -0.7040  0.1559 -0.6892
  968MOL0     C30598   6.729   8.307   6.338 -0.3136  0.8083  0.2423
  968MOL0     C30599   6.313   8.390   6.297 -0.8268 -0.6793 -0.2324
  968MOL0     C30600   6.234   8.277   6.335  0.2268  0.3222 -1.2778
  968MOL0     C30601   6.103   8.260   6.294  0.5178 -0.0117 -0.4240
  968MOL0     C30602   6.042   8.354   6.206 -0.2313  0.6654 -0.1934
  968MOL0     O30603   5.920   8.340   6.152  0.3465 -0.1599  0.1990
  968MOL0     C30604   5.872   8.209   6.120 -0.0040  0.0232  0.3657
  968MOL0     C30605   5.795   8.228   5.988 -0.2711 -0.2916 -0.3975
  968MOL0     C30606   5.752   8.087   5.940 -0.2658  0.1837  0.2889
  968MOL0     C30607   5.693   8.097   5.799  0.8465  0.6548 -0.3891
  968MOL0     C30608   5.788   8.079   5.688 -0.2220  0.4559 -0.0078
  968MOL0     C30609   5.862   8.075   5.591 -0.8933  0.1308 -0.6021
  968MOL0     C30610   6.121   8.455   6.170 -0.3703 -0.7692  0.2820
  968MOL0     C30611   6.254   8.481   6.203  0.5583 -0.1959  0.5900
  968MOL0     C30612   6.339   8.582   6.123  0.4212 -0.6517  0.6267
  968MOL0     H30613   6.600   8.207   6.633  0.7033  1.7961  0.4525
  968MOL0     H30614   6.835   8.160   6.689  1.8878 -0.8548 -0.5376
  968MOL0     H30615   7.091   8.258   6.676  0.3349  2.0546 -1.6279
  968MOL0     H30616   7.054   8.088   6.657 -1.1729  0.1118 -2.0017
  968MOL0     H30617   7.292   8.237   6.531  3.3950  0.5515  2.4280
  968MOL0     H30618   7.262   8.067   6.491 -2.5327 -0.0111 -1.6021
  968MOL0     H30619   7.320   8.003   6.733  0.5009  0.0722  0.7199
  968MOL0     H30620   7.300   8.160   6.788  1.0593  0.9465 -0.3925
  968MOL0     H30621   7.479   8.248   6.672 -0.9922  0.1131  0.0905
  968MOL0     H30622   7.523   8.110   6.787  0.6563 -0.8567 -0.7767
  968MOL0     H30623   7.501   8.103   6.485 -0.1670 -0.2833  1.3325
  968MOL0     H30624   7.637   8.144   6.570  0.7829  0.1483  4.0768
  968MOL0     H30625   7.648   7.911   6.664  0.2578 -1.7054 -0.1351
  968MOL0     H30626   7.482   7.879   6.602  1.9089 -1.7305  1.6065
  968MOL0     H30627   7.741   7.943   6.436  0.3639  0.7265 -0.4102
  968MOL0     H30628   7.581   7.916   6.367  3.0318  1.3679 -1.3942
  968MOL0     H30629   7.582   7.691   6.511 -0.9949 -1.7512 -1.5110
  968MOL0     H30630   7.653   7.695   6.359  3.1247 -0.5611  0.2088
  968MOL0     H30631   7.758   7.732   6.743  3.5930 -0.6419  3.5838
  968MOL0     H30632   7.926   7.605   6.861 -0.7455  1.1445 -0.8991
  968MOL0     H30633   8.058   7.502   6.777  3.2164  0.8734  3.2729
  968MOL0     H30634   8.173   7.727   6.733  1.6990 -3.3496 -1.3441
  968MOL0     H30635   8.095   7.794   6.882  2.3973  1.3910 -0.7996
  968MOL0     H30636   8.256   7.541   6.864  1.6143 -0.0320  0.9513
  968MOL0     H30637   8.179   7.604   7.005 -2.7306  2.6337 -0.5801
  968MOL0     H30638   8.353   7.798   6.990  0.7623 -1.7366  1.1711
  968MOL0     H30639   8.404   7.721   6.839  0.6347 -2.4058 -0.4889
  968MOL0     H30640   8.577   7.867   6.998  3.8960  1.6141 -2.1112
  968MOL0     H30641   8.812   7.902   7.038 -0.1623 -0.7910  0.2040
  968MOL0     H30642   9.245   7.553   7.043 -0.0233 -0.8396  0.8647
  968MOL0     H30643   9.490   7.525   7.119  0.5525  0.7582 -0.2767
  968MOL0     H30644   9.734   7.560   7.259  4.3449  2.2106  0.9880
  968MOL0     H30645   9.659   7.716   7.215  1.6564  0.5765  0.2642
  968MOL0     H30646   9.798   7.644   7.466  2.9051 -0.4197 -0.9515
  968MOL0     H30647   9.881   7.746   7.352 -0.6471  0.3261 -0.2919
  968MOL0     H30648   9.603   7.835   7.426 -0.1935  1.2915 -1.6613
  968MOL0     H30649   9.717   7.829   7.565  2.3065 -0.3188 -0.1622
  968MOL0     H30650   9.780   7.958   7.297  1.0712  3.9627 -0.6119
  968MOL0     H30651   9.871   7.973   7.458 -0.9769  1.4568  2.7516
  968MOL0     H30652   9.594   8.083   7.389 -0.6686 -0.3312  1.0240
  968MOL0     H30653   9.739   8.184   7.399  2.5496 -1.0545  1.8310
  968MOL0     H30654   9.592   8.201   7.589 -1.2797 -0.7646 -2.1682
  968MOL0     H30655   9.621   8.035   7.622 -1.9248  0.5138 -0.8690
  968MOL0     H30656   9.810   8.262   7.685  2.6922  0.6860  3.1461
  968MOL0     H30657   9.881   8.108   7.628 -2.0653 -2.1865 -1.4682
  968MOL0     H30658   9.838   8.011   7.821  1.5195 -0.4473 -2.0227
  968MOL0     H30659   9.879   8.164   7.874 -0.9540 -1.4333  2.1106
  968MOL0     H30660   9.375   7.666   7.504  0.3003  2.3902 -1.0282
  968MOL0     H30661   9.135   7.653   7.432 -1.1810 -2.8112 -0.6806
  968MOL0     H30662   8.866   7.480   7.114  0.5354  0.3880  0.2011
  968MOL0     H30663   8.625   7.451   7.033 -3.2282  1.7130 -4.7168
  968MOL0     H30664   6.939   8.309   6.289  0.6987  0.6438  0.8788
  968MOL0     H30665   6.700   8.346   6.240  1.2553  2.2859  0.3308
  968MOL0     H30666   6.271   8.214   6.416 -1.6531  2.2304  1.2380
  968MOL0     H30667   6.042   8.179   6.335 -2.1813  0.8329 -2.4911
  968MOL0     H30668   5.801   8.166   6.191 -0.3278 -0.8073 -0.4546
  968MOL0     H30669   5.955   8.138   6.114 -0.0953 -0.2462  1.8628
  968MOL0     H30670   5.841   8.287   5.908 -2.4146  1.4327 -0.4849
  968MOL0     H30671   5.705   8.290   5.999 -0.9052 -1.2926  0.2481
  968MOL0     H30672   5.674   8.045   6.004 -0.9957  0.5916 -0.3047
  968MOL0     H30673   5.838   8.021   5.951  0.4959  1.1382  0.2412
  968MOL0     H30674   5.624   8.012   5.790  1.1254  0.5166 -1.3129
  968MOL0     H30675   5.627   8.181   5.779  1.3794  0.7983 -1.6696
  968MOL0     H30676   5.920   8.052   5.505  2.3177 -1.8755  1.8541
  968MOL0     H30677   6.089   8.517   6.086 -0.1310 -1.7203 -0.5229
  968MOL0     H30678   6.297   8.618   6.029  3.6980 -1.8958 -1.5388
  968MOL0     H30679   6.358   8.670   6.185 -0.1421 -0.2220  0.1957
  968MOL0     H30680   6.433   8.536   6.090  1.9032  1.7093  1.3318
  969MOL0     O30681   6.089   6.017   4.804 -0.6276 -0.1475 -0.2120
  969MOL0     C30682   6.066   5.948   4.903  0.0155 -0.3478 -1.5765
  969MOL0     O30683   6.158   5.928   5.011  0.4814 -0.2094 -0.0601
  969MOL0     C30684   6.285   5.982   5.003 -0.0038  1.0415 -0.6304
  969MOL0     C30685   6.306   6.124   4.972 -0.9914 -0.5884 -0.0934
  969MOL0     C30686   6.435   6.174   4.957  0.4242  0.3683 -0.5013
  969MOL0     C30687   6.546   6.100   4.995 -0.4749 -0.1433  0.1538
  969MOL0     O30688   6.674   6.156   4.988  0.3171 -0.1625 -0.0383
  969MOL0     C30689   6.699   6.297   4.989  0.0553 -0.2277  0.2714
  969MOL0     C30690   6.840   6.315   5.034 -0.5518 -0.2039  0.6335
  969MOL0     C30691   6.928   6.341   4.908 -0.0883 -0.2770 -0.2612
  969MOL0     C30692   6.904   6.487   4.849  0.3806 -0.0928  0.4149
  969MOL0     C30693   7.005   6.517   4.738  0.0108  0.3854  0.3942
  969MOL0     C30694   7.149   6.508   4.783  0.2895 -0.6674  0.7312
  969MOL0     C30695   7.235   6.579   4.680 -0.4093 -0.4486  0.6667
  969MOL0     C30696   7.239   6.503   4.548  0.2988 -0.1139  0.7609
  969MOL0     N30697   7.360   6.417   4.541 -0.6013 -0.0831  0.0202
  969MOL0     C30698   7.493   6.452   4.534  1.0599 -0.4995 -0.2195
  969MOL0     C30699   7.560   6.341   4.557 -1.0151 -0.6229 -0.3345
  969MOL0     C30700   7.709   6.337   4.563  0.1134 -0.4151 -0.3874
  969MOL0     C30701   7.756   6.299   4.703  0.4905 -0.3946 -0.3504
  969MOL0     C30702   7.901   6.348   4.728 -0.2214 -0.3191 -0.4139
  969MOL0     C30703   7.962   6.270   4.837  0.4649 -0.6540 -0.4129
  969MOL0     O30704   8.009   6.364   4.937 -0.0950  0.6400 -0.0775
  969MOL0     C30705   8.135   6.405   4.936 -0.5149 -0.1498 -0.5554
  969MOL0     C30706   8.181   6.467   5.050 -0.2410 -0.1957  0.0913
  969MOL0     C30707   8.315   6.510   5.073  0.5389  0.1322  0.4605
  969MOL0     C30708   8.412   6.486   4.979 -0.6755  0.5974  0.3704
  969MOL0     C30709   8.542   6.553   4.985 -0.9363 -0.0258 -0.1697
  969MOL0     O30710   8.548   6.657   5.078  0.1421  0.1348  0.2080
  969MOL0     C30711   8.653   6.744   5.064  0.5336  0.3039 -0.4553
  969MOL0     C30712   8.764   6.729   5.152  0.3453 -0.0072  0.1469
  969MOL0     C30713   8.867   6.826   5.138  0.8017 -0.2162 -0.2209
  969MOL0     C30714   8.869   6.926   5.042  1.1207 -0.5493 -0.3985
  969MOL0     O30715   8.972   7.011   5.025  0.4671  0.0212 -0.2661
  969MOL0     C30716   9.107   6.957   5.018 -1.5203  0.2195  0.3657
  969MOL0     C30717   9.200   7.073   5.013  0.5223  1.1380 -0.8461
  969MOL0     C30718   9.344   7.031   4.984  0.5514  0.4243 -0.4032
  969MOL0     C30719   9.437   7.148   4.994  0.1959 -0.2648  1.4948
  969MOL0     C30720   9.583   7.110   4.976  0.4459  0.6081 -0.4490
  969MOL0     C30721   9.666   7.052   5.093  0.4675 -0.3301 -0.0984
  969MOL0     C30722   9.803   7.024   5.062 -0.2385  0.0505  0.1480
  969MOL0     C30723   9.890   7.002   5.187  0.3002  0.6005 -0.3911
  969MOL0    Cl30724   9.806   6.877   5.276  0.1281  0.3557 -0.2363
  969MOL0     C30725   8.757   6.932   4.963 -0.6927  0.7391  0.7791
  969MOL0     C30726   8.649   6.845   4.972 -0.3299 -0.5436 -0.2413
  969MOL0     O30727   8.631   6.514   4.910 -0.0651  1.0983  0.3540
  969MOL0     C30728   8.367   6.422   4.859 -0.1387 -0.0141  0.3815
  969MOL0     C30729   8.233   6.388   4.838 -0.4422  0.0472 -0.6739
  969MOL0     N30730   7.473   6.232   4.560 -0.5244  0.2482 -0.1974
  969MOL0     N30731   7.354   6.281   4.563  0.1015  0.8362 -0.8318
  969MOL0     C30732   6.525   5.967   5.045 -1.0019  1.2487  0.3352
  969MOL0     C30733   6.401   5.908   5.052  0.3360 -0.1356  0.4993
  969MOL0     C30734   5.933   5.895   4.940  0.0749  0.2735  0.8757
  969MOL0     C30735   5.919   5.791   5.028  0.3809  0.0500 -0.9107
  969MOL0     C30736   5.798   5.733   5.050 -0.6743  0.6863  0.8448
  969MOL0     C30737   5.679   5.771   4.984 -0.9130  0.4929 -0.5312
  969MOL0     O30738   5.557   5.723   5.008 -0.1316 -0.5243 -0.8040
  969MOL0     C30739   5.542   5.582   5.029 -0.0500  0.6711 -0.0230
  969MOL0     C30740   5.528   5.498   4.899  0.9071  0.2110 -0.4897
  969MOL0     C30741   5.408   5.556   4.815  0.2208  0.2230 -0.4880
  969MOL0     C30742   5.399   5.480   4.681  0.0883 -0.4189  0.5696
  969MOL0     C30743   5.390   5.342   4.704 -0.3091  1.0867 -0.4736
  969MOL0     C30744   5.400   5.225   4.712  0.3168  0.4449  0.0033
  969MOL0     C30745   5.687   5.872   4.901 -0.1659 -0.2935  0.1482
  969MOL0     C30746   5.812   5.944   4.872 -0.1251  0.6934 -0.2934
  969MOL0     C30747   5.810   6.067   4.788 -0.2996  0.1222 -0.2781
  969MOL0     H30748   6.230   6.197   4.949  0.9555  0.8984 -2.3272
  969MOL0     H30749   6.445   6.279   4.929  0.1755  0.5527  0.0884
  969MOL0     H30750   6.672   6.348   4.897  1.6308 -1.0868 -0.7165
  969MOL0     H30751   6.630   6.346   5.059  0.2147  0.9767 -0.3987
  969MOL0     H30752   6.880   6.229   5.088  0.1664 -1.3190 -1.5407
  969MOL0     H30753   6.842   6.403   5.099  0.4899 -0.4445  0.9425
  969MOL0     H30754   6.937   6.259   4.837  4.9962  1.1163 -1.6761
  969MOL0     H30755   7.030   6.345   4.948 -1.2295  1.0313  2.8283
  969MOL0     H30756   6.800   6.512   4.825 -0.1522 -1.5448  1.0955
  969MOL0     H30757   6.922   6.555   4.933 -0.6425 -2.3656  2.5919
  969MOL0     H30758   6.977   6.455   4.653 -0.2889 -0.7629  1.2982
  969MOL0     H30759   6.988   6.619   4.704 -2.1772  0.0876  0.4320
  969MOL0     H30760   7.161   6.559   4.879  0.6280 -1.7578  1.2891
  969MOL0     H30761   7.178   6.405   4.807  1.9939 -0.0528  1.5234
  969MOL0     H30762   7.330   6.607   4.725 -0.5762  2.5159 -0.6213
  969MOL0     H30763   7.190   6.677   4.663  0.5947 -0.0882 -0.0514
  969MOL0     H30764   7.151   6.439   4.542 -1.3183  2.0523  0.0329
  969MOL0     H30765   7.245   6.564   4.458  1.0150 -1.6631 -0.2832
  969MOL0     H30766   7.516   6.557   4.520  0.2115 -0.4207 -1.1514
  969MOL0     H30767   7.741   6.266   4.486 -1.8094 -1.5900 -0.1431
  969MOL0     H30768   7.750   6.438   4.547  0.9812 -0.6982  0.0105
  969MOL0     H30769   7.690   6.339   4.781 -1.2496 -1.0381 -1.4294
  969MOL0     H30770   7.752   6.190   4.713  0.5881 -0.2858  0.9632
  969MOL0     H30771   7.890   6.454   4.755  0.7628 -0.4447  0.5720
  969MOL0     H30772   7.969   6.341   4.642  1.0915 -4.5694  0.7106
  969MOL0     H30773   8.050   6.220   4.796  2.1236  1.5221  0.2831
  969MOL0     H30774   7.884   6.209   4.883 -0.8636  0.5628 -0.9614
  969MOL0     H30775   8.112   6.482   5.133 -1.0935 -1.0326 -0.4402
  969MOL0     H30776   8.340   6.556   5.168 -0.5413  0.7850  0.4465
  969MOL0     H30777   8.754   6.652   5.227 -0.0326 -1.0718 -0.9557
  969MOL0     H30778   8.950   6.848   5.204  0.6636 -1.0513  0.2305
  969MOL0     H30779   9.137   6.893   5.102 -0.3821 -1.7525 -1.4272
  969MOL0     H30780   9.117   6.903   4.924 -2.2203 -0.8525  0.8881
  969MOL0     H30781   9.168   7.143   4.936  0.0848  0.4921 -1.2625
  969MOL0     H30782   9.189   7.115   5.113 -1.1969 -0.2171 -0.4231
  969MOL0     H30783   9.365   6.957   5.061 -1.2518  1.3734  1.1068
  969MOL0     H30784   9.349   6.973   4.891  0.4122 -2.4174  1.2491
  969MOL0     H30785   9.427   7.197   5.091  2.5762 -0.9389  2.1601
  969MOL0     H30786   9.403   7.207   4.908  0.8251 -1.8352  0.1258
  969MOL0     H30787   9.626   7.209   4.958 -1.0687  1.9589  2.5969
  969MOL0     H30788   9.592   7.042   4.891 -0.3424  0.1392 -0.1701
  969MOL0     H30789   9.653   7.123   5.174 -1.9448 -0.1892 -0.5321
  969MOL0     H30790   9.606   6.968   5.129 -3.3862  2.5627  0.9897
  969MOL0     H30791   9.845   7.093   4.989  1.5671 -1.8703 -0.7245
  969MOL0     H30792   9.794   6.934   5.000 -0.9705  1.0741 -1.2916
  969MOL0     H30793   9.995   6.989   5.158  1.6103  1.3151  3.3542
  969MOL0     H30794   9.892   7.094   5.248  1.4666  0.3609 -0.0378
  969MOL0     H30795   8.748   7.017   4.895 -1.2136  0.0129 -0.0803
  969MOL0     H30796   8.563   6.872   4.912 -1.3472 -0.4228  1.2347
  969MOL0     H30797   8.445   6.407   4.785 -2.5016 -3.0728 -1.7111
  969MOL0     H30798   8.210   6.352   4.738 -1.3329 -2.7792  0.4613
  969MOL0     H30799   6.614   5.913   5.077  0.6002  3.0219 -0.9089
  969MOL0     H30800   6.373   5.808   5.084 -0.2909 -0.0607  0.2028
  969MOL0     H30801   5.993   5.757   5.101 -0.8388 -1.2750 -0.2231
  969MOL0     H30802   5.803   5.651   5.120  0.2056  0.6310  0.7263
  969MOL0     H30803   5.454   5.569   5.093  0.5938 -1.2806  0.5416
  969MOL0     H30804   5.621   5.531   5.085  0.4476 -2.6797 -3.3516
  969MOL0     H30805   5.509   5.395   4.931  0.4595  1.2263  2.8309
  969MOL0     H30806   5.623   5.498   4.845  0.6532 -0.2082 -0.9464
  969MOL0     H30807   5.414   5.665   4.811 -0.9246  0.3359  0.4341
  969MOL0     H30808   5.312   5.524   4.857  1.5977 -3.4783  0.2297
  969MOL0     H30809   5.303   5.505   4.635  0.1134  1.0436  1.2537
  969MOL0     H30810   5.487   5.502   4.620 -0.1852 -2.0413 -0.4691
  969MOL0     H30811   5.416   5.120   4.727 -2.2204 -0.2013 -1.2730
  969MOL0     H30812   5.592   5.916   4.871 -0.0698  0.8463  1.4265
  969MOL0     H30813   5.878   6.054   4.702 -0.1058 -0.1086 -0.0929
  969MOL0     H30814   5.708   6.081   4.751 -0.8440 -0.0678  1.1114
  969MOL0     H30815   5.839   6.154   4.848 -0.1446  0.3150 -0.6266
  970MOL0     O30816   3.292   0.134   3.796  0.1899 -0.2202 -0.0646
  970MOL0     C30817   3.226   0.228   3.754 -0.6821 -0.3172 -0.2333
  970MOL0     O30818   3.262   0.324   3.660  0.5340  0.2747 -0.2092
  970MOL0     C30819   3.387   0.310   3.602  0.2610  0.2963 -0.2060
  970MOL0     C30820   3.438   0.192   3.559 -0.6271  0.3419  0.5381
  970MOL0     C30821   3.572   0.186   3.517 -0.7151  0.1357  0.1103
  970MOL0     C30822   3.653   0.298   3.522  0.2874  1.0358  0.5321
  970MOL0     O30823   3.789   0.294   3.484 -0.1242 -0.5681 -0.5628
  970MOL0     C30824   3.847   0.171   3.455  0.3227 -0.2527 -0.2708
  970MOL0     C30825   3.992   0.166   3.457  0.4776  0.4685 -0.4717
  970MOL0     C30826   4.056   0.252   3.359  0.4334  0.6442  0.6843
  970MOL0     C30827   4.215   0.224   3.353  0.7644  0.2646  0.2579
  970MOL0     C30828   4.297   0.343   3.362 -0.0165  0.1772 -0.1598
  970MOL0     C30829   4.444   0.312   3.327 -0.2091 -0.0559 -0.7030
  970MOL0     C30830   4.522   0.436   3.302  0.1278 -0.0904 -0.2815
  970MOL0     C30831   4.534   0.520   3.439 -0.4533 -0.8636 -0.2765
  970MOL0     N30832   4.591   0.659   3.415  0.8272  0.2730 -0.2432
  970MOL0     C30833   4.651   0.753   3.508  0.3497 -0.1188  0.4151
  970MOL0     C30834   4.678   0.868   3.431 -0.7870 -0.1696 -0.0877
  970MOL0     C30835   4.744   0.999   3.475 -0.2513 -0.1502  0.2932
  970MOL0     C30836   4.893   0.985   3.505 -0.4242 -0.3855 -0.6925
  970MOL0     C30837   4.927   0.891   3.616  0.1906  0.0704 -0.3039
  970MOL0     C30838   5.069   0.895   3.662 -0.0643  0.7401  1.1235
  970MOL0     O30839   5.104   1.027   3.696 -0.1398  0.0222  0.0001
  970MOL0     C30840   5.229   1.055   3.753 -0.7925  0.9249 -0.7184
  970MOL0     C30841   5.278   1.192   3.758 -0.1341 -0.1917  0.3986
  970MOL0     C30842   5.409   1.220   3.815  0.4345  0.0205  0.0824
  970MOL0     C30843   5.488   1.114   3.864  0.5774  0.2784 -0.3175
  970MOL0     C30844   5.622   1.137   3.917  0.1837 -0.7459 -0.1688
  970MOL0     O30845   5.692   1.032   3.969 -0.1999  0.2267 -0.2885
  970MOL0     C30846   5.817   1.069   4.006 -0.2285  0.4124  0.2139
  970MOL0     C30847   5.918   1.091   3.916 -0.6421 -1.0414 -0.3389
  970MOL0     C30848   6.051   1.125   3.953 -0.4869  0.4923 -0.6394
  970MOL0     C30849   6.092   1.109   4.083  0.2480 -0.8217  0.1929
  970MOL0     O30850   6.229   1.131   4.108  0.4363 -0.0411  0.4471
  970MOL0     C30851   6.271   1.115   4.241  0.2967  0.3749  0.0522
  970MOL0     C30852   6.426   1.124   4.249  0.1528  0.5889  0.1192
  970MOL0     C30853   6.483   1.000   4.181 -0.6535 -0.7438 -0.1564
  970MOL0     C30854   6.633   1.019   4.191  0.4445 -0.1855  0.3292
  970MOL0     C30855   6.692   0.939   4.078  0.3858 -0.3194  0.6090
  970MOL0     C30856   6.843   0.978   4.051  0.4799 -0.0271 -0.0841
  970MOL0     C30857   6.939   0.952   4.171 -0.0091 -0.2934  0.2134
  970MOL0     C30858   7.090   0.950   4.125  0.1750 -0.4786  0.2516
  970MOL0    Cl30859   7.145   0.809   4.030  0.2004  0.1634 -0.7857
  970MOL0     C30860   5.993   1.071   4.175  0.2787 -0.6619  0.2500
  970MOL0     C30861   5.862   1.058   4.140 -0.0477 -0.2723 -0.1578
  970MOL0     O30862   5.656   1.256   3.922 -0.1891 -0.2645 -0.1020
  970MOL0     C30863   5.444   0.983   3.853 -0.3048 -0.2539  0.8709
  970MOL0     C30864   5.315   0.953   3.797 -1.1712 -0.0798  0.7368
  970MOL0     N30865   4.636   0.842   3.309  0.2547  0.2743  0.3548
  970MOL0     N30866   4.591   0.719   3.295  0.0836  0.0379 -0.3866
  970MOL0     C30867   3.597   0.420   3.568  0.1913  0.0257  0.1179
  970MOL0     C30868   3.470   0.424   3.608  0.7644 -0.7358  0.4376
  970MOL0     C30869   3.088   0.234   3.797 -0.6036 -0.3572  0.2146
  970MOL0     C30870   3.047   0.358   3.848 -0.0123  0.9064  0.2390
  970MOL0     C30871   2.911   0.368   3.879 -0.3122  0.4266 -0.4331
  970MOL0     C30872   2.816   0.262   3.867  0.5958 -0.2543 -1.0155
  970MOL0     O30873   2.683   0.279   3.886 -0.9739  0.0368 -1.2933
  970MOL0     C30874   2.635   0.402   3.949 -0.0274  0.3828  0.1568
  970MOL0     C30875   2.493   0.403   3.916 -0.1468  1.0260 -0.6588
  970MOL0     C30876   2.408   0.498   3.999 -0.5333  0.3064  0.3354
  970MOL0     C30877   2.323   0.414   4.092  0.4459 -0.7739 -1.2060
  970MOL0     C30878   2.251   0.482   4.203  1.5557  0.3511  0.2879
  970MOL0     C30879   2.192   0.556   4.278  0.8060  1.0745  0.1285
  970MOL0     C30880   2.862   0.137   3.828 -0.0476 -0.6231  0.2892
  970MOL0     C30881   3.002   0.126   3.800  0.4737  0.2192  0.2776
  970MOL0     C30882   3.047  -0.018   3.768  0.7432  0.7228 -0.2694
  970MOL0     H30883   3.374   0.105   3.574 -2.1940  0.9697 -1.8090
  970MOL0     H30884   3.602   0.086   3.486 -0.0325  0.7239 -1.1998
  970MOL0     H30885   3.818   0.110   3.541  2.7582 -0.2469  0.6360
  970MOL0     H30886   3.808   0.138   3.358  0.8858  1.9995 -1.3310
  970MOL0     H30887   4.014   0.066   3.417 -0.8678  0.8345 -2.2933
  970MOL0     H30888   4.031   0.176   3.558 -0.6473 -0.3896  0.0781
  970MOL0     H30889   4.048   0.356   3.391  0.7650  0.3722  1.6807
  970MOL0     H30890   4.014   0.226   3.261  0.8823 -4.7606  1.6079
  970MOL0     H30891   4.241   0.153   3.431 -0.0645 -1.4069 -0.9331
  970MOL0     H30892   4.240   0.169   3.263  0.9793 -2.1116  1.6911
  970MOL0     H30893   4.255   0.420   3.297  1.0287  1.5446  0.7296
  970MOL0     H30894   4.291   0.376   3.466 -0.8301 -1.3127  0.2948
  970MOL0     H30895   4.490   0.252   3.407 -1.0842  1.3305  0.9051
  970MOL0     H30896   4.444   0.252   3.236  0.5151 -2.0985  0.5694
  970MOL0     H30897   4.472   0.499   3.228 -1.0294  2.5295  2.5307
  970MOL0     H30898   4.619   0.402   3.264 -0.4608 -0.9305 -1.0795
  970MOL0     H30899   4.444   0.533   3.500 -0.1399  0.1637 -0.0207
  970MOL0     H30900   4.607   0.467   3.502 -0.6245 -1.2090 -0.3681
  970MOL0     H30901   4.675   0.756   3.614 -3.3660  1.6555  1.3958
  970MOL0     H30902   4.726   1.074   3.398 -3.6451 -0.1616  0.9213
  970MOL0     H30903   4.690   1.028   3.566  0.6624 -2.1846  1.5800
  970MOL0     H30904   4.953   0.963   3.417  4.0934  0.6956  1.8041
  970MOL0     H30905   4.924   1.087   3.527 -0.6824 -0.6835  1.3095
  970MOL0     H30906   4.897   0.791   3.585 -0.3625  0.0750  0.2062
  970MOL0     H30907   4.871   0.928   3.702 -0.4387  1.1084 -1.1401
  970MOL0     H30908   5.136   0.848   3.589  1.3232  2.6582  1.0884
  970MOL0     H30909   5.058   0.846   3.759 -1.8005 -2.1114 -0.3714
  970MOL0     H30910   5.209   1.270   3.727 -1.4356 -1.6382 -0.4966
  970MOL0     H30911   5.448   1.321   3.810 -2.6495  1.3769  1.1064
  970MOL0     H30912   5.902   1.097   3.808  0.2659 -0.8173 -0.4635
  970MOL0     H30913   6.126   1.145   3.877  0.9333 -3.2165 -0.4575
  970MOL0     H30914   6.229   1.197   4.300 -3.4280 -0.4775 -1.1542
  970MOL0     H30915   6.236   1.020   4.281 -1.3724  0.2254 -1.6406
  970MOL0     H30916   6.457   1.217   4.200 -0.6654 -0.0231 -1.6727
  970MOL0     H30917   6.454   1.137   4.354 -1.1591  1.5237  0.3798
  970MOL0     H30918   6.451   0.910   4.235 -1.8664  1.5698  3.3605
  970MOL0     H30919   6.446   0.992   4.078 -0.7444  2.2198 -0.4321
  970MOL0     H30920   6.672   1.007   4.293 -1.7179  3.6711  1.8165
  970MOL0     H30921   6.652   1.126   4.191  0.4537 -0.1819  0.9746
  970MOL0     H30922   6.633   0.958   3.987  1.1590  4.1585  0.8417
  970MOL0     H30923   6.675   0.832   4.097  0.8310 -1.1795 -2.9595
  970MOL0     H30924   6.877   0.934   3.957 -1.2162  0.5201 -1.0004
  970MOL0     H30925   6.850   1.084   4.026  1.9293 -0.2242 -0.6240
  970MOL0     H30926   6.918   0.856   4.219  1.1615 -0.2062  0.9367
  970MOL0     H30927   6.922   1.037   4.239  2.7016 -1.1955  2.1973
  970MOL0     H30928   7.114   1.045   4.076  2.0324 -1.5669 -1.1007
  970MOL0     H30929   7.154   0.967   4.212  2.2200  2.5888 -1.6382
  970MOL0     H30930   6.012   1.043   4.279 -0.0418 -1.3769  0.1239
  970MOL0     H30931   5.787   1.035   4.215 -0.1264  0.9952  0.1816
  970MOL0     H30932   5.509   0.902   3.884 -0.1091 -0.6678 -0.5611
  970MOL0     H30933   5.296   0.847   3.794  2.1741 -0.7636 -0.8885
  970MOL0     H30934   3.653   0.513   3.568  0.7933 -0.3190  1.5795
  970MOL0     H30935   3.435   0.524   3.632  0.8414 -0.6728  0.2877
  970MOL0     H30936   3.103   0.451   3.849 -1.9123  2.1001  0.7863
  970MOL0     H30937   2.896   0.469   3.918 -0.6257 -0.3504  1.5485
  970MOL0     H30938   2.685   0.493   3.917  0.7057  0.4355  1.3957
  970MOL0     H30939   2.648   0.399   4.057 -2.2344  0.4153  0.4736
  970MOL0     H30940   2.454   0.301   3.924 -1.6758  1.4227 -2.4127
  970MOL0     H30941   2.488   0.445   3.816 -0.0015  3.3791  0.2563
  970MOL0     H30942   2.337   0.554   3.937  0.1896  1.0524  0.1740
  970MOL0     H30943   2.478   0.561   4.053 -0.5838 -0.7223  1.6496
  970MOL0     H30944   2.244   0.371   4.030 -2.7576  1.4692  0.9935
  970MOL0     H30945   2.374   0.324   4.128  1.4215 -0.2461 -1.2324
  970MOL0     H30946   2.130   0.618   4.340 -0.8529 -0.4039  0.0281
  970MOL0     H30947   2.805   0.045   3.832 -0.0133 -0.6100  2.7995
  970MOL0     H30948   2.962  -0.084   3.746  4.0904 -4.4303  0.5615
  970MOL0     H30949   3.113  -0.024   3.681  0.4403 -0.6230 -0.4358
  970MOL0     H30950   3.106  -0.078   3.837 -1.9570 -2.2598 -0.3081
  971MOL0     O30951   7.574   1.621   2.642  0.0505 -0.5927 -0.1247
  971MOL0     C30952   7.512   1.735   2.640 -0.0367 -0.4837 -0.6273
  971MOL0     O30953   7.417   1.775   2.733 -0.1009  0.1261  0.2681
  971MOL0     C30954   7.398   1.714   2.853  0.6877 -0.4910 -0.4721
  971MOL0     C30955   7.275   1.749   2.910 -0.2270 -0.5841 -0.3680
  971MOL0     C30956   7.245   1.712   3.039 -0.1450 -1.3601 -0.0766
  971MOL0     C30957   7.330   1.625   3.116 -0.0594  0.4882  0.6650
  971MOL0     O30958   7.297   1.570   3.239 -0.2376 -1.0183  0.1220
  971MOL0     C30959   7.154   1.559   3.264 -0.2732  0.7562  0.0567
  971MOL0     C30960   7.088   1.459   3.177 -0.3781 -0.4033 -0.9726
  971MOL0     C30961   7.160   1.320   3.180 -0.3559  0.8778 -0.0927
  971MOL0     C30962   7.176   1.268   3.319 -0.6056 -0.4078 -0.1381
  971MOL0     C30963   7.274   1.143   3.320 -0.1253  0.3294 -0.0604
  971MOL0     C30964   7.427   1.172   3.336  1.2278 -0.8540 -0.3589
  971MOL0     C30965   7.505   1.035   3.334  0.2227  0.2039 -0.3749
  971MOL0     C30966   7.518   0.968   3.200 -0.5660 -0.5456 -0.2357
  971MOL0     N30967   7.625   0.863   3.207 -0.0974  0.2090 -0.2970
  971MOL0     C30968   7.761   0.877   3.224 -0.5148  0.0920  0.3621
  971MOL0     C30969   7.818   0.752   3.213  1.0702 -0.1167  0.5193
  971MOL0     C30970   7.961   0.709   3.222 -0.9963 -0.6674 -0.9258
  971MOL0     C30971   8.011   0.611   3.119  0.8047  0.2362  1.1447
  971MOL0     C30972   8.124   0.526   3.177 -1.0716 -0.0564  0.1137
  971MOL0     C30973   8.222   0.464   3.079  0.2990 -0.2541  0.4675
  971MOL0     O30974   8.316   0.388   3.156  0.1533  0.0228  0.7761
  971MOL0     C30975   8.428   0.343   3.098  0.5405  0.3786 -0.1386
  971MOL0     C30976   8.417   0.300   2.965 -0.7114  0.5390 -1.0881
  971MOL0     C30977   8.528   0.234   2.906  0.2722 -0.8381  0.0071
  971MOL0     C30978   8.655   0.237   2.972  0.1771 -0.2746 -0.4548
  971MOL0     C30979   8.772   0.181   2.903  0.2703  0.7385 -0.4460
  971MOL0     O30980   8.888   0.210   2.959  0.2228 -0.0058  0.3587
  971MOL0     C30981   9.007   0.171   2.894 -0.0920 -0.5170  0.9526
  971MOL0     C30982   9.051   0.221   2.769 -0.0872 -0.0800  0.7426
  971MOL0     C30983   9.180   0.185   2.728 -0.0392  0.4774 -0.1629
  971MOL0     C30984   9.261   0.095   2.801 -0.0396 -0.0290 -0.2347
  971MOL0     O30985   9.390   0.067   2.766  0.0018  0.5478 -0.3141
  971MOL0     C30986   9.467   0.173   2.704  0.1692 -0.5808  0.0093
  971MOL0     C30987   9.605   0.156   2.767 -0.3171  0.7158 -0.6443
  971MOL0     C30988   9.729   0.224   2.706 -1.0617  0.3540  1.0686
  971MOL0     C30989   9.854   0.228   2.789 -0.0813  0.4670 -0.0415
  971MOL0     C30990   9.970   0.296   2.713 -0.4657  0.2019  0.0693
  971MOL0     C30991  10.107   0.275   2.789  0.0746 -0.1894  0.8979
  971MOL0     C30992  10.218   0.343   2.718 -0.2323 -0.1943 -0.0913
  971MOL0     C30993  10.362   0.324   2.780 -1.0661 -0.3441 -0.2206
  971MOL0    Cl30994  10.458   0.464   2.758 -0.1238  0.1995  0.0972
  971MOL0     C30995   9.214   0.042   2.927 -0.0585  0.1952 -0.1857
  971MOL0     C30996   9.087   0.088   2.969  0.1796 -0.5349  0.4803
  971MOL0     O30997   8.752   0.122   2.798 -0.3805 -0.1667  1.0419
  971MOL0     C30998   8.657   0.283   3.108  0.2460  0.6095 -0.5227
  971MOL0     C30999   8.544   0.332   3.172 -0.1601  0.1421  0.3837
  971MOL0     N31000   7.711   0.668   3.170  0.3178  0.4514 -0.0296
  971MOL0     N31001   7.601   0.736   3.164 -0.0808 -0.2058  0.4074
  971MOL0     C31002   7.440   1.584   3.053  0.2551  0.2954  0.6543
  971MOL0     C31003   7.477   1.617   2.920 -0.5493 -0.7733 -0.9133
  971MOL0     C31004   7.515   1.824   2.528  0.3674  0.7059  0.0979
  971MOL0     C31005   7.397   1.865   2.470 -0.2833 -0.2409 -0.3050
  971MOL0     C31006   7.391   1.961   2.367  0.9402 -0.2944 -0.5177
  971MOL0     C31007   7.511   2.012   2.317  0.7722  0.2273 -0.6736
  971MOL0     O31008   7.493   2.116   2.228  0.7125  0.1291 -0.6017
  971MOL0     C31009   7.617   2.188   2.203  0.1932  0.7723  0.5780
  971MOL0     C31010   7.673   2.275   2.311  0.0564  0.0914 -0.0120
  971MOL0     C31011   7.782   2.368   2.265 -0.5700  0.3210  0.5382
  971MOL0     C31012   7.912   2.297   2.247  0.6256 -0.3236  0.1077
  971MOL0     C31013   8.014   2.396   2.204 -0.4455  0.1037 -0.0976
  971MOL0     C31014   8.098   2.475   2.172 -0.0404 -0.3325 -0.4132
  971MOL0     C31015   7.636   1.970   2.373  0.1329  0.1773 -0.6263
  971MOL0     C31016   7.632   1.880   2.478 -0.4495 -0.2960  0.6476
  971MOL0     C31017   7.771   1.858   2.544  0.4271  0.0861  0.0546
  971MOL0     H31018   7.206   1.812   2.854 -0.8336 -1.1867 -0.3082
  971MOL0     H31019   7.149   1.738   3.081 -0.2772  1.2884 -1.7418
  971MOL0     H31020   7.140   1.521   3.365  0.9561  0.3673  0.0968
  971MOL0     H31021   7.112   1.660   3.260  2.2772  1.8749 -0.1554
  971MOL0     H31022   7.093   1.490   3.072 -2.2099  2.4735 -0.3177
  971MOL0     H31023   6.985   1.448   3.211  0.0704  1.9899  1.5689
  971MOL0     H31024   7.260   1.331   3.136 -0.1246 -1.5156 -0.2874
  971MOL0     H31025   7.119   1.250   3.108 -1.0560  1.4518 -0.2660
  971MOL0     H31026   7.230   1.342   3.379 -1.1047 -0.6924  0.6759
  971MOL0     H31027   7.082   1.236   3.364 -1.7940  1.1201 -1.4443
  971MOL0     H31028   7.242   1.091   3.410 -0.2246 -0.9702 -0.8185
  971MOL0     H31029   7.261   1.071   3.238 -0.0116  1.6033 -1.2367
  971MOL0     H31030   7.466   1.244   3.263  1.9469  0.6825  1.4407
  971MOL0     H31031   7.437   1.214   3.437 -1.0007  0.5137 -0.6233
  971MOL0     H31032   7.457   0.967   3.404  1.9354 -1.9618 -1.1791
  971MOL0     H31033   7.603   1.053   3.379 -1.2586  1.0830  2.7958
  971MOL0     H31034   7.421   0.937   3.160 -1.9138  2.6688  0.2317
  971MOL0     H31035   7.546   1.039   3.122  2.5028 -2.4990 -1.0781
  971MOL0     H31036   7.824   0.962   3.249  0.8215 -1.2080  1.6238
  971MOL0     H31037   8.029   0.794   3.214  1.9757 -2.8715 -0.5785
  971MOL0     H31038   7.979   0.661   3.318 -2.9755 -0.4926 -0.4238
  971MOL0     H31039   7.931   0.546   3.082  0.7877  1.3695 -0.9292
  971MOL0     H31040   8.054   0.654   3.029  0.6626 -0.6577  0.6439
  971MOL0     H31041   8.079   0.442   3.231 -0.2271 -0.6429 -0.0730
  971MOL0     H31042   8.182   0.586   3.247 -1.6092 -1.6451  2.0201
  971MOL0     H31043   8.276   0.545   3.030  0.0683 -1.1848 -1.4141
  971MOL0     H31044   8.172   0.397   3.008 -0.8566 -0.0691  1.0875
  971MOL0     H31045   8.332   0.311   2.900  0.4427  1.2950 -2.5252
  971MOL0     H31046   8.518   0.203   2.802  0.5213 -1.7510  0.2431
  971MOL0     H31047   8.974   0.280   2.720 -0.3703 -0.0390  1.2310
  971MOL0     H31048   9.212   0.234   2.637 -4.1106  4.2142  0.1023
  971MOL0     H31049   9.470   0.155   2.597  1.9228  1.7567 -0.4176
  971MOL0     H31050   9.430   0.275   2.722  2.1787  0.4893 -1.4150
  971MOL0     H31051   9.604   0.195   2.869 -0.6416 -2.2476  0.5761
  971MOL0     H31052   9.633   0.051   2.771  0.6318  0.9488 -0.8677
  971MOL0     H31053   9.746   0.175   2.609  6.5889  1.3864  1.3003
  971MOL0     H31054   9.709   0.329   2.681  0.1374  0.4872  0.6026
  971MOL0     H31055   9.878   0.124   2.815 -1.9567  0.4271  1.8022
  971MOL0     H31056   9.840   0.285   2.881  3.6472  0.6456  0.5752
  971MOL0     H31057   9.954   0.404   2.714  0.1860  0.3048  1.2226
  971MOL0     H31058   9.968   0.267   2.608 -0.2225  1.8743 -0.4288
  971MOL0     H31059  10.098   0.327   2.885  1.5677  5.2557 -1.5163
  971MOL0     H31060  10.130   0.171   2.811 -0.1263 -0.3881  0.2129
  971MOL0     H31061  10.195   0.446   2.691 -0.4118 -0.8308 -2.6337
  971MOL0     H31062  10.234   0.294   2.621  0.4636 -1.0864  0.4503
  971MOL0     H31063  10.353   0.311   2.888  1.8456 -0.1497  0.1445
  971MOL0     H31064  10.406   0.228   2.752 -1.0249 -0.7784  1.2565
  971MOL0     H31065   9.280  -0.024   2.982 -1.6413  0.1601  1.7844
  971MOL0     H31066   9.063   0.071   3.074 -1.3306  3.2266  0.9290
  971MOL0     H31067   8.747   0.282   3.170 -0.7924  0.8584  1.0551
  971MOL0     H31068   8.547   0.367   3.275  1.0927  1.3384 -0.0285
  971MOL0     H31069   7.509   1.522   3.110  0.5027 -0.2572 -0.2258
  971MOL0     H31070   7.572   1.587   2.876  0.0226  1.5331 -1.3921
  971MOL0     H31071   7.306   1.817   2.504 -1.1658  0.9379 -0.9370
  971MOL0     H31072   7.296   1.997   2.329 -0.0478 -1.4516  0.7616
  971MOL0     H31073   7.592   2.249   2.116 -0.8339  1.1225  1.1080
  971MOL0     H31074   7.695   2.117   2.172 -1.5547 -1.7009  1.5282
  971MOL0     H31075   7.717   2.218   2.393 -1.3825 -2.3921 -0.8692
  971MOL0     H31076   7.587   2.330   2.352  0.1523 -1.0425  1.8471
  971MOL0     H31077   7.795   2.450   2.337  1.3709  0.8016 -0.3071
  971MOL0     H31078   7.746   2.422   2.177 -2.6353  1.5412  2.0244
  971MOL0     H31079   7.941   2.261   2.346  2.8867 -1.9342 -1.0611
  971MOL0     H31080   7.907   2.216   2.174 -1.7452  1.7358 -2.2486
  971MOL0     H31081   8.163   2.549   2.130 -1.4904  2.8693  2.4634
  971MOL0     H31082   7.734   2.016   2.368 -0.6824  2.2079  0.6306
  971MOL0     H31083   7.855   1.869   2.475 -0.6169 -0.8043 -1.4074
  971MOL0     H31084   7.780   1.933   2.623  0.8123 -1.4953  1.5812
  971MOL0     H31085   7.774   1.753   2.577 -1.3085 -0.3999 -1.1996
  972MOL0     O31086   9.457   9.878   2.840 -0.2304  0.0896 -0.2094
  972MOL0     C31087   9.528   9.777   2.823  0.0941 -0.6034 -0.9102
  972MOL0     O31088   9.626   9.779   2.727 -0.1502  0.4386 -0.4497
  972MOL0     C31089   9.619   9.875   2.631  0.5273 -0.0841 -0.0573
  972MOL0     C31090   9.716   9.964   2.620  0.9483  0.4260  0.4170
  972MOL0     C31091   9.723  10.044   2.503  0.9073 -0.3143 -0.2791
  972MOL0     C31092   9.620  10.039   2.405  0.6588 -0.6780  0.4817
  972MOL0     O31093   9.626  10.129   2.296 -0.1303 -0.3049  0.5239
  972MOL0     C31094   9.510  10.173   2.224  0.3581  0.8207  0.6527
  972MOL0     C31095   9.536  10.259   2.110  0.5724  0.6545  0.1938
  972MOL0     C31096   9.613  10.384   2.118  0.4657 -0.6875 -0.0330
  972MOL0     C31097   9.622  10.450   1.980  1.1278  0.8137  0.2425
  972MOL0     C31098   9.695  10.580   1.966 -0.4605  0.0883 -0.0286
  972MOL0     C31099   9.721  10.603   1.823 -0.3128 -0.2282  0.2926
  972MOL0     C31100   9.782  10.743   1.788  0.6188  0.3251 -0.6091
  972MOL0     C31101   9.927  10.768   1.821  0.1848 -0.6540  0.0461
  972MOL0     N31102  10.004  10.711   1.711 -0.0449  0.0887  0.0658
  972MOL0     C31103  10.073  10.593   1.686  0.7862  0.1749  0.2549
  972MOL0     C31104  10.141  10.611   1.572 -0.5348  0.5668 -0.2228
  972MOL0     C31105  10.239  10.517   1.503  0.2649  0.7617 -0.2680
  972MOL0     C31106  10.380  10.569   1.489  0.7420 -0.1432 -0.4574
  972MOL0     C31107  10.433  10.660   1.604  0.2453 -0.1066  0.0263
  972MOL0     C31108  10.582  10.663   1.596 -0.6148 -1.1746  0.1259
  972MOL0     O31109  10.664  10.545   1.628  1.0067 -0.3887 -0.3259
  972MOL0     C31110  10.786  10.537   1.582  0.0207  0.1585 -0.4385
  972MOL0     C31111  10.891  10.562   1.661  0.3251  0.4891 -0.0626
  972MOL0     C31112  11.022  10.540   1.626 -0.5430 -0.0079  1.0023
  972MOL0     C31113  11.047  10.506   1.492  0.1655  0.2117 -0.3490
  972MOL0     C31114  11.195  10.491   1.443 -0.2951  0.7463 -0.3184
  972MOL0     O31115  11.287  10.489   1.552  0.0176 -0.6735  0.4002
  972MOL0     C31116  11.409  10.438   1.523 -0.2764  1.0800 -0.3202
  972MOL0     C31117  11.469  10.328   1.588  0.2863  1.2517 -0.4700
  972MOL0     C31118  11.602  10.290   1.562 -0.3321  0.5467  0.7715
  972MOL0     C31119  11.684  10.353   1.464 -0.1122 -1.3092  0.7735
  972MOL0     O31120  11.808  10.309   1.452  0.0048  0.1477 -0.3937
  972MOL0     C31121  11.879  10.335   1.322 -0.2582 -0.2855 -0.2945
  972MOL0     C31122  11.983  10.453   1.337  0.5292 -0.3719 -0.3147
  972MOL0     C31123  12.061  10.455   1.467 -0.9090  1.2551 -0.0015
  972MOL0     C31124  12.139  10.585   1.486  0.2270 -0.0889 -0.8865
  972MOL0     C31125  12.254  10.549   1.583  0.5385 -1.0428 -0.0077
  972MOL0     C31126  12.333  10.671   1.608 -0.0838 -0.2936 -0.2912
  972MOL0     C31127  12.429  10.660   1.718 -0.3675 -0.4663 -0.6936
  972MOL0     C31128  12.373  10.662   1.862  0.6836 -0.2423 -0.0275
  972MOL0    Cl31129  12.503  10.662   1.989 -0.3633 -0.2101  0.5834
  972MOL0     C31130  11.629  10.471   1.400  0.3251  0.3093  0.2620
  972MOL0     C31131  11.496  10.513   1.434 -0.2073  1.2934 -0.2521
  972MOL0     O31132  11.219  10.458   1.325  0.1447 -0.1069  0.1846
  972MOL0     C31133  10.939  10.476   1.406  0.0443  0.8547  0.4512
  972MOL0     C31134  10.814  10.495   1.451  1.2524 -0.5689  0.3711
  972MOL0     N31135  10.115  10.738   1.524  0.3736  0.3094 -0.0668
  972MOL0     N31136  10.037  10.797   1.611 -0.5609 -0.5775 -0.2196
  972MOL0     C31137   9.513   9.957   2.438 -0.5770  1.0378  0.5672
  972MOL0     C31138   9.513   9.868   2.545 -0.7842  0.1593  0.2937
  972MOL0     C31139   9.523   9.657   2.909 -0.8867  0.2522 -1.2137
  972MOL0     C31140   9.624   9.567   2.898 -0.7547 -0.0134 -0.4673
  972MOL0     C31141   9.626   9.444   2.965  0.5040  0.4437  0.1473
  972MOL0     C31142   9.518   9.407   3.046  0.0453 -0.7590 -0.6235
  972MOL0     O31143   9.524   9.286   3.115 -0.4018 -0.4100  0.5029
  972MOL0     C31144   9.444   9.268   3.232 -0.5630  0.3839 -0.0079
  972MOL0     C31145   9.496   9.153   3.312 -0.0380 -0.2469 -0.3312
  972MOL0     C31146   9.424   9.129   3.455 -0.2974  0.1279 -0.0058
  972MOL0     C31147   9.452   8.991   3.495 -0.0713  0.5334  0.6149
  972MOL0     C31148   9.588   8.965   3.534  0.1671 -0.3053 -1.1039
  972MOL0     C31149   9.702   8.948   3.573  0.0608  0.2637 -0.1682
  972MOL0     C31150   9.410   9.500   3.053 -0.3236 -0.1729 -0.0733
  972MOL0     C31151   9.414   9.623   2.993  0.5789 -0.7940  0.2025
  972MOL0     C31152   9.298   9.710   3.020 -0.0252  0.2329 -0.4885
  972MOL0     H31153   9.798   9.966   2.691  1.5685  4.9281 -0.1377
  972MOL0     H31154   9.815  10.099   2.491  0.9131  0.2831  1.9489
  972MOL0     H31155   9.465  10.084   2.178  1.7441  0.0683  0.6835
  972MOL0     H31156   9.449  10.230   2.294  0.9358  1.3626  0.7185
  972MOL0     H31157   9.439  10.288   2.069 -1.1432 -0.8300  2.8808
  972MOL0     H31158   9.586  10.195   2.037 -1.1881 -1.4904  0.7800
  972MOL0     H31159   9.714  10.370   2.157 -0.6779 -1.1397  3.0635
  972MOL0     H31160   9.554  10.441   2.191  2.4678  1.9703 -0.3498
  972MOL0     H31161   9.670  10.375   1.917 -1.3797 -1.3198  0.7057
  972MOL0     H31162   9.520  10.467   1.942  0.3994 -1.2997  1.0906
  972MOL0     H31163   9.637  10.659   2.014 -1.8435 -1.6274  1.2480
  972MOL0     H31164   9.791  10.578   2.018 -2.1479  1.8728  3.4768
  972MOL0     H31165   9.786  10.524   1.783 -3.2463 -2.6706 -0.0516
  972MOL0     H31166   9.631  10.587   1.762 -0.5112 -3.3000  1.2246
  972MOL0     H31167   9.720  10.821   1.834  0.6338  0.0547 -0.1258
  972MOL0     H31168   9.771  10.754   1.680  1.8790  2.9704 -0.5558
  972MOL0     H31169   9.943  10.876   1.823 -1.4563 -0.3964  0.5450
  972MOL0     H31170   9.953  10.736   1.923  1.7325 -0.1240 -0.1554
  972MOL0     H31171  10.071  10.513   1.759 -1.2149  1.4677  1.7092
  972MOL0     H31172  10.238  10.421   1.557  0.0586  1.3267  0.7502
  972MOL0     H31173  10.197  10.491   1.405  0.7090 -0.9217 -0.0439
  972MOL0     H31174  10.435  10.474   1.483  0.5349 -0.4854  1.9351
  972MOL0     H31175  10.399  10.625   1.398  1.7242  0.7944  0.2974
  972MOL0     H31176  10.400  10.626   1.703  0.4718  2.4133  1.0315
  972MOL0     H31177  10.397  10.761   1.583 -0.2781  0.3543  2.7216
  972MOL0     H31178  10.609  10.727   1.681  0.4295 -0.0835 -0.9832
  972MOL0     H31179  10.620  10.702   1.501  0.5475 -0.3135  0.9098
  972MOL0     H31180  10.865  10.597   1.761 -0.0030  0.9392 -0.3013
  972MOL0     H31181  11.097  10.557   1.702  1.4578 -4.5842  0.3361
  972MOL0     H31182  11.404  10.277   1.658  0.4812  1.4977 -0.1056
  972MOL0     H31183  11.646  10.215   1.626 -1.9843 -1.2542 -0.0944
  972MOL0     H31184  11.939  10.247   1.295  1.2929  0.0105  1.8546
  972MOL0     H31185  11.813  10.345   1.236  0.1662 -2.3832 -0.9182
  972MOL0     H31186  12.063  10.443   1.264  1.6884 -2.3425  1.1406
  972MOL0     H31187  11.926  10.547   1.335 -2.9625 -2.3186 -1.6131
  972MOL0     H31188  12.002  10.438   1.558  0.0568  0.4468  0.5008
  972MOL0     H31189  12.125  10.367   1.454  0.2361  1.7047  2.0651
  972MOL0     H31190  12.081  10.672   1.517  0.8713  0.4572 -1.1965
  972MOL0     H31191  12.185  10.606   1.389 -1.2243 -0.8993 -1.7938
  972MOL0     H31192  12.323  10.479   1.536 -1.3484 -3.2136  0.2864
  972MOL0     H31193  12.203  10.512   1.673 -0.6027  2.2620  0.8683
  972MOL0     H31194  12.388  10.693   1.516 -1.2769  2.1523 -0.5011
  972MOL0     H31195  12.264  10.754   1.629 -1.6337 -1.7912  0.7386
  972MOL0     H31196  12.500  10.742   1.705  0.5111 -1.2317 -0.8930
  972MOL0     H31197  12.485  10.566   1.704 -0.1338 -0.6949  1.3981
  972MOL0     H31198  12.323  10.757   1.880  1.0172  0.1971 -1.3519
  972MOL0     H31199  12.298  10.583   1.876  0.7587 -0.3810 -0.3982
  972MOL0     H31200  11.694  10.526   1.333  0.2294 -0.8352 -0.8184
  972MOL0     H31201  11.461  10.606   1.392 -0.4965  2.1161  1.6829
  972MOL0     H31202  10.962  10.446   1.305 -1.1277 -0.8089  0.6374
  972MOL0     H31203  10.735  10.483   1.378  0.3110  1.8538  0.8850
  972MOL0     H31204   9.432   9.962   2.366  0.3488  1.5488 -0.4833
  972MOL0     H31205   9.438   9.790   2.558  1.1025 -1.3938  2.6730
  972MOL0     H31206   9.717   9.593   2.850 -0.7137 -2.9861 -2.2580
  972MOL0     H31207   9.712   9.381   2.946 -1.1749 -2.1913  0.8146
  972MOL0     H31208   9.339   9.243   3.213 -0.5556  0.6304 -0.3724
  972MOL0     H31209   9.442   9.356   3.297  0.7039  1.8624 -1.8400
  972MOL0     H31210   9.602   9.163   3.336  0.0299 -1.3575 -0.1205
  972MOL0     H31211   9.490   9.067   3.244  1.5238  0.6620 -1.6969
  972MOL0     H31212   9.315   9.132   3.443 -0.1256 -0.0301 -1.8059
  972MOL0     H31213   9.458   9.197   3.534 -0.2301 -1.1844  1.1386
  972MOL0     H31214   9.380   8.961   3.572  0.4183 -0.2499  0.7796
  972MOL0     H31215   9.440   8.923   3.410  2.3960  1.6482 -0.7443
  972MOL0     H31216   9.804   8.949   3.606 -0.4239  1.6761  1.4322
  972MOL0     H31217   9.314   9.464   3.090 -1.6402  2.6529 -0.4463
  972MOL0     H31218   9.244   9.675   3.109  1.1078 -1.1942 -0.3341
  972MOL0     H31219   9.324   9.815   3.035  1.2939 -0.1337 -0.0957
  972MOL0     H31220   9.227   9.707   2.937  0.8196 -1.1547 -1.1796
  973MOL0     O31221   6.769   2.719   3.097  0.2114  0.0177 -0.3824
  973MOL0     C31222   6.683   2.777   3.034 -0.5709  0.4830 -0.7813
  973MOL0     O31223   6.707   2.887   2.961 -0.1258  0.3782  0.8223
  973MOL0     C31224   6.835   2.914   2.935 -0.3950  1.3663 -0.4295
  973MOL0     C31225   6.893   2.847   2.830 -0.2014 -0.2807  0.5849
  973MOL0     C31226   7.016   2.884   2.782  0.1836 -0.2364 -0.4422
  973MOL0     C31227   7.102   2.963   2.862 -0.6269  0.1258  0.0278
  973MOL0     O31228   7.224   2.994   2.801 -0.5701 -0.3982  0.5064
  973MOL0     C31229   7.319   3.080   2.864  0.1588  0.3968 -0.3212
  973MOL0     C31230   7.441   3.104   2.775  0.4672  0.6779  0.1160
  973MOL0     C31231   7.533   3.216   2.826  0.0417  0.0346 -0.5342
  973MOL0     C31232   7.626   3.256   2.713 -0.4730  0.3956 -0.0613
  973MOL0     C31233   7.711   3.142   2.657  0.3433 -0.0177 -0.2005
  973MOL0     C31234   7.794   3.071   2.771  0.3479 -0.1582  1.2530
  973MOL0     C31235   7.881   2.957   2.710 -0.0112 -0.5365  1.2871
  973MOL0     C31236   8.012   2.952   2.782  0.1844  0.3412  0.3435
  973MOL0     N31237   7.987   2.889   2.914  0.4395 -0.3417  1.2717
  973MOL0     C31238   7.954   2.759   2.932 -0.0961  1.1801  0.2034
  973MOL0     C31239   7.949   2.745   3.072  0.0919  0.1060 -0.0342
  973MOL0     C31240   7.925   2.636   3.172  0.2998  0.5759  0.0073
  973MOL0     C31241   8.027   2.529   3.179  0.8577  0.6032  0.6822
  973MOL0     C31242   8.035   2.469   3.040 -0.3867  0.8197  0.8401
  973MOL0     C31243   8.100   2.326   3.045 -0.1300  0.3299  0.4146
  973MOL0     O31244   8.040   2.236   2.946 -0.4534 -0.4637  0.3521
  973MOL0     C31245   8.090   2.242   2.812  0.3979  0.6485 -0.0690
  973MOL0     C31246   8.209   2.301   2.766 -0.7105  0.1979 -0.1738
  973MOL0     C31247   8.260   2.277   2.640 -0.2507  0.9839 -0.1191
  973MOL0     C31248   8.191   2.188   2.553  0.6483 -0.0548 -0.5991
  973MOL0     C31249   8.238   2.146   2.422 -0.4210  0.1314  0.4453
  973MOL0     O31250   8.153   2.074   2.342  0.1753  0.2568 -0.2750
  973MOL0     C31251   8.200   2.025   2.223 -0.3278  0.3163 -0.3390
  973MOL0     C31252   8.222   2.110   2.118  0.5636  0.0999  0.3697
  973MOL0     C31253   8.258   2.054   1.987 -0.0235 -0.8502 -0.2642
  973MOL0     C31254   8.262   1.917   1.971 -0.6544  0.3947 -0.2009
  973MOL0     O31255   8.292   1.874   1.847  0.6097  0.4178 -0.2445
  973MOL0     C31256   8.190   1.872   1.745  0.7518  0.0001 -0.0939
  973MOL0     C31257   8.243   1.811   1.611  0.4396  1.4021 -0.7169
  973MOL0     C31258   8.165   1.849   1.485 -0.0666  0.5976  0.5046
  973MOL0     C31259   8.020   1.787   1.467  0.8606  0.2016  0.5787
  973MOL0     C31260   7.971   1.863   1.338 -0.7750 -0.0471 -0.0603
  973MOL0     C31261   7.834   1.813   1.300  0.3658 -0.6731 -0.1783
  973MOL0     C31262   7.720   1.903   1.345  0.1082 -0.3426 -0.3365
  973MOL0     C31263   7.582   1.838   1.323 -0.5168  0.1856  0.2390
  973MOL0    Cl31264   7.578   1.795   1.154  0.0329 -0.4689 -0.0784
  973MOL0     C31265   8.244   1.833   2.081  0.5277  0.4382  0.6271
  973MOL0     C31266   8.218   1.889   2.207 -0.4625  0.1221 -0.5117
  973MOL0     O31267   8.348   2.190   2.384  0.1647 -0.5343 -0.2733
  973MOL0     C31268   8.069   2.136   2.594  0.3875 -0.5926 -0.0050
  973MOL0     C31269   8.026   2.163   2.719  0.7849 -0.4252 -0.4155
  973MOL0     N31270   7.993   2.868   3.124  0.2798  0.3392 -0.0395
  973MOL0     N31271   8.023   2.949   3.025 -0.2740 -0.1067  0.1835
  973MOL0     C31272   7.059   2.992   2.991  0.1227  0.1364 -0.2150
  973MOL0     C31273   6.919   2.992   3.022  0.4345  0.9318 -0.1470
  973MOL0     C31274   6.539   2.724   3.034 -0.0632  0.6333 -0.1490
  973MOL0     C31275   6.444   2.790   2.947 -0.1723  0.2272  0.2552
  973MOL0     C31276   6.310   2.760   2.944  0.2103  0.6188 -0.0181
  973MOL0     C31277   6.262   2.656   3.022 -0.0468  0.6106 -0.0152
  973MOL0     O31278   6.145   2.587   3.019  0.6322  0.3206  0.1067
  973MOL0     C31279   6.040   2.652   2.930 -0.9642  0.5598  0.3510
  973MOL0     C31280   5.915   2.563   2.909 -0.7867 -0.3285 -0.2188
  973MOL0     C31281   5.813   2.636   2.831  0.6807  0.7328 -0.1216
  973MOL0     C31282   5.705   2.531   2.800 -0.2937 -0.5610 -0.4379
  973MOL0     C31283   5.597   2.599   2.732 -0.2735  0.0823  0.1244
  973MOL0     C31284   5.501   2.661   2.695 -0.0596 -0.5926  0.2215
  973MOL0     C31285   6.357   2.591   3.107 -0.0862  0.4723  0.2420
  973MOL0     C31286   6.494   2.631   3.125 -0.2885 -0.1838  0.1796
  973MOL0     C31287   6.583   2.553   3.223  0.3495  0.7616 -0.5696
  973MOL0     H31288   6.833   2.780   2.769 -0.9790  0.5441  0.4311
  973MOL0     H31289   7.047   2.849   2.685 -1.0799 -1.5589 -0.4008
  973MOL0     H31290   7.275   3.176   2.893  2.3294  1.2300  0.3928
  973MOL0     H31291   7.360   3.028   2.951  3.0605  1.7814 -0.7287
  973MOL0     H31292   7.399   3.121   2.675 -3.0562 -1.2688  1.0773
  973MOL0     H31293   7.495   3.010   2.760  0.2073  0.7699 -1.6946
  973MOL0     H31294   7.591   3.180   2.911 -0.2048  2.8434  0.9320
  973MOL0     H31295   7.467   3.300   2.852 -2.5270 -2.1192  0.3776
  973MOL0     H31296   7.583   3.305   2.626 -1.4948  1.9629  1.2836
  973MOL0     H31297   7.695   3.330   2.754  0.1376 -0.1558 -0.0685
  973MOL0     H31298   7.648   3.075   2.598 -1.6293  2.4144 -1.0104
  973MOL0     H31299   7.784   3.189   2.591  2.6863 -2.1037  0.7271
  973MOL0     H31300   7.849   3.155   2.813 -1.1997  0.9869  1.0793
  973MOL0     H31301   7.731   3.029   2.850 -0.7752 -0.6968  0.1076
  973MOL0     H31302   7.906   2.976   2.605 -0.1555 -1.1719  1.1383
  973MOL0     H31303   7.822   2.866   2.719 -1.5218  0.2169 -0.4110
  973MOL0     H31304   8.084   2.903   2.717  0.3675  1.3134 -0.2096
  973MOL0     H31305   8.055   3.051   2.800  2.1551  0.1309 -2.4887
  973MOL0     H31306   7.934   2.685   2.855  0.1602 -0.9022  2.0431
  973MOL0     H31307   7.921   2.675   3.274  0.8361 -0.2547  0.3499
  973MOL0     H31308   7.829   2.586   3.157  1.8463 -2.1110 -1.8174
  973MOL0     H31309   8.123   2.564   3.219  0.9144 -0.8842  1.9220
  973MOL0     H31310   8.000   2.451   3.250  1.4426  0.8855  1.2295
  973MOL0     H31311   8.087   2.535   2.971  0.6823 -0.6660  0.1795
  973MOL0     H31312   7.936   2.457   2.995 -0.6430  2.3645  0.9598
  973MOL0     H31313   8.067   2.276   3.137 -2.1673  0.4915 -0.1764
  973MOL0     H31314   8.209   2.319   3.044 -0.2529 -2.8466 -0.0490
  973MOL0     H31315   8.279   2.363   2.823 -0.0526  0.5919 -1.3833
  973MOL0     H31316   8.360   2.313   2.617 -0.2910  1.2268  0.0750
  973MOL0     H31317   8.218   2.217   2.140  0.3975 -0.1943  1.8368
  973MOL0     H31318   8.273   2.127   1.908 -1.7271  0.1824  0.3078
  973MOL0     H31319   8.109   1.805   1.775  0.3633 -0.2318 -1.6025
  973MOL0     H31320   8.170   1.977   1.723  2.9776  0.0957 -1.9554
  973MOL0     H31321   8.348   1.832   1.590  1.3451 -1.8278  0.0168
  973MOL0     H31322   8.254   1.705   1.633  0.0685  2.0305  3.2245
  973MOL0     H31323   8.171   1.958   1.473  1.3690  0.9101  3.2608
  973MOL0     H31324   8.228   1.812   1.403 -0.5377  0.3637  0.2404
  973MOL0     H31325   7.961   1.799   1.559 -0.2162 -0.0728 -0.0566
  973MOL0     H31326   8.032   1.680   1.446 -1.0630  0.2152 -0.9041
  973MOL0     H31327   8.046   1.854   1.258 -1.5213  3.9452 -1.4635
  973MOL0     H31328   7.971   1.969   1.364  0.4380 -0.6307  2.6015
  973MOL0     H31329   7.824   1.802   1.192 -3.7139 -0.9034  0.0558
  973MOL0     H31330   7.828   1.715   1.349  1.9309 -0.9364 -0.4711
  973MOL0     H31331   7.726   2.002   1.299  4.0868  0.5660  1.6685
  973MOL0     H31332   7.732   1.913   1.453 -0.3646 -1.3350 -0.1868
  973MOL0     H31333   7.583   1.751   1.390  1.3742  0.8572  1.1456
  973MOL0     H31334   7.495   1.900   1.346 -2.6243 -1.9275 -1.5056
  973MOL0     H31335   8.256   1.726   2.062 -4.4690  0.0302 -2.0487
  973MOL0     H31336   8.200   1.830   2.297 -2.8365 -1.8573 -2.1572
  973MOL0     H31337   8.002   2.093   2.521 -0.0992  2.2162 -1.3206
  973MOL0     H31338   7.921   2.141   2.735  1.0104 -0.9942  0.3481
  973MOL0     H31339   7.133   3.041   3.053  2.0420 -0.1282 -2.1681
  973MOL0     H31340   6.879   3.035   3.113 -0.1958 -0.2691  0.1803
  973MOL0     H31341   6.465   2.870   2.876  3.1501 -1.0441 -0.4231
  973MOL0     H31342   6.255   2.809   2.865 -2.7644  0.8372  2.0228
  973MOL0     H31343   6.088   2.664   2.832  1.5183  0.1785  1.4524
  973MOL0     H31344   6.001   2.742   2.978 -2.8671 -0.2952  0.5169
  973MOL0     H31345   5.873   2.535   3.006 -1.4441  2.6385  0.4331
  973MOL0     H31346   5.939   2.470   2.855 -4.5067 -1.7116  0.2268
  973MOL0     H31347   5.850   2.669   2.733  1.0282  1.3139  0.2004
  973MOL0     H31348   5.763   2.716   2.885 -2.0388  1.0852 -2.9097
  973MOL0     H31349   5.744   2.458   2.728 -1.4806 -1.0889 -0.5826
  973MOL0     H31350   5.668   2.477   2.888  1.1366 -1.4709 -0.3624
  973MOL0     H31351   5.414   2.716   2.664  1.0692  1.7805  1.0535
  973MOL0     H31352   6.326   2.494   3.145 -2.4692  1.2631  0.4741
  973MOL0     H31353   6.527   2.475   3.276  0.5933 -0.9509 -2.7050
  973MOL0     H31354   6.671   2.505   3.179  0.6703 -0.3227  1.1289
  973MOL0     H31355   6.613   2.619   3.305  0.0569  0.1418  0.0446
  974MOL0     O31356  10.871   2.832   5.398 -0.1168  0.9305  0.2780
  974MOL0     C31357  10.808   2.886   5.304  0.2333  0.0570  0.4613
  974MOL0     O31358  10.684   2.940   5.317  0.8836 -0.1100 -0.4588
  974MOL0     C31359  10.620   2.997   5.208 -0.3821  0.7955 -0.7931
  974MOL0     C31360  10.546   2.922   5.122 -0.0183 -0.3991 -0.5682
  974MOL0     C31361  10.478   2.989   5.024 -0.0452  1.3552  0.8911
  974MOL0     C31362  10.503   3.121   4.995 -0.0721  0.7356 -0.5870
  974MOL0     O31363  10.434   3.183   4.896  0.2675 -0.0190  0.1829
  974MOL0     C31364  10.295   3.152   4.883 -0.6865  0.4752  0.1831
  974MOL0     C31365  10.215   3.210   5.003 -0.1979 -0.0386 -0.5077
  974MOL0     C31366  10.071   3.170   4.997 -0.7418 -0.0089 -0.6326
  974MOL0     C31367   9.987   3.217   5.113 -0.1611 -0.0894  0.5933
  974MOL0     C31368   9.841   3.164   5.091  0.2149 -0.2730  0.0422
  974MOL0     C31369   9.736   3.205   5.194 -0.3734 -0.2725  0.2549
  974MOL0     C31370   9.598   3.202   5.143  1.5513 -0.4576 -0.4734
  974MOL0     C31371   9.545   3.351   5.122 -0.2109  0.6913 -0.4221
  974MOL0     N31372   9.614   3.405   5.001  0.1028  0.7647 -0.1168
  974MOL0     C31373   9.727   3.480   5.005 -0.0513 -0.2644 -0.4018
  974MOL0     C31374   9.750   3.505   4.874  1.4866  0.0653  0.4978
  974MOL0     C31375   9.852   3.589   4.808 -0.0112 -0.1420  0.3027
  974MOL0     C31376   9.981   3.518   4.785 -0.3774 -0.5683  0.6474
  974MOL0     C31377  10.080   3.596   4.706  0.4022 -0.5556  0.3095
  974MOL0     C31378  10.201   3.507   4.671  0.7704  0.0147 -1.0347
  974MOL0     O31379  10.169   3.445   4.545  0.1911 -0.0897 -0.0377
  974MOL0     C31380  10.260   3.448   4.446  0.0071  0.6195 -0.7337
  974MOL0     C31381  10.292   3.562   4.373  0.6438  0.5608  0.5446
  974MOL0     C31382  10.400   3.551   4.276  0.9552  0.6359  0.0088
  974MOL0     C31383  10.471   3.429   4.250 -1.0231 -1.3001  0.0240
  974MOL0     C31384  10.576   3.432   4.145 -1.3055  1.1266 -0.3319
  974MOL0     O31385  10.640   3.545   4.106 -0.6427  0.9690  0.1085
  974MOL0     C31386  10.727   3.539   4.001 -0.0393  0.2820  0.6424
  974MOL0     C31387  10.706   3.606   3.883  0.3925 -0.2794 -0.5412
  974MOL0     C31388  10.801   3.614   3.778  0.2059 -0.3226 -0.6568
  974MOL0     C31389  10.923   3.549   3.799  0.1678 -0.5802  0.9665
  974MOL0     O31390  11.008   3.549   3.689  0.4332  0.1485 -0.1934
  974MOL0     C31391  11.147   3.566   3.714  0.0972 -0.3388 -0.2675
  974MOL0     C31392  11.222   3.621   3.592  0.4414 -0.5605 -0.5342
  974MOL0     C31393  11.360   3.662   3.637 -0.0640  0.2029 -0.1986
  974MOL0     C31394  11.408   3.759   3.534  0.0454  0.2459  0.0646
  974MOL0     C31395  11.551   3.770   3.560 -0.3975 -0.1138 -0.7696
  974MOL0     C31396  11.613   3.893   3.491 -0.2103  0.1111 -0.8530
  974MOL0     C31397  11.753   3.918   3.545 -0.0803 -0.2041  0.0940
  974MOL0     C31398  11.853   3.827   3.470  0.3671 -0.7147 -0.4586
  974MOL0    Cl31399  12.023   3.844   3.540  0.7347  0.1303 -0.1294
  974MOL0     C31400  10.948   3.478   3.911  0.1455  0.3297  0.2146
  974MOL0     C31401  10.848   3.469   4.007  0.6611  0.0258  0.4380
  974MOL0     O31402  10.588   3.314   4.098 -0.1333 -0.5265 -0.5045
  974MOL0     C31403  10.437   3.319   4.335  0.2202 -0.2310 -0.1278
  974MOL0     C31404  10.337   3.331   4.432  0.8074 -0.1328  0.4999
  974MOL0     N31405   9.660   3.433   4.798  0.4578  0.1304 -0.0162
  974MOL0     N31406   9.573   3.370   4.873  0.7009 -0.2941 -0.1456
  974MOL0     C31407  10.573   3.191   5.082 -0.1591  0.3349 -1.2816
  974MOL0     C31408  10.634   3.131   5.193  0.9626  0.2940 -0.3367
  974MOL0     C31409  10.872   2.890   5.172  0.5777  0.0728 -0.2588
  974MOL0     C31410  10.847   2.791   5.080  0.1639 -0.3850 -0.2492
  974MOL0     C31411  10.903   2.794   4.956 -0.3166 -0.5852 -0.4694
  974MOL0     C31412  11.003   2.893   4.927 -0.1164  0.5605  0.1139
  974MOL0     O31413  11.055   2.891   4.800  0.7633  1.0099  0.5666
  974MOL0     C31414  11.128   2.770   4.769  0.7892  0.0463 -0.2851
  974MOL0     C31415  11.079   2.707   4.632 -0.2836 -0.8094  1.4154
  974MOL0     C31416  11.130   2.785   4.502  0.7106 -0.5101  0.1303
  974MOL0     C31417  11.101   2.703   4.370 -0.1978 -0.0156 -0.0425
  974MOL0     C31418  11.188   2.591   4.343 -0.5819  0.2383 -0.3083
  974MOL0     C31419  11.254   2.502   4.297 -0.5417 -0.0248 -0.0942
  974MOL0     C31420  11.025   2.996   5.016 -0.1552 -0.8477  0.1371
  974MOL0     C31421  10.968   2.995   5.144 -0.7413 -0.4432  0.0444
  974MOL0     C31422  11.002   3.107   5.246  0.2803 -0.8012 -0.0032
  974MOL0     H31423  10.533   2.814   5.128 -1.6166 -0.2241 -0.4769
  974MOL0     H31424  10.418   2.929   4.957  2.8460 -3.7440  2.3791
  974MOL0     H31425  10.267   3.208   4.793  1.4623  1.0151 -0.2056
  974MOL0     H31426  10.274   3.046   4.864 -1.2127  0.9302 -2.0644
  974MOL0     H31427  10.237   3.317   4.994  4.1576 -0.8224 -1.3564
  974MOL0     H31428  10.260   3.192   5.101 -0.3153  0.9104 -0.2756
  974MOL0     H31429  10.065   3.060   4.995  1.3627 -0.1474 -1.7047
  974MOL0     H31430  10.038   3.205   4.898  0.8473  1.9401 -0.5346
  974MOL0     H31431  10.020   3.204   5.216 -1.1230 -1.3842  0.7611
  974MOL0     H31432   9.977   3.326   5.115  0.2806  0.0160  4.2384
  974MOL0     H31433   9.799   3.197   4.996 -1.3008 -0.4009  0.6469
  974MOL0     H31434   9.833   3.055   5.080 -3.0379 -0.2946  1.4401
  974MOL0     H31435   9.745   3.131   5.273  0.4915 -0.3227  0.1166
  974MOL0     H31436   9.763   3.301   5.238 -0.1732 -0.3260  0.2498
  974MOL0     H31437   9.537   3.164   5.226  2.9511  1.2117  1.4138
  974MOL0     H31438   9.580   3.138   5.056  0.6862 -1.2866  0.2930
  974MOL0     H31439   9.438   3.339   5.099  0.3771 -3.1136 -1.9874
  974MOL0     H31440   9.560   3.411   5.212 -0.6473 -0.6139  0.5590
  974MOL0     H31441   9.794   3.504   5.087 -0.2353  1.3548 -0.6959
  974MOL0     H31442   9.818   3.632   4.714  1.4507  0.8358  0.1733
  974MOL0     H31443   9.882   3.674   4.871  1.1717  0.3463 -0.8693
  974MOL0     H31444  10.027   3.482   4.877 -1.9831 -1.7021  1.0366
  974MOL0     H31445   9.962   3.426   4.730 -0.5035  0.4764 -1.1264
  974MOL0     H31446  10.116   3.677   4.771  0.8019 -0.2869 -0.2400
  974MOL0     H31447  10.041   3.660   4.627 -0.6679  0.4331  1.5911
  974MOL0     H31448  10.222   3.438   4.753  1.6843  3.4769  1.8697
  974MOL0     H31449  10.286   3.575   4.668 -0.2437  1.2879 -3.0624
  974MOL0     H31450  10.236   3.654   4.389  1.2043  0.9214  0.4541
  974MOL0     H31451  10.434   3.635   4.216  1.6325  1.1080  1.0361
  974MOL0     H31452  10.613   3.661   3.891  0.4338 -0.2391 -0.3346
  974MOL0     H31453  10.797   3.685   3.696  1.5100  2.5851  1.6040
  974MOL0     H31454  11.170   3.622   3.805  1.9173  1.1123 -1.5420
  974MOL0     H31455  11.192   3.467   3.731  1.2937 -0.5305 -3.8139
  974MOL0     H31456  11.218   3.561   3.501 -2.9827 -1.6279  0.2030
  974MOL0     H31457  11.156   3.707   3.577 -0.3430 -0.9330  0.6510
  974MOL0     H31458  11.352   3.704   3.737 -1.1729 -1.3819  0.4069
  974MOL0     H31459  11.418   3.570   3.644 -0.1354  0.1254 -0.6053
  974MOL0     H31460  11.358   3.856   3.543 -0.2933  0.1297 -0.5065
  974MOL0     H31461  11.394   3.717   3.433 -0.6547  1.9080 -0.5654
  974MOL0     H31462  11.598   3.680   3.520  0.0480  0.1591 -0.8639
  974MOL0     H31463  11.559   3.778   3.669 -3.5418 -1.6561 -0.3280
  974MOL0     H31464  11.615   3.879   3.382 -1.6794  3.4859 -1.4457
  974MOL0     H31465  11.551   3.981   3.512  0.2066  0.9969 -3.0511
  974MOL0     H31466  11.758   3.905   3.653 -7.0210 -0.3795  0.8570
  974MOL0     H31467  11.784   4.023   3.536 -2.4794  0.8529  2.7337
  974MOL0     H31468  11.831   3.721   3.484  1.5421 -1.0584 -1.0601
  974MOL0     H31469  11.847   3.858   3.365  1.4109  2.6428  0.3320
  974MOL0     H31470  11.044   3.429   3.928  0.9327  1.1410 -1.6326
  974MOL0     H31471  10.883   3.414   4.094  1.0574  0.7867  0.7726
  974MOL0     H31472  10.484   3.222   4.321 -0.7846 -0.8900  0.9004
  974MOL0     H31473  10.311   3.247   4.496 -0.3412  0.7863  1.2956
  974MOL0     H31474  10.588   3.299   5.080  0.3320  0.4218  1.7887
  974MOL0     H31475  10.698   3.194   5.253  1.4422 -0.6676  0.1810
  974MOL0     H31476  10.772   2.714   5.096 -1.4678  0.7939 -1.7427
  974MOL0     H31477  10.880   2.721   4.880 -0.8010  0.3383 -1.2370
  974MOL0     H31478  11.118   2.697   4.850 -0.1662  0.6877  0.1848
  974MOL0     H31479  11.234   2.796   4.767  0.8242 -0.0380  0.3630
  974MOL0     H31480  10.970   2.716   4.631 -0.2751  1.0077 -2.4617
  974MOL0     H31481  11.105   2.601   4.626  1.0080 -0.5037  1.2943
  974MOL0     H31482  11.236   2.810   4.508  0.4475  1.0533 -1.1064
  974MOL0     H31483  11.082   2.882   4.489  0.9680 -0.1592  1.6171
  974MOL0     H31484  10.998   2.665   4.370 -0.7640  1.0842 -3.9939
  974MOL0     H31485  11.096   2.772   4.285 -1.0836 -0.9794 -0.8089
  974MOL0     H31486  11.321   2.425   4.264 -1.8600 -1.3649  0.2159
  974MOL0     H31487  11.105   3.067   4.995 -0.6213 -0.0961  0.8454
  974MOL0     H31488  11.030   3.060   5.340  0.4735  1.6701  1.2705
  974MOL0     H31489  11.076   3.181   5.213 -0.0156 -0.3306  0.3688
  974MOL0     H31490  10.914   3.168   5.269 -0.3541 -1.9334  0.6298
  975MOL0     O31491   8.676   7.547   1.687  0.1309  0.7261 -0.2877
  975MOL0     C31492   8.594   7.626   1.732 -0.2475 -0.8427  0.0604
  975MOL0     O31493   8.468   7.591   1.772 -0.0505  0.0386 -0.5050
  975MOL0     C31494   8.406   7.483   1.703 -0.5440 -0.6198 -0.7629
  975MOL0     C31495   8.333   7.501   1.586 -0.2469 -0.0692 -0.1679
  975MOL0     C31496   8.258   7.389   1.539  0.8058 -0.5159  0.2338
  975MOL0     C31497   8.258   7.265   1.602  0.1774 -1.0094 -0.0931
  975MOL0     O31498   8.201   7.160   1.540  0.5264 -0.0570 -0.3870
  975MOL0     C31499   8.266   7.031   1.532  0.2446 -0.7489  0.4955
  975MOL0     C31500   8.187   6.941   1.426 -1.2193  0.3059  0.5384
  975MOL0     C31501   8.244   6.789   1.412  0.0543  0.4117  1.1331
  975MOL0     C31502   8.194   6.747   1.268  0.0984  0.4647  0.4854
  975MOL0     C31503   8.220   6.597   1.240 -0.0255 -0.0409 -0.2874
  975MOL0     C31504   8.361   6.548   1.258 -0.3332  0.8694  1.1528
  975MOL0     C31505   8.458   6.605   1.151 -0.3978 -0.6507  0.1588
  975MOL0     C31506   8.590   6.522   1.146 -0.4689  0.1138 -0.0856
  975MOL0     N31507   8.691   6.560   1.046 -0.5263 -1.0256 -0.4137
  975MOL0     C31508   8.766   6.679   1.054  0.3294  0.1861  0.0167
  975MOL0     C31509   8.851   6.678   0.948  0.6713  0.4055  0.2060
  975MOL0     C31510   8.961   6.777   0.920  1.0456 -0.0257 -0.2514
  975MOL0     C31511   9.090   6.731   1.002  0.4709 -0.6109 -0.3238
  975MOL0     C31512   9.190   6.839   0.943  0.8017 -0.3664 -0.1861
  975MOL0     C31513   9.297   6.863   1.051 -0.3335 -0.1277 -0.5288
  975MOL0     O31514   9.424   6.861   0.984  0.6477 -0.0428 -0.3613
  975MOL0     C31515   9.540   6.880   1.042 -0.1883 -0.1624  0.0309
  975MOL0     C31516   9.645   6.891   0.958  0.1157 -0.9620 -0.2975
  975MOL0     C31517   9.762   6.950   1.009  0.1372  0.1616 -0.6335
  975MOL0     C31518   9.776   6.973   1.146 -0.3677  0.4298 -0.3530
  975MOL0     C31519   9.906   7.031   1.208  0.3420  0.2156 -0.1726
  975MOL0     O31520   9.936   6.974   1.334  0.8781  0.5701 -0.2999
  975MOL0     C31521  10.050   7.006   1.393  0.4246  0.4567  0.1703
  975MOL0     C31522  10.058   7.114   1.483 -0.0436 -0.4803 -0.6440
  975MOL0     C31523  10.178   7.147   1.550  0.4462  0.4658  1.2619
  975MOL0     C31524  10.295   7.073   1.526  1.0674 -0.5152  0.0438
  975MOL0     O31525  10.400   7.110   1.596 -0.1400  0.0103 -0.8575
  975MOL0     C31526  10.527   7.058   1.545 -0.1682 -0.6499 -0.8249
  975MOL0     C31527  10.645   7.147   1.585  0.5771 -1.1714  0.3471
  975MOL0     C31528  10.685   7.132   1.735 -1.1976 -0.0883 -0.7049
  975MOL0     C31529  10.818   7.209   1.772  0.2249  1.0006 -0.4510
  975MOL0     C31530  10.829   7.198   1.923 -0.0778 -0.6404  0.3928
  975MOL0     C31531  10.973   7.241   1.966 -1.2762  0.3714  0.4065
  975MOL0     C31532  11.012   7.221   2.112  0.0219 -0.7976  0.4813
  975MOL0     C31533  11.162   7.238   2.128  0.1313 -0.4097 -0.3058
  975MOL0    Cl31534  11.227   7.242   2.294 -0.1361 -0.0541 -0.3952
  975MOL0     C31535  10.276   6.956   1.455  0.4286 -0.6483 -0.0484
  975MOL0     C31536  10.163   6.918   1.377  1.0310 -0.4138  0.3493
  975MOL0     O31537   9.972   7.113   1.145 -0.3304 -0.6787  0.3032
  975MOL0     C31538   9.673   6.929   1.239 -0.1279  0.6372 -0.5557
  975MOL0     C31539   9.556   6.891   1.178  0.1182  0.2282  0.1385
  975MOL0     N31540   8.814   6.564   0.874  0.1390 -0.3450  0.1627
  975MOL0     N31541   8.721   6.493   0.933 -0.7877 -0.6013  0.5429
  975MOL0     C31542   8.346   7.245   1.713 -0.8671 -0.2507  0.2837
  975MOL0     C31543   8.422   7.353   1.759  0.1909 -0.9300  0.6956
  975MOL0     C31544   8.645   7.761   1.758  1.2841  0.2331 -0.4458
  975MOL0     C31545   8.567   7.843   1.843 -0.0862  0.0106 -0.6767
  975MOL0     C31546   8.616   7.964   1.885 -0.3452 -0.7263 -0.4015
  975MOL0     C31547   8.740   8.007   1.857  0.0705 -0.1101  0.1577
  975MOL0     O31548   8.794   8.125   1.907  0.0542 -0.0790 -0.4824
  975MOL0     C31549   8.758   8.235   1.826 -0.8866 -1.1484  0.4183
  975MOL0     C31550   8.778   8.357   1.911 -0.1790  0.1522 -0.1667
  975MOL0     C31551   8.651   8.454   1.889  0.0334  0.0424 -0.2610
  975MOL0     C31552   8.530   8.416   1.981  0.4893  0.4264  0.9366
  975MOL0     C31553   8.401   8.476   1.936  0.6779  0.4685 -0.3323
  975MOL0     C31554   8.300   8.524   1.897 -0.3102 -0.7397  1.1557
  975MOL0     C31555   8.824   7.939   1.770 -0.0728 -0.0632  0.8233
  975MOL0     C31556   8.777   7.812   1.718 -1.0484  0.3731  0.0998
  975MOL0     C31557   8.878   7.746   1.627 -0.4994  0.4035  0.0362
  975MOL0     H31558   8.340   7.595   1.532  1.7333 -0.5378 -0.8258
  975MOL0     H31559   8.187   7.410   1.460  0.1757  0.1145  0.9544
  975MOL0     H31560   8.371   7.034   1.502  0.4725  0.5150  1.3583
  975MOL0     H31561   8.266   6.989   1.633 -0.3342 -2.5060 -0.1852
  975MOL0     H31562   8.185   6.994   1.330 -1.1897  0.1006  0.4223
  975MOL0     H31563   8.080   6.932   1.447 -2.0215  1.6597 -2.3955
  975MOL0     H31564   8.190   6.730   1.487  2.8643 -1.7126  1.6698
  975MOL0     H31565   8.349   6.771   1.437  0.9295  2.7266 -0.5556
  975MOL0     H31566   8.087   6.766   1.263  0.2736  1.6851  0.9404
  975MOL0     H31567   8.262   6.812   1.212  1.0553  0.9270  2.0880
  975MOL0     H31568   8.158   6.544   1.313  1.5875 -0.6259  0.7209
  975MOL0     H31569   8.183   6.575   1.140  0.3988  0.8617 -0.6499
  975MOL0     H31570   8.392   6.575   1.360 -1.0345  0.9784  1.3409
  975MOL0     H31571   8.371   6.439   1.258  1.0695  0.9238 -1.3517
  975MOL0     H31572   8.480   6.712   1.160  0.9612 -0.8428 -0.5822
  975MOL0     H31573   8.416   6.587   1.052  1.4968  0.5185 -0.9003
  975MOL0     H31574   8.639   6.526   1.243  0.0169 -1.6575 -0.2226
  975MOL0     H31575   8.559   6.418   1.130 -0.1781  0.2023 -1.3910
  975MOL0     H31576   8.759   6.767   1.118  2.1623  2.4132 -2.5974
  975MOL0     H31577   8.980   6.778   0.812 -0.0855 -0.8824 -0.4697
  975MOL0     H31578   8.933   6.879   0.949 -0.6080  0.5843 -3.5212
  975MOL0     H31579   9.070   6.739   1.110 -0.8711  2.9252 -0.7086
  975MOL0     H31580   9.117   6.627   0.979 -0.3926 -0.7196 -0.8977
  975MOL0     H31581   9.146   6.937   0.924  0.2558 -1.0402 -2.8857
  975MOL0     H31582   9.226   6.801   0.846 -1.6262 -1.0319 -0.8909
  975MOL0     H31583   9.287   6.779   1.121  0.3800  0.7680  0.6835
  975MOL0     H31584   9.281   6.960   1.098  3.1943 -0.1092  0.9491
  975MOL0     H31585   9.626   6.873   0.853  1.2458  4.0168 -1.5835
  975MOL0     H31586   9.844   6.951   0.939 -0.3284 -3.1365 -1.4354
  975MOL0     H31587   9.972   7.177   1.506 -0.1919 -0.6551 -0.7193
  975MOL0     H31588  10.199   7.228   1.620  1.9474  0.8625  0.3902
  975MOL0     H31589  10.543   6.955   1.579 -2.3483 -0.8214 -0.1532
  975MOL0     H31590  10.528   7.052   1.436 -1.6041  1.4663 -1.0168
  975MOL0     H31591  10.728   7.114   1.522  0.7087  0.7907 -0.5833
  975MOL0     H31592  10.620   7.252   1.572  0.3778 -1.1802  0.6548
  975MOL0     H31593  10.599   7.159   1.798 -0.7735 -0.1794 -0.0772
  975MOL0     H31594  10.712   7.030   1.764 -1.3832  0.4964  1.7474
  975MOL0     H31595  10.816   7.313   1.740  0.4990  0.9751 -0.5584
  975MOL0     H31596  10.908   7.168   1.724 -0.1809 -0.6427  0.1076
  975MOL0     H31597  10.815   7.097   1.962 -0.6269 -0.3307  1.0145
  975MOL0     H31598  10.758   7.264   1.974  1.1724 -0.5096  2.0392
  975MOL0     H31599  11.042   7.170   1.920 -0.4682  1.5340 -0.2097
  975MOL0     H31600  11.011   7.338   1.932  1.9991 -0.0605  2.3988
  975MOL0     H31601  10.964   7.131   2.151  0.0312 -1.5046 -1.0301
  975MOL0     H31602  10.977   7.300   2.178  3.8902 -0.1390  1.9721
  975MOL0     H31603  11.220   7.160   2.078  2.9058  0.8379  0.7497
  975MOL0     H31604  11.188   7.336   2.087 -1.0740  1.6444  3.3569
  975MOL0     H31605  10.360   6.887   1.449 -0.3432 -1.8465  1.9982
  975MOL0     H31606  10.174   6.835   1.308 -0.4867 -1.3113  1.1469
  975MOL0     H31607   9.687   6.942   1.346  1.2977  1.8807 -0.8452
  975MOL0     H31608   9.478   6.879   1.253  1.4034  0.1926  1.5204
  975MOL0     H31609   8.347   7.153   1.771 -1.1864 -0.3986  0.0601
  975MOL0     H31610   8.487   7.355   1.846 -3.1953 -0.8858  3.4101
  975MOL0     H31611   8.469   7.813   1.880  1.2906 -2.0693  1.5759
  975MOL0     H31612   8.560   8.029   1.951  3.3371 -0.4529  2.8586
  975MOL0     H31613   8.656   8.229   1.788 -0.5468 -1.0452 -0.5418
  975MOL0     H31614   8.826   8.233   1.741  1.1361 -0.6609  1.9464
  975MOL0     H31615   8.869   8.406   1.875 -0.9597 -0.0993 -2.6968
  975MOL0     H31616   8.784   8.330   2.016  0.5646  1.0268  0.0254
  975MOL0     H31617   8.624   8.455   1.783 -1.5745 -1.1434  0.0956
  975MOL0     H31618   8.686   8.552   1.921 -3.0785  1.0598  0.3559
  975MOL0     H31619   8.529   8.307   1.968  1.0407  0.6409 -1.3454
  975MOL0     H31620   8.567   8.453   2.077 -2.4921  1.2612  1.8633
  975MOL0     H31621   8.214   8.572   1.857 -0.5500 -0.2691  2.2112
  975MOL0     H31622   8.915   7.987   1.736 -0.3554  2.0933  2.8732
  975MOL0     H31623   8.917   7.822   1.558  0.6273  0.0393  0.2478
  975MOL0     H31624   8.956   7.702   1.689 -1.5790 -1.0094  0.4369
  975MOL0     H31625   8.841   7.659   1.572  1.4718 -1.9454  2.1905
  976MOL0     O31626   9.824   6.351   1.328  0.0725  0.5080  0.5246
  976MOL0     C31627   9.739   6.443   1.352 -1.1425  0.4926 -0.1950
  976MOL0     O31628   9.759   6.552   1.436  0.5898 -0.1243 -0.5883
  976MOL0     C31629   9.872   6.573   1.511  0.0060 -0.1644  0.5961
  976MOL0     C31630   9.926   6.703   1.524 -0.4259  0.3306 -0.7513
  976MOL0     C31631  10.021   6.732   1.619 -0.7491  0.1648  0.8975
  976MOL0     C31632  10.075   6.631   1.699  0.1205 -0.9659  0.6970
  976MOL0     O31633  10.165   6.651   1.800 -0.0991 -0.0955  0.2399
  976MOL0     C31634  10.280   6.730   1.769  0.3526 -0.7034 -0.7749
  976MOL0     C31635  10.388   6.691   1.870 -0.1394 -0.2307  0.0584
  976MOL0     C31636  10.533   6.715   1.832 -0.5193 -0.8531 -0.6614
  976MOL0     C31637  10.631   6.626   1.893 -1.0753  0.6039 -1.2104
  976MOL0     C31638  10.637   6.493   1.811  0.2129 -0.3472  0.4357
  976MOL0     C31639  10.742   6.396   1.877 -0.3066 -0.6696  0.7357
  976MOL0     C31640  10.776   6.278   1.784 -0.4111  0.1582 -0.0691
  976MOL0     C31641  10.908   6.220   1.823  0.8709  0.7948 -0.2048
  976MOL0     N31642  10.921   6.090   1.761  0.6629 -1.1764 -0.3423
  976MOL0     C31643  11.007   5.994   1.810  0.4381  0.2833  0.1860
  976MOL0     C31644  10.992   5.887   1.724 -0.1263 -0.0811  0.6364
  976MOL0     C31645  11.069   5.750   1.715 -0.9342 -0.2965  0.6446
  976MOL0     C31646  11.222   5.776   1.701 -0.1973  0.0305  0.2104
  976MOL0     C31647  11.300   5.653   1.732  0.5132 -0.0056 -0.5572
  976MOL0     C31648  11.432   5.661   1.655 -0.1837 -1.1564  0.4463
  976MOL0     O31649  11.484   5.788   1.644  0.0387 -0.6884  0.7903
  976MOL0     C31650  11.619   5.789   1.642 -0.0655  0.2229 -0.2791
  976MOL0     C31651  11.695   5.784   1.525  0.1378 -0.6958  0.2061
  976MOL0     C31652  11.832   5.781   1.533 -1.1691  0.8871  0.0788
  976MOL0     C31653  11.902   5.792   1.653  0.2628 -0.2892  0.3503
  976MOL0     C31654  12.046   5.832   1.659  0.0534 -0.1599  0.4891
  976MOL0     O31655  12.108   5.871   1.542  0.1656  0.3110 -0.1531
  976MOL0     C31656  12.240   5.892   1.531  0.3209 -0.4644 -0.3253
  976MOL0     C31657  12.306   5.999   1.595  0.0741 -0.1300  0.7304
  976MOL0     C31658  12.438   6.011   1.588 -0.0928  0.5903 -1.2150
  976MOL0     C31659  12.521   5.927   1.506 -0.3245  0.6511 -0.7736
  976MOL0     O31660  12.660   5.925   1.489  0.8509  0.8028  0.2702
  976MOL0     C31661  12.751   5.987   1.579 -1.0550  0.9626  0.6620
  976MOL0     C31662  12.892   5.957   1.545  0.9895 -0.9025  0.0990
  976MOL0     C31663  12.984   6.045   1.626  0.0493 -0.0528 -0.4751
  976MOL0     C31664  13.123   6.041   1.577 -0.1011  0.5209 -0.5263
  976MOL0     C31665  13.216   6.074   1.693  0.4279  0.1632 -0.5392
  976MOL0     C31666  13.360   6.079   1.651  1.1746  0.3334  0.7571
  976MOL0     C31667  13.464   6.083   1.766  0.6057 -0.2810 -0.2659
  976MOL0     C31668  13.596   6.146   1.732  0.4084 -0.3545 -0.1156
  976MOL0    Cl31669  13.684   6.032   1.626  0.1842 -0.7835  0.4832
  976MOL0     C31670  12.443   5.822   1.435 -0.0853 -0.0023 -0.1831
  976MOL0     C31671  12.305   5.804   1.448  0.1769 -0.0077 -0.0833
  976MOL0     O31672  12.105   5.828   1.767  0.5211 -0.1749 -0.0986
  976MOL0     C31673  11.821   5.795   1.773 -0.1850 -0.1862 -0.4150
  976MOL0     C31674  11.683   5.790   1.764 -0.5490 -0.6498  0.2860
  976MOL0     N31675  10.892   5.919   1.640 -0.1749 -0.1802 -0.0873
  976MOL0     N31676  10.849   6.041   1.661 -0.4300  0.4934  0.5672
  976MOL0     C31677  10.035   6.503   1.686  0.7298  0.1237  1.0259
  976MOL0     C31678   9.928   6.476   1.592 -0.0063  0.2973  0.1443
  976MOL0     C31679   9.603   6.430   1.290 -0.2219 -0.0803  1.0660
  976MOL0     C31680   9.491   6.498   1.344 -0.7003  0.0289 -0.5185
  976MOL0     C31681   9.362   6.481   1.299  0.5761  0.5996  0.4496
  976MOL0     C31682   9.340   6.417   1.169 -0.1161 -0.0672 -0.5519
  976MOL0     O31683   9.219   6.424   1.111  0.4286  0.2691 -0.2351
  976MOL0     C31684   9.160   6.310   1.042 -0.7329 -0.3398  0.5610
  976MOL0     C31685   9.013   6.333   1.054  0.8317  0.1023  0.6584
  976MOL0     C31686   8.937   6.295   1.190  0.1946 -0.4008  0.2856
  976MOL0     C31687   8.930   6.141   1.194 -0.2224  0.4052  0.0026
  976MOL0     C31688   8.869   6.100   1.321 -0.6875 -0.0835  0.1321
  976MOL0     C31689   8.842   6.053   1.427  0.0500 -0.3015 -0.1033
  976MOL0     C31690   9.456   6.357   1.113  0.7570  0.1301  0.5161
  976MOL0     C31691   9.581   6.363   1.168  0.6548  0.0119  0.1225
  976MOL0     C31692   9.692   6.301   1.093  0.0227  0.2218  0.1885
  976MOL0     H31693   9.897   6.784   1.458  0.6930  1.2537 -0.1465
  976MOL0     H31694  10.056   6.831   1.643 -1.2926 -0.0932  2.9366
  976MOL0     H31695  10.313   6.711   1.667  1.9949  2.3818 -0.9444
  976MOL0     H31696  10.247   6.834   1.771 -0.8154 -1.0463 -1.5334
  976MOL0     H31697  10.371   6.585   1.887 -1.8095 -0.3702 -2.0123
  976MOL0     H31698  10.366   6.746   1.962 -1.1379  1.1850 -0.9745
  976MOL0     H31699  10.551   6.814   1.876  4.4791 -0.9886 -1.7890
  976MOL0     H31700  10.552   6.726   1.725 -0.5186  0.5832 -0.5346
  976MOL0     H31701  10.730   6.671   1.897 -1.2628  0.9228  0.3967
  976MOL0     H31702  10.608   6.586   1.992 -0.3031 -1.4434 -1.7953
  976MOL0     H31703  10.543   6.438   1.823 -0.9991  1.7974  1.4118
  976MOL0     H31704  10.651   6.519   1.706 -1.1018  0.8083  0.5217
  976MOL0     H31705  10.834   6.448   1.904 -0.5661 -0.1226  0.5904
  976MOL0     H31706  10.699   6.357   1.970 -0.7470  0.2763  0.9403
  976MOL0     H31707  10.777   6.310   1.679 -1.3698 -0.0280 -0.1443
  976MOL0     H31708  10.695   6.206   1.793  0.3379 -0.5406  1.2725
  976MOL0     H31709  10.985   6.294   1.802  0.4459  1.7422  1.4187
  976MOL0     H31710  10.913   6.203   1.931  0.0444  1.9499  0.0306
  976MOL0     H31711  11.072   5.987   1.896  0.8243 -0.9925 -0.1811
  976MOL0     H31712  11.040   5.697   1.806 -2.6676 -1.6650 -0.6330
  976MOL0     H31713  11.027   5.699   1.628  1.8493  1.8744 -2.2162
  976MOL0     H31714  11.239   5.796   1.595  2.2308 -2.4264  0.0154
  976MOL0     H31715  11.258   5.854   1.769  1.3669 -1.7630  1.5905
  976MOL0     H31716  11.247   5.563   1.700 -0.6395  0.3736  0.2498
  976MOL0     H31717  11.313   5.646   1.841 -1.5358  1.6933 -0.1618
  976MOL0     H31718  11.414   5.617   1.556  0.7515  1.3966 -0.9612
  976MOL0     H31719  11.512   5.602   1.700  2.5485  2.7137  1.2088
  976MOL0     H31720  11.656   5.772   1.425 -0.6521  0.6673  0.3310
  976MOL0     H31721  11.900   5.767   1.450 -0.1801 -0.7945  1.1124
  976MOL0     H31722  12.248   6.068   1.655 -1.0666  0.6216 -1.1374
  976MOL0     H31723  12.492   6.091   1.637  3.9831 -1.3182 -2.1758
  976MOL0     H31724  12.747   6.095   1.565 -0.1629  0.8701 -0.4991
  976MOL0     H31725  12.746   5.956   1.684  1.2841 -2.1803  0.0134
  976MOL0     H31726  12.919   5.855   1.573  0.9932 -0.2221  2.9075
  976MOL0     H31727  12.906   5.980   1.439  0.7716  0.3644  0.3302
  976MOL0     H31728  12.955   6.151   1.626 -1.5169 -0.4580 -0.9255
  976MOL0     H31729  12.982   6.015   1.731 -1.1434  2.5969  0.3422
  976MOL0     H31730  13.133   6.100   1.486  0.8369 -3.0042 -2.9344
  976MOL0     H31731  13.164   5.947   1.538 -0.1486  1.2035 -2.3090
  976MOL0     H31732  13.212   5.994   1.767  2.8698  1.9032  1.6878
  976MOL0     H31733  13.176   6.164   1.741 -0.1196 -0.9012  1.0833
  976MOL0     H31734  13.385   5.998   1.582 -2.0322  1.1511 -1.5826
  976MOL0     H31735  13.373   6.177   1.603 -0.5998  0.4293  0.3980
  976MOL0     H31736  13.481   5.979   1.795  1.0141  0.3366  1.8738
  976MOL0     H31737  13.421   6.132   1.853  1.1951  1.0026 -0.6725
  976MOL0     H31738  13.590   6.249   1.695 -0.2885 -0.3899 -0.1095
  976MOL0     H31739  13.654   6.149   1.824  0.1589 -0.7481  0.0581
  976MOL0     H31740  12.502   5.745   1.387 -1.1711 -0.4105 -0.8950
  976MOL0     H31741  12.256   5.718   1.403  1.6055 -3.4961  4.2862
  976MOL0     H31742  11.867   5.803   1.871  0.7072 -2.1115 -0.6327
  976MOL0     H31743  11.626   5.798   1.856  0.7295  3.5216  0.9140
  976MOL0     H31744  10.068   6.424   1.753  0.7535 -1.0053 -0.2653
  976MOL0     H31745   9.886   6.377   1.589 -1.3811  0.8173  1.3177
  976MOL0     H31746   9.492   6.558   1.434  0.5995 -0.6286 -0.0687
  976MOL0     H31747   9.273   6.528   1.341 -1.9449 -2.2322 -1.2412
  976MOL0     H31748   9.205   6.229   1.101  1.1951  0.3720  0.1617
  976MOL0     H31749   9.187   6.299   0.937 -2.2081 -1.0072  0.2386
  976MOL0     H31750   8.957   6.286   0.973  2.6451 -2.3071  0.6959
  976MOL0     H31751   8.998   6.441   1.046  0.5074  0.0651  0.7698
  976MOL0     H31752   8.836   6.338   1.193  1.4373  3.0870 -1.7643
  976MOL0     H31753   8.990   6.339   1.275 -1.7832 -0.5475  1.6729
  976MOL0     H31754   8.862   6.110   1.114 -2.4193  1.0168  1.5298
  976MOL0     H31755   9.023   6.084   1.186  0.2518  0.7418  2.3522
  976MOL0     H31756   8.817   6.001   1.517  0.1456  0.6520  0.4722
  976MOL0     H31757   9.438   6.308   1.019 -1.8775  0.5831  0.7089
  976MOL0     H31758   9.658   6.279   0.992  2.0488  0.2098 -0.5340
  976MOL0     H31759   9.783   6.360   1.081  0.2308 -0.4042 -1.5245
  976MOL0     H31760   9.717   6.206   1.141 -1.1694 -0.1836  0.0416
  977MOL0     O31761   0.299   2.241   1.301  0.7150  0.1016  0.2549
  977MOL0     C31762   0.308   2.169   1.403 -0.6548 -0.4177  0.8691
  977MOL0     O31763   0.420   2.124   1.450 -0.6954 -0.5095 -0.3890
  977MOL0     C31764   0.534   2.117   1.375 -0.4123 -0.4510 -0.2457
  977MOL0     C31765   0.531   2.090   1.234  0.4837  0.5152 -0.5374
  977MOL0     C31766   0.641   2.104   1.157 -0.1492  0.3572 -0.3733
  977MOL0     C31767   0.771   2.130   1.225 -0.6147 -0.0681 -0.1509
  977MOL0     O31768   0.881   2.145   1.136  0.2975  0.5320  0.3378
  977MOL0     C31769   0.993   2.219   1.192  0.1671  0.2424  0.3453
  977MOL0     C31770   1.111   2.229   1.088 -0.6057  0.0412 -0.7305
  977MOL0     C31771   1.211   2.106   1.095  0.1383  0.0108  0.0871
  977MOL0     C31772   1.270   2.085   1.238  0.5024  0.0577 -0.2901
  977MOL0     C31773   1.386   1.993   1.240  0.1523 -0.1307  0.3764
  977MOL0     C31774   1.349   1.857   1.187 -0.2037 -0.8297 -0.7239
  977MOL0     C31775   1.476   1.775   1.165  0.0872 -0.1916 -0.0494
  977MOL0     C31776   1.626   1.839   1.137  0.0460  0.2078  0.5029
  977MOL0     N31777   1.704   1.733   1.084  0.4742 -0.0647 -0.3802
  977MOL0     C31778   1.680   1.696   0.952  0.8910 -0.4667  0.4012
  977MOL0     C31779   1.796   1.622   0.925  0.2088  1.2098 -0.2017
  977MOL0     C31780   1.827   1.548   0.803 -0.3532  0.2709  0.0805
  977MOL0     C31781   1.856   1.651   0.699  0.0615 -0.6940 -0.1497
  977MOL0     C31782   1.922   1.582   0.587 -0.2303 -0.9401  0.2176
  977MOL0     C31783   1.908   1.660   0.461 -0.2186  0.8810  0.0075
  977MOL0     O31784   1.901   1.567   0.352 -0.5421 -0.2960 -0.5015
  977MOL0     C31785   2.033   1.530   0.299  1.0557 -0.3822  0.5199
  977MOL0     C31786   2.016   1.451   0.188 -0.6811 -0.3381  0.2579
  977MOL0     C31787   2.132   1.402   0.119  0.8316 -0.7783  0.6480
  977MOL0     C31788   2.260   1.440   0.146 -0.2389  0.2951  0.2928
  977MOL0     C31789   2.377   1.387   0.070 -0.6505 -0.4317  0.8208
  977MOL0     O31790   2.499   1.445   0.088 -0.6181 -0.4994 -0.3047
  977MOL0     C31791   2.610   1.407   0.008  0.4960  0.5917  0.6077
  977MOL0     C31792   2.735   1.404   0.060 -0.1845 -0.0098 -0.7851
  977MOL0     C31793   2.846   1.374  -0.012 -0.4010  0.2773  0.1268
  977MOL0     C31794   2.831   1.360  -0.147  0.3625  0.3996 -0.1267
  977MOL0     O31795   2.933   1.337  -0.237  0.4043 -0.5793  0.0981
  977MOL0     C31796   3.067   1.305  -0.201  0.5064 -0.7639  0.3647
  977MOL0     C31797   3.092   1.165  -0.138  0.2094 -0.1483  0.4792
  977MOL0     C31798   3.233   1.156  -0.078 -0.4735  0.3161 -0.3231
  977MOL0     C31799   3.238   1.044   0.021  0.7825 -0.2449 -0.2595
  977MOL0     C31800   3.369   1.037   0.092  0.4499  0.6280 -0.0315
  977MOL0     C31801   3.376   0.936   0.212  0.2218 -0.7962  0.6017
  977MOL0     C31802   3.378   0.788   0.146  0.5400 -0.6469 -0.1060
  977MOL0     C31803   3.444   0.679   0.237  0.2450 -0.5195  0.5027
  977MOL0    Cl31804   3.420   0.519   0.164 -0.2419 -0.0957  0.0753
  977MOL0     C31805   2.704   1.383  -0.211  0.1107  0.4072  0.0922
  977MOL0     C31806   2.590   1.401  -0.130 -0.2365  0.1098  0.4843
  977MOL0     O31807   2.347   1.297  -0.007  0.6298  0.5516 -0.3173
  977MOL0     C31808   2.271   1.523   0.257 -0.0602  0.3622  1.7012
  977MOL0     C31809   2.161   1.554   0.341  0.4533 -0.4837 -0.3522
  977MOL0     N31810   1.875   1.623   1.037 -1.1238 -0.2219  0.0642
  977MOL0     N31811   1.822   1.686   1.131 -0.9070  0.0381 -1.0774
  977MOL0     C31812   0.774   2.144   1.362 -0.2940 -0.7450 -0.3914
  977MOL0     C31813   0.658   2.140   1.439 -0.4312 -0.0787 -0.0721
  977MOL0     C31814   0.189   2.140   1.465  0.4528 -0.9069  0.5312
  977MOL0     C31815   0.192   2.150   1.604 -0.5437 -0.3178 -0.1939
  977MOL0     C31816   0.073   2.134   1.676 -0.1379 -0.2046 -0.1665
  977MOL0     C31817  -0.047   2.119   1.613  0.0136  0.7660  0.0305
  977MOL0     O31818  -0.164   2.116   1.693 -0.8248  0.2468  0.5177
  977MOL0     C31819  -0.279   2.043   1.650 -0.6942  0.9054  0.3351
  977MOL0     C31820  -0.374   2.034   1.768 -0.1291 -0.6753  0.6314
  977MOL0     C31821  -0.331   1.965   1.895 -0.5505  0.7363  0.0831
  977MOL0     C31822  -0.449   1.980   1.996  0.0813  1.0136  0.0049
  977MOL0     C31823  -0.494   2.118   2.025 -0.2110  0.9546 -0.3528
  977MOL0     C31824  -0.534   2.232   2.037  0.4357  0.2185 -0.3971
  977MOL0     C31825  -0.050   2.108   1.474  0.1722 -0.6153 -0.0707
  977MOL0     C31826   0.066   2.122   1.400 -0.1837 -0.1008 -1.3819
  977MOL0     C31827   0.052   2.102   1.252 -0.7696  0.0885 -0.2754
  977MOL0     H31828   0.439   2.094   1.176  0.8642  2.7085 -1.0712
  977MOL0     H31829   0.640   2.108   1.048 -2.5130 -2.6281 -0.5952
  977MOL0     H31830   0.955   2.316   1.227 -2.4029  0.2405 -2.1034
  977MOL0     H31831   1.019   2.151   1.274  1.1529 -2.1083 -1.8139
  977MOL0     H31832   1.168   2.321   1.095 -1.0077  0.2529 -0.1595
  977MOL0     H31833   1.071   2.241   0.987  1.6311  2.8871 -1.3796
  977MOL0     H31834   1.293   2.123   1.025 -0.6449  3.6835 -0.1884
  977MOL0     H31835   1.157   2.014   1.074  0.8368 -0.6162  0.9626
  977MOL0     H31836   1.309   2.180   1.276 -0.0188 -0.4849  1.7367
  977MOL0     H31837   1.186   2.048   1.297  1.5878 -1.2037  0.5057
  977MOL0     H31838   1.460   2.044   1.177  0.6017 -0.7485  0.3970
  977MOL0     H31839   1.415   1.983   1.345  1.2816 -0.5803  0.0342
  977MOL0     H31840   1.276   1.814   1.256  0.1229 -0.5369 -0.1927
  977MOL0     H31841   1.309   1.867   1.085  2.4083 -1.7605 -1.9417
  977MOL0     H31842   1.452   1.703   1.086  1.1525 -2.1541  1.3255
  977MOL0     H31843   1.478   1.711   1.254 -3.0023  2.5508  2.2632
  977MOL0     H31844   1.621   1.920   1.064  0.7612 -0.3185 -0.1401
  977MOL0     H31845   1.665   1.876   1.233  0.1795  1.1380  0.1042
  977MOL0     H31846   1.604   1.716   0.877  1.2466  3.3373  0.8561
  977MOL0     H31847   1.914   1.484   0.819 -0.3607 -0.1177 -1.2475
  977MOL0     H31848   1.737   1.489   0.781 -0.5534 -0.0436  1.6224
  977MOL0     H31849   1.765   1.696   0.658  1.1741  0.0121 -2.0366
  977MOL0     H31850   1.914   1.735   0.740 -0.9302 -1.0044  1.9686
  977MOL0     H31851   1.875   1.484   0.576 -0.3910 -1.0154  1.4610
  977MOL0     H31852   2.023   1.558   0.622 -0.5372 -0.6710  1.2952
  977MOL0     H31853   1.980   1.740   0.445  0.8450  0.2017  1.2584
  977MOL0     H31854   1.817   1.720   0.467 -0.2086  0.7878  1.3478
  977MOL0     H31855   1.915   1.429   0.158 -1.7267  2.8699  1.0151
  977MOL0     H31856   2.108   1.342   0.032  0.0518  3.8680 -2.7611
  977MOL0     H31857   2.746   1.433   0.164  1.7875 -0.2810 -0.8825
  977MOL0     H31858   2.942   1.376   0.040  0.4399  0.8561 -1.3799
  977MOL0     H31859   3.116   1.322  -0.298 -1.7381  0.8061 -0.5624
  977MOL0     H31860   3.102   1.386  -0.137 -1.6969 -1.3360  2.4344
  977MOL0     H31861   3.007   1.158  -0.070 -0.7825  2.8003 -0.3273
  977MOL0     H31862   3.077   1.086  -0.212 -1.6929 -0.2384  0.9146
  977MOL0     H31863   3.304   1.129  -0.158 -0.1855 -0.2270  0.1049
  977MOL0     H31864   3.267   1.250  -0.034  1.1247  0.8100 -2.4241
  977MOL0     H31865   3.220   0.947  -0.026  1.0966 -0.0780 -0.7321
  977MOL0     H31866   3.160   1.065   0.095  0.3044  2.6499 -1.4436
  977MOL0     H31867   3.406   1.133   0.129  1.2598  0.1126  0.5357
  977MOL0     H31868   3.435   1.005   0.010  0.6738  0.5487  0.1769
  977MOL0     H31869   3.469   0.968   0.260 -0.1136  4.9118 -1.7620
  977MOL0     H31870   3.295   0.945   0.284  1.5159 -0.4367  2.0789
  977MOL0     H31871   3.420   0.795   0.045 -2.7092  3.0951 -1.4701
  977MOL0     H31872   3.278   0.771   0.105  1.5087 -0.0133 -2.9431
  977MOL0     H31873   3.550   0.702   0.229 -0.7130  4.2314 -2.5672
  977MOL0     H31874   3.411   0.674   0.341 -0.1187 -0.9532  0.3705
  977MOL0     H31875   2.702   1.381  -0.320  0.9923  1.3134  0.0456
  977MOL0     H31876   2.495   1.391  -0.180 -1.0914  0.9711  1.8665
  977MOL0     H31877   2.373   1.553   0.279 -1.0144  1.9676  4.3730
  977MOL0     H31878   2.189   1.625   0.417 -1.4260  0.8881 -0.8839
  977MOL0     H31879   0.866   2.167   1.414 -0.0981 -0.0029 -1.0378
  977MOL0     H31880   0.649   2.153   1.546 -3.0852  2.8994 -0.5122
  977MOL0     H31881   0.279   2.147   1.670 -3.7225  2.6593  4.7724
  977MOL0     H31882   0.066   2.136   1.784  1.3353 -1.8688  0.0028
  977MOL0     H31883  -0.242   1.943   1.625  4.0418  2.9160 -2.0302
  977MOL0     H31884  -0.329   2.081   1.560 -0.9352  1.9026  0.8697
  977MOL0     H31885  -0.467   1.987   1.734 -0.0385  0.3587 -1.1682
  977MOL0     H31886  -0.406   2.137   1.786  0.4577 -0.1914 -0.8584
  977MOL0     H31887  -0.242   2.008   1.941  0.8512 -0.7493 -1.1530
  977MOL0     H31888  -0.308   1.861   1.875  0.4415  1.0143 -0.2538
  977MOL0     H31889  -0.535   1.924   1.959 -0.6911  1.3415  1.2387
  977MOL0     H31890  -0.399   1.940   2.085 -0.3699 -1.8603 -0.9458
  977MOL0     H31891  -0.565   2.334   2.047  3.2514  1.1737 -0.6083
  977MOL0     H31892  -0.146   2.082   1.430 -0.1625  0.1979  0.1405
  977MOL0     H31893   0.002   2.006   1.238 -3.2519  0.9249  2.1257
  977MOL0     H31894  -0.023   2.173   1.216 -2.1013 -0.3091  1.5981
  977MOL0     H31895   0.153   2.100   1.208 -0.1488  0.9121  1.0310
  978MOL0     O31896   9.457  10.484   9.824 -0.4581  0.0906  0.0540
  978MOL0     C31897   9.402  10.541   9.730 -0.2913 -0.1797 -0.3879
  978MOL0     O31898   9.433  10.673   9.684 -0.4281 -0.8867 -0.3285
  978MOL0     C31899   9.518  10.738   9.766  1.0580  1.1383 -0.0517
  978MOL0     C31900   9.475  10.836   9.850 -0.8007 -0.3041  0.2542
  978MOL0     C31901   9.565  10.909   9.924 -0.4670 -0.4566  0.6713
  978MOL0     C31902   9.696  10.864   9.942 -0.7043  0.7472 -0.1110
  978MOL0     O31903   9.782  10.916  10.030 -0.1129 -0.1094 -0.1765
  978MOL0     C31904   9.845  11.031   9.972  0.6024  0.1883 -0.2084
  978MOL0     C31905   9.997  11.026   9.995 -0.0976  0.9264  0.0961
  978MOL0     C31906  10.031  11.001  10.150  0.9205 -0.7772 -0.2310
  978MOL0     C31907  10.020  10.854  10.189  0.9355  0.1686 -0.6543
  978MOL0     C31908  10.150  10.777  10.198 -1.0715  1.2660 -0.2985
  978MOL0     C31909  10.209  10.797  10.346  0.1005 -0.2567  1.2424
  978MOL0     C31910  10.339  10.718  10.359 -0.3102 -1.0638  0.0654
  978MOL0     C31911  10.383  10.729  10.506  0.4790  0.6226 -0.5206
  978MOL0     N31912  10.478  10.834  10.544 -0.1373  0.1858  0.2010
  978MOL0     C31913  10.475  10.971  10.535 -0.3146 -0.6989  0.7484
  978MOL0     C31914  10.600  11.019  10.598  0.2537  0.7054 -0.7961
  978MOL0     C31915  10.645  11.160  10.624 -0.1616  0.1479 -1.0567
  978MOL0     C31916  10.756  11.203  10.527  0.0606 -1.2825 -0.0936
  978MOL0     C31917  10.899  11.164  10.557 -0.2886 -0.0925 -0.3780
  978MOL0     C31918  11.000  11.244  10.477  0.9312  0.2650 -0.2183
  978MOL0     O31919  11.129  11.255  10.544 -0.0437  1.2237  0.8478
  978MOL0     C31920  11.188  11.137  10.569 -0.3918 -0.3075  0.0599
  978MOL0     C31921  11.279  11.087  10.467  0.1258  0.5012  0.2425
  978MOL0     C31922  11.349  10.966  10.482 -0.2281  0.0538  0.1384
  978MOL0     C31923  11.316  10.878  10.585 -0.1026  0.2212 -0.6824
  978MOL0     C31924  11.380  10.748  10.590 -0.2064 -0.0484 -0.1483
  978MOL0     O31925  11.500  10.734  10.523 -0.1778  0.7250  0.2313
  978MOL0     C31926  11.565  10.608  10.530  0.4537  0.8270 -0.6465
  978MOL0     C31927  11.598  10.546  10.410  0.5045 -0.0203 -0.6482
  978MOL0     C31928  11.652  10.417  10.407 -0.8054  0.7278 -0.2284
  978MOL0     C31929  11.668  10.346  10.524  0.2644 -0.6708  0.3513
  978MOL0     O31930  11.714  10.214  10.518  0.3464  0.5804  0.8057
  978MOL0     C31931  11.739  10.135  10.633  0.8893  0.5119 -0.5310
  978MOL0     C31932  11.785   9.993  10.595 -0.5832  0.2570  0.3245
  978MOL0     C31933  11.931   9.993  10.541  0.5470  0.0572 -0.0633
  978MOL0     C31934  12.043  10.017  10.655 -0.4204  0.4144  0.0668
  978MOL0     C31935  12.183  10.048  10.603  0.4761  0.7764  0.1467
  978MOL0     C31936  12.267   9.943  10.517 -0.4692  0.8132 -0.2579
  978MOL0     C31937  12.252   9.964  10.368  0.0982  1.1302 -0.1043
  978MOL0     C31938  12.326   9.854  10.299 -0.5149 -0.2040  0.6820
  978MOL0    Cl31939  12.498   9.857  10.317  0.0726  0.5044  0.3329
  978MOL0     C31940  11.638  10.411  10.642  0.1745 -1.0575  0.1819
  978MOL0     C31941  11.586  10.538  10.648 -0.6409  0.1034  1.1376
  978MOL0     O31942  11.327  10.664  10.661 -0.4174  0.0418  0.1088
  978MOL0     C31943  11.229  10.933  10.685  0.5780 -0.2513  0.2249
  978MOL0     C31944  11.168  11.054  10.675  0.0715 -1.3204  0.2273
  978MOL0     N31945  10.656  10.909  10.652  0.3044  0.7314 -0.3075
  978MOL0     N31946  10.581  10.808  10.628  0.1359  0.4684  0.1678
  978MOL0     C31947   9.743  10.769   9.850 -1.2199  0.3424 -0.1480
  978MOL0     C31948   9.656  10.699   9.764 -0.5524 -0.7673  0.9467
  978MOL0     C31949   9.296  10.462   9.670  0.6958  0.6418 -0.0845
  978MOL0     C31950   9.285  10.320   9.689 -0.1462  0.7320  0.8257
  978MOL0     C31951   9.177  10.246   9.666 -0.0330 -0.7644 -0.0253
  978MOL0     C31952   9.064  10.303   9.608 -0.5120 -0.4263 -0.2334
  978MOL0     O31953   8.954  10.240   9.572  0.3955 -0.5365 -0.4872
  978MOL0     C31954   8.947  10.099   9.592 -0.3350  0.4835 -0.3873
  978MOL0     C31955   8.834  10.046   9.508  0.1819 -0.2028 -0.5131
  978MOL0     C31956   8.694  10.082   9.566  0.7236  0.0506 -0.4844
  978MOL0     C31957   8.582   9.996   9.517  0.5411  0.4186 -0.3175
  978MOL0     C31958   8.461  10.030   9.586  0.6609  0.3737  0.1084
  978MOL0     C31959   8.353  10.059   9.644 -0.5555  0.3480  0.8697
  978MOL0     C31960   9.066  10.442   9.583 -0.0183 -0.0131 -0.3948
  978MOL0     C31961   9.178  10.523   9.613 -0.4880  0.0428 -0.3326
  978MOL0     C31962   9.166  10.677   9.604  0.1534 -0.2124 -0.6786
  978MOL0     H31963   9.369  10.855   9.857 -1.5954 -3.3929 -1.5963
  978MOL0     H31964   9.533  10.998   9.976  1.6586  1.0872 -0.5305
  978MOL0     H31965   9.826  11.045   9.865 -0.2388  0.7234 -0.0037
  978MOL0     H31966   9.807  11.120  10.023 -2.8330  0.4938 -2.8769
  978MOL0     H31967  10.062  11.105   9.954  3.1241 -2.0841 -1.1254
  978MOL0     H31968  10.036  10.935   9.950  0.4198 -0.1561  2.5714
  978MOL0     H31969   9.969  11.070  10.209 -2.5111 -0.5781 -3.6553
  978MOL0     H31970  10.134  11.028  10.174  0.9036 -0.8786 -0.0424
  978MOL0     H31971   9.970  10.840  10.286  0.0847  0.4749 -1.0342
  978MOL0     H31972   9.947  10.805  10.123 -3.1408  2.3832  1.7650
  978MOL0     H31973  10.137  10.670  10.179 -0.6254  1.6671 -3.3203
  978MOL0     H31974  10.225  10.812  10.126 -0.9682  0.8138 -0.4162
  978MOL0     H31975  10.231  10.904  10.356  0.1150  0.2211 -2.3289
  978MOL0     H31976  10.139  10.773  10.426 -1.0289  0.0013  0.3748
  978MOL0     H31977  10.426  10.742  10.297  0.2429  2.1435  1.8591
  978MOL0     H31978  10.316  10.614  10.333 -0.5359 -1.0205  0.0927
  978MOL0     H31979  10.290  10.731  10.564  0.2100 -1.1429 -0.8171
  978MOL0     H31980  10.425  10.634  10.541 -0.8424  0.5452  0.9610
  978MOL0     H31981  10.407  11.032  10.478  0.6032 -0.2055  0.1563
  978MOL0     H31982  10.562  11.231  10.623 -1.7409 -1.6355 -0.2451
  978MOL0     H31983  10.676  11.169  10.729 -0.5505 -1.1109 -0.8225
  978MOL0     H31984  10.741  11.153  10.431  2.8339 -0.3122 -1.1114
  978MOL0     H31985  10.747  11.312  10.514  1.4522 -1.3164 -1.5200
  978MOL0     H31986  10.909  11.058  10.529  3.3470 -0.7717  2.6748
  978MOL0     H31987  10.917  11.181  10.664 -0.7448  2.0853 -0.6105
  978MOL0     H31988  10.963  11.345  10.456  2.7531  1.0166  0.0650
  978MOL0     H31989  11.010  11.192  10.382  1.0418 -1.0912  0.5176
  978MOL0     H31990  11.310  11.134  10.374  2.7491 -0.3302  0.5944
  978MOL0     H31991  11.426  10.932  10.414  0.1015 -1.2178  1.1128
  978MOL0     H31992  11.564  10.588  10.315  0.4227 -0.1179 -0.6623
  978MOL0     H31993  11.666  10.363  10.315  1.8313  1.8312 -0.5645
  978MOL0     H31994  11.817  10.187  10.689  3.1799  0.5020 -3.5315
  978MOL0     H31995  11.647  10.140  10.693  2.4521  0.0991  2.0550
  978MOL0     H31996  11.786   9.934  10.686 -0.0285  2.0192  1.5108
  978MOL0     H31997  11.714   9.950  10.524 -0.3692 -1.1502  0.9475
  978MOL0     H31998  11.958   9.896  10.498 -1.2628  0.5716 -2.5880
  978MOL0     H31999  11.946  10.072  10.467  4.3359  0.0049  0.4431
  978MOL0     H32000  12.036   9.924  10.712 -0.0950  0.6753  0.5316
  978MOL0     H32001  12.008  10.091  10.727  0.6478  0.7462  0.2583
  978MOL0     H32002  12.249  10.090  10.679  1.2915  2.1249 -1.2487
  978MOL0     H32003  12.169  10.133  10.536 -1.3121 -1.8660 -3.1154
  978MOL0     H32004  12.374   9.958  10.532 -0.0290  0.0253 -2.2632
  978MOL0     H32005  12.231   9.844  10.548 -4.2025  1.2568 -2.5055
  978MOL0     H32006  12.290  10.062  10.338  1.3562  0.3819 -1.0628
  978MOL0     H32007  12.146   9.956  10.342  0.3891 -1.2454 -0.8080
  978MOL0     H32008  12.282   9.761  10.338 -0.9740  0.7004  2.4349
  978MOL0     H32009  12.295   9.855  10.194  0.8405 -1.5081  0.2436
  978MOL0     H32010  11.651  10.355  10.735 -0.0428 -2.7055 -0.7391
  978MOL0     H32011  11.554  10.572  10.747  2.0434  0.7951  1.8320
  978MOL0     H32012  11.211  10.862  10.765  1.1059 -0.6921 -0.0428
  978MOL0     H32013  11.109  11.084  10.761 -2.9893 -0.8409 -1.8807
  978MOL0     H32014   9.848  10.740   9.856 -1.0573  1.1432  3.6188
  978MOL0     H32015   9.675  10.610   9.704 -0.8306 -2.6145  3.4229
  978MOL0     H32016   9.372  10.275   9.735  0.1650  0.1899 -0.2363
  978MOL0     H32017   9.176  10.143   9.699  2.7985 -0.6328  0.6999
  978MOL0     H32018   8.936  10.070   9.697 -0.1180  0.2345 -0.4318
  978MOL0     H32019   9.040  10.063   9.546 -0.3744  2.5656 -2.2715
  978MOL0     H32020   8.839   9.938   9.496  0.0002 -0.1603 -1.0250
  978MOL0     H32021   8.840  10.081   9.404 -0.5883 -1.1086 -0.8769
  978MOL0     H32022   8.663  10.185   9.549 -0.3185  0.0832  1.3104
  978MOL0     H32023   8.707  10.076   9.674  0.6162  0.3583 -0.4548
  978MOL0     H32024   8.562  10.006   9.410 -3.2709 -1.3150  0.0299
  978MOL0     H32025   8.608   9.891   9.537  1.0702  0.6678  0.3146
  978MOL0     H32026   8.257  10.090   9.681 -2.7272 -0.5694 -3.3401
  978MOL0     H32027   8.979  10.480   9.529  0.0748  0.5784 -0.1464
  978MOL0     H32028   9.185  10.719   9.703 -1.7960 -1.1133  0.1406
  978MOL0     H32029   9.242  10.711   9.533  0.5058  0.5306  0.0362
  978MOL0     H32030   9.072  10.718   9.565 -0.5310 -0.1897  0.9294
  979MOL0     O32031   1.663   7.256   2.946 -0.2072 -0.5041  0.3427
  979MOL0     C32032   1.633   7.202   3.052 -0.9367 -0.3768 -0.5518
  979MOL0     O32033   1.726   7.161   3.149 -0.1686  0.1491 -0.1520
  979MOL0     C32034   1.856   7.150   3.112 -0.0420  0.8770  0.1550
  979MOL0     C32035   1.927   7.266   3.064 -1.1528  0.3716 -0.3051
  979MOL0     C32036   2.060   7.261   3.028  0.1651  1.4611  0.9033
  979MOL0     C32037   2.134   7.135   3.039  0.3504 -0.7746 -0.2745
  979MOL0     O32038   2.264   7.124   2.996  0.1818  0.1469  0.3393
  979MOL0     C32039   2.327   7.255   2.987  0.0416  0.1856  0.2803
  979MOL0     C32040   2.473   7.256   2.968  0.6315 -0.0806  0.3384
  979MOL0     C32041   2.560   7.259   3.093  0.0959  0.9733 -0.8405
  979MOL0     C32042   2.681   7.347   3.095  0.1577  0.4230  0.8540
  979MOL0     C32043   2.760   7.361   3.223  0.1500 -0.2540 -0.6186
  979MOL0     C32044   2.878   7.458   3.190 -0.4445  0.4380 -0.6214
  979MOL0     C32045   2.989   7.460   3.296 -0.1752  0.1689  0.5404
  979MOL0     C32046   3.081   7.568   3.243 -0.5087  0.1461  0.3659
  979MOL0     N32047   3.193   7.592   3.334 -0.3012  0.3589  0.9177
  979MOL0     C32048   3.279   7.497   3.404 -0.3266 -0.2493  0.7870
  979MOL0     C32049   3.354   7.578   3.493 -0.3573  0.1768 -0.1746
  979MOL0     C32050   3.458   7.536   3.594 -0.3649 -0.2732 -1.1326
  979MOL0     C32051   3.589   7.554   3.522 -0.1831 -0.2280 -0.4005
  979MOL0     C32052   3.707   7.513   3.611 -0.7439  0.1382 -1.1531
  979MOL0     C32053   3.840   7.581   3.576  0.8951  0.1962  0.2804
  979MOL0     O32054   3.869   7.557   3.435 -0.3383  0.0309  0.1134
  979MOL0     C32055   3.982   7.612   3.388 -0.5480  0.6170  0.5819
  979MOL0     C32056   4.113   7.598   3.446 -0.3090  0.5835 -0.1374
  979MOL0     C32057   4.228   7.630   3.371  0.5744 -0.3496  0.4236
  979MOL0     C32058   4.224   7.680   3.242  0.8884 -0.6184 -0.6638
  979MOL0     C32059   4.347   7.712   3.172 -0.0158  0.0529  0.6551
  979MOL0     O32060   4.456   7.640   3.209 -0.0391  0.6128  0.2095
  979MOL0     C32061   4.577   7.691   3.170  0.2775 -0.9207  0.4109
  979MOL0     C32062   4.646   7.765   3.261  0.4576 -1.3725 -1.3820
  979MOL0     C32063   4.777   7.805   3.229  0.8310  0.0024 -0.3996
  979MOL0     C32064   4.823   7.793   3.103 -0.0950  0.9883 -0.0266
  979MOL0     O32065   4.944   7.855   3.078  0.2781  0.6103  0.5840
  979MOL0     C32066   5.051   7.789   2.998  0.6102 -1.0773  0.1798
  979MOL0     C32067   5.184   7.865   3.007 -0.7905  0.7063  0.2195
  979MOL0     C32068   5.287   7.787   2.928 -0.6001  0.5417 -0.2900
  979MOL0     C32069   5.434   7.832   2.942 -0.8016  0.5218 -0.0562
  979MOL0     C32070   5.533   7.750   2.859  0.9661  0.1328  0.4296
  979MOL0     C32071   5.676   7.808   2.857  0.6663  0.5001  0.3340
  979MOL0     C32072   5.733   7.802   3.001  0.2852  0.5886  0.4797
  979MOL0     C32073   5.874   7.854   2.989 -0.5926 -0.2609  1.1067
  979MOL0    Cl32074   5.947   7.912   3.144 -0.6223 -0.1700  0.2757
  979MOL0     C32075   4.753   7.721   3.004  0.7901 -0.5416 -0.1770
  979MOL0     C32076   4.631   7.665   3.042  0.6274 -0.2477 -0.1408
  979MOL0     O32077   4.346   7.797   3.087 -0.6860  0.4638  0.1520
  979MOL0     C32078   4.095   7.696   3.191  0.7920 -0.1607  0.0095
  979MOL0     C32079   3.982   7.670   3.263  0.0498 -0.1335 -0.8688
  979MOL0     N32080   3.317   7.711   3.466 -0.0621 -0.3094  0.1546
  979MOL0     N32081   3.235   7.715   3.371  0.0335 -0.5634 -0.4096
  979MOL0     C32082   2.066   7.021   3.087  0.8852  0.5627 -0.1815
  979MOL0     C32083   1.930   7.028   3.123  0.1235 -0.3383 -0.4288
  979MOL0     C32084   1.493   7.193   3.097 -0.4136 -0.6425  0.6293
  979MOL0     C32085   1.457   7.106   3.208  0.3092  1.0810 -0.4401
  979MOL0     C32086   1.321   7.080   3.241  0.3597  0.5889  0.8516
  979MOL0     C32087   1.213   7.139   3.169  0.0399  0.8933  0.3174
  979MOL0     O32088   1.089   7.114   3.216 -0.0815  0.7193  0.2910
  979MOL0     C32089   0.978   7.154   3.136  0.6813  0.3665 -0.0928
  979MOL0     C32090   0.847   7.082   3.172 -0.3611  0.0003  0.1600
  979MOL0     C32091   0.739   7.131   3.078  0.9680  0.3248  0.3469
  979MOL0     C32092   0.656   7.019   3.027  0.5327 -1.1413  0.1001
  979MOL0     C32093   0.572   7.059   2.914  0.4984  1.3753  0.0556
  979MOL0     C32094   0.499   7.081   2.818  0.0562  0.0911  0.4798
  979MOL0     C32095   1.253   7.233   3.073 -0.6617  0.6335  0.4339
  979MOL0     C32096   1.387   7.255   3.027  0.2393  0.2354  0.0956
  979MOL0     C32097   1.405   7.341   2.898  0.6970 -0.0431  0.3904
  979MOL0     H32098   1.866   7.355   3.059 -2.6888 -0.6798 -1.0722
  979MOL0     H32099   2.103   7.352   2.987  0.2844  0.5978 -1.0212
  979MOL0     H32100   2.290   7.317   2.905 -0.7975  3.2066  2.7683
  979MOL0     H32101   2.310   7.317   3.075 -2.1211 -0.4972  0.3993
  979MOL0     H32102   2.514   7.341   2.913  2.8874 -1.6715 -0.6055
  979MOL0     H32103   2.500   7.168   2.908 -0.5742 -1.4226  1.6581
  979MOL0     H32104   2.599   7.158   3.112  0.1838  0.9009 -1.3806
  979MOL0     H32105   2.495   7.276   3.179  1.1271 -0.5751  0.3012
  979MOL0     H32106   2.747   7.306   3.017 -0.7557 -1.7828  1.1621
  979MOL0     H32107   2.643   7.443   3.060 -0.5350 -0.4286 -0.9014
  979MOL0     H32108   2.694   7.390   3.305  1.9883  1.3935  0.3529
  979MOL0     H32109   2.796   7.261   3.251  1.7440  0.8279  1.5012
  979MOL0     H32110   2.919   7.428   3.093 -0.5571  1.7283 -1.0877
  979MOL0     H32111   2.828   7.553   3.168 -2.0416 -0.8044 -2.6776
  979MOL0     H32112   3.041   7.364   3.292 -0.3516  0.0525  0.9537
  979MOL0     H32113   2.948   7.478   3.396  0.0467  2.4239  0.2827
  979MOL0     H32114   3.121   7.532   3.148  0.5123 -1.0590  1.2246
  979MOL0     H32115   3.040   7.668   3.222 -0.4197 -0.1409 -1.2812
  979MOL0     H32116   3.262   7.390   3.400  0.6875 -0.4564  1.6936
  979MOL0     H32117   3.464   7.596   3.686  0.3906 -2.3353  0.2382
  979MOL0     H32118   3.446   7.432   3.624 -0.2718 -0.2463 -1.0005
  979MOL0     H32119   3.599   7.498   3.428 -1.8449 -0.9722 -0.1626
  979MOL0     H32120   3.585   7.661   3.500 -1.0387 -0.5172 -1.7809
  979MOL0     H32121   3.725   7.405   3.620 -1.7741  0.0909  0.8078
  979MOL0     H32122   3.682   7.538   3.714 -2.1510 -2.1645 -0.8683
  979MOL0     H32123   3.911   7.546   3.652 -0.7002 -3.7119  0.2043
  979MOL0     H32124   3.838   7.691   3.577  1.2567  0.2437 -1.5097
  979MOL0     H32125   4.132   7.571   3.549 -0.6281 -1.0047 -0.4762
  979MOL0     H32126   4.328   7.626   3.413  0.9925 -1.5528 -0.6295
  979MOL0     H32127   4.606   7.766   3.362 -0.1471 -2.7723 -1.5857
  979MOL0     H32128   4.856   7.832   3.299  1.0620 -0.0169 -0.6488
  979MOL0     H32129   5.048   7.682   3.022  0.9043 -1.0931  0.1521
  979MOL0     H32130   5.017   7.802   2.895 -1.2349  2.0771  1.0307
  979MOL0     H32131   5.162   7.964   2.966 -3.2907 -1.1243 -3.3549
  979MOL0     H32132   5.213   7.866   3.112  2.0471 -1.2466 -0.4203
  979MOL0     H32133   5.285   7.693   2.983 -0.0490  1.9589  2.3301
  979MOL0     H32134   5.251   7.785   2.825 -3.0587  2.0504  0.4604
  979MOL0     H32135   5.464   7.837   3.047 -1.6205  2.6002  0.1281
  979MOL0     H32136   5.439   7.935   2.906 -0.0541  0.9094  1.0989
  979MOL0     H32137   5.497   7.740   2.756 -1.6028  0.6750  1.2093
  979MOL0     H32138   5.534   7.647   2.897  0.3509 -0.5913 -1.3806
  979MOL0     H32139   5.736   7.748   2.788 -0.7395 -0.2771 -0.2413
  979MOL0     H32140   5.656   7.910   2.823 -3.0717  0.1774  1.1192
  979MOL0     H32141   5.731   7.701   3.043 -0.7778  0.5779  0.4346
  979MOL0     H32142   5.681   7.868   3.070  0.6613  0.1053  1.2475
  979MOL0     H32143   5.942   7.782   2.943 -1.7768 -0.8122  0.1785
  979MOL0     H32144   5.872   7.939   2.921  2.8601 -0.7714  0.1856
  979MOL0     H32145   4.794   7.713   2.905  2.5431  1.3576  0.3289
  979MOL0     H32146   4.580   7.596   2.976  3.9405 -1.8187 -1.2668
  979MOL0     H32147   4.072   7.747   3.098  2.4952 -0.9263 -0.8794
  979MOL0     H32148   3.889   7.702   3.218 -0.2922 -0.9146 -0.7331
  979MOL0     H32149   2.114   6.924   3.087 -1.3975 -0.7232 -2.9308
  979MOL0     H32150   1.883   6.935   3.156  1.3606 -1.6622 -2.1852
  979MOL0     H32151   1.529   7.060   3.275 -0.4877 -1.1391 -1.0442
  979MOL0     H32152   1.285   7.016   3.320  1.0397  0.6985  1.2573
  979MOL0     H32153   0.994   7.137   3.029 -2.0926 -1.8294 -0.2755
  979MOL0     H32154   0.959   7.261   3.146  0.7222  0.6383 -2.3555
  979MOL0     H32155   0.822   7.110   3.275 -2.1057  1.7579 -0.6894
  979MOL0     H32156   0.857   6.973   3.168 -1.9564 -0.1225 -0.9087
  979MOL0     H32157   0.774   7.187   2.991  0.4684 -1.1682 -0.8590
  979MOL0     H32158   0.680   7.202   3.137 -0.1178 -0.1537 -0.1248
  979MOL0     H32159   0.712   6.932   2.990  0.6397 -1.2351  0.4766
  979MOL0     H32160   0.585   6.978   3.101 -3.7865  2.0538 -1.8547
  979MOL0     H32161   0.426   7.109   2.745 -2.2275  0.9861  2.9327
  979MOL0     H32162   1.186   7.308   3.031 -1.0715  0.2028  0.3199
  979MOL0     H32163   1.488   7.412   2.895 -0.2492  1.0665 -0.5751
  979MOL0     H32164   1.422   7.267   2.819  0.1414 -0.8396  0.9963
  979MOL0     H32165   1.314   7.398   2.877 -0.4820 -1.1961  2.0621
  980MOL0     O32166   9.351   8.194   9.114 -0.1366  0.1980  0.0408
  980MOL0     C32167   9.285   8.211   9.220 -1.9640 -0.0101 -0.3730
  980MOL0     O32168   9.352   8.207   9.344  0.0328 -0.1519  0.5717
  980MOL0     C32169   9.489   8.190   9.345  0.1148  0.4150  0.2466
  980MOL0     C32170   9.578   8.282   9.275 -0.2289 -0.0641  0.0147
  980MOL0     C32171   9.718   8.260   9.270 -0.1415  0.1371  0.9025
  980MOL0     C32172   9.768   8.153   9.340 -0.4513  0.3589  0.3889
  980MOL0     O32173   9.908   8.157   9.341 -0.5799 -0.5664  0.4000
  980MOL0     C32174   9.984   8.090   9.447 -0.2061  0.0595  1.0967
  980MOL0     C32175  10.129   8.128   9.429 -0.6490 -0.1980  0.0416
  980MOL0     C32176  10.235   8.017   9.471 -0.3093  0.9217  0.4408
  980MOL0     C32177  10.381   8.069   9.456  0.9351  0.8906  0.8434
  980MOL0     C32178  10.480   7.965   9.499 -0.7257  0.1441  0.0341
  980MOL0     C32179  10.616   7.976   9.433 -0.1943 -1.1435  0.8884
  980MOL0     C32180  10.725   7.902   9.514 -0.0524  0.1456 -0.3648
  980MOL0     C32181  10.778   7.781   9.438 -0.0875  0.0182 -1.3300
  980MOL0     N32182  10.887   7.809   9.344 -0.6948  0.6170  0.2509
  980MOL0     C32183  10.992   7.901   9.361  0.6066  0.7847  0.0661
  980MOL0     C32184  11.038   7.915   9.232  0.5321 -0.3186 -0.9674
  980MOL0     C32185  11.152   8.010   9.201  0.3337 -0.1840 -0.8023
  980MOL0     C32186  11.256   7.936   9.112  0.3063 -0.9473  0.3691
  980MOL0     C32187  11.390   8.006   9.098  0.9025  0.3430  0.2416
  980MOL0     C32188  11.372   8.131   9.013  0.0953 -0.6735 -0.2475
  980MOL0     O32189  11.474   8.234   9.021 -0.6199 -0.0209  0.4104
  980MOL0     C32190  11.602   8.216   8.976  0.2235 -0.2464  0.0161
  980MOL0     C32191  11.646   8.104   8.908 -0.6360 -0.7426 -0.0496
  980MOL0     C32192  11.784   8.100   8.863  0.0848  0.5916 -0.5604
  980MOL0     C32193  11.873   8.195   8.917 -0.2645 -0.6568  0.5099
  980MOL0     C32194  12.012   8.193   8.874 -0.6431 -0.4093  0.4109
  980MOL0     O32195  12.089   8.301   8.920 -1.0500 -0.4891  0.3160
  980MOL0     C32196  12.226   8.299   8.913 -0.1677  0.8036 -0.1194
  980MOL0     C32197  12.301   8.414   8.882  0.4615 -0.0897 -0.2295
  980MOL0     C32198  12.439   8.420   8.884 -0.2045 -0.0937 -0.2311
  980MOL0     C32199  12.512   8.303   8.913  0.9764  0.2219 -0.4247
  980MOL0     O32200  12.647   8.316   8.911  0.3778 -0.7097 -0.2059
  980MOL0     C32201  12.715   8.211   8.836 -0.5540  0.1457  0.2773
  980MOL0     C32202  12.690   8.230   8.688 -0.1601  0.3909  0.1877
  980MOL0     C32203  12.818   8.181   8.601  0.7776  0.1892 -0.7464
  980MOL0     C32204  12.781   8.206   8.453  0.2981  0.1344 -0.5482
  980MOL0     C32205  12.880   8.138   8.360 -0.9768  0.8529 -0.4685
  980MOL0     C32206  12.874   8.149   8.210 -0.0470 -0.0197 -0.0224
  980MOL0     C32207  12.895   8.295   8.168 -0.7029  0.3029 -0.0375
  980MOL0     C32208  12.941   8.301   8.029  0.3030 -0.2845 -0.8809
  980MOL0    Cl32209  12.805   8.259   7.927  0.1243 -0.3390  0.0820
  980MOL0     C32210  12.438   8.189   8.942  0.6636 -0.1611 -1.0316
  980MOL0     C32211  12.301   8.188   8.939 -0.6342  1.3111 -0.2740
  980MOL0     O32212  12.060   8.094   8.817 -0.3694 -0.5421  0.3047
  980MOL0     C32213  11.824   8.313   8.984 -0.0449  0.5868 -0.3321
  980MOL0     C32214  11.689   8.318   9.010  0.0373 -0.4958  0.5075
  980MOL0     N32215  10.969   7.849   9.142 -0.3050  0.1234 -0.2686
  980MOL0     N32216  10.872   7.785   9.209  0.5885 -0.3749 -0.2422
  980MOL0     C32217   9.688   8.061   9.414  0.5640 -0.1037 -0.0780
  980MOL0     C32218   9.549   8.087   9.422 -0.1663  0.0489  0.0948
  980MOL0     C32219   9.137   8.243   9.224  0.0804 -0.3138  0.4005
  980MOL0     C32220   9.075   8.290   9.341 -0.1914  1.5682 -0.6375
  980MOL0     C32221   8.939   8.304   9.351 -0.3049  0.4868 -0.1867
  980MOL0     C32222   8.856   8.281   9.251 -0.1611 -0.3365 -0.0002
  980MOL0     O32223   8.726   8.318   9.261  1.0427  0.2948 -0.2237
  980MOL0     C32224   8.646   8.279   9.373 -1.0106  0.6940 -0.0919
  980MOL0     C32225   8.584   8.140   9.357 -0.1165  0.1317 -0.4999
  980MOL0     C32226   8.505   8.129   9.224  0.1479  0.0489 -0.7876
  980MOL0     C32227   8.368   8.205   9.229  0.4875  0.0445  0.7670
  980MOL0     C32228   8.280   8.157   9.123 -0.0776 -0.5246  1.1106
  980MOL0     C32229   8.191   8.114   9.054 -1.1163 -0.2413  0.2460
  980MOL0     C32230   8.911   8.247   9.132  1.0763  0.3656  0.5064
  980MOL0     C32231   9.051   8.225   9.114 -0.3048  0.4649 -0.0835
  980MOL0     C32232   9.087   8.182   8.976  0.7367 -0.0905 -0.6499
  980MOL0     H32233   9.539   8.368   9.222 -2.9429  0.6232  2.7862
  980MOL0     H32234   9.798   8.322   9.229  0.5613 -1.3260 -0.0332
  980MOL0     H32235   9.946   8.110   9.547 -1.3214 -0.2967  0.7632
  980MOL0     H32236   9.977   7.983   9.426  0.3202  0.1495  0.4419
  980MOL0     H32237  10.140   8.210   9.501 -0.8359 -1.0255  1.0291
  980MOL0     H32238  10.157   8.164   9.329  0.2007  1.9162  0.9643
  980MOL0     H32239  10.234   7.932   9.403  1.1617  4.0923 -4.0541
  980MOL0     H32240  10.223   7.980   9.573  1.1472 -0.5945  0.1043
  980MOL0     H32241  10.394   8.089   9.349 -0.5206 -3.4352 -0.3333
  980MOL0     H32242  10.393   8.161   9.515  0.7498  1.4656 -0.0026
  980MOL0     H32243  10.497   7.975   9.607 -0.1253 -0.6057  0.0213
  980MOL0     H32244  10.438   7.865   9.482 -1.9364  0.3556  1.5380
  980MOL0     H32245  10.618   7.943   9.329 -1.8817 -1.3162  0.8901
  980MOL0     H32246  10.635   8.083   9.424  1.6204 -1.6312 -3.3881
  980MOL0     H32247  10.692   7.882   9.616  2.1467 -1.3116  0.1438
  980MOL0     H32248  10.810   7.969   9.530  0.1540 -0.5174  1.6611
  980MOL0     H32249  10.820   7.707   9.507 -1.0876  0.4394 -0.2355
  980MOL0     H32250  10.699   7.729   9.384 -0.8897  0.0907 -0.2629
  980MOL0     H32251  11.043   7.948   9.445 -0.0912  5.2032 -1.7063
  980MOL0     H32252  11.115   8.104   9.161 -1.1237 -0.8283 -1.0520
  980MOL0     H32253  11.198   8.033   9.298  3.4654  2.6223 -2.7476
  980MOL0     H32254  11.264   7.835   9.151 -0.7500 -2.4363 -2.8949
  980MOL0     H32255  11.226   7.912   9.010 -0.4259 -1.5017  0.7017
  980MOL0     H32256  11.455   7.930   9.055 -1.8646 -1.9950 -0.1492
  980MOL0     H32257  11.414   8.034   9.201 -1.0991  3.7073 -0.0595
  980MOL0     H32258  11.275   8.178   9.031  0.5805  1.3196 -2.2741
  980MOL0     H32259  11.365   8.103   8.907 -0.8558 -0.0196 -0.3690
  980MOL0     H32260  11.586   8.015   8.897  0.2631 -2.0822  4.1973
  980MOL0     H32261  11.828   8.024   8.799 -0.0647  0.4871 -0.5394
  980MOL0     H32262  12.256   8.512   8.878  1.2758  0.3971  1.6060
  980MOL0     H32263  12.494   8.511   8.866  1.1822 -0.6813  0.9270
  980MOL0     H32264  12.822   8.213   8.857 -0.4004  2.7653 -0.4005
  980MOL0     H32265  12.677   8.113   8.865 -1.9641  0.8530  0.9301
  980MOL0     H32266  12.591   8.195   8.656  0.2587  0.1999 -0.9786
  980MOL0     H32267  12.673   8.337   8.675 -1.2073  0.2319  0.1430
  980MOL0     H32268  12.910   8.234   8.628  0.0023  1.1546  0.0291
  980MOL0     H32269  12.827   8.074   8.625 -1.8671 -0.6591 -2.9226
  980MOL0     H32270  12.767   8.311   8.425  0.9908  0.0834 -1.1295
  980MOL0     H32271  12.693   8.144   8.434 -0.1549  0.7093 -0.3362
  980MOL0     H32272  12.862   8.031   8.378 -3.5806  1.3030  0.0302
  980MOL0     H32273  12.981   8.163   8.394 -0.0089 -2.1428 -0.8423
  980MOL0     H32274  12.948   8.085   8.160  0.4504  2.3570 -2.5806
  980MOL0     H32275  12.778   8.113   8.173  0.7056 -0.3740 -1.7614
  980MOL0     H32276  12.968   8.345   8.233 -0.2458  0.9253 -1.0130
  980MOL0     H32277  12.804   8.353   8.186  0.6230  1.8604  2.1241
  980MOL0     H32278  12.976   8.404   8.022 -0.8831  0.1213 -1.1215
  980MOL0     H32279  13.026   8.235   8.008  0.5194 -0.1708 -0.3888
  980MOL0     H32280  12.490   8.096   8.964 -0.3603 -1.0603 -2.2939
  980MOL0     H32281  12.262   8.088   8.953  0.7601  0.8070  0.2579
  980MOL0     H32282  11.888   8.398   9.007  1.0309 -0.8939  2.5484
  980MOL0     H32283  11.641   8.406   9.051  0.1792  0.8176 -1.9409
  980MOL0     H32284   9.716   7.980   9.481  0.3410  0.0895  0.2479
  980MOL0     H32285   9.478   8.031   9.482  1.6689 -2.7612 -0.1772
  980MOL0     H32286   9.129   8.315   9.432 -0.0393 -1.6900  0.2882
  980MOL0     H32287   8.909   8.347   9.446  0.4937 -2.7506  1.6682
  980MOL0     H32288   8.565   8.352   9.387 -2.1685 -0.7303  0.9525
  980MOL0     H32289   8.701   8.270   9.467 -2.7295  0.3010  0.9291
  980MOL0     H32290   8.530   8.106   9.446  2.0791 -1.4813  0.3165
  980MOL0     H32291   8.668   8.069   9.356 -0.6237 -0.5033  0.0903
  980MOL0     H32292   8.497   8.021   9.210  1.8804 -0.4132  1.3638
  980MOL0     H32293   8.560   8.166   9.137  0.7676  2.0619  0.4091
  980MOL0     H32294   8.310   8.183   9.319 -0.5793 -0.2176  0.0421
  980MOL0     H32295   8.373   8.314   9.221 -1.7938  0.1491 -0.0327
  980MOL0     H32296   8.109   8.079   8.994  2.0968  0.3045 -5.1229
  980MOL0     H32297   8.845   8.246   9.045  0.2149 -1.1123  1.1362
  980MOL0     H32298   9.133   8.084   8.986  1.3130  0.0935 -1.3795
  980MOL0     H32299   8.996   8.171   8.917 -0.0958  2.1489  0.0965
  980MOL0     H32300   9.142   8.263   8.926 -2.5663  0.6376 -3.5207
  981MOL0     O32301   5.003  10.204   9.543 -0.2294  0.1104 -0.3507
  981MOL0     C32302   4.955  10.134   9.637 -0.5145  0.0122  0.9006
  981MOL0     O32303   5.003  10.011   9.678  0.3092  0.5160  0.3802
  981MOL0     C32304   5.084   9.946   9.594 -0.3306 -0.2359  0.3823
  981MOL0     C32305   5.066   9.945   9.454 -0.8900  0.0751  0.2676
  981MOL0     C32306   5.138   9.861   9.370 -0.3386  0.0358 -0.1768
  981MOL0     C32307   5.233   9.777   9.424 -0.5140  0.1469  0.1897
  981MOL0     O32308   5.311   9.706   9.330  0.4938  0.2682 -0.0208
  981MOL0     C32309   5.428   9.627   9.364 -0.7691 -0.2227  0.4442
  981MOL0     C32310   5.545   9.697   9.442  0.0878 -0.5640  0.4036
  981MOL0     C32311   5.649   9.579   9.460 -0.6168 -0.8337 -0.0390
  981MOL0     C32312   5.756   9.603   9.565 -0.5262  1.1080  0.2780
  981MOL0     C32313   5.847   9.481   9.613 -0.1340 -0.6409  0.3596
  981MOL0     C32314   5.920   9.408   9.500 -0.1337  0.3416  0.5552
  981MOL0     C32315   6.015   9.491   9.412  0.2194  0.0824  0.0846
  981MOL0     C32316   6.127   9.564   9.501 -0.3394 -0.1458 -0.0812
  981MOL0     N32317   6.220   9.450   9.545 -0.4363 -0.1979 -0.1902
  981MOL0     C32318   6.332   9.399   9.482 -0.4455 -0.1630  0.6549
  981MOL0     C32319   6.388   9.315   9.582 -0.3413 -0.2022  0.7970
  981MOL0     C32320   6.498   9.228   9.557  0.7708  0.8187  0.2461
  981MOL0     C32321   6.594   9.287   9.460 -1.2584 -0.2542 -0.5670
  981MOL0     C32322   6.718   9.191   9.448 -0.0333 -0.5166  0.4016
  981MOL0     C32323   6.805   9.221   9.323  0.4867 -0.1976 -0.2006
  981MOL0     O32324   6.729   9.206   9.198  0.4871  0.0994 -0.2494
  981MOL0     C32325   6.780   9.278   9.090 -0.0672  0.3825 -0.0674
  981MOL0     C32326   6.707   9.279   8.970 -0.0276  0.3819  0.8736
  981MOL0     C32327   6.757   9.323   8.848  0.0873 -0.5712  0.8445
  981MOL0     C32328   6.889   9.371   8.847  0.4225  0.4508 -0.0945
  981MOL0     C32329   6.940   9.426   8.719 -0.0902  0.5080 -0.1354
  981MOL0     O32330   6.881   9.385   8.601  0.7535 -0.0844 -0.3171
  981MOL0     C32331   6.939   9.400   8.481 -0.2237  0.2463  0.1491
  981MOL0     C32332   7.070   9.443   8.452 -0.3363 -0.7998  1.1624
  981MOL0     C32333   7.118   9.467   8.315  0.3442 -0.7039  0.6364
  981MOL0     C32334   7.033   9.428   8.211  0.4872  0.8054  0.5262
  981MOL0     O32335   7.072   9.467   8.088 -0.1213  0.0656  0.7568
  981MOL0     C32336   6.974   9.473   7.983 -0.5124 -0.0097  0.2532
  981MOL0     C32337   7.049   9.495   7.851 -0.0945 -0.7525  0.4254
  981MOL0     C32338   6.956   9.508   7.734 -0.3431  0.2078  0.0661
  981MOL0     C32339   7.017   9.487   7.598  1.3894  0.1139 -0.2832
  981MOL0     C32340   6.911   9.483   7.479 -0.3358 -1.2209 -0.3520
  981MOL0     C32341   6.976   9.441   7.342 -0.5398  0.9016 -0.5668
  981MOL0     C32342   7.057   9.555   7.283  0.8374 -0.6780  0.4426
  981MOL0     C32343   7.106   9.521   7.143 -0.5049  0.2827 -0.1126
  981MOL0    Cl32344   7.228   9.635   7.102 -0.1816 -0.3637 -0.3625
  981MOL0     C32345   6.909   9.372   8.240 -0.5473 -0.0728  0.4040
  981MOL0     C32346   6.866   9.351   8.371 -0.4509 -0.2176 -0.0944
  981MOL0     O32347   7.043   9.490   8.725 -0.3669 -0.9337  0.4734
  981MOL0     C32348   6.964   9.367   8.967 -1.0812  0.2281  0.9116
  981MOL0     C32349   6.912   9.324   9.083  0.5631  0.3634  0.2687
  981MOL0     N32350   6.300   9.317   9.688  0.5735  0.4008  0.9670
  981MOL0     N32351   6.208   9.398   9.665 -0.2042  0.9035  0.0342
  981MOL0     C32352   5.255   9.774   9.559  0.0869  0.6192  1.7451
  981MOL0     C32353   5.184   9.866   9.640 -0.9573 -0.3471 -0.1751
  981MOL0     C32354   4.845  10.199   9.719 -0.2478  0.4453  0.1037
  981MOL0     C32355   4.706  10.165   9.710 -0.5868 -0.2348  0.2717
  981MOL0     C32356   4.600  10.227   9.774 -0.2029 -0.3010 -0.2066
  981MOL0     C32357   4.630  10.313   9.870 -0.2542 -0.1845 -0.4652
  981MOL0     O32358   4.532  10.364   9.950  0.4748  0.8044 -0.3205
  981MOL0     C32359   4.536  10.326  10.088  1.4541  0.4234  0.7334
  981MOL0     C32360   4.445  10.431  10.169  0.2293 -0.4537  0.5670
  981MOL0     C32361   4.304  10.405  10.131  0.2071 -0.2211  0.3464
  981MOL0     C32362   4.219  10.507  10.203 -0.1874  0.0177  0.4579
  981MOL0     C32363   4.080  10.470  10.179  0.9163 -1.1662  1.4937
  981MOL0     C32364   3.972  10.442  10.141  0.0449 -0.5301 -0.1154
  981MOL0     C32365   4.768  10.356   9.889 -1.3594  0.9004 -0.4526
  981MOL0     C32366   4.875  10.306   9.815 -1.6515 -0.4271  1.1138
  981MOL0     C32367   5.020  10.349   9.833  0.5330  0.2222  0.6125
  981MOL0     H32368   4.983   9.997   9.407  1.1822  1.5266 -2.0065
  981MOL0     H32369   5.099   9.843   9.270  1.7451  0.0319 -1.0451
  981MOL0     H32370   5.401   9.537   9.420 -0.5143 -0.9052 -0.4948
  981MOL0     H32371   5.464   9.586   9.269 -1.9593  0.6170 -0.4092
  981MOL0     H32372   5.517   9.740   9.538  2.9445 -1.4946  1.7810
  981MOL0     H32373   5.587   9.781   9.386 -0.5788 -0.5152 -0.0228
  981MOL0     H32374   5.698   9.563   9.363 -3.9128 -2.8615 -1.5602
  981MOL0     H32375   5.598   9.488   9.493  0.3791  0.2764  5.4212
  981MOL0     H32376   5.810   9.693   9.536  1.8565 -1.3293 -3.8161
  981MOL0     H32377   5.706   9.627   9.660 -2.4116  1.4257 -0.7372
  981MOL0     H32378   5.923   9.511   9.686 -0.3783 -0.6781  0.6341
  981MOL0     H32379   5.788   9.414   9.677 -1.1044  1.0492  1.3027
  981MOL0     H32380   5.981   9.331   9.547  0.0153  0.1069 -0.0154
  981MOL0     H32381   5.860   9.353   9.427  0.3696  1.4795 -0.7743
  981MOL0     H32382   5.964   9.566   9.351  3.4999  1.1209 -1.6408
  981MOL0     H32383   6.076   9.428   9.346  1.1296  0.5507  0.4586
  981MOL0     H32384   6.175   9.643   9.441  1.3109 -0.0995  1.2207
  981MOL0     H32385   6.083   9.612   9.589  2.0501 -0.4018  1.3619
  981MOL0     H32386   6.376   9.415   9.385  1.4322 -1.9281  1.1481
  981MOL0     H32387   6.553   9.214   9.650  2.9030  3.7155 -0.4127
  981MOL0     H32388   6.469   9.127   9.526  2.4142  0.3754  0.0548
  981MOL0     H32389   6.549   9.291   9.361 -4.4564 -3.6803  0.5398
  981MOL0     H32390   6.617   9.386   9.500 -0.4860 -0.9093  0.6751
  981MOL0     H32391   6.674   9.092   9.438 -1.1823  0.0876 -0.7884
  981MOL0     H32392   6.788   9.196   9.532 -2.0602  0.4553  2.1330
  981MOL0     H32393   6.891   9.153   9.317  1.2117  0.7899 -1.5248
  981MOL0     H32394   6.837   9.325   9.324  0.6136 -0.2070 -1.6835
  981MOL0     H32395   6.609   9.234   8.978  0.1457 -0.6620 -1.9446
  981MOL0     H32396   6.706   9.327   8.752  0.2198 -0.1842  0.7909
  981MOL0     H32397   7.145   9.465   8.527  0.8008  2.6554 -0.8224
  981MOL0     H32398   7.212   9.517   8.295  0.2115  0.5407  2.8092
  981MOL0     H32399   6.928   9.375   7.964  0.0863 -0.2496  0.0047
  981MOL0     H32400   6.899   9.550   8.003 -0.9127 -0.6285  1.2267
  981MOL0     H32401   7.103   9.590   7.850  0.1184 -0.8514 -1.6084
  981MOL0     H32402   7.124   9.416   7.838 -0.0945 -0.6770 -0.0587
  981MOL0     H32403   6.879   9.431   7.734 -1.0238  0.8792 -0.3553
  981MOL0     H32404   6.912   9.607   7.727 -0.0079  0.3729  0.2778
  981MOL0     H32405   7.069   9.391   7.602 -1.6179 -1.6057  0.4999
  981MOL0     H32406   7.084   9.569   7.570  3.3992 -1.2484  0.3085
  981MOL0     H32407   6.869   9.584   7.476  0.8302 -0.6209  1.7494
  981MOL0     H32408   6.824   9.424   7.511 -2.0493  0.9601 -0.7866
  981MOL0     H32409   7.036   9.351   7.356 -2.3126 -0.9152 -3.5260
  981MOL0     H32410   6.898   9.423   7.267 -1.5322  0.6888  0.4886
  981MOL0     H32411   7.141   9.584   7.347  1.3941 -0.0598 -0.5428
  981MOL0     H32412   6.991   9.642   7.285 -1.2841 -2.2322  1.0302
  981MOL0     H32413   7.145   9.420   7.129  1.3132  0.8786  0.3621
  981MOL0     H32414   7.034   9.539   7.064 -0.0952  1.2356 -0.2868
  981MOL0     H32415   6.843   9.347   8.157 -0.9334 -0.8095  0.9256
  981MOL0     H32416   6.768   9.310   8.393 -1.0831  0.5569 -1.3820
  981MOL0     H32417   7.068   9.398   8.959 -1.2556  0.6018  0.0027
  981MOL0     H32418   6.983   9.316   9.165 -1.2592 -0.4663  1.8302
  981MOL0     H32419   5.322   9.705   9.611 -0.2432 -1.0965 -0.0225
  981MOL0     H32420   5.193   9.855   9.747 -2.0817  1.0787  0.0993
  981MOL0     H32421   4.666  10.097   9.636  0.1857  0.4991 -0.8406
  981MOL0     H32422   4.499  10.197   9.750  0.3416 -0.2593 -2.8353
  981MOL0     H32423   4.635  10.315  10.134  0.5490 -1.6627  2.3613
  981MOL0     H32424   4.483  10.230  10.089 -2.6226  2.4617  0.5470
  981MOL0     H32425   4.477  10.530  10.137  1.4342 -1.7224 -2.5425
  981MOL0     H32426   4.451  10.412  10.277  0.5846  1.3171  0.8811
  981MOL0     H32427   4.269  10.303  10.148 -3.5449  0.5869 -1.4271
  981MOL0     H32428   4.299  10.420  10.022  0.6076 -1.2998  0.1648
  981MOL0     H32429   4.234  10.508  10.312 -2.4287  1.7632  0.8336
  981MOL0     H32430   4.244  10.605  10.162  3.2890 -0.9169  0.0295
  981MOL0     H32431   3.874  10.419  10.105 -0.8947  1.6542  0.8309
  981MOL0     H32432   4.798  10.425   9.966  1.8039  0.3724 -1.0647
  981MOL0     H32433   5.079  10.267   9.874  1.1977  0.9404  1.1340
  981MOL0     H32434   5.047  10.381   9.732 -0.2073 -3.1596 -0.8062
  981MOL0     H32435   5.022  10.438   9.897 -0.0818 -0.6800  1.9453
  982MOL0     O32436   0.596   7.406   1.173  0.0873 -1.0991  1.0647
  982MOL0     C32437   0.635   7.382   1.059  0.3797  0.1399  0.1649
  982MOL0     O32438   0.550   7.340   0.961 -0.2717 -0.6100  0.7800
  982MOL0     C32439   0.454   7.250   0.989  0.6815  0.1007 -0.3211
  982MOL0     C32440   0.365   7.241   0.887 -0.3679 -0.0788 -0.4963
  982MOL0     C32441   0.257   7.156   0.897 -0.5620  0.4289 -0.4156
  982MOL0     C32442   0.237   7.078   1.018  0.2567  0.3332 -0.4720
  982MOL0     O32443   0.127   6.993   1.036 -0.1479 -0.0536  0.2122
  982MOL0     C32444   0.002   7.029   0.973  0.2110 -0.9308  0.5473
  982MOL0     C32445  -0.118   7.023   1.073  0.6122  0.8299 -0.5478
  982MOL0     C32446  -0.250   6.996   0.992 -0.5034 -0.1383 -0.3124
  982MOL0     C32447  -0.383   6.991   1.078 -0.6100  0.6664 -0.1253
  982MOL0     C32448  -0.504   7.007   1.001  0.3223 -0.7106 -0.0509
  982MOL0     C32449  -0.509   7.142   0.920 -0.2041 -0.7105  0.0391
  982MOL0     C32450  -0.651   7.160   0.881  0.3147  0.3090  0.8359
  982MOL0     C32451  -0.681   7.305   0.830  0.1838 -0.7334 -0.1629
  982MOL0     N32452  -0.662   7.327   0.683 -0.2297  1.0732  0.4009
  982MOL0     C32453  -0.747   7.410   0.603 -0.5080  0.0120  0.7371
  982MOL0     C32454  -0.703   7.382   0.477  0.8906  0.9428 -0.7586
  982MOL0     C32455  -0.750   7.463   0.354  0.8342 -0.0646  0.5371
  982MOL0     C32456  -0.822   7.387   0.249  0.0995 -0.0414  0.6537
  982MOL0     C32457  -0.744   7.290   0.163 -0.6386  0.0833  0.0025
  982MOL0     C32458  -0.639   7.352   0.063 -0.7520 -0.1152 -0.1826
  982MOL0     O32459  -0.574   7.247  -0.019 -0.0158 -0.9307 -0.2249
  982MOL0     C32460  -0.440   7.222   0.005 -0.0257  0.1154  0.1409
  982MOL0     C32461  -0.351   7.233  -0.103  0.2525  0.6940  0.3050
  982MOL0     C32462  -0.225   7.187  -0.082 -0.7049 -0.3450 -0.6926
  982MOL0     C32463  -0.179   7.129   0.046 -0.1595  0.2244 -0.1637
  982MOL0     C32464  -0.040   7.101   0.060 -0.7981  1.2349  0.6467
  982MOL0     O32465   0.052   7.152  -0.022  0.3941  0.1562 -0.2458
  982MOL0     C32466   0.179   7.137   0.018  0.0319  0.5065 -0.3134
  982MOL0     C32467   0.255   7.026  -0.025  0.4586 -0.6569  0.1045
  982MOL0     C32468   0.385   7.022   0.027 -0.8989 -0.1714 -0.5535
  982MOL0     C32469   0.442   7.127   0.103 -0.0226  0.1669  0.4167
  982MOL0     O32470   0.572   7.123   0.148 -0.3387  0.2320 -0.0899
  982MOL0     C32471   0.654   7.023   0.091  0.5906  0.7329  0.3099
  982MOL0     C32472   0.801   7.066   0.132 -0.0242  1.0613 -0.9632
  982MOL0     C32473   0.843   6.987   0.262  1.0873  0.1419  0.0969
  982MOL0     C32474   0.977   7.033   0.313  0.7970  0.7041  0.2203
  982MOL0     C32475   1.001   6.951   0.438 -0.8405  0.7131  0.4594
  982MOL0     C32476   1.137   6.985   0.510  0.3377 -0.7286  0.5929
  982MOL0     C32477   1.130   7.124   0.579 -0.1386  0.5422  0.4430
  982MOL0     C32478   1.234   7.136   0.686  0.2307  0.0017 -0.5002
  982MOL0    Cl32479   1.402   7.133   0.626 -0.0285 -0.1757 -0.0377
  982MOL0     C32480   0.368   7.238   0.126 -0.0076  1.1437  0.0080
  982MOL0     C32481   0.232   7.242   0.082  0.0373 -0.6412 -0.2618
  982MOL0     O32482  -0.014   7.035   0.160 -0.4653 -0.3802  0.2162
  982MOL0     C32483  -0.272   7.113   0.146  0.1801  0.3887  0.0005
  982MOL0     C32484  -0.405   7.169   0.133 -0.0618  0.1381 -0.0091
  982MOL0     N32485  -0.601   7.291   0.471  0.0850 -0.7176  0.1799
  982MOL0     N32486  -0.580   7.257   0.600  0.2027  0.3713  0.6735
  982MOL0     C32487   0.333   7.082   1.117 -0.7230 -0.3598  0.9401
  982MOL0     C32488   0.439   7.168   1.103  0.0124 -0.2960 -0.3766
  982MOL0     C32489   0.775   7.415   1.015  0.2765  0.3029 -0.7168
  982MOL0     C32490   0.811   7.392   0.884  0.3602  0.2325  0.0347
  982MOL0     C32491   0.931   7.425   0.829  0.0536 -0.4615 -0.0452
  982MOL0     C32492   1.036   7.465   0.918 -0.9581  0.6854 -0.2609
  982MOL0     O32493   1.165   7.483   0.870  0.1030  0.3293 -0.1769
  982MOL0     C32494   1.188   7.606   0.802  0.1247 -0.1913 -0.4559
  982MOL0     C32495   1.342   7.612   0.778  0.8480 -0.3270  0.3280
  982MOL0     C32496   1.374   7.490   0.682 -0.8365 -0.3535 -0.3722
  982MOL0     C32497   1.528   7.499   0.634 -0.5762  0.7306 -0.0983
  982MOL0     C32498   1.614   7.470   0.753  0.0407  0.0329 -0.2268
  982MOL0     C32499   1.701   7.464   0.833  0.0889  0.2435  0.8837
  982MOL0     C32500   1.001   7.499   1.047  0.5061  0.6975  0.1391
  982MOL0     C32501   0.873   7.477   1.107 -0.2824  0.6072  0.2353
  982MOL0     C32502   0.850   7.519   1.250 -0.0837  0.0874 -0.5723
  982MOL0     H32503   0.362   7.302   0.797 -0.3934  0.5407 -0.0758
  982MOL0     H32504   0.189   7.151   0.812 -1.1659 -0.0491  0.0949
  982MOL0     H32505  -0.000   7.129   0.928  0.5373 -0.9596  0.4651
  982MOL0     H32506  -0.016   6.959   0.890 -0.8499 -1.6834  1.3844
  982MOL0     H32507  -0.133   7.109   1.140  0.9171  1.0248 -0.7296
  982MOL0     H32508  -0.105   6.936   1.138  1.3947  0.4258 -1.2162
  982MOL0     H32509  -0.238   6.898   0.944  0.3772  0.4270 -1.2869
  982MOL0     H32510  -0.267   7.077   0.921 -1.7000  0.0295  0.1459
  982MOL0     H32511  -0.401   6.890   1.117 -2.8925  1.8248  2.1162
  982MOL0     H32512  -0.367   7.060   1.162 -0.7426 -0.6521  1.0303
  982MOL0     H32513  -0.518   6.924   0.931 -1.0212  0.5310 -1.3135
  982MOL0     H32514  -0.595   7.012   1.062 -0.3461 -4.4997 -0.5081
  982MOL0     H32515  -0.483   7.227   0.985 -0.5177 -1.3807  1.0596
  982MOL0     H32516  -0.447   7.147   0.830  3.1903 -1.7216  2.1405
  982MOL0     H32517  -0.718   7.137   0.964  2.7211 -1.3102  2.4520
  982MOL0     H32518  -0.676   7.084   0.806  1.8893 -1.5436  2.0969
  982MOL0     H32519  -0.788   7.315   0.848 -0.2087  0.6796 -2.8095
  982MOL0     H32520  -0.625   7.380   0.887 -0.3671 -0.0521 -0.5038
  982MOL0     H32521  -0.821   7.480   0.638  0.0975  0.7531  0.5790
  982MOL0     H32522  -0.817   7.541   0.391 -1.5073 -1.2755 -0.8816
  982MOL0     H32523  -0.664   7.501   0.297 -0.6718  0.6922 -1.3773
  982MOL0     H32524  -0.912   7.336   0.283 -0.1747 -0.4223 -0.5925
  982MOL0     H32525  -0.857   7.465   0.181  0.7718  1.4932  2.0019
  982MOL0     H32526  -0.820   7.233   0.108  0.1784 -2.1938  1.1119
  982MOL0     H32527  -0.696   7.216   0.227 -1.1385  0.7565  1.1872
  982MOL0     H32528  -0.566   7.407   0.123  0.1638  0.5664 -1.8540
  982MOL0     H32529  -0.689   7.414  -0.012  0.8969  0.1410 -1.1123
  982MOL0     H32530  -0.388   7.267  -0.199 -0.9895  0.4900  0.6974
  982MOL0     H32531  -0.159   7.197  -0.168  1.3959 -0.1776  0.8588
  982MOL0     H32532   0.222   6.943  -0.086  0.6037 -1.1801  0.7393
  982MOL0     H32533   0.449   6.944  -0.010  2.2762  0.7430  2.5037
  982MOL0     H32534   0.631   6.925   0.133 -1.7025  1.6105  1.2906
  982MOL0     H32535   0.646   7.020  -0.018  0.7043  4.9717  0.0032
  982MOL0     H32536   0.873   7.038   0.055  0.4812 -0.0125 -0.1260
  982MOL0     H32537   0.817   7.170   0.159  5.2789  0.3542 -0.4032
  982MOL0     H32538   0.775   7.006   0.345  0.2745  3.6955 -1.1755
  982MOL0     H32539   0.841   6.880   0.241 -3.8294  0.2438 -1.0668
  982MOL0     H32540   0.959   7.138   0.335  1.3853  0.6276  1.1207
  982MOL0     H32541   1.067   7.028   0.251  1.8333  3.0912  1.4340
  982MOL0     H32542   1.016   6.848   0.404 -0.9410  0.0241  2.3736
  982MOL0     H32543   0.921   6.956   0.513  0.1242 -0.4837  1.6347
  982MOL0     H32544   1.164   6.919   0.593  1.8369  0.6625  1.2758
  982MOL0     H32545   1.217   6.985   0.435 -1.2514  1.1800 -1.2134
  982MOL0     H32546   1.033   7.155   0.618  0.0509  1.4742  0.2080
  982MOL0     H32547   1.156   7.194   0.499  1.6218  1.4633  1.7440
  982MOL0     H32548   1.210   7.231   0.735 -0.2619  1.7229 -3.8022
  982MOL0     H32549   1.228   7.058   0.763 -0.6568  1.2342  0.7411
  982MOL0     H32550   0.401   7.329   0.176 -1.3004  1.9816 -0.5961
  982MOL0     H32551   0.163   7.322   0.105  1.2556  0.3477  0.0400
  982MOL0     H32552  -0.248   7.074   0.245 -2.3571  1.3519  1.0706
  982MOL0     H32553  -0.474   7.170   0.217  0.5741  2.0710  0.5301
  982MOL0     H32554   0.325   7.018   1.204  1.6995 -4.2405 -1.3832
  982MOL0     H32555   0.506   7.164   1.189 -3.3204 -1.6756  2.4329
  982MOL0     H32556   0.743   7.347   0.813  0.6578  0.4575 -0.3955
  982MOL0     H32557   0.951   7.417   0.723 -3.8960  0.7746 -1.0370
  982MOL0     H32558   1.146   7.687   0.863 -2.1362 -1.6303  0.0541
  982MOL0     H32559   1.133   7.607   0.708 -0.2862 -2.5588 -0.3023
  982MOL0     H32560   1.398   7.597   0.870  2.1889  1.5537 -0.1238
  982MOL0     H32561   1.367   7.705   0.726  3.4393 -1.2269 -0.1800
  982MOL0     H32562   1.318   7.502   0.589 -0.2039 -1.0455 -0.8538
  982MOL0     H32563   1.356   7.394   0.732  0.3353 -0.3374  0.1142
  982MOL0     H32564   1.543   7.422   0.558  4.1962  2.4734 -1.2500
  982MOL0     H32565   1.542   7.599   0.593 -0.1667  1.3036  1.3600
  982MOL0     H32566   1.784   7.457   0.899 -0.8601 -2.8416  1.9031
  982MOL0     H32567   1.085   7.540   1.101 -0.0640  0.3249  1.3532
  982MOL0     H32568   0.756   7.573   1.264 -0.6062 -1.4442  2.4288
  982MOL0     H32569   0.852   7.439   1.324 -1.7616  1.3513  0.9339
  982MOL0     H32570   0.926   7.583   1.296  0.2441 -1.9900  2.0146
  983MOL0     O32571   3.119  11.264   3.227 -0.1654  0.2361 -0.4512
  983MOL0     C32572   3.087  11.378   3.258  0.4615 -0.1043 -0.0722
  983MOL0     O32573   3.174  11.488   3.270  1.0441  0.0934 -0.2945
  983MOL0     C32574   3.307  11.493   3.247 -0.4632 -1.1783 -0.9173
  983MOL0     C32575   3.357  11.594   3.165 -0.2962  0.9892  0.2207
  983MOL0     C32576   3.495  11.581   3.128 -0.4320 -0.4347  0.1194
  983MOL0     C32577   3.583  11.484   3.171  0.3143  0.0841 -0.0687
  983MOL0     O32578   3.719  11.478   3.130 -0.0023  0.0308 -0.4279
  983MOL0     C32579   3.787  11.364   3.160 -0.1766 -0.3970  0.2415
  983MOL0     C32580   3.924  11.373   3.100 -0.1193 -0.0148 -0.3507
  983MOL0     C32581   4.014  11.278   3.170 -0.1688 -0.2954 -0.1603
  983MOL0     C32582   4.143  11.265   3.084 -0.3867 -0.2017 -0.4040
  983MOL0     C32583   4.250  11.193   3.156  0.4402  0.5774 -0.3383
  983MOL0     C32584   4.372  11.190   3.064  1.0512  0.4015  0.0371
  983MOL0     C32585   4.376  11.114   2.937  1.0076  0.0073 -0.9639
  983MOL0     C32586   4.342  10.965   2.956 -0.2033  0.1339  0.4055
  983MOL0     N32587   4.450  10.905   3.042  0.7102 -0.1323  0.4798
  983MOL0     C32588   4.546  10.832   2.987 -0.6730 -0.1109  0.5052
  983MOL0     C32589   4.616  10.773   3.085 -0.1029  0.2125 -0.0407
  983MOL0     C32590   4.735  10.677   3.072  0.4121 -0.6347 -0.3195
  983MOL0     C32591   4.862  10.724   3.005  0.9357 -0.3196  0.1176
  983MOL0     C32592   4.939  10.825   3.093 -0.7057  0.1032 -0.5213
  983MOL0     C32593   4.920  10.970   3.054  0.6276  1.0463  0.4022
  983MOL0     O32594   5.038  11.047   3.094  0.5325  0.2784  0.6141
  983MOL0     C32595   5.052  11.166   3.029 -0.2631  0.3613  0.6089
  983MOL0     C32596   4.951  11.243   2.957 -0.7628 -0.5268 -0.8425
  983MOL0     C32597   4.992  11.380   2.914 -0.4388 -0.0331  0.2343
  983MOL0     C32598   5.112  11.435   2.955 -0.5768  0.0840 -0.1988
  983MOL0     C32599   5.168  11.562   2.906 -0.7196 -0.0545  0.7650
  983MOL0     O32600   5.296  11.596   2.955  0.2124  0.2218  0.2580
  983MOL0     C32601   5.347  11.722   2.934  0.1536 -0.2565 -0.2580
  983MOL0     C32602   5.489  11.739   2.935  0.4078  1.1009 -0.0617
  983MOL0     C32603   5.552  11.864   2.922  0.6180  0.9518 -0.0049
  983MOL0     C32604   5.473  11.982   2.897  0.5877  0.6776  0.3128
  983MOL0     O32605   5.505  12.112   2.916 -0.2780  1.0648 -0.2264
  983MOL0     C32606   5.638  12.146   2.958  0.2870  0.2469  0.1574
  983MOL0     C32607   5.722  12.175   2.831 -1.4136  0.3395 -1.2354
  983MOL0     C32608   5.880  12.155   2.860  0.6688 -0.4502  0.8927
  983MOL0     C32609   5.925  12.019   2.802 -0.5492 -0.9653  0.3858
  983MOL0     C32610   6.074  11.997   2.825  0.1723 -0.2658 -0.4835
  983MOL0     C32611   6.133  11.869   2.767 -0.0597  0.1100 -0.1113
  983MOL0     C32612   6.282  11.860   2.799  0.4352 -0.0348  0.5752
  983MOL0     C32613   6.347  11.722   2.797 -0.0241  0.7172 -0.0832
  983MOL0    Cl32614   6.301  11.618   2.938  0.4090  0.1462 -0.2527
  983MOL0     C32615   5.344  11.970   2.888  0.9171  0.0880 -0.3828
  983MOL0     C32616   5.277  11.844   2.911  0.1993 -0.6572 -0.1269
  983MOL0     O32617   5.106  11.631   2.831  0.0804 -0.7363  0.0499
  983MOL0     C32618   5.191  11.362   3.047 -0.5931 -0.5288 -0.3376
  983MOL0     C32619   5.164  11.222   3.074  1.0854 -0.5557  0.2734
  983MOL0     N32620   4.561  10.818   3.204  0.4383 -0.3963 -0.3493
  983MOL0     N32621   4.467  10.899   3.173  0.3241  0.2792 -0.2419
  983MOL0     C32622   3.522  11.378   3.243 -0.0476 -1.1452  0.0999
  983MOL0     C32623   3.391  11.392   3.289 -0.2751  0.1143  0.2311
  983MOL0     C32624   2.949  11.398   3.311 -0.1122  0.4456 -0.3402
  983MOL0     C32625   2.935  11.494   3.419 -0.4357  0.7291 -0.1201
  983MOL0     C32626   2.815  11.499   3.474 -0.2724 -0.2035 -0.5738
  983MOL0     C32627   2.694  11.437   3.422  0.3989 -0.0625  0.9702
  983MOL0     O32628   2.569  11.459   3.479 -0.0444 -0.0463  0.7574
  983MOL0     C32629   2.552  11.581   3.553 -0.0581  0.2914 -0.7268
  983MOL0     C32630   2.414  11.631   3.549 -0.5970 -0.4345 -0.1332
  983MOL0     C32631   2.363  11.659   3.409 -0.6339 -0.1097  0.7589
  983MOL0     C32632   2.234  11.746   3.402  0.5739 -0.3062 -0.0872
  983MOL0     C32633   2.127  11.656   3.402  1.3178 -0.1459  0.0971
  983MOL0     C32634   2.026  11.594   3.379 -0.0313  0.3423  0.5557
  983MOL0     C32635   2.702  11.337   3.333 -0.4194  0.0448 -0.9493
  983MOL0     C32636   2.829  11.322   3.272  0.3362 -0.0801  0.6140
  983MOL0     C32637   2.838  11.220   3.165  0.1225 -0.6627  0.2683
  983MOL0     H32638   3.294  11.674   3.129  1.9098  2.6250 -0.2285
  983MOL0     H32639   3.524  11.648   3.047  0.4890  0.0496  0.8251
  983MOL0     H32640   3.789  11.349   3.269  0.4019  0.0927  0.3013
  983MOL0     H32641   3.726  11.280   3.126 -1.0082 -0.2087  1.1997
  983MOL0     H32642   3.949  11.479   3.096 -2.2729  0.5064 -3.3891
  983MOL0     H32643   3.916  11.359   2.992  0.6346 -0.4232 -0.3616
  983MOL0     H32644   3.973  11.177   3.179 -0.9171  0.0283  0.0864
  983MOL0     H32645   4.043  11.322   3.266  0.6803 -0.2398 -0.4314
  983MOL0     H32646   4.111  11.206   2.998  0.5255 -2.1210  0.5021
  983MOL0     H32647   4.184  11.363   3.058  0.5659 -1.0795 -2.4470
  983MOL0     H32648   4.279  11.236   3.253  2.1071 -1.2194  0.0252
  983MOL0     H32649   4.209  11.094   3.182  0.0884  1.0746  1.1012
  983MOL0     H32650   4.380  11.294   3.031 -3.1582  0.4561 -1.3382
  983MOL0     H32651   4.449  11.171   3.139  1.4180  2.7282  0.3383
  983MOL0     H32652   4.476  11.126   2.895  0.4752 -0.5060 -2.4287
  983MOL0     H32653   4.305  11.147   2.861 -1.3683 -1.3061  0.5798
  983MOL0     H32654   4.239  10.952   2.990 -0.0628  2.2593  1.8090
  983MOL0     H32655   4.347  10.918   2.857 -0.0184 -0.1171  0.5325
  983MOL0     H32656   4.562  10.827   2.880  2.4376  2.4088  0.7164
  983MOL0     H32657   4.749  10.631   3.170 -1.3041 -2.4124 -0.8469
  983MOL0     H32658   4.697  10.599   3.005 -5.2141  2.0157 -0.8680
  983MOL0     H32659   4.927  10.643   2.971  0.6682  1.1475 -4.6784
  983MOL0     H32660   4.831  10.767   2.909 -2.1828 -2.3807  0.0768
  983MOL0     H32661   5.046  10.807   3.093 -0.5966  0.6596  0.8076
  983MOL0     H32662   4.907  10.799   3.194  0.3156  0.7989 -0.0010
  983MOL0     H32663   4.839  11.015   3.113  0.9614  3.6449 -0.9379
  983MOL0     H32664   4.905  10.972   2.945  1.6775 -2.5519  0.0659
  983MOL0     H32665   4.860  11.198   2.919 -2.6070  0.1931  2.3852
  983MOL0     H32666   4.927  11.423   2.838  0.6298 -1.6491 -1.6977
  983MOL0     H32667   5.539  11.653   2.979 -0.8366  0.4235  0.0789
  983MOL0     H32668   5.660  11.873   2.926  0.9863 -2.4591  1.1429
  983MOL0     H32669   5.640  12.226   3.032 -3.7593 -1.1854  2.1150
  983MOL0     H32670   5.682  12.061   3.011  3.3727  1.6508  0.0228
  983MOL0     H32671   5.687  12.118   2.744 -1.8580  1.1324 -1.5911
  983MOL0     H32672   5.705  12.280   2.805  0.7617  0.9455 -0.4497
  983MOL0     H32673   5.942  12.231   2.813  2.8371  0.3002  4.5370
  983MOL0     H32674   5.895  12.165   2.968 -2.4369  0.4920  1.3353
  983MOL0     H32675   5.898  12.020   2.696  0.5530  3.2046 -0.0386
  983MOL0     H32676   5.877  11.945   2.866 -3.4407 -0.3627 -0.9309
  983MOL0     H32677   6.094  12.007   2.932 -1.2976 -1.9549  0.0007
  983MOL0     H32678   6.123  12.076   2.767  0.3908  0.4296  0.6288
  983MOL0     H32679   6.076  11.787   2.812 -1.4595 -0.0703 -2.0678
  983MOL0     H32680   6.121  11.852   2.660 -1.5203  0.2107  0.0183
  983MOL0     H32681   6.302  11.905   2.897  0.6243 -0.0194  0.5301
  983MOL0     H32682   6.320  11.929   2.722 -1.0079  0.2969  0.1339
  983MOL0     H32683   6.302  11.676   2.708  1.6940 -2.1517  0.4090
  983MOL0     H32684   6.456  11.727   2.785 -0.1338  0.0177 -1.5592
  983MOL0     H32685   5.286  12.062   2.883  1.5030  0.4829 -0.0867
  983MOL0     H32686   5.169  11.847   2.927  0.4090  3.8642  2.0265
  983MOL0     H32687   5.286  11.406   3.075 -0.4173  0.5767 -2.4582
  983MOL0     H32688   5.238  11.174   3.137  2.1340  0.4298 -0.1579
  983MOL0     H32689   3.580  11.296   3.285 -0.0228 -1.4784 -0.5676
  983MOL0     H32690   3.331  11.333   3.358 -1.7187  0.4539 -0.6799
  983MOL0     H32691   3.019  11.538   3.470  1.9083 -1.5897 -1.7480
  983MOL0     H32692   2.803  11.547   3.571 -1.5392 -1.5232 -0.0430
  983MOL0     H32693   2.621  11.656   3.513  0.2910  0.7665  0.6897
  983MOL0     H32694   2.583  11.556   3.655 -0.6941 -0.1408 -0.6339
  983MOL0     H32695   2.400  11.714   3.619 -1.7881 -2.4786  2.1837
  983MOL0     H32696   2.348  11.558   3.596  2.4659 -2.5192  1.2949
  983MOL0     H32697   2.347  11.565   3.354  3.0931  0.1336 -1.0360
  983MOL0     H32698   2.446  11.710   3.361  1.2152 -0.8498  2.9892
  983MOL0     H32699   2.222  11.814   3.487 -3.6710  0.1123 -0.8235
  983MOL0     H32700   2.247  11.814   3.317  0.8612 -1.7711 -1.2551
  983MOL0     H32701   1.955  11.514   3.374  0.7634 -0.3203 -1.7649
  983MOL0     H32702   2.608  11.291   3.304 -0.5316 -0.8066  0.6510
  983MOL0     H32703   2.914  11.252   3.093 -0.7265  1.7363  0.3631
  983MOL0     H32704   2.850  11.115   3.194  0.4258 -0.7495 -0.1552
  983MOL0     H32705   2.745  11.208   3.110  2.3734 -4.5492 -3.2761
  984MOL0     O32706   4.215  10.872   7.618  0.6037  0.7287 -0.3526
  984MOL0     C32707   4.218  10.906   7.502  0.6657  0.3895  0.1213
  984MOL0     O32708   4.163  11.023   7.459  0.1445 -0.1095  0.3779
  984MOL0     C32709   4.107  11.111   7.543  0.1711 -0.3912  0.2135
  984MOL0     C32710   4.161  11.164   7.662 -0.1839 -0.8681 -0.4604
  984MOL0     C32711   4.091  11.263   7.736  0.9577  1.1219  0.5433
  984MOL0     C32712   3.950  11.293   7.699  0.1853 -0.2941  0.0642
  984MOL0     O32713   3.894  11.385   7.788 -0.5273  0.2676  0.2447
  984MOL0     C32714   3.773  11.449   7.748  0.3797  0.7822  0.5280
  984MOL0     C32715   3.647  11.360   7.781 -0.4635 -0.5244 -0.5576
  984MOL0     C32716   3.522  11.449   7.749  0.2194 -0.0489  0.0561
  984MOL0     C32717   3.392  11.357   7.739 -0.1842 -0.3702  0.5128
  984MOL0     C32718   3.277  11.452   7.734  0.8896  0.0084  0.0989
  984MOL0     C32719   3.146  11.382   7.712  0.8712 -0.1248 -0.5703
  984MOL0     C32720   3.032  11.483   7.748  0.0972 -0.0778 -0.2931
  984MOL0     C32721   2.881  11.425   7.759 -0.0339 -0.0893 -0.4006
  984MOL0     N32722   2.791  11.536   7.800  0.0514 -0.5050 -0.9650
  984MOL0     C32723   2.712  11.546   7.919  0.4240  0.5252 -0.3420
  984MOL0     C32724   2.632  11.657   7.901 -0.1127 -0.5066  0.2181
  984MOL0     C32725   2.515  11.677   7.986  0.0458  0.3943 -0.4588
  984MOL0     C32726   2.369  11.653   7.924 -0.9548  0.1952  0.7587
  984MOL0     C32727   2.296  11.771   7.858  0.0808  0.6061  0.2312
  984MOL0     C32728   2.172  11.724   7.775 -0.5067  0.1140 -0.0323
  984MOL0     O32729   2.203  11.672   7.654  0.5487 -0.8120  0.0666
  984MOL0     C32730   2.091  11.632   7.579 -0.8149  0.2629  0.1588
  984MOL0     C32731   1.953  11.629   7.616 -0.0805 -0.1604  0.0821
  984MOL0     C32732   1.860  11.600   7.517 -0.8576 -0.1335 -0.0838
  984MOL0     C32733   1.889  11.564   7.384  0.2367 -0.4256 -0.8602
  984MOL0     C32734   1.776  11.541   7.293 -0.4490 -0.0660 -0.2579
  984MOL0     O32735   1.645  11.549   7.335  0.0563 -0.2174  0.4185
  984MOL0     C32736   1.536  11.535   7.248 -0.6427  0.0001 -0.4076
  984MOL0     C32737   1.532  11.468   7.126  0.7273  0.4033  0.4228
  984MOL0     C32738   1.408  11.455   7.060  0.2299  0.6534 -0.0596
  984MOL0     C32739   1.286  11.508   7.101 -1.0700  0.2449  0.1783
  984MOL0     O32740   1.183  11.471   7.027  0.5341 -0.1349  1.0235
  984MOL0     C32741   1.055  11.515   7.062 -0.1873 -0.0549  0.7601
  984MOL0     C32742   0.947  11.453   6.975 -0.3632  0.2683 -0.3534
  984MOL0     C32743   0.815  11.530   6.994  0.1292 -0.0081  0.9841
  984MOL0     C32744   0.705  11.436   6.932 -0.3178 -0.5033  0.4169
  984MOL0     C32745   0.558  11.474   6.989 -0.6553  0.3522 -0.3682
  984MOL0     C32746   0.490  11.571   6.900 -0.8105 -0.3758 -0.1863
  984MOL0     C32747   0.352  11.599   6.962  0.2715 -0.1171 -0.3446
  984MOL0     C32748   0.243  11.617   6.866 -0.1903  0.0425 -0.5609
  984MOL0    Cl32749   0.189  11.468   6.812 -0.1541  0.3231 -0.2441
  984MOL0     C32750   1.295  11.589   7.219 -0.4893  0.7929 -0.1657
  984MOL0     C32751   1.419  11.600   7.288  0.0566  0.1387 -0.3997
  984MOL0     O32752   1.815  11.502   7.181 -0.2803  1.0463  0.4134
  984MOL0     C32753   2.023  11.562   7.350  0.4000  0.1391  0.0405
  984MOL0     C32754   2.122  11.594   7.447 -0.4745  0.2116  0.0977
  984MOL0     N32755   2.668  11.723   7.787 -0.0785 -0.4109 -0.3665
  984MOL0     N32756   2.763  11.649   7.733 -0.0422  0.0514 -0.3446
  984MOL0     C32757   3.902  11.242   7.570 -0.5713 -0.8037 -0.8816
  984MOL0     C32758   3.983  11.150   7.503 -0.0446 -0.3335 -0.1938
  984MOL0     C32759   4.298  10.835   7.400 -0.3980  1.2035  0.2727
  984MOL0     C32760   4.333  10.891   7.274  0.5457 -0.1886 -0.1809
  984MOL0     C32761   4.395  10.823   7.165  0.2307  0.3982 -0.4792
  984MOL0     C32762   4.463  10.709   7.192 -0.8813  0.2620 -0.3647
  984MOL0     O32763   4.559  10.646   7.113  0.0918  1.0096 -0.1003
  984MOL0     C32764   4.587  10.699   6.983  0.3725 -0.0263  0.1436
  984MOL0     C32765   4.705  10.642   6.903  0.2884  0.9874 -0.6185
  984MOL0     C32766   4.824  10.694   6.971  0.4455  0.1884 -0.3848
  984MOL0     C32767   4.957  10.633   6.934 -0.2407  0.1783  0.6480
  984MOL0     C32768   5.018  10.683   6.801 -0.5185  0.8382  0.1037
  984MOL0     C32769   5.047  10.729   6.696  0.6279 -0.5410 -0.3644
  984MOL0     C32770   4.431  10.644   7.318 -0.6295  0.1088  0.3213
  984MOL0     C32771   4.353  10.705   7.416  0.4893  0.0035 -0.7754
  984MOL0     C32772   4.322  10.617   7.542  0.0627  0.1074 -0.0511
  984MOL0     H32773   4.263  11.139   7.687 -0.6766 -2.1109  0.3977
  984MOL0     H32774   4.137  11.298   7.828  0.9428  2.2781  0.1273
  984MOL0     H32775   3.767  11.538   7.811 -2.4820 -0.2776  1.8771
  984MOL0     H32776   3.779  11.479   7.642  1.5973 -1.8295 -0.2285
  984MOL0     H32777   3.643  11.321   7.883 -0.7839 -2.1154 -1.1525
  984MOL0     H32778   3.649  11.268   7.722  1.1587 -1.9009  1.4510
  984MOL0     H32779   3.535  11.507   7.657  0.5145 -1.5084 -0.8542
  984MOL0     H32780   3.506  11.521   7.829  3.1631  2.4184 -1.3925
  984MOL0     H32781   3.392  11.289   7.654  0.7507  2.0647 -1.5740
  984MOL0     H32782   3.384  11.298   7.831 -0.1517 -0.3032  0.5586
  984MOL0     H32783   3.276  11.499   7.832  1.6121 -0.2401  0.2331
  984MOL0     H32784   3.296  11.528   7.657 -0.2268  3.1905  2.7229
  984MOL0     H32785   3.149  11.344   7.609  0.1931 -4.0596  0.6875
  984MOL0     H32786   3.135  11.289   7.769 -0.2958  0.2042 -0.2418
  984MOL0     H32787   3.028  11.561   7.672 -4.2248  1.1209  0.8609
  984MOL0     H32788   3.057  11.536   7.841 -0.2834  2.0212 -1.3318
  984MOL0     H32789   2.863  11.395   7.655  2.7909  2.5094 -1.8041
  984MOL0     H32790   2.863  11.336   7.820  0.7499 -0.8433 -1.2511
  984MOL0     H32791   2.694  11.468   7.991  2.3977  0.1251 -0.2191
  984MOL0     H32792   2.529  11.603   8.066  1.4417 -1.1539 -2.0482
  984MOL0     H32793   2.530  11.778   8.026 -0.3930 -0.6172  2.5233
  984MOL0     H32794   2.375  11.574   7.849  0.2835  0.4899  0.5149
  984MOL0     H32795   2.308  11.619   8.008 -0.2146  1.0125  1.6461
  984MOL0     H32796   2.361  11.831   7.794 -0.0677  0.4141 -0.0995
  984MOL0     H32797   2.268  11.837   7.941  0.6970 -0.1100  1.0361
  984MOL0     H32798   2.101  11.807   7.774 -2.5093 -1.5373 -0.1722
  984MOL0     H32799   2.129  11.645   7.837  1.8549  0.9861  2.9970
  984MOL0     H32800   1.916  11.656   7.714  0.9236  3.5866 -0.4086
  984MOL0     H32801   1.755  11.605   7.546 -1.1255 -1.5850 -0.6874
  984MOL0     H32802   1.618  11.425   7.076 -1.9500 -1.7397 -2.8377
  984MOL0     H32803   1.423  11.386   6.977  2.4553  0.2542  0.5915
  984MOL0     H32804   1.032  11.471   7.160 -0.6669 -0.6244  0.4017
  984MOL0     H32805   1.047  11.624   7.068  0.6145 -0.0572  2.3354
  984MOL0     H32806   0.977  11.452   6.870  3.2396 -2.6960  0.4766
  984MOL0     H32807   0.946  11.348   7.003 -1.7066  0.3781  0.0890
  984MOL0     H32808   0.788  11.533   7.100  0.7459 -2.6395  1.2925
  984MOL0     H32809   0.821  11.626   6.942 -2.2401 -1.5369 -2.5205
  984MOL0     H32810   0.723  11.330   6.955  0.1497 -1.3934 -3.3735
  984MOL0     H32811   0.707  11.444   6.823  0.5183 -1.2771  0.3651
  984MOL0     H32812   0.571  11.502   7.094  3.7279  0.9877 -0.8854
  984MOL0     H32813   0.506  11.378   6.978 -1.0381  0.5977 -0.7175
  984MOL0     H32814   0.557  11.655   6.884  0.6938 -1.7401 -1.3707
  984MOL0     H32815   0.487  11.521   6.802 -1.2758 -0.2853 -0.2234
  984MOL0     H32816   0.362  11.695   7.013  1.1422  1.0900 -2.6404
  984MOL0     H32817   0.331  11.520   7.034  1.5805 -0.2154 -0.0395
  984MOL0     H32818   0.164  11.687   6.897  1.8611  3.7751 -2.9153
  984MOL0     H32819   0.279  11.670   6.777 -0.0163  2.5037  0.8939
  984MOL0     H32820   1.214  11.648   7.261 -0.7563  0.4954 -0.2579
  984MOL0     H32821   1.419  11.661   7.378  1.7893  1.1540 -1.0550
  984MOL0     H32822   2.060  11.539   7.250 -2.2753 -1.8252 -0.6118
  984MOL0     H32823   2.224  11.565   7.422 -1.3571  0.0797 -4.1805
  984MOL0     H32824   3.808  11.281   7.531 -0.6684  1.4092  1.3543
  984MOL0     H32825   3.947  11.116   7.407  0.1442  1.3608 -0.8865
  984MOL0     H32826   4.300  10.988   7.240 -0.3368 -1.7896 -4.5752
  984MOL0     H32827   4.394  10.884   7.075 -1.9247  1.6037  0.2888
  984MOL0     H32828   4.607  10.805   7.005  0.1400 -0.0740  0.5991
  984MOL0     H32829   4.492  10.692   6.929 -0.8647  1.5724  1.9399
  984MOL0     H32830   4.685  10.673   6.800 -4.1843  0.7493 -0.0263
  984MOL0     H32831   4.704  10.534   6.918  0.6528  0.8734 -1.4083
  984MOL0     H32832   4.802  10.687   7.078 -3.0110 -1.0825 -1.0225
  984MOL0     H32833   4.845  10.801   6.966  1.8860 -0.0762 -0.4023
  984MOL0     H32834   5.034  10.660   7.007 -0.6687  3.7396 -0.0589
  984MOL0     H32835   4.951  10.524   6.926 -1.0910  0.3444 -2.5231
  984MOL0     H32836   5.082  10.782   6.610 -3.8707  0.6533 -1.7381
  984MOL0     H32837   4.461  10.540   7.321 -1.0513 -0.1941 -2.7595
  984MOL0     H32838   4.217  10.585   7.551  0.3334 -0.2883  2.6194
  984MOL0     H32839   4.379  10.524   7.543  0.5313  0.3563  2.2411
  984MOL0     H32840   4.348  10.678   7.629  0.4602  0.9925 -0.7804
  985MOL0     O32841   7.772  10.251   6.050  0.4542  0.5215 -0.8630
  985MOL0     C32842   7.804  10.340   6.128 -0.5158 -0.3797  0.6885
  985MOL0     O32843   7.897  10.438   6.097  1.1986  0.3399  1.3475
  985MOL0     C32844   7.933  10.457   5.961  0.1828 -0.0807 -0.2309
  985MOL0     C32845   7.884  10.568   5.888  0.2941  0.0156 -0.5340
  985MOL0     C32846   7.939  10.599   5.760 -0.7723 -0.8081  0.6387
  985MOL0     C32847   8.040  10.523   5.706 -0.4913 -0.3358 -0.8091
  985MOL0     O32848   8.124  10.541   5.600 -0.3130 -0.1410 -0.1021
  985MOL0     C32849   8.186  10.670   5.612  0.9107  0.6061  0.3606
  985MOL0     C32850   8.266  10.680   5.483  0.0308 -0.6046  0.7833
  985MOL0     C32851   8.337  10.825   5.485  0.3859  0.1462  0.1733
  985MOL0     C32852   8.455  10.827   5.384 -0.0251 -0.5526 -0.0655
  985MOL0     C32853   8.527  10.965   5.415 -0.1274  0.4016  0.2027
  985MOL0     C32854   8.641  10.998   5.314 -0.2677 -0.1333 -0.5506
  985MOL0     C32855   8.760  10.895   5.320  0.4077  0.3457 -0.1300
  985MOL0     C32856   8.861  10.905   5.198 -0.2809  0.0325  0.1640
  985MOL0     N32857   8.976  10.821   5.224 -0.4398  0.8119 -0.6101
  985MOL0     C32858   8.977  10.681   5.207 -0.0269 -0.0007  0.3673
  985MOL0     C32859   9.105  10.653   5.249  0.3464  0.1022 -0.1076
  985MOL0     C32860   9.169  10.517   5.269 -1.1678 -0.4827 -0.8711
  985MOL0     C32861   9.320  10.497   5.302  0.5234 -0.1687  0.3033
  985MOL0     C32862   9.415  10.550   5.182  0.4819  0.4281 -1.0230
  985MOL0     C32863   9.414  10.448   5.068  0.5032 -0.0364  0.3577
  985MOL0     O32864   9.484  10.493   4.956 -0.2333 -0.0196 -0.2516
  985MOL0     C32865   9.620  10.473   4.926  0.0237  0.3818 -0.3799
  985MOL0     C32866   9.671  10.518   4.805  0.4991  0.3673 -0.0933
  985MOL0     C32867   9.807  10.488   4.773 -0.2441 -0.6936  0.5384
  985MOL0     C32868   9.886  10.419   4.865 -0.4287 -0.9309  0.7139
  985MOL0     C32869  10.019  10.373   4.833 -0.6478  0.4992  0.4898
  985MOL0     O32870  10.052  10.373   4.698  0.9348  0.0065 -0.2035
  985MOL0     C32871  10.179  10.355   4.658 -0.1097 -0.6005  0.5595
  985MOL0     C32872  10.248  10.474   4.637  0.0444 -0.1059  0.3126
  985MOL0     C32873  10.390  10.466   4.627  0.1691  0.4928 -0.8002
  985MOL0     C32874  10.457  10.346   4.645 -0.2286  0.1118 -0.0760
  985MOL0     O32875  10.592  10.332   4.661 -0.0370  0.6967  0.1004
  985MOL0     C32876  10.678  10.442   4.675 -0.0224 -0.2052  0.1667
  985MOL0     C32877  10.807  10.373   4.725 -0.0429  0.1917 -0.3136
  985MOL0     C32878  10.916  10.471   4.768  0.5223  0.3877  0.3490
  985MOL0     C32879  11.051  10.414   4.786  0.0750  0.5189  0.1606
  985MOL0     C32880  11.168  10.509   4.809 -0.3611 -0.4687  0.3622
  985MOL0     C32881  11.287  10.422   4.864  0.3382  0.5087  0.4812
  985MOL0     C32882  11.258  10.396   5.015 -1.0823 -0.1424  0.1522
  985MOL0     C32883  11.374  10.326   5.082  0.7494 -0.5836 -0.0363
  985MOL0    Cl32884  11.312  10.271   5.244  0.1959  0.0060 -0.5321
  985MOL0     C32885  10.385  10.229   4.640 -0.2448 -0.4396  1.0414
  985MOL0     C32886  10.240  10.232   4.649  0.0528 -0.1602 -0.4550
  985MOL0     O32887  10.103  10.345   4.924  0.1738  0.1726  0.0769
  985MOL0     C32888   9.840  10.394   4.991 -0.1348  0.9705  0.5288
  985MOL0     C32889   9.711  10.413   5.018  0.1249  0.2083 -1.0293
  985MOL0     N32890   9.168  10.757   5.294 -0.1710 -0.2766  0.0654
  985MOL0     N32891   9.096  10.863   5.279 -0.1656 -0.5004  0.5789
  985MOL0     C32892   8.083  10.409   5.769 -0.3911 -0.2110  0.1715
  985MOL0     C32893   8.027  10.369   5.894  0.1269 -0.7902  0.4930
  985MOL0     C32894   7.758  10.339   6.265  0.6486 -0.8743  0.1423
  985MOL0     C32895   7.751  10.469   6.328 -0.3024  0.7477  0.5435
  985MOL0     C32896   7.688  10.488   6.446  0.2798  0.3345 -0.9266
  985MOL0     C32897   7.652  10.381   6.522  0.9806  0.4203  0.9647
  985MOL0     O32898   7.612  10.413   6.649 -0.6746  0.5233  0.4964
  985MOL0     C32899   7.522  10.324   6.725 -0.5189 -0.9656  0.8727
  985MOL0     C32900   7.378  10.344   6.667 -0.4558 -0.3116  0.6162
  985MOL0     C32901   7.348  10.499   6.670  0.6883 -0.8914  0.1971
  985MOL0     C32902   7.264  10.540   6.548  0.5281 -0.1094  0.2109
  985MOL0     C32903   7.348  10.585   6.434 -0.0539  0.4281 -0.9769
  985MOL0     C32904   7.412  10.613   6.333  0.6508  0.5465  0.2426
  985MOL0     C32905   7.648  10.254   6.462  0.0159 -0.0659  0.7436
  985MOL0     C32906   7.713  10.230   6.341  0.0524 -0.2653  0.0881
  985MOL0     C32907   7.723  10.081   6.307  0.3844 -0.6520 -0.6889
  985MOL0     H32908   7.804  10.622   5.939  2.0957 -1.1828  4.0034
  985MOL0     H32909   7.915  10.688   5.703 -2.2261 -1.0175  0.8863
  985MOL0     H32910   8.107  10.746   5.609 -0.7632 -1.0819 -1.8124
  985MOL0     H32911   8.256  10.671   5.696  1.3168  4.0224  0.1139
  985MOL0     H32912   8.205  10.675   5.392  3.0145  2.0380 -1.6329
  985MOL0     H32913   8.332  10.595   5.465  0.4437  0.3812 -3.5923
  985MOL0     H32914   8.380  10.854   5.581  2.2959  0.7570 -0.8174
  985MOL0     H32915   8.265  10.900   5.452 -0.4009 -0.0665  1.3687
  985MOL0     H32916   8.530  10.748   5.394  0.6883  0.1374  0.1271
  985MOL0     H32917   8.412  10.825   5.283 -1.0435 -0.0346  0.3535
  985MOL0     H32918   8.461  11.052   5.407  1.0522  1.2582 -0.7195
  985MOL0     H32919   8.576  10.955   5.512 -1.9370 -0.0112  1.1212
  985MOL0     H32920   8.607  10.995   5.210  2.1924 -0.6220 -1.3949
  985MOL0     H32921   8.680  11.100   5.324  1.1480 -0.6851 -0.3432
  985MOL0     H32922   8.725  10.792   5.330 -2.8317  1.4138  0.7178
  985MOL0     H32923   8.808  10.898   5.418 -0.7599 -1.7868  0.5557
  985MOL0     H32924   8.797  10.876   5.114 -2.1750 -1.6840  2.0707
  985MOL0     H32925   8.888  11.011   5.191  2.1194 -0.5287  0.2372
  985MOL0     H32926   8.897  10.613   5.180  1.4671 -2.0705  0.8678
  985MOL0     H32927   9.108  10.485   5.354 -2.1396  0.5878 -1.1320
  985MOL0     H32928   9.146  10.451   5.185 -0.0442 -0.4738 -1.2016
  985MOL0     H32929   9.345  10.555   5.392  2.5154 -2.3963  1.3001
  985MOL0     H32930   9.337  10.390   5.320  1.4277 -0.1399 -0.3320
  985MOL0     H32931   9.516  10.576   5.215 -0.4694  2.2156  0.6645
  985MOL0     H32932   9.369  10.644   5.151 -2.2561 -0.2865  0.5451
  985MOL0     H32933   9.314  10.432   5.027  0.6510 -1.9457  0.6316
  985MOL0     H32934   9.447  10.351   5.105 -0.4017  0.0889  1.5268
  985MOL0     H32935   9.610  10.567   4.729 -0.6827 -0.2970  0.3859
  985MOL0     H32936   9.849  10.517   4.677  0.0975 -4.1887 -0.5368
  985MOL0     H32937  10.195  10.566   4.616 -1.6490 -1.0266  0.4027
  985MOL0     H32938  10.449  10.556   4.635  0.8631 -0.0839  1.0273
  985MOL0     H32939  10.691  10.493   4.579  1.6661  1.2203  1.0959
  985MOL0     H32940  10.642  10.514   4.750 -1.3001  2.2408 -2.5819
  985MOL0     H32941  10.796  10.310   4.814  1.3744  0.7635  0.3090
  985MOL0     H32942  10.846  10.311   4.645  0.0964  2.0435 -1.7529
  985MOL0     H32943  10.913  10.552   4.695 -1.0941  0.0727  0.0342
  985MOL0     H32944  10.889  10.513   4.865  3.4048 -1.3418  2.0466
  985MOL0     H32945  11.078  10.343   4.708 -1.0479  1.0441 -0.7380
  985MOL0     H32946  11.043  10.355   4.877  2.7115  0.9075  0.7249
  985MOL0     H32947  11.139  10.586   4.881  0.9762 -1.1830  1.7257
  985MOL0     H32948  11.206  10.546   4.713  0.4730 -2.5848 -0.1625
  985MOL0     H32949  11.303  10.328   4.811  1.5702  1.1482 -0.3255
  985MOL0     H32950  11.380  10.477   4.849  0.7025  0.2486  1.6800
  985MOL0     H32951  11.166  10.338   5.030  0.2889 -2.7721 -1.0364
  985MOL0     H32952  11.238  10.496   5.056 -0.2881  1.3637 -2.8268
  985MOL0     H32953  11.402  10.234   5.030 -2.2511 -0.2104 -2.5431
  985MOL0     H32954  11.467  10.384   5.089  0.0045  0.4173  3.5712
  985MOL0     H32955  10.446  10.139   4.639  0.4036 -0.2410 -4.0760
  985MOL0     H32956  10.178  10.145   4.671 -0.8585  0.5182 -0.2762
  985MOL0     H32957   9.903  10.352   5.068  1.6073  0.3629 -1.1719
  985MOL0     H32958   9.674  10.387   5.117 -1.5859 -0.5300 -1.8218
  985MOL0     H32959   8.162  10.350   5.722 -2.0483 -1.9985 -0.5054
  985MOL0     H32960   8.052  10.272   5.938 -2.6209 -0.8888  2.0481
  985MOL0     H32961   7.807  10.556   6.294  0.2772  0.0330 -0.3643
  985MOL0     H32962   7.689  10.590   6.484 -0.9065 -0.0858  0.3240
  985MOL0     H32963   7.540  10.354   6.829  2.4832 -0.9624  0.4415
  985MOL0     H32964   7.543  10.217   6.722  0.8609 -0.8117  2.9396
  985MOL0     H32965   7.305  10.300   6.735  0.6235  1.6858  3.2234
  985MOL0     H32966   7.370  10.292   6.571 -0.6810 -0.6670  0.8257
  985MOL0     H32967   7.430  10.572   6.670 -1.7979  2.1408  1.5839
  985MOL0     H32968   7.295  10.526   6.762  2.9695 -1.8589  1.9135
  985MOL0     H32969   7.195  10.462   6.515 -1.7623 -0.1039  4.3232
  985MOL0     H32970   7.193  10.619   6.576 -0.2615 -1.5612  2.6255
  985MOL0     H32971   7.470  10.661   6.257  2.3405 -1.4574  0.1791
  985MOL0     H32972   7.598  10.173   6.515 -0.1926 -1.8219 -1.9614
  985MOL0     H32973   7.732  10.029   6.402 -0.4409  1.9370  0.9207
  985MOL0     H32974   7.637  10.054   6.246 -0.5167 -0.0468  0.2816
  985MOL0     H32975   7.813  10.042   6.257  0.9612 -2.0194  1.2921
  986MOL0     O32976   8.952  10.932   6.167 -0.0480  0.4130 -0.5238
  986MOL0     C32977   8.966  10.842   6.256 -0.6976  0.7530  0.0326
  986MOL0     O32978   8.862  10.784   6.324 -0.6316 -0.1142  0.2719
  986MOL0     C32979   8.739  10.850   6.316 -0.3956  0.8826 -0.4305
  986MOL0     C32980   8.711  10.947   6.415  0.8687 -1.2297  0.1784
  986MOL0     C32981   8.588  11.022   6.419 -0.4490 -0.3432  0.7286
  986MOL0     C32982   8.501  11.009   6.313 -0.4581  1.2904 -0.0955
  986MOL0     O32983   8.401  11.093   6.308  0.5329  0.5444 -0.0577
  986MOL0     C32984   8.268  11.029   6.285 -0.0579 -0.0379 -0.8515
  986MOL0     C32985   8.163  11.079   6.393 -1.0365  0.0758 -1.1496
  986MOL0     C32986   8.158  11.236   6.397 -0.2582 -0.0842  0.1801
  986MOL0     C32987   8.138  11.301   6.263  0.4614 -0.8243  0.1951
  986MOL0     C32988   7.999  11.275   6.211 -0.3198  0.0137 -0.4229
  986MOL0     C32989   7.973  11.331   6.074  1.0138 -0.4736  0.3477
  986MOL0     C32990   7.839  11.282   6.032  0.7688  0.1364 -0.9091
  986MOL0     C32991   7.777  11.358   5.916 -0.1737 -0.0027 -0.3696
  986MOL0     N32992   7.841  11.331   5.789 -0.9370 -0.4110  0.4856
  986MOL0     C32993   7.848  11.202   5.733  0.6514 -0.6705 -0.1095
  986MOL0     C32994   7.893  11.230   5.607  0.8810  0.1944 -1.0905
  986MOL0     C32995   7.903  11.127   5.509  0.0776 -0.1842  0.4092
  986MOL0     C32996   7.794  11.139   5.412 -0.1147 -0.7607  0.1029
  986MOL0     C32997   7.668  11.076   5.464 -0.1265 -0.1559  0.4652
  986MOL0     C32998   7.563  11.056   5.355  0.4499  0.6340 -1.3730
  986MOL0     O32999   7.441  11.037   5.440 -0.4723  0.1583  0.1169
  986MOL0     C33000   7.322  11.015   5.382  0.1530  0.2856 -0.6686
  986MOL0     C33001   7.216  11.022   5.467  1.7474  0.7338  0.4128
  986MOL0     C33002   7.086  11.003   5.426 -0.4192  0.2171 -0.1554
  986MOL0     C33003   7.057  10.999   5.288 -0.8114 -0.2015 -0.2591
  986MOL0     C33004   6.914  10.993   5.250 -0.1823  0.2436 -0.2584
  986MOL0     O33005   6.824  10.976   5.349  0.8979  0.2377 -0.4809
  986MOL0     C33006   6.691  10.960   5.335  1.3146  0.1784 -1.0183
  986MOL0     C33007   6.618  10.959   5.454  0.1338  0.5657  0.4435
  986MOL0     C33008   6.487  10.921   5.466 -0.2076 -0.7046 -0.2686
  986MOL0     C33009   6.421  10.900   5.339 -0.7722  0.1565 -0.3790
  986MOL0     O33010   6.292  10.852   5.329 -0.0109 -0.2887 -0.4041
  986MOL0     C33011   6.239  10.782   5.441 -0.1557  0.5622  0.0609
  986MOL0     C33012   6.090  10.746   5.420 -0.3779  1.0768 -0.0781
  986MOL0     C33013   6.035  10.654   5.534  0.8421 -1.1736 -0.1715
  986MOL0     C33014   6.048  10.503   5.505 -0.5807 -0.4863  0.1760
  986MOL0     C33015   6.069  10.419   5.625  0.6447  0.0971 -0.2578
  986MOL0     C33016   5.944  10.420   5.717  0.7764  0.2603 -0.2488
  986MOL0     C33017   5.961  10.337   5.849 -0.5461  0.3959  0.0153
  986MOL0     C33018   5.827  10.337   5.924 -0.2843 -0.9639  0.1039
  986MOL0    Cl33019   5.694  10.283   5.829 -0.0383  0.1929  0.5974
  986MOL0     C33020   6.485  10.903   5.216  0.3452 -0.4570 -0.4286
  986MOL0     C33021   6.618  10.943   5.215  0.1637  0.1235  0.1200
  986MOL0     O33022   6.902  11.003   5.134 -0.2278 -0.1083  0.9784
  986MOL0     C33023   7.170  10.991   5.193  1.0151  0.4027 -0.8553
  986MOL0     C33024   7.301  11.000   5.240  0.6274 -0.4311 -0.5682
  986MOL0     N33025   7.906  11.369   5.593  0.0718 -0.1595  0.2652
  986MOL0     N33026   7.874  11.428   5.701  0.2642  0.0570 -0.2641
  986MOL0     C33027   8.532  10.922   6.210 -0.1744 -0.1628  0.4228
  986MOL0     C33028   8.650  10.843   6.211 -0.5664 -0.3698  0.5769
  986MOL0     C33029   9.100  10.771   6.255  1.1071  0.8035 -0.0910
  986MOL0     C33030   9.170  10.751   6.141 -0.4024  0.5867 -0.0369
  986MOL0     C33031   9.302  10.702   6.150 -0.8105  0.7534 -0.1773
  986MOL0     C33032   9.353  10.649   6.271  0.2416  0.0934  0.5126
  986MOL0     O33033   9.477  10.595   6.278  0.1542  1.0979 -0.4131
  986MOL0     C33034   9.571  10.692   6.320 -0.3537 -1.0529  0.5321
  986MOL0     C33035   9.717  10.661   6.279  0.3658  0.1698 -0.8313
  986MOL0     C33036   9.733  10.611   6.134  0.2122 -0.0043 -0.2977
  986MOL0     C33037   9.862  10.520   6.115  1.0106 -0.2071 -0.2527
  986MOL0     C33038   9.871  10.394   6.191  0.6063  0.7184 -0.4135
  986MOL0     C33039   9.874  10.289   6.261  0.3830  0.5705  0.4596
  986MOL0     C33040   9.275  10.659   6.379  0.4423 -0.0222  0.1189
  986MOL0     C33041   9.142  10.720   6.374 -0.1957  0.5159 -0.0935
  986MOL0     C33042   9.074  10.728   6.514  0.0999 -0.0960 -0.0311
  986MOL0     H33043   8.783  10.973   6.492  1.4932  0.4711 -0.9351
  986MOL0     H33044   8.556  11.101   6.487  1.3947  0.1065  1.1216
  986MOL0     H33045   8.236  11.057   6.184  0.3721 -0.6169 -1.1558
  986MOL0     H33046   8.269  10.920   6.286 -1.9218 -0.0851 -1.3748
  986MOL0     H33047   8.197  11.046   6.492 -0.9685 -0.7321 -1.4396
  986MOL0     H33048   8.066  11.029   6.387 -0.3127 -1.7975  1.1706
  986MOL0     H33049   8.256  11.270   6.431  0.1588  2.1336 -2.8294
  986MOL0     H33050   8.070  11.262   6.457 -1.1324 -1.5625 -0.4189
  986MOL0     H33051   8.147  11.410   6.267  0.4294 -0.8419  0.8421
  986MOL0     H33052   8.222  11.276   6.199 -0.8821  0.7807 -2.3594
  986MOL0     H33053   7.979  11.167   6.207 -1.7511  0.2055  0.5771
  986MOL0     H33054   7.936  11.327   6.284 -0.3859 -1.3315  0.5268
  986MOL0     H33055   7.961  11.440   6.073 -1.2315 -0.5783  3.1768
  986MOL0     H33056   8.054  11.310   6.003 -0.0963  0.0113 -1.1179
  986MOL0     H33057   7.775  11.286   6.120  1.2396  3.2067 -0.5910
  986MOL0     H33058   7.852  11.177   6.004 -1.4717 -0.5933  0.5033
  986MOL0     H33059   7.674  11.324   5.898  0.0916  0.7404 -4.1483
  986MOL0     H33060   7.785  11.463   5.945  1.2431  0.2457 -1.5848
  986MOL0     H33061   7.824  11.103   5.770 -0.1040 -0.6979 -0.6576
  986MOL0     H33062   7.993  11.154   5.454 -0.5588 -2.8051 -2.1609
  986MOL0     H33063   7.901  11.025   5.549  0.9384 -0.4277 -0.1388
  986MOL0     H33064   7.770  11.241   5.382  1.0629 -0.3493  0.5133
  986MOL0     H33065   7.818  11.086   5.319  0.2773  0.9163 -0.7744
  986MOL0     H33066   7.620  11.142   5.538 -1.3834  1.6820 -1.8588
  986MOL0     H33067   7.696  10.985   5.518  4.6591  0.4826 -0.4744
  986MOL0     H33068   7.595  10.972   5.292 -3.0809 -0.0051 -2.5263
  986MOL0     H33069   7.545  11.147   5.297  3.7644  2.3507  0.0079
  986MOL0     H33070   7.244  11.068   5.561  2.9474  1.1484 -0.1220
  986MOL0     H33071   7.010  11.006   5.504  0.1778  3.8078  0.4404
  986MOL0     H33072   6.676  10.966   5.545  1.9722 -3.7501 -0.1820
  986MOL0     H33073   6.448  10.912   5.567  3.1741 -0.6612  1.1620
  986MOL0     H33074   6.288  10.684   5.448 -2.2939 -0.6272 -0.8563
  986MOL0     H33075   6.259  10.838   5.533  2.0231 -2.4353  1.5842
  986MOL0     H33076   6.026  10.834   5.425 -1.0187  0.7509 -1.8002
  986MOL0     H33077   6.088  10.705   5.318  1.7450 -1.3712  0.7604
  986MOL0     H33078   6.090  10.668   5.627  2.8022  1.9021 -1.6445
  986MOL0     H33079   5.934  10.688   5.558  2.6198  1.8461  4.1426
  986MOL0     H33080   6.134  10.486   5.439 -0.0848 -2.3719  1.2359
  986MOL0     H33081   5.959  10.469   5.452  1.0160 -2.2719 -1.5719
  986MOL0     H33082   6.144  10.458   5.695 -0.2612 -0.5671  1.1153
  986MOL0     H33083   6.092  10.320   5.586 -0.0281  0.5156 -1.8361
  986MOL0     H33084   5.931  10.519   5.764  0.9404  0.0291  0.3006
  986MOL0     H33085   5.852  10.409   5.659  0.1751 -1.3847  0.9513
  986MOL0     H33086   6.040  10.371   5.916  0.9099 -0.7216 -1.0545
  986MOL0     H33087   5.991  10.237   5.815 -0.2067  0.6985 -0.6123
  986MOL0     H33088   5.820  10.279   6.017  0.2628 -1.0840  0.0724
  986MOL0     H33089   5.807  10.438   5.959  2.3776 -0.3298 -0.0202
  986MOL0     H33090   6.432  10.875   5.126  2.7094 -1.5130 -1.5801
  986MOL0     H33091   6.671  10.953   5.120  0.3084  3.4316  0.4333
  986MOL0     H33092   7.138  10.973   5.091  0.1086 -2.2765 -0.1797
  986MOL0     H33093   7.372  11.013   5.159  1.8411 -0.1785  0.4924
  986MOL0     H33094   8.464  10.918   6.125 -0.0285  1.6049  0.1802
  986MOL0     H33095   8.670  10.784   6.123 -3.1447  0.4389 -0.6630
  986MOL0     H33096   9.126  10.793   6.052  1.0156  0.2346 -0.9343
  986MOL0     H33097   9.365  10.701   6.061  0.5058  0.5676  0.7342
  986MOL0     H33098   9.559  10.704   6.428 -2.6809  1.7935  0.0634
  986MOL0     H33099   9.547  10.792   6.282  1.4751 -0.9097 -0.3663
  986MOL0     H33100   9.749  10.585   6.351 -0.2703  0.7936  0.1403
  986MOL0     H33101   9.779  10.750   6.298 -2.9257  1.9003  3.4787
  986MOL0     H33102   9.763  10.691   6.065  0.8966 -0.1682 -0.1993
  986MOL0     H33103   9.643  10.558   6.101 -1.4418  1.0619  2.2141
  986MOL0     H33104   9.871  10.489   6.010  1.2066 -4.0208  0.7595
  986MOL0     H33105   9.947  10.586   6.138 -1.2578  3.2902 -1.2049
  986MOL0     H33106   9.874  10.201   6.321 -2.1542 -0.2750 -0.6336
  986MOL0     H33107   9.309  10.629   6.478 -0.6358  1.7604  1.0943
  986MOL0     H33108   9.148  10.733   6.594  0.5353 -2.0099 -0.2813
  986MOL0     H33109   9.003  10.811   6.521 -0.7853 -0.9978  2.3189
  986MOL0     H33110   9.025  10.631   6.525 -2.0809  0.7183 -1.8131
  987MOL0     O33111  11.331   0.123   0.452  0.4100  0.6790 -0.0348
  987MOL0     C33112  11.254   0.031   0.418  0.7475 -0.1670  0.1472
  987MOL0     O33113  11.291  -0.093   0.369 -0.0493  0.1949 -0.4724
  987MOL0     C33114  11.423  -0.125   0.360 -0.3836 -0.0303  0.1653
  987MOL0     C33115  11.490  -0.186   0.457 -0.4502  1.3546  0.1240
  987MOL0     C33116  11.620  -0.237   0.445  0.1478  0.5529 -0.1619
  987MOL0     C33117  11.683  -0.235   0.324 -1.0107 -0.1221  0.2743
  987MOL0     O33118  11.814  -0.278   0.323  0.2127  0.3120 -0.2798
  987MOL0     C33119  11.902  -0.230   0.213  0.0918  0.5715  0.0534
  987MOL0     C33120  11.921  -0.074   0.182 -0.3207 -0.2481 -0.0522
  987MOL0     C33121  11.978  -0.004   0.307 -0.3047 -0.0598 -1.1302
  987MOL0     C33122  12.014   0.148   0.290  0.4033 -0.9167  0.3815
  987MOL0     C33123  12.061   0.204   0.418  0.2435  0.1578 -0.3408
  987MOL0     C33124  12.029   0.357   0.428 -0.6008 -0.6366  0.8326
  987MOL0     C33125  12.079   0.406   0.565 -0.1393 -0.4726 -0.5197
  987MOL0     C33126  12.018   0.543   0.619  0.1181  0.0765 -0.4353
  987MOL0     N33127  12.081   0.567   0.751  0.2701  0.1631 -0.5994
  987MOL0     C33128  12.218   0.590   0.779  0.9492  0.2542 -0.3898
  987MOL0     C33129  12.224   0.586   0.908  0.0579 -0.0878 -1.0587
  987MOL0     C33130  12.349   0.592   1.002 -0.2341 -0.2214  0.1415
  987MOL0     C33131  12.408   0.450   1.024 -0.3596  1.3378  0.1026
  987MOL0     C33132  12.477   0.446   1.166  0.4657 -0.1994  1.1168
  987MOL0     C33133  12.501   0.299   1.201 -0.3126 -0.4212 -0.7743
  987MOL0     O33134  12.591   0.236   1.111  0.1256 -0.0778 -0.0104
  987MOL0     C33135  12.728   0.255   1.126 -0.0560 -0.2456 -0.4780
  987MOL0     C33136  12.822   0.199   1.043 -0.4668  0.6320  0.1068
  987MOL0     C33137  12.955   0.212   1.061 -0.3199 -0.2663 -0.8034
  987MOL0     C33138  13.012   0.296   1.162  0.1544 -0.7969  0.5498
  987MOL0     C33139  13.153   0.316   1.162 -0.5445  0.5361 -0.3119
  987MOL0     O33140  13.242   0.234   1.090  0.5810 -0.3381  0.4200
  987MOL0     C33141  13.379   0.246   1.104 -0.3278  0.6697 -0.5676
  987MOL0     C33142  13.457   0.203   0.993 -0.2921 -0.4509 -0.9291
  987MOL0     C33143  13.598   0.223   0.998  0.7207 -1.1912  0.1883
  987MOL0     C33144  13.661   0.248   1.126  0.2588  0.6645 -0.3550
  987MOL0     O33145  13.797   0.252   1.123 -0.2332 -0.0275  0.4673
  987MOL0     C33146  13.886   0.200   1.230  0.6411 -0.4185  0.2892
  987MOL0     C33147  14.018   0.134   1.177 -0.9284  0.0008 -0.8610
  987MOL0     C33148  14.121   0.147   1.288  0.1445 -0.2636  0.1387
  987MOL0     C33149  14.250   0.079   1.248 -0.3387 -0.2784 -1.0005
  987MOL0     C33150  14.353   0.099   1.364 -0.1806  0.1605 -0.1028
  987MOL0     C33151  14.467  -0.009   1.357 -0.0141 -0.3324  0.4825
  987MOL0     C33152  14.547   0.002   1.225 -0.2580 -0.9329 -0.6372
  987MOL0     C33153  14.670  -0.096   1.234 -0.0968 -0.7647  0.6490
  987MOL0    Cl33154  14.780  -0.034   1.356 -0.2904  0.0976  0.2317
  987MOL0     C33155  13.581   0.279   1.235 -0.3742 -0.0432  0.0121
  987MOL0     C33156  13.443   0.287   1.226 -0.2095 -0.5611 -0.0214
  987MOL0     O33157  13.189   0.404   1.236 -0.0001 -0.1963 -0.2526
  987MOL0     C33158  12.921   0.355   1.255 -0.5752  0.1642 -0.2634
  987MOL0     C33159  12.784   0.328   1.234 -0.5930  0.8168 -0.6702
  987MOL0     N33160  12.100   0.582   0.963 -0.2993 -0.4722 -0.8441
  987MOL0     N33161  12.015   0.565   0.868  0.1013 -0.4194 -0.2994
  987MOL0     C33162  11.619  -0.184   0.216  0.1112 -0.2266  1.1604
  987MOL0     C33163  11.492  -0.131   0.239 -0.0414 -0.5847 -0.7279
  987MOL0     C33164  11.103   0.066   0.425 -0.2153 -0.0501  0.4798
  987MOL0     C33165  11.063   0.199   0.417  0.1924 -0.0252  0.5661
  987MOL0     C33166  10.931   0.235   0.429 -0.1556  0.0465 -0.5577
  987MOL0     C33167  10.823   0.140   0.417 -0.0552 -0.7242 -0.7688
  987MOL0     O33168  10.690   0.179   0.393  0.2593  0.0180  0.0045
  987MOL0     C33169  10.589   0.079   0.389  0.6812  0.2626 -1.0251
  987MOL0     C33170  10.581   0.023   0.250 -0.0663 -0.4240  0.4317
  987MOL0     C33171  10.542   0.129   0.143  0.1555  0.9244  0.3407
  987MOL0     C33172  10.519   0.077   0.002  0.1409 -0.3414  0.6528
  987MOL0     C33173  10.399  -0.010  -0.007 -0.6966 -0.1525 -0.7857
  987MOL0     C33174  10.319  -0.095  -0.009 -0.2861 -0.1625  0.0821
  987MOL0     C33175  10.866   0.001   0.423 -0.5703  0.2463 -0.5787
  987MOL0     C33176  11.003  -0.036   0.433  0.4522  1.0807 -0.1075
  987MOL0     C33177  11.027  -0.189   0.455  0.7982 -0.1055 -0.8612
  987MOL0     H33178  11.449  -0.188   0.557  0.8170  2.1917  0.6816
  987MOL0     H33179  11.681  -0.268   0.530 -0.3566 -0.3395 -0.1246
  987MOL0     H33180  12.004  -0.265   0.233  0.1364  0.1638 -0.8072
  987MOL0     H33181  11.857  -0.273   0.122 -1.3352  1.4763  0.3161
  987MOL0     H33182  11.840  -0.015   0.138  0.2366 -0.0020 -0.7626
  987MOL0     H33183  11.989  -0.069   0.096 -0.2080  3.3260  0.0873
  987MOL0     H33184  12.068  -0.051   0.346 -0.8281  0.5448  0.9265
  987MOL0     H33185  11.902  -0.015   0.385  1.8857  0.8713  1.2620
  987MOL0     H33186  12.093   0.168   0.216  3.9499 -0.4807  3.9647
  987MOL0     H33187  11.922   0.201   0.264  0.6492 -0.8239 -0.3191
  987MOL0     H33188  12.022   0.143   0.500  0.5977  0.9100  0.4022
  987MOL0     H33189  12.168   0.185   0.427  0.1772 -0.4900 -0.8347
  987MOL0     H33190  12.089   0.408   0.352  2.3231 -3.5176  0.9439
  987MOL0     H33191  11.923   0.374   0.407 -0.6596 -3.5654 -2.2339
  987MOL0     H33192  12.188   0.400   0.559 -0.0792 -0.6603  0.5730
  987MOL0     H33193  12.041   0.326   0.630 -0.2109 -1.7328 -2.0681
  987MOL0     H33194  12.041   0.622   0.547 -0.2604 -2.4733 -3.5711
  987MOL0     H33195  11.911   0.525   0.633 -0.1747  2.5960  1.2506
  987MOL0     H33196  12.301   0.614   0.713  3.1161  0.9060  2.3573
  987MOL0     H33197  12.428   0.649   0.953  1.7099 -0.8158  2.4027
  987MOL0     H33198  12.320   0.643   1.093 -1.3096 -4.1446  2.2518
  987MOL0     H33199  12.326   0.379   1.013 -0.6834  1.6096  0.7045
  987MOL0     H33200  12.474   0.417   0.943 -2.2544 -0.5039 -0.8020
  987MOL0     H33201  12.405   0.470   1.244  0.8186  1.0507  1.0705
  987MOL0     H33202  12.574   0.498   1.169  1.4063 -1.4299 -2.4747
  987MOL0     H33203  12.407   0.245   1.185 -0.5219 -0.3710  0.2247
  987MOL0     H33204  12.522   0.284   1.307  0.8069  0.8237 -0.7990
  987MOL0     H33205  12.787   0.140   0.959 -1.3234 -1.0790  1.6256
  987MOL0     H33206  13.020   0.160   0.991  1.1136 -1.5716  1.3433
  987MOL0     H33207  13.400   0.162   0.910  0.5656 -2.6620 -0.5127
  987MOL0     H33208  13.656   0.211   0.907  3.3170  0.1883  1.5491
  987MOL0     H33209  13.911   0.279   1.300  0.3210 -2.0234  2.2928
  987MOL0     H33210  13.826   0.135   1.294 -0.2883  1.4188  1.3582
  987MOL0     H33211  14.004   0.027   1.161 -1.1929 -0.2821  1.0669
  987MOL0     H33212  14.068   0.181   1.092 -0.0812  0.9059  0.1140
  987MOL0     H33213  14.136   0.254   1.302  0.7202  0.6028 -5.1917
  987MOL0     H33214  14.080   0.101   1.379 -0.1435 -2.6016 -1.0895
  987MOL0     H33215  14.308   0.112   1.161  2.5747 -1.8380  0.2068
  987MOL0     H33216  14.224  -0.027   1.239 -2.1656 -0.1199  1.2915
  987MOL0     H33217  14.304   0.083   1.461 -0.6635  1.2812 -0.1463
  987MOL0     H33218  14.393   0.201   1.365 -1.9202  0.9905 -2.7619
  987MOL0     H33219  14.533  -0.018   1.443  2.0159  1.5345 -0.7776
  987MOL0     H33220  14.412  -0.103   1.351  0.9965 -0.9803  1.0763
  987MOL0     H33221  14.588   0.103   1.214 -0.4203 -1.0374 -2.5157
  987MOL0     H33222  14.476  -0.024   1.145  0.9415  0.7545 -2.3376
  987MOL0     H33223  14.636  -0.197   1.259 -1.5599 -0.3447  0.4119
  987MOL0     H33224  14.729  -0.105   1.142 -0.0951  1.5044  0.3786
  987MOL0     H33225  13.640   0.307   1.321  3.1910 -4.1696 -0.8052
  987MOL0     H33226  13.385   0.331   1.306  0.8175  2.0555 -0.6127
  987MOL0     H33227  12.949   0.417   1.339 -1.8033  3.2561 -1.9824
  987MOL0     H33228  12.721   0.366   1.313 -0.8074 -2.5843  0.9997
  987MOL0     H33229  11.667  -0.180   0.119 -1.2030 -0.2028  0.4810
  987MOL0     H33230  11.442  -0.083   0.156  1.0130  0.5247 -0.7499
  987MOL0     H33231  11.129   0.277   0.381 -3.0031  3.1974  1.0259
  987MOL0     H33232  10.895   0.334   0.404 -0.6500 -0.0588 -0.2908
  987MOL0     H33233  10.492   0.117   0.423  0.1726 -1.5931 -0.2818
  987MOL0     H33234  10.601  -0.002   0.461 -2.1406  1.1794  0.6406
  987MOL0     H33235  10.500  -0.051   0.245 -2.3290  1.9478 -0.4873
  987MOL0     H33236  10.668  -0.021   0.200 -1.5714 -1.5196 -1.3679
  987MOL0     H33237  10.629   0.196   0.148 -1.2595  2.8407  0.0472
  987MOL0     H33238  10.459   0.186   0.184  1.4995  1.8735  1.8634
  987MOL0     H33239  10.510   0.153  -0.076  1.3994  0.2433  1.0569
  987MOL0     H33240  10.598   0.008  -0.030 -2.0740 -1.2027 -3.8817
  987MOL0     H33241  10.258  -0.183  -0.015  0.0714 -0.3725 -0.5947
  987MOL0     H33242  10.795  -0.081   0.421 -0.5425  0.2281 -1.4524
  987MOL0     H33243  10.966  -0.215   0.542 -0.6490 -1.5166 -2.2216
  987MOL0     H33244  10.988  -0.250   0.373  0.4321  0.8783 -1.4381
  987MOL0     H33245  11.126  -0.227   0.481  0.0626 -1.1070  0.6063
  988MOL0     O33246   9.849  10.075   3.439 -0.0253  0.7114 -0.5996
  988MOL0     C33247   9.742  10.012   3.443 -0.5966 -0.1703  0.2281
  988MOL0     O33248   9.733   9.871   3.447  0.1169  0.0618 -0.2411
  988MOL0     C33249   9.835   9.805   3.497 -0.3670 -0.5349  0.3881
  988MOL0     C33250   9.902   9.845   3.617  0.4794  0.6334 -0.5130
  988MOL0     C33251  10.017   9.775   3.662  0.1860 -0.0624 -0.3582
  988MOL0     C33252  10.061   9.659   3.589 -0.2236  0.0379  0.1620
  988MOL0     O33253  10.186   9.605   3.600  0.2459 -0.6040  0.3665
  988MOL0     C33254  10.257   9.612   3.723  0.4977 -0.0830  0.1536
  988MOL0     C33255  10.372   9.507   3.711  0.1310 -0.3549  0.3767
  988MOL0     C33256  10.439   9.507   3.846  0.1307 -0.1528 -0.2884
  988MOL0     C33257  10.552   9.403   3.859 -0.1394 -0.3959  0.1477
  988MOL0     C33258  10.617   9.397   4.000 -0.0953 -0.0492  0.6057
  988MOL0     C33259  10.743   9.307   4.013 -0.7886  0.2232  0.7841
  988MOL0     C33260  10.880   9.343   3.955  0.6303 -0.5352 -0.3849
  988MOL0     C33261  10.980   9.221   3.970  0.0876 -0.5642  0.4313
  988MOL0     N33262  11.115   9.271   3.931  0.1308 -0.0160  0.5340
  988MOL0     C33263  11.204   9.347   4.006  0.1796 -0.3433  0.2489
  988MOL0     C33264  11.287   9.399   3.913  0.0148  0.2596 -0.5955
  988MOL0     C33265  11.378   9.516   3.942  0.7884 -0.3833  0.9685
  988MOL0     C33266  11.462   9.534   3.824  0.4909  0.5427  0.1766
  988MOL0     C33267  11.570   9.634   3.846  0.2965  0.0911 -1.1440
  988MOL0     C33268  11.678   9.638   3.728 -1.3221 -0.9394 -0.2008
  988MOL0     O33269  11.784   9.729   3.763 -0.1246 -0.3298  0.6307
  988MOL0     C33270  11.863   9.706   3.866 -0.9784  0.1361  0.0066
  988MOL0     C33271  11.936   9.814   3.916 -0.3394 -0.0830  0.8461
  988MOL0     C33272  12.011   9.796   4.032 -0.7365  1.0714 -0.2276
  988MOL0     C33273  12.030   9.674   4.095  0.9875 -0.1781 -0.0806
  988MOL0     C33274  12.104   9.664   4.221  0.3980 -0.1414 -0.2731
  988MOL0     O33275  12.142   9.779   4.275  0.4677 -0.6322 -0.1271
  988MOL0     C33276  12.245   9.795   4.358  0.1218 -1.1047  0.4450
  988MOL0     C33277  12.260   9.914   4.440 -0.7612 -0.3404  0.9266
  988MOL0     C33278  12.382   9.948   4.500 -0.2113 -0.1012  0.3246
  988MOL0     C33279  12.488   9.859   4.500 -0.8495 -0.7483  1.1731
  988MOL0     O33280  12.604   9.903   4.554  0.3040 -0.1622 -0.7260
  988MOL0     C33281  12.672  10.001   4.471  0.8142  0.2662 -0.0380
  988MOL0     C33282  12.805  10.031   4.539 -0.9785 -0.0916  0.2566
  988MOL0     C33283  12.916  10.090   4.445 -0.4662  0.0889  0.7570
  988MOL0     C33284  13.050  10.119   4.526  0.4989 -0.0908  0.7991
  988MOL0     C33285  13.126  10.231   4.464 -0.5751 -0.2859  0.1152
  988MOL0     C33286  13.247  10.277   4.550 -0.5549  0.0068  0.6352
  988MOL0     C33287  13.314  10.415   4.520 -0.4577  1.2666 -0.5221
  988MOL0     C33288  13.315  10.462   4.377  0.0628  0.0022  0.2354
  988MOL0    Cl33289  13.463  10.548   4.335 -0.2094 -0.0373 -0.3261
  988MOL0     C33290  12.476   9.740   4.420 -0.4521 -0.4328 -0.0653
  988MOL0     C33291  12.360   9.711   4.353  0.7591 -0.1507  0.4385
  988MOL0     O33292  12.122   9.553   4.272 -0.4203 -0.0391 -0.0773
  988MOL0     C33293  11.964   9.563   4.035 -0.2022 -0.4173  0.3512
  988MOL0     C33294  11.880   9.581   3.928 -0.3007 -0.0001  0.2927
  988MOL0     N33295  11.256   9.338   3.785 -0.2439 -0.0673  0.0999
  988MOL0     N33296  11.158   9.263   3.801 -0.3549 -0.4561  1.2129
  988MOL0     C33297   9.985   9.615   3.481 -0.0528 -0.9951  0.2588
  988MOL0     C33298   9.874   9.687   3.436  0.0505 -0.7333  0.4377
  988MOL0     C33299   9.626  10.098   3.424  0.6666  0.1198 -1.1396
  988MOL0     C33300   9.631  10.236   3.459 -0.6319  0.3689 -0.7461
  988MOL0     C33301   9.517  10.318   3.452  0.1920 -0.7829  0.0804
  988MOL0     C33302   9.396  10.265   3.407  0.2599  0.4489  0.1075
  988MOL0     O33303   9.290  10.347   3.397  1.0984  0.1950  0.1923
  988MOL0     C33304   9.165  10.333   3.459 -0.3161  0.4054 -0.2746
  988MOL0     C33305   9.126  10.469   3.527  0.0174  0.8860  0.0656
  988MOL0     C33306   9.243  10.517   3.628 -0.3367  0.0483 -0.1786
  988MOL0     C33307   9.215  10.636   3.724  0.0351  1.4342  1.0618
  988MOL0     C33308   9.313  10.646   3.822  0.0244  0.3591  0.2250
  988MOL0     C33309   9.404  10.646   3.904  0.7770 -0.6670  0.0333
  988MOL0     C33310   9.385  10.130   3.361 -0.2930 -0.6195  0.4101
  988MOL0     C33311   9.506  10.050   3.362  0.5565 -0.6157 -0.2902
  988MOL0     C33312   9.499   9.912   3.308  0.6010  0.2426  0.3751
  988MOL0     H33313   9.873   9.931   3.675 -0.7081 -1.6519  2.5157
  988MOL0     H33314  10.075   9.823   3.741  1.3493 -0.5247 -0.9044
  988MOL0     H33315  10.303   9.708   3.749  1.7786 -0.7083  0.2727
  988MOL0     H33316  10.191   9.581   3.805  0.9326  1.2178  1.0290
  988MOL0     H33317  10.446   9.532   3.634  0.5541 -1.4844  0.4037
  988MOL0     H33318  10.328   9.411   3.684  1.5479 -1.3570  1.4441
  988MOL0     H33319  10.361   9.477   3.916  0.6414  0.9033  0.7705
  988MOL0     H33320  10.490   9.602   3.863  1.6496 -0.9891  0.0494
  988MOL0     H33321  10.511   9.303   3.842  2.9573 -1.7949  0.1535
  988MOL0     H33322  10.627   9.427   3.783 -0.2881 -1.1982 -0.2720
  988MOL0     H33323  10.653   9.498   4.022 -2.5946  1.3631 -1.2399
  988MOL0     H33324  10.538   9.361   4.067  1.0201 -3.3074  0.3745
  988MOL0     H33325  10.761   9.283   4.118 -0.4609  4.2749  1.8253
  988MOL0     H33326  10.709   9.211   3.974 -2.0589  0.8994  0.1377
  988MOL0     H33327  10.912   9.434   4.007 -0.7125 -0.0155 -0.4466
  988MOL0     H33328  10.863   9.379   3.853 -5.2631  2.7814  1.3078
  988MOL0     H33329  10.984   9.186   4.074  1.3043 -0.8128  0.3161
  988MOL0     H33330  10.950   9.142   3.901 -3.4380 -2.6424  3.9572
  988MOL0     H33331  11.199   9.392   4.104  0.5481 -0.0477  0.1315
  988MOL0     H33332  11.309   9.600   3.951 -1.1557 -1.8372  0.2604
  988MOL0     H33333  11.422   9.501   4.041  1.5438 -3.1545  0.3168
  988MOL0     H33334  11.519   9.443   3.805  2.2442  2.1245 -2.7883
  988MOL0     H33335  11.410   9.572   3.736  1.2123 -0.8281 -0.8706
  988MOL0     H33336  11.621   9.607   3.939  0.7650 -1.7408 -1.8781
  988MOL0     H33337  11.526   9.734   3.844  3.4724  1.6252 -0.3835
  988MOL0     H33338  11.621   9.678   3.643  0.9643  3.6553  0.0684
  988MOL0     H33339  11.708   9.536   3.705 -0.6800 -0.3072 -2.4777
  988MOL0     H33340  11.933   9.913   3.872  1.9053  0.1348  1.0753
  988MOL0     H33341  12.048   9.894   4.059 -1.9013  1.5678 -0.3955
  988MOL0     H33342  12.177   9.984   4.444 -1.1855 -0.8671  1.6801
  988MOL0     H33343  12.394  10.042   4.553 -3.3762 -1.9254  4.9292
  988MOL0     H33344  12.685   9.963   4.369 -0.0117 -0.2664  0.0429
  988MOL0     H33345  12.614  10.094   4.471  0.3675 -0.0104 -0.0176
  988MOL0     H33346  12.791  10.106   4.618 -0.2320  0.2003  0.1259
  988MOL0     H33347  12.833   9.934   4.580 -1.8325 -0.8198 -0.8492
  988MOL0     H33348  12.935  10.020   4.363  0.3461 -2.6362  3.0586
  988MOL0     H33349  12.880  10.189   4.419 -3.1551 -1.2311 -0.8823
  988MOL0     H33350  13.110  10.028   4.516 -0.0136 -0.1937 -2.5918
  988MOL0     H33351  13.027  10.140   4.631 -0.0504  0.4664  0.5766
  988MOL0     H33352  13.063  10.321   4.459  0.4598  0.4150 -0.9073
  988MOL0     H33353  13.164  10.205   4.364 -0.9209  1.2554 -0.4449
  988MOL0     H33354  13.211  10.285   4.653 -1.0806 -0.7331  0.5171
  988MOL0     H33355  13.319  10.196   4.537 -0.5613 -0.2373  1.9564
  988MOL0     H33356  13.416  10.401   4.556 -0.1578 -0.3013 -1.9019
  988MOL0     H33357  13.263  10.490   4.582 -2.8167 -0.2337 -0.4952
  988MOL0     H33358  13.319  10.382   4.302 -0.0668  0.0698  0.1568
  988MOL0     H33359  13.227  10.525   4.363  0.1447  0.9535  3.2811
  988MOL0     H33360  12.560   9.671   4.420  1.6074  1.9142  1.2701
  988MOL0     H33361  12.370   9.626   4.286  2.2347 -0.7257  1.3317
  988MOL0     H33362  11.969   9.471   4.093  2.0006  0.1794  1.2225
  988MOL0     H33363  11.823   9.496   3.890 -2.7133  0.9219  1.6107
  988MOL0     H33364  10.008   9.522   3.430  2.2129 -1.1820  1.4725
  988MOL0     H33365   9.826   9.668   3.341 -0.4894 -0.2150  0.5994
  988MOL0     H33366   9.717  10.278   3.510 -1.3735  0.9294  0.0769
  988MOL0     H33367   9.518  10.417   3.495  2.7618 -1.3100  1.4312
  988MOL0     H33368   9.171  10.249   3.529  0.8850 -0.1175 -0.9665
  988MOL0     H33369   9.090  10.300   3.386  0.8775  3.2412 -3.0113
  988MOL0     H33370   9.037  10.448   3.586  0.9603 -2.7593  0.4329
  988MOL0     H33371   9.095  10.546   3.456  0.2171  0.3324 -0.6447
  988MOL0     H33372   9.332  10.542   3.568  0.4524 -3.7759 -0.8793
  988MOL0     H33373   9.272  10.439   3.698 -2.4752  0.7218  1.5590
  988MOL0     H33374   9.202  10.719   3.654 -0.0592  0.0168 -0.6531
  988MOL0     H33375   9.117  10.616   3.769  0.5019 -0.9282  1.1706
  988MOL0     H33376   9.484  10.655   3.975  2.3090  0.0906 -1.6903
  988MOL0     H33377   9.300  10.091   3.307 -0.3835 -1.9431  1.4654
  988MOL0     H33378   9.585   9.882   3.247 -0.0087  1.5038 -1.1518
  988MOL0     H33379   9.482   9.851   3.398 -1.8065 -1.6128 -1.2094
  988MOL0     H33380   9.416   9.905   3.238  2.6652  0.1828 -2.1933
  989MOL0     O33381   1.028   1.133   1.043  0.2529 -0.5034  0.0299
  989MOL0     C33382   0.954   1.030   1.060 -0.1399  0.1239 -0.8000
  989MOL0     O33383   0.991   0.902   1.127  0.1440 -0.4174 -0.0650
  989MOL0     C33384   1.115   0.877   1.161 -0.0956 -0.3062 -0.0394
  989MOL0     C33385   1.162   0.894   1.295 -0.9245  0.6510  0.1643
  989MOL0     C33386   1.294   0.874   1.338  0.5058 -0.3808 -0.0601
  989MOL0     C33387   1.382   0.817   1.251 -0.1799  1.0375  0.0796
  989MOL0     O33388   1.505   0.791   1.306  0.2215 -0.1485  0.0810
  989MOL0     C33389   1.616   0.756   1.227 -0.5101  0.9907 -1.4576
  989MOL0     C33390   1.734   0.759   1.330  0.5268 -1.0999  0.1479
  989MOL0     C33391   1.780   0.905   1.373 -0.6208  0.0071  0.6888
  989MOL0     C33392   1.816   1.001   1.269  0.0934  0.1758 -0.7639
  989MOL0     C33393   1.880   1.129   1.321 -1.0327  0.2190  0.5806
  989MOL0     C33394   1.939   1.207   1.223 -0.7088 -0.7412  0.3833
  989MOL0     C33395   1.980   1.347   1.268  0.4192 -0.2023 -0.1760
  989MOL0     C33396   2.058   1.355   1.400  0.3360  0.1571  0.0139
  989MOL0     N33397   2.078   1.493   1.437  0.2898 -0.3875  0.6400
  989MOL0     C33398   2.171   1.570   1.371  0.0803  0.3636  0.5160
  989MOL0     C33399   2.185   1.680   1.441 -1.1306  0.3102  0.1255
  989MOL0     C33400   2.263   1.806   1.406 -0.0403 -0.4068  0.1582
  989MOL0     C33401   2.345   1.793   1.279 -0.0700  0.1148 -0.3358
  989MOL0     C33402   2.423   1.920   1.235  0.7503  0.0682 -0.2472
  989MOL0     C33403   2.355   2.047   1.249  0.9128 -0.0070  0.4680
  989MOL0     O33404   2.387   2.107   1.373 -0.1793  0.1405  0.1716
  989MOL0     C33405   2.326   2.227   1.413 -0.0017 -0.5061  0.3571
  989MOL0     C33406   2.358   2.270   1.543  0.4777 -0.8016 -0.8191
  989MOL0     C33407   2.313   2.388   1.590  0.2847  0.3289  0.2908
  989MOL0     C33408   2.214   2.461   1.512  0.8280  0.2853  0.0259
  989MOL0     C33409   2.165   2.598   1.568 -1.0739 -0.7447  0.4489
  989MOL0     O33410   2.122   2.682   1.465 -0.3867  0.4496  0.3610
  989MOL0     C33411   2.101   2.811   1.494 -0.6705  0.2936 -0.5581
  989MOL0     C33412   1.997   2.838   1.574  0.6434 -0.4000 -0.3100
  989MOL0     C33413   1.967   2.977   1.596 -0.0191  0.4435 -0.5009
  989MOL0     C33414   2.050   3.077   1.546  0.3601 -0.1501  0.4247
  989MOL0     O33415   2.006   3.205   1.565 -0.3940 -0.1195 -0.2428
  989MOL0     C33416   2.110   3.301   1.620 -0.0237 -0.8351 -0.9485
  989MOL0     C33417   2.032   3.410   1.692  0.2248 -0.0341 -1.2334
  989MOL0     C33418   1.925   3.366   1.793  0.1894 -0.7363  0.5774
  989MOL0     C33419   1.819   3.478   1.809  1.0996 -0.5925 -0.1656
  989MOL0     C33420   1.718   3.508   1.698 -0.2084 -0.4945 -0.0268
  989MOL0     C33421   1.621   3.394   1.660 -0.1785 -0.3993  0.3809
  989MOL0     C33422   1.487   3.428   1.710  0.7355 -0.0950 -0.4173
  989MOL0     C33423   1.383   3.313   1.710  0.2903 -0.3430  0.2921
  989MOL0    Cl33424   1.237   3.342   1.796  0.1914  0.2531  0.2883
  989MOL0     C33425   2.167   3.044   1.476  0.8060  0.1271 -0.5665
  989MOL0     C33426   2.185   2.909   1.435 -0.4361  0.2232 -0.2875
  989MOL0     O33427   2.197   2.640   1.681  0.0952  0.2447  0.7598
  989MOL0     C33428   2.182   2.416   1.380  0.8604 -0.3785  0.9603
  989MOL0     C33429   2.235   2.303   1.329  0.1416 -0.5505  0.5925
  989MOL0     N33430   2.091   1.681   1.541 -0.0084 -0.2807  0.0980
  989MOL0     N33431   2.024   1.571   1.538  0.9554  0.0571 -0.8272
  989MOL0     C33432   1.338   0.785   1.118 -0.4785 -0.8597 -0.1327
  989MOL0     C33433   1.211   0.827   1.075  0.0872 -0.7962 -0.0475
  989MOL0     C33434   0.805   1.047   1.031 -0.6067 -0.3821  0.1231
  989MOL0     C33435   0.725   0.941   1.069 -0.7207 -0.3792  0.0287
  989MOL0     C33436   0.591   0.940   1.033  0.8598 -0.1560  0.4495
  989MOL0     C33437   0.529   1.049   0.968 -0.9744  0.6640 -0.1453
  989MOL0     O33438   0.395   1.054   0.929 -0.4564  0.0206  0.4530
  989MOL0     C33439   0.314   0.933   0.926 -0.9145  0.3666  0.0578
  989MOL0     C33440   0.187   0.956   0.848 -0.4179 -0.1960 -0.8518
  989MOL0     C33441   0.193   0.925   0.694  0.1372 -0.9544  0.9533
  989MOL0     C33442   0.062   0.882   0.627 -0.9267  0.2185 -0.0890
  989MOL0     C33443  -0.049   0.979   0.604  0.2036  0.2657 -0.4514
  989MOL0     C33444  -0.152   1.042   0.588 -0.2613 -0.2504 -0.8493
  989MOL0     C33445   0.605   1.163   0.950  0.6633  0.6429  0.2628
  989MOL0     C33446   0.744   1.164   0.975  0.6246 -0.5990  0.0325
  989MOL0     C33447   0.817   1.296   0.946  0.2702  0.7569 -0.1223
  989MOL0     H33448   1.084   0.937   1.356 -0.3110  1.0248  0.6889
  989MOL0     H33449   1.325   0.906   1.437  0.1536 -1.9666  0.5990
  989MOL0     H33450   1.589   0.656   1.194 -1.8065  0.2713  1.5455
  989MOL0     H33451   1.632   0.816   1.137 -0.2854  0.1284 -2.0065
  989MOL0     H33452   1.819   0.712   1.280 -0.1672 -0.7013 -1.4706
  989MOL0     H33453   1.709   0.710   1.425  0.9307 -1.2162  0.1966
  989MOL0     H33454   1.864   0.891   1.442  0.4595  1.6081 -0.2521
  989MOL0     H33455   1.697   0.951   1.426 -0.3432 -0.5675  1.6647
  989MOL0     H33456   1.867   0.951   1.186  0.7512  0.5912 -0.6233
  989MOL0     H33457   1.727   1.033   1.213 -0.1421 -0.1742 -0.5875
  989MOL0     H33458   1.802   1.188   1.370 -1.4368 -0.0880  0.3107
  989MOL0     H33459   1.961   1.098   1.387 -0.9386  0.7845  0.7427
  989MOL0     H33460   2.028   1.156   1.185 -1.0165 -0.2717 -1.0309
  989MOL0     H33461   1.879   1.215   1.132 -0.6766 -1.0737  0.3345
  989MOL0     H33462   1.884   1.399   1.269  1.0360  1.1136  3.6762
  989MOL0     H33463   2.031   1.405   1.191 -1.4187  1.6654 -0.0712
  989MOL0     H33464   2.005   1.300   1.478  2.0726  0.0629  1.1937
  989MOL0     H33465   2.156   1.306   1.401  0.8269  1.0938  0.7053
  989MOL0     H33466   2.225   1.539   1.281  0.7915  3.2421 -0.1682
  989MOL0     H33467   2.182   1.879   1.398 -0.6831 -1.2476 -1.6410
  989MOL0     H33468   2.317   1.847   1.493 -0.6058  3.2393 -1.0286
  989MOL0     H33469   2.416   1.712   1.299  1.3818  1.6522  0.9930
  989MOL0     H33470   2.277   1.761   1.200 -2.6007 -1.4307  2.2787
  989MOL0     H33471   2.457   1.902   1.132  0.6862 -0.2634 -0.2102
  989MOL0     H33472   2.519   1.932   1.287  0.3750 -0.7572  0.6646
  989MOL0     H33473   2.247   2.038   1.233  0.3847  1.7032  2.5865
  989MOL0     H33474   2.402   2.105   1.170  0.0771  0.1829  0.1016
  989MOL0     H33475   2.434   2.211   1.595 -0.4341 -0.9040  0.4393
  989MOL0     H33476   2.348   2.424   1.686 -3.0422 -1.3141  2.2900
  989MOL0     H33477   1.938   2.759   1.621 -0.6326  2.3296  3.0624
  989MOL0     H33478   1.878   2.997   1.655 -1.1075 -0.6415 -1.6989
  989MOL0     H33479   2.182   3.254   1.687  0.6176 -1.8181 -2.2927
  989MOL0     H33480   2.171   3.354   1.546  1.6154  1.1817  1.6764
  989MOL0     H33481   2.104   3.468   1.750  0.8262 -1.2974 -0.6788
  989MOL0     H33482   1.992   3.469   1.609 -1.5180 -1.2823 -1.3361
  989MOL0     H33483   1.884   3.264   1.781  2.4039 -1.9648  2.6997
  989MOL0     H33484   1.980   3.357   1.887  0.1765  0.2104  0.6786
  989MOL0     H33485   1.874   3.571   1.825  0.2448  0.4126 -2.6375
  989MOL0     H33486   1.765   3.464   1.904  0.3290 -1.6351 -0.7316
  989MOL0     H33487   1.765   3.533   1.603 -1.7332  0.0285 -0.6677
  989MOL0     H33488   1.654   3.591   1.727 -0.5633 -0.1392 -1.7236
  989MOL0     H33489   1.619   3.398   1.551 -1.0396  3.4907  0.3923
  989MOL0     H33490   1.650   3.291   1.682 -2.7687 -1.1483  0.6907
  989MOL0     H33491   1.434   3.505   1.652 -1.2785 -2.0463 -1.3100
  989MOL0     H33492   1.503   3.457   1.815 -0.9596  0.6392 -0.3229
  989MOL0     H33493   1.358   3.281   1.608  0.6664  1.2151 -0.3122
  989MOL0     H33494   1.433   3.232   1.765 -1.4873 -2.1388 -0.5971
  989MOL0     H33495   2.224   3.122   1.426  0.8122 -1.0696 -2.5296
  989MOL0     H33496   2.262   2.885   1.363  0.3552 -0.1980  0.6774
  989MOL0     H33497   2.120   2.478   1.316 -1.0715 -2.5840  0.5487
  989MOL0     H33498   2.235   2.267   1.227  1.6636 -0.4445  0.5376
  989MOL0     H33499   1.400   0.746   1.038  0.5653  0.9926 -0.2859
  989MOL0     H33500   1.179   0.814   0.972 -1.6754  0.8931  0.2003
  989MOL0     H33501   0.761   0.856   1.126  0.9412  0.6523  0.5990
  989MOL0     H33502   0.539   0.848   1.056  0.0560 -0.0346 -0.7863
  989MOL0     H33503   0.292   0.909   1.030 -2.6808  2.7596  0.3232
  989MOL0     H33504   0.368   0.850   0.880 -2.0854 -0.0205 -0.6544
  989MOL0     H33505   0.152   1.059   0.857 -0.6946 -0.3641  0.2132
  989MOL0     H33506   0.114   0.892   0.898  0.3847 -2.6541 -2.6411
  989MOL0     H33507   0.273   0.852   0.677  1.6773  0.4528  1.8609
  989MOL0     H33508   0.219   1.017   0.641 -3.0000  0.6073  1.8634
  989MOL0     H33509   0.083   0.843   0.526  3.9257  1.7095  0.0836
  989MOL0     H33510   0.023   0.800   0.688  1.0643 -0.6607  0.0660
  989MOL0     H33511  -0.245   1.095   0.580  0.0397  0.4200 -0.0271
  989MOL0     H33512   0.555   1.245   0.900 -0.1007  0.4972  0.7772
  989MOL0     H33513   0.874   1.303   1.040 -0.2295  2.2619  0.0913
  989MOL0     H33514   0.870   1.297   0.851  0.6290  0.8979  0.0753
  989MOL0     H33515   0.740   1.372   0.932  2.3258  3.1738  0.8627
  990MOL0     O33516   9.924   7.913   2.093 -0.3974  0.2255  0.2199
  990MOL0     C33517  10.024   7.876   2.159  0.6551 -0.8452 -0.0851
  990MOL0     O33518  10.068   7.742   2.180  0.3597 -0.6264  0.0190
  990MOL0     C33519   9.998   7.638   2.142 -0.3121  0.0874 -0.3881
  990MOL0     C33520  10.066   7.517   2.117 -0.3043 -0.3620  0.7358
  990MOL0     C33521  10.002   7.396   2.087 -0.0327 -0.1525 -0.4537
  990MOL0     C33522   9.861   7.393   2.091 -1.2948 -0.4919  0.7757
  990MOL0     O33523   9.810   7.292   2.023 -0.0712 -0.1761  0.3651
  990MOL0     C33524   9.670   7.299   2.000  0.3227 -0.5849  0.5108
  990MOL0     C33525   9.631   7.165   1.923 -0.3723 -0.2300  0.1791
  990MOL0     C33526   9.704   7.175   1.787 -0.6440 -0.7682  0.3596
  990MOL0     C33527   9.684   7.055   1.698 -1.3619 -0.2195 -0.1095
  990MOL0     C33528   9.797   6.949   1.722 -0.1215  0.7170  0.4364
  990MOL0     C33529   9.807   6.892   1.859  0.6775  0.6854 -0.4540
  990MOL0     C33530   9.683   6.793   1.886  0.1191  0.1830 -0.4144
  990MOL0     C33531   9.716   6.646   1.895  0.6005  0.2020 -0.0543
  990MOL0     N33532   9.784   6.606   2.024  0.5024  0.0006  0.0418
  990MOL0     C33533   9.903   6.558   2.039 -0.8570  0.8805  0.1970
  990MOL0     C33534   9.901   6.485   2.155  0.1467  0.5591 -0.9471
  990MOL0     C33535  10.012   6.388   2.184 -0.5168 -0.6913  0.5330
  990MOL0     C33536  10.082   6.459   2.304  0.4664 -0.2414 -0.3885
  990MOL0     C33537  10.163   6.581   2.256  0.8638  0.3492  0.4047
  990MOL0     C33538  10.264   6.634   2.363 -0.5488 -0.4892 -0.7408
  990MOL0     O33539  10.282   6.769   2.336 -0.0370  0.3376 -0.2569
  990MOL0     C33540  10.367   6.843   2.410  1.1535  0.2577 -0.1883
  990MOL0     C33541  10.357   6.984   2.399 -0.5072 -0.5607  0.3336
  990MOL0     C33542  10.439   7.067   2.477 -0.4604 -0.5850  0.0531
  990MOL0     C33543  10.532   7.019   2.569  0.3962 -0.4688  0.3252
  990MOL0     C33544  10.615   7.106   2.655 -0.4937  0.8502  0.2489
  990MOL0     O33545  10.670   7.043   2.765 -0.6630 -0.7414  0.1645
  990MOL0     C33546  10.808   7.013   2.774  0.0248 -0.5795  0.0091
  990MOL0     C33547  10.906   7.028   2.669 -0.3012 -0.5854 -0.1039
  990MOL0     C33548  11.037   6.981   2.677  1.5702  0.2375 -0.0745
  990MOL0     C33549  11.073   6.921   2.797 -0.0807 -0.0530  0.0951
  990MOL0     O33550  11.203   6.888   2.817 -0.8345  0.3090 -0.2472
  990MOL0     C33551  11.255   6.867   2.951 -0.0997 -0.2296  0.3644
  990MOL0     C33552  11.395   6.827   2.933 -0.0808 -0.4251  0.6159
  990MOL0     C33553  11.491   6.950   2.909 -0.3309 -0.4134 -0.3013
  990MOL0     C33554  11.558   6.954   2.770 -0.7076  0.1626 -0.6368
  990MOL0     C33555  11.665   6.842   2.770 -0.2435 -0.0065 -0.5314
  990MOL0     C33556  11.709   6.816   2.625 -0.1446  0.5945 -0.1419
  990MOL0     C33557  11.826   6.711   2.611  0.2449 -1.0179  0.5540
  990MOL0     C33558  11.777   6.565   2.640 -0.7512 -0.6240  0.5094
  990MOL0    Cl33559  11.764   6.537   2.815  0.7935 -0.2287 -0.2944
  990MOL0     C33560  10.986   6.911   2.899 -0.0842 -0.3720 -0.2034
  990MOL0     C33561  10.852   6.949   2.892  0.3838 -0.2665 -0.6893
  990MOL0     O33562  10.602   7.229   2.643  0.7527 -0.0439 -0.0915
  990MOL0     C33563  10.544   6.879   2.577  0.5782 -0.8594  0.0509
  990MOL0     C33564  10.473   6.795   2.497 -0.0017  1.1535 -0.3769
  990MOL0     N33565   9.766   6.495   2.208 -0.3398 -0.8163 -0.2453
  990MOL0     N33566   9.705   6.582   2.133 -0.5206 -0.4755  0.4874
  990MOL0     C33567   9.794   7.506   2.143 -0.5189 -0.8193  1.3550
  990MOL0     C33568   9.861   7.623   2.168  0.2403  0.5585 -1.2560
  990MOL0     C33569  10.108   7.969   2.228 -0.0511 -0.3439 -1.3775
  990MOL0     C33570  10.155   7.941   2.361 -0.5696  0.2926 -0.2836
  990MOL0     C33571  10.255   8.024   2.426  0.3717  0.2356  0.0460
  990MOL0     C33572  10.300   8.135   2.362  0.1213  0.1731  0.2308
  990MOL0     O33573  10.395   8.218   2.424 -0.3369  0.6705  0.6493
  990MOL0     C33574  10.471   8.315   2.347  0.9863  0.0015 -0.5075
  990MOL0     C33575  10.563   8.394   2.442 -0.6767  0.1408  0.3591
  990MOL0     C33576  10.657   8.291   2.500 -0.2203  1.7230 -1.2148
  990MOL0     C33577  10.750   8.347   2.602 -0.4272 -0.8505  0.1752
  990MOL0     C33578  10.682   8.415   2.711 -1.6812 -0.0404 -0.0647
  990MOL0     C33579  10.639   8.470   2.799  0.2242  0.2205 -0.2431
  990MOL0     C33580  10.247   8.168   2.232 -0.3882  0.1321 -0.9295
  990MOL0     C33581  10.157   8.088   2.164  0.3652 -0.2135 -0.3273
  990MOL0     C33582  10.122   8.117   2.019  0.2464 -0.1203 -0.4588
  990MOL0     H33583  10.175   7.519   2.117 -0.0545 -4.4479  1.4931
  990MOL0     H33584  10.059   7.305   2.069 -1.4971 -0.5782 -3.7099
  990MOL0     H33585   9.616   7.315   2.094  1.6073 -0.0616  1.1864
  990MOL0     H33586   9.647   7.379   1.929 -0.8099 -1.3304 -0.0085
  990MOL0     H33587   9.523   7.163   1.907 -0.0355  0.7218 -2.7008
  990MOL0     H33588   9.665   7.082   1.986  4.1313  1.3014  0.2011
  990MOL0     H33589   9.810   7.195   1.807 -0.2901 -3.3517  1.6103
  990MOL0     H33590   9.661   7.256   1.729  0.0351 -0.5477  0.1554
  990MOL0     H33591   9.588   7.009   1.723 -1.3239 -0.5407 -0.5512
  990MOL0     H33592   9.699   7.084   1.593 -1.3322  1.7127  0.3812
  990MOL0     H33593   9.778   6.863   1.657 -2.2802  0.1418  1.7235
  990MOL0     H33594   9.889   6.998   1.687 -0.6662  0.6128 -1.2282
  990MOL0     H33595   9.895   6.829   1.871 -0.4541 -0.7493  0.6761
  990MOL0     H33596   9.830   6.974   1.929  0.5937  0.7247 -0.4727
  990MOL0     H33597   9.601   6.809   1.815  2.1244  4.0148 -2.1621
  990MOL0     H33598   9.638   6.821   1.982 -0.6230  0.3680 -0.8051
  990MOL0     H33599   9.622   6.590   1.895  1.0374 -0.5526  0.8030
  990MOL0     H33600   9.778   6.619   1.809  1.6329  0.6314  0.5307
  990MOL0     H33601   9.985   6.554   1.968  0.0006 -3.9694  1.1321
  990MOL0     H33602   9.969   6.291   2.212 -1.1583  0.4049  3.7946
  990MOL0     H33603  10.085   6.376   2.103 -0.0908 -1.9307  1.0672
  990MOL0     H33604  10.012   6.490   2.382 -0.5752  0.4704 -1.5645
  990MOL0     H33605  10.146   6.392   2.362 -0.4314 -0.8300 -0.0565
  990MOL0     H33606  10.087   6.658   2.243  0.7358  0.1227 -0.2165
  990MOL0     H33607  10.205   6.558   2.157 -3.2626 -1.7293 -1.0641
  990MOL0     H33608  10.364   6.595   2.339  0.2291  2.3726 -2.5547
  990MOL0     H33609  10.248   6.629   2.472  0.5892  3.5436 -0.2169
  990MOL0     H33610  10.290   7.029   2.326  1.3290 -0.7736 -1.5943
  990MOL0     H33611  10.433   7.173   2.456  0.8426 -0.1418  1.7709
  990MOL0     H33612  10.880   7.087   2.581  1.4866 -0.0584 -0.3392
  990MOL0     H33613  11.100   7.004   2.592  1.3180  0.4470 -0.2085
  990MOL0     H33614  11.249   6.963   3.003 -1.5039 -0.7107  1.1473
  990MOL0     H33615  11.210   6.783   3.004  0.5515 -0.6011  0.3251
  990MOL0     H33616  11.430   6.769   3.019  0.4092  0.4202  0.9947
  990MOL0     H33617  11.391   6.756   2.850 -0.8803  0.8170 -0.4547
  990MOL0     H33618  11.438   7.045   2.903  2.7101  1.3098 -3.0881
  990MOL0     H33619  11.557   6.959   2.996 -1.9057 -3.0650  1.3181
  990MOL0     H33620  11.603   7.053   2.757 -4.0108  1.4987 -3.8357
  990MOL0     H33621  11.485   6.950   2.689 -1.3171 -5.1712 -0.1795
  990MOL0     H33622  11.629   6.746   2.808  0.9171  0.2249  1.2554
  990MOL0     H33623  11.749   6.876   2.831 -0.9045  2.1455 -0.7364
  990MOL0     H33624  11.620   6.783   2.572 -0.2228 -1.1768  1.0229
  990MOL0     H33625  11.738   6.910   2.576  2.1975 -1.4416 -2.9992
  990MOL0     H33626  11.912   6.737   2.674  1.0737  0.0182 -0.9357
  990MOL0     H33627  11.872   6.719   2.512 -1.6578 -1.0426 -0.3730
  990MOL0     H33628  11.676   6.544   2.606 -1.6569  2.4652  0.9585
  990MOL0     H33629  11.860   6.507   2.598  3.6039  2.9112  3.3320
  990MOL0     H33630  11.023   6.878   2.996  2.1506  0.2008 -0.8049
  990MOL0     H33631  10.784   6.948   2.976  0.4714  2.7640 -0.4720
  990MOL0     H33632  10.621   6.827   2.633  0.1447 -1.2606  0.2837
  990MOL0     H33633  10.485   6.687   2.504 -0.7627  1.1520  1.4234
  990MOL0     H33634   9.687   7.521   2.150 -0.3557  0.5083  1.3029
  990MOL0     H33635   9.810   7.706   2.217  0.6082  1.7051 -2.7384
  990MOL0     H33636  10.121   7.851   2.411  2.6210 -1.4791 -1.0765
  990MOL0     H33637  10.273   8.001   2.531  0.4684 -3.4547 -0.6576
  990MOL0     H33638  10.405   8.389   2.302  2.6604  1.0958 -1.2479
  990MOL0     H33639  10.521   8.268   2.262 -3.1564 -0.3564 -2.9999
  990MOL0     H33640  10.506   8.448   2.519  1.1747  1.7413  0.6846
  990MOL0     H33641  10.613   8.467   2.379 -2.1844  1.7844  0.9939
  990MOL0     H33642  10.721   8.250   2.422  1.7837  1.8177  0.3170
  990MOL0     H33643  10.607   8.205   2.545  1.7172  0.0258 -2.1470
  990MOL0     H33644  10.811   8.264   2.638  1.8659  0.6923  0.0841
  990MOL0     H33645  10.820   8.420   2.560  0.0935 -1.4923 -0.0820
  990MOL0     H33646  10.621   8.536   2.882 -1.2289  0.8061 -0.9735
  990MOL0     H33647  10.278   8.263   2.190  2.7558  0.5295  1.8359
  990MOL0     H33648  10.017   8.109   1.990 -0.3890  0.1007  1.6227
  990MOL0     H33649  10.152   8.220   1.998 -2.4963  1.3257  1.9807
  990MOL0     H33650  10.177   8.042   1.961  0.7454  1.2970 -1.8998
  991MOL0     O33651   6.309   8.672   7.811  0.4114 -0.0031  0.2694
  991MOL0     C33652   6.227   8.579   7.805  0.7039  0.7900 -0.6452
  991MOL0     O33653   6.245   8.454   7.867 -0.2833 -0.0040  0.4551
  991MOL0     C33654   6.348   8.439   7.956 -0.5385  0.4492 -0.5585
  991MOL0     C33655   6.341   8.476   8.089 -0.2410 -0.1962 -0.0498
  991MOL0     C33656   6.455   8.467   8.175  0.5011 -0.5555  0.6657
  991MOL0     C33657   6.580   8.429   8.116  0.5956  0.2424  0.2563
  991MOL0     O33658   6.681   8.402   8.204  0.1955 -0.9799  0.0303
  991MOL0     C33659   6.799   8.323   8.174 -0.2724  0.3363  0.7996
  991MOL0     C33660   6.872   8.292   8.306  0.5485 -1.2066  0.4022
  991MOL0     C33661   6.991   8.188   8.284 -0.4887 -0.3327  0.2214
  991MOL0     C33662   7.051   8.106   8.416 -0.8217 -0.6552 -0.0111
  991MOL0     C33663   7.132   8.192   8.511  0.5639 -0.4786  1.0175
  991MOL0     C33664   7.266   8.251   8.452 -0.1685  0.5064  0.6210
  991MOL0     C33665   7.358   8.304   8.567  0.2417  0.5197  0.1880
  991MOL0     C33666   7.473   8.402   8.519  0.6801 -0.3386  0.2348
  991MOL0     N33667   7.569   8.342   8.426 -0.8629  1.1022 -1.0035
  991MOL0     C33668   7.703   8.302   8.454  1.0882 -0.1705 -0.8215
  991MOL0     C33669   7.741   8.226   8.340 -0.0472 -0.5270 -0.2737
  991MOL0     C33670   7.866   8.146   8.310 -0.3570 -0.4952 -0.2557
  991MOL0     C33671   7.965   8.102   8.417  0.8130 -0.0257 -0.1746
  991MOL0     C33672   7.925   7.957   8.463 -0.0489 -0.0524  0.4273
  991MOL0     C33673   8.039   7.871   8.525  0.3754  0.4935 -0.0402
  991MOL0     O33674   8.122   7.938   8.626 -0.3346 -0.5218  0.2162
  991MOL0     C33675   8.195   7.874   8.719  0.0901 -0.2359  0.5756
  991MOL0     C33676   8.307   7.943   8.772 -0.1415  0.5977 -0.4884
  991MOL0     C33677   8.389   7.889   8.873 -0.4190 -0.1443  0.4472
  991MOL0     C33678   8.369   7.756   8.910  0.0718  0.5697  0.7246
  991MOL0     C33679   8.485   7.699   8.984 -0.5245 -0.6063 -0.6166
  991MOL0     O33680   8.507   7.567   8.956 -0.2585 -0.1382  0.4501
  991MOL0     C33681   8.627   7.515   9.002 -0.4356  0.0265 -0.1555
  991MOL0     C33682   8.652   7.508   9.131 -0.4735  0.8719 -1.2048
  991MOL0     C33683   8.761   7.446   9.198  0.9237 -0.0941  0.1518
  991MOL0     C33684   8.865   7.402   9.111 -0.1182 -0.9032  0.0844
  991MOL0     O33685   8.985   7.345   9.153  0.0260 -0.2651  0.1066
  991MOL0     C33686   8.982   7.275   9.280 -0.3404  0.4715  0.2475
  991MOL0     C33687   9.071   7.358   9.364  0.3115  0.4774  0.2901
  991MOL0     C33688   9.080   7.315   9.509  0.0377 -1.1993  0.0781
  991MOL0     C33689   9.203   7.230   9.517  0.3574  0.1508 -0.1613
  991MOL0     C33690   9.207   7.172   9.661  0.8834  0.1548 -0.2306
  991MOL0     C33691   9.324   7.074   9.670  0.0936 -0.0932 -0.1671
  991MOL0     C33692   9.447   7.148   9.727  0.2664 -0.6982  0.5717
  991MOL0     C33693   9.564   7.056   9.769  0.2697 -0.1514  0.8127
  991MOL0    Cl33694   9.602   6.931   9.638  0.2018 -0.0911 -0.0160
  991MOL0     C33695   8.850   7.413   8.967 -0.1715 -0.2412 -0.1848
  991MOL0     C33696   8.733   7.465   8.919  0.3445 -0.0463 -0.6196
  991MOL0     O33697   8.549   7.769   9.060  0.3612  0.0839  0.9343
  991MOL0     C33698   8.261   7.686   8.856  0.9155  0.0004  0.5355
  991MOL0     C33699   8.166   7.746   8.776  0.4196 -0.2184  0.2260
  991MOL0     N33700   7.632   8.226   8.255 -0.3964  0.0034  0.2387
  991MOL0     N33701   7.531   8.288   8.304 -0.0379 -0.0953 -0.8874
  991MOL0     C33702   6.579   8.382   7.986 -0.0646  0.1918  0.2163
  991MOL0     C33703   6.467   8.387   7.902 -0.2386  0.0013 -0.7399
  991MOL0     C33704   6.108   8.582   7.715 -0.2533  0.9327 -1.0168
  991MOL0     C33705   6.052   8.452   7.687 -0.1336 -0.3348  0.7808
  991MOL0     C33706   5.931   8.448   7.606 -0.0369  0.0692 -0.4408
  991MOL0     C33707   5.872   8.563   7.551 -0.3209  0.8692 -0.0022
  991MOL0     O33708   5.753   8.570   7.479 -0.0170 -0.1278  0.0050
  991MOL0     C33709   5.673   8.451   7.448 -0.7360 -0.4159 -0.6547
  991MOL0     C33710   5.547   8.494   7.391  0.2286 -0.3132  0.3481
  991MOL0     C33711   5.435   8.520   7.486 -0.2828 -1.0491  0.2356
  991MOL0     C33712   5.297   8.497   7.413 -0.8317  0.4888  0.3195
  991MOL0     C33713   5.200   8.514   7.513 -0.0458  0.0037 -0.6026
  991MOL0     C33714   5.119   8.528   7.604 -0.5145 -0.0467  0.3388
  991MOL0     C33715   5.930   8.683   7.591  1.1776 -0.1699 -0.2435
  991MOL0     C33716   6.043   8.692   7.675  0.3159  1.0529  0.4166
  991MOL0     C33717   6.075   8.827   7.733 -0.6784 -0.8317 -0.0213
  991MOL0     H33718   6.254   8.507   8.147  0.5146 -0.8020  1.4610
  991MOL0     H33719   6.447   8.486   8.281 -3.4452  1.5497  0.1935
  991MOL0     H33720   6.777   8.228   8.126  1.3577  0.1274  0.4045
  991MOL0     H33721   6.875   8.372   8.113 -0.6041  2.2775  1.8422
  991MOL0     H33722   6.798   8.249   8.375  0.5316  1.9100  2.5246
  991MOL0     H33723   6.902   8.385   8.354 -1.7877  0.3363 -0.9013
  991MOL0     H33724   7.074   8.240   8.234  1.0921 -1.9817  0.9902
  991MOL0     H33725   6.951   8.112   8.217  0.2914  1.4325 -2.4147
  991MOL0     H33726   6.970   8.066   8.477  1.5398 -0.4322  3.5068
  991MOL0     H33727   7.121   8.029   8.386  1.5984  1.3330  0.2322
  991MOL0     H33728   7.068   8.271   8.552  0.6819 -0.9798  2.2045
  991MOL0     H33729   7.161   8.130   8.597  3.3187  0.5996  0.9613
  991MOL0     H33730   7.306   8.173   8.386 -3.8610 -2.0493  1.0804
  991MOL0     H33731   7.241   8.340   8.393 -1.9500 -0.0568  0.4784
  991MOL0     H33732   7.403   8.222   8.624  1.7780  0.8487 -0.5171
  991MOL0     H33733   7.289   8.361   8.630 -0.2051  0.7044 -0.4514
  991MOL0     H33734   7.422   8.485   8.470  0.5172 -0.7291 -0.2754
  991MOL0     H33735   7.526   8.450   8.601  1.8402 -0.5539 -0.3711
  991MOL0     H33736   7.761   8.318   8.544 -1.8598  1.0336  1.0576
  991MOL0     H33737   7.827   8.064   8.248 -0.6256 -0.8736  0.3962
  991MOL0     H33738   7.930   8.219   8.259  2.0393 -2.3750 -0.1279
  991MOL0     H33739   8.065   8.103   8.372  0.6247  1.2753 -0.6219
  991MOL0     H33740   7.972   8.174   8.499  0.4475 -0.9466  0.6888
  991MOL0     H33741   7.894   7.901   8.374 -0.4243  0.2406  0.3748
  991MOL0     H33742   7.846   7.955   8.538 -2.0186  1.6416 -1.4606
  991MOL0     H33743   8.108   7.843   8.445  3.3470  1.8933  1.8583
  991MOL0     H33744   7.995   7.785   8.575  0.2910  0.0501 -0.8659
  991MOL0     H33745   8.337   8.045   8.750 -0.5795  2.0100  4.3707
  991MOL0     H33746   8.483   7.943   8.880 -1.6673  2.0773  0.6257
  991MOL0     H33747   8.583   7.556   9.200  1.3163 -2.7977  3.6964
  991MOL0     H33748   8.783   7.432   9.303  2.3341 -0.1763 -0.1321
  991MOL0     H33749   8.886   7.261   9.331 -0.0311 -3.0902  0.1228
  991MOL0     H33750   9.032   7.178   9.271  2.2957  1.7271  0.4660
  991MOL0     H33751   9.172   7.372   9.324  0.6812  1.8194  1.6009
  991MOL0     H33752   9.017   7.452   9.354 -2.3153 -0.9525  0.0566
  991MOL0     H33753   9.100   7.402   9.571 -2.1383 -0.7752  0.2918
  991MOL0     H33754   8.987   7.263   9.536  0.8121 -2.2033  0.8819
  991MOL0     H33755   9.288   7.292   9.489  0.0850 -0.3102 -2.2380
  991MOL0     H33756   9.196   7.149   9.444  0.6137  0.5482 -0.6332
  991MOL0     H33757   9.113   7.117   9.673  2.0143 -1.6768  0.7638
  991MOL0     H33758   9.210   7.248   9.740  1.2844  3.5524 -3.2466
  991MOL0     H33759   9.304   6.994   9.743 -2.6039  1.1465  0.5960
  991MOL0     H33760   9.342   7.022   9.575 -2.5525  2.1852 -2.0605
  991MOL0     H33761   9.414   7.212   9.810  0.0120 -0.6089  0.4058
  991MOL0     H33762   9.491   7.204   9.644 -1.1907  0.5114  0.5599
  991MOL0     H33763   9.651   7.120   9.784 -0.3392  0.3097  2.5562
  991MOL0     H33764   9.535   7.008   9.863 -1.1955  2.1966  1.6375
  991MOL0     H33765   8.934   7.379   8.907  1.2481 -1.3153  2.2682
  991MOL0     H33766   8.698   7.468   8.816 -1.8977  1.2604  0.1002
  991MOL0     H33767   8.257   7.580   8.883  3.3805  0.2424  2.2244
  991MOL0     H33768   8.073   7.694   8.755 -0.7155  1.9972 -0.6441
  991MOL0     H33769   6.667   8.341   7.939  0.5937  1.0197  0.7089
  991MOL0     H33770   6.481   8.345   7.802 -1.1792 -0.7707 -0.5679
  991MOL0     H33771   6.091   8.355   7.719 -0.6391 -0.7537  0.1552
  991MOL0     H33772   5.879   8.353   7.596  2.1211 -1.3200  0.6915
  991MOL0     H33773   5.672   8.378   7.530  2.7437 -0.2014 -0.2905
  991MOL0     H33774   5.726   8.405   7.365 -0.5335  0.3805 -0.9760
  991MOL0     H33775   5.515   8.410   7.329  1.5191 -0.5435 -0.0303
  991MOL0     H33776   5.557   8.581   7.325 -1.1584 -0.0976  0.3794
  991MOL0     H33777   5.429   8.620   7.530 -3.8598 -0.7682 -0.5883
  991MOL0     H33778   5.438   8.450   7.570 -1.7024 -2.0166 -0.4906
  991MOL0     H33779   5.291   8.562   7.325 -0.0400  0.8472  0.5173
  991MOL0     H33780   5.296   8.394   7.377  1.0601 -1.1830  4.4262
  991MOL0     H33781   5.050   8.532   7.685 -1.4584 -2.2927 -0.2700
  991MOL0     H33782   5.894   8.776   7.549  2.5924  0.9376  0.9338
  991MOL0     H33783   6.182   8.847   7.727 -0.4399 -2.3950 -2.2896
  991MOL0     H33784   6.013   8.900   7.680  0.5722  1.5473  1.6389
  991MOL0     H33785   6.043   8.836   7.837  1.7931 -0.7402  0.7870
  992MOL0     O33786   7.378   3.101   4.679  0.0264  0.0861  0.3467
  992MOL0     C33787   7.293   3.070   4.595  0.0239  0.5311 -0.8261
  992MOL0     O33788   7.300   3.080   4.462 -0.2186 -0.3773 -0.2038
  992MOL0     C33789   7.420   3.086   4.393 -0.2724  0.4992 -0.0873
  992MOL0     C33790   7.389   3.111   4.254 -1.0616  0.4528  0.8685
  992MOL0     C33791   7.502   3.115   4.164  0.5961  0.1261  0.1350
  992MOL0     C33792   7.632   3.104   4.206 -0.4770 -0.0611 -0.0627
  992MOL0     O33793   7.739   3.115   4.119  0.9938 -0.0138 -0.3434
  992MOL0     C33794   7.844   3.204   4.158  0.7394 -0.1339  0.4535
  992MOL0     C33795   7.814   3.356   4.125  0.8633  0.2421  0.7282
  992MOL0     C33796   7.798   3.378   3.974 -0.0571  0.6493  0.2142
  992MOL0     C33797   7.766   3.522   3.949 -0.4691 -0.2688 -0.1087
  992MOL0     C33798   7.750   3.567   3.808 -0.1107  0.7375  0.4349
  992MOL0     C33799   7.822   3.705   3.788 -0.4793 -0.1859 -0.5633
  992MOL0     C33800   7.971   3.690   3.773 -0.0046  0.2583  1.0963
  992MOL0     C33801   8.016   3.625   3.638 -0.6343 -0.3064  0.8115
  992MOL0     N33802   8.156   3.647   3.595  0.0203 -0.2123 -0.6839
  992MOL0     C33803   8.194   3.758   3.527  0.0413 -0.6062  0.0303
  992MOL0     C33804   8.327   3.740   3.498  0.6222  0.3257 -0.1261
  992MOL0     C33805   8.417   3.827   3.425 -0.0260  0.0944  0.1599
  992MOL0     C33806   8.370   3.854   3.281 -0.0090  0.1782  0.0448
  992MOL0     C33807   8.442   3.978   3.214 -0.2798  0.4466 -0.1183
  992MOL0     C33808   8.595   3.971   3.227 -0.5530  0.3585  0.6814
  992MOL0     O33809   8.662   3.866   3.164  0.2097 -0.0184  0.0194
  992MOL0     C33810   8.794   3.844   3.181  0.1053 -0.2418 -0.4144
  992MOL0     C33811   8.884   3.948   3.211  0.3165 -0.8835 -0.6419
  992MOL0     C33812   9.015   3.913   3.195 -0.1938  0.4823  0.6418
  992MOL0     C33813   9.069   3.790   3.153 -0.3386  0.0465 -0.4161
  992MOL0     C33814   9.211   3.780   3.133  0.3407 -0.6174 -0.6085
  992MOL0     O33815   9.306   3.859   3.197  0.1093 -0.0381 -0.4400
  992MOL0     C33816   9.429   3.863   3.139  0.1654  0.4236  0.4742
  992MOL0     C33817   9.531   3.861   3.231 -0.6564 -0.0936  0.4358
  992MOL0     C33818   9.669   3.865   3.182 -0.4965 -0.3245  0.1326
  992MOL0     C33819   9.691   3.887   3.040  0.8796 -0.8926 -0.1430
  992MOL0     O33820   9.821   3.897   2.993  0.1018 -0.4883  0.4247
  992MOL0     C33821   9.845   3.818   2.874  0.4737 -0.1763 -0.3311
  992MOL0     C33822   9.988   3.756   2.855  0.7664 -0.0009 -0.2620
  992MOL0     C33823  10.098   3.859   2.809  0.3983 -0.6136  0.3634
  992MOL0     C33824  10.125   3.971   2.909  0.6038 -0.2827  0.1425
  992MOL0     C33825  10.251   4.043   2.859  0.8927  0.1011 -0.0682
  992MOL0     C33826  10.277   4.184   2.936 -0.0776 -0.1880 -0.1588
  992MOL0     C33827  10.411   4.247   2.893 -0.2751  0.8496 -0.5038
  992MOL0     C33828  10.532   4.195   2.971 -0.7669 -0.5861 -0.5733
  992MOL0    Cl33829  10.693   4.241   2.901 -0.0864 -0.2457  0.4404
  992MOL0     C33830   9.579   3.903   2.958 -0.5477 -0.1342 -0.4056
  992MOL0     C33831   9.450   3.886   3.005  0.1076  0.1620 -0.0335
  992MOL0     O33832   9.242   3.689   3.057 -0.0848  0.0218 -0.0286
  992MOL0     C33833   8.981   3.688   3.126  0.2401  0.5617 -0.0883
  992MOL0     C33834   8.842   3.719   3.142  0.3656  0.1877  0.5801
  992MOL0     N33835   8.358   3.605   3.534  0.3860  0.7402 -1.0051
  992MOL0     N33836   8.258   3.552   3.590 -0.0350  0.9649  0.0823
  992MOL0     C33837   7.657   3.080   4.344 -0.1741 -0.4542  0.0083
  992MOL0     C33838   7.549   3.071   4.434 -0.3205 -0.4718 -0.3645
  992MOL0     C33839   7.167   3.020   4.653  0.0312 -0.2082  0.8517
  992MOL0     C33840   7.058   3.009   4.560 -0.0182  0.4171 -0.5749
  992MOL0     C33841   6.921   2.994   4.602 -0.3996 -0.1099  0.3685
  992MOL0     C33842   6.890   2.978   4.740  0.3636  0.2309 -0.2592
  992MOL0     O33843   6.760   2.963   4.786 -0.3747  0.0325  0.1724
  992MOL0     C33844   6.665   2.936   4.683 -0.8636 -0.7537 -0.5794
  992MOL0     C33845   6.527   2.912   4.758 -0.1651  0.9016  0.8721
  992MOL0     C33846   6.407   2.907   4.659 -0.1768 -1.3869 -0.0066
  992MOL0     C33847   6.273   2.885   4.716 -0.4116  0.4734 -0.1278
  992MOL0     C33848   6.266   2.746   4.773  0.6153 -0.0356  0.5675
  992MOL0     C33849   6.281   2.634   4.824  0.1027 -0.4563 -0.2737
  992MOL0     C33850   6.997   2.979   4.831  1.1261  0.3469 -0.0979
  992MOL0     C33851   7.133   3.002   4.787 -0.7754 -0.5863  0.1501
  992MOL0     C33852   7.224   3.023   4.907  1.0570 -0.9990  0.2398
  992MOL0     H33853   7.298   3.147   4.207  0.7509  2.7289 -1.2590
  992MOL0     H33854   7.474   3.130   4.061 -2.6819  0.9437  1.0300
  992MOL0     H33855   7.865   3.205   4.265 -0.7030 -2.5530  0.8281
  992MOL0     H33856   7.935   3.175   4.104  0.4153 -3.1325  1.3207
  992MOL0     H33857   7.906   3.410   4.149  2.8771 -2.6289  0.0812
  992MOL0     H33858   7.721   3.388   4.172 -1.3243 -2.5753 -1.3301
  992MOL0     H33859   7.724   3.317   3.923 -1.2614  2.3838 -0.2020
  992MOL0     H33860   7.896   3.359   3.928  0.7958 -2.0455  2.7943
  992MOL0     H33861   7.681   3.548   4.013  2.5355  2.7949  3.0818
  992MOL0     H33862   7.844   3.586   3.992 -0.0307  0.4307 -1.8465
  992MOL0     H33863   7.806   3.505   3.738 -2.3853  0.5054 -1.2896
  992MOL0     H33864   7.644   3.560   3.783 -0.0225 -2.1023  0.5082
  992MOL0     H33865   7.795   3.754   3.694 -2.0391 -0.8559 -0.5155
  992MOL0     H33866   7.781   3.767   3.869 -1.6122 -3.0177  1.2060
  992MOL0     H33867   8.009   3.625   3.852  1.6050 -0.8092 -0.4893
  992MOL0     H33868   8.015   3.790   3.781  2.7661 -0.8527  0.7409
  992MOL0     H33869   7.993   3.519   3.648  2.7772 -1.0352  2.4400
  992MOL0     H33870   7.947   3.663   3.562  1.3445  0.3043 -0.7902
  992MOL0     H33871   8.141   3.852   3.527  0.4075 -0.2194  4.0916
  992MOL0     H33872   8.426   3.921   3.481  0.4256 -0.1316  0.4676
  992MOL0     H33873   8.519   3.789   3.420  0.6018  1.4848  1.5178
  992MOL0     H33874   8.396   3.773   3.213 -0.5041 -2.5895  2.9022
  992MOL0     H33875   8.262   3.862   3.265  0.5106  1.6827 -3.8224
  992MOL0     H33876   8.405   4.070   3.261 -0.5657  1.0195 -1.4066
  992MOL0     H33877   8.408   3.985   3.110 -0.9277  0.0710  0.0632
  992MOL0     H33878   8.609   3.987   3.334 -2.9023 -2.0745  1.4822
  992MOL0     H33879   8.638   4.067   3.198 -0.6102  1.0559  2.7455
  992MOL0     H33880   8.857   4.047   3.244 -1.5230 -1.5347 -0.0356
  992MOL0     H33881   9.083   3.993   3.222 -1.4151  2.0841 -0.7968
  992MOL0     H33882   9.514   3.839   3.336 -0.5107 -0.2405  0.4290
  992MOL0     H33883   9.754   3.856   3.249 -0.8950 -0.9958  0.5658
  992MOL0     H33884   9.780   3.730   2.880  0.6423 -0.5242 -2.6283
  992MOL0     H33885   9.824   3.881   2.787 -0.7815  2.7566  1.9199
  992MOL0     H33886  10.023   3.726   2.954  0.8043 -1.6719 -0.7544
  992MOL0     H33887   9.982   3.668   2.791 -1.7629  0.0184 -0.1642
  992MOL0     H33888  10.186   3.795   2.794 -0.5739 -2.0747  0.6648
  992MOL0     H33889  10.069   3.902   2.713 -0.5994 -1.9142  0.0485
  992MOL0     H33890  10.137   3.928   3.009  1.0102 -0.0977  0.1733
  992MOL0     H33891  10.035   4.033   2.920 -0.4724 -1.8415  0.4765
  992MOL0     H33892  10.230   4.081   2.758  1.3182 -1.3216 -0.7145
  992MOL0     H33893  10.334   3.972   2.853  0.3846 -0.4078 -1.5114
  992MOL0     H33894  10.190   4.239   2.900  0.6418  0.1056 -1.5259
  992MOL0     H33895  10.275   4.180   3.045 -3.2567  2.9932  0.0745
  992MOL0     H33896  10.413   4.356   2.899 -1.0551  0.7667  1.9416
  992MOL0     H33897  10.437   4.225   2.788  0.6524 -1.5214  0.1601
  992MOL0     H33898  10.528   4.219   3.077  4.2190 -2.1255  0.2405
  992MOL0     H33899  10.516   4.087   2.964 -0.8822 -0.8963  2.8640
  992MOL0     H33900   9.596   3.923   2.853 -0.8383 -0.9673 -0.6181
  992MOL0     H33901   9.367   3.881   2.936  1.6856 -0.2046 -2.0081
  992MOL0     H33902   9.020   3.590   3.102  0.0177  0.2169  0.9105
  992MOL0     H33903   8.777   3.637   3.113  3.9561 -2.3216 -1.0321
  992MOL0     H33904   7.760   3.054   4.367  0.4679 -1.9100 -3.6813
  992MOL0     H33905   7.566   3.052   4.540 -0.8419 -1.7566 -0.4905
  992MOL0     H33906   7.077   3.015   4.453 -2.1317 -0.1524 -1.0326
  992MOL0     H33907   6.850   2.987   4.520 -1.3966 -0.5814  1.2558
  992MOL0     H33908   6.704   2.857   4.619  0.4646 -1.4619  1.0398
  992MOL0     H33909   6.657   3.030   4.627  0.8912 -1.4295 -2.0510
  992MOL0     H33910   6.520   3.003   4.818  0.6645 -0.2672  2.8214
  992MOL0     H33911   6.530   2.816   4.810 -2.0068  0.3548  0.0826
  992MOL0     H33912   6.424   2.827   4.586 -3.0122 -2.6397  0.5731
  992MOL0     H33913   6.414   3.005   4.612  3.4374 -2.4099 -2.0218
  992MOL0     H33914   6.251   2.964   4.789  2.4125  1.7600 -0.5361
  992MOL0     H33915   6.199   2.882   4.636 -1.8475 -0.9596  1.1966
  992MOL0     H33916   6.308   2.540   4.867  0.2502 -0.3941 -0.2316
  992MOL0     H33917   6.977   2.962   4.936 -1.1693 -0.9990 -0.6835
  992MOL0     H33918   7.207   3.126   4.938  1.7618 -0.5735 -0.7241
  992MOL0     H33919   7.187   2.959   4.988  2.5440 -2.5291 -0.2287
  992MOL0     H33920   7.331   3.002   4.894  1.1428 -2.6774  2.9242
  993MOL0     O33921  11.337   1.725   1.080 -0.2857  0.8887  0.4513
  993MOL0     C33922  11.255   1.667   1.009  0.2037  0.1366  0.1757
  993MOL0     O33923  11.272   1.534   0.961  0.6833 -0.4953  0.1469
  993MOL0     C33924  11.396   1.508   0.906 -0.2900 -0.5978 -0.5189
  993MOL0     C33925  11.447   1.388   0.913 -0.2126 -0.2683 -0.9556
  993MOL0     C33926  11.579   1.358   0.856 -0.1656 -0.5255 -0.1788
  993MOL0     C33927  11.639   1.449   0.777 -0.5083  0.5676 -0.3327
  993MOL0     O33928  11.755   1.402   0.724  0.0144 -0.2049  0.4167
  993MOL0     C33929  11.843   1.501   0.668  0.6187 -0.1166  0.5243
  993MOL0     C33930  11.953   1.426   0.605 -0.7718 -0.5669 -0.0732
  993MOL0     C33931  12.067   1.525   0.585  0.7499 -0.4624 -0.4844
  993MOL0     C33932  12.196   1.460   0.563 -1.0903 -0.3487 -0.3245
  993MOL0     C33933  12.309   1.565   0.534 -0.1919 -0.6255 -0.1515
  993MOL0     C33934  12.286   1.631   0.393  0.7672  0.8755 -0.3825
  993MOL0     C33935  12.425   1.655   0.332  0.3527  0.3430 -0.3356
  993MOL0     C33936  12.521   1.755   0.398 -0.0113 -0.3311  0.6926
  993MOL0     N33937  12.636   1.773   0.316  0.1435  0.1724  0.5922
  993MOL0     C33938  12.716   1.664   0.284 -0.3818 -0.3133  1.4913
  993MOL0     C33939  12.828   1.710   0.229 -0.1330 -0.6355 -0.2970
  993MOL0     C33940  12.950   1.632   0.192 -0.5899 -0.4455  0.2812
  993MOL0     C33941  12.987   1.636   0.045 -0.1427  0.8270 -0.6055
  993MOL0     C33942  13.113   1.548   0.010 -0.2593 -0.7173  0.1303
  993MOL0     C33943  13.130   1.535  -0.136  0.3682 -0.5503 -0.4945
  993MOL0     O33944  13.246   1.460  -0.168  0.4286  0.1907 -0.0366
  993MOL0     C33945  13.307   1.467  -0.294 -0.3842 -0.6746  0.0812
  993MOL0     C33946  13.268   1.547  -0.396 -0.0671  0.7717  0.0816
  993MOL0     C33947  13.337   1.533  -0.520 -0.1633  0.1265  0.4287
  993MOL0     C33948  13.433   1.438  -0.550 -0.2734 -0.0055  0.4392
  993MOL0     C33949  13.484   1.419  -0.688 -1.4966 -0.5958 -0.2355
  993MOL0     O33950  13.467   1.527  -0.784 -0.2823 -0.0830  0.1311
  993MOL0     C33951  13.536   1.521  -0.903 -0.7695 -0.3477 -0.5594
  993MOL0     C33952  13.592   1.646  -0.939 -0.6381  0.2389 -0.5680
  993MOL0     C33953  13.664   1.668  -1.048  0.9009  0.6043 -0.3668
  993MOL0     C33954  13.683   1.563  -1.135  0.6667 -0.3885  0.4228
  993MOL0     O33955  13.760   1.592  -1.242 -0.2915 -0.1304  0.1113
  993MOL0     C33956  13.802   1.495  -1.335  0.4372 -0.1182 -0.5199
  993MOL0     C33957  13.891   1.565  -1.435 -0.2752 -0.3034 -0.1709
  993MOL0     C33958  14.041   1.587  -1.383 -0.7945 -0.3455  0.9151
  993MOL0     C33959  14.132   1.574  -1.497  0.1250 -0.5048  0.6013
  993MOL0     C33960  14.276   1.582  -1.443 -0.3116  0.3639 -0.8377
  993MOL0     C33961  14.370   1.503  -1.538 -0.2191  0.1482  0.0738
  993MOL0     C33962  14.509   1.487  -1.465  0.3383 -1.0568  0.2471
  993MOL0     C33963  14.573   1.625  -1.463  0.4185 -0.4011  0.6983
  993MOL0    Cl33964  14.745   1.590  -1.404 -0.2683  0.5632  0.4129
  993MOL0     C33965  13.608   1.440  -1.127 -0.7856 -1.4523  0.0829
  993MOL0     C33966  13.537   1.421  -1.002 -0.6140 -0.1876 -0.8597
  993MOL0     O33967  13.549   1.316  -0.715  0.1096 -0.5360  0.1058
  993MOL0     C33968  13.466   1.351  -0.443 -0.0511  0.5926  0.3062
  993MOL0     C33969  13.406   1.366  -0.320 -0.4859 -0.2234  0.2543
  993MOL0     N33970  12.802   1.843   0.198  0.2509  0.4133 -0.3909
  993MOL0     N33971  12.705   1.883   0.269  0.1626  0.6412 -0.0634
  993MOL0     C33972  11.576   1.575   0.750 -0.4003  0.1577  0.0977
  993MOL0     C33973  11.458   1.600   0.818  0.4280  0.2626  0.2162
  993MOL0     C33974  11.117   1.727   0.989 -0.9435 -0.6707  0.2887
  993MOL0     C33975  11.027   1.659   0.914  0.6403  0.7598  0.7177
  993MOL0     C33976  10.898   1.703   0.889 -0.1672  0.5987 -0.8106
  993MOL0     C33977  10.854   1.828   0.943 -0.2002 -0.1542 -0.5342
  993MOL0     O33978  10.717   1.858   0.927  0.8323 -0.1144  0.0972
  993MOL0     C33979  10.661   1.993   0.955 -0.4920 -0.4711  0.9622
  993MOL0     C33980  10.709   2.103   0.853 -0.4989 -0.0156  0.1438
  993MOL0     C33981  10.675   2.233   0.923 -0.9505 -0.3248 -0.5383
  993MOL0     C33982  10.730   2.358   0.843 -0.2567  0.0679 -0.8877
  993MOL0     C33983  10.867   2.375   0.890  0.1566 -0.0125  0.0764
  993MOL0     C33984  10.979   2.390   0.929  0.3725 -0.0498  0.2810
  993MOL0     C33985  10.942   1.896   1.023  0.4249  0.2961 -0.7029
  993MOL0     C33986  11.075   1.854   1.044 -0.0002 -0.5685  0.1710
  993MOL0     C33987  11.162   1.948   1.119  0.4517  0.2078 -0.8725
  993MOL0     H33988  11.386   1.328   0.980 -2.8362 -0.0003 -2.9663
  993MOL0     H33989  11.630   1.266   0.883 -0.1961  0.2281  2.8026
  993MOL0     H33990  11.786   1.553   0.591 -2.9767 -3.5959  0.4922
  993MOL0     H33991  11.873   1.563   0.753 -3.0669  1.0483  1.1458
  993MOL0     H33992  11.917   1.374   0.515 -0.5543 -0.2182 -0.3665
  993MOL0     H33993  11.989   1.345   0.668  1.0881 -0.0670 -0.4304
  993MOL0     H33994  12.091   1.586   0.673 -0.4096 -1.3928  0.5215
  993MOL0     H33995  12.048   1.599   0.506  3.3107  2.4261  1.3703
  993MOL0     H33996  12.222   1.413   0.658  2.9464  0.4945 -0.8485
  993MOL0     H33997  12.199   1.383   0.486  0.5256 -2.2484  1.5011
  993MOL0     H33998  12.321   1.641   0.612  2.1010  0.5460 -1.5284
  993MOL0     H33999  12.405   1.513   0.542  1.9121  2.5877 -2.3313
  993MOL0     H34000  12.213   1.585   0.326  0.3861  1.2741 -0.2420
  993MOL0     H34001  12.234   1.726   0.406 -3.6975 -0.8413 -3.2469
  993MOL0     H34002  12.412   1.698   0.232 -0.2686 -1.2641 -0.9802
  993MOL0     H34003  12.468   1.557   0.309 -2.7332 -1.1032 -0.4339
  993MOL0     H34004  12.469   1.850   0.413  2.4076  0.9677  1.2466
  993MOL0     H34005  12.569   1.728   0.493  1.4601 -0.2697 -0.0124
  993MOL0     H34006  12.695   1.560   0.307 -0.5010 -0.5415  0.4029
  993MOL0     H34007  13.021   1.679   0.261 -1.7876  1.9234 -0.0004
  993MOL0     H34008  12.923   1.528   0.213 -1.1039 -0.5567 -0.8529
  993MOL0     H34009  12.907   1.604  -0.022  0.5231 -1.5279 -0.3718
  993MOL0     H34010  13.012   1.741   0.027  3.4603  0.8671  3.1451
  993MOL0     H34011  13.109   1.451   0.060  0.4323 -1.9062 -2.0042
  993MOL0     H34012  13.205   1.591   0.049 -0.5161  0.9848 -1.0154
  993MOL0     H34013  13.131   1.635  -0.180 -0.3256 -0.1828  0.3100
  993MOL0     H34014  13.040   1.485  -0.173  1.3282 -1.4500 -1.7568
  993MOL0     H34015  13.186   1.618  -0.392  0.1862  1.1555 -1.0977
  993MOL0     H34016  13.306   1.599  -0.600 -0.6462  0.1907  0.6678
  993MOL0     H34017  13.563   1.728  -0.874  1.4905 -0.4212  1.3392
  993MOL0     H34018  13.702   1.769  -1.059  0.3264  0.6115 -2.8690
  993MOL0     H34019  13.863   1.421  -1.282  1.0765  0.7706  0.0324
  993MOL0     H34020  13.720   1.442  -1.383  1.3830 -1.3356 -0.8473
  993MOL0     H34021  13.894   1.520  -1.535  2.6535  0.4738 -0.5195
  993MOL0     H34022  13.843   1.662  -1.451  0.6028 -0.3469 -4.2569
  993MOL0     H34023  14.046   1.680  -1.327 -1.4194 -1.9938  3.9184
  993MOL0     H34024  14.074   1.506  -1.318 -1.0061  0.2133  1.7280
  993MOL0     H34025  14.132   1.660  -1.565  0.0452 -0.0082  1.2157
  993MOL0     H34026  14.111   1.489  -1.562  0.3887  2.0079 -3.1386
  993MOL0     H34027  14.282   1.540  -1.342 -0.2969  1.1301 -0.5204
  993MOL0     H34028  14.309   1.686  -1.450  0.4653  0.1225 -0.9022
  993MOL0     H34029  14.332   1.404  -1.567 -0.7130  0.3245  0.1147
  993MOL0     H34030  14.388   1.558  -1.632 -2.1454  0.0127 -0.4106
  993MOL0     H34031  14.570   1.414  -1.518  0.2121  0.3443 -1.9427
  993MOL0     H34032  14.500   1.467  -1.358  3.5349  0.3383  0.8865
  993MOL0     H34033  14.579   1.661  -1.566 -3.0688 -4.7712 -1.3799
  993MOL0     H34034  14.522   1.701  -1.403 -0.6022 -1.8759  1.7639
  993MOL0     H34035  13.619   1.365  -1.205  1.2997 -2.5872  1.3857
  993MOL0     H34036  13.489   1.324  -0.988  1.5644 -1.3207 -0.9206
  993MOL0     H34037  13.529   1.266  -0.467 -1.9309 -0.6219 -0.5232
  993MOL0     H34038  13.436   1.295  -0.243  0.2934  1.0244  1.1345
  993MOL0     H34039  11.610   1.657   0.687 -1.8019 -0.4642 -1.5587
  993MOL0     H34040  11.415   1.698   0.797  0.2465 -0.0285 -0.8501
  993MOL0     H34041  11.062   1.570   0.863 -0.5880 -0.3841  1.7902
  993MOL0     H34042  10.828   1.657   0.819 -0.4618  3.8371 -2.8437
  993MOL0     H34043  10.686   2.026   1.056  2.6565  1.0734 -0.1998
  993MOL0     H34044  10.552   1.979   0.948 -0.2961 -2.7587  1.5395
  993MOL0     H34045  10.652   2.102   0.759  1.0210  1.1423 -0.8462
  993MOL0     H34046  10.817   2.095   0.836 -0.7234 -0.0246 -1.5054
  993MOL0     H34047  10.700   2.232   1.029  0.3435  0.1982 -0.8259
  993MOL0     H34048  10.566   2.242   0.911 -0.9298 -2.0009 -2.6634
  993MOL0     H34049  10.741   2.353   0.735  1.5753  1.6359 -0.8202
  993MOL0     H34050  10.659   2.440   0.861 -4.2227 -3.1381 -0.2710
  993MOL0     H34051  11.074   2.416   0.971  0.1760  0.7125  0.2744
  993MOL0     H34052  10.904   1.985   1.071 -0.3131 -0.9706  1.1885
  993MOL0     H34053  11.247   1.974   1.055 -0.3560  2.9101 -0.9724
  993MOL0     H34054  11.113   2.039   1.155 -1.3239 -0.8255 -0.5935
  993MOL0     H34055  11.198   1.894   1.207 -0.7681 -3.0786 -2.2242
  994MOL0     O34056   4.268  10.245   8.100 -0.3271 -0.1780  0.3512
  994MOL0     C34057   4.184  10.325   8.072  0.3799 -0.5621 -0.6744
  994MOL0     O34058   4.217  10.461   8.039 -0.3368 -0.2101 -0.3137
  994MOL0     C34059   4.351  10.490   8.052  0.4907 -0.1470 -1.3193
  994MOL0     C34060   4.432  10.473   8.164 -0.2272 -0.1083 -1.1104
  994MOL0     C34061   4.554  10.540   8.177  0.5292  0.0427 -0.1965
  994MOL0     C34062   4.605  10.605   8.066 -0.5116 -0.5890 -0.3753
  994MOL0     O34063   4.729  10.658   8.096  0.5903 -0.2707 -0.0434
  994MOL0     C34064   4.754  10.783   8.052 -0.7521 -0.9699  0.8469
  994MOL0     C34065   4.901  10.812   8.104  0.5029 -0.0894 -0.4767
  994MOL0     C34066   4.929  10.961   8.080  0.7544 -0.5272  0.0336
  994MOL0     C34067   5.039  11.022   8.174  0.9985 -0.6202 -0.9008
  994MOL0     C34068   5.092  11.167   8.125  0.0210  0.3801  0.2427
  994MOL0     C34069   5.206  11.223   8.221  0.0308 -0.2905  0.2039
  994MOL0     C34070   5.240  11.364   8.168 -0.6022 -0.1199  0.5872
  994MOL0     C34071   5.365  11.421   8.241 -0.6763 -0.0284 -0.3385
  994MOL0     N34072   5.385  11.563   8.244  0.1484  0.0335  0.5912
  994MOL0     C34073   5.440  11.635   8.142  1.2728 -0.8815  0.9050
  994MOL0     C34074   5.423  11.766   8.166  0.6225  0.4655  0.8419
  994MOL0     C34075   5.458  11.893   8.083  0.4414 -0.1110  0.1957
  994MOL0     C34076   5.608  11.918   8.072  0.6392  0.1563  1.0094
  994MOL0     C34077   5.676  11.835   7.969  0.0203 -0.2465 -0.3752
  994MOL0     C34078   5.824  11.814   7.985  0.3265  0.0766 -0.5519
  994MOL0     O34079   5.882  11.951   7.977 -0.2529  0.3025 -0.6958
  994MOL0     C34080   6.015  11.968   7.941 -0.1810  0.6422 -0.7258
  994MOL0     C34081   6.085  11.866   7.886 -0.9210 -0.5075 -0.3976
  994MOL0     C34082   6.210  11.891   7.836  0.3006  0.9268 -0.1428
  994MOL0     C34083   6.289  12.007   7.872 -0.0713  0.6030 -0.5410
  994MOL0     C34084   6.432  12.034   7.844  0.0708  0.1505  0.8696
  994MOL0     O34085   6.484  12.156   7.878  0.9064  0.5762 -0.5065
  994MOL0     C34086   6.615  12.198   7.854  0.8477 -0.0469 -0.4125
  994MOL0     C34087   6.639  12.314   7.789  0.1323 -0.3062 -0.0215
  994MOL0     C34088   6.770  12.364   7.786 -0.1791 -0.2538 -0.3955
  994MOL0     C34089   6.879  12.300   7.847 -0.3518 -0.2421  0.0447
  994MOL0     O34090   7.003  12.363   7.852 -0.6064 -0.2776  0.6212
  994MOL0     C34091   7.129  12.291   7.865  0.5328 -0.5981 -0.0433
  994MOL0     C34092   7.189  12.271   7.724 -1.1481  0.3983 -0.4160
  994MOL0     C34093   7.223  12.393   7.645 -0.2364  0.4844 -0.0225
  994MOL0     C34094   7.289  12.383   7.506 -0.4268  0.6908  0.4364
  994MOL0     C34095   7.391  12.485   7.475 -0.1998 -0.2172  0.3592
  994MOL0     C34096   7.525  12.466   7.554 -0.0580  0.0027  0.3469
  994MOL0     C34097   7.626  12.575   7.519 -0.5118  0.3531  0.6650
  994MOL0     C34098   7.604  12.685   7.617 -0.2126  1.0047 -0.5140
  994MOL0    Cl34099   7.709  12.819   7.562 -0.2746 -0.2608 -0.0827
  994MOL0     C34100   6.853  12.175   7.911 -0.3235 -0.5626  0.4544
  994MOL0     C34101   6.718  12.130   7.916  0.0349  0.5837  0.0332
  994MOL0     O34102   6.500  11.940   7.792 -1.1252 -0.4165 -0.6146
  994MOL0     C34103   6.216  12.106   7.949 -0.0156  0.1877  0.1630
  994MOL0     C34104   6.079  12.088   7.976 -0.8299  0.5731  0.4082
  994MOL0     N34105   5.348  11.769   8.283  0.1386 -0.5225  0.0596
  994MOL0     N34106   5.329  11.655   8.336  0.0711  1.2154  0.7470
  994MOL0     C34107   4.529  10.611   7.955 -0.1198 -1.2960 -0.4457
  994MOL0     C34108   4.405  10.556   7.947  0.7829 -0.3566  0.6277
  994MOL0     C34109   4.042  10.289   8.093 -0.5069 -0.2311 -0.5069
  994MOL0     C34110   3.952  10.394   8.124  1.2632 -0.1952  0.4024
  994MOL0     C34111   3.812  10.376   8.146 -0.0573 -0.7899  0.0622
  994MOL0     C34112   3.752  10.251   8.130  0.0668  1.2788  0.4279
  994MOL0     O34113   3.613  10.250   8.142 -0.4220 -1.2523  0.1206
  994MOL0     C34114   3.541  10.125   8.112 -0.2802 -0.1957  0.7903
  994MOL0     C34115   3.418  10.117   8.202 -0.4496 -0.7496 -0.1101
  994MOL0     C34116   3.307  10.028   8.141  0.6152 -0.4879 -0.0115
  994MOL0     C34117   3.249  10.060   7.993  0.3388 -0.4289 -0.3135
  994MOL0     C34118   3.204   9.938   7.923  1.1816  1.1998  0.7037
  994MOL0     C34119   3.169   9.830   7.883 -1.5432  0.0640  0.2834
  994MOL0     C34120   3.841  10.144   8.100  0.3668 -0.1079 -0.0823
  994MOL0     C34121   3.980  10.160   8.090 -0.8039 -1.0526 -0.6924
  994MOL0     C34122   4.060  10.038   8.068  0.5276  0.6665  1.2685
  994MOL0     H34123   4.396  10.403   8.239 -1.6252 -1.4476 -2.9261
  994MOL0     H34124   4.610  10.520   8.267  1.2188 -2.8888 -1.1523
  994MOL0     H34125   4.756  10.806   7.945  0.9697 -0.6196  0.9309
  994MOL0     H34126   4.687  10.856   8.097  2.3854  2.0944  1.0150
  994MOL0     H34127   4.972  10.763   8.037  2.5194 -0.1371  1.5895
  994MOL0     H34128   4.923  10.783   8.207 -0.1402 -2.9131 -1.0403
  994MOL0     H34129   4.839  11.023   8.082  0.0077 -1.5322 -1.1909
  994MOL0     H34130   4.984  10.962   7.985  2.5759 -0.0136  1.0360
  994MOL0     H34131   4.996  11.039   8.272  0.1650 -1.2867 -1.1438
  994MOL0     H34132   5.124  10.954   8.186  0.3146 -1.2918  0.2501
  994MOL0     H34133   5.134  11.146   8.026 -0.3134 -3.0952  0.7284
  994MOL0     H34134   5.017  11.247   8.124  1.1021  1.4180 -0.3591
  994MOL0     H34135   5.162  11.234   8.321  0.4644  0.8049  0.2887
  994MOL0     H34136   5.297  11.163   8.226  1.0579  1.0404 -1.5377
  994MOL0     H34137   5.158  11.432   8.191  0.8664  1.6733  0.8036
  994MOL0     H34138   5.266  11.365   8.062  0.6490 -1.7681  0.8235
  994MOL0     H34139   5.363  11.387   8.345  2.4827 -1.3029 -0.5768
  994MOL0     H34140   5.458  11.376   8.202  0.9120  1.4208  1.5839
  994MOL0     H34141   5.469  11.601   8.043  0.7446  0.8401  0.1125
  994MOL0     H34142   5.396  11.873   7.995 -0.3899  0.3219  0.6781
  994MOL0     H34143   5.416  11.984   8.126  1.5389  0.5384 -0.0705
  994MOL0     H34144   5.616  12.025   8.051  0.6597  0.3180  1.8025
  994MOL0     H34145   5.664  11.921   8.166  2.8681  0.4647 -0.2472
  994MOL0     H34146   5.659  11.871   7.867 -2.3908  1.2433  0.4700
  994MOL0     H34147   5.635  11.733   7.975 -0.4304 -0.0140  0.7024
  994MOL0     H34148   5.848  11.741   7.908  0.2461  0.4171 -0.9034
  994MOL0     H34149   5.846  11.752   8.072  0.6637  0.1898 -0.5580
  994MOL0     H34150   6.039  11.777   7.844 -4.1228  1.4206 -1.2872
  994MOL0     H34151   6.257  11.813   7.778 -1.3679  1.2731 -2.0928
  994MOL0     H34152   6.565  12.362   7.727  1.8196  1.6784 -0.6231
  994MOL0     H34153   6.788  12.462   7.744 -1.6870 -0.4056 -1.4600
  994MOL0     H34154   7.191  12.354   7.929 -0.3805 -0.4372  0.7205
  994MOL0     H34155   7.131  12.197   7.921  1.9750 -1.0850 -0.8547
  994MOL0     H34156   7.286  12.228   7.753 -0.4930  1.6960 -0.6115
  994MOL0     H34157   7.127  12.194   7.677 -2.2768  0.4793  0.8817
  994MOL0     H34158   7.142  12.464   7.630  2.4545  3.6778 -0.5807
  994MOL0     H34159   7.298  12.449   7.702 -0.2246  1.4128 -0.9233
  994MOL0     H34160   7.211  12.395   7.430 -0.3702 -1.9137 -0.0982
  994MOL0     H34161   7.328  12.283   7.487 -2.8625 -0.3458  0.5099
  994MOL0     H34162   7.356  12.587   7.491  2.3590  0.5323  1.5870
  994MOL0     H34163   7.426  12.480   7.371  2.1832  0.2574  1.1011
  994MOL0     H34164   7.502  12.467   7.661  0.0045  0.3836  0.3567
  994MOL0     H34165   7.577  12.371   7.537  3.2658  1.6607  0.4523
  994MOL0     H34166   7.615  12.608   7.416  2.3425 -0.5934 -0.0323
  994MOL0     H34167   7.723  12.524   7.521 -1.0659 -0.7193  0.8965
  994MOL0     H34168   7.499  12.712   7.611  0.3313  2.8688 -3.4545
  994MOL0     H34169   7.628  12.654   7.719  1.6336  2.4542 -0.4540
  994MOL0     H34170   6.938  12.124   7.955  0.4732  0.0185 -0.3667
  994MOL0     H34171   6.702  12.038   7.971  0.5080  1.3672  1.5380
  994MOL0     H34172   6.268  12.198   7.971 -1.2045  1.0650 -0.5555
  994MOL0     H34173   6.024  12.159   8.038 -1.0330  3.9574 -3.2585
  994MOL0     H34174   4.552  10.663   7.863 -1.0015 -1.3767 -0.7294
  994MOL0     H34175   4.341  10.563   7.859  2.8753 -0.8678 -1.0070
  994MOL0     H34176   3.980  10.498   8.139  1.5792 -0.1584 -0.4087
  994MOL0     H34177   3.746  10.456   8.178 -1.7891 -1.9485 -0.4492
  994MOL0     H34178   3.604  10.040   8.140  2.0246  1.2194  0.2093
  994MOL0     H34179   3.523  10.139   8.005  2.3016  0.5450  0.3640
  994MOL0     H34180   3.375  10.217   8.214 -0.7335 -0.8308 -0.4582
  994MOL0     H34181   3.429  10.085   8.306 -3.9485 -0.5927  0.4349
  994MOL0     H34182   3.220  10.032   8.207 -2.4768 -1.0148 -3.7491
  994MOL0     H34183   3.354   9.929   8.145  4.2689  1.0778 -0.3621
  994MOL0     H34184   3.160  10.123   7.997 -0.8824 -2.1569  0.9232
  994MOL0     H34185   3.323  10.104   7.926  0.8654 -1.5346 -0.4885
  994MOL0     H34186   3.135   9.739   7.837 -0.2055 -0.3646  0.0966
  994MOL0     H34187   3.801  10.045   8.086 -0.7107  0.4284 -0.8963
  994MOL0     H34188   4.129  10.018   8.150 -0.3490  2.3828  2.4802
  994MOL0     H34189   3.993   9.951   8.063  0.8024  0.4453  1.4054
  994MOL0     H34190   4.123  10.036   7.978 -1.2336 -1.6949 -0.0459
  995MOL0     O34191   4.805   8.262   9.595 -0.1249 -0.0125 -0.2390
  995MOL0     C34192   4.780   8.275   9.717  0.8312 -0.3457  0.1486
  995MOL0     O34193   4.880   8.268   9.822  0.4793  0.3480  0.4541
  995MOL0     C34194   5.010   8.228   9.791  0.3000  0.4192 -0.1709
  995MOL0     C34195   5.056   8.131   9.865 -0.3560  0.8953 -0.3276
  995MOL0     C34196   5.188   8.074   9.851 -0.0376 -0.4484 -0.3756
  995MOL0     C34197   5.276   8.128   9.754  0.7445 -0.3595 -0.9309
  995MOL0     O34198   5.404   8.077   9.759  0.8412 -0.1417  0.5203
  995MOL0     C34199   5.515   8.166   9.728 -0.3332  0.0296 -0.3282
  995MOL0     C34200   5.643   8.097   9.767  0.5856 -0.3238 -0.2920
  995MOL0     C34201   5.659   7.960   9.706 -1.0318 -0.4927 -0.5963
  995MOL0     C34202   5.588   7.849   9.786 -0.2748  0.4207  0.9771
  995MOL0     C34203   5.685   7.729   9.798  0.2448  1.5249 -0.4975
  995MOL0     C34204   5.802   7.740   9.901  0.2577  0.2601  0.7354
  995MOL0     C34205   5.875   7.613   9.915 -0.5496  0.5180  0.9052
  995MOL0     C34206   6.024   7.626   9.964  0.3348 -0.4218  0.6912
  995MOL0     N34207   6.075   7.495  10.012  0.0894 -0.7140  0.5916
  995MOL0     C34208   6.014   7.434  10.122 -1.1364 -0.7779 -0.2157
  995MOL0     C34209   6.110   7.338  10.159 -0.2181 -0.2135  0.1164
  995MOL0     C34210   6.109   7.228  10.269  0.0103  0.0584  0.1697
  995MOL0     C34211   6.220   7.269  10.368  0.2309  0.0210  0.9946
  995MOL0     C34212   6.262   7.169  10.470  0.0907  0.0441 -0.7720
  995MOL0     C34213   6.330   7.222  10.598  0.2797 -0.0411  0.2866
  995MOL0     O34214   6.398   7.351  10.578  0.8451 -0.6818 -0.2778
  995MOL0     C34215   6.450   7.403  10.694  0.2044  0.3114 -0.2075
  995MOL0     C34216   6.389   7.392  10.822 -0.8424  0.0847 -0.0717
  995MOL0     C34217   6.456   7.456  10.931  0.2583  0.2186 -0.4552
  995MOL0     C34218   6.571   7.534  10.926 -0.3049 -0.6306  0.2995
  995MOL0     C34219   6.631   7.593  11.044  0.4524  0.6126  0.0196
  995MOL0     O34220   6.763   7.630  11.028  0.3732 -0.6931  0.1594
  995MOL0     C34221   6.827   7.711  11.117 -0.2215 -0.0310  1.0401
  995MOL0     C34222   6.854   7.687  11.252 -0.0658  0.6095  0.4128
  995MOL0     C34223   6.932   7.769  11.329 -0.8573  0.1697 -0.0287
  995MOL0     C34224   6.979   7.888  11.277 -0.4875  0.5955 -0.9097
  995MOL0     O34225   7.039   7.965  11.379 -0.2883  0.5162  0.4500
  995MOL0     C34226   7.064   8.105  11.344  0.2940 -0.5168 -0.4098
  995MOL0     C34227   7.188   8.128  11.256 -0.0840 -0.2706  0.5935
  995MOL0     C34228   7.240   8.267  11.253  0.7936 -0.0065 -0.1337
  995MOL0     C34229   7.390   8.280  11.286 -0.1025  0.6339 -0.4224
  995MOL0     C34230   7.425   8.418  11.325 -0.2155 -1.3981 -0.0530
  995MOL0     C34231   7.441   8.521  11.205 -0.3562  0.1932  0.6436
  995MOL0     C34232   7.511   8.646  11.255  0.1990 -0.2724  0.4874
  995MOL0     C34233   7.667   8.641  11.287  0.5876  0.3484  0.0502
  995MOL0    Cl34234   7.705   8.802  11.352 -0.0481 -0.2857  0.2999
  995MOL0     C34235   6.952   7.915  11.143  0.4228  0.4841 -0.1390
  995MOL0     C34236   6.886   7.827  11.065 -0.0500  0.8350 -0.6556
  995MOL0     O34237   6.570   7.608  11.151  0.4965  0.0942 -0.0145
  995MOL0     C34238   6.623   7.551  10.798 -0.1332 -0.3475  0.8152
  995MOL0     C34239   6.570   7.477  10.689  0.8435 -0.4710 -0.1159
  995MOL0     N34240   6.225   7.358  10.076  0.9953  0.1109 -1.0308
  995MOL0     N34241   6.209   7.458   9.993  0.1345  0.2071  0.7382
  995MOL0     C34242   5.217   8.241   9.677 -0.5332  0.0980  0.0324
  995MOL0     C34243   5.087   8.286   9.690 -0.8465  0.4501  0.2277
  995MOL0     C34244   4.639   8.289   9.748  1.3317 -0.1158 -0.1375
  995MOL0     C34245   4.549   8.326   9.647  0.4410  0.1947 -0.7906
  995MOL0     C34246   4.410   8.327   9.666 -0.4477 -0.1017  0.0532
  995MOL0     C34247   4.358   8.291   9.793 -1.1933  0.3793 -0.3773
  995MOL0     O34248   4.232   8.282   9.826  0.9127 -0.2713  0.1181
  995MOL0     C34249   4.139   8.358   9.743 -0.4237 -0.1040  0.1647
  995MOL0     C34250   3.996   8.328   9.790 -0.2055 -0.5903 -0.3548
  995MOL0     C34251   3.968   8.184   9.792  1.0221  0.6189  0.2506
  995MOL0     C34252   3.984   8.103   9.920  0.2959 -0.9582 -0.2110
  995MOL0     C34253   3.860   8.116   9.998  0.7036  0.3001 -0.2982
  995MOL0     C34254   3.756   8.116  10.062 -0.4978  0.8944  0.5581
  995MOL0     C34255   4.448   8.255   9.896  0.0788  0.6732 -0.0336
  995MOL0     C34256   4.585   8.257   9.877  0.3449  0.4274 -0.0576
  995MOL0     C34257   4.671   8.208   9.991 -0.0696 -0.6211  1.0740
  995MOL0     H34258   4.989   8.098   9.944  0.7793 -0.7576 -0.0229
  995MOL0     H34259   5.217   7.996   9.921  1.0134  0.3302  0.0823
  995MOL0     H34260   5.507   8.179   9.620  0.0129 -1.3013 -0.5344
  995MOL0     H34261   5.497   8.268   9.766 -1.4441  0.6371 -2.3624
  995MOL0     H34262   5.635   8.082   9.875  2.7330  0.5396  0.0309
  995MOL0     H34263   5.737   8.151   9.754  1.7322 -2.1427  0.0767
  995MOL0     H34264   5.764   7.932   9.693 -1.0557 -0.5526 -0.6606
  995MOL0     H34265   5.619   7.959   9.604 -0.6781 -1.4020 -0.7367
  995MOL0     H34266   5.536   7.871   9.881 -0.7390 -1.8017  1.2804
  995MOL0     H34267   5.508   7.817   9.718  2.4602  1.6340 -3.1505
  995MOL0     H34268   5.627   7.641   9.826  0.0927  1.7471 -0.1016
  995MOL0     H34269   5.729   7.710   9.700 -1.1906 -0.0664 -0.8732
  995MOL0     H34270   5.878   7.813   9.871  0.4554 -0.0942  0.3467
  995MOL0     H34271   5.765   7.761  10.001  0.2246  1.4901  0.4877
  995MOL0     H34272   5.875   7.566   9.816  0.5282 -1.9866  2.0076
  995MOL0     H34273   5.818   7.548   9.983  0.7460 -1.2138  0.4006
  995MOL0     H34274   6.084   7.655   9.877  1.0938 -0.1921  1.2770
  995MOL0     H34275   6.026   7.704  10.041 -0.0047  3.3105 -2.7123
  995MOL0     H34276   5.927   7.460  10.183  0.7785 -1.0408  2.8402
  995MOL0     H34277   6.009   7.231  10.312  0.0887  1.8221  0.3302
  995MOL0     H34278   6.128   7.128  10.230 -1.1694 -0.3131  0.4880
  995MOL0     H34279   6.316   7.296  10.324  0.7768 -1.2270  1.3528
  995MOL0     H34280   6.188   7.363  10.413 -2.4055  0.0180 -0.6638
  995MOL0     H34281   6.335   7.102  10.424  0.7735  0.6044 -0.5165
  995MOL0     H34282   6.173   7.108  10.488 -0.9570  1.5706 -0.5604
  995MOL0     H34283   6.408   7.151  10.625 -0.5407 -0.8492  0.5750
  995MOL0     H34284   6.263   7.219  10.685 -0.6935  1.2958 -0.3709
  995MOL0     H34285   6.293   7.343  10.834 -0.3126 -0.5489  1.8394
  995MOL0     H34286   6.407   7.436  11.025 -1.7969 -2.8981 -2.0044
  995MOL0     H34287   6.820   7.595  11.299  0.0275  0.8370  0.9369
  995MOL0     H34288   6.942   7.750  11.435 -0.8093 -0.5884 -0.1663
  995MOL0     H34289   6.979   8.144  11.288  1.2755  1.8106 -0.3885
  995MOL0     H34290   7.079   8.154  11.441 -1.5122 -2.7924  1.1196
  995MOL0     H34291   7.266   8.057  11.288  0.1084 -0.6994 -0.7504
  995MOL0     H34292   7.176   8.090  11.154  5.1576  0.9080 -0.7871
  995MOL0     H34293   7.225   8.306  11.152  4.0690  0.3732 -0.5873
  995MOL0     H34294   7.179   8.320  11.327 -2.0789 -0.0570 -2.3141
  995MOL0     H34295   7.444   8.259  11.193  0.4268  0.2065 -0.0193
  995MOL0     H34296   7.425   8.211  11.363  1.4700  1.4789 -0.3501
  995MOL0     H34297   7.521   8.427  11.377 -0.1656  0.6601 -0.3994
  995MOL0     H34298   7.354   8.466  11.393  0.5412  0.9929 -0.8403
  995MOL0     H34299   7.498   8.478  11.122  1.0942  0.8902  1.2428
  995MOL0     H34300   7.341   8.547  11.172 -1.1904 -2.1038  1.1322
  995MOL0     H34301   7.469   8.671  11.353 -0.4921 -2.9534  0.9737
  995MOL0     H34302   7.482   8.718  11.179  1.7198  0.6008  0.7090
  995MOL0     H34303   7.685   8.561  11.360  0.3172  0.9109  0.7574
  995MOL0     H34304   7.720   8.624  11.194  0.2898  0.3626 -0.1236
  995MOL0     H34305   6.971   8.008  11.090  0.4054  0.0523 -0.9234
  995MOL0     H34306   6.873   7.842  10.958 -1.3440  2.7486 -0.2624
  995MOL0     H34307   6.704   7.620  10.778 -0.4887 -0.7268 -2.6401
  995MOL0     H34308   6.619   7.473  10.592  0.1731 -0.5691 -0.4537
  995MOL0     H34309   5.286   8.285   9.605  1.1382  2.4129  2.8162
  995MOL0     H34310   5.046   8.367   9.629  0.3624  2.7667  2.3031
  995MOL0     H34311   4.585   8.348   9.546  0.1187 -1.9121 -1.4093
  995MOL0     H34312   4.344   8.354   9.583 -1.6571 -1.0309  0.6699
  995MOL0     H34313   4.134   8.328   9.638  2.0828 -1.2750  0.3145
  995MOL0     H34314   4.158   8.465   9.757 -2.3921  0.0346  2.6332
  995MOL0     H34315   3.919   8.386   9.739 -1.8028 -1.5046  0.9003
  995MOL0     H34316   3.990   8.359   9.895 -0.5435  0.1751 -0.5848
  995MOL0     H34317   4.028   8.138   9.713  2.5514 -3.2485  3.3602
  995MOL0     H34318   3.863   8.174   9.765  1.0123  0.8894  0.1787
  995MOL0     H34319   4.009   7.999   9.896  0.7914 -0.8364 -0.2226
  995MOL0     H34320   4.069   8.145   9.974 -1.9955 -0.7185  3.5427
  995MOL0     H34321   3.666   8.130  10.118  1.1699  1.0914  3.3380
  995MOL0     H34322   4.423   8.215   9.994  4.9324 -1.3596  0.6495
  995MOL0     H34323   4.726   8.295  10.028 -2.4740  1.6717 -0.3566
  995MOL0     H34324   4.612   8.186  10.080 -0.9884  3.5997  1.7218
  995MOL0     H34325   4.737   8.124   9.967 -1.2586 -0.8309 -1.9123
  996MOL0     O34326   2.237   6.056   9.288 -0.4497 -0.1546 -0.0430
  996MOL0     C34327   2.186   6.167   9.289 -0.4651 -0.2228  0.3509
  996MOL0     O34328   2.182   6.240   9.400  0.3015  0.0782 -0.3203
  996MOL0     C34329   2.248   6.198   9.518  0.7368 -0.0042  0.2080
  996MOL0     C34330   2.383   6.158   9.517 -0.1653  0.1934 -0.0659
  996MOL0     C34331   2.445   6.126   9.636 -0.2392  0.4667  0.2123
  996MOL0     C34332   2.375   6.125   9.756  0.2554  0.7026 -0.2144
  996MOL0     O34333   2.450   6.096   9.867 -0.1930  0.6944 -0.1954
  996MOL0     C34334   2.404   6.151   9.995  0.0481  0.6135  0.4702
  996MOL0     C34335   2.418   6.300  10.001 -0.1886 -0.2192  0.3018
  996MOL0     C34336   2.564   6.339  10.008  0.0614  0.4122  0.3155
  996MOL0     C34337   2.637   6.306  10.146  0.4929  0.4524  0.3948
  996MOL0     C34338   2.774   6.375  10.135  0.4331 -0.2720 -0.0986
  996MOL0     C34339   2.771   6.525  10.175 -0.0142 -0.4854 -0.4166
  996MOL0     C34340   2.915   6.562  10.225  0.0838  0.0233  0.4052
  996MOL0     C34341   2.939   6.713  10.218  0.6361  0.7794  0.3542
  996MOL0     N34342   3.074   6.754  10.266  0.2166  0.0691  0.1960
  996MOL0     C34343   3.176   6.742  10.177  1.0726 -0.8918  0.0824
  996MOL0     C34344   3.290   6.786  10.246 -0.6979 -0.0421  0.2121
  996MOL0     C34345   3.423   6.785  10.193  0.1250  0.3774 -0.6365
  996MOL0     C34346   3.466   6.904  10.111  0.1067  0.1145 -0.5035
  996MOL0     C34347   3.608   6.885  10.061 -0.1543  0.7891  0.4001
  996MOL0     C34348   3.713   6.936  10.153  0.3109  0.1561  0.4131
  996MOL0     O34349   3.832   6.891  10.095 -0.1866  0.4710  0.1560
  996MOL0     C34350   3.905   6.798  10.155  0.6372  0.7442 -0.4978
  996MOL0     C34351   3.862   6.703  10.255  0.4817  0.1751 -0.1310
  996MOL0     C34352   3.953   6.606  10.302  0.3046  0.3817  0.3565
  996MOL0     C34353   4.084   6.601  10.243  0.1210  0.2968 -0.1402
  996MOL0     C34354   4.184   6.518  10.298  0.4743 -0.5910 -0.8893
  996MOL0     O34355   4.136   6.402  10.349  0.5849  0.1474  0.4432
  996MOL0     C34356   4.215   6.343  10.444 -0.4653 -0.5553 -1.2290
  996MOL0     C34357   4.299   6.234  10.412 -0.3423 -0.0113  0.3449
  996MOL0     C34358   4.374   6.174  10.508 -0.1971 -0.3314 -0.5713
  996MOL0     C34359   4.375   6.207  10.643  0.7837  0.2475 -0.3018
  996MOL0     O34360   4.456   6.149  10.736 -0.3530 -0.5716  0.4032
  996MOL0     C34361   4.482   6.012  10.739  0.5120  0.0530  0.0881
  996MOL0     C34362   4.612   6.000  10.817  0.5606 -0.0221  0.2981
  996MOL0     C34363   4.737   6.053  10.749 -0.2911 -0.4156  1.1117
  996MOL0     C34364   4.783   5.981  10.626  0.6489 -0.0422 -0.2262
  996MOL0     C34365   4.888   6.057  10.551  0.0302 -0.6513 -0.1695
  996MOL0     C34366   5.023   6.083  10.627 -0.0143 -0.3372  0.3357
  996MOL0     C34367   5.130   6.125  10.524  0.0975 -0.3413  0.1210
  996MOL0     C34368   5.228   6.014  10.479 -0.0355 -0.3464 -0.9477
  996MOL0    Cl34369   5.324   6.040  10.324 -0.1103 -0.7084 -0.1164
  996MOL0     C34370   4.277   6.302  10.684 -0.1560 -1.0801  0.6331
  996MOL0     C34371   4.204   6.365  10.580 -0.0778  0.1419 -0.3929
  996MOL0     O34372   4.301   6.549  10.301 -0.4355 -0.2074 -0.7422
  996MOL0     C34373   4.132   6.700  10.155  0.3082 -0.0200 -0.5437
  996MOL0     C34374   4.039   6.798  10.109 -0.5109  0.4230  0.2655
  996MOL0     N34375   3.248   6.845  10.359 -0.5280  0.4475  0.2549
  996MOL0     N34376   3.124   6.818  10.371  0.6614 -0.5254 -0.3572
  996MOL0     C34377   2.243   6.164   9.758  0.2603 -0.2790  0.3610
  996MOL0     C34378   2.179   6.202   9.635  0.2331  0.2834 -0.3493
  996MOL0     C34379   2.118   6.229   9.173 -0.0758 -0.7341  0.0260
  996MOL0     C34380   2.012   6.321   9.203 -0.5522 -0.5892  0.6801
  996MOL0     C34381   1.935   6.368   9.098  0.3424 -0.0393  0.6242
  996MOL0     C34382   1.950   6.329   8.967 -0.9036 -0.1101  0.8308
  996MOL0     O34383   1.865   6.374   8.862 -0.3729  0.3706 -0.2458
  996MOL0     C34384   1.729   6.384   8.885 -0.5754  0.1851  0.6947
  996MOL0     C34385   1.645   6.323   8.769 -0.5156  0.6007 -0.4108
  996MOL0     C34386   1.713   6.203   8.700  0.5260 -0.0494 -0.0025
  996MOL0     C34387   1.617   6.133   8.596 -0.5287  0.5208 -0.5546
  996MOL0     C34388   1.702   6.038   8.513  0.0678 -0.6592 -0.2923
  996MOL0     C34389   1.761   5.956   8.439  0.1221 -0.6012  0.7051
  996MOL0     C34390   2.061   6.246   8.936 -0.4478 -0.1481 -0.5528
  996MOL0     C34391   2.137   6.186   9.040 -0.8451 -0.4522  0.7045
  996MOL0     C34392   2.256   6.110   9.000 -0.4114 -0.2153  0.1009
  996MOL0     H34393   2.439   6.136   9.428  0.8661 -1.5285  0.9615
  996MOL0     H34394   2.546   6.094   9.610 -0.8072  0.9346 -2.9760
  996MOL0     H34395   2.298   6.125  10.003  0.2514  0.2150  2.3707
  996MOL0     H34396   2.457   6.098  10.074 -1.2744 -0.6297  0.5674
  996MOL0     H34397   2.371   6.342  10.090  3.0556 -0.3911  2.2489
  996MOL0     H34398   2.371   6.336   9.909  0.4372 -0.7558 -0.2451
  996MOL0     H34399   2.564   6.446   9.985 -1.3246 -0.0048 -1.9752
  996MOL0     H34400   2.612   6.306   9.915 -1.0385  1.9781 -0.8727
  996MOL0     H34401   2.580   6.337  10.234 -0.0646  1.5012 -0.3201
  996MOL0     H34402   2.661   6.200  10.154 -0.2388  0.2077 -0.6028
  996MOL0     H34403   2.823   6.313  10.210  0.5684 -0.5250 -0.3943
  996MOL0     H34404   2.829   6.361  10.042 -1.3975  0.4033 -1.3347
  996MOL0     H34405   2.750   6.580  10.082  5.3431  1.9015 -0.5836
  996MOL0     H34406   2.707   6.548  10.260 -0.5053 -1.6019 -0.4696
  996MOL0     H34407   2.985   6.503  10.165 -1.6098 -1.3465 -0.3074
  996MOL0     H34408   2.922   6.530  10.330 -2.8213 -3.0348 -0.1645
  996MOL0     H34409   2.918   6.745  10.115  1.6054  1.7545  0.4463
  996MOL0     H34410   2.868   6.755  10.289 -1.1591 -0.2111 -0.7632
  996MOL0     H34411   3.165   6.716  10.072 -0.1864  6.0004 -2.0154
  996MOL0     H34412   3.497   6.764  10.271 -0.4008 -1.5018 -0.5933
  996MOL0     H34413   3.423   6.698  10.126 -0.0443 -0.8146  0.8610
  996MOL0     H34414   3.401   6.925  10.026  3.7082  0.3420 -3.4707
  996MOL0     H34415   3.472   6.994  10.173  1.4102  0.2900 -0.8561
  996MOL0     H34416   3.610   6.949   9.973 -0.6548  0.3881  0.0902
  996MOL0     H34417   3.625   6.777  10.054 -0.5870  0.7411  0.1274
  996MOL0     H34418   3.682   6.914  10.256 -3.0991  2.1336 -0.0298
  996MOL0     H34419   3.711   7.045  10.144 -1.0249  0.0043 -1.7306
  996MOL0     H34420   3.761   6.694  10.294  0.0341  1.9297 -0.7814
  996MOL0     H34421   3.929   6.531  10.377  0.2752 -2.5766 -2.4061
  996MOL0     H34422   4.312   6.199  10.310  0.2383 -0.0109  0.4161
  996MOL0     H34423   4.442   6.095  10.480  2.6067  0.7919  2.3976
  996MOL0     H34424   4.403   5.954  10.788 -2.7435  2.6409 -1.6855
  996MOL0     H34425   4.496   5.967  10.641  1.5683 -1.7408  1.0021
  996MOL0     H34426   4.611   6.051  10.914  1.0040 -0.7930  0.7199
  996MOL0     H34427   4.634   5.895  10.838  1.7761  1.0086  5.6747
  996MOL0     H34428   4.716   6.156  10.718  1.7390  0.0173  1.0728
  996MOL0     H34429   4.817   6.057  10.824  0.1869 -0.6041  0.6130
  996MOL0     H34430   4.705   5.973  10.550  1.6912 -3.7008 -1.1185
  996MOL0     H34431   4.814   5.878  10.648 -0.6295  0.0571  2.5356
  996MOL0     H34432   4.850   6.158  10.535 -1.3141 -0.7693  1.8839
  996MOL0     H34433   4.900   6.011  10.452  0.8499 -3.3061  1.0799
  996MOL0     H34434   5.007   6.174  10.687  1.7525 -0.4632  1.0520
  996MOL0     H34435   5.037   5.999  10.696  2.2374 -1.4390 -1.3510
  996MOL0     H34436   5.195   6.203  10.564  3.7918 -0.7413 -4.3220
  996MOL0     H34437   5.077   6.162  10.436 -0.9585  0.7468  1.1764
  996MOL0     H34438   5.299   6.004  10.561 -0.6194  0.5535 -0.3103
  996MOL0     H34439   5.176   5.920  10.460  2.7381 -1.9399 -1.1208
  996MOL0     H34440   4.262   6.328  10.788  1.0297 -0.7191  0.7372
  996MOL0     H34441   4.125   6.437  10.599 -0.1143  0.1210 -0.4651
  996MOL0     H34442   4.232   6.691  10.113  0.8368  0.2308  0.6018
  996MOL0     H34443   4.069   6.878  10.042  0.5190  1.2958  1.6940
  996MOL0     H34444   2.178   6.184   9.843 -0.0291  0.9905 -0.1329
  996MOL0     H34445   2.074   6.229   9.633  0.5878  1.7356 -2.0993
  996MOL0     H34446   2.000   6.372   9.299  1.8023  2.4666 -0.4673
  996MOL0     H34447   1.848   6.423   9.131  0.0131  0.7313 -1.3463
  996MOL0     H34448   1.698   6.488   8.900  1.0686  0.6799  0.8776
  996MOL0     H34449   1.700   6.338   8.979 -0.7272 -1.7899 -0.2575
  996MOL0     H34450   1.635   6.410   8.702  3.7061  1.1659 -0.5751
  996MOL0     H34451   1.548   6.292   8.809 -0.5300  1.2263  0.0547
  996MOL0     H34452   1.734   6.130   8.779 -1.3808  0.3023  0.9082
  996MOL0     H34453   1.805   6.226   8.646  0.6290 -1.4112 -0.4489
  996MOL0     H34454   1.544   6.079   8.657  1.2870  0.5171  1.7384
  996MOL0     H34455   1.561   6.201   8.531  1.0375  2.2399 -0.1932
  996MOL0     H34456   1.809   5.887   8.373 -2.7552 -0.2908 -1.9709
  996MOL0     H34457   2.077   6.223   8.831  1.9204 -0.1754 -0.2387
  996MOL0     H34458   2.346   6.169   9.021  0.0505 -0.6757 -0.5153
  996MOL0     H34459   2.268   6.012   9.048  1.3838 -0.4235 -0.6881
  996MOL0     H34460   2.262   6.097   8.891  2.1449  2.1447 -0.1325
  997MOL0     O34461   3.370   0.761   9.442  0.0078  0.5974 -0.0021
  997MOL0     C34462   3.362   0.882   9.424  0.8513  0.0291 -0.0806
  997MOL0     O34463   3.465   0.962   9.387  0.4364  0.9553 -0.1515
  997MOL0     C34464   3.586   0.916   9.436  0.6842  1.1072 -0.5150
  997MOL0     C34465   3.611   0.899   9.577 -0.1000  0.3562 -0.0742
  997MOL0     C34466   3.729   0.848   9.625 -0.5202 -0.2998 -0.3906
  997MOL0     C34467   3.835   0.817   9.532 -0.2455  1.3620 -0.1688
  997MOL0     O34468   3.961   0.776   9.559  0.0688 -0.0207  0.3398
  997MOL0     C34469   3.966   0.694   9.674 -0.3930  0.1468  0.2655
  997MOL0     C34470   4.090   0.605   9.685  0.0177  0.4215 -0.4520
  997MOL0     C34471   4.211   0.696   9.722 -0.4800  0.8045  0.6020
  997MOL0     C34472   4.336   0.596   9.747  0.4707  0.0073 -0.0449
  997MOL0     C34473   4.468   0.674   9.774 -0.5951  0.2943 -0.0151
  997MOL0     C34474   4.560   0.592   9.859  0.1271 -0.7990 -0.0764
  997MOL0     C34475   4.707   0.651   9.863  0.5229  1.1201 -0.0332
  997MOL0     C34476   4.780   0.604   9.983  0.9312 -0.6267  0.1795
  997MOL0     N34477   4.917   0.660   9.994 -0.1941 -0.3155  0.2849
  997MOL0     C34478   4.982   0.770   9.934 -0.2647 -0.2662  0.6582
  997MOL0     C34479   5.111   0.767   9.981  0.0156  0.2102 -0.3782
  997MOL0     C34480   5.225   0.845   9.927  0.6329  0.8025  0.0378
  997MOL0     C34481   5.296   0.928  10.031  0.3672 -0.6493 -0.6407
  997MOL0     C34482   5.411   1.007   9.971  0.0280 -1.0043  0.8069
  997MOL0     C34483   5.512   1.040  10.080 -0.7405  0.4095 -0.0553
  997MOL0     O34484   5.606   0.936  10.092  0.0965  0.2746  0.3718
  997MOL0     C34485   5.718   0.946  10.177  0.0077  0.3444  0.2446
  997MOL0     C34486   5.730   1.023  10.287  0.5370 -0.4965 -0.5215
  997MOL0     C34487   5.838   1.004  10.376 -0.6783 -0.3833 -0.7054
  997MOL0     C34488   5.948   0.932  10.349  0.1333  0.6240  0.3877
  997MOL0     C34489   6.056   0.925  10.437 -0.0130 -0.4581 -0.3118
  997MOL0     O34490   6.166   0.855  10.410 -0.1878 -0.1146 -0.0921
  997MOL0     C34491   6.274   0.870  10.491 -0.5434 -0.7540  0.1052
  997MOL0     C34492   6.342   0.988  10.505  0.2896 -0.1927  0.4761
  997MOL0     C34493   6.452   0.991  10.594 -0.4053 -0.5915  0.4868
  997MOL0     C34494   6.508   0.878  10.652 -0.1649  0.3822  0.0482
  997MOL0     O34495   6.622   0.875  10.730  0.0793 -0.0046 -0.3830
  997MOL0     C34496   6.711   0.994  10.736 -0.8111  0.4290  0.5560
  997MOL0     C34497   6.851   0.939  10.759 -0.2143  0.1586  0.1393
  997MOL0     C34498   6.887   0.838  10.643  1.1483  0.1578 -0.1518
  997MOL0     C34499   7.036   0.810  10.638 -0.3857  0.6312 -0.2578
  997MOL0     C34500   7.089   0.712  10.528 -0.3903 -0.3776  0.0008
  997MOL0     C34501   7.121   0.777  10.396 -0.0410 -0.0062  0.1380
  997MOL0     C34502   7.261   0.851  10.404 -0.1097  0.1497  0.2225
  997MOL0     C34503   7.320   0.918  10.286 -0.3325  0.7340 -0.4528
  997MOL0    Cl34504   7.446   1.027  10.353  0.1662  0.1429 -0.1279
  997MOL0     C34505   6.434   0.762  10.642  0.6391 -0.4813  0.4691
  997MOL0     C34506   6.313   0.751  10.567  0.1438 -0.7700  0.3232
  997MOL0     O34507   6.035   0.985  10.544  0.2727 -0.5959 -0.3574
  997MOL0     C34508   5.937   0.857  10.228  0.2686  0.5243  0.6054
  997MOL0     C34509   5.824   0.859  10.144 -0.0629  0.3639  0.2787
  997MOL0     N34510   5.112   0.672  10.081  1.1998 -0.0193 -0.2654
  997MOL0     N34511   5.005   0.612  10.083 -0.6164 -0.3846 -0.2069
  997MOL0     C34512   3.809   0.826   9.391  0.0024 -0.7987 -0.3089
  997MOL0     C34513   3.690   0.876   9.345 -0.1053  0.5581  0.1513
  997MOL0     C34514   3.228   0.946   9.424  0.0565 -0.0517  0.4578
  997MOL0     C34515   3.215   1.088   9.391  0.0424 -0.7436  0.6924
  997MOL0     C34516   3.084   1.147   9.391 -0.9795  0.8900  0.5350
  997MOL0     C34517   2.970   1.072   9.426 -0.5135 -0.2920 -0.9026
  997MOL0     O34518   2.845   1.133   9.438  0.0830 -0.6314  0.4737
  997MOL0     C34519   2.843   1.274   9.471 -0.7792  0.4625 -0.3049
  997MOL0     C34520   2.700   1.321   9.483  0.6193  1.0569 -0.4672
  997MOL0     C34521   2.629   1.274   9.612 -0.1282 -0.4094 -0.1769
  997MOL0     C34522   2.489   1.347   9.628 -1.0334 -0.1710 -1.4905
  997MOL0     C34523   2.394   1.304   9.529 -0.5121  0.1020  0.3472
  997MOL0     C34524   2.318   1.259   9.446 -0.9352  0.4450 -0.6297
  997MOL0     C34525   2.984   0.942   9.456  0.0291  0.3244 -0.4365
  997MOL0     C34526   3.112   0.881   9.463 -0.8390  1.2806 -0.3615
  997MOL0     C34527   3.108   0.739   9.492 -0.1693  0.8454 -0.2872
  997MOL0     H34528   3.536   0.932   9.648 -0.0609 -2.6930  1.5302
  997MOL0     H34529   3.742   0.840   9.733  0.1305 -2.1153 -0.5706
  997MOL0     H34530   3.977   0.757   9.763  2.5388 -0.0870  0.1602
  997MOL0     H34531   3.876   0.633   9.687 -1.7303  1.1357 -3.2094
  997MOL0     H34532   4.116   0.538   9.603  2.2040  0.4509  0.1369
  997MOL0     H34533   4.078   0.550   9.778  1.5964  1.6353  0.5422
  997MOL0     H34534   4.207   0.747   9.819  0.7404  3.1547 -0.4937
  997MOL0     H34535   4.233   0.775   9.649 -2.1547  2.5126  1.8344
  997MOL0     H34536   4.314   0.540   9.838  1.5845  0.7030  0.6767
  997MOL0     H34537   4.345   0.527   9.663 -1.1194 -0.9843  0.5632
  997MOL0     H34538   4.516   0.694   9.677 -1.6735 -0.8197 -0.8083
  997MOL0     H34539   4.447   0.760   9.838  0.4104  1.1659 -0.7931
  997MOL0     H34540   4.520   0.575   9.960 -3.9553 -1.1361 -1.5432
  997MOL0     H34541   4.571   0.496   9.807 -3.8713  0.0955 -3.0699
  997MOL0     H34542   4.693   0.759   9.865 -1.5214  0.9156 -0.7980
  997MOL0     H34543   4.760   0.628   9.770  1.0238 -1.6640  0.8437
  997MOL0     H34544   4.719   0.619  10.073 -2.1083  1.1501 -1.9977
  997MOL0     H34545   4.797   0.496   9.988  1.3245 -0.5666  0.1685
  997MOL0     H34546   4.945   0.827   9.849 -0.2520  0.8770  1.4008
  997MOL0     H34547   5.291   0.776   9.873  0.0147 -0.5027  0.8979
  997MOL0     H34548   5.178   0.920   9.863  0.0215 -0.1030 -0.6018
  997MOL0     H34549   5.216   0.986  10.077 -1.7347 -1.2506 -3.2500
  997MOL0     H34550   5.338   0.855  10.101  4.0190  2.1130  0.3701
  997MOL0     H34551   5.361   1.101   9.946  0.3644 -0.3364  2.5389
  997MOL0     H34552   5.455   0.955   9.885  2.2407  1.4542  0.3400
  997MOL0     H34553   5.452   1.054  10.171 -1.6491  1.3823 -0.7775
  997MOL0     H34554   5.572   1.124  10.042  0.0734 -0.0814  0.1267
  997MOL0     H34555   5.647   1.088  10.310  1.0624  0.3769 -1.0166
  997MOL0     H34556   5.846   1.068  10.463  1.0482  0.7736 -1.6567
  997MOL0     H34557   6.310   1.081  10.458  0.7670  0.4675  1.4265
  997MOL0     H34558   6.499   1.089  10.599 -0.5532 -0.5114  0.3257
  997MOL0     H34559   6.724   1.052  10.644  0.0539  1.0618  1.0551
  997MOL0     H34560   6.683   1.060  10.819  3.3195 -0.9434  3.3509
  997MOL0     H34561   6.922   1.021  10.749  2.0480 -1.8558 -1.5633
  997MOL0     H34562   6.851   0.901  10.861 -1.5635  1.6614  0.7425
  997MOL0     H34563   6.818   0.754  10.646  1.1352  0.1837  0.8444
  997MOL0     H34564   6.872   0.885  10.546 -3.3333 -5.4599 -2.7251
  997MOL0     H34565   7.066   0.766  10.734 -1.0454 -1.2181 -0.8574
  997MOL0     H34566   7.090   0.906  10.633 -1.2866  1.3237  1.9362
  997MOL0     H34567   7.017   0.631  10.514  0.0700 -1.5670  3.5117
  997MOL0     H34568   7.179   0.670  10.574 -0.2249  0.2352  0.2457
  997MOL0     H34569   7.127   0.703  10.316 -1.2840 -1.1607  1.0511
  997MOL0     H34570   7.035   0.842  10.377  0.0517  0.2359  0.5203
  997MOL0     H34571   7.328   0.773  10.442 -0.9954 -1.2816 -1.0397
  997MOL0     H34572   7.255   0.928  10.481 -0.8228  1.5836 -1.2135
  997MOL0     H34573   7.373   0.851  10.218  1.3617  1.7180 -0.1569
  997MOL0     H34574   7.239   0.981  10.248 -1.2347  0.7797  1.4289
  997MOL0     H34575   6.468   0.669  10.687 -0.1901 -0.8626  0.3185
  997MOL0     H34576   6.239   0.671  10.560 -2.4645  1.6469 -2.4226
  997MOL0     H34577   6.020   0.794  10.197 -1.0776 -1.1392  0.3003
  997MOL0     H34578   5.820   0.804  10.051 -0.5857  1.2002 -0.2095
  997MOL0     H34579   3.879   0.793   9.316 -0.2574 -0.3234 -0.7640
  997MOL0     H34580   3.650   0.863   9.245  1.0391  2.0901 -0.5470
  997MOL0     H34581   3.289   1.165   9.369 -0.5329 -0.8922 -2.2703
  997MOL0     H34582   3.088   1.250   9.356  1.9993  0.0438 -2.0249
  997MOL0     H34583   2.887   1.338   9.394 -0.0619  0.0281 -0.2737
  997MOL0     H34584   2.899   1.292   9.564 -2.8904  0.2831  1.0632
  997MOL0     H34585   2.645   1.288   9.394 -0.8586  2.4903 -0.1434
  997MOL0     H34586   2.711   1.430   9.479  0.8172  1.0031 -2.4559
  997MOL0     H34587   2.693   1.294   9.698  0.4259 -1.0212 -0.4363
  997MOL0     H34588   2.612   1.166   9.606  0.5969 -0.5583  0.3319
  997MOL0     H34589   2.458   1.317   9.729 -0.2754  2.9701 -0.2113
  997MOL0     H34590   2.506   1.454   9.642  2.0850 -0.7194 -0.2042
  997MOL0     H34591   2.264   1.200   9.376  0.4108 -2.5811  0.7046
  997MOL0     H34592   2.898   0.879   9.478  0.7838 -0.9566 -0.9928
  997MOL0     H34593   3.012   0.709   9.534  0.1871  1.3211  0.9051
  997MOL0     H34594   3.122   0.696   9.392  3.5148  0.7596  0.1170
  997MOL0     H34595   3.182   0.705   9.565 -0.7544 -1.7768 -0.8296
  998MOL0     O34596   3.839   9.357   7.446 -0.1002 -0.5483  0.6626
  998MOL0     C34597   3.790   9.247   7.461 -0.3714  0.3778 -0.5920
  998MOL0     O34598   3.842   9.152   7.546  0.0011 -0.3320 -0.0577
  998MOL0     C34599   3.969   9.170   7.603 -0.6743 -0.0743 -0.0315
  998MOL0     C34600   4.081   9.092   7.557  1.0491  0.3829 -0.3249
  998MOL0     C34601   4.213   9.106   7.611 -0.2979  0.4637 -0.6064
  998MOL0     C34602   4.230   9.187   7.730 -0.3432  0.3306  0.6573
  998MOL0     O34603   4.341   9.198   7.797 -0.8490  0.2436 -0.3275
  998MOL0     C34604   4.434   9.086   7.783  0.7412  0.3151 -0.6905
  998MOL0     C34605   4.561   9.108   7.852 -0.0777 -0.2445  0.0198
  998MOL0     C34606   4.554   9.088   8.013  0.5821  0.0753 -0.1492
  998MOL0     C34607   4.690   9.054   8.078  0.1362 -0.8838  0.2862
  998MOL0     C34608   4.693   9.021   8.227 -0.3004 -0.0038  0.1214
  998MOL0     C34609   4.833   9.011   8.259 -0.2208 -0.5687  0.2164
  998MOL0     C34610   4.862   8.973   8.409 -0.9098  0.3508  0.1299
  998MOL0     C34611   5.010   8.998   8.440 -0.3030  0.2571  0.1024
  998MOL0     N34612   5.040   8.968   8.577  0.3798  0.4269 -0.7237
  998MOL0     C34613   5.009   9.049   8.690 -0.0052 -0.2522  0.3961
  998MOL0     C34614   5.040   8.960   8.789  0.1975  0.3407 -0.3460
  998MOL0     C34615   5.014   9.006   8.937 -0.4834 -0.4598 -0.0676
  998MOL0     C34616   5.134   8.986   9.017  0.3510  0.6594 -0.7727
  998MOL0     C34617   5.127   8.844   9.089  0.1174  0.3341 -0.1181
  998MOL0     C34618   5.244   8.794   9.168 -0.0802  0.9282 -0.3008
  998MOL0     O34619   5.274   8.887   9.274 -0.0054 -0.0258 -0.7120
  998MOL0     C34620   5.389   8.962   9.264 -0.0925 -0.0393  0.6850
  998MOL0     C34621   5.389   9.098   9.305  0.0640  0.7197  0.3641
  998MOL0     C34622   5.503   9.178   9.309  0.4997 -0.4191  0.8390
  998MOL0     C34623   5.624   9.126   9.240  0.7262 -0.0226  0.3088
  998MOL0     C34624   5.754   9.203   9.221 -0.4914 -0.4444 -0.0892
  998MOL0     O34625   5.863   9.138   9.194  0.1570  0.0306  0.1006
  998MOL0     C34626   5.987   9.203   9.167 -0.0505  0.1688  0.1211
  998MOL0     C34627   5.997   9.297   9.072 -0.3443 -0.5422 -1.0044
  998MOL0     C34628   6.116   9.371   9.054 -0.8415  0.6183 -0.0137
  998MOL0     C34629   6.238   9.320   9.108  0.2652  0.4711 -0.5296
  998MOL0     O34630   6.364   9.381   9.096  1.0572  0.9753  0.0415
  998MOL0     C34631   6.369   9.526   9.099  0.2471 -0.4956 -0.7579
  998MOL0     C34632   6.507   9.561   9.168 -0.0373 -0.6210  0.3405
  998MOL0     C34633   6.516   9.712   9.189  1.1088 -0.1569  0.1423
  998MOL0     C34634   6.411   9.765   9.288 -0.9395  0.1581  0.2253
  998MOL0     C34635   6.313   9.862   9.223  0.3669  0.1209 -0.7716
  998MOL0     C34636   6.236   9.935   9.329 -0.1808 -0.6994 -0.0849
  998MOL0     C34637   6.113  10.006   9.268  1.0489 -0.8219  0.0208
  998MOL0     C34638   6.031  10.087   9.371 -0.3499 -0.1866  0.0665
  998MOL0    Cl34639   5.967   9.985   9.509 -0.3199 -0.4889 -0.4629
  998MOL0     C34640   6.226   9.211   9.197  0.6967 -0.5644 -0.9962
  998MOL0     C34641   6.099   9.160   9.233 -0.2216 -0.3911 -0.2335
  998MOL0     O34642   5.749   9.325   9.224  0.2957  0.0040  0.2008
  998MOL0     C34643   5.615   8.986   9.201 -0.0534  0.3334 -1.0383
  998MOL0     C34644   5.503   8.908   9.212  0.2805 -0.6762 -0.4596
  998MOL0     N34645   5.088   8.841   8.737 -0.1311 -0.1281 -0.5475
  998MOL0     N34646   5.084   8.843   8.613  0.0880 -0.9112  0.0668
  998MOL0     C34647   4.125   9.266   7.768  0.1802 -0.9002 -0.2951
  998MOL0     C34648   3.997   9.257   7.708  0.0822 -0.4075 -0.1567
  998MOL0     C34649   3.651   9.242   7.423 -0.2521 -0.0364  0.1493
  998MOL0     C34650   3.572   9.134   7.478 -0.9627 -0.9068  0.4021
  998MOL0     C34651   3.437   9.119   7.456 -0.6947  0.0898  0.8590
  998MOL0     C34652   3.375   9.225   7.385  0.0075  1.0774 -0.6591
  998MOL0     O34653   3.243   9.236   7.372 -0.1397  0.3070  0.0025
  998MOL0     C34654   3.146   9.135   7.378  0.2794  0.1988  1.4644
  998MOL0     C34655   3.082   9.099   7.243 -0.5562  0.4162 -0.2490
  998MOL0     C34656   3.019   9.220   7.174 -0.2181 -0.0424 -0.4157
  998MOL0     C34657   2.879   9.257   7.233  0.3456 -0.1569 -0.5144
  998MOL0     C34658   2.828   9.376   7.162  0.8782  0.5191  1.0325
  998MOL0     C34659   2.803   9.465   7.083  0.5925 -0.1582  0.9627
  998MOL0     C34660   3.447   9.324   7.324 -0.1605  0.3457 -1.1481
  998MOL0     C34661   3.583   9.333   7.345  0.1143  0.2151 -0.0971
  998MOL0     C34662   3.644   9.442   7.262 -0.8088 -0.1174 -0.5192
  998MOL0     H34663   4.070   9.025   7.473 -3.6101 -0.2861  0.5470
  998MOL0     H34664   4.284   9.037   7.566 -0.5951 -0.8492  0.8418
  998MOL0     H34665   4.391   8.992   7.817  2.2396  0.5694  2.2164
  998MOL0     H34666   4.464   9.075   7.678  0.4115 -1.1468 -0.6569
  998MOL0     H34667   4.599   9.210   7.838  1.7603 -0.6520  1.5355
  998MOL0     H34668   4.627   9.034   7.806  0.7308 -0.3594  1.3101
  998MOL0     H34669   4.476   9.015   8.041 -0.9055  1.0851 -1.4599
  998MOL0     H34670   4.532   9.182   8.064  2.8249  0.9238 -0.6218
  998MOL0     H34671   4.727   8.958   8.041 -4.4486 -2.9638  0.4437
  998MOL0     H34672   4.761   9.134   8.054 -2.2611  1.1775 -0.4076
  998MOL0     H34673   4.656   9.101   8.291 -0.8529  0.4559 -0.7494
  998MOL0     H34674   4.637   8.927   8.238 -3.9298  2.0809  0.8761
  998MOL0     H34675   4.881   8.939   8.192 -1.4656  0.5844 -2.0152
  998MOL0     H34676   4.880   9.107   8.236 -1.1146  0.2396  1.6270
  998MOL0     H34677   4.840   8.867   8.423 -0.4269  0.4378  1.6774
  998MOL0     H34678   4.796   9.010   8.488 -0.7616 -1.9866  1.4503
  998MOL0     H34679   5.077   8.944   8.373  1.4709  0.9424  1.2449
  998MOL0     H34680   5.024   9.104   8.418 -1.1018  0.2110 -0.6737
  998MOL0     H34681   4.985   9.155   8.695  2.1495  0.5253 -2.5887
  998MOL0     H34682   5.008   9.115   8.931  1.5070 -0.2635  0.7690
  998MOL0     H34683   4.923   8.971   8.986  1.1012 -2.4387  1.6426
  998MOL0     H34684   5.227   8.992   8.960 -0.1713 -4.0907 -2.6005
  998MOL0     H34685   5.127   9.057   9.100 -1.0230  0.7349 -0.9188
  998MOL0     H34686   5.106   8.764   9.017 -0.5782  3.0751 -3.2471
  998MOL0     H34687   5.032   8.837   9.143 -1.6294 -1.2055 -3.0976
  998MOL0     H34688   5.323   8.775   9.094  1.6667  1.0271  1.4545
  998MOL0     H34689   5.231   8.693   9.206 -0.7710  1.5654  1.2286
  998MOL0     H34690   5.306   9.140   9.360  0.2123  0.4682  0.7887
  998MOL0     H34691   5.511   9.270   9.367 -0.7643 -0.4497  1.0850
  998MOL0     H34692   5.907   9.311   9.013 -0.6619 -2.3082 -0.9764
  998MOL0     H34693   6.123   9.457   8.988  1.8121 -0.3998 -1.2215
  998MOL0     H34694   6.366   9.575   9.002  2.5272 -0.0163 -0.6411
  998MOL0     H34695   6.285   9.560   9.161  0.5375 -0.6305 -0.2827
  998MOL0     H34696   6.521   9.509   9.263  0.9795 -2.6764 -0.8505
  998MOL0     H34697   6.592   9.530   9.107  0.9384 -2.1527  2.3746
  998MOL0     H34698   6.614   9.753   9.213  0.5095 -0.4453  3.5991
  998MOL0     H34699   6.491   9.756   9.092  3.2202 -0.2403 -0.4897
  998MOL0     H34700   6.465   9.808   9.373  0.4860 -2.8726  0.9596
  998MOL0     H34701   6.352   9.680   9.323 -4.0173  1.6842 -0.7983
  998MOL0     H34702   6.238   9.805   9.166 -1.4809  1.4107  0.2386
  998MOL0     H34703   6.378   9.930   9.167  1.8088 -1.3728 -0.9602
  998MOL0     H34704   6.210   9.880   9.420 -1.6280  2.4627  1.5698
  998MOL0     H34705   6.290  10.014   9.383  1.1732 -2.6758  1.6066
  998MOL0     H34706   6.043   9.924   9.246 -1.0222 -0.9117  5.3130
  998MOL0     H34707   6.136  10.071   9.183 -5.5728 -2.7350 -4.0176
  998MOL0     H34708   6.077  10.176   9.415 -0.8263  0.3969 -0.5754
  998MOL0     H34709   5.953  10.125   9.304  1.2288  0.7772 -1.3150
  998MOL0     H34710   6.316   9.182   9.250  1.1606  2.3756 -0.0129
  998MOL0     H34711   6.082   9.090   9.314 -0.4114  0.8462  0.8262
  998MOL0     H34712   5.703   8.944   9.153 -1.4714  0.4755 -3.9994
  998MOL0     H34713   5.507   8.808   9.171 -0.0970 -0.5124 -0.9062
  998MOL0     H34714   4.135   9.330   7.856 -0.8717 -1.7732  0.4935
  998MOL0     H34715   3.928   9.327   7.754  0.8003  1.5836 -2.0015
  998MOL0     H34716   3.626   9.070   7.547  1.7163 -0.8099 -1.4523
  998MOL0     H34717   3.384   9.036   7.501 -0.3993 -0.5166  0.1182
  998MOL0     H34718   3.062   9.169   7.440 -1.0965  0.2332 -0.3318
  998MOL0     H34719   3.189   9.045   7.421 -2.9603 -1.0182  2.4218
  998MOL0     H34720   3.004   9.021   7.244 -3.1754  2.8723 -0.5007
  998MOL0     H34721   3.163   9.070   7.176 -0.6827  1.6317 -0.9459
  998MOL0     H34722   3.012   9.177   7.073  0.0782 -1.1723  0.0343
  998MOL0     H34723   3.091   9.302   7.169  0.4123 -0.6317 -3.7447
  998MOL0     H34724   2.812   9.173   7.214  1.0167 -1.3008  1.8205
  998MOL0     H34725   2.874   9.268   7.341 -1.8773  1.6012 -0.7066
  998MOL0     H34726   2.788   9.539   7.007  1.6930  1.4873  2.2630
  998MOL0     H34727   3.390   9.397   7.268 -2.4143 -1.8583 -1.9634
  998MOL0     H34728   3.738   9.417   7.211  0.1633  3.7918 -0.9807
  998MOL0     H34729   3.580   9.474   7.180 -1.5514  1.5873  0.6706
  998MOL0     H34730   3.672   9.523   7.330  0.8651 -2.8889  2.3716
  999MOL0     O34731   7.446   3.448   6.858  0.9092  0.4705  0.4047
  999MOL0     C34732   7.476   3.358   6.935  0.2125 -0.2670 -0.3765
  999MOL0     O34733   7.464   3.221   6.909 -0.9436 -0.1928  0.1726
  999MOL0     C34734   7.381   3.183   6.810 -0.0569  0.1760  0.4457
  999MOL0     C34735   7.434   3.161   6.680  0.2940 -0.1775  0.6268
  999MOL0     C34736   7.359   3.114   6.564 -0.4307 -0.4082 -0.6725
  999MOL0     C34737   7.222   3.109   6.579 -0.3271  0.7478 -0.7034
  999MOL0     O34738   7.153   3.059   6.472 -0.3814  0.2811 -0.3538
  999MOL0     C34739   7.037   2.967   6.505  0.3031 -0.0070  0.8483
  999MOL0     C34740   7.079   2.837   6.581  0.7543  0.3499 -0.1795
  999MOL0     C34741   6.965   2.756   6.633  0.3046  0.3180 -0.7222
  999MOL0     C34742   6.889   2.678   6.525  0.2194 -0.8548  0.0068
  999MOL0     C34743   6.791   2.582   6.585 -0.3140  0.3204 -0.0490
  999MOL0     C34744   6.660   2.640   6.634 -0.3062 -0.0369  0.2401
  999MOL0     C34745   6.544   2.543   6.644 -0.2152 -0.6233  0.2981
  999MOL0     C34746   6.563   2.446   6.751 -1.5546  0.0849  0.0385
  999MOL0     N34747   6.595   2.519   6.873  0.2195 -0.2676 -0.1549
  999MOL0     C34748   6.715   2.510   6.947  0.0752 -0.6338 -0.3324
  999MOL0     C34749   6.700   2.600   7.042  0.3299  0.3981  0.8240
  999MOL0     C34750   6.799   2.634   7.155 -2.0940 -0.3133  0.2943
  999MOL0     C34751   6.796   2.776   7.206 -0.8149  0.6586 -0.1773
  999MOL0     C34752   6.689   2.811   7.310  0.9764 -0.0441  0.0545
  999MOL0     C34753   6.623   2.945   7.263  0.2224 -0.9799 -0.2067
  999MOL0     O34754   6.503   2.973   7.342  0.1902 -0.2506 -0.0813
  999MOL0     C34755   6.380   2.927   7.305  0.2358 -0.8818  0.2850
  999MOL0     C34756   6.344   2.867   7.182  1.1685 -0.6345  0.2373
  999MOL0     C34757   6.207   2.844   7.147  0.3732 -0.1349 -0.2799
  999MOL0     C34758   6.108   2.868   7.236  0.0909 -0.1491  0.0107
  999MOL0     C34759   5.958   2.849   7.202 -0.1786  0.3657  0.9784
  999MOL0     O34760   5.933   2.830   7.065  0.6684  0.8466 -0.1075
  999MOL0     C34761   5.797   2.854   7.026 -1.3279  0.6308 -0.3443
  999MOL0     C34762   5.723   2.741   6.971  0.3590 -0.9294  0.6830
  999MOL0     C34763   5.590   2.756   6.937  0.5165 -0.6293  0.3720
  999MOL0     C34764   5.527   2.880   6.936 -0.9258 -0.6562  0.4685
  999MOL0     O34765   5.405   2.891   6.882 -0.0588 -0.6668  0.0187
  999MOL0     C34766   5.333   3.016   6.879  0.8496 -0.2977  0.1054
  999MOL0     C34767   5.181   2.991   6.913 -0.6318 -1.6544 -1.0710
  999MOL0     C34768   5.081   3.109   6.862  0.2247  0.9747  0.5782
  999MOL0     C34769   4.932   3.088   6.902  0.5906 -0.4197  0.0809
  999MOL0     C34770   4.858   3.216   6.864  0.0793 -0.6385  0.4146
  999MOL0     C34771   4.721   3.218   6.904  0.0670  0.7729  0.1483
  999MOL0     C34772   4.648   3.343   6.852 -0.6518  0.7053 -0.0335
  999MOL0     C34773   4.622   3.349   6.703  0.7373  1.1339 -0.4738
  999MOL0    Cl34774   4.621   3.515   6.649  0.4589 -0.2681  0.4687
  999MOL0     C34775   5.610   2.995   6.966 -0.2481 -1.2502 -0.2081
  999MOL0     C34776   5.737   2.976   7.018 -0.6630 -0.2650  0.5004
  999MOL0     O34777   5.874   2.847   7.291  0.1717  0.1695  0.1489
  999MOL0     C34778   6.150   2.903   7.364 -0.6667  0.2870  0.3667
  999MOL0     C34779   6.281   2.935   7.402 -0.0229  0.0291  0.0305
  999MOL0     N34780   6.577   2.664   7.027 -0.3006  0.0976 -0.0868
  999MOL0     N34781   6.515   2.611   6.928 -0.8156 -0.5570  0.1760
  999MOL0     C34782   7.170   3.130   6.708  0.8690  0.2384 -0.4347
  999MOL0     C34783   7.248   3.158   6.822 -0.4803  1.1851  0.0137
  999MOL0     C34784   7.552   3.394   7.055 -0.4737 -0.5641 -0.6343
  999MOL0     C34785   7.649   3.493   7.053  0.1860  0.2794  0.0473
  999MOL0     C34786   7.715   3.531   7.169 -0.8459  0.0372  1.1560
  999MOL0     C34787   7.689   3.475   7.292  0.8880 -0.8383 -0.3858
  999MOL0     O34788   7.736   3.539   7.405 -0.1162 -0.2439 -0.1383
  999MOL0     C34789   7.697   3.510   7.535  0.2919 -0.6437 -0.5994
  999MOL0     C34790   7.766   3.615   7.629 -0.1109  0.5507 -0.1607
  999MOL0     C34791   7.921   3.624   7.623 -0.2493 -0.6537 -0.5629
  999MOL0     C34792   7.952   3.739   7.725 -0.2461  1.1110  0.6318
  999MOL0     C34793   8.000   3.861   7.670  0.0260 -0.3301  0.4390
  999MOL0     C34794   8.028   3.973   7.638  0.6560  0.5204  1.1917
  999MOL0     C34795   7.595   3.368   7.297 -0.4212  0.4138 -0.7989
  999MOL0     C34796   7.521   3.329   7.183  0.5876 -0.5531 -0.0406
  999MOL0     C34797   7.397   3.237   7.197  0.0346  0.3817  1.1295
  999MOL0     H34798   7.539   3.185   6.666 -0.0813  1.9673  1.1158
  999MOL0     H34799   7.405   3.090   6.469  0.5723 -0.9227 -0.0736
  999MOL0     H34800   6.956   3.024   6.552  0.1925 -1.4460  2.4790
  999MOL0     H34801   6.989   2.934   6.412 -0.3733 -1.4940  1.6948
  999MOL0     H34802   7.138   2.864   6.670  1.3751  1.0349 -0.7819
  999MOL0     H34803   7.143   2.771   6.522  0.7328 -1.7344  1.9616
  999MOL0     H34804   6.895   2.818   6.691 -2.0091 -2.0316 -0.8466
  999MOL0     H34805   6.996   2.683   6.707  0.5195 -0.4527 -1.5519
  999MOL0     H34806   6.852   2.746   6.448  1.4286 -1.5288 -1.2187
  999MOL0     H34807   6.954   2.612   6.466 -0.2822 -0.0956 -1.4369
  999MOL0     H34808   6.764   2.509   6.508  1.7426  0.7163 -1.2053
  999MOL0     H34809   6.839   2.524   6.664 -0.9068  2.5610  2.0941
  999MOL0     H34810   6.670   2.701   6.724  0.5551 -0.0303  0.1454
  999MOL0     H34811   6.635   2.712   6.556  1.3070  0.9987  0.6245
  999MOL0     H34812   6.530   2.490   6.550 -1.4069  3.1119 -1.8469
  999MOL0     H34813   6.450   2.598   6.650  0.3021  0.2057  1.2160
  999MOL0     H34814   6.472   2.385   6.760 -0.7137 -1.2240  0.0343
  999MOL0     H34815   6.637   2.374   6.715 -1.1477  0.6895 -0.3410
  999MOL0     H34816   6.773   2.419   6.937  0.5329 -0.3966  0.1968
  999MOL0     H34817   6.797   2.562   7.237  1.6190 -1.1305 -0.1426
  999MOL0     H34818   6.897   2.625   7.107 -1.7573 -0.0700  0.9182
  999MOL0     H34819   6.896   2.804   7.240 -1.4578  2.0958  0.6080
  999MOL0     H34820   6.791   2.832   7.112  0.2796 -1.5779 -1.6784
  999MOL0     H34821   6.726   2.825   7.412 -0.3272 -1.4016  0.7582
  999MOL0     H34822   6.601   2.746   7.314 -0.4265  1.7931 -0.0125
  999MOL0     H34823   6.595   2.939   7.157 -0.8666  0.0921 -0.0059
  999MOL0     H34824   6.695   3.028   7.271  2.9956 -3.3461  1.0232
  999MOL0     H34825   6.409   2.859   7.095 -0.7485 -0.2970 -1.3052
  999MOL0     H34826   6.185   2.817   7.044  0.4081 -4.1066  0.5925
  999MOL0     H34827   5.790   2.658   6.954  4.3515  2.5515 -3.2503
  999MOL0     H34828   5.537   2.674   6.889  0.8170 -0.5232 -0.1515
  999MOL0     H34829   5.368   3.092   6.950 -0.7272 -0.7351  1.4138
  999MOL0     H34830   5.335   3.054   6.776  1.4019  0.6523  0.4545
  999MOL0     H34831   5.158   2.901   6.855 -1.9638 -0.9706 -1.6409
  999MOL0     H34832   5.170   2.957   7.017 -0.2205 -1.4457 -0.9565
  999MOL0     H34833   5.119   3.205   6.900 -0.0178  0.6096  1.7617
  999MOL0     H34834   5.074   3.106   6.753  2.1788 -1.3359  0.4386
  999MOL0     H34835   4.928   3.063   7.008  1.1136  0.6524  0.3643
  999MOL0     H34836   4.889   3.001   6.851 -0.5760  0.6305 -0.7864
  999MOL0     H34837   4.865   3.211   6.755  6.1585  1.2469  0.3142
  999MOL0     H34838   4.908   3.307   6.897 -2.3373  0.1229  2.2525
  999MOL0     H34839   4.672   3.134   6.854 -0.5468  0.7795  0.7396
  999MOL0     H34840   4.711   3.211   7.012 -0.3864 -0.4227  0.0463
  999MOL0     H34841   4.704   3.432   6.880 -1.2190  1.6233 -1.6586
  999MOL0     H34842   4.552   3.343   6.904 -1.4031 -1.6082 -1.2778
  999MOL0     H34843   4.693   3.291   6.643 -2.7030 -4.1418 -0.0484
  999MOL0     H34844   4.529   3.295   6.683  2.7990 -2.0468 -2.4623
  999MOL0     H34845   5.582   3.100   6.958 -0.3803 -1.3227 -0.7613
  999MOL0     H34846   5.807   3.058   7.031 -0.0505 -0.7518  0.3299
  999MOL0     H34847   6.079   2.919   7.444 -2.2951 -1.2706 -0.7118
  999MOL0     H34848   6.297   2.957   7.507 -1.5948 -3.0038  1.0219
  999MOL0     H34849   7.063   3.113   6.722  1.0921  0.3751  1.7994
  999MOL0     H34850   7.208   3.172   6.922  1.1753  0.2998  0.8483
  999MOL0     H34851   7.674   3.541   6.959  2.8186  2.7776  1.8606
  999MOL0     H34852   7.781   3.617   7.169  3.6360 -2.7588 -4.1824
  999MOL0     H34853   7.725   3.409   7.567 -1.6353 -1.3060 -0.8040
  999MOL0     H34854   7.588   3.522   7.542  0.2703  0.8461 -2.6685
  999MOL0     H34855   7.732   3.597   7.731  2.0338  1.1630  0.7232
  999MOL0     H34856   7.724   3.710   7.595 -1.4665  0.8674  2.2103
  999MOL0     H34857   7.960   3.642   7.523  3.8939 -0.4290  0.8896
  999MOL0     H34858   7.960   3.529   7.661 -1.9344 -0.5500  1.6850
  999MOL0     H34859   7.863   3.771   7.781 -0.3828 -0.5279  1.4030
  999MOL0     H34860   8.019   3.699   7.802 -0.1435  0.7617  0.3651
  999MOL0     H34861   8.047   4.074   7.608  1.8662  0.3756  1.4132
  999MOL0     H34862   7.572   3.314   7.388 -2.3272 -0.1729 -1.5853
  999MOL0     H34863   7.311   3.267   7.136 -0.7834 -0.6401  1.7518
  999MOL0     H34864   7.428   3.136   7.169  0.6552  1.1598 -1.2590
  999MOL0     H34865   7.370   3.219   7.301 -4.0725 -2.7753 -0.2362
 1000MOL0     O34866   9.791   9.811   7.975 -0.5553  0.5347  0.3061
 1000MOL0     C34867   9.776   9.707   7.918 -0.3425 -0.4502  0.1459
 1000MOL0     O34868   9.848   9.594   7.957 -0.3462 -0.1373  0.4329
 1000MOL0     C34869   9.930   9.592   8.062  0.4898  0.3091 -0.0462
 1000MOL0     C34870  10.055   9.642   8.045 -0.0486 -0.6214  0.1800
 1000MOL0     C34871  10.150   9.626   8.145 -0.2655 -0.8166  0.4575
 1000MOL0     C34872  10.113   9.562   8.262 -0.2088 -0.9277 -0.2854
 1000MOL0     O34873  10.197   9.524   8.366 -0.9753 -0.1644  0.1915
 1000MOL0     C34874  10.330   9.512   8.322  0.3649  0.7252 -0.0301
 1000MOL0     C34875  10.400   9.425   8.438 -0.0813 -0.2135  0.8978
 1000MOL0     C34876  10.404   9.509   8.564  0.3118  0.2443 -0.3214
 1000MOL0     C34877  10.458   9.427   8.689  0.8530 -0.5871 -0.0772
 1000MOL0     C34878  10.606   9.394   8.673 -0.4946 -1.2185 -0.4534
 1000MOL0     C34879  10.662   9.338   8.803  0.1581  0.2098 -0.2176
 1000MOL0     C34880  10.800   9.281   8.791 -1.2906  0.1739  0.7072
 1000MOL0     C34881  10.908   9.389   8.761 -0.2076  0.3927 -0.2540
 1000MOL0     N34882  11.048   9.349   8.768 -0.2153 -0.9296  0.0505
 1000MOL0     C34883  11.101   9.253   8.683 -1.1907 -0.1730 -0.5449
 1000MOL0     C34884  11.241   9.260   8.706  0.5848  0.9871  0.8818
 1000MOL0     C34885  11.337   9.174   8.632 -0.7306  0.7458  0.0818
 1000MOL0     C34886  11.291   9.030   8.622  1.0790 -0.0332  0.2471
 1000MOL0     C34887  11.403   8.926   8.659  0.7795 -0.2464  0.0140
 1000MOL0     C34888  11.529   8.941   8.571 -0.4248 -0.0336 -0.0315
 1000MOL0     O34889  11.491   8.933   8.435 -0.4878 -0.1120  0.0002
 1000MOL0     C34890  11.599   8.923   8.349 -0.2950  0.1211  0.0310
 1000MOL0     C34891  11.740   8.932   8.375 -0.6616  0.0435  0.2938
 1000MOL0     C34892  11.836   8.901   8.274 -0.5778  0.0459 -1.1500
 1000MOL0     C34893  11.792   8.871   8.143 -0.8858  0.3769 -0.1252
 1000MOL0     C34894  11.891   8.859   8.039 -0.2004  0.5369  0.6002
 1000MOL0     O34895  12.022   8.844   8.072  0.7558 -0.3458  0.5709
 1000MOL0     C34896  12.129   8.820   7.989 -0.5445  0.5203  0.3103
 1000MOL0     C34897  12.127   8.785   7.852  0.4345  0.1788  0.9437
 1000MOL0     C34898  12.242   8.770   7.780  0.0166  0.0638  0.1386
 1000MOL0     C34899  12.368   8.786   7.836  0.2216  1.1950 -0.6341
 1000MOL0     O34900  12.483   8.763   7.758  0.4583  1.0991 -0.0485
 1000MOL0     C34901  12.469   8.779   7.614  0.8625  0.6051  0.0357
 1000MOL0     C34902  12.600   8.783   7.528  0.1737 -0.1854  0.1148
 1000MOL0     C34903  12.677   8.657   7.559 -1.2677  0.4045  0.0379
 1000MOL0     C34904  12.811   8.642   7.497  0.2296 -0.1830  0.1068
 1000MOL0     C34905  12.863   8.510   7.517  0.0384 -0.0135 -0.8276
 1000MOL0     C34906  13.014   8.498   7.473 -0.1789 -1.1426 -0.0123
 1000MOL0     C34907  13.084   8.374   7.530  0.7907  0.0630  0.4601
 1000MOL0     C34908  13.107   8.379   7.685 -0.3798 -0.3948  0.2044
 1000MOL0    Cl34909  13.143   8.217   7.752 -0.5502  0.2868  0.1013
 1000MOL0     C34910  12.374   8.834   7.968  0.5957 -0.2590  1.0278
 1000MOL0     C34911  12.253   8.843   8.046  0.2036  0.7923  0.4207
 1000MOL0     O34912  11.855   8.838   7.926  0.1307  0.8029  0.4514
 1000MOL0     C34913  11.657   8.861   8.120  0.3938 -0.6170  0.2134
 1000MOL0     C34914  11.561   8.887   8.222  0.4237 -0.3628 -0.6535
 1000MOL0     N34915  11.258   9.348   8.810 -0.1738 -0.3619  0.5144
 1000MOL0     N34916  11.145   9.399   8.844 -0.0278  0.0214  0.6862
 1000MOL0     C34917   9.987   9.524   8.282  0.5258  0.5072  0.4681
 1000MOL0     C34918   9.892   9.535   8.181 -0.4270 -0.0344 -1.2522
 1000MOL0     C34919   9.663   9.706   7.827 -0.1105  0.5319 -0.2290
 1000MOL0     C34920   9.582   9.823   7.804  0.4926 -0.2633  0.1153
 1000MOL0     C34921   9.473   9.831   7.718 -0.6585  0.0144  0.2108
 1000MOL0     C34922   9.421   9.717   7.666 -0.7666  0.3482 -1.2232
 1000MOL0     O34923   9.299   9.730   7.603  0.5691 -0.2659  0.1193
 1000MOL0     C34924   9.251   9.634   7.516  1.2549  0.5213  0.9173
 1000MOL0     C34925   9.132   9.685   7.436 -0.5068  1.0410 -0.3399
 1000MOL0     C34926   9.024   9.717   7.536 -0.4693 -0.2258  0.1580
 1000MOL0     C34927   8.889   9.737   7.446 -0.0670 -0.5646 -0.0477
 1000MOL0     C34928   8.784   9.807   7.515 -0.0985  0.8220 -0.0621
 1000MOL0     C34929   8.690   9.861   7.573 -0.6059  0.8850 -0.6336
 1000MOL0     C34930   9.496   9.600   7.686 -0.8273  0.3675  0.0070
 1000MOL0     C34931   9.613   9.592   7.765  0.2649 -0.7274 -0.4523
 1000MOL0     C34932   9.657   9.446   7.786  0.2760 -0.7232 -0.0647
 1000MOL0     H34933  10.064   9.689   7.947 -1.0579 -1.3372 -0.2744
 1000MOL0     H34934  10.248   9.664   8.117  0.8498 -0.7652  3.9392
 1000MOL0     H34935  10.339   9.462   8.225 -2.7105  0.4030 -0.2587
 1000MOL0     H34936  10.364   9.615   8.309 -4.1770  2.1677 -3.0541
 1000MOL0     H34937  10.501   9.401   8.404 -0.1413 -2.4343  2.1476
 1000MOL0     H34938  10.348   9.331   8.458  2.7536 -2.3575 -0.9592
 1000MOL0     H34939  10.304   9.540   8.595  0.0083 -0.6042 -0.4268
 1000MOL0     H34940  10.467   9.594   8.535 -1.2396  1.5216 -0.0684
 1000MOL0     H34941  10.436   9.476   8.784 -2.5955 -1.5280 -0.2660
 1000MOL0     H34942  10.400   9.334   8.698  0.1651  0.0162  2.5536
 1000MOL0     H34943  10.607   9.316   8.596 -1.8135  0.3057 -2.1232
 1000MOL0     H34944  10.667   9.480   8.643  1.8532 -2.0732  1.6211
 1000MOL0     H34945  10.668   9.414   8.882  0.9718 -1.4821  1.4398
 1000MOL0     H34946  10.598   9.259   8.844  0.0761  1.1370  1.5372
 1000MOL0     H34947  10.799   9.229   8.695 -3.1404  2.6422 -0.7634
 1000MOL0     H34948  10.827   9.220   8.877  1.8754 -0.7736 -0.8181
 1000MOL0     H34949  10.890   9.433   8.663 -3.9974  1.5975  0.7842
 1000MOL0     H34950  10.895   9.467   8.837  1.3215  2.3112 -1.8500
 1000MOL0     H34951  11.041   9.185   8.622 -0.9184 -4.0637  3.0390
 1000MOL0     H34952  11.339   9.203   8.526 -3.4317 -1.8456 -0.8202
 1000MOL0     H34953  11.438   9.179   8.672  0.2477  0.8875 -2.2362
 1000MOL0     H34954  11.201   9.020   8.684  0.3554 -2.0475 -1.0284
 1000MOL0     H34955  11.260   9.006   8.520  0.5781  1.0605  0.1230
 1000MOL0     H34956  11.372   8.823   8.639 -1.3510  0.7435 -2.3599
 1000MOL0     H34957  11.419   8.935   8.767  1.9250  0.3335 -0.1969
 1000MOL0     H34958  11.593   8.857   8.598  0.1659 -0.4333 -2.4125
 1000MOL0     H34959  11.585   9.035   8.579 -1.4089  0.4925  1.0408
 1000MOL0     H34960  11.772   8.966   8.473 -1.2364  3.2473 -0.5136
 1000MOL0     H34961  11.942   8.922   8.285 -0.1261  0.6219 -5.1232
 1000MOL0     H34962  12.031   8.760   7.808  0.3509  0.6837  0.8371
 1000MOL0     H34963  12.234   8.729   7.679 -0.5861  0.5101 -0.0021
 1000MOL0     H34964  12.404   8.700   7.576  1.3655 -1.7181  3.5635
 1000MOL0     H34965  12.414   8.874   7.606 -1.3506 -0.5467  0.7297
 1000MOL0     H34966  12.574   8.790   7.421 -0.9044  3.2012  0.4981
 1000MOL0     H34967  12.656   8.873   7.554 -2.3732  1.6173 -0.2663
 1000MOL0     H34968  12.693   8.660   7.667  1.5589 -1.4338 -0.2228
 1000MOL0     H34969  12.613   8.572   7.534 -2.0759  1.1354 -0.4378
 1000MOL0     H34970  12.881   8.715   7.538 -2.0610  1.8840  0.5947
 1000MOL0     H34971  12.816   8.665   7.390  1.6460 -3.1647 -0.5619
 1000MOL0     H34972  12.797   8.437   7.469 -2.4842  2.4237 -1.4070
 1000MOL0     H34973  12.857   8.483   7.623 -1.2262 -3.2139 -1.5903
 1000MOL0     H34974  13.006   8.479   7.366  0.1881  1.7785 -0.6488
 1000MOL0     H34975  13.067   8.593   7.490 -3.6997  0.6879  1.6977
 1000MOL0     H34976  13.178   8.353   7.477 -0.6196 -3.0654 -0.9933
 1000MOL0     H34977  13.027   8.286   7.501  2.8822 -1.2028  0.0226
 1000MOL0     H34978  13.185   8.451   7.710  0.5969 -2.7680  5.3944
 1000MOL0     H34979  13.011   8.408   7.729  0.1575  0.2409  0.9755
 1000MOL0     H34980  12.470   8.866   8.008  0.1858  0.8639  1.1437
 1000MOL0     H34981  12.261   8.870   8.151 -0.5916  0.5826  0.5446
 1000MOL0     H34982  11.622   8.838   8.020  1.3645 -1.4167  0.0454
 1000MOL0     H34983  11.456   8.887   8.194 -0.5592  0.0961  2.5673
 1000MOL0     H34984   9.963   9.482   8.379 -0.8954 -0.3543 -0.2391
 1000MOL0     H34985   9.795   9.498   8.211 -0.0175 -0.4399 -0.4078
 1000MOL0     H34986   9.598   9.918   7.856 -1.0670  0.9003 -1.4311
 1000MOL0     H34987   9.419   9.919   7.686 -1.3522  0.6057  2.7493
 1000MOL0     H34988   9.214   9.548   7.571 -2.5520  0.8202 -0.8338
 1000MOL0     H34989   9.333   9.601   7.451  0.1964 -3.0557  1.1965
 1000MOL0     H34990   9.090   9.608   7.371  0.1710 -1.6013  2.1419
 1000MOL0     H34991   9.150   9.773   7.372  0.6368  0.5269 -0.7591
 1000MOL0     H34992   9.059   9.811   7.580 -0.6453 -0.6157  1.1624
 1000MOL0     H34993   9.015   9.640   7.613  1.1279  0.7080  1.3358
 1000MOL0     H34994   8.908   9.791   7.353  0.0150  1.0849  0.8873
 1000MOL0     H34995   8.854   9.642   7.405  1.0099  0.2011 -2.9978
 1000MOL0     H34996   8.627   9.926   7.631 -0.8884 -1.5785  2.0614
 1000MOL0     H34997   9.466   9.508   7.637  0.0318 -1.2308  2.3392
 1000MOL0     H34998   9.607   9.390   7.866 -1.5462  1.2375  0.2685
 1000MOL0     H34999   9.638   9.402   7.688  0.6333 -1.7608  0.3167
 1000MOL0     H35000   9.764   9.437   7.808 -0.1317 -2.8564  1.3707
 1001MOL0     O35001   0.117   8.435   5.805 -0.1608 -1.1441 -0.4692
 1001MOL0     C35002   0.018   8.442   5.733  0.3542 -0.9247 -0.3692
 1001MOL0     O35003   0.015   8.461   5.600 -0.8204 -0.1665  0.1648
 1001MOL0     C35004   0.129   8.504   5.539  1.5126 -0.5471 -0.1735
 1001MOL0     C35005   0.248   8.436   5.541 -0.0760  0.5109  0.6631
 1001MOL0     C35006   0.360   8.487   5.479  0.1187  0.1227 -0.4711
 1001MOL0     C35007   0.347   8.614   5.417 -0.2279 -0.4223 -0.0065
 1001MOL0     O35008   0.465   8.661   5.355 -0.6914  0.7662  0.2634
 1001MOL0     C35009   0.481   8.801   5.332  0.0555 -0.7960 -0.1540
 1001MOL0     C35010   0.636   8.830   5.294  0.5309 -0.4562 -0.7075
 1001MOL0     C35011   0.634   8.966   5.213  0.0448 -0.6179  0.3477
 1001MOL0     C35012   0.767   8.989   5.139 -0.6563  0.2880  0.0060
 1001MOL0     C35013   0.774   9.126   5.070  0.3206  0.8773 -1.5270
 1001MOL0     C35014   0.804   9.236   5.175  0.6201  0.7463 -0.1429
 1001MOL0     C35015   0.829   9.375   5.108  0.1938  0.7917 -0.5924
 1001MOL0     C35016   0.853   9.498   5.203 -0.6541 -0.4636 -0.2249
 1001MOL0     N35017   0.914   9.622   5.150  0.2796 -0.3474 -0.1325
 1001MOL0     C35018   1.006   9.626   5.046 -0.6997  0.3395 -0.5319
 1001MOL0     C35019   1.008   9.759   5.011 -0.3373  0.9665 -0.1603
 1001MOL0     C35020   1.099   9.812   4.907 -0.9869 -0.1284 -0.3600
 1001MOL0     C35021   1.220   9.896   4.977 -0.0681  0.3509 -0.6087
 1001MOL0     C35022   1.349   9.865   4.892 -0.2744  0.2912 -0.4620
 1001MOL0     C35023   1.470   9.952   4.932  0.0484 -0.5432 -0.2385
 1001MOL0     O35024   1.431  10.087   4.894  0.1559 -0.6899 -0.8220
 1001MOL0     C35025   1.539  10.183   4.899  0.2324  0.8918 -0.1518
 1001MOL0     C35026   1.676  10.161   4.913 -0.1453  0.1507 -0.4168
 1001MOL0     C35027   1.765  10.268   4.916 -0.2906  0.7302  0.4252
 1001MOL0     C35028   1.712  10.396   4.910 -0.2588  0.4462 -0.3179
 1001MOL0     C35029   1.806  10.509   4.897 -0.2452  0.1678 -0.3387
 1001MOL0     O35030   1.747  10.638   4.910 -0.3381 -0.3543  0.8456
 1001MOL0     C35031   1.802  10.761   4.874  0.1258  0.5019 -0.1079
 1001MOL0     C35032   1.923  10.769   4.803 -0.4343 -0.4153 -0.0023
 1001MOL0     C35033   1.975  10.899   4.775 -0.0568  1.3130 -0.4513
 1001MOL0     C35034   1.908  11.005   4.825  0.7828 -0.5294 -0.2569
 1001MOL0     O35035   1.987  11.119   4.808  0.6035 -0.3351  0.1300
 1001MOL0     C35036   1.961  11.229   4.900 -0.2414  1.4031 -0.3777
 1001MOL0     C35037   2.074  11.324   4.894 -0.5031 -0.9922 -0.0090
 1001MOL0     C35038   2.195  11.258   4.962  0.1476 -0.3403 -0.0065
 1001MOL0     C35039   2.328  11.324   4.936 -0.8133  0.1951  0.1354
 1001MOL0     C35040   2.426  11.248   5.018  0.6243 -0.7170  0.2388
 1001MOL0     C35041   2.426  11.273   5.171  0.9349  0.1034  0.7128
 1001MOL0     C35042   2.542  11.200   5.233 -0.1657 -0.3381 -0.3331
 1001MOL0     C35043   2.535  11.207   5.383  0.3892 -0.2532 -0.4134
 1001MOL0    Cl35044   2.392  11.100   5.430 -0.0006 -0.1353  0.2069
 1001MOL0     C35045   1.788  11.000   4.894 -0.2200 -0.2572  0.0471
 1001MOL0     C35046   1.731  10.875   4.919  0.4905 -0.7380 -0.0705
 1001MOL0     O35047   1.932  10.492   4.886 -0.9999  0.5963 -0.1776
 1001MOL0     C35048   1.576  10.423   4.906  0.4471  0.3675  0.0323
 1001MOL0     C35049   1.491  10.313   4.892  0.1534  0.2541  0.0697
 1001MOL0     N35050   0.927   9.833   5.094 -0.5472  0.6298  0.4715
 1001MOL0     N35051   0.874   9.750   5.177  0.0814 -0.2401  0.6860
 1001MOL0     C35052   0.236   8.692   5.438  0.2312  1.3269 -0.0629
 1001MOL0     C35053   0.126   8.637   5.508 -0.2138 -0.3380 -0.4860
 1001MOL0     C35054  -0.116   8.427   5.801  0.2170 -0.8561  0.7313
 1001MOL0     C35055  -0.226   8.411   5.720  0.2811  0.1675 -1.1186
 1001MOL0     C35056  -0.356   8.399   5.777  1.0073 -0.3980  0.5437
 1001MOL0     C35057  -0.372   8.409   5.917 -0.5469  0.2078 -0.5747
 1001MOL0     O35058  -0.504   8.404   5.965 -0.1061  0.1166  0.3448
 1001MOL0     C35059  -0.530   8.433   6.101 -0.2694 -0.3258  1.6224
 1001MOL0     C35060  -0.662   8.499   6.097 -0.7781 -0.2063  0.4492
 1001MOL0     C35061  -0.771   8.398   6.130  0.4009  0.0514 -0.0112
 1001MOL0     C35062  -0.909   8.461   6.168 -0.1651 -0.7944 -0.2117
 1001MOL0     C35063  -0.988   8.527   6.060  0.8179 -0.2600  0.2104
 1001MOL0     C35064  -1.067   8.576   5.971 -0.4889  0.5156  0.4275
 1001MOL0     C35065  -0.252   8.421   5.995 -0.2101  0.2008 -0.2046
 1001MOL0     C35066  -0.125   8.437   5.939  0.4883 -0.0547  0.7247
 1001MOL0     C35067  -0.013   8.460   6.037  0.3911  0.4317 -0.0768
 1001MOL0     H35068   0.247   8.338   5.588  0.7389  1.3197  2.4757
 1001MOL0     H35069   0.457   8.438   5.486 -1.3639 -3.0398 -0.0357
 1001MOL0     H35070   0.412   8.833   5.253  0.4793 -0.4323 -0.3832
 1001MOL0     H35071   0.457   8.863   5.419 -1.4028 -1.1561 -0.2632
 1001MOL0     H35072   0.675   8.749   5.232 -0.7721 -2.0758  0.5046
 1001MOL0     H35073   0.696   8.838   5.385  1.3038  0.6820 -1.2801
 1001MOL0     H35074   0.624   9.048   5.284  3.3065  0.9871 -0.8182
 1001MOL0     H35075   0.549   8.970   5.145 -0.1441  2.4089  0.6326
 1001MOL0     H35076   0.846   8.969   5.212 -2.5156 -0.0382  2.0500
 1001MOL0     H35077   0.781   8.909   5.067  2.2482  1.4139 -0.8064
 1001MOL0     H35078   0.852   9.140   4.994  3.4223  1.2730  1.4657
 1001MOL0     H35079   0.682   9.153   5.018 -0.3751  0.7687 -0.4036
 1001MOL0     H35080   0.721   9.229   5.246  1.1035 -2.2041  0.2526
 1001MOL0     H35081   0.892   9.213   5.236  1.5199 -2.6635 -2.4414
 1001MOL0     H35082   0.752   9.395   5.034 -0.3031 -0.9798 -0.5908
 1001MOL0     H35083   0.918   9.369   5.045  0.0823 -4.0063 -0.6515
 1001MOL0     H35084   0.766   9.533   5.260  0.9118  1.1228  1.3243
 1001MOL0     H35085   0.927   9.473   5.279  2.5354  1.8645 -2.3420
 1001MOL0     H35086   1.061   9.539   5.010 -1.1915 -0.3646  0.3734
 1001MOL0     H35087   1.123   9.718   4.857 -2.7513  0.1799 -1.9014
 1001MOL0     H35088   1.037   9.872   4.841 -0.9015 -1.0888 -1.3417
 1001MOL0     H35089   1.199  10.003   4.979 -1.4126  0.0874  0.1350
 1001MOL0     H35090   1.232   9.851   5.076  1.4082 -0.8686 -1.2955
 1001MOL0     H35091   1.329   9.866   4.785  1.1433  1.7561 -0.7453
 1001MOL0     H35092   1.380   9.764   4.923  0.8165  0.6484 -0.3360
 1001MOL0     H35093   1.563   9.917   4.887  2.7947  1.9305  2.9853
 1001MOL0     H35094   1.492   9.956   5.039  1.1917  1.7441 -0.4940
 1001MOL0     H35095   1.716  10.060   4.920  2.2044  1.0747  4.7414
 1001MOL0     H35096   1.870  10.249   4.897 -1.0092 -0.8259 -2.5206
 1001MOL0     H35097   1.979  10.682   4.772 -0.1114 -0.4715  0.7056
 1001MOL0     H35098   2.070  10.912   4.725 -1.0060  1.8995 -2.1895
 1001MOL0     H35099   1.868  11.285   4.888 -0.0798  1.8617  0.4008
 1001MOL0     H35100   1.970  11.185   5.000 -0.8175 -1.2539 -1.4178
 1001MOL0     H35101   2.091  11.342   4.787 -1.1064  1.8229  0.3023
 1001MOL0     H35102   2.059  11.425   4.932 -1.6137 -1.2548  0.2816
 1001MOL0     H35103   2.184  11.266   5.071  3.1293  2.2270  0.2340
 1001MOL0     H35104   2.192  11.154   4.929  0.2857 -0.3800  0.1042
 1001MOL0     H35105   2.330  11.431   4.958 -2.4338  0.5121 -1.0729
 1001MOL0     H35106   2.362  11.312   4.833  1.4949  3.2667  0.3931
 1001MOL0     H35107   2.523  11.284   4.984  1.3811 -1.3362  1.6578
 1001MOL0     H35108   2.425  11.142   4.992 -1.5635 -0.5298 -0.6972
 1001MOL0     H35109   2.424  11.381   5.189 -0.2338  0.1034  0.6778
 1001MOL0     H35110   2.335  11.230   5.214  2.5150 -1.7968  2.3951
 1001MOL0     H35111   2.638  11.242   5.203  0.4843 -1.2027  0.4725
 1001MOL0     H35112   2.544  11.095   5.202 -1.7918 -0.5740  0.2643
 1001MOL0     H35113   2.615  11.150   5.432  2.9168  1.3587 -2.4446
 1001MOL0     H35114   2.535  11.307   5.427 -4.4659  0.8329 -2.2789
 1001MOL0     H35115   1.743  11.093   4.928  1.4935  0.2246  1.0947
 1001MOL0     H35116   1.630  10.864   4.957 -0.8395  0.6358 -2.9038
 1001MOL0     H35117   1.526  10.519   4.917 -1.5727 -0.7771  1.6294
 1001MOL0     H35118   1.383  10.326   4.883  0.2825  0.7856 -0.8157
 1001MOL0     H35119   0.228   8.792   5.396 -1.3685  0.5477 -1.7431
 1001MOL0     H35120   0.049   8.708   5.538  0.0678 -0.2252 -0.0318
 1001MOL0     H35121  -0.213   8.414   5.612 -1.9545  1.3814 -1.4149
 1001MOL0     H35122  -0.440   8.398   5.708  2.3680  1.9685 -1.2856
 1001MOL0     H35123  -0.448   8.499   6.130  0.1217  1.2685 -2.3444
 1001MOL0     H35124  -0.538   8.337   6.153 -2.9696  0.0514  2.0642
 1001MOL0     H35125  -0.687   8.544   6.001  0.9887  1.5221  0.7335
 1001MOL0     H35126  -0.657   8.583   6.167  0.1935  0.6421 -0.6109
 1001MOL0     H35127  -0.733   8.330   6.207 -0.4343 -4.2502 -3.0240
 1001MOL0     H35128  -0.785   8.335   6.041  0.6686 -0.3654  0.2375
 1001MOL0     H35129  -0.961   8.381   6.222 -0.7054 -0.6744 -0.5522
 1001MOL0     H35130  -0.897   8.539   6.243  2.0069  1.5404 -2.7609
 1001MOL0     H35131  -1.134   8.620   5.900 -1.6335  1.9708  2.3103
 1001MOL0     H35132  -0.266   8.401   6.101 -2.1344 -0.9016 -0.6211
 1001MOL0     H35133   0.045   8.548   6.010  1.2622 -0.3023 -0.6713
 1001MOL0     H35134  -0.042   8.474   6.142  0.4908 -0.9934  0.1728
 1001MOL0     H35135   0.056   8.375   6.035  0.8288  0.4266  4.3508
 1002MOL0     O35136   0.928   2.229   5.144 -0.2413 -0.0923 -0.6970
 1002MOL0     C35137   0.845   2.155   5.197 -0.2077 -1.0371 -0.5422
 1002MOL0     O35138   0.862   2.099   5.319 -0.6937 -0.3652 -0.3197
 1002MOL0     C35139   0.992   2.088   5.366 -0.5887  0.4427  0.4938
 1002MOL0     C35140   1.028   2.143   5.489  0.4010 -0.1086  0.2624
 1002MOL0     C35141   1.153   2.119   5.549 -0.3727  0.5978  0.0370
 1002MOL0     C35142   1.256   2.052   5.478 -0.1511 -0.0056  0.4722
 1002MOL0     O35143   1.384   2.016   5.515  0.4566  0.6142  0.0604
 1002MOL0     C35144   1.455   2.094   5.612  1.1090  0.1802 -0.3667
 1002MOL0     C35145   1.579   2.010   5.638 -0.9684  0.0763 -0.9378
 1002MOL0     C35146   1.687   2.086   5.724  0.9709  0.6425 -0.3283
 1002MOL0     C35147   1.821   2.014   5.722  0.5411  0.1158 -0.6641
 1002MOL0     C35148   1.932   2.077   5.813  0.3488 -0.9412  0.0549
 1002MOL0     C35149   2.051   1.975   5.827 -0.4088 -0.6326  0.1502
 1002MOL0     C35150   2.171   2.037   5.910  0.2367  0.1150 -0.1255
 1002MOL0     C35151   2.258   2.149   5.851 -0.8405 -0.4536  0.0232
 1002MOL0     N35152   2.378   2.167   5.935  0.6029  0.0150  0.4600
 1002MOL0     C35153   2.500   2.105   5.931 -0.4151 -1.4271 -0.8804
 1002MOL0     C35154   2.578   2.164   6.018  0.3800 -0.5366  0.4749
 1002MOL0     C35155   2.718   2.120   6.057  0.1204 -0.0192  0.1281
 1002MOL0     C35156   2.720   1.977   6.119 -0.0234  0.1856  0.4399
 1002MOL0     C35157   2.652   1.979   6.264 -0.0823  0.1543  0.3615
 1002MOL0     C35158   2.612   1.839   6.318 -0.5096  0.0483 -0.5065
 1002MOL0     O35159   2.517   1.773   6.238 -0.6683  0.3247 -0.4012
 1002MOL0     C35160   2.384   1.807   6.246  0.0553 -1.1659 -0.1560
 1002MOL0     C35161   2.288   1.746   6.161  0.5436 -0.0456 -0.4626
 1002MOL0     C35162   2.152   1.773   6.169 -0.3820  0.6785 -0.1286
 1002MOL0     C35163   2.098   1.874   6.252 -0.5318 -0.3140  0.4834
 1002MOL0     C35164   1.959   1.913   6.255  0.0281 -1.3390  0.6171
 1002MOL0     O35165   1.884   1.893   6.138  0.4333 -0.0550  0.1042
 1002MOL0     C35166   1.747   1.920   6.116  0.8302  0.0385  0.1030
 1002MOL0     C35167   1.686   2.031   6.153 -0.1801 -0.3064  0.2504
 1002MOL0     C35168   1.548   2.048   6.133 -0.0787  0.2808  0.6458
 1002MOL0     C35169   1.473   1.947   6.075  0.6867  0.1707  0.7234
 1002MOL0     O35170   1.340   1.959   6.055 -0.0812 -0.0788 -0.4808
 1002MOL0     C35171   1.277   1.922   5.929 -0.0969  0.5398 -0.5962
 1002MOL0     C35172   1.147   2.002   5.914 -0.2535  0.3707  1.0104
 1002MOL0     C35173   1.041   1.937   5.825  0.2085  0.1803  0.7280
 1002MOL0     C35174   0.900   1.926   5.899  0.0995  0.5431 -0.1469
 1002MOL0     C35175   0.799   1.895   5.776 -0.0065  0.2366 -0.0172
 1002MOL0     C35176   0.652   1.912   5.808 -0.6390  0.0571 -0.4509
 1002MOL0     C35177   0.559   1.852   5.706 -0.8376 -0.3649  0.5370
 1002MOL0     C35178   0.417   1.886   5.746 -0.6757 -0.1600  0.2383
 1002MOL0    Cl35179   0.351   1.787   5.872 -0.0614  0.3739 -0.0326
 1002MOL0     C35180   1.543   1.829   6.024  0.4871 -0.6224 -0.2342
 1002MOL0     C35181   1.681   1.829   6.033  0.0554  0.5630  0.3223
 1002MOL0     O35182   1.910   1.968   6.356  0.3347  0.1070 -0.4442
 1002MOL0     C35183   2.193   1.940   6.327 -0.3051  0.5227  0.1166
 1002MOL0     C35184   2.328   1.904   6.327 -0.5181  0.2766 -0.1889
 1002MOL0     N35185   2.508   2.261   6.082  0.0839 -0.8885  0.5855
 1002MOL0     N35186   2.385   2.267   6.021 -0.5402  0.3214 -0.7741
 1002MOL0     C35187   1.215   2.005   5.348 -0.5193  0.3074 -0.4577
 1002MOL0     C35188   1.088   2.019   5.298 -0.8858  0.8864  0.5052
 1002MOL0     C35189   0.725   2.139   5.126  1.2858  0.2313 -0.4874
 1002MOL0     C35190   0.721   2.139   4.984  0.1548  0.3184 -0.0185
 1002MOL0     C35191   0.613   2.117   4.905 -0.0462 -1.2473  0.6768
 1002MOL0     C35192   0.492   2.084   4.968  0.2176 -0.9512 -0.1210
 1002MOL0     O35193   0.398   2.037   4.886  0.3653  0.2777  0.0081
 1002MOL0     C35194   0.362   1.901   4.916  0.1980  0.4698 -0.0835
 1002MOL0     C35195   0.297   1.841   4.786  0.0765 -0.5408 -0.3419
 1002MOL0     C35196   0.186   1.913   4.722  0.2161 -0.2586  0.3981
 1002MOL0     C35197   0.074   1.822   4.669  0.0031 -0.5210 -0.0521
 1002MOL0     C35198  -0.008   1.914   4.588  0.1008 -0.2434 -0.0325
 1002MOL0     C35199  -0.092   1.987   4.525  0.3402  0.2135 -0.5141
 1002MOL0     C35200   0.484   2.081   5.105 -0.4765  0.6715  0.1304
 1002MOL0     C35201   0.595   2.123   5.182  0.0381  1.4131 -0.7947
 1002MOL0     C35202   0.573   2.145   5.328  0.3883  0.6729  0.1663
 1002MOL0     H35203   0.955   2.208   5.536  2.9269  2.9016  0.2995
 1002MOL0     H35204   1.181   2.154   5.648 -1.2217  0.2324  0.4167
 1002MOL0     H35205   1.483   2.192   5.574 -0.4373  0.8209  0.0909
 1002MOL0     H35206   1.389   2.112   5.698 -1.0333 -4.5972 -0.6501
 1002MOL0     H35207   1.625   1.989   5.541 -0.9729  2.4018 -1.4987
 1002MOL0     H35208   1.561   1.915   5.690  0.0915  0.2814 -0.1582
 1002MOL0     H35209   1.652   2.074   5.827  1.7024  2.0204  0.1073
 1002MOL0     H35210   1.703   2.192   5.700  0.7520  0.0449 -3.4628
 1002MOL0     H35211   1.824   1.911   5.758  4.1987  0.4478  0.4558
 1002MOL0     H35212   1.849   2.024   5.617 -2.2741 -1.1241 -1.6334
 1002MOL0     H35213   1.971   2.171   5.773 -3.4930  0.6472 -0.4096
 1002MOL0     H35214   1.880   2.092   5.908 -1.5620 -1.0837 -0.9365
 1002MOL0     H35215   2.015   1.885   5.878 -2.2309  1.2019  2.3279
 1002MOL0     H35216   2.102   1.958   5.732  3.1578 -0.9452  1.9386
 1002MOL0     H35217   2.232   1.955   5.949 -1.9814 -1.8726 -0.5732
 1002MOL0     H35218   2.130   2.062   6.008  1.8527  0.5278  0.4681
 1002MOL0     H35219   2.280   2.110   5.751 -2.2900 -0.8943 -0.1479
 1002MOL0     H35220   2.202   2.243   5.858 -1.3241 -0.6609 -0.8823
 1002MOL0     H35221   2.529   2.028   5.861  0.8916 -1.1385 -0.6852
 1002MOL0     H35222   2.778   2.121   5.966  2.8748  2.8984  1.7544
 1002MOL0     H35223   2.756   2.187   6.135  1.2585  0.3903 -0.7504
 1002MOL0     H35224   2.686   1.901   6.047  0.8668  1.6365 -1.6256
 1002MOL0     H35225   2.824   1.948   6.138 -0.0128 -0.4345 -0.4852
 1002MOL0     H35226   2.564   2.043   6.268  1.3427  2.2525 -0.1007
 1002MOL0     H35227   2.718   2.029   6.335 -1.0768  1.5495  0.3259
 1002MOL0     H35228   2.563   1.848   6.415 -0.7370  1.3157 -0.7193
 1002MOL0     H35229   2.704   1.779   6.321 -0.9117 -0.5529  0.0859
 1002MOL0     H35230   2.336   1.689   6.082 -1.8056  0.8532 -2.7066
 1002MOL0     H35231   2.088   1.726   6.094  0.8924  2.2510 -2.3279
 1002MOL0     H35232   1.739   2.104   6.213 -2.5427 -0.8195  3.1920
 1002MOL0     H35233   1.500   2.130   6.186  1.8999  2.7994 -1.1914
 1002MOL0     H35234   1.336   1.941   5.839  2.4168 -3.8226 -0.1391
 1002MOL0     H35235   1.250   1.816   5.928 -2.6384  1.0582  1.7375
 1002MOL0     H35236   1.099   2.013   6.012 -0.6012 -3.6225  1.4686
 1002MOL0     H35237   1.181   2.099   5.877  4.0631 -1.4217 -0.3674
 1002MOL0     H35238   1.031   1.991   5.731 -1.2779  0.5101  1.0525
 1002MOL0     H35239   1.065   1.837   5.790 -1.6607  0.1643 -0.6616
 1002MOL0     H35240   0.859   2.020   5.938  0.7260  2.0138 -2.7752
 1002MOL0     H35241   0.902   1.839   5.965 -1.7728  0.2226 -0.4495
 1002MOL0     H35242   0.817   1.789   5.755  1.3528 -0.5962  4.3290
 1002MOL0     H35243   0.830   1.965   5.698  1.9688  0.1531  0.6394
 1002MOL0     H35244   0.641   1.859   5.902  2.3482  0.3235  0.1356
 1002MOL0     H35245   0.637   2.019   5.825 -1.8654 -0.1875  0.1462
 1002MOL0     H35246   0.570   1.744   5.717 -0.8531 -0.3676  0.5274
 1002MOL0     H35247   0.588   1.871   5.602 -1.5599  0.2460  0.4305
 1002MOL0     H35248   0.419   1.993   5.769 -0.4734  0.4061 -2.1894
 1002MOL0     H35249   0.353   1.876   5.658 -1.4225 -2.1155  0.9529
 1002MOL0     H35250   1.494   1.748   5.971  0.3023 -1.1216  0.6646
 1002MOL0     H35251   1.739   1.755   5.980 -0.8816 -0.5919  0.8734
 1002MOL0     H35252   2.153   2.020   6.388 -0.8572 -1.6931  2.8514
 1002MOL0     H35253   2.389   1.961   6.396 -0.3757 -1.3115  1.0625
 1002MOL0     H35254   1.291   1.960   5.285  1.0287 -0.7255  1.9704
 1002MOL0     H35255   1.075   1.992   5.193  1.1434  1.0037  0.1984
 1002MOL0     H35256   0.809   2.169   4.929  0.5348 -1.4641 -0.4394
 1002MOL0     H35257   0.632   2.116   4.798  0.4851  0.9105  0.7101
 1002MOL0     H35258   0.290   1.898   4.999  1.9478 -1.0230  1.4910
 1002MOL0     H35259   0.449   1.847   4.955 -0.2400 -1.2634 -1.3981
 1002MOL0     H35260   0.258   1.745   4.821  0.2647  0.2973  2.3883
 1002MOL0     H35261   0.372   1.833   4.707 -1.9937 -2.7173 -2.2487
 1002MOL0     H35262   0.224   1.980   4.644 -2.7541 -0.1430 -1.0875
 1002MOL0     H35263   0.146   1.982   4.796 -0.1449  1.0788 -0.9813
 1002MOL0     H35264   0.113   1.741   4.607 -0.7355 -1.2235  0.3774
 1002MOL0     H35265   0.008   1.789   4.751  1.2267 -4.2692 -0.3663
 1002MOL0     H35266  -0.163   2.055   4.482 -1.8033 -0.9675  0.9636
 1002MOL0     H35267   0.389   2.070   5.157 -0.1957  0.4613  0.5945
 1002MOL0     H35268   0.611   2.061   5.386  2.5972  0.0500 -1.9996
 1002MOL0     H35269   0.615   2.243   5.354 -1.1915  1.6473 -0.7566
 1002MOL0     H35270   0.465   2.140   5.344  0.3472 -0.9901 -0.4677
 1003MOL0     O35271   7.098   5.290  10.633 -0.2789  0.0922  0.4545
 1003MOL0     C35272   7.082   5.173  10.672 -0.2020  0.1296 -0.2945
 1003MOL0     O35273   7.184   5.083  10.699 -0.9077 -0.6911  0.4472
 1003MOL0     C35274   7.315   5.128  10.702  0.3875  0.5406 -0.9126
 1003MOL0     C35275   7.361   5.251  10.757 -0.6488 -0.2194  0.0779
 1003MOL0     C35276   7.496   5.280  10.759 -0.8062 -0.0846 -0.9588
 1003MOL0     C35277   7.598   5.190  10.734  0.0819  0.3666  0.7941
 1003MOL0     O35278   7.717   5.235  10.738 -0.0234 -0.0881  0.0964
 1003MOL0     C35279   7.830   5.154  10.696 -0.5516  0.1416  0.4721
 1003MOL0     C35280   7.878   5.045  10.794  0.2726  0.9108 -1.1629
 1003MOL0     C35281   7.964   4.932  10.738 -0.4398  0.8145  0.2589
 1003MOL0     C35282   8.064   4.885  10.847  0.9615  0.3953 -0.1631
 1003MOL0     C35283   8.176   4.807  10.781 -1.0319 -0.2484 -0.2300
 1003MOL0     C35284   8.272   4.740  10.880  1.3596 -0.0531  0.5209
 1003MOL0     C35285   8.395   4.680  10.812  0.2450 -0.0721 -0.2174
 1003MOL0     C35286   8.364   4.576  10.697 -0.6342  0.3054  0.9352
 1003MOL0     N35287   8.483   4.554  10.620 -1.0021 -0.0799 -0.2164
 1003MOL0     C35288   8.497   4.594  10.487  0.2035 -0.4238  0.4243
 1003MOL0     C35289   8.615   4.541  10.449  0.4223 -0.3511  0.3358
 1003MOL0     C35290   8.668   4.555  10.313  0.0741 -0.5912 -0.1195
 1003MOL0     C35291   8.789   4.654  10.301  0.1672 -0.7326  0.4059
 1003MOL0     C35292   8.923   4.578  10.289  0.4385 -0.0188 -0.2588
 1003MOL0     C35293   8.999   4.549  10.421 -0.8879  0.1360 -0.2661
 1003MOL0     O35294   9.083   4.656  10.454  0.3347 -0.2833 -0.2419
 1003MOL0     C35295   9.219   4.652  10.428  0.0753  0.2490 -0.4808
 1003MOL0     C35296   9.281   4.594  10.313 -0.3039 -0.0965 -0.4592
 1003MOL0     C35297   9.428   4.598  10.299 -0.8381  0.4341  0.2517
 1003MOL0     C35298   9.513   4.658  10.401  0.1991 -0.8649  0.0218
 1003MOL0     C35299   9.652   4.661  10.398 -1.0303  0.6015  0.4006
 1003MOL0     O35300   9.719   4.779  10.447 -0.5483 -0.2493 -0.1316
 1003MOL0     C35301   9.857   4.777  10.427  0.2583  0.6836 -0.2083
 1003MOL0     C35302   9.943   4.692  10.492  0.0321  0.0654 -0.6495
 1003MOL0     C35303  10.080   4.698  10.461  0.0681  1.1689  0.8742
 1003MOL0     C35304  10.126   4.787  10.362  0.2659 -0.9201 -0.0674
 1003MOL0     O35305  10.256   4.785  10.326  0.1181 -0.1390 -0.7133
 1003MOL0     C35306  10.287   4.660  10.261  0.2160 -1.2176 -0.2467
 1003MOL0     C35307  10.434   4.671  10.224  0.2344 -0.0343 -0.2333
 1003MOL0     C35308  10.526   4.690  10.344 -1.1792 -0.3891 -0.3778
 1003MOL0     C35309  10.684   4.683  10.300  0.0148 -0.5475  0.1636
 1003MOL0     C35310  10.799   4.704  10.405 -0.4150  0.4006 -0.0776
 1003MOL0     C35311  10.935   4.720  10.336 -0.1224  0.1638 -0.6067
 1003MOL0     C35312  11.069   4.684  10.421  0.5790  0.4899 -0.2051
 1003MOL0     C35313  11.200   4.705  10.336  1.4295  0.3268  0.0791
 1003MOL0    Cl35314  11.354   4.670  10.417  0.2327 -0.1903  0.1572
 1003MOL0     C35315  10.042   4.877  10.302  0.3536 -0.4444 -1.0448
 1003MOL0     C35316   9.909   4.864  10.333  0.7286  0.1374 -0.0352
 1003MOL0     O35317   9.708   4.566  10.348  0.0909 -0.6938  0.1601
 1003MOL0     C35318   9.441   4.722  10.504 -0.5056 -0.6157 -0.6500
 1003MOL0     C35319   9.304   4.716  10.521 -0.1609 -0.7644  0.0948
 1003MOL0     N35320   8.671   4.483  10.556 -0.5315  0.4613 -0.3495
 1003MOL0     N35321   8.594   4.495  10.657  0.0303 -0.8287  0.4944
 1003MOL0     C35322   7.547   5.063  10.702 -0.4016 -0.2735 -0.0090
 1003MOL0     C35323   7.410   5.033  10.678  0.8362  0.5157  0.1658
 1003MOL0     C35324   6.944   5.126  10.700 -0.3355 -0.3284  0.2316
 1003MOL0     C35325   6.924   4.998  10.758 -0.6141 -0.7369  0.5382
 1003MOL0     C35326   6.802   4.950  10.806  0.7884 -0.2060 -0.1141
 1003MOL0     C35327   6.684   5.025  10.785  0.3500 -0.0317 -0.1990
 1003MOL0     O35328   6.572   4.958  10.810  0.0828 -0.1698  0.5809
 1003MOL0     C35329   6.498   4.931  10.688 -0.3168 -0.5382 -0.5662
 1003MOL0     C35330   6.348   4.924  10.715  0.9468  0.2336 -1.3572
 1003MOL0     C35331   6.271   4.862  10.598  0.0318  0.3010 -0.0843
 1003MOL0     C35332   6.121   4.866  10.634 -0.6306  0.3282 -0.0014
 1003MOL0     C35333   6.032   4.795  10.555  0.2814 -0.0655 -0.5507
 1003MOL0     C35334   5.955   4.732  10.483 -0.1365 -1.1052 -0.2966
 1003MOL0     C35335   6.698   5.155  10.727 -0.6305 -1.1894  0.1307
 1003MOL0     C35336   6.822   5.206  10.687  0.5422  0.1023  0.6453
 1003MOL0     C35337   6.814   5.347  10.624  0.2107  0.3872 -0.2802
 1003MOL0     H35338   7.291   5.316  10.808 -1.7217 -2.2009  1.2372
 1003MOL0     H35339   7.522   5.382  10.785  0.6157 -0.7006  0.1823
 1003MOL0     H35340   7.803   5.101  10.605  2.3194 -2.6693  1.0981
 1003MOL0     H35341   7.913   5.224  10.679  0.9147 -1.5462  0.4422
 1003MOL0     H35342   7.797   4.984  10.834 -0.3404  2.6067  0.3261
 1003MOL0     H35343   7.933   5.094  10.875  1.4386  2.6120 -2.9028
 1003MOL0     H35344   8.027   4.972  10.658  2.4037  1.0580  2.4479
 1003MOL0     H35345   7.900   4.851  10.703  1.6149 -1.8908  2.3086
 1003MOL0     H35346   8.110   4.971  10.897 -0.5372  0.0107  1.9892
 1003MOL0     H35347   8.005   4.828  10.919 -2.8966  0.4176 -2.9903
 1003MOL0     H35348   8.123   4.737  10.716 -0.0352 -1.1639 -0.0665
 1003MOL0     H35349   8.229   4.880  10.718 -1.9364  0.4835 -0.1590
 1003MOL0     H35350   8.305   4.814  10.953  1.5108  2.2798 -1.7458
 1003MOL0     H35351   8.209   4.661  10.921 -0.0392 -1.5002 -3.8880
 1003MOL0     H35352   8.451   4.625  10.888  0.8455  1.1310  0.2440
 1003MOL0     H35353   8.457   4.758  10.767  1.8961  1.3031  3.9438
 1003MOL0     H35354   8.332   4.478  10.733 -1.3420  0.3762  0.5325
 1003MOL0     H35355   8.285   4.607  10.628  0.7154  1.5098 -0.1425
 1003MOL0     H35356   8.426   4.653  10.431 -0.3716 -0.8693  0.6774
 1003MOL0     H35357   8.683   4.450  10.287 -2.4631 -1.2446  0.7575
 1003MOL0     H35358   8.592   4.590  10.242 -1.3696 -1.7695  0.8098
 1003MOL0     H35359   8.767   4.724  10.220 -3.3528 -1.1564  0.8335
 1003MOL0     H35360   8.795   4.727  10.382 -1.3804 -0.3125  0.1628
 1003MOL0     H35361   8.991   4.647  10.239  0.2157 -0.9383 -1.9199
 1003MOL0     H35362   8.922   4.493  10.220 -0.4737  0.5959 -1.0246
 1003MOL0     H35363   9.060   4.461  10.403  1.2766  1.7787 -1.3713
 1003MOL0     H35364   8.928   4.545  10.505 -1.5301  4.2746 -0.4213
 1003MOL0     H35365   9.219   4.530  10.251  0.8042 -2.2903  0.5987
 1003MOL0     H35366   9.477   4.537  10.223 -1.5650  0.1295  0.0145
 1003MOL0     H35367   9.900   4.631  10.571  2.3833 -1.0242 -0.1440
 1003MOL0     H35368  10.145   4.624  10.506 -0.0636 -1.7213 -3.1285
 1003MOL0     H35369  10.268   4.582  10.335 -0.7311  0.5122  1.4332
 1003MOL0     H35370  10.228   4.652  10.169  2.5246 -1.1738 -1.7995
 1003MOL0     H35371  10.465   4.582  10.169 -1.5523  1.2046 -3.4881
 1003MOL0     H35372  10.435   4.754  10.154 -1.2062 -1.2450 -1.7953
 1003MOL0     H35373  10.515   4.785  10.397  0.7481  1.0308 -2.3449
 1003MOL0     H35374  10.515   4.617  10.425  0.0661 -0.2520 -0.0639
 1003MOL0     H35375  10.713   4.749  10.218  1.5892  1.4577  2.2207
 1003MOL0     H35376  10.698   4.581  10.262 -1.7628 -0.5305 -0.6672
 1003MOL0     H35377  10.809   4.625  10.480 -1.3672  2.0759  1.9137
 1003MOL0     H35378  10.778   4.792  10.466  0.6625  0.6319 -0.0276
 1003MOL0     H35379  10.934   4.656  10.247  0.4645 -2.0216  0.8787
 1003MOL0     H35380  10.922   4.824  10.306 -3.2802  0.6096  1.7816
 1003MOL0     H35381  11.049   4.590  10.473 -0.1657  1.1892  0.8306
 1003MOL0     H35382  11.085   4.754  10.504  1.7268 -0.3737  0.3225
 1003MOL0     H35383  11.194   4.637  10.251  0.7163 -2.4057  2.1714
 1003MOL0     H35384  11.207   4.810  10.308  1.1430  0.0939 -0.8769
 1003MOL0     H35385  10.088   4.947  10.234  0.9161  0.7228  0.4713
 1003MOL0     H35386   9.836   4.924  10.279 -3.0019 -2.0921  2.1094
 1003MOL0     H35387   9.492   4.763  10.591 -0.1568 -1.1318 -0.6102
 1003MOL0     H35388   9.266   4.751  10.616  0.1459 -3.2670  1.2109
 1003MOL0     H35389   7.604   4.974  10.674 -1.9738 -0.7033 -2.1219
 1003MOL0     H35390   7.370   4.936  10.649 -0.9085  1.0099  0.8177
 1003MOL0     H35391   7.006   4.936  10.793 -1.3820 -0.9807  1.9978
 1003MOL0     H35392   6.792   4.856  10.859 -1.8260  1.1290  2.0376
 1003MOL0     H35393   6.523   4.830  10.653  0.2796 -0.5629 -0.0992
 1003MOL0     H35394   6.523   4.997  10.605  0.3936 -1.3060 -0.9813
 1003MOL0     H35395   6.304   5.023  10.726 -0.1426 -0.2895 -0.9272
 1003MOL0     H35396   6.342   4.860  10.803  1.5172 -1.3485 -2.4266
 1003MOL0     H35397   6.301   4.757  10.597  3.4163  1.1561 -0.9497
 1003MOL0     H35398   6.296   4.904  10.501 -0.6825  0.8707 -0.0292
 1003MOL0     H35399   6.118   4.827  10.736 -0.0326  1.6483  0.5281
 1003MOL0     H35400   6.095   4.972  10.636 -0.3796  0.3758  0.8907
 1003MOL0     H35401   5.871   4.674  10.450  0.2604 -2.7152  1.3531
 1003MOL0     H35402   6.601   5.204  10.723 -2.1733 -4.0443 -0.2761
 1003MOL0     H35403   6.838   5.341  10.518  0.4799 -3.3084 -0.1369
 1003MOL0     H35404   6.713   5.384  10.642 -0.1444 -0.7587  0.2044
 1003MOL0     H35405   6.879   5.414  10.682 -0.7590  1.4735 -0.4246
 1004MOL0     O35406  10.860   6.248   8.851 -0.4773  0.3482 -0.2209
 1004MOL0     C35407  10.892   6.365   8.885  0.5808 -0.2751  1.0344
 1004MOL0     O35408  10.812   6.470   8.870  0.7191  0.4633 -0.7190
 1004MOL0     C35409  10.717   6.468   8.769 -0.9765  0.3319 -0.1133
 1004MOL0     C35410  10.597   6.527   8.786  0.3160 -0.9338 -0.4714
 1004MOL0     C35411  10.491   6.513   8.694 -0.7579  0.1062  0.2524
 1004MOL0     C35412  10.512   6.448   8.574 -0.2623 -0.4017  0.9162
 1004MOL0     O35413  10.406   6.428   8.485 -0.2011 -0.7188  0.2497
 1004MOL0     C35414  10.433   6.408   8.347  0.1355  0.0269 -0.1045
 1004MOL0     C35415  10.314   6.354   8.277 -0.4690  0.5275  0.4022
 1004MOL0     C35416  10.313   6.369   8.127 -0.6959  0.5906  0.0732
 1004MOL0     C35417  10.289   6.226   8.074 -0.0128 -0.0744 -0.2134
 1004MOL0     C35418  10.318   6.228   7.912  0.0568 -0.3526 -1.5575
 1004MOL0     C35419  10.204   6.262   7.825 -0.6979 -0.4539  0.4772
 1004MOL0     C35420  10.270   6.275   7.685  0.0294 -0.1020  0.6588
 1004MOL0     C35421  10.176   6.289   7.568  0.2772 -0.1500 -0.7850
 1004MOL0     N35422  10.243   6.275   7.435 -0.3994  0.0545  0.1456
 1004MOL0     C35423  10.333   6.371   7.387  0.2424  0.0921  0.2636
 1004MOL0     C35424  10.378   6.324   7.262 -0.6932 -0.3805  0.4638
 1004MOL0     C35425  10.460   6.373   7.148 -0.6335  0.5035 -0.1714
 1004MOL0     C35426  10.480   6.267   7.028  0.9906  0.0091 -0.5036
 1004MOL0     C35427  10.581   6.151   7.070 -0.6028  0.3450  0.6902
 1004MOL0     C35428  10.610   6.031   6.971  0.4786 -0.0397  0.1652
 1004MOL0     O35429  10.652   6.092   6.853  0.3623 -0.1911 -0.2005
 1004MOL0     C35430  10.716   6.011   6.761 -0.4064  0.1976 -0.4984
 1004MOL0     C35431  10.717   5.867   6.762  0.4379  0.2337  0.3562
 1004MOL0     C35432  10.786   5.797   6.668  0.8586 -0.0482  0.1980
 1004MOL0     C35433  10.852   5.854   6.561 -0.7638 -0.1715  0.3558
 1004MOL0     C35434  10.907   5.761   6.466 -0.0098 -0.0587  0.2705
 1004MOL0     O35435  10.937   5.806   6.341  0.4067  0.5636  0.0777
 1004MOL0     C35436  10.987   5.724   6.242 -0.0592 -0.3622 -0.0373
 1004MOL0     C35437  10.911   5.693   6.125  0.8659 -0.7430  0.1651
 1004MOL0     C35438  10.964   5.637   6.015 -0.1169  0.2240 -0.1323
 1004MOL0     C35439  11.086   5.569   6.021 -0.4342 -0.2326 -0.5372
 1004MOL0     O35440  11.116   5.497   5.912 -0.4061 -0.8889 -0.3741
 1004MOL0     C35441  11.167   5.565   5.799 -0.0731  0.0882  0.8704
 1004MOL0     C35442  11.177   5.465   5.688  0.1962 -0.6422  0.1371
 1004MOL0     C35443  11.194   5.525   5.545 -0.5171  0.2450  0.3739
 1004MOL0     C35444  11.226   5.406   5.448  0.1403  0.0995 -0.8283
 1004MOL0     C35445  11.278   5.452   5.320 -0.5515 -0.0863 -0.1139
 1004MOL0     C35446  11.371   5.349   5.266  0.1875 -0.1719 -0.2301
 1004MOL0     C35447  11.414   5.390   5.118  0.0102 -1.0279  0.0366
 1004MOL0     C35448  11.483   5.270   5.043  1.2926 -0.5251  0.9762
 1004MOL0    Cl35449  11.563   5.333   4.894 -0.5646  0.0190 -0.1623
 1004MOL0     C35450  11.174   5.590   6.131  0.4619  0.1855 -0.6230
 1004MOL0     C35451  11.122   5.672   6.233  0.5622 -0.1543 -0.5192
 1004MOL0     O35452  10.928   5.641   6.498 -0.3480  0.0287 -0.5753
 1004MOL0     C35453  10.836   5.995   6.551  0.4098  0.3658 -0.1879
 1004MOL0     C35454  10.764   6.067   6.647  0.9706 -0.4694  0.1746
 1004MOL0     N35455  10.298   6.211   7.254 -1.3507 -0.4425  0.2731
 1004MOL0     N35456  10.222   6.179   7.350 -0.1878 -0.0711 -0.1827
 1004MOL0     C35457  10.643   6.406   8.545 -0.1097 -0.2043 -0.4987
 1004MOL0     C35458  10.739   6.411   8.642 -0.4665 -0.8492  1.0523
 1004MOL0     C35459  11.028   6.403   8.942  0.5614  0.8431  0.7384
 1004MOL0     C35460  11.041   6.523   9.012 -0.5307  0.6334  0.0288
 1004MOL0     C35461  11.165   6.557   9.066 -0.4565  0.8389 -0.3063
 1004MOL0     C35462  11.286   6.487   9.037  0.6295  0.2640 -0.1972
 1004MOL0     O35463  11.409   6.519   9.086  0.3026  0.0498 -0.7487
 1004MOL0     C35464  11.427   6.643   9.154 -0.4894 -0.3514  0.0968
 1004MOL0     C35465  11.576   6.653   9.196 -0.2170  0.1350  0.3897
 1004MOL0     C35466  11.608   6.568   9.317  0.2835 -0.0283 -0.2317
 1004MOL0     C35467  11.744   6.605   9.370  0.2596 -0.9216 -0.1727
 1004MOL0     C35468  11.762   6.553   9.497 -0.8239 -0.0528 -0.7401
 1004MOL0     C35469  11.780   6.529   9.614 -0.5978 -1.0302  1.3014
 1004MOL0     C35470  11.271   6.374   8.952 -0.1060 -0.3553 -0.2185
 1004MOL0     C35471  11.146   6.323   8.916 -1.4113 -0.9878  0.1134
 1004MOL0     C35472  11.146   6.208   8.815 -0.2535 -0.4659 -0.1159
 1004MOL0     H35473  10.568   6.599   8.863 -0.3045 -3.6017  1.9785
 1004MOL0     H35474  10.397   6.556   8.726  0.1007  0.1769  2.9960
 1004MOL0     H35475  10.458   6.507   8.308 -1.5730  0.3479 -0.4911
 1004MOL0     H35476  10.507   6.329   8.329  0.0641  0.0804 -0.6692
 1004MOL0     H35477  10.227   6.410   8.312 -0.3366 -0.8613  3.2374
 1004MOL0     H35478  10.319   6.249   8.307 -1.8021 -0.6787 -3.0802
 1004MOL0     H35479  10.410   6.408   8.094  0.6427 -0.0921  2.8862
 1004MOL0     H35480  10.224   6.422   8.091 -1.2432 -1.3706 -1.6918
 1004MOL0     H35481  10.360   6.158   8.121 -0.4727  0.1484  0.8120
 1004MOL0     H35482  10.186   6.192   8.089  0.4787 -1.2402  0.6317
 1004MOL0     H35483  10.401   6.295   7.889 -1.1478  1.9861  0.3620
 1004MOL0     H35484  10.346   6.127   7.881  2.1966  0.6526 -3.1345
 1004MOL0     H35485  10.129   6.182   7.824  0.4058 -1.7239 -4.1998
 1004MOL0     H35486  10.154   6.355   7.854 -3.2509 -1.3822 -0.6512
 1004MOL0     H35487  10.343   6.195   7.666  3.8592  3.5856 -2.2023
 1004MOL0     H35488  10.314   6.375   7.677 -0.2891 -0.1205 -2.2739
 1004MOL0     H35489  10.100   6.210   7.571  0.2405 -0.1807 -2.0215
 1004MOL0     H35490  10.134   6.390   7.576  2.9829  0.9442  0.5989
 1004MOL0     H35491  10.360   6.464   7.437 -2.3502  1.4355 -0.6588
 1004MOL0     H35492  10.422   6.467   7.107  1.0076 -0.2597 -3.8166
 1004MOL0     H35493  10.553   6.394   7.202  1.3306 -0.7001 -2.8379
 1004MOL0     H35494  10.388   6.212   7.004  3.1357 -3.5912 -1.1437
 1004MOL0     H35495  10.522   6.319   6.942  2.2247  3.6923  2.0822
 1004MOL0     H35496  10.558   6.110   7.168  1.1883 -0.2806  0.8936
 1004MOL0     H35497  10.669   6.215   7.082 -0.4123  0.5277 -1.2272
 1004MOL0     H35498  10.529   5.960   6.952  1.2735 -0.7256 -0.7450
 1004MOL0     H35499  10.691   5.969   7.010 -1.9950 -1.3078  3.8935
 1004MOL0     H35500  10.668   5.821   6.847  0.5691  0.0177  0.3159
 1004MOL0     H35501  10.798   5.693   6.694 -2.5380 -0.2215  1.5759
 1004MOL0     H35502  10.812   5.735   6.114  1.2178 -0.4508 -2.3909
 1004MOL0     H35503  10.894   5.613   5.936  0.5221 -1.3227 -0.2650
 1004MOL0     H35504  11.106   5.651   5.770 -0.4223 -1.0456 -2.0656
 1004MOL0     H35505  11.269   5.605   5.811 -0.5105  0.5174  3.9057
 1004MOL0     H35506  11.261   5.397   5.707 -2.0003 -2.9221  2.5909
 1004MOL0     H35507  11.087   5.403   5.688 -2.3141  2.5035 -3.8410
 1004MOL0     H35508  11.102   5.575   5.512 -1.1324 -0.4520  0.9731
 1004MOL0     H35509  11.270   5.603   5.543 -2.8800  2.6845 -0.9397
 1004MOL0     H35510  11.142   5.337   5.435  0.7409 -0.6059 -1.0495
 1004MOL0     H35511  11.300   5.340   5.495  1.0314  1.1202 -0.7496
 1004MOL0     H35512  11.339   5.543   5.324 -2.9894  1.7076 -1.6034
 1004MOL0     H35513  11.193   5.459   5.252 -0.8597 -3.2459 -0.1917
 1004MOL0     H35514  11.464   5.352   5.324  0.7838 -1.8963 -1.0048
 1004MOL0     H35515  11.337   5.246   5.275 -0.0521 -0.0098  0.8134
 1004MOL0     H35516  11.494   5.464   5.125  0.0770 -0.9159 -1.5790
 1004MOL0     H35517  11.328   5.431   5.063 -1.4158 -0.5197  2.4911
 1004MOL0     H35518  11.568   5.218   5.090  0.4045 -2.1657  0.8629
 1004MOL0     H35519  11.418   5.185   5.019  0.3959  1.0294 -2.7246
 1004MOL0     H35520  11.273   5.546   6.137 -0.6196 -2.2631  1.2156
 1004MOL0     H35521  11.192   5.685   6.315  0.7967 -0.1305 -0.7185
 1004MOL0     H35522  10.879   6.046   6.465  1.6518 -0.6501 -0.2017
 1004MOL0     H35523  10.743   6.174   6.650 -5.0580 -1.3268  2.3448
 1004MOL0     H35524  10.663   6.352   8.453 -3.2180  3.6345 -3.7673
 1004MOL0     H35525  10.834   6.359   8.630 -1.0813 -2.6070  3.1338
 1004MOL0     H35526  10.956   6.590   9.024 -0.0698  1.5144 -1.4351
 1004MOL0     H35527  11.150   6.645   9.127 -2.0817 -1.0465  2.2389
 1004MOL0     H35528  11.360   6.634   9.241 -1.8196 -2.6571 -1.0675
 1004MOL0     H35529  11.404   6.726   9.087 -0.8436  2.0549  2.9421
 1004MOL0     H35530  11.600   6.753   9.232 -1.0797 -0.2558  2.1480
 1004MOL0     H35531  11.647   6.630   9.115 -2.2946 -0.9245 -1.2414
 1004MOL0     H35532  11.604   6.464   9.281 -0.4323 -0.4741  1.1043
 1004MOL0     H35533  11.535   6.582   9.396  4.2901  1.3235  3.6511
 1004MOL0     H35534  11.819   6.575   9.296  0.4152  0.3354 -0.5510
 1004MOL0     H35535  11.751   6.713   9.388  2.9686 -1.4346  2.7914
 1004MOL0     H35536  11.776   6.519   9.721 -0.7852  0.1824  1.4213
 1004MOL0     H35537  11.363   6.321   8.933  0.3285  0.0438  0.6821
 1004MOL0     H35538  11.250   6.185   8.791 -0.6294 -0.0133 -2.3610
 1004MOL0     H35539  11.099   6.119   8.858  1.6244 -0.3415  2.4672
 1004MOL0     H35540  11.112   6.238   8.716  0.1426 -1.5248 -0.5844
 1005MOL0     O35541   0.682   9.193   1.930 -0.7705  0.1221  0.5245
 1005MOL0     C35542   0.683   9.277   1.838  0.2493  0.5540  0.5069
 1005MOL0     O35543   0.786   9.297   1.756 -0.1752 -0.3324  0.7333
 1005MOL0     C35544   0.912   9.260   1.790  0.5173 -0.2128  0.5773
 1005MOL0     C35545   0.988   9.207   1.682 -0.2841 -0.0816 -0.9118
 1005MOL0     C35546   1.113   9.171   1.694 -0.1218  0.5838  0.3453
 1005MOL0     C35547   1.176   9.189   1.815  0.4831  0.2270 -0.2720
 1005MOL0     O35548   1.312   9.169   1.826  0.1030 -0.0177  0.0442
 1005MOL0     C35549   1.376   9.082   1.735 -0.0131  0.2341  0.0096
 1005MOL0     C35550   1.522   9.089   1.784 -0.4071  0.4868  0.3891
 1005MOL0     C35551   1.609   8.985   1.705 -0.7198 -1.1295  0.7298
 1005MOL0     C35552   1.567   8.846   1.703  0.1051  0.1171  0.0684
 1005MOL0     C35553   1.672   8.752   1.639  0.2035 -0.2315  1.0466
 1005MOL0     C35554   1.800   8.736   1.714 -0.9268  0.0147 -0.5796
 1005MOL0     C35555   1.904   8.637   1.662  0.0496 -0.3804  0.3132
 1005MOL0     C35556   1.872   8.485   1.670  0.6813  0.0206  0.3234
 1005MOL0     N35557   1.772   8.431   1.568 -0.2202  0.3481 -0.6144
 1005MOL0     C35558   1.810   8.406   1.434 -0.4597 -0.0313 -0.4857
 1005MOL0     C35559   1.699   8.347   1.378 -0.8452 -0.0088 -1.0138
 1005MOL0     C35560   1.663   8.329   1.239  0.4481 -0.1195  0.8365
 1005MOL0     C35561   1.635   8.178   1.200 -0.3301 -0.4095  0.5996
 1005MOL0     C35562   1.758   8.081   1.205 -1.1222  0.2529 -0.3094
 1005MOL0     C35563   1.834   8.085   1.069  0.1515 -0.9008 -0.5078
 1005MOL0     O35564   1.907   8.208   1.067  0.5856 -0.4725 -0.1826
 1005MOL0     C35565   2.044   8.210   1.029  0.2642  0.4764 -0.7592
 1005MOL0     C35566   2.128   8.304   1.079  1.1457  0.2495 -0.4991
 1005MOL0     C35567   2.253   8.323   1.017  0.7937  0.1146 -0.7501
 1005MOL0     C35568   2.284   8.247   0.899 -0.9637  0.7956 -0.6150
 1005MOL0     C35569   2.405   8.275   0.820  0.1350 -0.1047  0.0038
 1005MOL0     O35570   2.486   8.384   0.874  0.2805 -0.2673  0.4073
 1005MOL0     C35571   2.611   8.408   0.816  0.6634 -0.6618 -0.0233
 1005MOL0     C35572   2.657   8.541   0.810  0.3863  1.5942  1.0598
 1005MOL0     C35573   2.778   8.572   0.764 -0.6722 -0.2261  0.1246
 1005MOL0     C35574   2.873   8.478   0.717 -0.0885  0.9946 -0.0114
 1005MOL0     O35575   2.991   8.518   0.645  0.5757 -0.2818 -0.0717
 1005MOL0     C35576   3.087   8.417   0.617 -0.0999  0.8226 -0.3242
 1005MOL0     C35577   3.221   8.488   0.589 -0.6463  0.0553  0.2556
 1005MOL0     C35578   3.292   8.550   0.708 -0.5068  1.0337  0.1791
 1005MOL0     C35579   3.411   8.458   0.772 -0.0163  0.6046  0.3117
 1005MOL0     C35580   3.521   8.439   0.674  0.1752  0.1289  0.0645
 1005MOL0     C35581   3.648   8.383   0.734 -0.6255  0.0625 -0.0752
 1005MOL0     C35582   3.757   8.390   0.634  0.4645  0.1557 -0.7303
 1005MOL0     C35583   3.896   8.345   0.684 -0.4071 -0.5284 -0.6049
 1005MOL0    Cl35584   3.971   8.469   0.803 -0.0919 -0.0939 -0.4794
 1005MOL0     C35585   2.834   8.336   0.730 -0.1200 -0.7643 -0.3511
 1005MOL0     C35586   2.707   8.312   0.781 -0.5056  0.0295  0.3396
 1005MOL0     O35587   2.436   8.203   0.723 -0.9709 -0.1424  0.3928
 1005MOL0     C35588   2.199   8.149   0.849 -0.2183 -0.4267 -0.2983
 1005MOL0     C35589   2.085   8.123   0.919  0.5337  0.9289 -0.1251
 1005MOL0     N35590   1.610   8.332   1.481  0.9661 -0.3280 -0.1615
 1005MOL0     N35591   1.650   8.383   1.589  1.0475  0.7089  0.7318
 1005MOL0     C35592   1.114   9.239   1.924  0.8556 -0.0419 -0.2748
 1005MOL0     C35593   0.981   9.274   1.910 -0.1695  0.2728  0.1097
 1005MOL0     C35594   0.557   9.341   1.791  0.1013 -0.0396  0.1283
 1005MOL0     C35595   0.558   9.395   1.663 -0.0258 -0.3491  1.2327
 1005MOL0     C35596   0.446   9.457   1.605  1.6233  0.7176 -0.4192
 1005MOL0     C35597   0.323   9.460   1.674 -0.1510 -0.6911  0.3765
 1005MOL0     O35598   0.216   9.535   1.636  0.6206 -0.0445 -0.2333
 1005MOL0     C35599   0.208   9.669   1.682  0.1744 -0.7203  0.6479
 1005MOL0     C35600   0.302   9.751   1.590 -0.6413 -0.7424 -0.2799
 1005MOL0     C35601   0.350   9.881   1.642 -1.0192  0.3409  0.5063
 1005MOL0     C35602   0.444   9.947   1.544  0.4828 -0.0236 -0.5528
 1005MOL0     C35603   0.586   9.925   1.573  0.1395 -0.4186 -0.0661
 1005MOL0     C35604   0.706   9.916   1.587 -0.1584 -0.0929  0.2691
 1005MOL0     C35605   0.321   9.403   1.805 -0.4145 -0.6843 -0.5830
 1005MOL0     C35606   0.439   9.350   1.865  0.0256 -0.2637 -0.4566
 1005MOL0     C35607   0.426   9.310   2.005 -0.5999 -0.4795  0.4859
 1005MOL0     H35608   0.940   9.200   1.585 -0.3698  2.1272 -1.0785
 1005MOL0     H35609   1.167   9.145   1.603  0.1705  0.1307  0.6436
 1005MOL0     H35610   1.343   8.979   1.749 -0.2547  0.5855  2.5402
 1005MOL0     H35611   1.364   9.129   1.637 -1.9582 -0.2307 -0.0068
 1005MOL0     H35612   1.522   9.052   1.888  1.1422 -3.5652 -0.8356
 1005MOL0     H35613   1.580   9.181   1.772  0.9316 -0.0895  1.9392
 1005MOL0     H35614   1.709   9.003   1.745  1.0864 -1.0869 -3.3454
 1005MOL0     H35615   1.624   9.031   1.607  0.6033  1.4824  2.0482
 1005MOL0     H35616   1.545   8.812   1.804  0.2185  0.3610  0.1774
 1005MOL0     H35617   1.470   8.833   1.654  0.9729 -0.1800 -1.6716
 1005MOL0     H35618   1.633   8.650   1.627 -0.1228 -0.5626  3.9973
 1005MOL0     H35619   1.678   8.792   1.538  0.1648  2.0808  1.9055
 1005MOL0     H35620   1.853   8.832   1.716  2.0038 -1.4504  1.7037
 1005MOL0     H35621   1.765   8.712   1.815 -0.9170 -3.6785 -1.3352
 1005MOL0     H35622   1.997   8.655   1.716  1.1438  1.1659 -1.9433
 1005MOL0     H35623   1.921   8.667   1.559  0.4221  1.9013  0.9979
 1005MOL0     H35624   1.964   8.437   1.637  1.3330  1.6138 -0.2834
 1005MOL0     H35625   1.846   8.464   1.774 -0.4084  0.1433  0.0853
 1005MOL0     H35626   1.898   8.440   1.381 -0.3017  0.3005 -0.0158
 1005MOL0     H35627   1.575   8.394   1.231  0.8372  0.3862  0.6462
 1005MOL0     H35628   1.734   8.377   1.172  1.0963 -0.6472  1.1366
 1005MOL0     H35629   1.559   8.139   1.268  0.1854  1.0790  2.0858
 1005MOL0     H35630   1.599   8.183   1.097 -1.1926  0.0393  0.9135
 1005MOL0     H35631   1.717   7.981   1.219 -0.3714 -0.1540 -0.9777
 1005MOL0     H35632   1.836   8.088   1.281 -1.4615 -3.4834  0.5749
 1005MOL0     H35633   1.773   8.090   0.978 -0.3939  3.3079 -0.1055
 1005MOL0     H35634   1.895   7.994   1.058  0.7686 -0.4879 -0.5804
 1005MOL0     H35635   2.097   8.371   1.158  2.8316 -0.2886  0.6693
 1005MOL0     H35636   2.318   8.402   1.053 -1.1257  2.5038 -2.2472
 1005MOL0     H35637   2.589   8.624   0.830 -0.5055  2.2703 -3.6552
 1005MOL0     H35638   2.796   8.677   0.743 -1.7732 -0.3201 -1.3979
 1005MOL0     H35639   3.096   8.341   0.695  1.1235  0.6574 -0.6054
 1005MOL0     H35640   3.079   8.377   0.516  1.4397 -0.8554  0.1660
 1005MOL0     H35641   3.294   8.426   0.537 -1.9240 -0.6849 -0.7199
 1005MOL0     H35642   3.203   8.569   0.518 -0.6849  0.0864  0.3002
 1005MOL0     H35643   3.332   8.649   0.683  1.8373 -0.5455 -3.0724
 1005MOL0     H35644   3.217   8.565   0.786  1.7397  2.4142  2.2190
 1005MOL0     H35645   3.369   8.358   0.788  1.1691  0.2584  1.3604
 1005MOL0     H35646   3.438   8.498   0.870  1.6500  1.6493 -0.5196
 1005MOL0     H35647   3.526   8.531   0.617 -2.9650  1.2609  1.3677
 1005MOL0     H35648   3.491   8.366   0.598 -0.8597  0.0802  0.4965
 1005MOL0     H35649   3.677   8.438   0.824 -0.8692  0.1736 -0.0654
 1005MOL0     H35650   3.641   8.276   0.753  1.0303 -0.3841 -1.5876
 1005MOL0     H35651   3.765   8.493   0.597 -2.8780  0.1328 -1.7977
 1005MOL0     H35652   3.741   8.333   0.543  2.3786  1.8082 -2.2027
 1005MOL0     H35653   3.888   8.252   0.740 -1.8426  1.7426  3.4077
 1005MOL0     H35654   3.967   8.335   0.602  1.8615  0.9354  1.0347
 1005MOL0     H35655   2.898   8.250   0.713  1.9893  0.5289  0.4933
 1005MOL0     H35656   2.687   8.206   0.793 -1.4964 -0.6304 -4.8783
 1005MOL0     H35657   2.233   8.095   0.761  0.2840  1.3805 -1.2705
 1005MOL0     H35658   2.023   8.044   0.877  2.3832  0.5374 -2.3159
 1005MOL0     H35659   1.158   9.257   2.022 -1.0766  2.2444  0.2764
 1005MOL0     H35660   0.935   9.326   1.993  0.9830 -1.4874  1.9520
 1005MOL0     H35661   0.644   9.377   1.600 -1.2370 -2.8509  0.1527
 1005MOL0     H35662   0.442   9.480   1.499  0.7690 -1.8944 -1.0211
 1005MOL0     H35663   0.227   9.682   1.789 -0.5382  1.5553  0.5717
 1005MOL0     H35664   0.107   9.712   1.687  1.3834  2.2878  3.9119
 1005MOL0     H35665   0.244   9.773   1.500 -0.6378  3.0030  0.4891
 1005MOL0     H35666   0.396   9.697   1.572 -0.6562 -2.0506  2.8900
 1005MOL0     H35667   0.395   9.862   1.740 -0.3342 -2.6475 -0.2772
 1005MOL0     H35668   0.262   9.940   1.671 -0.3829  1.0621  1.0254
 1005MOL0     H35669   0.418   9.911   1.444  2.6547  0.9365 -1.5276
 1005MOL0     H35670   0.426  10.054   1.550 -1.0359 -0.2887  0.0544
 1005MOL0     H35671   0.805   9.894   1.621  0.0139  1.5895  0.9376
 1005MOL0     H35672   0.228   9.401   1.861 -0.9550 -0.1738 -1.4370
 1005MOL0     H35673   0.435   9.201   2.008 -2.9813 -0.7127  0.3660
 1005MOL0     H35674   0.503   9.352   2.071  0.0224  1.0961 -1.1465
 1005MOL0     H35675   0.328   9.325   2.051 -1.4550 -1.0554 -1.1066
 1006MOL0     O35676   7.561   8.057   3.529 -1.2375 -0.1973  0.0606
 1006MOL0     C35677   7.491   7.954   3.529  1.5118  0.3492 -0.0195
 1006MOL0     O35678   7.535   7.833   3.539 -0.3298  0.1955 -0.1906
 1006MOL0     C35679   7.671   7.809   3.554 -0.4320  0.3175 -0.5279
 1006MOL0     C35680   7.735   7.834   3.679  0.0312  1.0627  0.5048
 1006MOL0     C35681   7.871   7.823   3.681  0.3452  0.2834 -0.6369
 1006MOL0     C35682   7.944   7.767   3.583 -0.7975  0.0829 -0.6986
 1006MOL0     O35683   8.086   7.764   3.595  0.1049 -0.2487  0.5040
 1006MOL0     C35684   8.133   7.650   3.667 -0.3376  0.0700 -0.2203
 1006MOL0     C35685   8.285   7.638   3.667  0.1520 -0.3205  0.0544
 1006MOL0     C35686   8.333   7.515   3.753  0.2528  0.5863  0.2848
 1006MOL0     C35687   8.486   7.480   3.725  0.4153 -0.3292 -0.2523
 1006MOL0     C35688   8.535   7.368   3.818  0.0987  0.4897  0.2016
 1006MOL0     C35689   8.685   7.362   3.823 -0.9085  0.9779 -0.3687
 1006MOL0     C35690   8.742   7.328   3.680  0.1739 -0.5385 -0.6984
 1006MOL0     C35691   8.891   7.283   3.688 -0.8949  0.1572  0.3588
 1006MOL0     N35692   8.922   7.150   3.740  0.8674  0.4441  0.1055
 1006MOL0     C35693   8.898   7.106   3.866  0.3043 -0.5146  0.5312
 1006MOL0     C35694   8.946   6.983   3.881 -1.4247 -1.1209 -0.8045
 1006MOL0     C35695   8.955   6.899   4.013  0.1511  0.4079 -0.6952
 1006MOL0     C35696   9.102   6.855   4.024  0.3111 -0.4936  0.2626
 1006MOL0     C35697   9.108   6.776   4.151 -0.8067  0.0377 -0.6570
 1006MOL0     C35698   9.226   6.680   4.157 -0.3633 -0.2047  0.9517
 1006MOL0     O35699   9.240   6.631   4.286  0.4334  0.1006 -0.4048
 1006MOL0     C35700   9.358   6.572   4.331  0.2286 -0.4653  0.1368
 1006MOL0     C35701   9.351   6.472   4.428 -0.6028 -0.3449  0.0300
 1006MOL0     C35702   9.465   6.411   4.488  0.4424  0.3030 -0.2296
 1006MOL0     C35703   9.587   6.468   4.458 -0.5616 -0.5319 -0.1355
 1006MOL0     C35704   9.711   6.423   4.527  0.3059  0.0270  0.1109
 1006MOL0     O35705   9.699   6.338   4.628 -0.6581  0.9719  0.5171
 1006MOL0     C35706   9.808   6.299   4.687 -0.1118  0.3085 -0.0504
 1006MOL0     C35707   9.916   6.241   4.613  0.9709 -0.2830  0.7185
 1006MOL0     C35708  10.033   6.217   4.686  0.4003  0.3481  0.0285
 1006MOL0     C35709  10.034   6.204   4.829 -0.5414 -0.0150  0.4861
 1006MOL0     O35710  10.150   6.171   4.892 -0.6168  0.1150  0.6353
 1006MOL0     C35711  10.154   6.173   5.031 -0.0358  0.0876  0.1020
 1006MOL0     C35712  10.290   6.131   5.085  0.0474 -0.4926 -0.2426
 1006MOL0     C35713  10.419   6.192   5.024  0.0193 -0.1689  0.6490
 1006MOL0     C35714  10.544   6.098   5.029  0.4282 -0.2403  0.1399
 1006MOL0     C35715  10.672   6.152   4.987  0.3180  0.8844  1.1618
 1006MOL0     C35716  10.783   6.039   4.978  0.0375  0.5591  0.0144
 1006MOL0     C35717  10.922   6.110   4.993  0.1508  0.2246  0.7215
 1006MOL0     C35718  10.985   6.081   5.130  0.1834 -0.1136  0.5646
 1006MOL0    Cl35719  11.152   6.142   5.163  0.6657 -0.1875  0.4811
 1006MOL0     C35720   9.922   6.239   4.894  0.8509  0.1420 -0.1776
 1006MOL0     C35721   9.809   6.289   4.832 -0.5316  0.1731  0.0347
 1006MOL0     O35722   9.816   6.468   4.475  0.0351  0.2702  0.2603
 1006MOL0     C35723   9.593   6.578   4.362  0.3377  0.0051 -1.1930
 1006MOL0     C35724   9.480   6.627   4.297  0.4186 -0.9746  0.8174
 1006MOL0     N35725   9.017   6.950   3.766 -0.3917 -0.1949  0.2206
 1006MOL0     N35726   8.997   7.052   3.684 -0.8150 -0.3396 -0.3373
 1006MOL0     C35727   7.878   7.729   3.465 -0.8838 -0.0733 -0.1400
 1006MOL0     C35728   7.739   7.762   3.444 -0.3334  0.1250  0.1184
 1006MOL0     C35729   7.340   7.962   3.507  0.1624  0.4048 -0.2483
 1006MOL0     C35730   7.251   7.844   3.528  0.3465 -0.2628  0.7254
 1006MOL0     C35731   7.120   7.854   3.489 -0.0993 -0.1167 -0.0562
 1006MOL0     C35732   7.059   7.972   3.440 -0.2901  0.4985 -0.3817
 1006MOL0     O35733   6.923   7.961   3.425 -0.5643 -0.5029  0.2451
 1006MOL0     C35734   6.839   8.071   3.446 -0.3426 -0.1219 -0.0062
 1006MOL0     C35735   6.689   8.024   3.425 -0.7014 -0.3143  0.3037
 1006MOL0     C35736   6.598   8.145   3.472  0.4045  0.5795 -0.8222
 1006MOL0     C35737   6.446   8.117   3.488  0.0573  0.1914  0.3259
 1006MOL0     C35738   6.395   8.035   3.380 -1.2509  0.1749 -0.7812
 1006MOL0     C35739   6.339   7.951   3.312  0.6890 -0.1449  0.6138
 1006MOL0     C35740   7.145   8.077   3.409  0.2862  0.1785  0.1952
 1006MOL0     C35741   7.284   8.071   3.437 -0.9237  0.5388  0.7186
 1006MOL0     C35742   7.355   8.200   3.407  0.4140  0.7951 -0.7299
 1006MOL0     H35743   7.679   7.875   3.762  0.1430 -0.0981  1.1631
 1006MOL0     H35744   7.931   7.832   3.772  0.5386 -1.6064 -0.5359
 1006MOL0     H35745   8.094   7.647   3.769 -3.1666  0.9738 -1.1765
 1006MOL0     H35746   8.093   7.559   3.620 -1.1640  0.6607 -0.6897
 1006MOL0     H35747   8.326   7.729   3.712 -1.4215 -1.2973  3.8932
 1006MOL0     H35748   8.313   7.635   3.562 -0.7364  5.0893 -0.6036
 1006MOL0     H35749   8.276   7.426   3.724  1.1687  0.4796 -1.3004
 1006MOL0     H35750   8.320   7.541   3.858  0.3816 -2.8460  1.2442
 1006MOL0     H35751   8.492   7.446   3.621 -2.3878  2.3873 -1.4594
 1006MOL0     H35752   8.540   7.575   3.724  1.2518 -0.7933 -0.6789
 1006MOL0     H35753   8.489   7.399   3.913 -3.9214  0.8496 -1.6585
 1006MOL0     H35754   8.509   7.268   3.784  1.1805  0.1413  0.3451
 1006MOL0     H35755   8.725   7.459   3.852 -1.4050  0.8208  0.8964
 1006MOL0     H35756   8.714   7.279   3.888 -0.8954  1.7314  0.6112
 1006MOL0     H35757   8.725   7.418   3.619  0.0954 -0.2478 -0.2562
 1006MOL0     H35758   8.680   7.252   3.632 -0.0159  0.2246 -1.7057
 1006MOL0     H35759   8.922   7.264   3.585  1.3608 -1.1415  1.1996
 1006MOL0     H35760   8.944   7.371   3.725 -3.0714  1.6840  0.0176
 1006MOL0     H35761   8.866   7.166   3.951 -1.1909  2.1875 -1.7901
 1006MOL0     H35762   8.925   6.971   4.090  0.0785  0.0948 -0.4320
 1006MOL0     H35763   8.889   6.812   4.012  0.3139  0.1092 -4.6209
 1006MOL0     H35764   9.123   6.786   3.942  3.9519 -0.4661  0.9883
 1006MOL0     H35765   9.171   6.939   4.011 -2.5233  1.9063 -0.4706
 1006MOL0     H35766   9.015   6.730   4.185  0.2682 -2.1237 -0.4733
 1006MOL0     H35767   9.137   6.851   4.226 -0.5622  0.1348 -0.8466
 1006MOL0     H35768   9.317   6.720   4.112  1.7356 -2.0882  3.1805
 1006MOL0     H35769   9.195   6.597   4.093  0.1569  0.6497 -0.4452
 1006MOL0     H35770   9.250   6.438   4.447 -1.6010  1.1903 -2.0677
 1006MOL0     H35771   9.462   6.332   4.563  0.4418  0.0523 -0.4909
 1006MOL0     H35772   9.923   6.238   4.504  1.3978  0.8996  0.7083
 1006MOL0     H35773  10.123   6.183   4.636  1.0082 -1.5934  2.2391
 1006MOL0     H35774  10.123   6.272   5.065 -0.5501  0.2345 -0.7883
 1006MOL0     H35775  10.078   6.107   5.074 -2.8786  1.2185 -2.7951
 1006MOL0     H35776  10.304   6.152   5.191 -3.3206 -1.2932  0.4562
 1006MOL0     H35777  10.287   6.021   5.084  0.1566 -0.9558  6.2439
 1006MOL0     H35778  10.405   6.225   4.921  0.1718  1.6624  1.1778
 1006MOL0     H35779  10.438   6.288   5.072 -1.4931  0.5603 -0.1430
 1006MOL0     H35780  10.515   6.011   4.970  0.6065  1.5885 -2.8170
 1006MOL0     H35781  10.561   6.078   5.135  0.8492  0.1603  0.1514
 1006MOL0     H35782  10.706   6.234   5.051 -1.2693 -0.9460  4.5788
 1006MOL0     H35783  10.661   6.191   4.885 -1.8777  3.2795  2.1953
 1006MOL0     H35784  10.777   5.982   5.071  2.3849  0.1942  0.0116
 1006MOL0     H35785  10.767   5.975   4.891  0.3773  1.2343 -0.5511
 1006MOL0     H35786  10.914   6.218   4.976 -0.8427 -0.0764 -0.9790
 1006MOL0     H35787  10.990   6.077   4.914  1.7276  3.0366  0.7526
 1006MOL0     H35788  10.925   6.137   5.203 -0.1303  2.6813 -1.6349
 1006MOL0     H35789  10.977   5.977   5.162 -1.3263 -0.7120 -1.5186
 1006MOL0     H35790   9.911   6.218   5.000 -3.6959  1.3350 -0.2096
 1006MOL0     H35791   9.727   6.316   4.898 -0.1281 -0.2513  0.7324
 1006MOL0     H35792   9.688   6.626   4.339 -0.0871 -0.1622 -3.5258
 1006MOL0     H35793   9.496   6.699   4.217 -0.3516 -3.6392 -1.9221
 1006MOL0     H35794   7.926   7.672   3.386  1.6692  1.3588  0.2671
 1006MOL0     H35795   7.686   7.742   3.351 -0.2925  0.1242  0.0951
 1006MOL0     H35796   7.296   7.754   3.569  0.4615 -0.2417  0.6474
 1006MOL0     H35797   7.062   7.765   3.512  2.4815 -1.2858  2.6906
 1006MOL0     H35798   6.860   8.148   3.370 -2.7927  1.1154  0.4988
 1006MOL0     H35799   6.854   8.106   3.548 -1.2664 -0.7745  0.3606
 1006MOL0     H35800   6.676   7.931   3.481  1.8311 -0.9119  0.0561
 1006MOL0     H35801   6.668   8.004   3.320 -3.1681  1.4477  0.3669
 1006MOL0     H35802   6.607   8.218   3.391  1.6204  1.6131  0.1951
 1006MOL0     H35803   6.638   8.192   3.562  0.5111 -0.9970 -0.0150
 1006MOL0     H35804   6.437   8.062   3.583  2.2399  2.5424  2.0392
 1006MOL0     H35805   6.383   8.205   3.500 -0.1181  0.0646  0.3420
 1006MOL0     H35806   6.277   7.887   3.252 -1.5136  0.6721  1.8768
 1006MOL0     H35807   7.096   8.154   3.350  1.0847 -0.5078 -1.4344
 1006MOL0     H35808   7.438   8.185   3.338  0.6156  1.4832 -0.6533
 1006MOL0     H35809   7.281   8.266   3.359 -0.7237 -2.3418 -3.6611
 1006MOL0     H35810   7.405   8.241   3.496  0.7701  0.4620 -0.7747
 1007MOL0     O35811   5.859   7.574   8.795 -0.1058  0.6012 -0.2999
 1007MOL0     C35812   5.818   7.532   8.684  0.3253 -0.5797  0.0971
 1007MOL0     O35813   5.906   7.489   8.579 -0.7695 -0.3356  0.2841
 1007MOL0     C35814   6.032   7.472   8.611 -0.4916  0.1737 -0.3683
 1007MOL0     C35815   6.077   7.381   8.712 -1.0118  0.2663 -0.3881
 1007MOL0     C35816   6.222   7.370   8.731 -0.1822 -0.1965 -0.6198
 1007MOL0     C35817   6.315   7.437   8.662  0.5583 -0.4512  0.8061
 1007MOL0     O35818   6.453   7.416   8.647 -0.2649 -0.8241  0.7800
 1007MOL0     C35819   6.523   7.307   8.717  0.1142  0.0022  0.5857
 1007MOL0     C35820   6.654   7.264   8.651  0.0262  0.6712 -0.9822
 1007MOL0     C35821   6.705   7.119   8.704  0.5706 -0.0961 -0.1226
 1007MOL0     C35822   6.813   7.135   8.807 -0.9379 -0.0160  0.2823
 1007MOL0     C35823   6.856   6.998   8.865  0.3223  0.2114  0.4544
 1007MOL0     C35824   6.972   6.988   8.960  0.3439  0.0450  1.7346
 1007MOL0     C35825   7.029   6.850   8.979  0.5389 -0.0884 -0.0798
 1007MOL0     C35826   7.146   6.847   9.077 -0.2289 -0.8312  0.1020
 1007MOL0     N35827   7.277   6.860   9.003 -0.2360 -0.3776 -0.6587
 1007MOL0     C35828   7.385   6.928   9.054  0.0513 -0.1932  0.1337
 1007MOL0     C35829   7.494   6.878   8.993 -0.2170 -0.1687 -0.0509
 1007MOL0     C35830   7.617   6.956   9.012  0.0875  0.4840  0.0797
 1007MOL0     C35831   7.723   6.861   9.072  0.6687  0.5634  0.0291
 1007MOL0     C35832   7.746   6.742   8.985  0.0225 -0.4142  1.0483
 1007MOL0     C35833   7.864   6.669   9.056 -0.2804 -0.2316  0.0161
 1007MOL0     O35834   7.993   6.741   9.050  0.1764 -0.2763  1.1247
 1007MOL0     C35835   8.063   6.759   9.166  0.1630 -0.0319 -0.7397
 1007MOL0     C35836   8.094   6.645   9.253  0.4955 -0.0475  0.2292
 1007MOL0     C35837   8.156   6.671   9.379  0.1838 -0.1916  0.2995
 1007MOL0     C35838   8.181   6.802   9.422  0.0877 -0.2207  0.0240
 1007MOL0     C35839   8.238   6.810   9.557 -0.1947  0.4654 -0.9407
 1007MOL0     O35840   8.250   6.692   9.632  0.2450  0.8913 -0.1640
 1007MOL0     C35841   8.241   6.693   9.770  0.8511  0.6342  0.6786
 1007MOL0     C35842   8.320   6.771   9.854  0.4341  0.3453 -0.3358
 1007MOL0     C35843   8.300   6.766   9.990  0.6864 -0.1835  0.0786
 1007MOL0     C35844   8.210   6.676  10.045 -0.3327  1.0655 -0.2813
 1007MOL0     O35845   8.202   6.674  10.183  0.3173 -0.5753 -1.0518
 1007MOL0     C35846   8.174   6.544  10.243 -0.4435  1.0648  0.2742
 1007MOL0     C35847   8.207   6.565  10.388  0.2849  0.6490 -0.4657
 1007MOL0     C35848   8.352   6.570  10.425  0.6952 -0.2307 -0.1094
 1007MOL0     C35849   8.371   6.595  10.579 -0.2221  0.1025  0.4192
 1007MOL0     C35850   8.525   6.603  10.613  0.5979  0.6980 -0.0240
 1007MOL0     C35851   8.554   6.567  10.763 -0.0435  0.9577 -0.5863
 1007MOL0     C35852   8.699   6.554  10.783 -1.0571 -0.5497  0.0599
 1007MOL0     C35853   8.733   6.520  10.931  0.3956  0.1926 -0.1363
 1007MOL0    Cl35854   8.685   6.658  11.028  0.2126 -0.0829 -0.1620
 1007MOL0     C35855   8.133   6.587   9.960  0.4013  0.2700 -0.2553
 1007MOL0     C35856   8.149   6.598   9.826  0.8426 -0.5462 -0.0931
 1007MOL0     O35857   8.265   6.925   9.594 -0.6535 -0.0161 -0.2306
 1007MOL0     C35858   8.153   6.910   9.336 -0.2895 -0.6507 -0.1562
 1007MOL0     C35859   8.099   6.886   9.207 -0.1813 -0.6304 -0.1994
 1007MOL0     N35860   7.456   6.803   8.891  0.8977  0.4782  0.0655
 1007MOL0     N35861   7.331   6.778   8.902  0.8602 -0.3494 -0.4397
 1007MOL0     C35862   6.262   7.541   8.584 -0.5607  0.8921 -0.0208
 1007MOL0     C35863   6.129   7.555   8.548  0.3125  0.5127 -0.1025
 1007MOL0     C35864   5.673   7.526   8.648  0.6125 -0.4189  0.2490
 1007MOL0     C35865   5.638   7.472   8.521  0.4214 -1.1377 -0.1193
 1007MOL0     C35866   5.508   7.486   8.476  1.1231  0.3987  0.2458
 1007MOL0     C35867   5.405   7.528   8.555  0.1556  0.6148  0.9586
 1007MOL0     O35868   5.273   7.542   8.510  0.4843  0.2254 -0.0372
 1007MOL0     C35869   5.236   7.535   8.370 -0.2441 -0.6166 -0.0782
 1007MOL0     C35870   5.086   7.583   8.351  0.3505 -0.4757  0.1940
 1007MOL0     C35871   4.976   7.517   8.438  0.1889  0.4317 -0.5422
 1007MOL0     C35872   4.832   7.582   8.418 -0.4929  0.1847  0.1828
 1007MOL0     C35873   4.739   7.530   8.517  0.1998  0.4809  0.0764
 1007MOL0     C35874   4.662   7.466   8.590 -0.0322  0.3907 -0.0493
 1007MOL0     C35875   5.433   7.567   8.684 -1.1291 -0.0881 -0.0308
 1007MOL0     C35876   5.570   7.575   8.731  0.5896 -0.7025  0.5526
 1007MOL0     C35877   5.594   7.654   8.857 -0.0287 -0.7354 -0.3820
 1007MOL0     H35878   6.010   7.318   8.770  2.1022 -1.7020  1.4252
 1007MOL0     H35879   6.258   7.298   8.803  0.9735  0.3228 -0.6590
 1007MOL0     H35880   6.541   7.333   8.822  1.5261  0.3712  0.2679
 1007MOL0     H35881   6.456   7.221   8.710  0.5900 -0.5741  2.4461
 1007MOL0     H35882   6.733   7.336   8.674  1.4779 -0.8191 -1.1314
 1007MOL0     H35883   6.641   7.245   8.544  2.2815 -0.3716 -1.1326
 1007MOL0     H35884   6.738   7.058   8.619  0.8178 -2.5353  1.6336
 1007MOL0     H35885   6.617   7.076   8.753  0.5769 -0.3607 -0.3409
 1007MOL0     H35886   6.898   7.190   8.767 -2.0943  0.4071 -1.7904
 1007MOL0     H35887   6.768   7.202   8.882 -1.7535  0.6160 -0.7384
 1007MOL0     H35888   6.767   6.959   8.916  0.3402 -2.6824 -1.5009
 1007MOL0     H35889   6.878   6.943   8.773  0.4128  2.7146 -1.1238
 1007MOL0     H35890   7.044   7.063   8.924 -2.4416  1.1502 -2.3327
 1007MOL0     H35891   6.935   7.015   9.059 -2.5188  2.2326  0.2358
 1007MOL0     H35892   7.055   6.802   8.885 -3.6998  1.8563 -2.5337
 1007MOL0     H35893   6.944   6.790   9.015  0.2813  0.4965  0.3166
 1007MOL0     H35894   7.137   6.920   9.158  0.9435 -0.6128  0.0594
 1007MOL0     H35895   7.151   6.750   9.128 -0.2410 -0.1572  1.4358
 1007MOL0     H35896   7.397   7.007   9.128 -0.0351  0.5665 -0.6504
 1007MOL0     H35897   7.644   6.984   8.910 -0.7334  0.5376 -0.1264
 1007MOL0     H35898   7.611   7.047   9.073  3.2517 -0.7649  2.5001
 1007MOL0     H35899   7.813   6.920   9.089 -1.1131  2.9500  1.9074
 1007MOL0     H35900   7.687   6.823   9.168 -0.2726 -1.2718 -0.9965
 1007MOL0     H35901   7.783   6.787   8.893  1.0794  2.7858  2.8864
 1007MOL0     H35902   7.662   6.671   8.986  0.4281 -0.9862 -1.1032
 1007MOL0     H35903   7.880   6.576   9.000 -0.5343 -0.5600  0.4904
 1007MOL0     H35904   7.837   6.645   9.159  2.1420  1.5292  1.1455
 1007MOL0     H35905   8.089   6.540   9.228 -0.6558  0.4797 -1.9890
 1007MOL0     H35906   8.180   6.592   9.449  1.6755 -0.1799 -0.1679
 1007MOL0     H35907   8.385   6.847   9.811  1.5624 -0.9371 -0.9794
 1007MOL0     H35908   8.344   6.834  10.062  0.7271 -0.8111  0.6535
 1007MOL0     H35909   8.067   6.523  10.234  0.0381 -1.5818 -0.2754
 1007MOL0     H35910   8.239   6.467  10.201 -1.7194 -0.0489  0.2802
 1007MOL0     H35911   8.154   6.657  10.413  0.7887  0.5544  1.0682
 1007MOL0     H35912   8.162   6.479  10.439  0.9952 -0.5535 -1.7803
 1007MOL0     H35913   8.403   6.479  10.391 -1.2233 -1.5667  0.4397
 1007MOL0     H35914   8.403   6.650  10.371  0.7336  0.2627  0.6457
 1007MOL0     H35915   8.320   6.518  10.636 -0.6774 -0.0358 -0.1671
 1007MOL0     H35916   8.312   6.682  10.609  0.8692  0.4031  1.7838
 1007MOL0     H35917   8.560   6.707  10.608 -0.2506  1.2159  2.8315
 1007MOL0     H35918   8.577   6.535  10.545 -1.0558  2.3864 -3.1396
 1007MOL0     H35919   8.519   6.649  10.826 -0.6143  0.2126  0.0833
 1007MOL0     H35920   8.509   6.472  10.796 -2.6514  2.0521 -0.7633
 1007MOL0     H35921   8.744   6.648  10.751  0.1474 -1.0797  0.1476
 1007MOL0     H35922   8.738   6.474  10.719 -1.8263  1.5062 -3.1931
 1007MOL0     H35923   8.680   6.433  10.972  2.0315 -1.2960 -1.0415
 1007MOL0     H35924   8.838   6.492  10.943 -0.0728 -0.6281  2.9999
 1007MOL0     H35925   8.062   6.519  10.006  1.3519 -0.7907 -0.3058
 1007MOL0     H35926   8.099   6.532   9.757  2.8170 -1.4385 -0.7157
 1007MOL0     H35927   8.173   7.012   9.367 -1.7524 -0.0321 -1.1437
 1007MOL0     H35928   8.067   6.970   9.146  3.0025 -1.3097 -3.0832
 1007MOL0     H35929   6.345   7.598   8.543  0.7141  2.0378  3.7164
 1007MOL0     H35930   6.101   7.639   8.484  0.5835  0.7800  0.1262
 1007MOL0     H35931   5.713   7.437   8.450  0.8521  2.0117 -1.3862
 1007MOL0     H35932   5.476   7.468   8.374 -3.5722 -0.2400  1.6229
 1007MOL0     H35933   5.259   7.432   8.339  2.6504  0.3014 -1.2911
 1007MOL0     H35934   5.291   7.603   8.305 -1.5324  1.8953  1.2819
 1007MOL0     H35935   5.069   7.550   8.248  2.7833  1.7317 -1.0527
 1007MOL0     H35936   5.075   7.692   8.351  1.9718 -0.2753 -0.9566
 1007MOL0     H35937   5.006   7.526   8.543  5.3745 -0.8871 -1.6023
 1007MOL0     H35938   4.984   7.412   8.408  1.3832  0.5406 -0.6610
 1007MOL0     H35939   4.835   7.685   8.454 -2.5754 -0.4201  2.3267
 1007MOL0     H35940   4.791   7.561   8.319 -2.5918  3.2033  0.2955
 1007MOL0     H35941   4.596   7.401   8.642  0.9233 -0.3297  0.3005
 1007MOL0     H35942   5.350   7.621   8.729 -0.5473  0.7478  0.0743
 1007MOL0     H35943   5.500   7.705   8.882 -0.6778 -3.2130  3.0067
 1007MOL0     H35944   5.632   7.595   8.941 -0.0488  1.2563  1.0969
 1007MOL0     H35945   5.672   7.728   8.838 -1.1042 -0.2653 -3.6189
 1008MOL0     O35946   8.900  10.885  10.904  0.3535  0.8007 -0.4100
 1008MOL0     C35947   8.883  10.766  10.927  0.4518  0.8860  0.1557
 1008MOL0     O35948   8.981  10.675  10.956  0.5087 -0.0661 -0.8845
 1008MOL0     C35949   9.118  10.704  10.960  0.4344 -0.2625  0.5410
 1008MOL0     C35950   9.189  10.666  11.074  0.3977 -0.4964  0.0287
 1008MOL0     C35951   9.322  10.689  11.082  0.0998 -0.6194 -0.7043
 1008MOL0     C35952   9.396  10.746  10.984  0.2746  0.3196 -0.6393
 1008MOL0     O35953   9.535  10.753  11.002 -0.3456 -1.2903  0.4730
 1008MOL0     C35954   9.598  10.888  10.989  0.3771 -0.0031  0.4120
 1008MOL0     C35955   9.722  10.864  10.897  0.2686  0.2526  0.4967
 1008MOL0     C35956   9.781  11.002  10.859  0.5820  0.8161 -1.0350
 1008MOL0     C35957   9.895  10.976  10.764  0.1077 -0.1467  0.6553
 1008MOL0     C35958   9.953  11.101  10.715  0.2342  0.1809 -0.5578
 1008MOL0     C35959  10.084  11.080  10.634  0.2070  0.4523  0.2878
 1008MOL0     C35960  10.130  11.204  10.550 -0.4812 -0.6658  0.5359
 1008MOL0     C35961  10.126  11.336  10.623 -0.7700 -0.1397 -0.1421
 1008MOL0     N35962  10.231  11.352  10.730  0.0395  0.1514  0.5791
 1008MOL0     C35963  10.217  11.317  10.863 -0.4464 -0.0706 -0.4207
 1008MOL0     C35964  10.337  11.344  10.922  0.1735 -0.5063 -0.3275
 1008MOL0     C35965  10.372  11.302  11.063  0.0230 -0.0575  0.5947
 1008MOL0     C35966  10.384  11.150  11.066  0.8120 -0.4491  0.4496
 1008MOL0     C35967  10.460  11.087  10.951 -0.2374 -0.0432  0.1505
 1008MOL0     C35968  10.491  10.938  10.988 -0.4357  0.0915 -0.6537
 1008MOL0     O35969  10.583  10.929  11.100 -0.1124 -0.3211  0.7423
 1008MOL0     C35970  10.720  10.903  11.090  0.8353 -0.6596 -0.2353
 1008MOL0     C35971  10.767  10.877  11.216 -0.4018 -0.5373  0.1000
 1008MOL0     C35972  10.899  10.823  11.228 -0.1128  0.0399 -0.1448
 1008MOL0     C35973  10.988  10.822  11.118 -0.4834  0.4148  0.9977
 1008MOL0     C35974  11.133  10.787  11.127 -0.4366  0.5306  0.4760
 1008MOL0     O35975  11.205  10.803  11.012 -0.4306 -0.7012  0.7862
 1008MOL0     C35976  11.334  10.753  11.010  0.1440 -0.8142  1.0749
 1008MOL0     C35977  11.443  10.834  10.966  0.5500  0.1527  0.7599
 1008MOL0     C35978  11.578  10.789  10.956 -0.3197 -0.3028  0.3647
 1008MOL0     C35979  11.603  10.660  10.986 -0.0434  0.4324 -0.3634
 1008MOL0     O35980  11.734  10.620  10.965  0.1638  0.0888  0.0311
 1008MOL0     C35981  11.806  10.682  10.864 -0.3004 -0.6695  0.3956
 1008MOL0     C35982  11.918  10.592  10.815  0.1001 -0.2737  0.4736
 1008MOL0     C35983  12.025  10.563  10.918  0.4927  0.7610  0.2440
 1008MOL0     C35984  12.133  10.486  10.845  0.5935  0.4821 -0.4355
 1008MOL0     C35985  12.256  10.469  10.935  0.4548 -0.8175 -0.3758
 1008MOL0     C35986  12.389  10.436  10.862 -0.1733 -0.5762 -0.0375
 1008MOL0     C35987  12.389  10.284  10.831 -0.3578 -0.5307 -0.3919
 1008MOL0     C35988  12.513  10.244  10.750  0.3600 -0.2237 -0.3597
 1008MOL0    Cl35989  12.668  10.269  10.844 -0.4096 -0.4665  0.1403
 1008MOL0     C35990  11.497  10.571  11.012 -0.7506  0.3797 -0.7021
 1008MOL0     C35991  11.370  10.617  11.031 -0.0839 -0.4150 -0.0683
 1008MOL0     O35992  11.181  10.740  11.227 -0.0110  0.3906  0.1700
 1008MOL0     C35993  10.927  10.846  10.991 -0.1009 -0.1247 -0.5244
 1008MOL0     C35994  10.797  10.892  10.975  0.3407  0.5969 -0.8457
 1008MOL0     N35995  10.413  11.412  10.826 -0.2125  0.5851 -0.5696
 1008MOL0     N35996  10.348  11.413  10.711 -0.5202 -0.4250  0.6808
 1008MOL0     C35997   9.328  10.784  10.871  0.4225 -0.0264 -0.5309
 1008MOL0     C35998   9.189  10.770  10.859  0.3922  0.3417 -0.5649
 1008MOL0     C35999   8.744  10.715  10.947  0.1698 -0.8620 -0.5525
 1008MOL0     C36000   8.641  10.751  10.856 -0.3103 -0.3720  0.0798
 1008MOL0     C36001   8.508  10.711  10.879  0.9927  0.4060  0.4985
 1008MOL0     C36002   8.469  10.631  10.996  0.4232 -0.7246  0.2369
 1008MOL0     O36003   8.347  10.584  11.018 -1.0702 -0.0738  0.2969
 1008MOL0     C36004   8.238  10.611  10.935  0.7114 -0.3267  0.0816
 1008MOL0     C36005   8.120  10.540  10.995 -0.8555  0.0141 -0.7125
 1008MOL0     C36006   8.033  10.470  10.894  0.3828 -0.4408  0.5698
 1008MOL0     C36007   7.947  10.356  10.956 -0.6282 -0.4552  0.2223
 1008MOL0     C36008   7.834  10.341  10.872  0.2594  0.1166  0.3410
 1008MOL0     C36009   7.742  10.322  10.790 -0.3567  1.0706  0.2184
 1008MOL0     C36010   8.568  10.592  11.080  0.0414 -1.2169  0.4380
 1008MOL0     C36011   8.699  10.635  11.063 -0.3820  0.8803  0.9423
 1008MOL0     C36012   8.788  10.592  11.172  0.6139  0.0095 -0.0176
 1008MOL0     H36013   9.139  10.625  11.161 -0.6477 -0.2915 -0.4687
 1008MOL0     H36014   9.368  10.653  11.173 -1.4029 -1.5985 -0.2858
 1008MOL0     H36015   9.537  10.956  10.929 -2.2283 -2.7730 -0.2962
 1008MOL0     H36016   9.632  10.927  11.086  1.6196 -0.4706  0.1874
 1008MOL0     H36017   9.695  10.804  10.809 -1.9505 -1.5160  2.2294
 1008MOL0     H36018   9.799  10.804  10.947 -0.2915 -0.1000  0.9550
 1008MOL0     H36019   9.815  11.057  10.948 -2.1579 -0.1179  0.7474
 1008MOL0     H36020   9.699  11.062  10.819 -0.5899 -0.6274 -0.8982
 1008MOL0     H36021   9.966  10.901  10.799  0.1390 -1.7180 -2.3734
 1008MOL0     H36022   9.849  10.935  10.673  1.3632 -1.0169  0.3832
 1008MOL0     H36023   9.881  11.166  10.666  0.0084 -0.8079 -1.5590
 1008MOL0     H36024   9.977  11.161  10.804  1.2909 -0.7105 -0.2125
 1008MOL0     H36025  10.168  11.056  10.700 -0.2769  0.8116  1.0434
 1008MOL0     H36026  10.072  10.993  10.569 -1.2259 -0.5930  1.8563
 1008MOL0     H36027  10.058  11.209  10.468 -2.1817 -2.0764  1.8471
 1008MOL0     H36028  10.228  11.184  10.507 -0.7956 -1.7674  0.3100
 1008MOL0     H36029  10.160  11.413  10.553 -1.4208  2.2310  1.9710
 1008MOL0     H36030  10.026  11.370  10.652 -2.0010 -1.1459 -2.8880
 1008MOL0     H36031  10.139  11.257  10.909  2.3958 -2.7404  1.2365
 1008MOL0     H36032  10.463  11.353  11.096 -0.2712 -0.3272  1.8778
 1008MOL0     H36033  10.295  11.330  11.135  1.2809  3.7161  0.6817
 1008MOL0     H36034  10.424  11.121  11.164  0.3817 -1.2079  0.4136
 1008MOL0     H36035  10.283  11.110  11.063  0.8379 -0.7063  2.1878
 1008MOL0     H36036  10.555  11.140  10.943  2.1198 -4.0443 -1.0387
 1008MOL0     H36037  10.399  11.092  10.861  1.1658  1.5158 -0.7760
 1008MOL0     H36038  10.518  10.900  10.889  0.4646  3.8418 -2.0245
 1008MOL0     H36039  10.398  10.893  11.024  0.5251 -0.5339  1.1495
 1008MOL0     H36040  10.699  10.859  11.299  1.4873 -3.5990  1.1704
 1008MOL0     H36041  10.937  10.793  11.325  2.4265 -1.4595 -1.4767
 1008MOL0     H36042  11.416  10.938  10.946  1.6219  0.1647 -0.9062
 1008MOL0     H36043  11.651  10.866  10.936 -0.3248 -0.1330  0.9783
 1008MOL0     H36044  11.744  10.688  10.774 -1.1213 -2.1553  0.8427
 1008MOL0     H36045  11.852  10.778  10.892 -0.5808  0.8667 -3.6675
 1008MOL0     H36046  11.885  10.492  10.784 -1.1856  0.6121 -1.1690
 1008MOL0     H36047  11.960  10.654  10.736 -0.8773 -0.5631 -0.3020
 1008MOL0     H36048  12.044  10.663  10.957 -0.7982  1.3891 -0.6359
 1008MOL0     H36049  11.977  10.504  10.996 -0.0199 -2.3758 -2.2383
 1008MOL0     H36050  12.160  10.534  10.750 -1.3094  1.9579 -0.2765
 1008MOL0     H36051  12.094  10.388  10.818  2.6668 -1.0900  1.8815
 1008MOL0     H36052  12.228  10.400  11.015 -1.0205 -0.2462 -0.3619
 1008MOL0     H36053  12.274  10.565  10.985 -0.9142  0.3577 -1.9911
 1008MOL0     H36054  12.386  10.493  10.769  0.0094 -0.0039  0.2998
 1008MOL0     H36055  12.473  10.466  10.925 -0.4612 -0.8802  0.5039
 1008MOL0     H36056  12.298  10.263  10.774  0.8153  0.8408 -2.9648
 1008MOL0     H36057  12.392  10.234  10.928  0.4430  1.1999  0.5162
 1008MOL0     H36058  12.494  10.145  10.708  0.2578  0.1090 -1.1022
 1008MOL0     H36059  12.513  10.313  10.665 -1.6782  0.3262  0.0269
 1008MOL0     H36060  11.509  10.464  11.020 -0.1061  0.4196 -1.0463
 1008MOL0     H36061  11.293  10.542  11.049  0.1123 -1.3500 -2.6677
 1008MOL0     H36062  10.982  10.841  10.898  1.0674 -3.3391  0.1960
 1008MOL0     H36063  10.763  10.910  10.874  1.0800 -0.0653 -1.2168
 1008MOL0     H36064   9.389  10.816  10.787 -1.3817 -2.8154 -3.1059
 1008MOL0     H36065   9.136  10.813  10.775 -1.0735  1.5010  0.8933
 1008MOL0     H36066   8.669  10.812  10.771  2.3308  1.9685  2.4285
 1008MOL0     H36067   8.446  10.723  10.791  3.3562 -2.5041 -1.7793
 1008MOL0     H36068   8.258  10.581  10.831 -1.5592 -2.8689  0.2380
 1008MOL0     H36069   8.226  10.719  10.932  0.0013 -0.3528 -3.5013
 1008MOL0     H36070   8.051  10.604  11.051 -0.8106 -1.3963  1.0691
 1008MOL0     H36071   8.151  10.456  11.059  0.4724 -0.7334 -2.2676
 1008MOL0     H36072   8.106  10.426  10.825  2.6144  1.1681  1.7685
 1008MOL0     H36073   7.979  10.545  10.835 -0.6845 -1.3412  0.3639
 1008MOL0     H36074   8.001  10.264  10.977 -3.5224 -2.0744  1.2586
 1008MOL0     H36075   7.909  10.397  11.051 -4.4551 -2.1970 -0.3420
 1008MOL0     H36076   7.668  10.316  10.713  0.1357  0.9723 -0.2528
 1008MOL0     H36077   8.539  10.526  11.161 -3.3475 -0.2066  0.1909
 1008MOL0     H36078   8.734  10.574  11.265  0.8497 -0.7439 -0.0158
 1008MOL0     H36079   8.859  10.512  11.147  1.3217  1.3745 -2.8055
 1008MOL0     H36080   8.850  10.679  11.191  0.1752  0.9359 -2.4124
 1009MOL0     O36081   4.444   4.273   8.494 -0.2803  0.3746 -0.1172
 1009MOL0     C36082   4.437   4.290   8.615 -0.2636  0.4578 -0.3454
 1009MOL0     O36083   4.326   4.290   8.692  0.0385 -0.1464 -0.0716
 1009MOL0     C36084   4.200   4.299   8.644 -0.1809  0.2351  1.0332
 1009MOL0     C36085   4.153   4.255   8.517  0.4859 -0.0689 -0.5938
 1009MOL0     C36086   4.015   4.270   8.486  0.9203 -0.7237  0.7018
 1009MOL0     C36087   3.925   4.329   8.574 -0.7704  0.4825 -0.5885
 1009MOL0     O36088   3.798   4.367   8.544  0.7168  0.0071 -0.9029
 1009MOL0     C36089   3.738   4.271   8.449  0.0587  0.0077 -0.5970
 1009MOL0     C36090   3.585   4.296   8.465 -0.7032  0.1672  0.0509
 1009MOL0     C36091   3.524   4.423   8.412 -0.2703 -0.5430  0.3054
 1009MOL0     C36092   3.371   4.432   8.441  0.3020  0.4934  0.7363
 1009MOL0     C36093   3.304   4.570   8.398 -0.0703 -0.0097  0.0920
 1009MOL0     C36094   3.153   4.581   8.454 -1.4091  0.9461 -0.1751
 1009MOL0     C36095   3.093   4.708   8.404  0.0435 -0.2128 -0.0053
 1009MOL0     C36096   3.147   4.821   8.482  0.2452 -0.6395  0.0787
 1009MOL0     N36097   3.101   4.960   8.449 -0.2061 -0.1706 -0.6668
 1009MOL0     C36098   2.968   4.990   8.414 -0.6209 -0.4330 -0.2279
 1009MOL0     C36099   2.961   5.124   8.412 -0.2160  0.3709 -0.6059
 1009MOL0     C36100   2.834   5.201   8.384 -1.3693  0.5987 -0.4312
 1009MOL0     C36101   2.763   5.228   8.514  1.3631  0.1961  0.9792
 1009MOL0     C36102   2.642   5.323   8.494  0.6466 -0.0222 -0.7425
 1009MOL0     C36103   2.574   5.340   8.631 -0.5183  0.0825 -0.3038
 1009MOL0     O36104   2.452   5.260   8.622 -0.2462 -0.9200  0.3278
 1009MOL0     C36105   2.348   5.306   8.699  0.3176  0.0754 -0.1652
 1009MOL0     C36106   2.357   5.396   8.815 -0.1229 -1.9318  0.6416
 1009MOL0     C36107   2.253   5.414   8.903  0.2465 -0.8242 -0.1925
 1009MOL0     C36108   2.130   5.349   8.885 -0.1753 -0.8640  0.1344
 1009MOL0     C36109   2.011   5.371   8.973 -0.1649  0.4184  0.8237
 1009MOL0     O36110   1.903   5.289   8.946 -0.3972  0.6829 -0.2615
 1009MOL0     C36111   1.799   5.303   9.034 -0.0997  0.5687  0.7057
 1009MOL0     C36112   1.768   5.196   9.112  0.4171  0.0359  0.0334
 1009MOL0     C36113   1.661   5.207   9.206 -0.4140 -0.7673 -1.1771
 1009MOL0     C36114   1.572   5.320   9.195 -0.7755  0.5546  0.2145
 1009MOL0     O36115   1.468   5.309   9.287  0.6097 -0.3377 -0.5056
 1009MOL0     C36116   1.365   5.409   9.282 -0.2892 -0.7740  0.1491
 1009MOL0     C36117   1.275   5.366   9.166  0.5436 -0.5876  0.3303
 1009MOL0     C36118   1.157   5.463   9.146  0.3851  0.6107  0.4838
 1009MOL0     C36119   1.066   5.484   9.267 -1.0007 -0.4181  0.2789
 1009MOL0     C36120   0.937   5.560   9.228 -0.0804 -0.9893  0.6754
 1009MOL0     C36121   0.844   5.582   9.348 -0.2346 -0.1143 -0.3420
 1009MOL0     C36122   0.706   5.637   9.313  0.8152  0.6794  0.6973
 1009MOL0     C36123   0.622   5.526   9.243  0.2067  0.3599 -1.3652
 1009MOL0    Cl36124   0.459   5.590   9.208 -0.0235  0.3026  0.2484
 1009MOL0     C36125   1.606   5.431   9.109 -0.0207 -0.0766 -0.0946
 1009MOL0     C36126   1.715   5.419   9.019 -0.0379 -0.5937  0.2645
 1009MOL0     O36127   2.018   5.454   9.066 -0.0856  0.4014  0.7536
 1009MOL0     C36128   2.120   5.252   8.778 -0.2987 -0.0102  0.9660
 1009MOL0     C36129   2.228   5.235   8.680 -0.3227 -0.1195  0.6968
 1009MOL0     N36130   3.084   5.175   8.442  0.5135 -0.0572  0.0200
 1009MOL0     N36131   3.171   5.072   8.468  0.1476 -0.5468 -0.0484
 1009MOL0     C36132   3.975   4.376   8.697 -0.2085 -0.3684 -0.5160
 1009MOL0     C36133   4.109   4.362   8.735  0.1075  0.3937  0.4200
 1009MOL0     C36134   4.556   4.330   8.686  0.4026 -0.7325  0.3038
 1009MOL0     C36135   4.548   4.396   8.810 -0.5342  0.6094  0.1009
 1009MOL0     C36136   4.658   4.452   8.880  0.4480 -0.4990  0.4495
 1009MOL0     C36137   4.784   4.443   8.823 -0.1429 -0.0372 -0.1228
 1009MOL0     O36138   4.901   4.477   8.883 -0.5688  0.0384  0.3600
 1009MOL0     C36139   4.910   4.576   8.974 -0.2898 -0.3092 -0.1740
 1009MOL0     C36140   5.050   4.615   8.982 -0.4302 -0.9101 -0.2985
 1009MOL0     C36141   5.058   4.753   9.062 -0.4164  0.9337 -0.8475
 1009MOL0     C36142   5.207   4.781   9.070  0.0536 -0.3897  0.6365
 1009MOL0     C36143   5.264   4.693   9.170 -0.3369  0.5173  0.0203
 1009MOL0     C36144   5.324   4.622   9.247  0.8132  0.4451  0.2959
 1009MOL0     C36145   4.795   4.365   8.705  0.1957 -0.2812  0.2561
 1009MOL0     C36146   4.688   4.318   8.627  0.3744  0.2687  0.2466
 1009MOL0     C36147   4.715   4.239   8.504 -0.2518  0.7954  0.4197
 1009MOL0     H36148   4.206   4.211   8.433 -3.3898 -0.6717 -2.9962
 1009MOL0     H36149   3.993   4.234   8.386  3.6558 -3.2938  0.8863
 1009MOL0     H36150   3.770   4.289   8.346 -2.5467 -1.3126 -1.7286
 1009MOL0     H36151   3.768   4.169   8.471  1.2652 -0.3078 -3.2692
 1009MOL0     H36152   3.557   4.308   8.570 -1.2370  1.4082 -0.2159
 1009MOL0     H36153   3.526   4.215   8.422 -2.1298 -0.5825  3.1485
 1009MOL0     H36154   3.554   4.442   8.308  0.6865 -0.4475  0.5847
 1009MOL0     H36155   3.574   4.507   8.460  0.0436  0.4010 -1.5622
 1009MOL0     H36156   3.320   4.354   8.384 -0.3865  1.1013  0.5000
 1009MOL0     H36157   3.350   4.403   8.544  0.8038 -0.9890  0.4378
 1009MOL0     H36158   3.364   4.643   8.452  0.6516 -1.0792  0.7931
 1009MOL0     H36159   3.306   4.572   8.289  0.9234 -4.0090 -0.1397
 1009MOL0     H36160   3.104   4.489   8.422  0.7082 -0.3296  0.0909
 1009MOL0     H36161   3.163   4.570   8.562  1.2714  1.6885 -0.2829
 1009MOL0     H36162   2.985   4.692   8.411  0.1118 -1.6599 -1.7286
 1009MOL0     H36163   3.118   4.721   8.299  0.1651  1.7290  0.2155
 1009MOL0     H36164   3.129   4.808   8.589  2.9726  0.7459  0.7810
 1009MOL0     H36165   3.256   4.827   8.482  0.1587  1.9662 -0.0512
 1009MOL0     H36166   2.899   4.914   8.378  1.1429 -1.6906 -1.1204
 1009MOL0     H36167   2.868   5.294   8.338 -1.2355  1.4814  1.3791
 1009MOL0     H36168   2.768   5.144   8.318  0.7103 -0.0053 -2.0863
 1009MOL0     H36169   2.722   5.134   8.552  1.1557  0.7368  2.1706
 1009MOL0     H36170   2.827   5.266   8.594 -0.8002  0.9087  2.4897
 1009MOL0     H36171   2.573   5.291   8.415  0.7140  1.8641 -1.6139
 1009MOL0     H36172   2.687   5.419   8.468  0.9603 -0.4876 -2.0224
 1009MOL0     H36173   2.554   5.446   8.651 -1.0115  0.5522 -2.9303
 1009MOL0     H36174   2.642   5.308   8.711 -0.0906 -0.0515 -0.7159
 1009MOL0     H36175   2.448   5.454   8.829  0.3367 -1.1758 -3.9527
 1009MOL0     H36176   2.262   5.488   8.983  1.1714 -0.1004 -0.9342
 1009MOL0     H36177   1.828   5.105   9.107 -0.7090 -0.7104 -0.4114
 1009MOL0     H36178   1.647   5.120   9.268 -0.8201 -0.3773 -0.7137
 1009MOL0     H36179   1.300   5.394   9.369 -0.8910 -1.6139 -0.4310
 1009MOL0     H36180   1.401   5.512   9.280  1.2562 -1.3056 -1.0181
 1009MOL0     H36181   1.335   5.356   9.075  0.8905 -1.4222  0.6409
 1009MOL0     H36182   1.226   5.269   9.176 -0.9497 -0.1835 -2.0707
 1009MOL0     H36183   1.187   5.565   9.117  2.6386 -0.0316  0.3647
 1009MOL0     H36184   1.091   5.424   9.068  1.6929 -0.3431 -0.1915
 1009MOL0     H36185   1.114   5.544   9.345 -2.5166  2.4423 -0.8173
 1009MOL0     H36186   1.043   5.385   9.308  2.1128 -2.0688 -1.5897
 1009MOL0     H36187   0.879   5.512   9.148 -0.8904  2.0998 -0.7901
 1009MOL0     H36188   0.965   5.662   9.201  1.1634 -1.1799  1.2044
 1009MOL0     H36189   0.823   5.495   9.411 -1.4844  0.4245  0.0304
 1009MOL0     H36190   0.887   5.643   9.428  1.5467  1.1672 -2.1823
 1009MOL0     H36191   0.717   5.723   9.246  1.2561  1.9981  2.3738
 1009MOL0     H36192   0.652   5.679   9.398 -2.5153 -2.3803  0.2930
 1009MOL0     H36193   0.674   5.494   9.153 -0.5064  0.9026 -1.9825
 1009MOL0     H36194   0.606   5.437   9.305  1.4579 -1.8434 -3.9775
 1009MOL0     H36195   1.546   5.520   9.117  0.9597  0.6435 -0.5514
 1009MOL0     H36196   1.744   5.497   8.949 -2.1002  2.1238  2.2291
 1009MOL0     H36197   2.031   5.191   8.775  1.2315 -2.3831  0.8684
 1009MOL0     H36198   2.228   5.162   8.600  1.1491 -2.1196  2.4217
 1009MOL0     H36199   3.915   4.429   8.771 -0.0494  1.3691 -1.5640
 1009MOL0     H36200   4.154   4.405   8.824 -4.2403  0.4025  2.9039
 1009MOL0     H36201   4.451   4.413   8.857 -2.0073  0.1181 -2.5815
 1009MOL0     H36202   4.650   4.490   8.981 -1.5456 -1.8777  0.8655
 1009MOL0     H36203   4.882   4.543   9.074  0.0655  1.3251  0.4903
 1009MOL0     H36204   4.849   4.662   8.944  0.5086 -0.0026 -0.9592
 1009MOL0     H36205   5.077   4.646   8.881 -0.1556 -1.3315 -0.3578
 1009MOL0     H36206   5.109   4.538   9.032 -0.5580 -0.4067  0.6554
 1009MOL0     H36207   5.028   4.746   9.167  3.6097  0.4123  0.4503
 1009MOL0     H36208   5.000   4.828   9.007 -3.2291 -1.4014 -1.3500
 1009MOL0     H36209   5.246   4.765   8.969 -0.8197 -1.2089  0.4094
 1009MOL0     H36210   5.221   4.884   9.102 -0.5843 -0.5619  1.4965
 1009MOL0     H36211   5.385   4.557   9.306  0.4592  0.2969  0.4994
 1009MOL0     H36212   4.898   4.355   8.671  1.1093  3.7982  1.2500
 1009MOL0     H36213   4.820   4.232   8.476 -0.2720  0.8952  0.3184
 1009MOL0     H36214   4.673   4.138   8.515 -0.6329  0.9997  0.9011
 1009MOL0     H36215   4.667   4.281   8.415  0.5964 -2.1862 -1.6121
 1010MOL0     O36216   5.517   7.837   0.293  0.6205 -0.8921  0.6199
 1010MOL0     C36217   5.514   7.772   0.396  0.0306 -0.1387  0.5164
 1010MOL0     O36218   5.584   7.799   0.506 -0.7106 -0.9575  0.1021
 1010MOL0     C36219   5.632   7.932   0.512  0.1302 -0.4727 -0.3217
 1010MOL0     C36220   5.544   8.036   0.540 -0.7188 -0.5851  0.2940
 1010MOL0     C36221   5.583   8.170   0.530 -0.2977  0.0689 -0.6257
 1010MOL0     C36222   5.708   8.203   0.486  0.1196 -0.5883  0.8942
 1010MOL0     O36223   5.745   8.340   0.490 -0.6249  0.5215 -0.6136
 1010MOL0     C36224   5.876   8.383   0.451 -0.1754 -0.0694 -0.3864
 1010MOL0     C36225   5.879   8.537   0.444  0.5995 -0.6482  0.2916
 1010MOL0     C36226   6.003   8.603   0.444 -1.1638  0.2615  0.7355
 1010MOL0     C36227   5.992   8.750   0.431 -0.5310  0.9258 -0.6219
 1010MOL0     C36228   6.123   8.814   0.416 -0.2837  0.6901  0.0896
 1010MOL0     C36229   6.245   8.767   0.514  0.6382 -0.2165  0.7658
 1010MOL0     C36230   6.367   8.866   0.503 -0.3620 -0.1260 -0.6234
 1010MOL0     C36231   6.474   8.847   0.617  0.4673  0.7783 -0.6537
 1010MOL0     N36232   6.592   8.932   0.599  0.7427 -0.0616 -0.0244
 1010MOL0     C36233   6.708   8.902   0.669 -0.0259 -0.3053 -0.2869
 1010MOL0     C36234   6.799   8.997   0.635 -0.0271 -0.6611 -0.4882
 1010MOL0     C36235   6.941   9.029   0.688 -0.5605 -0.1996  0.0423
 1010MOL0     C36236   7.055   8.946   0.619  0.2967  0.4167  0.2424
 1010MOL0     C36237   7.203   8.989   0.652 -0.2507 -0.6136 -0.0957
 1010MOL0     C36238   7.243   8.987   0.800  0.0065 -0.4066 -1.4666
 1010MOL0     O36239   7.163   9.078   0.867 -0.6885  0.0408  0.6326
 1010MOL0     C36240   7.180   9.099   1.006 -0.3665 -0.0821 -0.2519
 1010MOL0     C36241   7.088   9.180   1.070  0.1089  0.3202  0.4375
 1010MOL0     C36242   7.101   9.205   1.206 -0.4311  0.6238  0.1153
 1010MOL0     C36243   7.204   9.147   1.289 -0.1733 -0.2253 -1.0701
 1010MOL0     C36244   7.233   9.195   1.430  0.9158 -0.2757 -0.0244
 1010MOL0     O36245   7.325   9.119   1.500 -0.2180 -0.1078  0.4347
 1010MOL0     C36246   7.343   9.155   1.633 -0.4735  0.0399 -0.1132
 1010MOL0     C36247   7.236   9.157   1.722  0.5733 -0.0821 -0.9093
 1010MOL0     C36248   7.265   9.172   1.860 -0.3321  0.1343  0.0455
 1010MOL0     C36249   7.395   9.207   1.903 -0.2232 -0.1624  0.2129
 1010MOL0     O36250   7.411   9.223   2.039 -0.1209  0.5873 -0.5304
 1010MOL0     C36251   7.542   9.261   2.085  0.0399  0.1857  0.1023
 1010MOL0     C36252   7.546   9.251   2.237 -0.9934 -0.8198 -0.6314
 1010MOL0     C36253   7.659   9.324   2.310  0.0858  0.2590 -0.5176
 1010MOL0     C36254   7.798   9.264   2.274  0.2649 -0.0454 -0.4558
 1010MOL0     C36255   7.906   9.318   2.354 -1.5269 -0.5962 -0.1565
 1010MOL0     C36256   8.036   9.230   2.340 -0.1201 -0.4837  0.0020
 1010MOL0     C36257   8.164   9.295   2.404  1.0164 -1.1273 -0.0453
 1010MOL0     C36258   8.156   9.306   2.555  0.2113  0.0639 -1.2314
 1010MOL0    Cl36259   8.318   9.320   2.616 -0.0655  0.2078 -0.2844
 1010MOL0     C36260   7.491   9.205   1.812  0.6803  0.5148 -0.4778
 1010MOL0     C36261   7.471   9.182   1.684  1.0986 -0.6223 -0.7322
 1010MOL0     O36262   7.163   9.289   1.471  0.4961  0.4679 -0.2343
 1010MOL0     C36263   7.296   9.064   1.223  0.5960 -0.4059  0.0537
 1010MOL0     C36264   7.287   9.043   1.081  0.2918  0.6648 -0.4193
 1010MOL0     N36265   6.732   9.085   0.550 -0.0802 -0.1818  0.4481
 1010MOL0     N36266   6.604   9.049   0.531 -0.2880 -0.2391 -0.3159
 1010MOL0     C36267   5.799   8.102   0.454 -0.5942 -0.1821 -0.4148
 1010MOL0     C36268   5.756   7.968   0.464 -0.8366  0.1363  0.3026
 1010MOL0     C36269   5.446   7.642   0.379 -0.5960  0.2216 -0.2985
 1010MOL0     C36270   5.501   7.535   0.453  0.6431  0.0344 -0.2526
 1010MOL0     C36271   5.464   7.405   0.432 -0.1711  0.3943  0.0693
 1010MOL0     C36272   5.359   7.369   0.342 -0.7013 -0.3134 -0.2755
 1010MOL0     O36273   5.312   7.246   0.310 -0.4919  0.2608 -0.2021
 1010MOL0     C36274   5.392   7.131   0.317  0.0648 -0.0311 -1.3925
 1010MOL0     C36275   5.318   7.023   0.241 -0.0526  0.5491  0.7343
 1010MOL0     C36276   5.163   7.006   0.262 -0.3362  0.3050  0.2550
 1010MOL0     C36277   5.091   6.945   0.138  0.6477 -0.6561  0.9564
 1010MOL0     C36278   5.134   6.807   0.142 -0.6111 -0.3389  0.0965
 1010MOL0     C36279   5.189   6.695   0.137 -0.0186 -0.1392  0.1904
 1010MOL0     C36280   5.301   7.475   0.275 -0.4079  0.5529 -1.2504
 1010MOL0     C36281   5.341   7.603   0.293  0.0943  0.3220  0.1757
 1010MOL0     C36282   5.275   7.700   0.207 -1.0894 -0.0864  0.3221
 1010MOL0     H36283   5.442   8.018   0.572 -0.4732  0.9480  2.1468
 1010MOL0     H36284   5.518   8.251   0.561  1.1393  0.7825  0.6525
 1010MOL0     H36285   5.951   8.359   0.527 -2.8043 -0.1042  2.4153
 1010MOL0     H36286   5.905   8.349   0.351  0.7006  3.8373 -1.6404
 1010MOL0     H36287   5.821   8.572   0.531  2.5072  3.6152  0.1030
 1010MOL0     H36288   5.826   8.571   0.354 -0.0423 -1.2794  0.4248
 1010MOL0     H36289   6.067   8.571   0.361  0.2251  1.4140  1.3052
 1010MOL0     H36290   6.056   8.576   0.536 -1.1829 -2.6396 -0.0172
 1010MOL0     H36291   5.924   8.769   0.347 -0.4678 -1.0218 -1.1671
 1010MOL0     H36292   5.958   8.791   0.526  0.9889  1.0381 -0.1054
 1010MOL0     H36293   6.152   8.808   0.311 -0.1770 -0.4224  0.1653
 1010MOL0     H36294   6.101   8.917   0.444  0.7119  0.7072  0.8839
 1010MOL0     H36295   6.217   8.763   0.619 -0.2346 -0.3376  0.5294
 1010MOL0     H36296   6.275   8.664   0.492 -1.8885 -0.9953  0.6647
 1010MOL0     H36297   6.322   8.965   0.513 -2.2680 -0.7920 -2.0834
 1010MOL0     H36298   6.415   8.861   0.405 -0.9548 -1.1912 -0.8826
 1010MOL0     H36299   6.438   8.867   0.719  1.8879  0.6720 -0.1188
 1010MOL0     H36300   6.508   8.743   0.614 -0.9429  0.3193 -1.6685
 1010MOL0     H36301   6.722   8.820   0.738  0.8990  0.8688  0.9656
 1010MOL0     H36302   6.970   9.134   0.680  0.3561 -0.3503  1.1687
 1010MOL0     H36303   6.945   9.005   0.795  1.7816  0.0843  0.0628
 1010MOL0     H36304   7.033   8.839   0.624 -0.8424  0.6992  2.7657
 1010MOL0     H36305   7.036   8.956   0.512 -1.8169 -2.1791  0.3006
 1010MOL0     H36306   7.215   9.093   0.619  1.2402 -0.6225  0.3932
 1010MOL0     H36307   7.278   8.933   0.595  2.5644  2.9462 -0.2621
 1010MOL0     H36308   7.349   9.013   0.808  0.0336  0.0800 -3.1044
 1010MOL0     H36309   7.231   8.886   0.840 -0.9840  0.4631  0.5847
 1010MOL0     H36310   7.021   9.247   1.017 -0.7429 -2.5773 -2.4761
 1010MOL0     H36311   7.044   9.291   1.240 -0.1626  2.3778 -3.4308
 1010MOL0     H36312   7.139   9.131   1.680 -0.9641  1.6489  1.3492
 1010MOL0     H36313   7.178   9.155   1.924 -0.3346 -2.8431 -0.6029
 1010MOL0     H36314   7.611   9.184   2.047 -0.5085 -0.1243 -0.2699
 1010MOL0     H36315   7.574   9.362   2.058  0.1421  0.5277  1.4208
 1010MOL0     H36316   7.449   9.293   2.266 -0.5165  0.6313 -1.0255
 1010MOL0     H36317   7.549   9.144   2.259  0.7217 -1.7701 -4.6496
 1010MOL0     H36318   7.657   9.431   2.284 -1.4844  1.3114  3.1972
 1010MOL0     H36319   7.644   9.322   2.419  1.8229  1.3392 -0.2256
 1010MOL0     H36320   7.820   9.281   2.169  1.1655  0.4985 -0.1899
 1010MOL0     H36321   7.787   9.158   2.299  0.3723  0.2356  0.8582
 1010MOL0     H36322   7.888   9.317   2.462 -0.0059 -3.5829  0.1637
 1010MOL0     H36323   7.912   9.425   2.331 -2.9995 -0.2099  1.0302
 1010MOL0     H36324   8.019   9.134   2.390  1.1231 -0.7063  0.0399
 1010MOL0     H36325   8.061   9.198   2.238 -2.1699 -4.3408  0.5358
 1010MOL0     H36326   8.185   9.395   2.364  0.8283 -0.6388  1.0358
 1010MOL0     H36327   8.246   9.225   2.388  3.3291  1.0913  1.1965
 1010MOL0     H36328   8.085   9.379   2.595  0.5591  0.1693 -0.7974
 1010MOL0     H36329   8.116   9.210   2.589  0.8275 -0.3906 -1.7760
 1010MOL0     H36330   7.591   9.225   1.849  1.0170 -1.6813 -0.0592
 1010MOL0     H36331   7.564   9.189   1.627  1.6475 -0.7573  0.1306
 1010MOL0     H36332   7.373   9.019   1.285 -0.2534 -0.9113  0.7699
 1010MOL0     H36333   7.349   8.976   1.022  1.5678  1.3534  0.0958
 1010MOL0     H36334   5.899   8.125   0.418  1.2027 -2.0763  2.8206
 1010MOL0     H36335   5.822   7.887   0.436  0.1726  1.4471 -1.2678
 1010MOL0     H36336   5.593   7.536   0.512  1.8123  0.5229 -1.9961
 1010MOL0     H36337   5.515   7.327   0.487 -2.1472 -1.0735 -0.0481
 1010MOL0     H36338   5.412   7.116   0.424 -2.0607  2.0248 -0.6311
 1010MOL0     H36339   5.489   7.149   0.271 -0.3599 -1.0367 -2.7313
 1010MOL0     H36340   5.357   6.922   0.255  0.7402  0.5274 -1.2649
 1010MOL0     H36341   5.334   7.037   0.134  3.7708 -0.3387  1.0352
 1010MOL0     H36342   5.124   7.106   0.282  0.3389  0.4364  0.9934
 1010MOL0     H36343   5.143   6.958   0.358  1.2746  0.0463  0.4919
 1010MOL0     H36344   4.983   6.943   0.149  0.5478 -0.1346  0.1565
 1010MOL0     H36345   5.121   7.000   0.048 -0.8164  1.3983  1.6668
 1010MOL0     H36346   5.230   6.596   0.135 -1.1782 -0.6466 -2.5462
 1010MOL0     H36347   5.218   7.451   0.208  0.1036  0.6713 -1.9416
 1010MOL0     H36348   5.337   7.767   0.147 -0.2045 -0.2506  1.0400
 1010MOL0     H36349   5.216   7.662   0.122 -1.8505  0.1974  0.7160
 1010MOL0     H36350   5.212   7.765   0.269  0.7658  1.8504  0.2608
 1011MOL0     O36351   4.734   7.036   4.992  0.3209  0.1286 -0.1564
 1011MOL0     C36352   4.614   7.034   4.960  0.3317  0.9077  0.0999
 1011MOL0     O36353   4.548   6.956   4.861  0.0603  0.0925 -0.5149
 1011MOL0     C36354   4.644   6.884   4.787  0.1212  0.6808  0.4226
 1011MOL0     C36355   4.663   6.905   4.653  0.0930 -0.7416 -0.0233
 1011MOL0     C36356   4.769   6.847   4.577  0.8299 -0.2025  0.2961
 1011MOL0     C36357   4.832   6.738   4.644 -0.4397  0.0490  0.4746
 1011MOL0     O36358   4.939   6.670   4.584 -0.6249  0.7069 -0.5288
 1011MOL0     C36359   4.946   6.661   4.441 -0.3636 -0.2573 -0.5492
 1011MOL0     C36360   5.052   6.542   4.413  0.0366 -0.6362 -0.2800
 1011MOL0     C36361   5.187   6.593   4.381  0.5496 -0.0301 -0.6160
 1011MOL0     C36362   5.290   6.479   4.363  0.5368 -0.3561  0.6510
 1011MOL0     C36363   5.437   6.522   4.360  0.7131 -0.0357  0.5033
 1011MOL0     C36364   5.531   6.404   4.386 -1.3834  0.8328  0.0470
 1011MOL0     C36365   5.679   6.454   4.396  0.2374  0.5252  0.7759
 1011MOL0     C36366   5.754   6.342   4.472 -0.7933  0.3335 -0.4186
 1011MOL0     N36367   5.892   6.377   4.488  0.2469  0.0787  0.6437
 1011MOL0     C36368   5.997   6.289   4.528  0.8273  0.3129 -0.4716
 1011MOL0     C36369   6.102   6.373   4.518 -0.0635  0.5906 -0.5805
 1011MOL0     C36370   6.244   6.320   4.537 -0.1303  1.1101 -0.5434
 1011MOL0     C36371   6.354   6.416   4.468  0.3350  0.3548  0.1340
 1011MOL0     C36372   6.490   6.371   4.530 -0.2724 -0.0023  0.3337
 1011MOL0     C36373   6.607   6.458   4.482 -0.4180 -0.6225 -0.2517
 1011MOL0     O36374   6.605   6.473   4.337 -0.1144 -0.4570  0.1482
 1011MOL0     C36375   6.721   6.501   4.275  0.5768  0.4985 -0.2395
 1011MOL0     C36376   6.749   6.455   4.146  0.0311 -1.7453 -0.3482
 1011MOL0     C36377   6.875   6.478   4.092 -0.3927 -0.4643  0.2937
 1011MOL0     C36378   6.983   6.537   4.165 -0.3767 -0.0376 -0.1701
 1011MOL0     C36379   7.115   6.544   4.111 -1.1741 -0.1263 -1.5532
 1011MOL0     O36380   7.212   6.624   4.172 -0.3209  0.3618 -0.8079
 1011MOL0     C36381   7.333   6.650   4.109  1.4523 -0.5752 -0.3321
 1011MOL0     C36382   7.343   6.701   3.983 -0.1780 -0.4553  0.1581
 1011MOL0     C36383   7.465   6.742   3.935 -0.5915  0.4018 -0.2864
 1011MOL0     C36384   7.587   6.737   4.009  0.6856  0.2845  0.3354
 1011MOL0     O36385   7.703   6.756   3.934  0.6197 -0.3656  0.1086
 1011MOL0     C36386   7.824   6.722   4.002 -0.1484  0.1515 -0.0617
 1011MOL0     C36387   7.947   6.723   3.901  1.1476  0.5864 -0.3457
 1011MOL0     C36388   7.986   6.865   3.860 -0.2226  1.8032 -1.0418
 1011MOL0     C36389   8.050   6.944   3.974 -0.2047 -0.1033  0.0704
 1011MOL0     C36390   8.202   6.904   3.997  0.2484  0.0794  0.7541
 1011MOL0     C36391   8.262   6.996   4.110 -0.0308 -0.7602  0.1791
 1011MOL0     C36392   8.402   6.948   4.146  0.8619 -0.3551 -0.3625
 1011MOL0     C36393   8.510   6.986   4.053 -0.8681  0.1500  0.1904
 1011MOL0    Cl36394   8.515   6.860   3.918  0.2560 -0.0894  0.0625
 1011MOL0     C36395   7.579   6.678   4.139  0.5887 -0.1227 -0.4488
 1011MOL0     C36396   7.451   6.634   4.185 -0.8615 -0.8554 -0.3872
 1011MOL0     O36397   7.141   6.494   4.001 -0.4809 -0.0307  0.4689
 1011MOL0     C36398   6.948   6.582   4.295  0.3143 -0.1434  0.0268
 1011MOL0     C36399   6.819   6.577   4.343 -0.7458  1.1408  0.1238
 1011MOL0     N36400   6.063   6.494   4.468 -0.4133 -0.0584  0.2891
 1011MOL0     N36401   5.932   6.498   4.444 -0.0854  0.3394  0.3592
 1011MOL0     C36402   4.801   6.706   4.775  0.4336  0.2914 -0.0724
 1011MOL0     C36403   4.713   6.775   4.848 -0.1938  0.2997  0.1569
 1011MOL0     C36404   4.527   7.136   5.036  0.2829  0.0468  0.3777
 1011MOL0     C36405   4.389   7.107   5.046  0.1451  0.0799  0.0969
 1011MOL0     C36406   4.310   7.181   5.124  0.7498 -0.3036  0.5675
 1011MOL0     C36407   4.354   7.292   5.191  0.0664  0.3033  1.1618
 1011MOL0     O36408   4.273   7.376   5.265  0.7417  0.0478 -0.9583
 1011MOL0     C36409   4.129   7.349   5.266 -0.8685 -1.2675 -0.6865
 1011MOL0     C36410   4.058   7.458   5.346  0.0308  0.1035  0.4330
 1011MOL0     C36411   4.073   7.601   5.287 -0.1704  0.2916 -0.8519
 1011MOL0     C36412   3.994   7.704   5.368  1.1488 -0.3219 -0.3149
 1011MOL0     C36413   4.042   7.841   5.356  0.2220  0.1933 -0.1715
 1011MOL0     C36414   4.093   7.944   5.317 -0.6289  0.7499 -0.4350
 1011MOL0     C36415   4.487   7.335   5.171 -1.1688 -0.4405 -0.0345
 1011MOL0     C36416   4.581   7.253   5.100  0.3211 -0.0598 -0.6697
 1011MOL0     C36417   4.729   7.297   5.095 -0.8619 -0.0079 -0.2092
 1011MOL0     H36418   4.591   6.971   4.606  0.8188  0.6220  0.6957
 1011MOL0     H36419   4.778   6.870   4.472 -2.6456 -3.8446 -1.0378
 1011MOL0     H36420   4.853   6.626   4.396 -0.0481 -1.7329 -0.0960
 1011MOL0     H36421   4.974   6.754   4.390 -2.4173  0.6962 -0.0518
 1011MOL0     H36422   5.013   6.481   4.331 -1.6569 -0.6030  0.4531
 1011MOL0     H36423   5.065   6.483   4.505  0.3603  3.7875  2.8242
 1011MOL0     H36424   5.223   6.661   4.458 -0.3716 -1.1614  0.8815
 1011MOL0     H36425   5.175   6.651   4.289 -3.0221  0.9018  0.2920
 1011MOL0     H36426   5.277   6.416   4.451 -0.2692 -1.0839  0.0244
 1011MOL0     H36427   5.250   6.417   4.283 -2.0186 -0.2041  1.7130
 1011MOL0     H36428   5.460   6.565   4.262 -0.5524  3.8406  1.7219
 1011MOL0     H36429   5.447   6.606   4.430 -2.7097 -0.9654  2.3314
 1011MOL0     H36430   5.499   6.362   4.482  2.7961 -1.6599  0.6292
 1011MOL0     H36431   5.514   6.324   4.314 -0.0966  1.5382 -1.0783
 1011MOL0     H36432   5.681   6.528   4.476  1.4445 -0.4623  1.7078
 1011MOL0     H36433   5.717   6.504   4.307 -0.1109  4.1589  2.5072
 1011MOL0     H36434   5.709   6.326   4.571 -1.5176  1.1758 -0.6030
 1011MOL0     H36435   5.748   6.254   4.408  2.0988  0.8550 -1.5802
 1011MOL0     H36436   5.996   6.182   4.549  1.6135  0.2167 -0.9018
 1011MOL0     H36437   6.249   6.315   4.646  2.6575  1.7837 -0.5777
 1011MOL0     H36438   6.239   6.225   4.484  1.4989  1.4673 -1.4109
 1011MOL0     H36439   6.347   6.405   4.360 -2.4060  3.9230 -0.2603
 1011MOL0     H36440   6.337   6.521   4.496 -0.3149  0.1208  0.6616
 1011MOL0     H36441   6.509   6.267   4.504  0.8165  0.5672 -1.3062
 1011MOL0     H36442   6.480   6.377   4.639  2.9967 -0.5165  0.7724
 1011MOL0     H36443   6.704   6.423   4.519  0.0945 -0.1213 -1.0873
 1011MOL0     H36444   6.608   6.559   4.525 -1.0233  0.2887 -2.2662
 1011MOL0     H36445   6.678   6.397   4.089 -1.2487  0.2761 -0.9009
 1011MOL0     H36446   6.897   6.416   4.006  0.3082 -1.2744  1.0314
 1011MOL0     H36447   7.254   6.728   3.927  0.9382  1.2223 -0.8935
 1011MOL0     H36448   7.462   6.784   3.835  1.6558  0.7051 -0.2830
 1011MOL0     H36449   7.844   6.795   4.080 -0.6021 -0.0628  0.2594
 1011MOL0     H36450   7.815   6.624   4.051 -3.5700  1.7175  2.9337
 1011MOL0     H36451   8.037   6.678   3.945 -0.1853 -0.9957  0.9249
 1011MOL0     H36452   7.907   6.670   3.815 -1.8579 -2.1126  2.4393
 1011MOL0     H36453   8.057   6.861   3.777  2.2231 -0.1872  0.9936
 1011MOL0     H36454   7.891   6.909   3.827 -1.5041 -1.1554 -1.6435
 1011MOL0     H36455   7.988   6.936   4.063 -4.4757  0.3851 -2.6105
 1011MOL0     H36456   8.038   7.046   3.936 -3.5885 -0.2583  0.5029
 1011MOL0     H36457   8.247   6.908   3.898 -0.5153 -2.5368  0.2276
 1011MOL0     H36458   8.208   6.799   4.027 -1.9852 -0.3257 -0.0780
 1011MOL0     H36459   8.275   7.097   4.070 -2.1981 -0.4289  0.1674
 1011MOL0     H36460   8.200   6.983   4.199  1.3052 -3.8819  0.7618
 1011MOL0     H36461   8.403   6.839   4.154  0.0194 -0.3085  0.4720
 1011MOL0     H36462   8.422   6.983   4.247  0.0785  2.3069 -1.0640
 1011MOL0     H36463   8.484   7.085   4.014 -0.4658  0.0735 -0.2900
 1011MOL0     H36464   8.607   6.996   4.102  0.1265  1.4051 -1.9032
 1011MOL0     H36465   7.664   6.652   4.201  0.0469  1.5213  1.0782
 1011MOL0     H36466   7.441   6.605   4.290  0.4057 -0.7363 -0.2133
 1011MOL0     H36467   7.014   6.630   4.366 -0.3184  0.0712  0.4838
 1011MOL0     H36468   6.800   6.611   4.445  0.6196  0.4460  0.6284
 1011MOL0     H36469   4.839   6.620   4.829 -0.1123  1.2094  1.8767
 1011MOL0     H36470   4.700   6.754   4.953 -1.0368 -0.0704 -0.0123
 1011MOL0     H36471   4.335   7.024   5.000 -1.3762  1.6770 -1.1483
 1011MOL0     H36472   4.208   7.150   5.143  0.7449  0.1370  1.3318
 1011MOL0     H36473   4.102   7.251   5.308 -0.9104 -0.6726  0.7377
 1011MOL0     H36474   4.080   7.342   5.169 -2.0509  0.2539 -0.2263
 1011MOL0     H36475   4.115   7.466   5.439 -0.2272 -2.0232  0.8196
 1011MOL0     H36476   3.950   7.440   5.356  0.5451 -2.1729  2.9830
 1011MOL0     H36477   4.049   7.605   5.180  1.8377  0.6058 -1.3291
 1011MOL0     H36478   4.177   7.633   5.286  0.6198 -2.0296 -2.6937
 1011MOL0     H36479   3.889   7.695   5.340  0.0090  2.2004  2.5640
 1011MOL0     H36480   4.006   7.682   5.474  1.5484 -0.0487 -0.3000
 1011MOL0     H36481   4.134   8.037   5.283 -1.9607  2.0731  1.4000
 1011MOL0     H36482   4.518   7.432   5.208 -2.3741  0.5880 -1.6184
 1011MOL0     H36483   4.800   7.231   5.145  2.1089  1.0767 -2.6918
 1011MOL0     H36484   4.756   7.316   4.991  2.4042  1.0247  0.7073
 1011MOL0     H36485   4.744   7.392   5.149  2.0981 -0.0085 -0.8652
 1012MOL0     O36486   4.240  11.056   1.095 -0.7832  0.3755  0.4816
 1012MOL0     C36487   4.120  11.085   1.105 -0.9153 -0.4858 -0.2601
 1012MOL0     O36488   4.068  11.179   1.183 -0.5851 -0.3042 -0.2518
 1012MOL0     C36489   4.140  11.226   1.293 -0.4611 -0.0104 -1.2047
 1012MOL0     C36490   4.248  11.304   1.271  0.3645 -0.4311 -0.1856
 1012MOL0     C36491   4.329  11.333   1.376 -0.2924 -0.9537  0.0182
 1012MOL0     C36492   4.291  11.302   1.508  1.1427  0.7551 -0.6070
 1012MOL0     O36493   4.364  11.324   1.617 -0.3891 -0.1895 -0.8545
 1012MOL0     C36494   4.494  11.384   1.610  0.2063 -0.9190  0.3627
 1012MOL0     C36495   4.494  11.539   1.649 -0.3844 -0.1517 -0.6560
 1012MOL0     C36496   4.631  11.612   1.645  0.1527  0.0345  0.4847
 1012MOL0     C36497   4.614  11.765   1.651 -0.0786  0.2904  0.1842
 1012MOL0     C36498   4.740  11.850   1.667  0.1702  0.0583 -0.0797
 1012MOL0     C36499   4.816  11.823   1.801 -0.2257  0.2393  0.1407
 1012MOL0     C36500   4.945  11.901   1.832  0.5685  0.3504 -0.0491
 1012MOL0     C36501   5.057  11.857   1.744 -0.1455 -0.3999 -1.2212
 1012MOL0     N36502   5.181  11.941   1.769  0.1640 -0.5572 -0.6808
 1012MOL0     C36503   5.209  12.060   1.699 -0.2385  0.2203 -0.1409
 1012MOL0     C36504   5.319  12.109   1.755  0.3173 -0.9746  0.7246
 1012MOL0     C36505   5.374  12.254   1.718  0.4170 -0.2251  0.1199
 1012MOL0     C36506   5.471  12.226   1.610  0.3414  0.4276 -0.4509
 1012MOL0     C36507   5.552  12.342   1.556 -0.8253 -0.2266  0.3495
 1012MOL0     C36508   5.660  12.393   1.650 -0.8161  0.1037 -0.3010
 1012MOL0     O36509   5.722  12.508   1.587  0.2338  0.4271  0.0378
 1012MOL0     C36510   5.794  12.599   1.663  0.3141  0.1720 -0.9615
 1012MOL0     C36511   5.749  12.644   1.786 -0.7101 -0.2075 -0.2785
 1012MOL0     C36512   5.822  12.733   1.858 -0.2389 -0.7088  0.5474
 1012MOL0     C36513   5.945  12.783   1.813  0.0709  0.5743  0.1292
 1012MOL0     C36514   6.040  12.874   1.877  0.5010  0.9926  0.0045
 1012MOL0     O36515   6.166  12.873   1.834  0.1243 -0.3935 -0.5861
 1012MOL0     C36516   6.249  12.965   1.894 -0.1400 -0.5042  0.3859
 1012MOL0     C36517   6.277  13.087   1.839  0.2951  0.4311 -0.5527
 1012MOL0     C36518   6.367  13.166   1.909  0.2733 -0.5275  0.0788
 1012MOL0     C36519   6.440  13.116   2.024 -0.4806  0.8961 -0.2287
 1012MOL0     O36520   6.544  13.179   2.090  0.4617 -0.1038 -0.3819
 1012MOL0     C36521   6.563  13.322   2.075  0.8005  0.6593 -0.3209
 1012MOL0     C36522   6.678  13.357   2.168 -0.7901  0.2550 -1.0125
 1012MOL0     C36523   6.639  13.332   2.306  0.1012 -0.2310  0.1567
 1012MOL0     C36524   6.739  13.385   2.416  0.1783  0.1218 -0.3731
 1012MOL0     C36525   6.707  13.330   2.556  0.9173  0.3124  0.2882
 1012MOL0     C36526   6.785  13.388   2.675 -0.8818 -0.2189 -0.2216
 1012MOL0     C36527   6.933  13.388   2.655 -0.2234 -0.2825 -0.6893
 1012MOL0     C36528   6.997  13.425   2.790  0.3527  0.0416  0.2110
 1012MOL0    Cl36529   6.962  13.295   2.907 -0.0186  0.0697 -0.1772
 1012MOL0     C36530   6.416  12.984   2.071  0.1538 -0.5121  0.6978
 1012MOL0     C36531   6.318  12.914   2.003 -0.4811 -1.0557  1.0385
 1012MOL0     O36532   5.994  12.948   1.969  0.0298 -0.1444  0.0996
 1012MOL0     C36533   5.983  12.741   1.684 -0.6776 -0.6570  0.5012
 1012MOL0     C36534   5.903  12.650   1.609  1.4374  0.1834 -0.4723
 1012MOL0     N36535   5.359  12.034   1.863  0.9684 -0.5946 -0.6126
 1012MOL0     N36536   5.268  11.932   1.873  0.2108 -0.5564  0.8931
 1012MOL0     C36537   4.168  11.249   1.533 -0.1771  0.5915  0.3205
 1012MOL0     C36538   4.088  11.209   1.420 -0.5119  0.5229 -0.5879
 1012MOL0     C36539   4.021  11.010   1.016 -0.3441  0.2652 -0.0888
 1012MOL0     C36540   4.042  10.873   1.018 -0.9007  0.1450 -0.1086
 1012MOL0     C36541   3.961  10.794   0.942 -0.7758  0.6975 -0.3697
 1012MOL0     C36542   3.859  10.839   0.860  0.1243  0.6858  0.6328
 1012MOL0     O36543   3.790  10.746   0.782  0.0759 -0.1699  0.0448
 1012MOL0     C36544   3.668  10.783   0.726 -0.5061  0.0379 -0.3479
 1012MOL0     C36545   3.587  10.654   0.687  0.6350  0.1656  0.5469
 1012MOL0     C36546   3.431  10.663   0.689  0.8633  0.8712  0.1744
 1012MOL0     C36547   3.373  10.739   0.570  0.8587  0.2341 -0.7655
 1012MOL0     C36548   3.224  10.763   0.563 -0.0203 -1.1335 -0.0490
 1012MOL0     C36549   3.101  10.771   0.551  0.4778 -0.3421 -0.1902
 1012MOL0     C36550   3.831  10.978   0.866 -0.6240 -0.3292  0.7769
 1012MOL0     C36551   3.915  11.069   0.936  0.2864  1.0205 -0.3709
 1012MOL0     C36552   3.879  11.220   0.936  0.1232 -0.3131 -0.3969
 1012MOL0     H36553   4.277  11.350   1.177 -0.5842 -0.5895 -0.5680
 1012MOL0     H36554   4.423  11.383   1.355 -0.2112 -1.7756 -1.8195
 1012MOL0     H36555   4.537  11.329   1.694  1.0641 -1.7397 -0.5883
 1012MOL0     H36556   4.544  11.373   1.513 -1.3425  2.2030 -0.9282
 1012MOL0     H36557   4.457  11.545   1.751 -3.0783  0.4418 -1.6020
 1012MOL0     H36558   4.430  11.590   1.576  0.0163 -0.0897 -0.9701
 1012MOL0     H36559   4.672  11.587   1.547 -2.7188  2.7406 -1.6192
 1012MOL0     H36560   4.699  11.582   1.725 -1.0615  1.0354  1.9534
 1012MOL0     H36561   4.550  11.794   1.567 -1.1041  0.8265  1.1155
 1012MOL0     H36562   4.548  11.795   1.733 -2.4171  3.5984 -2.6022
 1012MOL0     H36563   4.809  11.817   1.589  2.0372 -2.5547  2.4547
 1012MOL0     H36564   4.708  11.954   1.654 -1.3198 -0.4683 -0.9462
 1012MOL0     H36565   4.745  11.837   1.883  0.7151 -0.7589  1.1611
 1012MOL0     H36566   4.846  11.718   1.794 -0.1970  0.1130  1.7580
 1012MOL0     H36567   4.971  11.890   1.938 -0.8706  0.7663  0.3668
 1012MOL0     H36568   4.937  12.010   1.823  2.4554  0.4014 -2.0386
 1012MOL0     H36569   5.082  11.751   1.762  1.7929  0.1846 -0.1268
 1012MOL0     H36570   5.023  11.854   1.640 -2.9418 -1.7133 -0.3555
 1012MOL0     H36571   5.145  12.107   1.625 -2.6017  0.2649  1.8180
 1012MOL0     H36572   5.302  12.325   1.674 -0.1591 -1.9854 -1.9850
 1012MOL0     H36573   5.409  12.297   1.812  2.3304  0.2199 -0.7565
 1012MOL0     H36574   5.537  12.143   1.638 -0.6601 -0.2658 -0.1093
 1012MOL0     H36575   5.397  12.191   1.537 -1.6624  1.2705  1.0930
 1012MOL0     H36576   5.494  12.429   1.524  1.2924  0.3060 -2.4206
 1012MOL0     H36577   5.601  12.305   1.466 -0.2909  0.9491  0.1424
 1012MOL0     H36578   5.730  12.314   1.676  2.6098  2.5995 -1.2303
 1012MOL0     H36579   5.615  12.411   1.748 -1.1579 -2.0957  0.0006
 1012MOL0     H36580   5.655  12.617   1.833 -0.7634 -1.6342 -1.1713
 1012MOL0     H36581   5.785  12.767   1.955 -2.7741 -0.3372 -0.4639
 1012MOL0     H36582   6.238  13.116   1.742 -1.7512  1.2808  0.4597
 1012MOL0     H36583   6.397  13.262   1.867 -1.7608 -0.3894 -1.1877
 1012MOL0     H36584   6.580  13.352   1.971  0.1729  2.3420  0.0318
 1012MOL0     H36585   6.472  13.376   2.103  0.5060 -0.4549  0.9863
 1012MOL0     H36586   6.772  13.305   2.146 -1.5343 -1.2034 -0.9004
 1012MOL0     H36587   6.698  13.464   2.162  0.5650  0.0906  0.1946
 1012MOL0     H36588   6.543  13.373   2.341 -0.6337 -2.3042  0.6733
 1012MOL0     H36589   6.626  13.224   2.317  1.6782 -0.6809 -1.7863
 1012MOL0     H36590   6.728  13.493   2.416  1.8336  0.3397  1.6881
 1012MOL0     H36591   6.845  13.369   2.396  0.1340  1.7582 -2.1854
 1012MOL0     H36592   6.721  13.221   2.553  0.8317  0.3008  0.3083
 1012MOL0     H36593   6.599  13.347   2.565  1.0431  0.6010  1.3385
 1012MOL0     H36594   6.752  13.493   2.672  0.5685  0.2991 -3.4388
 1012MOL0     H36595   6.770  13.337   2.770  2.5526 -0.4547  0.3387
 1012MOL0     H36596   6.971  13.465   2.586  1.7811 -0.5612  0.0304
 1012MOL0     H36597   6.970  13.290   2.624 -1.2841 -0.9165  0.0220
 1012MOL0     H36598   7.105  13.414   2.772  0.3037  1.3674 -1.0598
 1012MOL0     H36599   6.978  13.524   2.832  0.9960  0.9120 -1.4624
 1012MOL0     H36600   6.466  12.936   2.154  0.2940 -1.3071  0.1717
 1012MOL0     H36601   6.290  12.814   2.033 -2.0816 -0.0715  3.1325
 1012MOL0     H36602   6.072  12.776   1.633 -1.7783  0.2061 -0.9282
 1012MOL0     H36603   5.926  12.620   1.507 -1.1814 -1.2281 -0.7146
 1012MOL0     H36604   4.138  11.223   1.634 -4.4316  1.5758 -0.4942
 1012MOL0     H36605   4.000  11.152   1.448  1.2495 -2.6701 -1.0340
 1012MOL0     H36606   4.129  10.835   1.070  0.5114  2.5021 -0.5952
 1012MOL0     H36607   3.971  10.686   0.933 -0.8743  0.4432  2.1089
 1012MOL0     H36608   3.688  10.849   0.640 -2.0390  2.3714  0.9933
 1012MOL0     H36609   3.606  10.849   0.787  0.1601 -1.9651  2.7058
 1012MOL0     H36610   3.621  10.576   0.755  0.5713 -1.0935 -0.8275
 1012MOL0     H36611   3.619  10.626   0.586 -0.2701  4.4580 -1.1369
 1012MOL0     H36612   3.399  10.700   0.787  0.0887 -2.0202  1.0956
 1012MOL0     H36613   3.397  10.559   0.689  0.6334  0.9353  0.8839
 1012MOL0     H36614   3.417  10.839   0.560 -1.4443  1.4015  0.0389
 1012MOL0     H36615   3.408  10.683   0.483 -0.1765 -0.8546 -0.5085
 1012MOL0     H36616   2.996  10.790   0.549  0.4076 -0.6993 -1.6940
 1012MOL0     H36617   3.762  11.020   0.794  0.9925 -0.3229 -0.8413
 1012MOL0     H36618   3.967  11.284   0.946  0.7236 -1.2773  0.6398
 1012MOL0     H36619   3.836  11.249   0.840  1.3953 -1.6879 -1.4259
 1012MOL0     H36620   3.808  11.245   1.016  0.9857  0.2732  0.1993
 1013MOL0     O36621   8.483   4.414   3.491 -0.8162  0.1203 -0.0415
 1013MOL0     C36622   8.403   4.369   3.407 -0.2953  0.0138 -0.2900
 1013MOL0     O36623   8.430   4.356   3.273 -0.0107  0.0086 -1.0454
 1013MOL0     C36624   8.536   4.431   3.237 -0.4841  0.1005  0.3605
 1013MOL0     C36625   8.503   4.552   3.166 -0.9203 -0.2485 -0.7351
 1013MOL0     C36626   8.609   4.643   3.137  0.0581  0.5407  0.6538
 1013MOL0     C36627   8.741   4.609   3.165 -0.3441 -0.5917  1.1423
 1013MOL0     O36628   8.843   4.703   3.132  0.1846 -0.2894 -0.9649
 1013MOL0     C36629   8.972   4.698   3.184  0.2958 -0.4448 -0.2301
 1013MOL0     C36630   8.977   4.742   3.330 -1.0639 -0.3987 -0.5456
 1013MOL0     C36631   9.116   4.762   3.389 -0.2774  0.0976  0.3447
 1013MOL0     C36632   9.114   4.766   3.538 -0.0513 -0.6588 -0.3123
 1013MOL0     C36633   9.254   4.756   3.589 -0.2050  0.1446  0.5682
 1013MOL0     C36634   9.282   4.756   3.739  0.6742 -0.4630  0.9884
 1013MOL0     C36635   9.193   4.656   3.823 -0.4640 -0.3572  0.7894
 1013MOL0     C36636   9.064   4.723   3.883 -0.0830  0.1165 -0.2688
 1013MOL0     N36637   9.066   4.743   4.024 -0.3713  0.7339  0.0180
 1013MOL0     C36638   9.094   4.861   4.088  0.2285  0.1398 -0.2417
 1013MOL0     C36639   9.128   4.835   4.214 -1.0505  0.8321 -0.5773
 1013MOL0     C36640   9.178   4.929   4.315 -0.0894  0.2876 -0.1973
 1013MOL0     C36641   9.068   4.995   4.397 -0.1869 -0.3763 -0.6574
 1013MOL0     C36642   8.968   4.908   4.478 -0.3405  0.4178  0.1801
 1013MOL0     C36643   8.864   5.004   4.540  0.4491  0.4538  0.6810
 1013MOL0     O36644   8.744   4.928   4.567 -0.0301 -0.3022  0.1103
 1013MOL0     C36645   8.654   5.012   4.629 -0.8007  0.4308 -0.1241
 1013MOL0     C36646   8.539   5.048   4.553 -0.3364 -1.2237  0.1477
 1013MOL0     C36647   8.432   5.122   4.617 -0.3503 -0.4703  0.0184
 1013MOL0     C36648   8.450   5.164   4.750 -0.0381 -0.7744  0.5377
 1013MOL0     C36649   8.344   5.241   4.835  0.4403  0.4054  0.0821
 1013MOL0     O36650   8.378   5.244   4.965  0.2447 -0.2050  0.3696
 1013MOL0     C36651   8.316   5.333   5.045  0.0279 -0.0427  0.0243
 1013MOL0     C36652   8.182   5.338   5.079  0.9345 -0.3180  0.0158
 1013MOL0     C36653   8.135   5.436   5.176 -0.2328  0.1099  0.0661
 1013MOL0     C36654   8.224   5.530   5.223  0.0884  0.1832 -1.4833
 1013MOL0     O36655   8.166   5.627   5.315 -0.0539  0.1127  0.6032
 1013MOL0     C36656   8.207   5.755   5.265 -0.0682  0.0251 -0.7493
 1013MOL0     C36657   8.120   5.862   5.343 -0.6145 -0.1905 -0.3819
 1013MOL0     C36658   8.148   6.007   5.288 -0.1772 -0.8296  0.4917
 1013MOL0     C36659   8.302   6.039   5.298 -0.3177  0.9243  0.5146
 1013MOL0     C36660   8.369   6.027   5.165  0.5681 -0.4653 -0.3400
 1013MOL0     C36661   8.520   6.037   5.176 -0.4736  0.0004 -0.2674
 1013MOL0     C36662   8.578   6.149   5.263  0.8450 -0.4100 -0.7504
 1013MOL0     C36663   8.559   6.283   5.201 -0.1612 -0.5001  0.2214
 1013MOL0    Cl36664   8.626   6.420   5.293 -0.0161  0.2300  0.2215
 1013MOL0     C36665   8.355   5.525   5.187  0.7782 -0.5297 -0.1921
 1013MOL0     C36666   8.400   5.429   5.098  1.1766  0.4243 -0.5051
 1013MOL0     O36667   8.252   5.311   4.782  0.4347 -0.4956  0.4710
 1013MOL0     C36668   8.568   5.124   4.816 -0.2401  0.2536  0.5597
 1013MOL0     C36669   8.661   5.049   4.759 -0.3186 -1.0873 -0.8010
 1013MOL0     N36670   9.095   4.696   4.228 -0.7098 -0.7786  0.4615
 1013MOL0     N36671   9.072   4.640   4.118  0.3328 -0.5817  0.7778
 1013MOL0     C36672   8.781   4.481   3.212 -0.2528 -0.6812 -1.3542
 1013MOL0     C36673   8.670   4.393   3.246 -0.5699 -0.0166  0.1667
 1013MOL0     C36674   8.266   4.329   3.457 -0.4819  0.4355  0.5330
 1013MOL0     C36675   8.194   4.234   3.382 -0.0351  0.4169 -1.0322
 1013MOL0     C36676   8.073   4.174   3.433 -0.0772 -0.3990 -0.2342
 1013MOL0     C36677   8.004   4.231   3.546  0.4312  0.0605  0.7559
 1013MOL0     O36678   7.878   4.198   3.590  0.1370 -0.0514 -0.2118
 1013MOL0     C36679   7.788   4.141   3.493 -0.1370 -0.2658 -1.0914
 1013MOL0     C36680   7.793   3.986   3.489 -0.8250  0.6004 -0.8253
 1013MOL0     C36681   7.719   3.916   3.380  0.5504 -0.5798 -0.7365
 1013MOL0     C36682   7.569   3.947   3.374  0.1381 -0.3132  0.1154
 1013MOL0     C36683   7.503   3.881   3.482  0.7293  0.0168 -0.0321
 1013MOL0     C36684   7.446   3.803   3.554  0.9603 -0.1959 -0.2774
 1013MOL0     C36685   8.078   4.331   3.611  0.5573  1.1199  0.0643
 1013MOL0     C36686   8.200   4.383   3.574 -0.2772  0.2438 -0.3284
 1013MOL0     C36687   8.258   4.487   3.656 -0.6991 -0.3793 -1.1657
 1013MOL0     H36688   8.400   4.576   3.140 -0.5376 -0.2588 -2.3853
 1013MOL0     H36689   8.584   4.740   3.095  0.1048  0.1081 -0.3998
 1013MOL0     H36690   9.013   4.597   3.186 -1.1105 -1.0495 -0.9228
 1013MOL0     H36691   9.031   4.772   3.128  0.9264  0.5606  1.6686
 1013MOL0     H36692   8.917   4.675   3.392 -2.8613 -0.8423 -2.6331
 1013MOL0     H36693   8.940   4.845   3.336  1.7789  0.6514  0.8679
 1013MOL0     H36694   9.152   4.859   3.353  1.4729 -0.8480 -0.5959
 1013MOL0     H36695   9.179   4.676   3.364  1.7190  1.3930  0.6734
 1013MOL0     H36696   9.075   4.862   3.571  1.3481 -0.2982  0.3616
 1013MOL0     H36697   9.039   4.693   3.573  0.2240 -1.6740 -1.7668
 1013MOL0     H36698   9.307   4.671   3.543 -1.4312  0.3748 -1.3711
 1013MOL0     H36699   9.316   4.840   3.556  1.9323 -1.7411 -0.5425
 1013MOL0     H36700   9.386   4.728   3.756  1.1931  0.9892  0.3519
 1013MOL0     H36701   9.282   4.859   3.776  0.0458 -0.8072  2.0259
 1013MOL0     H36702   9.261   4.623   3.902  0.5795  0.2135  0.1388
 1013MOL0     H36703   9.167   4.566   3.766  0.0976 -0.7235  1.1006
 1013MOL0     H36704   9.051   4.819   3.834  3.5050  1.0829  0.3777
 1013MOL0     H36705   8.980   4.655   3.863 -1.2013  0.5713  2.4332
 1013MOL0     H36706   9.086   4.962   4.049 -1.1371 -0.9988 -3.2529
 1013MOL0     H36707   9.255   4.891   4.383  0.2273  0.9152 -0.1996
 1013MOL0     H36708   9.234   5.011   4.269 -2.6825  2.2242 -0.1741
 1013MOL0     H36709   9.122   5.071   4.454  2.0348 -1.2197 -1.5409
 1013MOL0     H36710   9.014   5.050   4.319 -1.1175 -1.5323 -0.8641
 1013MOL0     H36711   9.025   4.855   4.555 -0.7022  0.5255  0.5290
 1013MOL0     H36712   8.914   4.836   4.416  1.6821 -0.4677 -0.6439
 1013MOL0     H36713   8.837   5.083   4.469 -1.3769  0.2421  1.0902
 1013MOL0     H36714   8.908   5.040   4.634  0.0808 -1.0485  1.4580
 1013MOL0     H36715   8.533   5.016   4.449  1.5285  3.3968 -1.6735
 1013MOL0     H36716   8.342   5.155   4.565 -0.0796  0.4650  0.1174
 1013MOL0     H36717   8.113   5.269   5.031  1.4954  1.9803 -4.6554
 1013MOL0     H36718   8.027   5.443   5.180 -0.4281  0.8884 -3.3059
 1013MOL0     H36719   8.314   5.773   5.275 -0.2444  0.0954  1.5798
 1013MOL0     H36720   8.184   5.767   5.159  1.9560  1.5928 -1.0707
 1013MOL0     H36721   8.016   5.838   5.321  0.0691 -1.1074 -2.9603
 1013MOL0     H36722   8.136   5.855   5.451 -1.6865 -4.1125 -0.3186
 1013MOL0     H36723   8.113   6.001   5.185  0.3632 -1.8584  0.3483
 1013MOL0     H36724   8.093   6.082   5.346  1.8380  2.6911 -1.8050
 1013MOL0     H36725   8.349   5.962   5.360  2.4697 -0.5885 -3.0837
 1013MOL0     H36726   8.308   6.137   5.346 -3.8423  0.2102  2.8297
 1013MOL0     H36727   8.331   6.101   5.095 -1.5861 -3.3655 -2.4580
 1013MOL0     H36728   8.346   5.926   5.130  1.2211 -0.2433 -1.4327
 1013MOL0     H36729   8.561   5.945   5.219 -0.4180  0.4661  0.6995
 1013MOL0     H36730   8.567   6.051   5.078  0.1753  0.6077  0.1299
 1013MOL0     H36731   8.686   6.132   5.275  0.4092 -1.3093  3.3507
 1013MOL0     H36732   8.542   6.145   5.366  2.3458 -0.5077 -0.2005
 1013MOL0     H36733   8.611   6.281   5.105 -2.5792 -1.4826 -1.1467
 1013MOL0     H36734   8.454   6.308   5.184  0.3982  1.7476 -0.2332
 1013MOL0     H36735   8.419   5.600   5.231 -1.9118  2.5714 -1.1498
 1013MOL0     H36736   8.503   5.430   5.063  0.3801 -2.2434 -3.3573
 1013MOL0     H36737   8.586   5.158   4.917  0.9166  2.1184 -0.2381
 1013MOL0     H36738   8.750   5.025   4.816 -2.3647 -0.7996  2.7855
 1013MOL0     H36739   8.885   4.453   3.227 -0.8362 -1.6928  1.5869
 1013MOL0     H36740   8.699   4.299   3.291 -0.1373 -0.6772 -1.3935
 1013MOL0     H36741   8.232   4.208   3.283 -1.6768 -0.8011 -1.3831
 1013MOL0     H36742   8.026   4.098   3.371  0.0874  0.0439 -0.9202
 1013MOL0     H36743   7.807   4.182   3.393 -0.3213  1.6292 -0.3834
 1013MOL0     H36744   7.686   4.173   3.515  0.4970 -0.4728  2.9440
 1013MOL0     H36745   7.764   3.965   3.592  0.6028  6.3485  1.0952
 1013MOL0     H36746   7.895   3.945   3.485 -0.5878  0.8819  1.1224
 1013MOL0     H36747   7.722   3.807   3.393 -2.0010 -0.4983  1.4895
 1013MOL0     H36748   7.771   3.956   3.293 -0.8412  0.1609 -1.2493
 1013MOL0     H36749   7.555   4.055   3.380  0.4534 -0.2840  0.3518
 1013MOL0     H36750   7.523   3.903   3.285 -4.5106 -0.5273  2.3475
 1013MOL0     H36751   7.398   3.742   3.629 -0.7162  1.1796 -0.1606
 1013MOL0     H36752   8.025   4.366   3.699 -1.0781 -1.6338  0.2858
 1013MOL0     H36753   8.195   4.508   3.743  1.1314  0.1029  0.1129
 1013MOL0     H36754   8.355   4.454   3.694  0.2946  1.6083 -1.8382
 1013MOL0     H36755   8.275   4.577   3.596 -0.8084  2.0834  2.2350
 1014MOL0     O36756   5.671   8.091   9.022 -0.2310 -0.6738 -0.3495
 1014MOL0     C36757   5.588   8.011   9.034 -0.1867  0.9025 -0.0249
 1014MOL0     O36758   5.597   7.903   9.114  0.6837  0.2538 -0.4965
 1014MOL0     C36759   5.708   7.887   9.186 -0.1363 -0.4435 -0.3984
 1014MOL0     C36760   5.801   7.786   9.144  0.1337 -0.2288 -0.3347
 1014MOL0     C36761   5.918   7.773   9.220  0.2258  0.7540  0.7581
 1014MOL0     C36762   5.938   7.849   9.326 -0.0579  0.2332  0.4402
 1014MOL0     O36763   6.060   7.829   9.394  1.0171 -0.3978 -0.3627
 1014MOL0     C36764   6.163   7.893   9.321  0.7124 -0.5296  0.1175
 1014MOL0     C36765   6.246   7.960   9.438  0.3699  0.2794 -0.9052
 1014MOL0     C36766   6.345   7.861   9.504 -0.3728  0.3117 -0.5415
 1014MOL0     C36767   6.325   7.848   9.664  0.2169  0.2701 -0.0246
 1014MOL0     C36768   6.415   7.737   9.714 -0.1410 -0.4464  0.3076
 1014MOL0     C36769   6.567   7.748   9.697 -0.3356 -0.1786 -0.6412
 1014MOL0     C36770   6.636   7.624   9.763  0.2627 -0.6555 -0.2430
 1014MOL0     C36771   6.789   7.647   9.758  0.1579  0.6372  0.9628
 1014MOL0     N36772   6.838   7.779   9.801 -0.0017  1.1050  0.2550
 1014MOL0     C36773   6.831   7.828   9.926 -0.1168 -0.2115  0.3401
 1014MOL0     C36774   6.894   7.946   9.924  0.8362  0.1767 -1.0865
 1014MOL0     C36775   6.923   8.031  10.046  0.3657  0.1016 -0.3062
 1014MOL0     C36776   6.821   8.142  10.070  0.4573  0.1304  0.3005
 1014MOL0     C36777   6.851   8.199  10.211  0.4543 -0.5324  0.9220
 1014MOL0     C36778   6.797   8.118  10.327  0.4788  0.3685 -0.3750
 1014MOL0     O36779   6.660   8.121  10.362 -0.4473  0.4566 -0.0835
 1014MOL0     C36780   6.598   8.224  10.425 -0.8009 -0.1305 -0.0885
 1014MOL0     C36781   6.458   8.217  10.458 -0.0219 -0.5980  0.6235
 1014MOL0     C36782   6.410   8.310  10.543 -0.1334  0.0864  0.4809
 1014MOL0     C36783   6.483   8.412  10.606 -1.1015  0.3841 -0.2606
 1014MOL0     C36784   6.430   8.503  10.709  0.2718 -0.2113  0.2935
 1014MOL0     O36785   6.511   8.575  10.790 -0.0852  0.4792 -0.1759
 1014MOL0     C36786   6.461   8.661  10.889  0.9786  0.3272 -0.4751
 1014MOL0     C36787   6.340   8.720  10.895  0.0896  0.5001  0.4401
 1014MOL0     C36788   6.310   8.819  10.989  0.6212  1.0297 -0.7783
 1014MOL0     C36789   6.398   8.857  11.090 -0.5202  0.2951  0.6283
 1014MOL0     O36790   6.362   8.949  11.172 -0.4153 -0.6565 -0.8142
 1014MOL0     C36791   6.350   8.918  11.312 -0.4305  0.1003 -0.5852
 1014MOL0     C36792   6.343   9.059  11.391  0.4353 -0.7416 -0.2088
 1014MOL0     C36793   6.368   9.048  11.544  0.0352  0.1489 -1.2962
 1014MOL0     C36794   6.490   9.123  11.596 -0.5114 -0.1819 -0.7882
 1014MOL0     C36795   6.623   9.041  11.590 -0.3255  0.5920 -0.3262
 1014MOL0     C36796   6.734   9.136  11.620  0.4817  0.7803  0.1012
 1014MOL0     C36797   6.876   9.058  11.607 -0.1555 -0.4838 -0.1967
 1014MOL0     C36798   6.997   9.138  11.652  0.3625 -0.0363  0.2749
 1014MOL0    Cl36799   7.027   9.257  11.527 -0.6431 -0.0573  0.0858
 1014MOL0     C36800   6.517   8.783  11.093  0.4420  1.0131 -0.5563
 1014MOL0     C36801   6.548   8.689  10.994  0.4036 -0.4375  0.1798
 1014MOL0     O36802   6.311   8.500  10.724  0.6323  0.0936  1.1152
 1014MOL0     C36803   6.608   8.433  10.557 -0.0680  0.8403  0.2688
 1014MOL0     C36804   6.661   8.339  10.467  0.0135 -0.2997  0.8119
 1014MOL0     N36805   6.924   7.973   9.793  0.2739  0.9334  0.2651
 1014MOL0     N36806   6.897   7.867   9.725  0.5292  0.1828  0.5606
 1014MOL0     C36807   5.840   7.937   9.379  0.0608 -1.1759 -0.1801
 1014MOL0     C36808   5.728   7.960   9.303  0.1470 -0.1847  0.4985
 1014MOL0     C36809   5.472   8.020   8.951  0.8474  0.4518  0.3021
 1014MOL0     C36810   5.360   7.931   8.960 -0.7992 -0.0546 -0.1752
 1014MOL0     C36811   5.245   7.935   8.882 -0.1689 -0.5160 -1.6178
 1014MOL0     C36812   5.231   8.041   8.795 -0.6063 -1.1089 -0.6762
 1014MOL0     O36813   5.130   8.045   8.710  0.4785  0.1350  0.1117
 1014MOL0     C36814   5.047   8.156   8.704  0.4914  0.0993  0.0014
 1014MOL0     C36815   4.954   8.144   8.574  0.2557 -1.6393  0.2295
 1014MOL0     C36816   4.828   8.230   8.574 -1.2945  0.7046  1.0132
 1014MOL0     C36817   4.705   8.153   8.608 -0.3658 -0.0295  0.5574
 1014MOL0     C36818   4.596   8.252   8.644 -0.5861 -0.4528  0.3249
 1014MOL0     C36819   4.503   8.327   8.652 -0.4827 -0.5423  0.4909
 1014MOL0     C36820   5.329   8.145   8.781  0.1127  0.1649 -0.1581
 1014MOL0     C36821   5.449   8.130   8.857  0.2616 -0.6559  0.1655
 1014MOL0     C36822   5.552   8.241   8.816  1.2595  0.8434 -0.3696
 1014MOL0     H36823   5.795   7.718   9.059 -0.2919 -1.6116  0.7545
 1014MOL0     H36824   5.990   7.698   9.187  0.9786  0.8721  2.0400
 1014MOL0     H36825   6.227   7.822   9.268  0.5286 -2.1856  1.9947
 1014MOL0     H36826   6.121   7.971   9.256  2.6458  3.0360  2.7548
 1014MOL0     H36827   6.192   8.010   9.519  1.1220 -1.9728  1.1040
 1014MOL0     H36828   6.315   8.034   9.395  2.6271  0.7122  3.0044
 1014MOL0     H36829   6.447   7.882   9.472 -0.4747  0.0020 -1.0693
 1014MOL0     H36830   6.325   7.759   9.470  0.4595  0.2263 -0.7977
 1014MOL0     H36831   6.364   7.945   9.698 -1.1172 -0.1184  2.9341
 1014MOL0     H36832   6.222   7.843   9.700  0.6499 -0.0881  1.2354
 1014MOL0     H36833   6.399   7.727   9.822  0.2849  0.0156  0.4178
 1014MOL0     H36834   6.384   7.641   9.672 -2.0311  0.3630 -0.2759
 1014MOL0     H36835   6.596   7.750   9.591 -1.1068 -1.5843 -0.8927
 1014MOL0     H36836   6.603   7.842   9.740  3.7156 -1.6305 -0.4232
 1014MOL0     H36837   6.611   7.531   9.710 -3.4688 -0.3432  0.6616
 1014MOL0     H36838   6.600   7.605   9.865  1.7645 -0.8698  0.2763
 1014MOL0     H36839   6.832   7.578   9.831 -1.5142 -0.1316  1.2783
 1014MOL0     H36840   6.832   7.612   9.664  1.7614 -2.1330  2.5852
 1014MOL0     H36841   6.802   7.762  10.008 -1.5910 -3.1233 -2.3058
 1014MOL0     H36842   6.919   7.960  10.129  1.3544  0.3239 -0.0570
 1014MOL0     H36843   7.021   8.077  10.031 -0.4906  1.9783 -0.3729
 1014MOL0     H36844   6.833   8.220   9.994 -0.2958  0.8043  0.8627
 1014MOL0     H36845   6.714   8.119  10.071  0.1324  1.5479  0.1474
 1014MOL0     H36846   6.828   8.305  10.223  2.7285 -0.0882  2.1530
 1014MOL0     H36847   6.961   8.192  10.208  0.5111  0.3086 -2.4969
 1014MOL0     H36848   6.847   8.149  10.420 -1.7089  1.6465  0.4472
 1014MOL0     H36849   6.822   8.014  10.304 -1.2940 -0.1041 -0.2549
 1014MOL0     H36850   6.383   8.145  10.427 -0.1432 -1.8376  3.5126
 1014MOL0     H36851   6.306   8.294  10.570 -0.0803 -1.1262  0.0382
 1014MOL0     H36852   6.264   8.706  10.820 -0.8972  1.7492  1.1671
 1014MOL0     H36853   6.208   8.857  10.982  0.4783  0.8218  0.0549
 1014MOL0     H36854   6.263   8.854  11.330  0.3374 -0.4036  1.6851
 1014MOL0     H36855   6.441   8.868  11.346 -0.3438  0.9822  0.5276
 1014MOL0     H36856   6.422   9.125  11.354  0.8089 -0.9822  0.1429
 1014MOL0     H36857   6.242   9.095  11.373  0.5590  0.4931  1.3809
 1014MOL0     H36858   6.290   9.086  11.610  1.1154 -2.3621  1.6523
 1014MOL0     H36859   6.369   8.945  11.579  0.0944  0.7140  0.4594
 1014MOL0     H36860   6.470   9.145  11.702 -0.1029 -1.1724 -0.4919
 1014MOL0     H36861   6.500   9.224  11.555  1.9125 -0.1617 -0.2633
 1014MOL0     H36862   6.639   9.004  11.489 -0.1551  0.5901 -0.2991
 1014MOL0     H36863   6.625   8.954  11.656  1.1931 -0.8107 -2.1108
 1014MOL0     H36864   6.729   9.215  11.544 -3.0945 -0.7983 -1.5144
 1014MOL0     H36865   6.711   9.169  11.722 -1.0801 -3.3697  1.2968
 1014MOL0     H36866   6.892   9.013  11.509 -0.3559 -1.3869  0.1715
 1014MOL0     H36867   6.852   8.974  11.673 -2.8540  0.2152 -0.1813
 1014MOL0     H36868   6.980   9.192  11.745 -3.2363  0.9680 -0.8330
 1014MOL0     H36869   7.080   9.068  11.667 -1.2236 -1.9015  0.8652
 1014MOL0     H36870   6.596   8.805  11.165  0.1759  2.6181 -0.7099
 1014MOL0     H36871   6.644   8.639  11.005  0.1036 -0.9446  0.4928
 1014MOL0     H36872   6.676   8.508  10.596  2.4324 -0.9958 -0.3298
 1014MOL0     H36873   6.762   8.362  10.433 -0.4806  3.4869  1.4055
 1014MOL0     H36874   5.864   8.001   9.464 -0.7627  0.2013 -0.9362
 1014MOL0     H36875   5.668   8.040   9.345  2.0226  0.0177  3.1059
 1014MOL0     H36876   5.363   7.842   9.023  2.3140 -1.1626 -1.6933
 1014MOL0     H36877   5.160   7.867   8.881 -1.2143  0.7432 -2.6092
 1014MOL0     H36878   5.103   8.248   8.719  1.2592 -0.7096  2.6010
 1014MOL0     H36879   4.974   8.147   8.785 -1.5707  0.2248 -1.7470
 1014MOL0     H36880   4.913   8.043   8.560 -3.7108  0.1520 -3.5166
 1014MOL0     H36881   5.011   8.188   8.491 -0.1454  0.1870  0.8933
 1014MOL0     H36882   4.816   8.251   8.468 -0.9226  0.8954  1.0067
 1014MOL0     H36883   4.855   8.316   8.635  4.4351 -0.3584  0.5262
 1014MOL0     H36884   4.680   8.088   8.524 -3.6371 -0.1238  1.4602
 1014MOL0     H36885   4.706   8.086   8.695  0.1074 -0.1112  0.4925
 1014MOL0     H36886   4.408   8.377   8.662  0.0908  0.7921 -0.4033
 1014MOL0     H36887   5.315   8.229   8.714  0.2725  0.9011  0.7113
 1014MOL0     H36888   5.550   8.307   8.903 -2.0154  1.2510 -0.6147
 1014MOL0     H36889   5.656   8.208   8.808  2.0738  2.9147  0.8339
 1014MOL0     H36890   5.532   8.293   8.722  1.2053 -0.1842 -0.9371
 1015MOL0     O36891   5.462  11.181   8.515 -0.7163  0.1260 -0.6720
 1015MOL0     C36892   5.440  11.161   8.636  0.6378  0.0425  0.1944
 1015MOL0     O36893   5.334  11.094   8.688 -0.2743 -0.0966 -0.0473
 1015MOL0     C36894   5.259  11.004   8.622  0.4132  0.1025  0.3342
 1015MOL0     C36895   5.121  10.982   8.647  0.6068  0.3126 -0.9104
 1015MOL0     C36896   5.043  10.878   8.583 -0.5935 -0.6833 -0.2352
 1015MOL0     C36897   5.107  10.801   8.479  1.0842 -0.4071 -0.1949
 1015MOL0     O36898   5.038  10.706   8.405 -0.8076  0.1893  0.3375
 1015MOL0     C36899   4.935  10.635   8.478 -0.2728 -0.9789  0.5876
 1015MOL0     C36900   4.991  10.548   8.586 -0.2020 -0.8550 -0.0798
 1015MOL0     C36901   4.901  10.424   8.603  0.4590  0.3064 -0.0967
 1015MOL0     C36902   4.769  10.458   8.679 -1.7938 -0.0441  0.3494
 1015MOL0     C36903   4.680  10.340   8.667 -0.0024 -0.5926 -0.8193
 1015MOL0     C36904   4.548  10.378   8.747  0.1554  0.1269  0.1584
 1015MOL0     C36905   4.438  10.264   8.725  0.6718 -0.2420  0.4132
 1015MOL0     C36906   4.338  10.250   8.847  0.2606 -0.2783  0.5805
 1015MOL0     N36907   4.223  10.157   8.818 -0.3010 -0.0075  0.7373
 1015MOL0     C36908   4.185  10.039   8.893  0.4938  0.4277  0.0845
 1015MOL0     C36909   4.062  10.014   8.865 -0.1575 -0.2405 -0.6959
 1015MOL0     C36910   3.969   9.906   8.924  0.0976 -0.2515 -0.6505
 1015MOL0     C36911   3.854   9.987   8.986 -0.1203 -0.0695  0.3689
 1015MOL0     C36912   3.739   9.884   9.017 -0.4541  0.2560  0.2507
 1015MOL0     C36913   3.633   9.943   9.121 -0.2401  0.9782  0.0327
 1015MOL0     O36914   3.697   9.951   9.241  0.6710 -0.9359 -0.2349
 1015MOL0     C36915   3.607  10.005   9.331  0.9303 -0.2216  0.5398
 1015MOL0     C36916   3.611  10.134   9.368 -0.3450 -0.3654 -0.7561
 1015MOL0     C36917   3.533  10.182   9.475  0.7273 -0.1037  0.9541
 1015MOL0     C36918   3.445  10.102   9.546  0.6813 -0.2631 -0.2700
 1015MOL0     C36919   3.352  10.154   9.642  0.9624  0.2923 -0.4330
 1015MOL0     O36920   3.355  10.293   9.662  0.0696 -0.0838  0.8114
 1015MOL0     C36921   3.282  10.350   9.762 -0.2318 -0.0804  0.5170
 1015MOL0     C36922   3.224  10.476   9.735  0.0994 -0.1094  0.7004
 1015MOL0     C36923   3.147  10.537   9.825 -0.0090  0.3902  1.1730
 1015MOL0     C36924   3.114  10.471   9.944  0.1524  0.3109  0.1695
 1015MOL0     O36925   3.026  10.543  10.021 -0.4712 -0.1596 -0.0625
 1015MOL0     C36926   2.905  10.480  10.059 -0.4218 -0.0961  0.5012
 1015MOL0     C36927   2.908  10.488  10.212  0.3132  0.1486  0.5812
 1015MOL0     C36928   2.769  10.490  10.268  0.1611  0.3667 -0.4918
 1015MOL0     C36929   2.692  10.611  10.249  1.0835  0.3248 -1.0135
 1015MOL0     C36930   2.557  10.589  10.321 -0.6780 -0.9749 -1.0782
 1015MOL0     C36931   2.454  10.700  10.303  0.6851  0.0878 -0.0174
 1015MOL0     C36932   2.322  10.668  10.381  0.0118 -0.2709 -0.6750
 1015MOL0     C36933   2.200  10.749  10.337 -0.3404  0.2013 -0.1434
 1015MOL0    Cl36934   2.194  10.917  10.395 -0.1678 -0.1534 -0.3181
 1015MOL0     C36935   3.163  10.346   9.975  0.9410 -0.1777  0.0624
 1015MOL0     C36936   3.257  10.288   9.888 -1.0645  0.0176  0.7837
 1015MOL0     O36937   3.285  10.067   9.703  1.0005 -0.4200 -0.4524
 1015MOL0     C36938   3.443   9.968   9.508 -0.5785  0.3957  0.3656
 1015MOL0     C36939   3.516   9.924   9.398 -1.6249  0.4675  0.4308
 1015MOL0     N36940   4.016  10.100   8.768 -0.4767 -0.0688 -0.5581
 1015MOL0     N36941   4.106  10.191   8.747  0.0959 -0.4991 -0.0728
 1015MOL0     C36942   5.242  10.832   8.452  0.2786  0.4768  0.9657
 1015MOL0     C36943   5.317  10.919   8.527 -1.0346  0.8706  0.1866
 1015MOL0     C36944   5.529  11.223   8.735 -1.1402  0.5298 -0.6311
 1015MOL0     C36945   5.499  11.201   8.875 -0.5614  0.0005  0.3749
 1015MOL0     C36946   5.565  11.258   8.974 -0.0508 -0.6102  0.5094
 1015MOL0     C36947   5.673  11.335   8.950 -0.4078 -0.9328 -0.1141
 1015MOL0     O36948   5.742  11.385   9.056 -0.7646  0.2561 -0.4351
 1015MOL0     C36949   5.822  11.294   9.131 -0.4413  0.2287 -0.3341
 1015MOL0     C36950   5.926  11.359   9.206 -0.4151  0.6158 -0.0752
 1015MOL0     C36951   6.020  11.432   9.110 -0.2967  0.5602  0.4836
 1015MOL0     C36952   6.154  11.482   9.180 -0.0371 -0.2725 -0.7207
 1015MOL0     C36953   6.218  11.601   9.115  0.9446 -0.9376 -1.5953
 1015MOL0     C36954   6.267  11.706   9.076  1.3224 -0.1627 -0.7064
 1015MOL0     C36955   5.704  11.368   8.822 -0.6844 -0.4826  0.1043
 1015MOL0     C36956   5.642  11.313   8.709 -0.9047 -1.3382 -0.2381
 1015MOL0     C36957   5.689  11.349   8.569  0.0375 -0.0362 -0.2313
 1015MOL0     H36958   5.074  11.049   8.718  0.4417 -0.0448 -0.6768
 1015MOL0     H36959   4.936  10.874   8.600 -0.6401  0.9558  0.0157
 1015MOL0     H36960   4.855  10.699   8.514 -0.8954 -0.9985 -0.6839
 1015MOL0     H36961   4.884  10.578   8.400 -2.0739  1.0643  0.1902
 1015MOL0     H36962   4.991  10.601   8.681 -5.1091 -2.9136  1.4173
 1015MOL0     H36963   5.093  10.514   8.568 -0.4388 -0.7992 -1.6805
 1015MOL0     H36964   4.944  10.344   8.665 -2.7286 -0.0702  1.8687
 1015MOL0     H36965   4.874  10.380   8.507 -1.4293  1.0452  0.0373
 1015MOL0     H36966   4.801  10.493   8.778  0.6957 -0.3278 -0.2714
 1015MOL0     H36967   4.719  10.543   8.633 -0.9161 -0.7478 -2.1136
 1015MOL0     H36968   4.664  10.317   8.561 -0.4827 -3.2416 -0.2406
 1015MOL0     H36969   4.724  10.256   8.722 -3.9814 -1.8539  0.7991
 1015MOL0     H36970   4.573  10.392   8.853  0.1928  0.4353  0.1114
 1015MOL0     H36971   4.513  10.476   8.714  3.5595  1.4333 -0.0104
 1015MOL0     H36972   4.488  10.167   8.717 -2.0365 -1.7240 -0.0026
 1015MOL0     H36973   4.374  10.289   8.639 -0.3154  0.8967  1.4370
 1015MOL0     H36974   4.377  10.226   8.947 -1.6431 -1.8552  1.0126
 1015MOL0     H36975   4.284  10.345   8.853  0.7561  0.0649 -0.2155
 1015MOL0     H36976   4.243   9.983   8.965  1.6149 -0.0830 -1.1833
 1015MOL0     H36977   3.937   9.838   8.845 -2.4693  0.6660 -0.4889
 1015MOL0     H36978   4.024   9.860   9.007  0.0496 -0.1952 -0.5866
 1015MOL0     H36979   3.888  10.032   9.080  0.2521  1.1094 -0.3005
 1015MOL0     H36980   3.817  10.067   8.921  1.0354 -0.1122 -0.3576
 1015MOL0     H36981   3.775   9.796   9.073 -0.2019 -1.0181 -1.8205
 1015MOL0     H36982   3.699   9.845   8.923 -0.3940  2.3932 -0.7066
 1015MOL0     H36983   3.544   9.880   9.126 -0.5804  1.4074 -0.4866
 1015MOL0     H36984   3.599  10.042   9.090 -1.4449  1.3496  2.3484
 1015MOL0     H36985   3.690  10.201   9.335  2.6917 -0.6438  4.8934
 1015MOL0     H36986   3.548  10.282   9.515  2.2624 -0.0216  0.2096
 1015MOL0     H36987   3.238  10.527   9.640  0.5269 -2.3468 -0.5024
 1015MOL0     H36988   3.105  10.636   9.810 -0.7166 -0.0930 -0.2665
 1015MOL0     H36989   2.833  10.545  10.010 -0.1846 -1.0635 -1.2439
 1015MOL0     H36990   2.885  10.380  10.018 -0.6384 -0.3228  1.1429
 1015MOL0     H36991   2.964  10.402  10.250  0.1494  1.4610  4.2576
 1015MOL0     H36992   2.950  10.582  10.251 -0.1918 -0.0709  1.7077
 1015MOL0     H36993   2.712  10.407  10.225 -2.3085  1.0452  1.2189
 1015MOL0     H36994   2.789  10.467  10.373 -0.3876 -1.5334 -0.7681
 1015MOL0     H36995   2.663  10.637  10.147 -3.8439  1.1270  0.3125
 1015MOL0     H36996   2.745  10.697  10.290 -0.5538  0.4836  0.9146
 1015MOL0     H36997   2.575  10.570  10.428  1.7519 -1.7308 -1.5494
 1015MOL0     H36998   2.509  10.504  10.272 -2.5339 -0.4321 -0.2886
 1015MOL0     H36999   2.497  10.795  10.337 -4.2799  2.9571 -0.8616
 1015MOL0     H37000   2.431  10.706  10.197 -0.1053 -2.0708 -0.0091
 1015MOL0     H37001   2.337  10.676  10.490 -0.0843  2.5470 -0.8099
 1015MOL0     H37002   2.292  10.565  10.361 -1.8872 -0.2029  1.4411
 1015MOL0     H37003   2.193  10.760  10.229 -2.3261  1.1134  0.0301
 1015MOL0     H37004   2.112  10.698  10.378  1.2616 -1.5969  1.2695
 1015MOL0     H37005   3.142  10.288  10.065 -0.2768  0.3761  0.1523
 1015MOL0     H37006   3.296  10.192   9.920 -1.3864 -0.5970 -0.6120
 1015MOL0     H37007   3.368   9.893   9.533  0.7994 -1.5208 -0.9353
 1015MOL0     H37008   3.510   9.817   9.380 -0.6269  0.6411 -1.1598
 1015MOL0     H37009   5.291  10.762   8.386  1.2151  1.6537  0.3599
 1015MOL0     H37010   5.422  10.926   8.501 -0.4670  3.4188  2.7475
 1015MOL0     H37011   5.407  11.151   8.904 -1.6110  0.6951 -1.5289
 1015MOL0     H37012   5.540  11.236   9.077  3.4168  0.2593  1.6963
 1015MOL0     H37013   5.860  11.229   9.052 -1.6117  2.4420 -2.9054
 1015MOL0     H37014   5.762  11.232   9.198 -1.3095 -0.1422 -1.4125
 1015MOL0     H37015   5.972  11.275   9.259  1.3439  0.8588 -1.1435
 1015MOL0     H37016   5.889  11.424   9.286 -0.9239  1.3878 -0.9235
 1015MOL0     H37017   5.967  11.513   9.060 -0.2221  0.2896 -0.0336
 1015MOL0     H37018   6.056  11.363   9.033 -1.0461  3.6811 -2.9111
 1015MOL0     H37019   6.132  11.528   9.277  1.8733 -1.4634  0.3625
 1015MOL0     H37020   6.223  11.397   9.194 -0.6074 -0.8016 -1.1022
 1015MOL0     H37021   6.331  11.780   9.031  0.9556  0.3699 -0.3646
 1015MOL0     H37022   5.792  11.429   8.806  1.0413 -3.2218 -1.7147
 1015MOL0     H37023   5.712  11.262   8.508  2.5256  0.7537 -0.5178
 1015MOL0     H37024   5.617  11.418   8.524  2.6491  0.2102 -4.5846
 1015MOL0     H37025   5.783  11.403   8.585 -0.7355  1.5134 -0.6764
 1016MOL0     O37026   9.941   5.210   6.655 -0.1401 -0.5405 -0.0237
 1016MOL0     C37027   9.950   5.148   6.547 -0.4575 -0.6435  0.3983
 1016MOL0     O37028   9.979   5.201   6.422  0.0719  0.3432  0.0178
 1016MOL0     C37029  10.010   5.334   6.401  0.2988  0.3894  0.0309
 1016MOL0     C37030  10.058   5.424   6.500 -0.3378  0.8115 -0.5201
 1016MOL0     C37031  10.093   5.557   6.487  0.6703  0.0455 -0.4572
 1016MOL0     C37032  10.089   5.609   6.354 -1.1608 -0.1370 -0.5638
 1016MOL0     O37033  10.131   5.738   6.334 -0.9201 -0.2488  0.5914
 1016MOL0     C37034  10.086   5.795   6.208  0.2320 -0.3843 -0.1723
 1016MOL0     C37035  10.060   5.948   6.238 -0.0421  0.5310  0.1908
 1016MOL0     C37036  10.191   6.015   6.259 -0.0857  0.6042  0.4916
 1016MOL0     C37037  10.168   6.152   6.329 -1.0518 -1.4542  0.4403
 1016MOL0     C37038  10.265   6.199   6.440 -0.0583 -0.8823  0.5909
 1016MOL0     C37039  10.297   6.346   6.432  0.2748 -0.4622 -0.4336
 1016MOL0     C37040  10.373   6.381   6.294 -0.1980  0.9129 -0.3775
 1016MOL0     C37041  10.477   6.495   6.307  0.7150  0.3864 -0.0627
 1016MOL0     N37042  10.405   6.627   6.314  0.1107  1.0758 -0.2778
 1016MOL0     C37043  10.318   6.685   6.229 -0.8265  0.6848  0.4381
 1016MOL0     C37044  10.283   6.809   6.278  0.8049 -0.2717 -0.3424
 1016MOL0     C37045  10.182   6.908   6.228  0.1767  0.1976  0.2976
 1016MOL0     C37046  10.236   7.050   6.240  0.1267  0.9202  0.3350
 1016MOL0     C37047  10.127   7.157   6.197  0.2610 -1.2616  0.2210
 1016MOL0     C37048  10.068   7.132   6.052 -0.3860 -1.0793 -1.0946
 1016MOL0     O37049   9.976   7.236   6.035  0.4221 -0.0430 -0.0870
 1016MOL0     C37050   9.844   7.192   6.010 -0.1646 -0.0744 -0.5059
 1016MOL0     C37051   9.784   7.232   5.893 -0.0903  0.5799 -0.9215
 1016MOL0     C37052   9.655   7.198   5.862  0.5479  0.0986  0.5471
 1016MOL0     C37053   9.572   7.127   5.943  0.2462  0.0798 -0.0856
 1016MOL0     C37054   9.437   7.085   5.893 -0.1267 -0.9444 -0.2290
 1016MOL0     O37055   9.368   7.003   5.969  0.0440  0.2771  0.3486
 1016MOL0     C37056   9.265   6.933   5.903  0.0767 -0.3160  0.3778
 1016MOL0     C37057   9.285   6.788   5.892 -0.6743 -0.4343  0.6761
 1016MOL0     C37058   9.179   6.712   5.846  0.6341  0.1976 -0.5982
 1016MOL0     C37059   9.070   6.777   5.791  0.0126  0.6280 -0.4165
 1016MOL0     O37060   8.967   6.697   5.757  0.5029  0.7080 -0.2126
 1016MOL0     C37061   8.849   6.747   5.696  0.3476 -0.8624  0.5491
 1016MOL0     C37062   8.781   6.624   5.629  0.0199 -0.6921  0.1945
 1016MOL0     C37063   8.634   6.627   5.612  0.8101  0.7300 -0.6482
 1016MOL0     C37064   8.605   6.749   5.532  0.3814  0.4199  0.5655
 1016MOL0     C37065   8.461   6.745   5.473 -0.3553  0.0471  0.7185
 1016MOL0     C37066   8.404   6.876   5.408  0.4685  0.0399 -0.2546
 1016MOL0     C37067   8.282   6.856   5.315  0.1172  1.0735 -0.4904
 1016MOL0     C37068   8.161   6.908   5.391  0.0343 -0.0914  0.1197
 1016MOL0    Cl37069   8.103   6.787   5.505  0.1871  0.0465  0.4008
 1016MOL0     C37070   9.054   6.920   5.805  0.2534 -0.2431  0.0393
 1016MOL0     C37071   9.145   6.994   5.868  0.1029 -0.4935 -0.4927
 1016MOL0     O37072   9.397   7.135   5.790 -0.4151 -0.6515 -0.5621
 1016MOL0     C37073   9.622   7.088   6.068  0.5980  0.0007 -0.6879
 1016MOL0     C37074   9.757   7.121   6.095 -0.4837  0.2324 -0.6980
 1016MOL0     N37075  10.341   6.822   6.408 -0.4571  0.3107  0.8632
 1016MOL0     N37076  10.398   6.703   6.421 -0.1774  0.3753 -0.0433
 1016MOL0     C37077  10.069   5.515   6.251  0.1612  0.9412  0.0583
 1016MOL0     C37078  10.022   5.381   6.267  0.2955  0.0273 -0.9222
 1016MOL0     C37079   9.950   5.001   6.541 -0.0507 -0.4660 -0.3873
 1016MOL0     C37080   9.865   4.933   6.449 -0.7681 -0.6073  0.0303
 1016MOL0     C37081   9.850   4.796   6.452 -0.3034  0.5348  0.3225
 1016MOL0     C37082   9.921   4.720   6.543  0.3914  0.5803  0.1167
 1016MOL0     O37083   9.919   4.584   6.549  0.1671 -0.2204 -0.1490
 1016MOL0     C37084   9.884   4.513   6.424  0.1968  0.1922  0.8750
 1016MOL0     C37085   9.946   4.372   6.435 -0.0095 -0.3299 -0.1654
 1016MOL0     C37086   9.859   4.288   6.527  0.3531 -0.8062 -0.3040
 1016MOL0     C37087   9.923   4.159   6.569 -0.5170 -0.2995 -0.7167
 1016MOL0     C37088   9.831   4.079   6.644 -0.1922 -0.6671 -0.2963
 1016MOL0     C37089   9.750   4.011   6.706 -0.5534  0.0884  0.6030
 1016MOL0     C37090   9.995   4.784   6.647 -0.9879  0.2904 -0.9783
 1016MOL0     C37091  10.020   4.925   6.642  0.0212 -0.8710  0.6488
 1016MOL0     C37092  10.119   4.987   6.744 -0.2817  0.2601 -0.4287
 1016MOL0     H37093  10.081   5.395   6.602  1.3196  1.1006 -0.7833
 1016MOL0     H37094  10.119   5.604   6.581 -1.5269  1.4880 -0.5188
 1016MOL0     H37095  10.164   5.780   6.132 -0.6703 -4.0146 -0.5801
 1016MOL0     H37096  10.000   5.755   6.154  0.1421  1.0178 -1.1130
 1016MOL0     H37097   9.987   5.963   6.318  0.2288  0.3700  0.4692
 1016MOL0     H37098  10.019   5.972   6.139 -0.4573 -0.7883  0.0239
 1016MOL0     H37099  10.242   6.032   6.163  0.9153 -0.1140  0.8858
 1016MOL0     H37100  10.264   5.962   6.320  2.6838  0.6751 -2.4904
 1016MOL0     H37101  10.167   6.222   6.245 -0.4378 -2.9695 -0.8981
 1016MOL0     H37102  10.068   6.162   6.372 -1.2747  0.9607 -0.4857
 1016MOL0     H37103  10.213   6.184   6.535 -3.6584  1.2845 -0.8327
 1016MOL0     H37104  10.356   6.141   6.422  0.5860 -0.2275  1.6772
 1016MOL0     H37105  10.207   6.408   6.440  0.1141 -0.7497  0.0244
 1016MOL0     H37106  10.367   6.360   6.515 -3.9940 -4.1831  4.3611
 1016MOL0     H37107  10.297   6.397   6.216 -1.1664 -0.7587  0.1695
 1016MOL0     H37108  10.430   6.301   6.248 -1.7787  0.7548 -2.2362
 1016MOL0     H37109  10.536   6.484   6.399 -1.1742 -0.7316  1.0990
 1016MOL0     H37110  10.550   6.497   6.226 -0.7537  4.6925 -1.5288
 1016MOL0     H37111  10.293   6.636   6.135 -2.5666  0.6779  0.8689
 1016MOL0     H37112  10.143   6.885   6.128 -0.4208 -0.6546  0.7119
 1016MOL0     H37113  10.094   6.903   6.292  0.5032  5.8176  1.7084
 1016MOL0     H37114  10.266   7.068   6.343 -1.2754 -1.5714  1.2743
 1016MOL0     H37115  10.325   7.054   6.177  0.7366 -2.7686  0.7109
 1016MOL0     H37116  10.160   7.260   6.213 -0.9012 -1.1957  2.7353
 1016MOL0     H37117  10.054   7.144   6.277 -0.6561  1.3860 -0.1005
 1016MOL0     H37118  10.033   7.029   6.041  0.6665 -2.3787  4.4582
 1016MOL0     H37119  10.152   7.143   5.984 -0.4210 -1.4334 -1.1991
 1016MOL0     H37120   9.836   7.308   5.835  1.6363  0.4793  0.4347
 1016MOL0     H37121   9.625   7.223   5.761  2.4234 -0.9442 -0.3215
 1016MOL0     H37122   9.372   6.743   5.937  1.5030  2.6116 -0.1745
 1016MOL0     H37123   9.190   6.604   5.848  2.9933  0.3799  0.3107
 1016MOL0     H37124   8.792   6.804   5.770  2.5585  0.6334  1.2187
 1016MOL0     H37125   8.883   6.811   5.614  0.4151 -0.2900  1.0153
 1016MOL0     H37126   8.827   6.601   5.532 -1.3327 -2.7641 -0.0182
 1016MOL0     H37127   8.789   6.537   5.695  0.2508 -1.0604 -0.3071
 1016MOL0     H37128   8.605   6.543   5.548  2.0712 -1.5675  1.5745
 1016MOL0     H37129   8.579   6.610   5.705  0.3484 -0.8375 -1.1687
 1016MOL0     H37130   8.675   6.749   5.448  0.3996  1.8366  0.5603
 1016MOL0     H37131   8.616   6.834   5.600 -0.2644  2.7214 -2.0719
 1016MOL0     H37132   8.395   6.731   5.559  0.3389  3.0710  1.8505
 1016MOL0     H37133   8.461   6.660   5.405  2.9658  0.7363 -0.3297
 1016MOL0     H37134   8.380   6.947   5.487 -0.0646 -1.2988  0.8337
 1016MOL0     H37135   8.474   6.936   5.350 -0.4273  1.6136  0.2357
 1016MOL0     H37136   8.272   6.753   5.281  1.1817  1.8191 -3.3306
 1016MOL0     H37137   8.291   6.918   5.225 -2.1725  0.0729 -1.4936
 1016MOL0     H37138   8.160   7.013   5.420 -0.2448  0.1093 -0.5973
 1016MOL0     H37139   8.087   6.895   5.311 -0.6332 -3.0657  1.0939
 1016MOL0     H37140   8.961   6.971   5.780 -0.2812 -0.7269  0.9765
 1016MOL0     H37141   9.143   7.102   5.869  1.8378 -0.3142 -3.5234
 1016MOL0     H37142   9.565   7.030   6.140  3.3560 -1.2778  0.6077
 1016MOL0     H37143   9.806   7.099   6.189  1.0399  2.0250 -1.0173
 1016MOL0     H37144  10.086   5.549   6.149  1.5295 -3.2657 -1.2930
 1016MOL0     H37145  10.010   5.313   6.184 -1.3625 -0.1844 -0.5482
 1016MOL0     H37146   9.829   4.995   6.368 -0.2702 -0.0011  0.2693
 1016MOL0     H37147   9.783   4.761   6.374  2.4847  1.3599 -2.6528
 1016MOL0     H37148   9.926   4.575   6.344  3.0088  1.7780  3.4207
 1016MOL0     H37149   9.775   4.503   6.421  0.3480 -2.8785  2.1350
 1016MOL0     H37150  10.048   4.385   6.472 -0.4756 -0.9808  1.4219
 1016MOL0     H37151   9.959   4.314   6.343  1.6691 -0.4168  0.0956
 1016MOL0     H37152   9.761   4.260   6.489 -2.1346  2.7995  2.7914
 1016MOL0     H37153   9.838   4.347   6.616 -2.1453 -1.7543 -0.1846
 1016MOL0     H37154   9.960   4.100   6.485 -0.9447 -2.9422  0.8171
 1016MOL0     H37155  10.005   4.176   6.639 -1.1886 -1.3015  0.3521
 1016MOL0     H37156   9.680   3.939   6.744  0.7767 -1.7092 -0.2410
 1016MOL0     H37157  10.048   4.734   6.727 -0.8246 -0.3898 -1.5079
 1016MOL0     H37158  10.068   5.025   6.833 -1.3637  0.1456 -0.9949
 1016MOL0     H37159  10.199   4.915   6.764 -1.7429 -1.9831 -2.2647
 1016MOL0     H37160  10.158   5.073   6.687  2.0925 -1.9967 -2.4900
 1017MOL0     O37161  10.982  11.318   4.029 -0.2856  0.1392  0.3826
 1017MOL0     C37162  10.872  11.263   4.041 -0.5309 -0.3363 -0.9184
 1017MOL0     O37163  10.745  11.316   3.989 -1.0658  0.5279  0.6839
 1017MOL0     C37164  10.754  11.408   3.885  0.2925  0.0510 -0.5192
 1017MOL0     C37165  10.672  11.521   3.886 -0.2454 -0.3147 -0.1294
 1017MOL0     C37166  10.683  11.616   3.777 -0.8248  0.5513 -1.2535
 1017MOL0     C37167  10.772  11.598   3.670 -0.2739 -0.1251 -0.1568
 1017MOL0     O37168  10.776  11.691   3.568 -0.9348  0.7253 -0.0602
 1017MOL0     C37169  10.904  11.718   3.507 -0.0400  1.1724  0.3937
 1017MOL0     C37170  10.891  11.860   3.447  0.4747 -0.0555 -0.1790
 1017MOL0     C37171  11.021  11.900   3.380  0.0507 -0.5485 -0.9095
 1017MOL0     C37172  11.000  12.033   3.297  0.0122  1.2507 -0.0437
 1017MOL0     C37173  11.117  12.060   3.207 -0.5755 -0.5918 -0.6043
 1017MOL0     C37174  11.237  12.106   3.284 -0.2035 -0.7484 -1.0299
 1017MOL0     C37175  11.362  12.129   3.201  0.7004  0.5420  0.0640
 1017MOL0     C37176  11.434  12.013   3.135  0.3957 -0.8564 -0.0157
 1017MOL0     N37177  11.494  11.934   3.238 -0.0284  0.5783 -0.0867
 1017MOL0     C37178  11.441  11.822   3.303 -0.0111  0.4770  0.6556
 1017MOL0     C37179  11.530  11.769   3.381 -0.7917  0.9994  0.1988
 1017MOL0     C37180  11.504  11.652   3.468 -0.1583  0.5202 -1.0714
 1017MOL0     C37181  11.610  11.633   3.584 -0.2872  0.0571  0.3883
 1017MOL0     C37182  11.722  11.543   3.531  0.2912  0.2051  0.2448
 1017MOL0     C37183  11.817  11.518   3.649 -0.7006  0.5664 -0.2729
 1017MOL0     O37184  11.911  11.416   3.609  0.1290 -0.6330 -0.8223
 1017MOL0     C37185  12.033  11.449   3.554 -0.4388 -0.5016 -0.2221
 1017MOL0     C37186  12.070  11.583   3.521  0.5766  0.1292 -0.2543
 1017MOL0     C37187  12.196  11.613   3.469 -0.0105 -0.6874 -0.2907
 1017MOL0     C37188  12.289  11.512   3.437 -0.2422  0.0270  0.0915
 1017MOL0     C37189  12.414  11.523   3.358  0.3271 -0.1467  0.8675
 1017MOL0     O37190  12.525  11.473   3.407 -0.0732  0.5264  0.2434
 1017MOL0     C37191  12.629  11.448   3.317 -0.5305  0.6554  0.1814
 1017MOL0     C37192  12.755  11.481   3.360  0.1667 -0.4107 -0.5116
 1017MOL0     C37193  12.869  11.468   3.274 -0.5107 -0.6223  0.6264
 1017MOL0     C37194  12.850  11.440   3.138 -0.2932 -0.4056  0.1775
 1017MOL0     O37195  12.943  11.448   3.035 -0.9494  0.8964 -0.4774
 1017MOL0     C37196  13.084  11.492   3.053 -0.3366 -0.0093  0.0294
 1017MOL0     C37197  13.160  11.520   2.931  0.1413 -0.5192  1.1418
 1017MOL0     C37198  13.268  11.624   2.942 -0.3477  0.4714  0.1659
 1017MOL0     C37199  13.401  11.570   3.007 -0.0523 -0.3346  0.3314
 1017MOL0     C37200  13.468  11.463   2.915  0.2111 -0.1406 -0.4526
 1017MOL0     C37201  13.618  11.435   2.967 -0.2982 -0.2460  0.3036
 1017MOL0     C37202  13.614  11.391   3.112  0.4861 -0.8860  0.5276
 1017MOL0     C37203  13.749  11.340   3.148 -0.3027  0.2099  0.5247
 1017MOL0    Cl37204  13.878  11.462   3.129 -0.0417  0.0216 -0.2041
 1017MOL0     C37205  12.722  11.404   3.095  0.3572 -0.4427  0.0832
 1017MOL0     C37206  12.618  11.400   3.193 -0.7005 -0.4960  0.8173
 1017MOL0     O37207  12.401  11.580   3.250  0.3967 -0.1051 -0.3994
 1017MOL0     C37208  12.249  11.380   3.468 -0.2769  0.2705 -0.4512
 1017MOL0     C37209  12.135  11.355   3.540  1.1775 -0.2927 -0.0634
 1017MOL0     N37210  11.637  11.849   3.379 -0.4486 -0.2143  0.2605
 1017MOL0     N37211  11.615  11.943   3.294 -1.3778 -0.8015  0.5914
 1017MOL0     C37212  10.846  11.482   3.671  0.4588 -0.9108  0.2905
 1017MOL0     C37213  10.848  11.393   3.781 -0.6642 -1.1373  0.1183
 1017MOL0     C37214  10.875  11.120   4.071 -0.6975 -0.3315  0.2425
 1017MOL0     C37215  10.756  11.041   4.058 -0.1860  0.0570  0.3848
 1017MOL0     C37216  10.761  10.905   4.062  0.1549 -0.4806  0.4098
 1017MOL0     C37217  10.880  10.838   4.090  0.2639  0.1275 -0.8015
 1017MOL0     O37218  10.876  10.705   4.101  0.8001 -0.5208  0.1891
 1017MOL0     C37219  10.964  10.618   4.031  0.1518  1.0659 -0.2582
 1017MOL0     C37220  10.910  10.598   3.890 -0.0174 -0.3013 -0.7575
 1017MOL0     C37221  10.775  10.525   3.881  0.4870 -0.3680 -0.2927
 1017MOL0     C37222  10.701  10.552   3.745 -0.3278  0.7848  0.0129
 1017MOL0     C37223  10.666  10.696   3.734 -1.2092 -1.3216 -0.0684
 1017MOL0     C37224  10.656  10.817   3.730  0.1750 -0.1775  0.2601
 1017MOL0     C37225  10.995  10.910   4.105  0.6187 -0.2867  0.3087
 1017MOL0     C37226  10.999  11.047   4.103  0.2979 -0.2735 -0.6115
 1017MOL0     C37227  11.135  11.113   4.132  0.1210 -0.3402  0.2481
 1017MOL0     H37228  10.605  11.525   3.971 -0.9860  0.1311 -0.7252
 1017MOL0     H37229  10.616  11.701   3.788 -1.5093 -0.0690 -0.4852
 1017MOL0     H37230  10.977  11.724   3.588 -0.9610  1.0665  1.2563
 1017MOL0     H37231  10.925  11.634   3.440 -0.5093  0.6312  0.9097
 1017MOL0     H37232  10.869  11.944   3.513  0.6379  0.0969 -0.3183
 1017MOL0     H37233  10.819  11.865   3.364  0.4773  1.4917 -0.1159
 1017MOL0     H37234  11.054  11.817   3.319 -0.2936 -1.0363 -0.4438
 1017MOL0     H37235  11.091  11.923   3.461 -1.3145  2.0675 -0.3582
 1017MOL0     H37236  10.908  12.014   3.241  0.2451  1.1066 -0.3812
 1017MOL0     H37237  10.971  12.117   3.360 -2.2988  0.2988  0.2776
 1017MOL0     H37238  11.150  11.965   3.164  1.3011 -0.4922  0.4686
 1017MOL0     H37239  11.084  12.136   3.136 -2.5148  2.5954  3.2928
 1017MOL0     H37240  11.212  12.194   3.343  1.6746 -1.1252  0.4164
 1017MOL0     H37241  11.267  12.044   3.369  2.8860  2.3887  0.3969
 1017MOL0     H37242  11.432  12.184   3.264 -1.9336  2.8280  1.1910
 1017MOL0     H37243  11.330  12.189   3.115 -2.2743  0.9731  1.3482
 1017MOL0     H37244  11.369  11.964   3.062 -2.1717 -0.9409  2.1360
 1017MOL0     H37245  11.518  12.055   3.079 -0.1871  2.2007  1.1674
 1017MOL0     H37246  11.337  11.797   3.280  0.6614  1.2084 -4.6176
 1017MOL0     H37247  11.405  11.672   3.511  0.7950  3.1510  0.1139
 1017MOL0     H37248  11.504  11.557   3.415  1.1714 -0.8910  1.2795
 1017MOL0     H37249  11.655  11.729   3.610  1.7930  0.6122 -4.2878
 1017MOL0     H37250  11.564  11.587   3.672  0.2535 -2.2621 -0.4787
 1017MOL0     H37251  11.782  11.582   3.447 -0.8126  2.2679  0.3436
 1017MOL0     H37252  11.690  11.443   3.501  4.9508 -0.3941 -4.1204
 1017MOL0     H37253  11.765  11.466   3.729  0.6010  0.9147  0.8430
 1017MOL0     H37254  11.868  11.606   3.690 -0.7443  1.0414 -1.2031
 1017MOL0     H37255  12.009  11.673   3.524  4.1663  2.7474  0.2723
 1017MOL0     H37256  12.226  11.708   3.425 -0.2168 -0.0676  0.8795
 1017MOL0     H37257  12.778  11.535   3.451  4.5812 -0.2190 -1.5031
 1017MOL0     H37258  12.970  11.502   3.298 -0.2399  1.6939 -2.9231
 1017MOL0     H37259  13.079  11.584   3.113 -0.9904 -1.0443  1.6126
 1017MOL0     H37260  13.147  11.418   3.103  1.0866  0.0333 -1.6152
 1017MOL0     H37261  13.186  11.423   2.886  1.5608  0.7252 -0.8919
 1017MOL0     H37262  13.086  11.567   2.866 -0.0171 -2.9608 -0.6257
 1017MOL0     H37263  13.282  11.664   2.841  0.3106  1.5042  0.6478
 1017MOL0     H37264  13.221  11.705   2.999  2.4221  0.5681  2.5218
 1017MOL0     H37265  13.373  11.529   3.105 -2.0918  1.1812  0.4569
 1017MOL0     H37266  13.466  11.654   3.030 -0.7519 -0.2833  2.3336
 1017MOL0     H37267  13.468  11.497   2.811 -1.5525  0.2370 -0.3582
 1017MOL0     H37268  13.419  11.365   2.925  3.0968 -1.6524  0.1257
 1017MOL0     H37269  13.668  11.355   2.911 -0.5295 -1.2734  1.5023
 1017MOL0     H37270  13.674  11.526   2.943 -0.2388 -0.8545 -2.1981
 1017MOL0     H37271  13.535  11.318   3.132 -2.0905  2.0910  2.2502
 1017MOL0     H37272  13.592  11.477   3.176 -1.4873  2.6310 -4.2479
 1017MOL0     H37273  13.745  11.308   3.252  0.3825  1.0558  0.8191
 1017MOL0     H37274  13.776  11.254   3.086 -2.0008 -0.2864  0.4192
 1017MOL0     H37275  12.712  11.378   2.990 -0.4150 -1.5899  0.4283
 1017MOL0     H37276  12.520  11.366   3.159 -1.5103 -1.1141  3.4943
 1017MOL0     H37277  12.318  11.299   3.451 -1.3879 -1.3552  2.1703
 1017MOL0     H37278  12.106  11.254   3.568 -0.4733  0.2542  0.2842
 1017MOL0     H37279  10.912  11.451   3.591 -1.8064 -1.7624 -1.3335
 1017MOL0     H37280  10.927  11.318   3.776  0.6797  0.3175 -3.2009
 1017MOL0     H37281  10.662  11.094   4.040  0.9810  1.7648 -1.0251
 1017MOL0     H37282  10.672  10.843   4.059 -0.5819  0.5532  0.3854
 1017MOL0     H37283  10.978  10.526   4.089  0.6253  1.9096  1.0249
 1017MOL0     H37284  11.058  10.673   4.018  0.9986  0.2611  1.9186
 1017MOL0     H37285  10.983  10.546   3.827 -1.3225  0.7508 -3.2486
 1017MOL0     H37286  10.904  10.699   3.848  0.0172 -0.5647 -1.3880
 1017MOL0     H37287  10.715  10.563   3.964  1.6883  2.2427 -0.4875
 1017MOL0     H37288  10.796  10.422   3.910 -0.8771  0.0793  2.6357
 1017MOL0     H37289  10.765  10.514   3.665  0.8335  0.2061  1.1924
 1017MOL0     H37290  10.606  10.497   3.745  0.3872 -0.5311  1.4022
 1017MOL0     H37291  10.633  10.922   3.726 -1.5149 -0.3763  2.6100
 1017MOL0     H37292  11.085  10.848   4.109 -0.1713 -1.6596 -1.4529
 1017MOL0     H37293  11.208  11.051   4.184  0.5663  1.6239  2.0575
 1017MOL0     H37294  11.189  11.144   4.042  2.1080 -1.8299  0.8592
 1017MOL0     H37295  11.110  11.191   4.203 -0.1626  1.4841 -1.7446
 1018MOL0     O37296   5.292   1.911   3.587 -0.3106  0.2116 -0.2838
 1018MOL0     C37297   5.282   1.957   3.474 -0.5526  0.3472 -0.5775
 1018MOL0     O37298   5.386   1.996   3.391 -0.5600 -0.3582  0.3719
 1018MOL0     C37299   5.519   1.986   3.440  0.3401 -0.3643  0.5885
 1018MOL0     C37300   5.588   1.874   3.434 -1.0316  0.0931 -0.0559
 1018MOL0     C37301   5.729   1.866   3.480 -0.2664  0.1303 -0.4713
 1018MOL0     C37302   5.801   1.983   3.503  0.1759 -0.1031  0.4561
 1018MOL0     O37303   5.933   1.968   3.511  0.9438 -0.4763 -0.1508
 1018MOL0     C37304   5.993   1.995   3.640 -0.5814  0.7787 -0.5862
 1018MOL0     C37305   6.108   1.890   3.665  0.0794 -0.4536  0.5480
 1018MOL0     C37306   6.211   1.906   3.554  0.5957 -0.4573 -0.0954
 1018MOL0     C37307   6.302   1.778   3.529  0.0636 -0.5311  0.2755
 1018MOL0     C37308   6.434   1.776   3.607  0.2674  0.3434 -0.0449
 1018MOL0     C37309   6.535   1.676   3.544 -0.2474 -0.7128 -0.2602
 1018MOL0     C37310   6.672   1.679   3.608  0.6008 -0.6912  0.8107
 1018MOL0     C37311   6.776   1.599   3.538  0.2644 -0.2087  0.3739
 1018MOL0     N37312   6.913   1.645   3.562  0.5371 -0.5300 -0.6721
 1018MOL0     C37313   6.958   1.776   3.543 -0.0038 -0.3475 -0.5569
 1018MOL0     C37314   7.088   1.764   3.582 -0.1491 -0.5272  0.6998
 1018MOL0     C37315   7.192   1.869   3.580 -0.5376  0.3611  0.3514
 1018MOL0     C37316   7.248   1.888   3.436 -0.5850 -0.2519  0.4758
 1018MOL0     C37317   7.400   1.928   3.433  0.2600  0.1846 -0.4960
 1018MOL0     C37318   7.464   1.933   3.288  0.4254  0.5359  0.0313
 1018MOL0     O37319   7.561   2.048   3.271  0.7179  0.3688 -0.3889
 1018MOL0     C37320   7.579   2.101   3.151 -0.1307 -0.0777 -0.3892
 1018MOL0     C37321   7.565   2.030   3.032  0.1757 -0.0542  0.4684
 1018MOL0     C37322   7.595   2.091   2.902 -0.2034 -0.2871 -0.9846
 1018MOL0     C37323   7.618   2.226   2.901  1.0763 -0.5986 -0.4319
 1018MOL0     C37324   7.669   2.293   2.773  0.6979  1.2568 -0.1074
 1018MOL0     O37325   7.749   2.402   2.789 -0.2629 -0.0584 -0.2918
 1018MOL0     C37326   7.779   2.487   2.679 -1.7688  0.2058 -0.8825
 1018MOL0     C37327   7.684   2.570   2.615  0.3757  0.1835  0.6425
 1018MOL0     C37328   7.728   2.657   2.512  0.3495 -0.1928 -0.2826
 1018MOL0     C37329   7.854   2.662   2.467  0.2705  0.2575 -0.1232
 1018MOL0     O37330   7.893   2.739   2.366  0.1330 -0.4274  0.2323
 1018MOL0     C37331   8.027   2.775   2.355 -0.3985  0.4301 -0.3532
 1018MOL0     C37332   8.019   2.923   2.321  0.4253 -0.0411  0.0972
 1018MOL0     C37333   8.148   2.981   2.270  0.4079  1.0277 -0.4453
 1018MOL0     C37334   8.175   3.130   2.305  0.0757  0.1360 -0.2086
 1018MOL0     C37335   8.211   3.148   2.453 -0.2502 -0.2430  0.5321
 1018MOL0     C37336   8.250   3.292   2.471  0.9187  0.1111  0.5934
 1018MOL0     C37337   8.321   3.318   2.606 -0.1134 -0.4213  0.9093
 1018MOL0     C37338   8.239   3.281   2.729  0.5615  0.2723  0.2193
 1018MOL0    Cl37339   8.073   3.341   2.722  0.3932 -0.1929 -0.3696
 1018MOL0     C37340   7.947   2.579   2.534 -0.5517 -0.7780 -0.0449
 1018MOL0     C37341   7.910   2.492   2.636 -0.1916  0.6460  0.4974
 1018MOL0     O37342   7.664   2.230   2.665  0.0240  0.4204 -0.5239
 1018MOL0     C37343   7.628   2.293   3.020  0.2246 -0.6852  0.8929
 1018MOL0     C37344   7.604   2.238   3.145 -0.6950  0.6207 -0.0038
 1018MOL0     N37345   7.119   1.637   3.606 -0.7819  0.6797  1.2706
 1018MOL0     N37346   7.012   1.564   3.588 -0.1375 -0.1371  1.0602
 1018MOL0     C37347   5.733   2.100   3.490 -0.3472  0.0254 -0.3112
 1018MOL0     C37348   5.595   2.103   3.464  0.3820  0.0542  0.2541
 1018MOL0     C37349   5.151   1.968   3.421 -0.2393  0.9280 -0.0617
 1018MOL0     C37350   5.129   2.082   3.344  0.5857  0.2120 -0.1536
 1018MOL0     C37351   5.008   2.107   3.285 -0.0340  0.2714  0.2420
 1018MOL0     C37352   4.897   2.010   3.300 -0.1727 -0.8460 -0.7522
 1018MOL0     O37353   4.789   2.038   3.217  0.4905  0.1397 -0.1078
 1018MOL0     C37354   4.711   1.922   3.179 -0.8927 -0.2801 -0.8364
 1018MOL0     C37355   4.573   1.927   3.243 -0.0628 -0.2559  0.5575
 1018MOL0     C37356   4.484   1.820   3.177 -0.1152  0.7548 -1.0367
 1018MOL0     C37357   4.411   1.874   3.063 -0.4355 -0.5664  0.0138
 1018MOL0     C37358   4.307   1.969   3.111  0.0264 -0.5772  0.1592
 1018MOL0     C37359   4.223   2.047   3.139 -0.2248 -0.1141  0.5081
 1018MOL0     C37360   4.917   1.898   3.383 -1.0591  0.2699  0.0891
 1018MOL0     C37361   5.048   1.878   3.436  0.2969  0.7556  0.5141
 1018MOL0     C37362   5.076   1.744   3.511 -0.2676  0.3889 -0.0483
 1018MOL0     H37363   5.539   1.777   3.423 -1.1423 -0.2436  2.8343
 1018MOL0     H37364   5.789   1.776   3.476 -0.5644 -0.0370 -1.3711
 1018MOL0     H37365   6.039   2.094   3.647 -2.0317  1.3626  1.8203
 1018MOL0     H37366   5.928   1.987   3.728  1.0772  0.1113  0.6392
 1018MOL0     H37367   6.059   1.793   3.668 -2.2327  0.6572  0.6330
 1018MOL0     H37368   6.156   1.907   3.761 -1.3814  0.7079  1.1121
 1018MOL0     H37369   6.268   1.997   3.577  1.5678 -1.4678  1.8224
 1018MOL0     H37370   6.162   1.930   3.460  1.1181  0.5732 -0.1210
 1018MOL0     H37371   6.257   1.679   3.537 -0.3050 -0.4907 -1.1159
 1018MOL0     H37372   6.347   1.780   3.429 -1.0226 -1.3750 -0.2518
 1018MOL0     H37373   6.478   1.876   3.604  0.4373  0.2702  0.0013
 1018MOL0     H37374   6.410   1.747   3.710  0.6592 -0.5802 -0.2081
 1018MOL0     H37375   6.499   1.575   3.566 -0.6140 -1.4298 -3.5695
 1018MOL0     H37376   6.538   1.686   3.435 -2.6030 -0.3607 -0.3499
 1018MOL0     H37377   6.665   1.655   3.715 -5.7960  1.4599  1.3053
 1018MOL0     H37378   6.710   1.781   3.612  1.3129 -0.9032 -0.2172
 1018MOL0     H37379   6.760   1.495   3.568 -1.8992  0.0381  0.2958
 1018MOL0     H37380   6.767   1.597   3.429  1.7528 -0.4382  0.2359
 1018MOL0     H37381   6.902   1.867   3.524  0.2452 -0.0723  0.0236
 1018MOL0     H37382   7.152   1.959   3.629  2.1255  1.0186  1.5607
 1018MOL0     H37383   7.270   1.832   3.648  2.1606  2.7749 -1.1760
 1018MOL0     H37384   7.240   1.794   3.382  1.6626 -0.1768 -0.0753
 1018MOL0     H37385   7.188   1.965   3.386  2.0914 -0.9667 -4.4141
 1018MOL0     H37386   7.455   1.860   3.498  0.9858  3.4664  2.6430
 1018MOL0     H37387   7.415   2.022   3.487 -1.9169 -0.0348  0.6011
 1018MOL0     H37388   7.387   1.947   3.211  2.3215  0.9476 -1.8759
 1018MOL0     H37389   7.511   1.837   3.269  0.4593  0.3212  1.1058
 1018MOL0     H37390   7.557   1.923   3.046  1.4325 -0.0839  1.1597
 1018MOL0     H37391   7.595   2.026   2.815  0.8707 -1.8496  0.1155
 1018MOL0     H37392   7.581   2.580   2.646  0.1014 -2.5388  0.8149
 1018MOL0     H37393   7.656   2.723   2.464  0.4125 -0.3997 -0.6605
 1018MOL0     H37394   8.075   2.767   2.454 -0.5793  1.8735 -0.1320
 1018MOL0     H37395   8.081   2.727   2.273 -1.6319  0.0282 -0.9429
 1018MOL0     H37396   7.942   2.939   2.245 -0.2252  0.1177  0.7780
 1018MOL0     H37397   7.974   2.971   2.408  0.2937  2.2110 -1.1479
 1018MOL0     H37398   8.236   2.929   2.308  1.2932  3.2063  0.6536
 1018MOL0     H37399   8.154   2.967   2.162  0.5948  0.7287 -0.3974
 1018MOL0     H37400   8.080   3.177   2.278 -0.1686 -0.8686 -1.1862
 1018MOL0     H37401   8.259   3.165   2.246  0.8037 -0.9137  0.1673
 1018MOL0     H37402   8.291   3.084   2.491  1.7835  1.9435  0.1613
 1018MOL0     H37403   8.123   3.136   2.517 -0.1196 -0.0582  0.7481
 1018MOL0     H37404   8.312   3.328   2.387 -1.7953  2.3831 -0.6182
 1018MOL0     H37405   8.167   3.362   2.459  1.8266  0.9058 -1.6429
 1018MOL0     H37406   8.339   3.426   2.613 -1.5845  0.4573 -4.5400
 1018MOL0     H37407   8.417   3.266   2.605 -0.4641 -1.0991 -0.7107
 1018MOL0     H37408   8.240   3.172   2.737  0.1570  0.2526 -0.0009
 1018MOL0     H37409   8.285   3.324   2.820 -1.6611 -0.2297  1.6476
 1018MOL0     H37410   8.046   2.560   2.494 -1.8280 -2.5826 -2.6302
 1018MOL0     H37411   7.989   2.429   2.675  1.4521  2.3823  0.1012
 1018MOL0     H37412   7.660   2.397   3.022  0.8431 -0.8800  2.5174
 1018MOL0     H37413   7.600   2.289   3.241 -0.8339  0.1512  0.2459
 1018MOL0     H37414   5.782   2.195   3.478 -0.0841  0.6850  4.2679
 1018MOL0     H37415   5.542   2.198   3.455  0.2423 -0.2105 -2.8846
 1018MOL0     H37416   5.210   2.149   3.316  2.1744 -0.8522  1.6142
 1018MOL0     H37417   4.998   2.204   3.238 -0.1706  0.3232  0.3760
 1018MOL0     H37418   4.752   1.826   3.209 -0.6288  0.6457  2.1149
 1018MOL0     H37419   4.706   1.931   3.070  0.8813 -0.0802 -0.9366
 1018MOL0     H37420   4.535   2.028   3.225 -0.2600 -0.5288 -0.6430
 1018MOL0     H37421   4.583   1.916   3.351 -1.2527 -0.9639  0.6106
 1018MOL0     H37422   4.426   1.757   3.245  1.5247 -3.5957 -3.2516
 1018MOL0     H37423   4.549   1.744   3.134 -0.3938  0.4530 -0.9344
 1018MOL0     H37424   4.469   1.922   2.983 -0.7530 -1.6341 -0.8739
 1018MOL0     H37425   4.351   1.797   3.014 -1.5126  0.9682 -1.2098
 1018MOL0     H37426   4.135   2.103   3.166 -0.6972 -0.2555 -0.6828
 1018MOL0     H37427   4.843   1.819   3.391  0.8325 -2.0854 -3.2228
 1018MOL0     H37428   5.066   1.769   3.617  0.3586 -1.1894  0.4133
 1018MOL0     H37429   4.998   1.670   3.491  0.6248 -1.7360  3.4250
 1018MOL0     H37430   5.172   1.696   3.488 -1.3270 -0.9621 -1.9816
 1019MOL0     O37431   3.897  10.632   6.258  0.2374  0.0611  0.2505
 1019MOL0     C37432   3.792  10.574   6.229 -0.1452 -0.2407  0.9049
 1019MOL0     O37433   3.784  10.437   6.214  0.1110  0.0720 -0.1430
 1019MOL0     C37434   3.899  10.375   6.243 -0.8618 -0.7218 -0.0579
 1019MOL0     C37435   3.935  10.314   6.364 -0.1975 -0.5058 -0.2935
 1019MOL0     C37436   4.063  10.254   6.383  0.5707  0.5004  1.2668
 1019MOL0     C37437   4.156  10.258   6.279  0.2938  0.0848  0.5713
 1019MOL0     O37438   4.288  10.202   6.280  0.3236 -0.0698 -0.3837
 1019MOL0     C37439   4.325  10.124   6.394 -0.5162 -0.8769  0.2821
 1019MOL0     C37440   4.480  10.110   6.400 -0.2688  0.6217 -1.0224
 1019MOL0     C37441   4.497  10.001   6.506  0.4740  0.7461 -0.0152
 1019MOL0     C37442   4.647   9.963   6.542 -0.8012  0.3001 -0.6941
 1019MOL0     C37443   4.652   9.834   6.629 -0.6015  0.6865  0.1195
 1019MOL0     C37444   4.798   9.782   6.626  0.5151  0.4683  0.6087
 1019MOL0     C37445   4.908   9.865   6.697  0.2832  0.6420 -0.5250
 1019MOL0     C37446   5.051   9.836   6.653 -0.8105 -0.3517 -0.3624
 1019MOL0     N37447   5.087   9.698   6.644 -0.3596 -0.1493  0.2889
 1019MOL0     C37448   5.125   9.637   6.529  0.4001  0.5555 -0.5215
 1019MOL0     C37449   5.175   9.518   6.564  0.0805 -0.8590 -0.3085
 1019MOL0     C37450   5.244   9.426   6.472  0.0842 -0.3432  0.2832
 1019MOL0     C37451   5.318   9.491   6.352 -0.1619 -0.0104 -0.2765
 1019MOL0     C37452   5.398   9.385   6.271 -0.0443  0.4420  0.2040
 1019MOL0     C37453   5.319   9.257   6.243 -0.5630  0.1392 -0.8071
 1019MOL0     O37454   5.350   9.148   6.339 -0.1987  0.3004 -0.4628
 1019MOL0     C37455   5.484   9.124   6.349 -0.1554 -0.9052  0.3764
 1019MOL0     C37456   5.563   9.089   6.240  0.2384  0.2022  1.0340
 1019MOL0     C37457   5.703   9.071   6.250 -0.6676  0.7662  0.0332
 1019MOL0     C37458   5.767   9.069   6.379 -0.0177  0.3979 -0.5668
 1019MOL0     C37459   5.910   9.039   6.398 -0.2189 -0.0986 -0.1823
 1019MOL0     O37460   5.954   9.058   6.528 -0.2627 -0.2783  0.1340
 1019MOL0     C37461   6.089   9.070   6.547 -0.2814  0.3488 -0.4548
 1019MOL0     C37462   6.133   9.163   6.645  0.7782  0.1611  0.1833
 1019MOL0     C37463   6.271   9.177   6.667 -0.7572  0.6754 -0.4366
 1019MOL0     C37464   6.370   9.105   6.590  0.4371 -0.0286 -0.1839
 1019MOL0     O37465   6.503   9.125   6.617  0.5624 -0.2104  0.0896
 1019MOL0     C37466   6.588   9.133   6.500  0.3348 -0.0065 -0.9241
 1019MOL0     C37467   6.723   9.119   6.550  0.5019 -0.8775 -0.6617
 1019MOL0     C37468   6.807   9.053   6.442 -0.1218  0.2279  0.6529
 1019MOL0     C37469   6.950   9.034   6.502  0.8236  0.2918  0.0661
 1019MOL0     C37470   7.040   8.957   6.402  0.2551  0.6177 -0.0941
 1019MOL0     C37471   7.029   8.996   6.254 -0.2130 -0.7522  0.3719
 1019MOL0     C37472   7.132   8.927   6.165  0.6454  0.3212  0.7206
 1019MOL0     C37473   7.107   8.948   6.021 -0.5681  0.3070  0.0287
 1019MOL0    Cl37474   7.266   8.964   5.935 -0.1640 -0.5197 -0.4789
 1019MOL0     C37475   6.322   9.007   6.498 -0.4446  0.1255  0.1174
 1019MOL0     C37476   6.191   8.993   6.474  0.3737 -0.0641  0.6239
 1019MOL0     O37477   5.976   9.036   6.297  0.1361  0.7471  0.3024
 1019MOL0     C37478   5.682   9.074   6.488 -0.1295  0.3392  0.4333
 1019MOL0     C37479   5.542   9.103   6.470  0.2704 -0.2188  0.8401
 1019MOL0     N37480   5.152   9.498   6.698  0.9224 -0.0356  0.4328
 1019MOL0     N37481   5.098   9.604   6.749  1.4107  0.5420  0.3823
 1019MOL0     C37482   4.123  10.316   6.160 -0.4364  0.6466  0.1557
 1019MOL0     C37483   3.995  10.366   6.142  0.0061 -0.3290  0.2134
 1019MOL0     C37484   3.669  10.659   6.219  0.3490  0.9041 -1.2869
 1019MOL0     C37485   3.549  10.602   6.159  0.4886 -0.0312  0.0369
 1019MOL0     C37486   3.439  10.692   6.138 -0.7186 -0.4387  1.1514
 1019MOL0     C37487   3.441  10.826   6.177 -0.1444 -0.3679 -0.3687
 1019MOL0     O37488   3.349  10.921   6.175 -0.6948 -0.2798  0.4405
 1019MOL0     C37489   3.227  10.881   6.112 -0.0845 -0.0437  0.3776
 1019MOL0     C37490   3.114  10.988   6.121 -0.6688 -0.7519 -0.0307
 1019MOL0     C37491   3.100  11.046   6.263  0.3596 -0.1388  0.0489
 1019MOL0     C37492   3.119  10.943   6.380  0.1418  0.4142  0.1129
 1019MOL0     C37493   3.020  10.832   6.359 -0.2060  0.1822 -0.0980
 1019MOL0     C37494   2.946  10.734   6.349 -0.3887 -0.7074  0.3368
 1019MOL0     C37495   3.557  10.877   6.246 -1.1232 -0.0545 -0.2630
 1019MOL0     C37496   3.672  10.799   6.265  0.3551 -0.2942 -0.5231
 1019MOL0     C37497   3.790  10.879   6.320  0.0406 -0.0322 -0.9822
 1019MOL0     H37498   3.858  10.319   6.440 -0.2403  3.3925 -0.4116
 1019MOL0     H37499   4.085  10.203   6.476 -1.2321 -3.1836 -0.1364
 1019MOL0     H37500   4.312  10.189   6.481  3.8407  0.5182  0.1328
 1019MOL0     H37501   4.262  10.034   6.398 -0.0334 -1.3302 -1.4261
 1019MOL0     H37502   4.530  10.195   6.448 -0.9141  0.1198  0.6112
 1019MOL0     H37503   4.516  10.085   6.300 -0.2635 -2.5107 -0.3255
 1019MOL0     H37504   4.457   9.907   6.468  3.3362 -0.5544 -0.1241
 1019MOL0     H37505   4.449  10.031   6.599  0.7502 -0.5234  0.5565
 1019MOL0     H37506   4.702   9.937   6.451 -0.1342 -1.8268  0.2545
 1019MOL0     H37507   4.693  10.042   6.601 -0.6597 -0.7915  0.7117
 1019MOL0     H37508   4.634   9.867   6.732  0.2863  3.1581 -0.4451
 1019MOL0     H37509   4.579   9.758   6.602 -0.1051 -1.4657  4.0990
 1019MOL0     H37510   4.810   9.687   6.680  0.4992 -0.0871 -0.3444
 1019MOL0     H37511   4.826   9.775   6.521 -1.0208 -0.8020  0.2394
 1019MOL0     H37512   4.902   9.853   6.805  0.0500  0.3320 -0.5731
 1019MOL0     H37513   4.896   9.969   6.665 -0.6986  1.1994  1.5300
 1019MOL0     H37514   5.053   9.880   6.553  2.0341 -1.2823 -0.7804
 1019MOL0     H37515   5.123   9.889   6.715  1.2806 -3.2817 -0.0963
 1019MOL0     H37516   5.126   9.687   6.433  0.1786 -1.1953 -1.4867
 1019MOL0     H37517   5.313   9.372   6.538 -1.5237 -2.1105  0.6106
 1019MOL0     H37518   5.170   9.354   6.435  0.4986 -0.0495 -1.2090
 1019MOL0     H37519   5.233   9.524   6.291 -1.2622  0.9051  1.6694
 1019MOL0     H37520   5.376   9.580   6.379 -0.3376  0.8339 -2.4508
 1019MOL0     H37521   5.498   9.377   6.316 -0.4015 -0.9441  0.7850
 1019MOL0     H37522   5.411   9.434   6.174 -1.3297  2.1915  0.8780
 1019MOL0     H37523   5.335   9.224   6.140  1.9404 -0.2835 -0.3340
 1019MOL0     H37524   5.214   9.287   6.237 -1.0610 -1.5151 -0.8799
 1019MOL0     H37525   5.517   9.096   6.142  1.7716 -1.6250  0.1317
 1019MOL0     H37526   5.762   9.064   6.159 -2.1773  1.6008 -1.0644
 1019MOL0     H37527   6.052   9.213   6.697 -0.7817 -0.6418 -1.3749
 1019MOL0     H37528   6.311   9.235   6.750 -0.5065 -2.4205  1.7927
 1019MOL0     H37529   6.572   9.048   6.433  3.8876 -3.5827  2.2678
 1019MOL0     H37530   6.574   9.232   6.454  1.3290 -0.1963 -1.6658
 1019MOL0     H37531   6.762   9.214   6.588  0.6411 -0.3695 -2.0179
 1019MOL0     H37532   6.716   9.049   6.634 -0.0341  0.6722  0.6396
 1019MOL0     H37533   6.764   8.956   6.418  0.7936  0.1647 -0.8142
 1019MOL0     H37534   6.813   9.119   6.355 -0.5246  0.2092  0.6069
 1019MOL0     H37535   6.931   8.984   6.597 -1.3785 -0.7730 -0.8713
 1019MOL0     H37536   6.994   9.132   6.523 -0.8218  1.1630 -0.4201
 1019MOL0     H37537   7.010   8.852   6.407  2.1883 -0.1478 -2.6060
 1019MOL0     H37538   7.141   8.955   6.442  1.3710 -0.2302 -2.7419
 1019MOL0     H37539   6.932   8.965   6.213  0.5297 -0.0182 -2.0540
 1019MOL0     H37540   7.051   9.103   6.243  3.6007 -1.4624 -0.3227
 1019MOL0     H37541   7.143   8.820   6.188  0.5149  0.3402  0.8661
 1019MOL0     H37542   7.226   8.975   6.191  0.5037  0.4754  0.9526
 1019MOL0     H37543   7.057   8.866   5.969 -4.2161  1.2430  1.7201
 1019MOL0     H37544   7.048   9.040   6.008 -0.6623  0.3959  0.9940
 1019MOL0     H37545   6.393   8.947   6.442  0.4169 -0.4021  1.7008
 1019MOL0     H37546   6.149   8.917   6.409 -0.8440 -1.0851  2.4974
 1019MOL0     H37547   5.728   9.075   6.586  0.8745  2.9478  0.0085
 1019MOL0     H37548   5.479   9.111   6.557 -0.7766  0.3257  0.0556
 1019MOL0     H37549   4.183  10.310   6.070 -1.1073 -0.6356 -0.2241
 1019MOL0     H37550   3.982  10.417   6.047  1.2686 -1.4775 -0.6224
 1019MOL0     H37551   3.542  10.500   6.124 -1.7512 -0.0962  0.5380
 1019MOL0     H37552   3.349  10.660   6.087 -0.9899  2.0425 -0.0738
 1019MOL0     H37553   3.191  10.793   6.165 -2.7714  0.9014  0.2354
 1019MOL0     H37554   3.244  10.848   6.009 -0.9058 -1.0916  0.5581
 1019MOL0     H37555   3.023  10.937   6.091 -1.8447  0.3565  1.4469
 1019MOL0     H37556   3.136  11.075   6.058 -2.3511 -0.4108 -0.1757
 1019MOL0     H37557   3.001  11.092   6.264 -1.7905 -4.2205 -0.5708
 1019MOL0     H37558   3.176  11.123   6.276  0.7514 -0.6323  0.7227
 1019MOL0     H37559   3.222  10.904   6.383 -0.4811 -1.3127  0.3886
 1019MOL0     H37560   3.101  10.995   6.474 -0.0124  1.3470 -0.4262
 1019MOL0     H37561   2.868  10.661   6.357  0.5886 -1.6151  2.1374
 1019MOL0     H37562   3.559  10.984   6.264  0.1559 -0.3770  1.7878
 1019MOL0     H37563   3.766  10.984   6.338 -1.7771 -0.4162 -1.0176
 1019MOL0     H37564   3.821  10.835   6.416 -1.6312  0.9694  0.0660
 1019MOL0     H37565   3.869  10.877   6.244  0.8035 -0.0136 -0.2144
 1020MOL0     O37566   1.884   0.227  10.099 -0.1353  0.1198 -0.5629
 1020MOL0     C37567   1.879   0.150  10.004 -0.1685  0.5667  0.5411
 1020MOL0     O37568   1.980   0.119   9.920 -0.9058 -0.0492  0.3182
 1020MOL0     C37569   2.097   0.197   9.915 -0.2651  0.8007  1.0448
 1020MOL0     C37570   2.219   0.130   9.922  0.5956  0.9049 -0.1355
 1020MOL0     C37571   2.341   0.188   9.923  0.3950 -0.0774  0.4385
 1020MOL0     C37572   2.348   0.328   9.895  0.2951  0.8942  0.3145
 1020MOL0     O37573   2.460   0.400   9.882  0.0536  0.6063 -0.6571
 1020MOL0     C37574   2.587   0.334   9.895  0.4807  0.2119 -0.4834
 1020MOL0     C37575   2.689   0.442   9.888 -0.3294 -0.3069  0.4379
 1020MOL0     C37576   2.816   0.414   9.974  1.2507  0.2873  0.4319
 1020MOL0     C37577   2.943   0.384   9.895 -0.5427 -0.2296  0.4975
 1020MOL0     C37578   3.073   0.345   9.968 -0.3283 -0.0944  0.6842
 1020MOL0     C37579   3.181   0.326   9.860 -0.6715 -0.0149 -0.4565
 1020MOL0     C37580   3.302   0.259   9.934 -0.0372 -0.0117  0.2617
 1020MOL0     C37581   3.432   0.287   9.850  0.5574  0.2391 -0.2147
 1020MOL0     N37582   3.523   0.176   9.877 -0.0092  1.1942 -0.0760
 1020MOL0     C37583   3.580   0.159   9.995 -0.5938  0.0816 -0.1861
 1020MOL0     C37584   3.676   0.068   9.981  0.8212  0.4830 -0.0675
 1020MOL0     C37585   3.770   0.008  10.081  0.1610  0.4346 -0.4866
 1020MOL0     C37586   3.912  -0.002  10.026  0.0573 -0.1934 -0.3359
 1020MOL0     C37587   4.006  -0.063  10.135  1.1695  0.1747  0.3723
 1020MOL0     C37588   4.144  -0.097  10.084 -1.0617  0.5574  0.0806
 1020MOL0     O37589   4.203  -0.152  10.206  0.2106 -0.3052 -0.6783
 1020MOL0     C37590   4.330  -0.207  10.199  0.4175  1.0180  1.0703
 1020MOL0     C37591   4.372  -0.290  10.307  0.1967 -0.0167 -0.1993
 1020MOL0     C37592   4.499  -0.359  10.303  0.2444 -0.5735  0.0059
 1020MOL0     C37593   4.584  -0.338  10.195 -0.2875  0.4938 -0.0199
 1020MOL0     C37594   4.722  -0.386  10.192 -0.5512 -0.3016  1.1888
 1020MOL0     O37595   4.802  -0.358  10.087 -0.5218 -0.1196  0.7950
 1020MOL0     C37596   4.934  -0.375  10.093 -1.0000 -1.4330 -0.6975
 1020MOL0     C37597   4.990  -0.435   9.980 -0.6519  0.3793  0.9998
 1020MOL0     C37598   5.134  -0.452   9.965  1.0105  0.0587  0.3819
 1020MOL0     C37599   5.214  -0.403  10.061 -0.3867 -0.6928  0.3983
 1020MOL0     O37600   5.352  -0.421  10.036 -0.5888  0.4911 -0.7259
 1020MOL0     C37601   5.439  -0.357  10.127  0.0331 -1.3765  1.4397
 1020MOL0     C37602   5.576  -0.355  10.063  0.0895  0.5018 -0.1297
 1020MOL0     C37603   5.681  -0.356  10.176 -0.6321  0.0256  0.0675
 1020MOL0     C37604   5.817  -0.374  10.119 -0.6276 -0.0417 -0.8491
 1020MOL0     C37605   5.864  -0.266  10.017 -0.4305  0.0211  0.1886
 1020MOL0     C37606   5.857  -0.123  10.069  0.3706 -0.5265  0.3026
 1020MOL0     C37607   5.885  -0.031   9.948  0.4200 -0.2784  1.1763
 1020MOL0     C37608   5.765  -0.002   9.864  0.7721  1.1665  0.3909
 1020MOL0    Cl37609   5.660   0.105   9.946 -0.1388  0.5285 -0.2772
 1020MOL0     C37610   5.157  -0.343  10.180  0.8269 -0.2242 -0.1308
 1020MOL0     C37611   5.012  -0.331  10.198  0.6853 -0.4082 -0.2633
 1020MOL0     O37612   4.767  -0.436  10.297 -0.5267 -0.2449  0.4118
 1020MOL0     C37613   4.534  -0.261  10.092  0.5338  0.4119  0.5729
 1020MOL0     C37614   4.408  -0.197  10.086  0.6139  0.2409 -0.6569
 1020MOL0     N37615   3.674   0.027   9.845  0.3773 -0.4146  0.8466
 1020MOL0     N37616   3.585   0.094   9.782  0.4986 -0.2996 -0.7753
 1020MOL0     C37617   2.225   0.400   9.890 -0.1531 -0.2616 -0.8441
 1020MOL0     C37618   2.105   0.334   9.915 -0.4538 -0.2720  0.6520
 1020MOL0     C37619   1.758   0.055   9.989 -1.0812 -0.6245 -0.9248
 1020MOL0     C37620   1.783  -0.072   9.947  1.0348  0.6006  0.2877
 1020MOL0     C37621   1.678  -0.167   9.924 -0.0635 -0.5650 -0.0786
 1020MOL0     C37622   1.541  -0.138   9.962 -0.6512 -0.2239  0.5098
 1020MOL0     O37623   1.443  -0.227   9.942  0.0875 -0.3345 -0.0023
 1020MOL0     C37624   1.301  -0.210   9.974  0.1180  0.0298 -0.5667
 1020MOL0     C37625   1.215  -0.150   9.862 -0.3090 -1.1504 -0.1701
 1020MOL0     C37626   1.075  -0.097   9.903  0.7517  0.5005  0.5225
 1020MOL0     C37627   1.073   0.053   9.938  0.7860 -0.4735  0.1587
 1020MOL0     C37628   1.152   0.089  10.059  0.8369 -0.2644  0.2996
 1020MOL0     C37629   1.209   0.134  10.156  0.2050 -0.4550 -0.4781
 1020MOL0     C37630   1.517  -0.007  10.005 -0.4305  0.0711 -0.5250
 1020MOL0     C37631   1.624   0.088  10.014  0.4487 -0.2053  0.4731
 1020MOL0     C37632   1.589   0.231  10.036 -0.2723  1.1533 -0.3722
 1020MOL0     H37633   2.212   0.022   9.933 -6.3121  0.9665  0.7689
 1020MOL0     H37634   2.430   0.132   9.951 -0.6618 -1.4913  1.0971
 1020MOL0     H37635   2.597   0.285   9.992  2.0564 -2.5814 -1.9293
 1020MOL0     H37636   2.609   0.262   9.816  2.7925 -2.1884  2.1291
 1020MOL0     H37637   2.633   0.528   9.926 -1.1099 -0.0387 -1.2491
 1020MOL0     H37638   2.706   0.469   9.784 -2.8990  1.6871  0.4176
 1020MOL0     H37639   2.785   0.330  10.037  1.2654  0.0058  0.0681
 1020MOL0     H37640   2.827   0.497  10.044  0.2331 -0.7354  1.8603
 1020MOL0     H37641   2.927   0.292   9.838  1.8517 -2.2238  2.7645
 1020MOL0     H37642   2.959   0.468   9.826  2.0373  0.4790  1.8129
 1020MOL0     H37643   3.108   0.423  10.037 -0.0248 -0.7508  1.2910
 1020MOL0     H37644   3.061   0.260  10.036  0.5244  0.6875  1.8449
 1020MOL0     H37645   3.142   0.256   9.786  2.7442 -1.4360 -1.1096
 1020MOL0     H37646   3.211   0.419   9.810  1.5604 -1.7022 -2.4769
 1020MOL0     H37647   3.270   0.155   9.944 -0.7493  0.0784 -0.8807
 1020MOL0     H37648   3.318   0.296  10.036 -0.9033 -0.7516  0.6815
 1020MOL0     H37649   3.413   0.293   9.742  0.4001  3.4638 -0.0859
 1020MOL0     H37650   3.477   0.381   9.881 -0.8169  0.4430  1.2870
 1020MOL0     H37651   3.552   0.205  10.090 -1.3897  1.5285 -1.0855
 1020MOL0     H37652   3.758   0.074  10.168  0.5494 -0.9385  0.6450
 1020MOL0     H37653   3.728  -0.090  10.107 -0.6587  0.6746 -0.8606
 1020MOL0     H37654   3.905  -0.070   9.941  2.1499  1.0461 -1.5720
 1020MOL0     H37655   3.943   0.098   9.994 -1.4955  0.0221 -1.2324
 1020MOL0     H37656   3.959  -0.154  10.173  0.4764 -0.2791 -1.4601
 1020MOL0     H37657   3.999   0.009  10.217  1.5619  1.8983 -1.0368
 1020MOL0     H37658   4.194  -0.006  10.047 -1.6051  0.8256 -0.0058
 1020MOL0     H37659   4.138  -0.171  10.004 -0.0840  1.8087 -1.1938
 1020MOL0     H37660   4.308  -0.294  10.394  0.2660 -0.7231 -0.1733
 1020MOL0     H37661   4.522  -0.417  10.392  1.7309 -3.1073 -1.8826
 1020MOL0     H37662   4.927  -0.481   9.904 -0.8123 -1.8726  2.4229
 1020MOL0     H37663   5.164  -0.516   9.883 -0.9870 -0.8077  0.2808
 1020MOL0     H37664   5.405  -0.254  10.140  0.4058 -1.2386  1.3318
 1020MOL0     H37665   5.446  -0.412  10.221 -1.8942 -1.2039  1.7148
 1020MOL0     H37666   5.576  -0.452  10.012 -0.1547 -0.2610  1.2939
 1020MOL0     H37667   5.602  -0.275   9.993  1.1525  1.3652  1.2217
 1020MOL0     H37668   5.664  -0.265  10.234 -2.1888 -0.3280  0.2043
 1020MOL0     H37669   5.664  -0.445  10.238  0.6570  1.0124  1.9237
 1020MOL0     H37670   5.816  -0.473  10.071 -2.9753 -0.0438 -0.9432
 1020MOL0     H37671   5.889  -0.375  10.201 -0.1781 -0.9259 -1.2477
 1020MOL0     H37672   5.806  -0.265   9.924  0.3768 -1.7509 -0.3878
 1020MOL0     H37673   5.968  -0.290   9.994  0.3789  2.8919  0.4674
 1020MOL0     H37674   5.757  -0.101  10.108  0.1912 -0.9495  0.0908
 1020MOL0     H37675   5.927  -0.100  10.150  0.4353 -0.1767  0.1491
 1020MOL0     H37676   5.949  -0.086   9.878 -1.7267 -0.7397 -0.5470
 1020MOL0     H37677   5.935   0.062   9.978  2.6668 -1.0823  0.1416
 1020MOL0     H37678   5.793   0.039   9.766 -5.2431 -1.1427 -2.7754
 1020MOL0     H37679   5.707  -0.088   9.831  1.0940  1.2676 -0.4655
 1020MOL0     H37680   5.222  -0.303  10.258  0.8224  0.0089 -0.2439
 1020MOL0     H37681   4.981  -0.278  10.287  4.6738  0.9240  0.5504
 1020MOL0     H37682   4.597  -0.252  10.004 -1.8860  0.7262 -1.2153
 1020MOL0     H37683   4.389  -0.138   9.998  0.0212  1.2015  0.1045
 1020MOL0     H37684   2.230   0.508   9.877  0.8422 -0.1220  0.5201
 1020MOL0     H37685   2.008   0.382   9.904  0.8234  2.2986 -0.2648
 1020MOL0     H37686   1.882  -0.116   9.937  0.1744 -2.3553  2.9809
 1020MOL0     H37687   1.704  -0.263   9.881 -0.6257  0.3796 -2.7048
 1020MOL0     H37688   1.297  -0.149  10.064  3.2315  0.0790 -0.3412
 1020MOL0     H37689   1.256  -0.298  10.020  0.2166 -0.3587 -1.2096
 1020MOL0     H37690   1.198  -0.237   9.798  0.1067 -2.7753  1.8622
 1020MOL0     H37691   1.266  -0.069   9.807 -1.7364  0.2727  0.5029
 1020MOL0     H37692   1.041  -0.149   9.993 -1.2426 -3.9989 -2.4951
 1020MOL0     H37693   0.997  -0.115   9.828 -0.4722 -2.5205  2.3272
 1020MOL0     H37694   1.106   0.100   9.845 -0.2551  0.3095  0.1569
 1020MOL0     H37695   0.973   0.095   9.957  0.4421  0.3873 -2.9933
 1020MOL0     H37696   1.250   0.167  10.249 -0.8228  1.7360 -0.7462
 1020MOL0     H37697   1.422   0.023  10.049 -0.8656 -0.4321 -1.1097
 1020MOL0     H37698   1.499   0.252   9.977  0.4091  0.5214 -1.6782
 1020MOL0     H37699   1.573   0.236  10.144  0.4204 -0.0922 -0.1828
 1020MOL0     H37700   1.667   0.300  10.003 -0.4017  1.4339 -0.0984
 1021MOL0     O37701   2.444   7.401   1.159 -0.3086 -0.2610 -0.0486
 1021MOL0     C37702   2.376   7.498   1.195 -0.7483  0.8059 -0.3677
 1021MOL0     O37703   2.428   7.618   1.248 -0.2156 -0.3260  0.0688
 1021MOL0     C37704   2.565   7.624   1.253 -1.0354 -0.8689  0.0151
 1021MOL0     C37705   2.631   7.626   1.379  0.5016 -0.5789  0.5344
 1021MOL0     C37706   2.768   7.665   1.380  0.2416  0.5781  1.0795
 1021MOL0     C37707   2.849   7.666   1.265  0.1250 -0.5224  0.9669
 1021MOL0     O37708   2.985   7.670   1.264 -0.2859 -0.4022 -0.5444
 1021MOL0     C37709   3.046   7.593   1.370 -0.1579  0.2948 -0.2651
 1021MOL0     C37710   3.198   7.606   1.343 -0.3558 -0.5144  0.7572
 1021MOL0     C37711   3.292   7.550   1.447  0.4626  1.0938  0.4343
 1021MOL0     C37712   3.435   7.603   1.437 -0.1248  1.0173 -0.2614
 1021MOL0     C37713   3.531   7.533   1.540 -0.2456 -0.8184  0.0311
 1021MOL0     C37714   3.644   7.632   1.566 -0.7602 -0.5440 -0.0665
 1021MOL0     C37715   3.731   7.672   1.451 -0.2533 -0.5762  0.4740
 1021MOL0     C37716   3.809   7.563   1.374  0.1503  0.1368 -0.8560
 1021MOL0     N37717   3.903   7.629   1.290 -0.0405  0.5567 -0.3451
 1021MOL0     C37718   4.022   7.688   1.316 -0.0502  1.0587 -0.1502
 1021MOL0     C37719   4.080   7.727   1.202  0.5576  0.2052  0.9008
 1021MOL0     C37720   4.213   7.794   1.176  0.2212 -0.5233  0.3943
 1021MOL0     C37721   4.324   7.691   1.159  0.2507 -1.1536 -0.3235
 1021MOL0     C37722   4.461   7.750   1.194 -0.6737  0.6047  0.7507
 1021MOL0     C37723   4.572   7.658   1.144  0.4499  0.7599 -0.5315
 1021MOL0     O37724   4.694   7.731   1.154 -0.3549 -0.0867 -0.7453
 1021MOL0     C37725   4.807   7.672   1.102  0.1187 -0.3823  0.3502
 1021MOL0     C37726   4.919   7.754   1.088 -0.1565  0.6960 -0.2905
 1021MOL0     C37727   5.038   7.708   1.030  0.7514 -0.7359  0.4161
 1021MOL0     C37728   5.053   7.575   1.001 -0.0186 -0.1081  0.5392
 1021MOL0     C37729   5.189   7.531   0.982 -0.1587 -0.0003 -0.5807
 1021MOL0     O37730   5.279   7.607   0.914 -0.4254  0.8962  0.2816
 1021MOL0     C37731   5.391   7.548   0.854  0.6389  0.2466  0.2830
 1021MOL0     C37732   5.408   7.414   0.830 -0.2506  0.2238  0.9333
 1021MOL0     C37733   5.522   7.352   0.782 -0.6173  0.1110  1.2387
 1021MOL0     C37734   5.636   7.436   0.776  0.3561  0.1588 -0.3497
 1021MOL0     O37735   5.754   7.374   0.764  0.6995 -0.5085 -0.6798
 1021MOL0     C37736   5.868   7.454   0.728  0.2168 -0.2836 -0.4768
 1021MOL0     C37737   5.974   7.360   0.670  0.1154  0.1831 -0.1751
 1021MOL0     C37738   6.104   7.421   0.617 -0.3570  0.2090 -0.8523
 1021MOL0     C37739   6.195   7.439   0.732 -0.7987 -0.5351 -0.1468
 1021MOL0     C37740   6.330   7.510   0.707  1.1068  0.8055 -0.3881
 1021MOL0     C37741   6.377   7.595   0.823  0.8961  0.6163  0.2269
 1021MOL0     C37742   6.406   7.514   0.946 -0.1302  0.7356 -0.8860
 1021MOL0     C37743   6.475   7.602   1.050 -0.2617 -0.4708  0.2372
 1021MOL0    Cl37744   6.644   7.623   1.020  0.1667  0.0334  0.2820
 1021MOL0     C37745   5.625   7.576   0.797 -0.5178  0.5041  0.2626
 1021MOL0     C37746   5.506   7.629   0.844  0.7987 -0.0805 -0.6386
 1021MOL0     O37747   5.208   7.418   1.036 -0.2651 -0.0255 -0.2331
 1021MOL0     C37748   4.935   7.494   1.008 -0.0392 -0.2237  0.0992
 1021MOL0     C37749   4.817   7.543   1.060  0.1681  0.1763  0.4522
 1021MOL0     N37750   3.996   7.684   1.100 -0.2402 -0.0221  0.6202
 1021MOL0     N37751   3.897   7.624   1.155 -0.1311 -0.2373 -0.6709
 1021MOL0     C37752   2.782   7.671   1.139  0.0185  1.2402 -0.5322
 1021MOL0     C37753   2.646   7.643   1.135 -1.0881 -0.4032  1.0094
 1021MOL0     C37754   2.229   7.474   1.210 -0.2358  0.1895  0.5621
 1021MOL0     C37755   2.162   7.539   1.309 -0.0884 -0.2477 -0.5880
 1021MOL0     C37756   2.029   7.510   1.345 -0.5471 -0.1536  0.7081
 1021MOL0     C37757   1.953   7.416   1.273  0.0229  0.7292  0.4066
 1021MOL0     O37758   1.826   7.381   1.306 -0.4068 -0.1466  0.0851
 1021MOL0     C37759   1.749   7.340   1.200  1.0750 -0.2334  0.8550
 1021MOL0     C37760   1.601   7.368   1.228 -0.1178 -0.1927 -0.0264
 1021MOL0     C37761   1.529   7.322   1.098 -0.3348 -0.0448 -1.1044
 1021MOL0     C37762   1.407   7.236   1.124  0.5982 -0.1134  0.3689
 1021MOL0     C37763   1.315   7.288   1.228 -1.4631 -0.0156  0.2582
 1021MOL0     C37764   1.251   7.348   1.315 -0.9547  1.5917 -0.1107
 1021MOL0     C37765   2.024   7.355   1.161  0.1403 -0.7297 -0.4458
 1021MOL0     C37766   2.160   7.387   1.128  0.7259 -0.0842 -0.4059
 1021MOL0     C37767   2.210   7.360   0.987 -0.0395  0.5107 -0.5732
 1021MOL0     H37768   2.575   7.619   1.471 -0.5906  3.3279  0.3611
 1021MOL0     H37769   2.814   7.652   1.478  0.9240 -0.5430  0.6245
 1021MOL0     H37770   3.014   7.624   1.470  1.3734 -0.9872  0.6791
 1021MOL0     H37771   3.025   7.487   1.351 -1.7327  0.4848  0.2792
 1021MOL0     H37772   3.221   7.713   1.334  0.8854 -0.6813  1.7397
 1021MOL0     H37773   3.212   7.561   1.245 -2.0269 -1.3829  0.8729
 1021MOL0     H37774   3.285   7.440   1.443 -0.4814  1.1243  0.9198
 1021MOL0     H37775   3.255   7.576   1.547 -1.8975  1.0065 -0.3603
 1021MOL0     H37776   3.477   7.569   1.341  0.2699 -0.8338  0.5274
 1021MOL0     H37777   3.443   7.712   1.443  1.2985  0.8871  0.6415
 1021MOL0     H37778   3.467   7.513   1.626 -0.5240 -1.6022 -0.3515
 1021MOL0     H37779   3.572   7.435   1.513 -2.6175 -2.1093  0.8685
 1021MOL0     H37780   3.597   7.722   1.608  0.5113 -1.0131  2.6278
 1021MOL0     H37781   3.713   7.597   1.644  2.0552  0.6927 -1.8429
 1021MOL0     H37782   3.806   7.739   1.492  4.3661 -4.7447 -0.2624
 1021MOL0     H37783   3.668   7.728   1.380  1.8409 -0.2582 -1.2472
 1021MOL0     H37784   3.854   7.499   1.451  1.0600  2.5623  0.7348
 1021MOL0     H37785   3.739   7.510   1.308 -0.5771  0.7446 -0.5788
 1021MOL0     H37786   4.062   7.692   1.417 -1.1838 -1.2938  0.4394
 1021MOL0     H37787   4.201   7.859   1.090  1.0793  0.4345  0.9666
 1021MOL0     H37788   4.237   7.858   1.261 -0.6485 -0.5094  0.6404
 1021MOL0     H37789   4.306   7.608   1.228 -3.4630 -0.5113 -0.3183
 1021MOL0     H37790   4.313   7.653   1.057 -1.6610 -0.2242 -0.5029
 1021MOL0     H37791   4.469   7.779   1.300 -0.7626  0.0992  0.8992
 1021MOL0     H37792   4.472   7.841   1.134 -1.2321 -0.8166 -1.6239
 1021MOL0     H37793   4.544   7.636   1.041 -3.4605 -0.6685  0.6231
 1021MOL0     H37794   4.577   7.570   1.209 -0.3722  2.6667  2.3249
 1021MOL0     H37795   4.912   7.855   1.127 -0.4390 -0.1813  2.0434
 1021MOL0     H37796   5.119   7.779   1.016 -0.0501  1.0127  3.6985
 1021MOL0     H37797   5.326   7.346   0.850  1.7846 -2.9973 -0.8417
 1021MOL0     H37798   5.544   7.246   0.772  2.8299  0.7062  1.2114
 1021MOL0     H37799   5.831   7.522   0.651 -0.9544  0.8848  1.0518
 1021MOL0     H37800   5.890   7.520   0.812 -1.3150  1.4158 -1.3290
 1021MOL0     H37801   5.986   7.274   0.737 -0.4157 -0.4786 -0.9068
 1021MOL0     H37802   5.931   7.317   0.578 -2.0137  2.5412 -0.3945
 1021MOL0     H37803   6.152   7.373   0.531 -2.5975  0.8415 -2.5464
 1021MOL0     H37804   6.088   7.518   0.570  0.0414  0.0345 -1.3542
 1021MOL0     H37805   6.207   7.336   0.767 -3.3231 -0.1267  2.2537
 1021MOL0     H37806   6.148   7.499   0.811 -0.5957 -1.9054  1.0545
 1021MOL0     H37807   6.307   7.579   0.626  0.4819  0.4450 -0.5220
 1021MOL0     H37808   6.403   7.440   0.665  1.7877  2.1474 -1.5183
 1021MOL0     H37809   6.464   7.653   0.790  0.5713  1.8842  1.5013
 1021MOL0     H37810   6.299   7.668   0.848 -0.1178  0.1514 -1.3899
 1021MOL0     H37811   6.461   7.420   0.932 -1.1956  0.4849 -4.1819
 1021MOL0     H37812   6.311   7.479   0.988 -1.0740  0.3034 -3.2290
 1021MOL0     H37813   6.419   7.695   1.040 -0.7459 -0.9461 -2.0117
 1021MOL0     H37814   6.471   7.555   1.149  2.2862 -1.6229 -0.1301
 1021MOL0     H37815   5.706   7.648   0.783 -0.6836  0.4906 -0.8999
 1021MOL0     H37816   5.501   7.736   0.863 -4.1419 -0.2349  0.4560
 1021MOL0     H37817   4.934   7.386   0.992 -3.9290 -0.1908 -0.9380
 1021MOL0     H37818   4.734   7.475   1.075  1.8721 -2.7451 -2.1926
 1021MOL0     H37819   2.843   7.676   1.050  1.2938  1.8175  0.3506
 1021MOL0     H37820   2.603   7.625   1.037 -1.2827 -2.2266  1.3934
 1021MOL0     H37821   2.210   7.619   1.365  0.2390 -1.3022  0.7179
 1021MOL0     H37822   1.992   7.558   1.435 -0.4722  1.3946 -0.0509
 1021MOL0     H37823   1.749   7.231   1.200  1.2121 -0.2339  1.2532
 1021MOL0     H37824   1.772   7.393   1.107  0.4910 -0.0427  0.8161
 1021MOL0     H37825   1.592   7.476   1.243  1.6547  0.0747 -0.7480
 1021MOL0     H37826   1.569   7.314   1.318 -1.5301  2.2274  1.0131
 1021MOL0     H37827   1.591   7.266   1.028  0.3774 -0.3494 -0.2442
 1021MOL0     H37828   1.496   7.413   1.046 -2.4876 -1.1549 -1.8169
 1021MOL0     H37829   1.355   7.230   1.027 -0.5285  2.2495  0.7637
 1021MOL0     H37830   1.432   7.132   1.146 -1.5383 -1.0637 -1.2637
 1021MOL0     H37831   1.205   7.390   1.402  1.4976  1.7549  1.2039
 1021MOL0     H37832   1.958   7.307   1.089 -0.4748 -0.7453  0.1183
 1021MOL0     H37833   2.318   7.340   0.989  0.6572  3.8083  0.6633
 1021MOL0     H37834   2.151   7.279   0.943 -1.3610 -0.1113  2.1449
 1021MOL0     H37835   2.192   7.450   0.928  2.1267  1.3579 -0.0314
 1022MOL0     O37836   1.215   1.294   7.425  0.4455  0.3621 -0.0510
 1022MOL0     C37837   1.186   1.190   7.359 -0.2248 -0.0611  0.5626
 1022MOL0     O37838   1.263   1.069   7.372 -0.6862 -0.5538  0.8489
 1022MOL0     C37839   1.378   1.066   7.449  0.0006  0.2819  0.2100
 1022MOL0     C37840   1.471   1.171   7.473 -0.3534  0.2501  0.0478
 1022MOL0     C37841   1.572   1.152   7.569  0.0556  0.4418  0.5178
 1022MOL0     C37842   1.586   1.024   7.626 -0.1883 -0.2022 -1.0404
 1022MOL0     O37843   1.677   0.995   7.733 -0.3018  0.1971  0.0349
 1022MOL0     C37844   1.815   0.995   7.722 -0.0128 -0.0388 -0.2399
 1022MOL0     C37845   1.881   1.042   7.599  0.1615 -0.2468  0.0397
 1022MOL0     C37846   2.016   1.089   7.627  0.0259 -0.2327  0.0387
 1022MOL0     C37847   2.117   1.103   7.509 -0.1840 -0.1229 -1.3137
 1022MOL0     C37848   2.064   1.174   7.391  0.0035 -0.5512 -0.0645
 1022MOL0     C37849   2.177   1.230   7.293  0.1862 -0.1158  0.6707
 1022MOL0     C37850   2.241   1.114   7.224 -0.2737 -0.3615 -0.1211
 1022MOL0     C37851   2.380   1.091   7.283  0.3290  0.5424 -0.3003
 1022MOL0     N37852   2.461   0.980   7.223  0.2529 -0.2422 -0.2134
 1022MOL0     C37853   2.564   1.001   7.137 -0.1769  0.9368 -0.1421
 1022MOL0     C37854   2.604   0.876   7.101 -0.1885  0.3744 -0.2109
 1022MOL0     C37855   2.728   0.850   7.028 -0.4355 -0.0560  0.3929
 1022MOL0     C37856   2.751   0.710   6.978  0.0021  0.8747  1.0365
 1022MOL0     C37857   2.873   0.670   6.888 -0.5072 -0.9918  0.1222
 1022MOL0     C37858   2.999   0.644   6.961 -0.0728 -0.4689  0.0250
 1022MOL0     O37859   3.100   0.611   6.861 -0.6176 -0.6794 -0.3403
 1022MOL0     C37860   3.230   0.622   6.897 -0.1069  0.0218 -0.3875
 1022MOL0     C37861   3.321   0.600   6.791  0.0141  0.3793  0.1539
 1022MOL0     C37862   3.460   0.592   6.803  0.8918 -0.1912 -0.3818
 1022MOL0     C37863   3.515   0.603   6.931  0.8212  0.0644  0.1110
 1022MOL0     C37864   3.658   0.585   6.946  0.1448 -0.3312  0.5480
 1022MOL0     O37865   3.714   0.605   7.071 -0.1714  0.1913  0.5766
 1022MOL0     C37866   3.851   0.624   7.077  0.0437  0.6399 -0.2001
 1022MOL0     C37867   3.934   0.562   7.168 -0.0418  0.8010  0.5755
 1022MOL0     C37868   4.071   0.591   7.179 -0.1238  1.0117 -0.1871
 1022MOL0     C37869   4.127   0.687   7.101  0.1573 -0.5742 -0.3677
 1022MOL0     O37870   4.261   0.703   7.124  0.2107  0.1760 -0.4260
 1022MOL0     C37871   4.305   0.833   7.182 -0.7080 -0.8253  0.1766
 1022MOL0     C37872   4.451   0.840   7.233  1.0012 -0.1730 -0.0853
 1022MOL0     C37873   4.481   0.726   7.330 -0.2498 -0.2756 -0.6866
 1022MOL0     C37874   4.636   0.683   7.328  0.4175 -0.0294  0.3370
 1022MOL0     C37875   4.677   0.571   7.433  0.4107 -0.2175  0.1846
 1022MOL0     C37876   4.803   0.494   7.385 -0.1873 -0.1002  0.5525
 1022MOL0     C37877   4.918   0.594   7.357  0.4837 -0.6300  0.3430
 1022MOL0     C37878   5.052   0.528   7.385  0.9709  0.1264 -0.5001
 1022MOL0    Cl37879   5.096   0.399   7.277 -0.6047  0.5597  0.0943
 1022MOL0     C37880   4.057   0.757   7.008 -0.2364 -0.2931  0.3249
 1022MOL0     C37881   3.919   0.725   6.999 -0.6363  0.5091  0.5772
 1022MOL0     O37882   3.712   0.556   6.839 -0.2670 -0.2388 -0.0937
 1022MOL0     C37883   3.425   0.618   7.042  1.2143 -0.1192 -0.1617
 1022MOL0     C37884   3.284   0.640   7.023  0.0312  0.0177  0.4459
 1022MOL0     N37885   2.531   0.788   7.175 -0.4704  0.7287 -1.0986
 1022MOL0     N37886   2.445   0.845   7.249 -0.6550 -0.1969  0.0055
 1022MOL0     C37887   1.494   0.918   7.594 -0.2374 -0.4644  0.3141
 1022MOL0     C37888   1.384   0.945   7.509 -0.2644  0.7475 -0.4318
 1022MOL0     C37889   1.050   1.176   7.298  0.3675 -0.1639  0.3084
 1022MOL0     C37890   0.959   1.102   7.369  0.1087 -1.0658 -0.3975
 1022MOL0     C37891   0.834   1.071   7.321  0.5741 -0.6997 -0.0612
 1022MOL0     C37892   0.795   1.124   7.202 -0.0061  0.6128  0.8592
 1022MOL0     O37893   0.668   1.084   7.169  0.3350 -0.6695  0.3778
 1022MOL0     C37894   0.613   1.147   7.051 -0.0065  0.1866  0.0196
 1022MOL0     C37895   0.476   1.072   7.021 -0.2744 -0.0393 -0.9053
 1022MOL0     C37896   0.358   1.091   7.118 -0.2941  0.1413  0.4897
 1022MOL0     C37897   0.284   1.229   7.108  0.0141 -0.1533 -0.0141
 1022MOL0     C37898   0.345   1.328   7.197  0.4977 -0.3765  1.4862
 1022MOL0     C37899   0.377   1.419   7.265  0.0553 -0.1725  0.1742
 1022MOL0     C37900   0.894   1.189   7.121  0.2722  0.1958 -0.7837
 1022MOL0     C37901   1.023   1.211   7.167  0.4096  0.0319 -0.2671
 1022MOL0     C37902   1.131   1.267   7.088  0.5615 -0.6634 -0.0722
 1022MOL0     H37903   1.452   1.268   7.430 -1.1480  2.7485  5.2522
 1022MOL0     H37904   1.635   1.234   7.603 -0.3293  0.2790  1.6556
 1022MOL0     H37905   1.845   1.063   7.802 -0.7398  2.7132 -2.1736
 1022MOL0     H37906   1.848   0.895   7.753  1.1978 -1.1531 -4.5465
 1022MOL0     H37907   1.834   1.127   7.548 -0.7451 -0.5619  0.3323
 1022MOL0     H37908   1.879   0.958   7.529 -1.8931 -0.0325 -0.2321
 1022MOL0     H37909   2.061   1.040   7.714 -0.6407 -0.6932  0.1287
 1022MOL0     H37910   2.008   1.193   7.660 -2.6279 -0.2668 -0.2812
 1022MOL0     H37911   2.208   1.154   7.539  1.7229 -3.3957 -1.0038
 1022MOL0     H37912   2.161   1.007   7.479  0.8060 -0.4043  0.8754
 1022MOL0     H37913   1.998   1.108   7.334  1.2142 -1.3910 -0.5627
 1022MOL0     H37914   2.004   1.256   7.429  1.0632  0.8066 -1.1924
 1022MOL0     H37915   2.138   1.290   7.210  2.2379  1.1015  0.5175
 1022MOL0     H37916   2.251   1.299   7.333 -1.3996  2.4950 -0.6004
 1022MOL0     H37917   2.257   1.136   7.118  1.6730  1.0858  0.4108
 1022MOL0     H37918   2.178   1.025   7.212  3.1390 -2.8674 -1.1960
 1022MOL0     H37919   2.437   1.184   7.282  1.9676 -0.3967  0.3434
 1022MOL0     H37920   2.379   1.065   7.389  1.6469  4.4736  0.8363
 1022MOL0     H37921   2.603   1.097   7.104  0.1945  0.7867 -0.1423
 1022MOL0     H37922   2.732   0.914   6.939  4.0697 -1.2226 -0.4943
 1022MOL0     H37923   2.816   0.873   7.089 -0.6679 -0.1389  0.7597
 1022MOL0     H37924   2.774   0.648   7.066 -0.3146  0.4611  0.8355
 1022MOL0     H37925   2.658   0.683   6.928  0.4024  0.8705  0.2796
 1022MOL0     H37926   2.888   0.747   6.812  2.6287 -2.2858 -0.7245
 1022MOL0     H37927   2.857   0.578   6.832  2.6258 -2.0172  0.7296
 1022MOL0     H37928   2.985   0.556   7.024 -2.8888  0.2784  0.5672
 1022MOL0     H37929   3.037   0.730   7.018 -3.1125  2.2276 -1.6501
 1022MOL0     H37930   3.269   0.594   6.696 -2.3184  1.3593  1.2955
 1022MOL0     H37931   3.515   0.584   6.710 -1.3788 -0.1821 -1.8081
 1022MOL0     H37932   3.900   0.474   7.223  0.4857 -0.7053 -1.3640
 1022MOL0     H37933   4.129   0.525   7.242 -1.9280 -0.4614  0.0255
 1022MOL0     H37934   4.293   0.912   7.107  1.7363  0.4250  0.9727
 1022MOL0     H37935   4.242   0.863   7.267  1.5289 -1.1705  2.0569
 1022MOL0     H37936   4.518   0.848   7.147 -0.8853  2.0138 -1.4547
 1022MOL0     H37937   4.459   0.928   7.298 -1.5117  0.6521 -0.7928
 1022MOL0     H37938   4.460   0.761   7.432 -1.8629 -0.8435 -0.8007
 1022MOL0     H37939   4.415   0.640   7.317  0.3911 -1.1859  1.5463
 1022MOL0     H37940   4.698   0.773   7.331 -1.4692  1.4492 -1.6630
 1022MOL0     H37941   4.651   0.630   7.233 -2.5583 -2.5999  1.1212
 1022MOL0     H37942   4.591   0.504   7.439  0.1434  0.0462 -0.5811
 1022MOL0     H37943   4.697   0.630   7.523  0.8336  2.7923 -1.7543
 1022MOL0     H37944   4.837   0.434   7.469  2.6761 -2.8781 -2.3118
 1022MOL0     H37945   4.786   0.444   7.289  2.2953 -1.1273  0.5664
 1022MOL0     H37946   4.909   0.685   7.418 -0.5697  1.5128 -2.7128
 1022MOL0     H37947   4.902   0.633   7.256 -0.3660 -1.3033  0.2044
 1022MOL0     H37948   5.129   0.606   7.384  0.2437  0.8559 -1.0993
 1022MOL0     H37949   5.053   0.483   7.485  1.0483  2.4692  0.6166
 1022MOL0     H37950   4.100   0.834   6.945 -3.1464 -1.7501 -3.8531
 1022MOL0     H37951   3.860   0.773   6.922 -0.3606 -1.0574 -0.6890
 1022MOL0     H37952   3.466   0.634   7.141  1.3566  1.8838 -0.4891
 1022MOL0     H37953   3.229   0.657   7.115 -2.2479 -2.8658 -0.2357
 1022MOL0     H37954   1.512   0.823   7.642  0.4918  0.4164  1.8763
 1022MOL0     H37955   1.308   0.869   7.491 -0.6707  1.0965 -0.2049
 1022MOL0     H37956   1.004   1.059   7.458  3.5198  1.2321 -0.8303
 1022MOL0     H37957   0.767   1.007   7.377  0.6973  3.0986  5.1806
 1022MOL0     H37958   0.680   1.141   6.965  2.0628 -1.2074  1.6281
 1022MOL0     H37959   0.601   1.253   7.075  1.2197  0.0893  1.1486
 1022MOL0     H37960   0.502   0.966   7.014  3.0744  0.7467 -1.6881
 1022MOL0     H37961   0.451   1.111   6.922  0.4473  1.1735 -0.6308
 1022MOL0     H37962   0.383   1.061   7.219  2.8958 -0.5579 -0.4009
 1022MOL0     H37963   0.285   1.023   7.073  0.0529  2.5338 -4.4076
 1022MOL0     H37964   0.284   1.267   7.005 -4.6192 -2.5160 -1.1601
 1022MOL0     H37965   0.186   1.205   7.149 -0.3787  0.2557 -0.6945
 1022MOL0     H37966   0.408   1.502   7.325  1.1485  0.8689 -1.6998
 1022MOL0     H37967   0.860   1.240   7.031  0.4835  1.9173  0.0722
 1022MOL0     H37968   1.148   1.372   7.114 -2.9470 -0.6867  3.3291
 1022MOL0     H37969   1.223   1.213   7.112  2.1773  2.2024  0.7511
 1022MOL0     H37970   1.113   1.243   6.983 -1.5432 -3.8901  0.8741
 1023MOL0     O37971   2.740   1.991   3.090  0.4732  0.6129  0.5370
 1023MOL0     C37972   2.694   2.102   3.106 -0.5390  0.7037  0.3764
 1023MOL0     O37973   2.764   2.214   3.134 -0.4374 -0.0201 -0.5259
 1023MOL0     C37974   2.905   2.225   3.125 -0.5182  0.2161 -0.7795
 1023MOL0     C37975   2.981   2.119   3.188 -0.4130  1.0478  0.5341
 1023MOL0     C37976   3.120   2.124   3.188  0.3024 -0.0182  0.9061
 1023MOL0     C37977   3.176   2.213   3.102  0.4508  0.2643 -0.0945
 1023MOL0     O37978   3.308   2.229   3.086  0.1129 -0.3203  0.0573
 1023MOL0     C37979   3.384   2.169   3.194  0.0335 -0.0030  1.1062
 1023MOL0     C37980   3.530   2.220   3.188  0.2738 -1.1249  0.2108
 1023MOL0     C37981   3.605   2.150   3.064 -0.4387  0.1270 -0.0359
 1023MOL0     C37982   3.735   2.210   3.008 -0.1725  0.2639  0.5885
 1023MOL0     C37983   3.709   2.303   2.895  0.4426 -0.4865  0.2200
 1023MOL0     C37984   3.826   2.370   2.816 -0.2195 -0.0848  0.1537
 1023MOL0     C37985   3.909   2.456   2.913  0.0699 -0.0923 -0.0335
 1023MOL0     C37986   4.024   2.537   2.855 -0.0955 -0.3758 -0.3025
 1023MOL0     N37987   4.153   2.463   2.851 -0.2458 -0.2919 -0.3067
 1023MOL0     C37988   4.185   2.350   2.788 -0.5734 -0.7174  0.6276
 1023MOL0     C37989   4.307   2.304   2.831 -0.2270  1.1946  0.2476
 1023MOL0     C37990   4.385   2.183   2.793  0.6142  0.2326 -0.0793
 1023MOL0     C37991   4.528   2.223   2.749  0.5226  0.3726  1.1348
 1023MOL0     C37992   4.629   2.240   2.865 -0.2421  0.4507 -0.1433
 1023MOL0     C37993   4.766   2.270   2.804  0.2029 -0.0817  0.4880
 1023MOL0     O37994   4.837   2.149   2.769 -0.1208  0.0279  0.3999
 1023MOL0     C37995   4.978   2.144   2.792 -0.5739  0.7523  0.2367
 1023MOL0     C37996   5.053   2.045   2.728 -0.0377 -0.5356  0.0405
 1023MOL0     C37997   5.193   2.027   2.746  0.3402  1.2483 -1.3000
 1023MOL0     C37998   5.253   2.106   2.846 -0.8104  0.1907  0.4030
 1023MOL0     C37999   5.400   2.094   2.881 -0.4131  0.3789 -0.0196
 1023MOL0     O38000   5.459   2.204   2.940  1.0328 -0.1303  0.2800
 1023MOL0     C38001   5.596   2.190   2.959  0.3291  0.1547 -0.1600
 1023MOL0     C38002   5.632   2.165   3.090  0.1812 -1.1189 -0.1823
 1023MOL0     C38003   5.769   2.169   3.126  0.3622 -0.0513 -0.4908
 1023MOL0     C38004   5.872   2.180   3.027 -1.1447 -0.6835  1.0238
 1023MOL0     O38005   6.008   2.176   3.046  0.0845  0.3439 -0.7507
 1023MOL0     C38006   6.050   2.195   3.183  0.5728  0.3735  0.3642
 1023MOL0     C38007   6.199   2.167   3.189 -0.2315 -0.7857  0.7866
 1023MOL0     C38008   6.252   2.211   3.331 -0.3139  0.3871  0.3798
 1023MOL0     C38009   6.389   2.163   3.362  0.0856 -0.7639 -0.1799
 1023MOL0     C38010   6.456   2.207   3.493 -0.4400 -0.3139 -0.3046
 1023MOL0     C38011   6.608   2.171   3.502  0.1213  0.2114  0.6938
 1023MOL0     C38012   6.679   2.207   3.630  0.2881  0.3038  0.1838
 1023MOL0     C38013   6.721   2.359   3.640  1.0829 -0.1454  0.4970
 1023MOL0    Cl38014   6.844   2.377   3.516 -0.1409 -0.0637  0.4917
 1023MOL0     C38015   5.836   2.194   2.895 -0.4675 -0.5643  0.8815
 1023MOL0     C38016   5.694   2.202   2.863  0.1813 -0.2108  0.3486
 1023MOL0     O38017   5.461   1.995   2.845  1.4946 -0.4294 -0.5427
 1023MOL0     C38018   5.180   2.203   2.915  0.0238  1.1236  0.0613
 1023MOL0     C38019   5.048   2.231   2.878 -0.5787  0.2629 -0.3889
 1023MOL0     N38020   4.333   2.382   2.939 -0.0199  0.4925 -0.6866
 1023MOL0     N38021   4.247   2.480   2.941  0.2220  1.0368 -0.0699
 1023MOL0     C38022   3.101   2.309   3.035  0.1761 -0.8394 -0.5437
 1023MOL0     C38023   2.963   2.315   3.043  1.1365  0.8615  0.9275
 1023MOL0     C38024   2.545   2.119   3.111 -0.3040 -0.3562 -0.3027
 1023MOL0     C38025   2.493   2.209   3.198 -0.2972 -0.2323  0.0305
 1023MOL0     C38026   2.354   2.224   3.222 -0.0768 -0.0023 -0.1573
 1023MOL0     C38027   2.262   2.140   3.158 -0.1535  0.6901  0.2505
 1023MOL0     O38028   2.128   2.124   3.195 -0.1498  0.9879  0.1496
 1023MOL0     C38029   2.057   2.245   3.234  0.3623 -0.4472  0.3997
 1023MOL0     C38030   1.914   2.192   3.265  0.5097  0.1950  0.4173
 1023MOL0     C38031   1.922   2.104   3.396 -0.0501 -0.5397 -0.9610
 1023MOL0     C38032   1.895   2.210   3.507  0.7078  0.5128  0.0365
 1023MOL0     C38033   1.860   2.137   3.640 -0.4630  0.1453 -0.4217
 1023MOL0     C38034   1.842   2.083   3.745  0.2983  0.5493 -0.5738
 1023MOL0     C38035   2.309   2.046   3.060  0.5625  0.0467  0.5143
 1023MOL0     C38036   2.452   2.041   3.033 -0.2165 -0.1963 -0.9163
 1023MOL0     C38037   2.504   1.955   2.921  0.6733 -0.0347  0.0607
 1023MOL0     H38038   2.927   2.037   3.233  1.0305 -0.6206 -0.6630
 1023MOL0     H38039   3.169   2.047   3.247 -2.7080 -1.3999  1.8237
 1023MOL0     H38040   3.350   2.185   3.297  0.1883 -1.0761  1.3367
 1023MOL0     H38041   3.368   2.063   3.170 -0.6428  0.0297  1.3828
 1023MOL0     H38042   3.578   2.181   3.278  3.4507 -0.6904 -1.1707
 1023MOL0     H38043   3.539   2.329   3.188 -0.5416 -1.0528  0.1313
 1023MOL0     H38044   3.545   2.146   2.973  1.6036 -5.2603 -1.5411
 1023MOL0     H38045   3.626   2.044   3.082  1.6871  0.4344 -0.4043
 1023MOL0     H38046   3.794   2.268   3.080 -0.8742  3.8013 -1.4228
 1023MOL0     H38047   3.791   2.126   2.968  0.6627 -0.1233  2.4667
 1023MOL0     H38048   3.663   2.239   2.819  1.7186 -1.4906  0.2525
 1023MOL0     H38049   3.641   2.382   2.928  1.4314  0.7206 -0.5542
 1023MOL0     H38050   3.886   2.290   2.771 -1.5273 -0.5828 -0.7578
 1023MOL0     H38051   3.782   2.433   2.739 -0.2579  0.6206  0.7497
 1023MOL0     H38052   3.959   2.390   2.984 -2.1908 -0.9149  0.8692
 1023MOL0     H38053   3.840   2.522   2.966  1.9124  2.1336 -0.2485
 1023MOL0     H38054   4.000   2.571   2.754  0.8480 -3.3948 -1.6679
 1023MOL0     H38055   4.027   2.631   2.911  0.0534  0.5012 -1.7363
 1023MOL0     H38056   4.132   2.296   2.710 -4.0027  0.8659  1.6663
 1023MOL0     H38057   4.383   2.106   2.870  0.9652 -0.7951 -1.0670
 1023MOL0     H38058   4.333   2.124   2.716  0.8634 -1.3792  0.9454
 1023MOL0     H38059   4.559   2.137   2.689  3.2613  2.2445 -0.3419
 1023MOL0     H38060   4.537   2.300   2.672  0.2766 -0.5446  0.1581
 1023MOL0     H38061   4.629   2.147   2.922  1.9268  1.4468  1.6077
 1023MOL0     H38062   4.602   2.330   2.920 -1.0938  1.4316 -2.0654
 1023MOL0     H38063   4.821   2.326   2.880  3.1281 -2.9369  0.7091
 1023MOL0     H38064   4.754   2.339   2.720  1.2879 -0.1893  0.2201
 1023MOL0     H38065   5.009   1.975   2.657  1.4547  1.1329 -2.6934
 1023MOL0     H38066   5.229   1.944   2.686  0.1190  0.9705 -1.0464
 1023MOL0     H38067   5.558   2.139   3.164 -1.2653 -2.7281 -2.0710
 1023MOL0     H38068   5.788   2.145   3.230 -0.2414 -1.0915 -0.6089
 1023MOL0     H38069   6.019   2.294   3.220 -1.5308 -0.4879  1.0895
 1023MOL0     H38070   5.998   2.125   3.250 -3.3561  0.1713 -2.5482
 1023MOL0     H38071   6.225   2.064   3.165 -2.1598 -1.0340 -0.5182
 1023MOL0     H38072   6.247   2.226   3.110 -1.0140 -1.0255  0.1087
 1023MOL0     H38073   6.256   2.320   3.342 -2.8612  0.3554  2.7680
 1023MOL0     H38074   6.191   2.177   3.415 -1.5744  1.3436 -0.1123
 1023MOL0     H38075   6.455   2.194   3.280 -0.4742 -1.2419 -0.8226
 1023MOL0     H38076   6.382   2.054   3.356 -0.3215 -0.6568 -2.5690
 1023MOL0     H38077   6.403   2.147   3.567 -1.7915 -0.0342 -1.0152
 1023MOL0     H38078   6.443   2.315   3.506 -2.8494 -0.1810 -2.9179
 1023MOL0     H38079   6.603   2.062   3.492 -3.0888  0.3036  0.1633
 1023MOL0     H38080   6.659   2.216   3.416 -1.1294 -0.3632 -0.3964
 1023MOL0     H38081   6.759   2.133   3.643 -0.3043 -1.4119 -4.2582
 1023MOL0     H38082   6.605   2.204   3.711  0.8367 -1.3374  0.6652
 1023MOL0     H38083   6.632   2.419   3.616  1.9840  0.8796 -0.4267
 1023MOL0     H38084   6.751   2.373   3.744  0.4114  4.8094  0.2715
 1023MOL0     H38085   5.914   2.210   2.822 -0.0482  1.6944  1.7231
 1023MOL0     H38086   5.660   2.228   2.763 -0.4750 -2.1745  0.0061
 1023MOL0     H38087   5.229   2.269   2.986 -2.1642  0.5531  2.2278
 1023MOL0     H38088   4.994   2.312   2.925  0.5775  1.3289 -0.8511
 1023MOL0     H38089   3.152   2.382   2.973  0.1899  0.4905  0.9827
 1023MOL0     H38090   2.906   2.395   2.997  1.2187 -0.4589 -1.6686
 1023MOL0     H38091   2.565   2.268   3.254  3.0163 -1.6148 -2.4110
 1023MOL0     H38092   2.324   2.289   3.304 -2.3531 -1.7957  0.5432
 1023MOL0     H38093   2.055   2.307   3.145 -1.2258 -3.3831 -1.7876
 1023MOL0     H38094   2.113   2.296   3.314 -0.2141  0.5443  0.1786
 1023MOL0     H38095   1.877   2.131   3.182  3.8611  1.0835 -1.9645
 1023MOL0     H38096   1.839   2.271   3.265  2.3842  2.1277 -1.6791
 1023MOL0     H38097   2.025   2.068   3.407 -0.5472 -2.0486 -1.0341
 1023MOL0     H38098   1.852   2.020   3.402  1.8061 -2.0264  1.3878
 1023MOL0     H38099   1.989   2.263   3.523 -0.2183  1.2515  4.6194
 1023MOL0     H38100   1.824   2.289   3.482  0.2188 -0.6960 -2.7807
 1023MOL0     H38101   1.850   2.049   3.847 -0.9813  0.3499 -0.5219
 1023MOL0     H38102   2.235   1.987   3.006  0.3620 -0.1935  1.0409
 1023MOL0     H38103   2.570   1.876   2.959  1.7475  0.7627 -0.1030
 1023MOL0     H38104   2.425   1.894   2.876  0.1418  0.7932 -0.1421
 1023MOL0     H38105   2.553   2.012   2.841 -3.1544  3.3629 -0.2009
 1024MOL0     O38106  10.469   7.816   9.845  0.2047  0.5007  0.1360
 1024MOL0     C38107  10.362   7.766   9.806  0.8009  0.1064  0.0512
 1024MOL0     O38108  10.348   7.643   9.745 -0.2568 -0.5620 -0.1534
 1024MOL0     C38109  10.470   7.568   9.729 -0.0153  0.6114  0.9866
 1024MOL0     C38110  10.524   7.507   9.848  0.6833  0.7739  0.4567
 1024MOL0     C38111  10.644   7.425   9.829 -0.3965  0.6867 -0.5792
 1024MOL0     C38112  10.709   7.415   9.702  0.2943  0.3175  0.7222
 1024MOL0     O38113  10.820   7.331   9.686 -0.0528 -0.5122  0.0674
 1024MOL0     C38114  10.916   7.366   9.589 -1.2557  0.6392  0.1626
 1024MOL0     C38115  10.899   7.286   9.455  0.4627  0.9857  0.0050
 1024MOL0     C38116  11.005   7.316   9.350  0.0407 -0.0163  0.3369
 1024MOL0     C38117  10.977   7.430   9.254  0.9578  0.1988  1.0875
 1024MOL0     C38118  11.089   7.459   9.156 -0.4764 -0.1662  0.6412
 1024MOL0     C38119  11.225   7.488   9.208  0.2612 -0.1031  0.4939
 1024MOL0     C38120  11.327   7.504   9.098  0.2744 -0.2823  0.0525
 1024MOL0     C38121  11.464   7.547   9.155  0.2265  0.2919  0.9334
 1024MOL0     N38122  11.553   7.534   9.042 -0.0920  0.0749 -0.1012
 1024MOL0     C38123  11.614   7.422   8.998 -0.2317  0.6618 -0.3144
 1024MOL0     C38124  11.699   7.471   8.908  1.4552  0.8037  0.5361
 1024MOL0     C38125  11.797   7.400   8.818 -0.8545  0.2308 -0.1639
 1024MOL0     C38126  11.920   7.330   8.884 -0.6582  0.1788  0.1022
 1024MOL0     C38127  12.008   7.291   8.766 -0.1101 -0.2081 -1.2440
 1024MOL0     C38128  12.131   7.200   8.798  0.4930  0.2760 -1.1224
 1024MOL0     O38129  12.213   7.186   8.681 -0.5081 -0.1304  0.1866
 1024MOL0     C38130  12.328   7.110   8.691  0.2225 -0.3859 -0.8127
 1024MOL0     C38131  12.365   7.030   8.586 -1.0828  0.3081 -0.0906
 1024MOL0     C38132  12.476   6.952   8.603 -0.5817 -0.3056 -0.0025
 1024MOL0     C38133  12.547   6.942   8.721 -0.2248 -0.6605  0.1550
 1024MOL0     C38134  12.672   6.854   8.731  0.1123  0.4487 -0.1543
 1024MOL0     O38135  12.757   6.871   8.837 -0.0573 -0.1037 -0.0732
 1024MOL0     C38136  12.890   6.825   8.819 -0.0960 -0.2483 -0.1070
 1024MOL0     C38137  12.960   6.814   8.700  0.2946  0.3296 -0.0375
 1024MOL0     C38138  13.093   6.774   8.693  0.5220 -0.0621 -0.8027
 1024MOL0     C38139  13.163   6.757   8.804 -0.3347 -0.6559 -0.1247
 1024MOL0     O38140  13.302   6.729   8.794 -0.6009 -0.1934  0.2391
 1024MOL0     C38141  13.380   6.678   8.901 -0.5404  0.2495  0.6124
 1024MOL0     C38142  13.513   6.631   8.855 -0.4752  0.9657  0.9584
 1024MOL0     C38143  13.614   6.644   8.965  1.1496 -0.0935  0.1725
 1024MOL0     C38144  13.697   6.519   8.978 -0.1622 -0.0273 -0.1302
 1024MOL0     C38145  13.796   6.526   9.097 -0.2399 -0.1209 -0.2443
 1024MOL0     C38146  13.909   6.625   9.088  0.2948  0.0225  0.4497
 1024MOL0     C38147  14.016   6.607   9.189  0.0419  0.0333 -0.6466
 1024MOL0     C38148  14.150   6.673   9.150 -0.1189 -0.6657  0.1985
 1024MOL0    Cl38149  14.290   6.615   9.255 -0.3251 -0.1411 -0.2502
 1024MOL0     C38150  13.097   6.761   8.924  0.0310 -0.5797  0.0504
 1024MOL0     C38151  12.961   6.791   8.929 -0.5069  1.0973 -0.2605
 1024MOL0     O38152  12.686   6.772   8.643  0.1542  0.4684 -0.1088
 1024MOL0     C38153  12.510   7.022   8.829  0.1051 -0.0484  0.1691
 1024MOL0     C38154  12.397   7.104   8.812 -0.7191 -0.0561 -0.2822
 1024MOL0     N38155  11.682   7.604   8.890 -0.0649  0.3189 -0.1607
 1024MOL0     N38156  11.600   7.645   8.979 -1.0393  0.4473 -0.5985
 1024MOL0     C38157  10.656   7.484   9.590  0.0682  0.6049 -0.1533
 1024MOL0     C38158  10.530   7.553   9.602 -1.3049  0.4998  0.2114
 1024MOL0     C38159  10.230   7.836   9.830  0.4501  0.1008 -1.3099
 1024MOL0     C38160  10.112   7.782   9.776 -0.1086  0.3359  0.9428
 1024MOL0     C38161   9.993   7.845   9.795 -0.8441  0.4736 -0.0780
 1024MOL0     C38162   9.976   7.958   9.878 -0.1717 -0.4997  0.6677
 1024MOL0     O38163   9.844   8.007   9.898 -0.5783  0.7864  0.0366
 1024MOL0     C38164   9.824   8.146   9.948 -0.4825  1.0683  0.4205
 1024MOL0     C38165   9.697   8.219   9.901 -0.1159  0.3951  0.0521
 1024MOL0     C38166   9.674   8.201   9.753 -0.1175 -0.0635 -1.0821
 1024MOL0     C38167   9.545   8.284   9.718 -0.3510 -0.1954 -0.1286
 1024MOL0     C38168   9.428   8.194   9.751 -0.3047 -0.4572 -0.3225
 1024MOL0     C38169   9.336   8.121   9.784 -0.2931  0.3299 -0.0489
 1024MOL0     C38170  10.093   8.011   9.931  0.3923  0.4345 -0.1297
 1024MOL0     C38171  10.215   7.962   9.903 -0.0699  0.2257  0.6104
 1024MOL0     C38172  10.330   8.044   9.958  0.7014  0.0080 -0.6578
 1024MOL0     H38173  10.475   7.516   9.944  0.5710  1.7477  0.3236
 1024MOL0     H38174  10.686   7.369   9.911 -0.3217 -1.2927 -1.9078
 1024MOL0     H38175  10.910   7.472   9.562 -2.2921  0.5873  0.1803
 1024MOL0     H38176  11.014   7.336   9.628 -1.4741 -2.4310 -1.3617
 1024MOL0     H38177  10.800   7.302   9.413  0.4123 -2.1271 -1.2864
 1024MOL0     H38178  10.912   7.179   9.475  0.7717  1.4394  2.5961
 1024MOL0     H38179  11.025   7.226   9.291 -0.5228 -0.6364  1.0724
 1024MOL0     H38180  11.102   7.331   9.400 -1.2047  0.0721  2.8902
 1024MOL0     H38181  10.889   7.427   9.189  3.5444  1.0740 -2.8098
 1024MOL0     H38182  10.978   7.511   9.326  1.4504 -0.5785  1.9746
 1024MOL0     H38183  11.096   7.374   9.088 -0.4957 -0.8624  1.4789
 1024MOL0     H38184  11.067   7.558   9.116  0.3149  0.5852  1.9661
 1024MOL0     H38185  11.221   7.580   9.268  0.0488  0.4176 -0.2954
 1024MOL0     H38186  11.264   7.412   9.276 -1.1109 -0.3457  1.0528
 1024MOL0     H38187  11.292   7.566   9.015 -1.1083 -0.0022  0.8013
 1024MOL0     H38188  11.343   7.405   9.056  0.2861  0.3633 -1.5319
 1024MOL0     H38189  11.451   7.650   9.190 -1.2329  0.0203  1.2684
 1024MOL0     H38190  11.510   7.481   9.230  2.7744  1.5346  0.5660
 1024MOL0     H38191  11.577   7.323   9.026 -2.8812  2.1548  2.0120
 1024MOL0     H38192  11.755   7.323   8.753  0.5863 -1.5507  0.9122
 1024MOL0     H38193  11.843   7.477   8.755 -0.3731 -0.7560 -1.0415
 1024MOL0     H38194  11.979   7.400   8.944  1.9890 -4.0885  3.0196
 1024MOL0     H38195  11.888   7.254   8.957  0.5059 -0.5004 -0.0785
 1024MOL0     H38196  12.041   7.386   8.722 -1.6627  1.0175  0.0913
 1024MOL0     H38197  11.948   7.240   8.690 -2.3512  1.1403 -0.5014
 1024MOL0     H38198  12.100   7.100   8.830 -0.6348  0.7727 -0.5812
 1024MOL0     H38199  12.178   7.244   8.886  0.2551 -3.1980  0.9375
 1024MOL0     H38200  12.316   7.020   8.489 -0.6843 -1.0484 -0.1808
 1024MOL0     H38201  12.506   6.884   8.524 -0.0744 -0.2838  0.1710
 1024MOL0     H38202  12.909   6.827   8.606  2.8379 -0.0871 -1.5809
 1024MOL0     H38203  13.145   6.755   8.599  3.6356 -1.4699  1.0330
 1024MOL0     H38204  13.403   6.753   8.977  1.2736 -1.0699  1.4477
 1024MOL0     H38205  13.330   6.592   8.945  3.1124 -2.5765 -0.2614
 1024MOL0     H38206  13.508   6.525   8.826 -1.1726  1.5553 -1.2773
 1024MOL0     H38207  13.545   6.686   8.766 -1.1768 -0.7763 -0.4258
 1024MOL0     H38208  13.677   6.731   8.943  0.6184  0.0858 -0.6749
 1024MOL0     H38209  13.569   6.671   9.061  0.3139  1.0039 -0.5070
 1024MOL0     H38210  13.761   6.496   8.893 -0.3237 -0.7631 -0.0589
 1024MOL0     H38211  13.623   6.441   8.999  0.7632 -0.8846  0.0363
 1024MOL0     H38212  13.848   6.430   9.098  1.5642  0.8135  0.1882
 1024MOL0     H38213  13.744   6.531   9.193 -0.1146  0.7497 -0.2082
 1024MOL0     H38214  13.959   6.616   8.991 -0.6809  2.4159 -0.3396
 1024MOL0     H38215  13.871   6.726   9.103 -1.2669 -0.1269 -1.8688
 1024MOL0     H38216  14.032   6.500   9.207  0.4491  0.4852  2.1205
 1024MOL0     H38217  13.986   6.648   9.286  4.6971  0.0087  1.0977
 1024MOL0     H38218  14.182   6.646   9.049  2.2024 -3.7040  1.5604
 1024MOL0     H38219  14.142   6.782   9.147  0.1705 -0.6626 -1.0123
 1024MOL0     H38220  13.168   6.754   9.006 -0.8608  1.5232  1.0727
 1024MOL0     H38221  12.913   6.797   9.026 -0.2556 -2.7071  0.2580
 1024MOL0     H38222  12.567   7.013   8.921 -1.0400 -0.1598  0.8881
 1024MOL0     H38223  12.378   7.172   8.895  0.5915  1.5912 -1.2654
 1024MOL0     H38224  10.694   7.469   9.490  1.3612 -0.3811  0.4471
 1024MOL0     H38225  10.483   7.600   9.516 -1.3748  1.0177  0.5294
 1024MOL0     H38226  10.107   7.684   9.728 -3.1657  1.2413 -0.8924
 1024MOL0     H38227   9.900   7.798   9.764 -0.4965 -0.1178 -0.2379
 1024MOL0     H38228   9.907   8.204   9.907  2.4369 -2.6197  0.5518
 1024MOL0     H38229   9.813   8.154  10.057 -2.4849 -0.1068  0.3593
 1024MOL0     H38230   9.702   8.325   9.925  0.3483  0.3273  0.2775
 1024MOL0     H38231   9.615   8.188   9.967  0.6904  1.4412  1.6153
 1024MOL0     H38232   9.671   8.094   9.728  1.6499  0.0033 -1.7757
 1024MOL0     H38233   9.753   8.246   9.691 -1.6784  1.2594 -2.2007
 1024MOL0     H38234   9.534   8.383   9.763 -0.3316  0.0336 -0.6223
 1024MOL0     H38235   9.560   8.288   9.609 -0.3050 -1.2099 -0.1669
 1024MOL0     H38236   9.260   8.058   9.826  2.2120 -1.7932  1.5618
 1024MOL0     H38237  10.085   8.096   9.999 -4.4711 -1.3841  2.0480
 1024MOL0     H38238  10.291   8.145   9.975 -4.5583 -1.3056 -2.8097
 1024MOL0     H38239  10.379   8.016  10.052  2.2530  0.5229 -1.2748
 1024MOL0     H38240  10.408   8.040   9.881  1.6767 -0.8875  0.3344
  11.39537  11.39537  11.39537
